/*--------------------------------*- C++ -*----------------------------------*\
| =========                 |                                                 |
| \\      /  F ield         | OpenFOAM: The Open Source CFD Toolbox           |
|  \\    /   O peration     | Version:  2112                                  |
|   \\  /    A nd           | Website:  www.openfoam.com                      |
|    \\/     M anipulation  |                                                 |
\*---------------------------------------------------------------------------*/
FoamFile
{
    version     2.0;
    format      ascii;
    arch        "LSB;label=32;scalar=64";
    class       volScalarField;
    location    "3.2";
    object      epsilon;
}
// * * * * * * * * * * * * * * * * * * * * * * * * * * * * * * * * * * * * * //

dimensions      [0 2 -3 0 0 0 0];

internalField   nonuniform List<scalar> 
64906
(
0.000263161
0.000305751
0.000332051
0.0003444
0.000349632
0.000351689
0.000352443
0.000352699
0.000352774
0.000352784
0.000352776
0.000352765
0.000352753
0.000352741
0.000352728
0.000352714
0.0003527
0.000352687
0.000352681
0.000352688
0.000352701
0.000352714
0.000352726
0.000352736
0.000352741
0.00035273
0.000352664
0.000352425
0.000351685
0.000349637
0.000344412
0.000332071
0.000305773
0.000263178
0.000305776
0.000553993
0.000700677
0.000776305
0.00081294
0.000829431
0.000836247
0.000838768
0.000839515
0.000839575
0.00083941
0.000839214
0.000839072
0.000838995
0.000838961
0.000838945
0.000838933
0.000838927
0.000838927
0.000838935
0.000838947
0.000838963
0.000838991
0.000839044
0.000839099
0.000839013
0.000838336
0.000835952
0.000829286
0.000812916
0.000776357
0.000700763
0.000554073
0.000305821
0.00033212
0.000700741
0.000930501
0.00105623
0.00112105
0.00115208
0.0011656
0.00117068
0.00117194
0.00117163
0.0011708
0.00117002
0.00116949
0.00116923
0.00116913
0.0011691
0.00116907
0.00116906
0.00116907
0.00116909
0.00116911
0.00116915
0.00116923
0.00116943
0.00116974
0.00116985
0.00116877
0.00116418
0.00115124
0.00112069
0.00105619
0.000930609
0.000700886
0.000332199
0.000344501
0.000776439
0.00105632
0.00121575
0.00130125
0.00134362
0.00136234
0.00136887
0.00136941
0.00136729
0.00136443
0.00136199
0.00136038
0.00135958
0.00135926
0.00135909
0.00135897
0.00135891
0.00135892
0.00135899
0.00135912
0.00135929
0.00135958
0.00136027
0.00136152
0.00136288
0.00136283
0.00135771
0.00134067
0.00129973
0.0012152
0.00105628
0.000776593
0.000344606
0.000349752
0.000813122
0.00112121
0.00130134
0.00140022
0.00144986
0.00147109
0.00147655
0.00147348
0.00146634
0.00145852
0.00145239
0.00144854
0.00144672
0.00144603
0.00144557
0.0014452
0.001445
0.00144501
0.00144522
0.00144561
0.00144607
0.00144672
0.00144839
0.00145176
0.00145649
0.00146061
0.00145874
0.00144182
0.00139586
0.00129945
0.00112069
0.000813178
0.000349873
0.000351819
0.000829639
0.0011523
0.00134381
0.00145002
0.00150271
0.00152276
0.00152283
0.00151062
0.0014922
0.00147394
0.00146115
0.0014538
0.0014508
0.00144989
0.00144899
0.00144815
0.00144768
0.00144769
0.00144818
0.00144904
0.00144994
0.00145081
0.00145365
0.00146046
0.00147166
0.00148572
0.001494
0.00148401
0.0014397
0.00133909
0.00115068
0.000829407
0.000351939
0.000352575
0.00083647
0.00116589
0.00136275
0.00147168
0.00152342
0.0015376
0.00152558
0.00149463
0.00145332
0.00141515
0.00139357
0.00138341
0.00138068
0.00138076
0.00137946
0.00137795
0.00137713
0.00137714
0.00137799
0.00137952
0.00138082
0.00138071
0.00138329
0.00139292
0.00141287
0.00144663
0.00147721
0.00148473
0.00145045
0.00135288
0.00116225
0.00083566
0.00035267
0.000352828
0.000839013
0.00117112
0.00136974
0.0014782
0.0015254
0.0015283
0.00149477
0.00142932
0.00134342
0.00126771
0.00124416
0.00124015
0.00124355
0.00124774
0.00124671
0.00124476
0.00124371
0.00124372
0.0012448
0.00124677
0.00124782
0.00124362
0.0012401
0.00124366
0.0012657
0.00133706
0.001412
0.0014534
0.00143957
0.00135186
0.00116433
0.000837282
0.000352863
0.000352895
0.000839812
0.0011727
0.00137125
0.00147736
0.0015175
0.00150422
0.00143824
0.00131441
0.00114014
0.00098357
0.00100218
0.00103658
0.00105963
0.00107241
0.00107364
0.00107256
0.00107189
0.0010719
0.0010726
0.0010737
0.00107251
0.00105974
0.00103664
0.00100196
0.000982167
0.00113465
0.00129785
0.00139724
0.00141528
0.00134303
0.00116192
0.000836897
0.00035284
0.000352897
0.000839981
0.00117294
0.00137083
0.00147427
0.00150715
0.00147656
0.00137149
0.00116147
0.000813708
0.00047518
0.000667672
0.000810903
0.000871341
0.000894111
0.000900493
0.000901962
0.000902214
0.000902225
0.000901999
0.000900555
0.000894205
0.000871468
0.000811063
0.000667807
0.000474793
0.000809822
0.00114609
0.00133119
0.00138789
0.00133255
0.0011584
0.000835944
0.000352738
0.000352881
0.000839995
0.00117297
0.00137052
0.00147263
0.00150171
0.00146131
0.00132995
0.00104264
0.000493566
0.000414339
0.00065427
0.000742201
0.00076938
0.000778033
0.000780402
0.000780922
0.000780928
0.000780422
0.000778069
0.00076944
0.000742305
0.000654435
0.000414434
0.000491957
0.00102838
0.00129009
0.00137278
0.00132705
0.00115653
0.000835393
0.000352659
0.000352866
0.000840023
0.00117322
0.00137122
0.00147429
0.00150573
0.00147189
0.00136095
0.0011427
0.000787233
0.000456695
0.000596791
0.000715881
0.00076406
0.000778401
0.000785727
0.000787632
0.000787874
0.000787871
0.000787624
0.000785717
0.000778385
0.000764047
0.000715864
0.000596638
0.00045615
0.000783107
0.00112722
0.00132056
0.00138298
0.00133068
0.00115778
0.000835669
0.000352662
0.000352854
0.000840099
0.00117371
0.00137272
0.0014782
0.00151532
0.00149479
0.00141495
0.00126857
0.00106253
0.000867753
0.00082317
0.000806248
0.000801881
0.000800475
0.000801067
0.000801027
0.00080083
0.000800823
0.000801005
0.000801028
0.000800409
0.000801772
0.000806038
0.000822644
0.00086611
0.00105697
0.00125204
0.0013738
0.00140526
0.00133969
0.00116109
0.00083657
0.000352711
0.000352838
0.000840188
0.00117426
0.0013744
0.00148252
0.00152545
0.00151704
0.001461
0.00135724
0.00121424
0.00106365
0.00095075
0.000869055
0.000832175
0.00081876
0.000814474
0.000812991
0.000812471
0.00081246
0.000812958
0.000814416
0.000818666
0.00083202
0.000868774
0.000950109
0.00106161
0.00120801
0.00133998
0.00141914
0.00142682
0.00134913
0.00116473
0.000837587
0.000352759
0.000352818
0.000840258
0.00117472
0.0013758
0.00148599
0.00153322
0.001533
0.001491
0.00140803
0.00128842
0.00114791
0.00101158
0.000902863
0.000850088
0.000829888
0.000822998
0.000820699
0.000819958
0.000819941
0.000820653
0.000822924
0.000829778
0.000849915
0.000902559
0.00101089
0.00114571
0.00128186
0.0013903
0.00144859
0.00144219
0.00135629
0.00116759
0.00083839
0.00035278
0.000352794
0.000840297
0.00117504
0.00137675
0.00148828
0.00153814
0.00154255
0.00150768
0.00143381
0.0013224
0.00118347
0.00103821
0.000918404
0.000858751
0.000835393
0.000827285
0.000824562
0.000823658
0.000823635
0.000824502
0.000827199
0.000835274
0.000858569
0.000918089
0.0010374
0.0011812
0.00131567
0.0014158
0.0014649
0.0014513
0.00136074
0.00116942
0.000838892
0.000352774
0.000352767
0.000840309
0.00117523
0.00137729
0.00148956
0.00154079
0.00154747
0.0015158
0.00144555
0.00133679
0.00119768
0.0010489
0.00092469
0.000862323
0.000837676
0.00082905
0.000826112
0.000825081
0.000825048
0.00082604
0.000828956
0.00083755
0.000862136
0.000924369
0.00104808
0.00119538
0.00132997
0.00142738
0.0014728
0.00145595
0.0013631
0.0011704
0.000839148
0.000352749
0.000352741
0.000840305
0.00117531
0.00137755
0.00149013
0.00154193
0.00154949
0.00151901
0.00144998
0.00134196
0.00120259
0.00105255
0.000926829
0.000863541
0.000838443
0.000829621
0.000826578
0.00082545
0.000825407
0.000826495
0.000829519
0.000838312
0.00086335
0.000926506
0.00105172
0.00120028
0.00133511
0.00143175
0.00147592
0.00145786
0.0013641
0.00117083
0.000839246
0.000352715
0.00035272
0.000840296
0.00117532
0.00137757
0.00149018
0.00154199
0.00154958
0.00151912
0.00145011
0.00134212
0.00120275
0.0010527
0.000926932
0.000863601
0.000838467
0.000829615
0.000826535
0.000825349
0.000825297
0.000826443
0.000829507
0.000838332
0.000863409
0.00092661
0.00105188
0.00120045
0.00133528
0.0014319
0.00147604
0.00145795
0.00136416
0.00117086
0.000839241
0.000352682
0.000352717
0.000840288
0.00117526
0.00137738
0.0014897
0.00154098
0.00154773
0.00151614
0.00144596
0.00133727
0.00119819
0.00104938
0.000925015
0.000862518
0.000837761
0.000829044
0.000825999
0.000824819
0.000824764
0.000825903
0.000828933
0.000837625
0.000862328
0.000924702
0.00104858
0.00119593
0.00133049
0.00142783
0.00147317
0.00145622
0.00136329
0.0011705
0.000839141
0.000352672
0.000352736
0.000840276
0.00117511
0.00137689
0.0014885
0.00153846
0.00154299
0.00150826
0.00143454
0.00132326
0.00118441
0.00103912
0.000919011
0.000859125
0.000835578
0.000827315
0.000824426
0.000823334
0.000823284
0.000824331
0.000827204
0.000835446
0.000858946
0.000918719
0.00103836
0.00118222
0.00131661
0.00141659
0.00146553
0.00145176
0.00136105
0.00116958
0.000838898
0.000352688
0.000352758
0.000840244
0.00117482
0.00137599
0.0014863
0.00153366
0.00153362
0.00149183
0.00140911
0.00128976
0.00114944
0.00101295
0.000903837
0.00085069
0.000830208
0.000823098
0.000820595
0.000819676
0.000819637
0.000820509
0.000822995
0.000830088
0.000850534
0.00090359
0.00101231
0.0011474
0.00128334
0.00139148
0.00144949
0.00144283
0.00135671
0.00116782
0.000838421
0.000352692
0.000352778
0.00084018
0.00117437
0.00137462
0.00148287
0.00152597
0.00151779
0.00146205
0.0013587
0.00121619
0.00106599
0.000952704
0.000870381
0.0008329
0.000819082
0.000814509
0.000812813
0.000812156
0.000812128
0.000812744
0.000814418
0.000818975
0.00083277
0.000870203
0.000952274
0.00106424
0.0012102
0.00134157
0.00142024
0.00142758
0.00134963
0.00116501
0.000837641
0.000352671
0.000352793
0.000840081
0.00117378
0.00137288
0.00147848
0.00151576
0.00149548
0.00141603
0.00127026
0.00106503
0.000870998
0.000825836
0.000807266
0.000801862
0.00079986
0.000800071
0.000799823
0.000799524
0.000799503
0.000799764
0.000799974
0.000799714
0.000801672
0.000807089
0.000825663
0.00086979
0.0010598
0.00125376
0.00137479
0.00140588
0.0013401
0.00116134
0.000836622
0.000352623
0.0003528
0.000839932
0.00117309
0.00137105
0.00147413
0.00150564
0.001472
0.00136148
0.00114404
0.000789806
0.000458126
0.000597592
0.000713304
0.000759534
0.000772662
0.000779378
0.000781045
0.000781194
0.000781168
0.000780951
0.00077916
0.000772206
0.000758779
0.00071248
0.000597447
0.000457645
0.000785949
0.00112807
0.00132049
0.00138277
0.00133058
0.00115776
0.000835634
0.00035257
0.000352795
0.000839636
0.00117219
0.0013693
0.00147106
0.00149991
0.00145936
0.00132794
0.00104103
0.000493053
0.000408698
0.000638338
0.000719972
0.000743164
0.000750319
0.000752238
0.000752605
0.00075253
0.000751944
0.000749557
0.000741413
0.00071663
0.000633652
0.00040603
0.00049022
0.00102411
0.00128599
0.00136992
0.00132536
0.00115568
0.000835042
0.000352544
0.000352736
0.000838796
0.00117029
0.00136671
0.00146897
0.00150094
0.00146957
0.00136357
0.00115256
0.000804825
0.000468398
0.000634765
0.000756503
0.000797202
0.000807187
0.000810027
0.000810876
0.000811034
0.000810881
0.000810209
0.000808062
0.000802081
0.000786155
0.000737944
0.000617072
0.000461159
0.000790829
0.00112841
0.00131806
0.00137912
0.00132709
0.00115537
0.000834693
0.000352533
0.000352506
0.000836317
0.00116516
0.0013599
0.00146296
0.00150076
0.00148526
0.00141604
0.00128642
0.00110192
0.000927543
0.000908881
0.000899502
0.000877205
0.000863202
0.000857615
0.000855816
0.000855261
0.000855013
0.000854678
0.00085397
0.000852873
0.000852195
0.000852203
0.000857496
0.000885083
0.00106555
0.0012503
0.00136535
0.00139399
0.00132907
0.00115362
0.000833252
0.000352393
0.000351773
0.000829608
0.00115191
0.00134189
0.00144374
0.00148612
0.00148475
0.00144522
0.00136853
0.00126127
0.00114812
0.00106552
0.000986744
0.000915331
0.000880724
0.00086786
0.000863753
0.000862571
0.00086226
0.000862269
0.00086285
0.000865669
0.000876118
0.000907091
0.000978363
0.00107435
0.00120485
0.00132208
0.00139113
0.00139517
0.00132037
0.00114407
0.000827672
0.000351748
0.000349729
0.000813219
0.00112122
0.00130051
0.00139673
0.00143986
0.0014474
0.00142737
0.00138215
0.00131386
0.00122905
0.00113713
0.001039
0.000951812
0.000909315
0.000893199
0.000887938
0.000886418
0.000886073
0.00088627
0.000887532
0.000892293
0.000907631
0.000949566
0.00103863
0.00114532
0.00125136
0.00133381
0.00137554
0.00136478
0.00128686
0.00111655
0.000812231
0.000349772
0.000344498
0.000776639
0.00105665
0.00121581
0.00130003
0.00133893
0.00134995
0.0013415
0.001316
0.00127327
0.0012136
0.00113983
0.00105858
0.000986787
0.000948433
0.000932734
0.000927259
0.000925635
0.000925298
0.000925556
0.000927104
0.000932415
0.000947867
0.000986191
0.00105925
0.00114382
0.00122099
0.00127593
0.00129887
0.00128108
0.00120824
0.00105435
0.000776325
0.000344586
0.000332144
0.000701002
0.000931004
0.00105682
0.00112126
0.00115087
0.00116085
0.00115849
0.00114592
0.0011225
0.00108714
0.00104067
0.000988518
0.000942469
0.000915865
0.000904038
0.000899702
0.000898356
0.000898067
0.000898331
0.000899639
0.000903915
0.000915681
0.000942367
0.000988926
0.00104208
0.00108878
0.00111997
0.00112993
0.00111206
0.00105357
0.000930304
0.000701089
0.000332255
0.000305826
0.000554228
0.000701144
0.000776968
0.000813658
0.000829857
0.000835623
0.000835619
0.000831208
0.000821982
0.000806968
0.000786202
0.000762266
0.000740742
0.000727611
0.000721431
0.000719045
0.000718264
0.000718094
0.00071827
0.000719053
0.000721432
0.000727601
0.000740771
0.000762438
0.000786598
0.00080709
0.000819875
0.000822408
0.000810796
0.000776262
0.000701234
0.000554448
0.000305927
0.000263208
0.000305875
0.000332289
0.000344747
0.00035008
0.000352221
0.000353009
0.000353178
0.000352911
0.000352126
0.000350765
0.000348665
0.000346028
0.000343495
0.000341891
0.000341092
0.000340734
0.000340562
0.000340501
0.000340571
0.000340743
0.000341096
0.000341886
0.000343482
0.000346011
0.000348654
0.000350718
0.000351892
0.000351921
0.000350162
0.000344952
0.000332486
0.000306007
0.000263274
0.000349199
0.000501729
0.000600427
0.000651736
0.000676172
0.000686935
0.000691288
0.000692862
0.000693309
0.000693324
0.000693194
0.00069304
0.000692914
0.000692827
0.00069277
0.000692729
0.0006927
0.000692684
0.000692682
0.000692695
0.000692721
0.000692759
0.00069281
0.00069288
0.000692951
0.000692929
0.000692533
0.000691047
0.000686786
0.000676098
0.000651711
0.00060043
0.000501743
0.000349215
0.000501735
0.000616798
0.000728142
0.000792568
0.000825429
0.000840673
0.000847098
0.000849488
0.000850166
0.000850167
0.000849942
0.000849689
0.000849492
0.000849366
0.000849293
0.000849248
0.000849219
0.000849204
0.000849205
0.00084922
0.00084925
0.000849294
0.00084936
0.000849459
0.000849564
0.000849531
0.000848924
0.000846674
0.000840405
0.000825289
0.000792514
0.000728134
0.000616808
0.000501753
0.000600478
0.00072817
0.000864181
0.000947607
0.000992604
0.00101461
0.0010243
0.00102793
0.00102878
0.00102847
0.00102778
0.00102711
0.00102662
0.00102634
0.00102618
0.0010261
0.00102604
0.00102601
0.00102601
0.00102604
0.0010261
0.00102619
0.00102633
0.00102656
0.00102688
0.00102704
0.00102633
0.00102306
0.0010138
0.000992163
0.000947418
0.000864133
0.000728184
0.000600517
0.000651836
0.000792631
0.000947648
0.00104589
0.00110071
0.00112834
0.00114063
0.0011449
0.00114519
0.00114372
0.00114177
0.00114009
0.00113895
0.00113832
0.00113801
0.00113784
0.00113772
0.00113766
0.00113766
0.00113772
0.00113784
0.00113802
0.00113831
0.00113885
0.00113974
0.00114068
0.00114067
0.00113731
0.00112613
0.00109946
0.00104531
0.000947452
0.000792611
0.00065188
0.000676313
0.000825523
0.000992685
0.00110076
0.00116224
0.00119353
0.00120699
0.00121044
0.00120849
0.00120403
0.0011992
0.00119542
0.00119307
0.00119188
0.00119133
0.00119101
0.00119077
0.00119064
0.00119065
0.00119078
0.00119102
0.00119134
0.00119186
0.00119295
0.00119498
0.00119783
0.00120025
0.00119892
0.00118812
0.00115913
0.00109925
0.000992097
0.000825371
0.000676303
0.000687103
0.00084079
0.00101473
0.00112846
0.00119364
0.00122639
0.00123892
0.00123906
0.0012317
0.00122075
0.00121011
0.00120263
0.00119855
0.00119677
0.00119605
0.00119561
0.00119521
0.00119497
0.00119498
0.00119522
0.00119563
0.00119606
0.00119675
0.00119842
0.00120214
0.00120858
0.00121651
0.00122101
0.0012144
0.00118675
0.00112505
0.00101331
0.000840324
0.000686931
0.000691476
0.000847237
0.00102449
0.00114091
0.00120738
0.00123934
0.00124827
0.00124126
0.00122313
0.00119952
0.00117832
0.00116542
0.00116013
0.00115861
0.00115825
0.00115803
0.00115754
0.00115718
0.00115718
0.00115755
0.00115805
0.00115827
0.00115861
0.00116001
0.00116493
0.00117674
0.00119506
0.00121185
0.00121529
0.00119366
0.00113409
0.00102156
0.000846184
0.000690972
0.000693071
0.000849664
0.00102825
0.0011455
0.00121151
0.00124066
0.00124291
0.00122357
0.00118649
0.00114006
0.00110176
0.00108198
0.00107954
0.00108149
0.00108278
0.00108394
0.00108382
0.00108348
0.00108348
0.00108384
0.00108397
0.00108281
0.00108151
0.00107946
0.00108155
0.00110023
0.00113558
0.00117497
0.00119698
0.0011871
0.00113346
0.00102304
0.000847702
0.000692032
0.000693557
0.00085042
0.00102936
0.00114645
0.00121097
0.00123591
0.00122891
0.00119194
0.00112575
0.00104242
0.000987986
0.000950296
0.000962448
0.000975377
0.000979995
0.000985551
0.000987086
0.000987165
0.000987172
0.000987106
0.000985584
0.000980037
0.000975419
0.000962431
0.000949975
0.000986512
0.00103798
0.00111415
0.00116506
0.00117252
0.0011278
0.0010213
0.000847314
0.000691826
0.000693642
0.000850562
0.00102948
0.0011461
0.00120899
0.00122975
0.00121344
0.00115768
0.00105831
0.000939059
0.00109195
0.000789153
0.000829795
0.000863923
0.000872161
0.000886237
0.000890829
0.000891701
0.000891708
0.000890851
0.000886275
0.00087221
0.000863994
0.000829854
0.000788974
0.00108932
0.000934194
0.00104646
0.00113054
0.0011567
0.00112118
0.00101877
0.000846383
0.000691249
0.000693617
0.00085055
0.00102944
0.00114581
0.00120788
0.00122653
0.00120553
0.00114109
0.00103859
0.00117634
0.000823181
0.000727205
0.000771713
0.000795427
0.000799603
0.000800122
0.00080015
0.000800154
0.000800132
0.000799622
0.000795464
0.000771773
0.000727277
0.000823303
0.00116594
0.00102606
0.00111368
0.00114856
0.0011177
0.00101736
0.000845808
0.000690874
0.000693591
0.000850557
0.00102955
0.00114615
0.00120871
0.00122849
0.00121005
0.0011503
0.00104389
0.00091037
0.000997805
0.00072889
0.000790274
0.000839353
0.000880224
0.000859848
0.000851631
0.000849762
0.000849757
0.000851615
0.000859819
0.000880208
0.000839331
0.00079022
0.000728545
0.000994911
0.000905383
0.00103192
0.00112298
0.00115302
0.00111952
0.00101802
0.000845998
0.000690961
0.000693587
0.000850619
0.00102984
0.00114702
0.00121098
0.00123394
0.00122243
0.00117683
0.00109558
0.000987244
0.000894446
0.000826795
0.000820633
0.000822742
0.000829803
0.000823213
0.000819825
0.000818829
0.000818825
0.000819814
0.000823193
0.000829781
0.000822687
0.00082049
0.000826331
0.000892855
0.00098268
0.00108378
0.00114957
0.00116539
0.00112488
0.00102017
0.00084678
0.000691393
0.000693593
0.000850703
0.00103019
0.00114805
0.00121358
0.00123995
0.00123537
0.00120266
0.00114256
0.00106036
0.000973429
0.000902084
0.000858276
0.000831625
0.000821627
0.000816684
0.000814723
0.00081411
0.000814106
0.000814712
0.000816662
0.000821588
0.000831541
0.000858089
0.000901568
0.000971826
0.00105576
0.00113072
0.00117533
0.00117822
0.00113076
0.00102262
0.000847704
0.000691895
0.000693592
0.000850778
0.00103049
0.00114891
0.0012157
0.00124467
0.00124501
0.00122064
0.00117266
0.00110377
0.00102276
0.000944441
0.00088421
0.000844068
0.000826799
0.000820574
0.000818561
0.00081799
0.000817986
0.000818548
0.00082055
0.000826752
0.000843973
0.000884008
0.000943898
0.0010211
0.00109909
0.00116071
0.00119319
0.00118772
0.00113533
0.00102458
0.000848456
0.000692283
0.000693579
0.000850826
0.00103069
0.0011495
0.00121711
0.00124769
0.00125089
0.00123099
0.00118884
0.00112555
0.00104664
0.000964605
0.000897397
0.000851443
0.000831109
0.000823932
0.000821709
0.000821105
0.000821101
0.000821696
0.000823907
0.00083106
0.000851345
0.000897189
0.000964038
0.00104494
0.0011208
0.00117679
0.00120341
0.00119346
0.0011382
0.00102585
0.000848941
0.000692511
0.000693557
0.000850851
0.00103081
0.00114983
0.00121789
0.00124933
0.00125395
0.0012361
0.00119641
0.0011352
0.00105677
0.000973026
0.000902972
0.000854702
0.00083315
0.00082553
0.000823183
0.000822547
0.000822542
0.000823168
0.000825504
0.0008331
0.000854602
0.000902761
0.00097244
0.00105506
0.00113041
0.0011843
0.00120845
0.00119642
0.00113972
0.00102654
0.0008492
0.000692611
0.000693534
0.000850859
0.00103086
0.00114998
0.00121823
0.00125002
0.0012552
0.00123813
0.00119929
0.00113872
0.00106034
0.000975939
0.000904892
0.000855835
0.000833867
0.000826084
0.000823684
0.000823029
0.000823022
0.000823668
0.000826057
0.000833815
0.000855733
0.00090468
0.000975351
0.00105863
0.00113391
0.00118715
0.00121043
0.00119762
0.00114036
0.00102683
0.000849306
0.000692633
0.000693518
0.000850858
0.00103087
0.00114999
0.00121825
0.00125004
0.00125523
0.00123817
0.00119935
0.00113879
0.00106042
0.000976014
0.000904953
0.000855876
0.000833888
0.000826095
0.000823686
0.000823022
0.000823014
0.000823669
0.000826067
0.000833837
0.000855775
0.000904742
0.000975429
0.0010587
0.00113398
0.00118721
0.00121047
0.00119765
0.00114038
0.00102684
0.000849307
0.000692613
0.000693516
0.000850848
0.00103082
0.00114986
0.00121794
0.0012494
0.00125405
0.00123624
0.00119659
0.00113541
0.00105701
0.000973269
0.000903169
0.000854836
0.000833227
0.000825572
0.000823202
0.000822544
0.000822536
0.000823184
0.000825545
0.000833177
0.000854739
0.000902965
0.000972696
0.00105532
0.00113064
0.00118449
0.00120859
0.00119652
0.00113979
0.00102657
0.000849205
0.000692558
0.000693524
0.000850824
0.00103071
0.00114954
0.00121719
0.00124782
0.00125107
0.00123122
0.00118915
0.00112594
0.00104709
0.000965066
0.000897773
0.000851705
0.000831271
0.000824038
0.000821781
0.00082115
0.000821143
0.000821766
0.000824014
0.000831227
0.000851618
0.000897586
0.00096452
0.00104543
0.00112122
0.00117712
0.00120366
0.00119363
0.0011383
0.00102591
0.000848954
0.000692442
0.00069353
0.000850776
0.00103051
0.00114897
0.0012158
0.00124484
0.00124525
0.00122098
0.00117313
0.00110439
0.0010235
0.000945181
0.000884815
0.000844478
0.000827051
0.000820755
0.000818705
0.000818111
0.000818106
0.000818694
0.000820738
0.000827019
0.00084441
0.00088466
0.000944695
0.00102191
0.00109975
0.00116121
0.00119353
0.00118795
0.00113547
0.00102466
0.000848478
0.000692208
0.000693525
0.000850698
0.00103021
0.0011481
0.00121368
0.00124012
0.00123564
0.00120307
0.00114318
0.00106123
0.000974533
0.000903176
0.00085904
0.000832012
0.000821745
0.00081673
0.000814742
0.000814116
0.000814114
0.000814736
0.000816717
0.000821717
0.000831955
0.000858916
0.000902765
0.00097304
0.0010567
0.00113134
0.00117572
0.00117846
0.0011309
0.00102269
0.000847726
0.000691813
0.000693503
0.000850589
0.00102981
0.00114701
0.001211
0.00123402
0.00122262
0.00117718
0.0010962
0.000988277
0.000895892
0.00082803
0.000820888
0.000822198
0.000828732
0.000822078
0.000818664
0.000817658
0.000817655
0.000818652
0.000822039
0.000828652
0.000822049
0.000820677
0.000827629
0.000894419
0.000983693
0.00108427
0.00114976
0.00116546
0.00112491
0.00102018
0.000846771
0.000691286
0.000693451
0.000850438
0.00102935
0.00114589
0.00120841
0.00122818
0.00120978
0.00115014
0.00104395
0.000910909
0.00100101
0.000728037
0.000787291
0.000834774
0.00087467
0.000853922
0.00084555
0.000843657
0.000843652
0.000845513
0.000853781
0.00087435
0.000834061
0.00078624
0.000726846
0.000998237
0.000905256
0.00103123
0.00112224
0.00115244
0.00111913
0.00101779
0.000845868
0.000690775
0.000693301
0.000850144
0.00102874
0.00114481
0.00120663
0.00122508
0.00120389
0.00113919
0.00103617
0.00117048
0.000799616
0.000708942
0.000748677
0.000768883
0.000771662
0.000771826
0.000771785
0.000771729
0.000771587
0.000770975
0.000767197
0.00074521
0.000703206
0.000788862
0.00115362
0.0010208
0.00111011
0.00114618
0.00111618
0.00101646
0.000845326
0.000690467
0.000692797
0.000849321
0.00102737
0.00114312
0.00120526
0.00122538
0.00120839
0.00115156
0.00105007
0.000925305
0.00104771
0.000750512
0.000778167
0.000798574
0.000797976
0.000807912
0.000811609
0.000812388
0.000812261
0.000811042
0.000806179
0.00079341
0.0007887
0.00076166
0.000729456
0.0010122
0.000907945
0.00103128
0.00112079
0.00115031
0.00111702
0.00101618
0.000844961
0.000690252
0.000691239
0.000846926
0.00102366
0.00113861
0.00120135
0.00122481
0.00121623
0.00117677
0.00110572
0.00101241
0.000938303
0.000876929
0.000859912
0.000845967
0.000833198
0.000830999
0.000830686
0.000830533
0.000830319
0.000829691
0.000827815
0.000824481
0.000826637
0.000829121
0.000840503
0.000904038
0.000986494
0.00108171
0.00114385
0.00115814
0.00111792
0.0010148
0.000843522
0.000689293
0.000686938
0.000840572
0.00101413
0.00112674
0.00118906
0.00121534
0.00121481
0.0011914
0.00114673
0.00108584
0.00102252
0.00096736
0.000923452
0.000889831
0.000864686
0.00085421
0.000850749
0.000849725
0.000849436
0.000849372
0.000849667
0.00085185
0.000861242
0.000883914
0.000919758
0.00097964
0.00105272
0.00111859
0.00115733
0.00115805
0.00111196
0.00100787
0.000838227
0.000685642
0.000676224
0.000825412
0.000992357
0.00109974
0.00115938
0.00118643
0.00119125
0.00117905
0.00115188
0.00111178
0.00106306
0.00101089
0.000959732
0.000918514
0.000888185
0.000874585
0.0008698
0.000868351
0.000868017
0.00086822
0.00086942
0.000873771
0.000886888
0.000916974
0.000960259
0.00101782
0.00107683
0.0011233
0.00114649
0.00113847
0.00108998
0.000988341
0.000823972
0.000675476
0.000651815
0.000792609
0.000947548
0.00104546
0.00109927
0.00112446
0.00113159
0.00112617
0.00111016
0.00108402
0.00104848
0.00100561
0.00095993
0.000920442
0.000893728
0.000881162
0.00087643
0.000874913
0.000874574
0.000874875
0.00087632
0.000880927
0.000893372
0.000920213
0.000960812
0.00100889
0.00105352
0.00108551
0.00109842
0.00108614
0.00103957
0.000945233
0.000791836
0.000651461
0.000600506
0.000728203
0.00086423
0.000947566
0.00099213
0.00101293
0.00101988
0.00101807
0.00100922
0.000993229
0.000969718
0.000939465
0.00090602
0.000876408
0.000856897
0.000847341
0.000843548
0.000842272
0.000841986
0.000842274
0.00084354
0.00084731
0.000856857
0.000876489
0.000906567
0.000940777
0.000971027
0.000991321
0.000997512
0.000984729
0.000944433
0.000863088
0.000727866
0.000600401
0.00050179
0.000616851
0.000728254
0.000792713
0.000825461
0.000840228
0.000845416
0.000845136
0.0008407
0.000831893
0.00081809
0.000799473
0.000778322
0.00075933
0.000746999
0.000740877
0.000738385
0.000737523
0.00073733
0.00073754
0.000738414
0.000740914
0.000747049
0.000759446
0.000778609
0.000799969
0.000818258
0.00082987
0.000832301
0.000821915
0.00079135
0.000727823
0.000616755
0.000501808
0.000349245
0.000501789
0.00060059
0.000652005
0.000676464
0.000687036
0.000690728
0.000690714
0.000687913
0.000682046
0.000672483
0.000659165
0.000643713
0.000629787
0.000621197
0.000617091
0.000615433
0.000614845
0.000614708
0.000614862
0.000615462
0.000617125
0.000621235
0.000629853
0.000643866
0.000659429
0.000672528
0.000680658
0.000682204
0.000674502
0.000651378
0.000600468
0.0005018
0.000349306
0.000400433
0.000641831
0.000804299
0.000892921
0.000937474
0.000958214
0.000967053
0.000970383
0.00097133
0.000971307
0.000970943
0.000970523
0.000970179
0.000969944
0.000969796
0.0009697
0.000969637
0.000969605
0.000969604
0.000969634
0.000969694
0.000969786
0.000969919
0.00097011
0.000970314
0.000970314
0.000969489
0.000966373
0.000957765
0.000937216
0.000892792
0.000804246
0.00064182
0.000400451
0.00064183
0.000727447
0.000845769
0.000919633
0.000959483
0.000978903
0.000987466
0.000990779
0.000991742
0.000991731
0.000991379
0.000990979
0.000990657
0.000990443
0.000990314
0.000990235
0.000990187
0.000990163
0.000990163
0.000990187
0.000990236
0.000990312
0.000990427
0.000990595
0.000990769
0.000990732
0.00098987
0.000986763
0.000978433
0.000959212
0.0009195
0.000845714
0.000727425
0.000641815
0.000804353
0.000845787
0.000966466
0.00104832
0.00109527
0.00111938
0.00113044
0.00113474
0.00113577
0.00113536
0.00113447
0.00113358
0.0011329
0.00113247
0.00113222
0.00113208
0.00113199
0.00113195
0.00113195
0.001132
0.00113208
0.00113222
0.00113245
0.0011328
0.00113324
0.00113347
0.00113261
0.00112876
0.00111823
0.0010946
0.00104798
0.000966328
0.000845742
0.000804331
0.000893044
0.000919684
0.00104836
0.0011391
0.00119292
0.00122135
0.00123448
0.00123918
0.00123952
0.00123786
0.00123563
0.00123363
0.00123223
0.00123137
0.0012309
0.00123064
0.00123048
0.0012304
0.0012304
0.00123049
0.00123064
0.0012309
0.00123133
0.00123208
0.00123316
0.00123425
0.0012342
0.00123048
0.00121858
0.00119127
0.00113824
0.00104799
0.000919556
0.000892968
0.00093766
0.000959569
0.00109535
0.00119298
0.00125187
0.00128318
0.00129712
0.00130084
0.00129888
0.00129425
0.00128917
0.00128506
0.00128238
0.00128084
0.00128002
0.00127961
0.00127935
0.0012792
0.00127921
0.00127935
0.00127961
0.00128001
0.0012808
0.00128219
0.00128447
0.00128748
0.00128983
0.00128817
0.00127695
0.00124811
0.00119099
0.00109445
0.000959211
0.000937391
0.000958452
0.000979023
0.00111951
0.00122149
0.00128331
0.00131564
0.00132848
0.00132892
0.00132181
0.00131117
0.00130075
0.00129306
0.00128868
0.00128633
0.00128504
0.0012846
0.00128427
0.00128405
0.00128405
0.00128428
0.00128461
0.00128504
0.00128628
0.00128848
0.0012924
0.00129885
0.00130621
0.00130991
0.00130272
0.00127548
0.00121732
0.00111755
0.000978177
0.000957735
0.000967341
0.000987629
0.00113067
0.00123482
0.0012976
0.00132898
0.00133828
0.00133206
0.00131536
0.00129388
0.00127455
0.00126141
0.00125599
0.0012533
0.00125141
0.00125172
0.0012516
0.00125134
0.00125134
0.00125161
0.00125173
0.00125142
0.00125326
0.0012558
0.00126073
0.00127254
0.00128858
0.0013027
0.0013044
0.0012828
0.00122692
0.00112689
0.00098592
0.000965803
0.000970746
0.00099102
0.00113515
0.00123994
0.00130213
0.00133075
0.00133389
0.0013169
0.00128467