/*--------------------------------*- C++ -*----------------------------------*\
| =========                 |                                                 |
| \\      /  F ield         | OpenFOAM: The Open Source CFD Toolbox           |
|  \\    /   O peration     | Version:  2112                                  |
|   \\  /    A nd           | Website:  www.openfoam.com                      |
|    \\/     M anipulation  |                                                 |
\*---------------------------------------------------------------------------*/
FoamFile
{
    version     2.0;
    format      ascii;
    arch        "LSB;label=32;scalar=64";
    class       volScalarField;
    location    "3.2";
    object      k;
}
// * * * * * * * * * * * * * * * * * * * * * * * * * * * * * * * * * * * * * //

dimensions      [0 2 -2 0 0 0 0];

internalField   nonuniform List<scalar> 
64906
(
0.000375723
0.000415685
0.000439536
0.000450587
0.000455267
0.000457117
0.000457801
0.000458034
0.000458103
0.000458111
0.000458102
0.000458092
0.00045808
0.000458068
0.000458057
0.000458044
0.000458031
0.00045802
0.000458015
0.000458021
0.000458033
0.000458044
0.000458055
0.000458065
0.00045807
0.00045806
0.000458001
0.000457782
0.000457112
0.000455271
0.000450597
0.000439554
0.000415705
0.000375739
0.000415708
0.000618843
0.000724497
0.000776327
0.000800998
0.000812074
0.000816671
0.000818382
0.000818891
0.00081893
0.000818813
0.000818674
0.000818572
0.000818515
0.00081849
0.000818477
0.000818468
0.000818463
0.000818463
0.000818469
0.000818478
0.000818491
0.000818512
0.000818551
0.000818592
0.000818535
0.000818074
0.000816458
0.000811965
0.000800974
0.000776358
0.000724556
0.000618903
0.00041575
0.000439599
0.000724543
0.000876228
0.000954235
0.00099348
0.00101214
0.00102027
0.00102335
0.00102411
0.00102391
0.0010234
0.00102291
0.00102258
0.0010224
0.00102234
0.00102231
0.0010223
0.00102229
0.00102229
0.0010223
0.00102232
0.00102235
0.00102241
0.00102254
0.00102274
0.00102281
0.00102216
0.00101939
0.0010116
0.000993237
0.000954193
0.00087629
0.000724643
0.00043967
0.000450677
0.000776418
0.000954288
0.00104889
0.0010982
0.0011224
0.00113309
0.00113683
0.00113713
0.0011359
0.00113424
0.00113281
0.00113186
0.00113137
0.00113117
0.00113107
0.001131
0.00113096
0.00113096
0.00113101
0.00113108
0.00113119
0.00113137
0.00113179
0.00113253
0.00113332
0.0011333
0.00113037
0.00112065
0.00109728
0.00104854
0.000954249
0.000776518
0.000450771
0.000455374
0.000801121
0.000993575
0.00109825
0.00115396
0.0011816
0.00119341
0.00119645
0.00119474
0.00119075
0.00118634
0.00118287
0.00118066
0.0011796
0.00117918
0.00117891
0.00117869
0.00117858
0.00117858
0.0011787
0.00117893
0.0011792
0.00117959
0.00118057
0.0011825
0.00118517
0.00118748
0.00118642
0.00117701
0.00115141
0.00109711
0.000993229
0.000801146
0.00045548
0.000457233
0.000812213
0.00101227
0.00112251
0.0011817
0.00121069
0.0012217
0.00122176
0.00121506
0.00120491
0.00119478
0.00118759
0.00118341
0.00118166
0.0011811
0.00118058
0.0011801
0.00117984
0.00117984
0.00118011
0.0011806
0.00118113
0.00118166
0.00118331
0.00118718
0.00119347
0.00120123
0.00120575
0.00120023
0.00117581
0.00111972
0.00101125
0.000812035
0.000457336
0.000457918
0.000816821
0.00102046
0.00113333
0.00119375
0.00122207
0.00122984
0.00122333
0.00120643
0.00118369
0.00116243
0.00115016
0.00114426
0.00114258
0.00114254
0.00114178
0.00114092
0.00114045
0.00114046
0.00114094
0.00114181
0.00114258
0.0011426
0.00114418
0.00114977
0.00116109
0.00117985
0.00119663
0.00120067
0.0011818
0.00112758
0.00101819
0.000816243
0.000457997
0.000458149
0.000818549
0.00102362
0.00113734
0.0011974
0.00122321
0.00122485
0.00120664
0.0011707
0.00112274
0.00107953
0.00106552
0.0010628
0.00106454
0.00106686
0.00106622
0.00106507
0.00106445
0.00106446
0.00106509
0.00106625
0.00106691
0.00106458
0.00106277
0.00106521
0.00107831
0.00111899
0.0011608
0.00118351
0.0011758
0.00112702
0.00101945
0.000817339
0.000458172
0.000458211
0.000819096
0.00102459
0.00113822
0.00119696
0.00121892
0.00121179
0.00117573
0.00110663
0.00100579
0.000910688
0.000921399
0.000941891
0.000955631
0.000963277
0.000963963
0.000963289
0.000962872
0.00096288
0.000963313
0.000964004
0.000963335
0.000955692
0.00094192
0.000921246
0.00090976
0.00100237
0.00109689
0.0011525
0.00116234
0.001122
0.00101801
0.000817079
0.000458151
0.000458213
0.000819214
0.00102474
0.00113798
0.00119526
0.00121329
0.00119672
0.00113879
0.00101862
0.000802595
0.000559765
0.000701739
0.000798577
0.000837745
0.000852325
0.000856363
0.000857286
0.000857442
0.00085745
0.000857309
0.000856403
0.000852385
0.000837828
0.000798682
0.000701831
0.000559439
0.000799884
0.00100918
0.00111558
0.00114709
0.00111604
0.00101588
0.000816434
0.000458058
0.0004582
0.000819225
0.00102475
0.00113781
0.00119434
0.00121031
0.00118835
0.00111548
0.000947606
0.000574439
0.00050989
0.000691244
0.000751902
0.000770191
0.000776007
0.000777608
0.000777961
0.000777965
0.000777621
0.000776031
0.000770232
0.000751973
0.000691362
0.000509968
0.000573111
0.000938538
0.00109228
0.00113861
0.00111289
0.00101476
0.000816059
0.000457985
0.000458186
0.000819245
0.00102491
0.0011382
0.00119525
0.00121246
0.00119404
0.00113267
0.00100718
0.0007845
0.000544661
0.00064988
0.00073338
0.00076585
0.000775345
0.000780298
0.000781605
0.000781778
0.000781776
0.0007816
0.000780291
0.000775334
0.000765841
0.000733368
0.000649764
0.000544204
0.000781602
0.000997644
0.00110934
0.00114422
0.00111492
0.00101549
0.000816243
0.000457988
0.000458175
0.000819298
0.0010252
0.00113906
0.00119739
0.00121765
0.00120644
0.00116246
0.00107985
0.000958254
0.000835898
0.000805692
0.000793775
0.000790553
0.000789489
0.000789886
0.000789875
0.000789751
0.000789746
0.000789861
0.00078986
0.000789445
0.000790479
0.000793632
0.000805332
0.000834781
0.000954724
0.00107001
0.00113901
0.00115654
0.00112
0.00101747
0.00081685
0.000458033
0.000458162
0.00081936
0.00102554
0.00114002
0.00119978
0.00122315
0.00121849
0.00118766
0.00112971
0.00104759
0.000957646
0.000887243
0.000834607
0.000810286
0.000801334
0.000798472
0.000797486
0.000797141
0.000797133
0.000797463
0.000798433
0.000801271
0.000810182
0.00083442
0.000886821
0.000956347
0.0010438
0.00111967
0.00116407
0.00116846
0.00112535
0.00101965
0.000817538
0.000458079
0.000458144
0.000819411
0.00102582
0.00114082
0.0012017
0.00122738
0.00122714
0.001204
0.00115788
0.00109002
0.0010078
0.000924934
0.00085627
0.000821927
0.000808575
0.000803991
0.000802459
0.000801965
0.000801954
0.000802428
0.000803942
0.000808501
0.000821811
0.000856069
0.000924489
0.00100644
0.00108611
0.0011477
0.00118027
0.00117696
0.00112942
0.00102137
0.000818086
0.0004581
0.000458123
0.000819439
0.00102602
0.00114136
0.00120298
0.00123008
0.00123233
0.0012131
0.00117212
0.00110927
0.00102868
0.000941254
0.000866186
0.000827564
0.000812174
0.000806789
0.000804975
0.000804373
0.000804357
0.000804935
0.000806732
0.000812095
0.000827443
0.000865979
0.000940738
0.00102729
0.00110529
0.00116184
0.00118924
0.00118202
0.00113196
0.00102248
0.000818431
0.000458097
0.0004581
0.000819448
0.00102613
0.00114168
0.0012037
0.00123154
0.00123501
0.00121753
0.00117861
0.00111741
0.00103702
0.000947806
0.000870203
0.000829897
0.000813675
0.000807949
0.000805992
0.000805305
0.000805283
0.000805944
0.000807886
0.000813591
0.000829773
0.000869993
0.000947279
0.00103561
0.0011134
0.00116827
0.00119361
0.00118461
0.00113332
0.00102308
0.000818608
0.000458076
0.000458077
0.000819446
0.00102618
0.00114183
0.00120402
0.00123217
0.00123612
0.0012193
0.00118107
0.00112035
0.0010399
0.000950047
0.000871576
0.000830697
0.000814181
0.000808326
0.000806299
0.000805548
0.00080552
0.000806244
0.000808259
0.000814094
0.00083057
0.000871364
0.000949519
0.00103848
0.00111632
0.00117071
0.00119533
0.00118567
0.00113389
0.00102334
0.000818676
0.000458046
0.000458058
0.00081944
0.00102619
0.00114185
0.00120405
0.0012322
0.00123617
0.00121936
0.00118115
0.00112044
0.00104
0.00095014
0.000871642
0.000830737
0.000814197
0.000808322
0.000806271
0.000805481
0.000805447
0.00080621
0.000808251
0.000814108
0.000830609
0.000871431
0.000949616
0.00103858
0.00111642
0.00117079
0.0011954
0.00118572
0.00113392
0.00102336
0.000818673
0.000458017
0.000458056
0.000819434
0.00102615
0.00114173
0.00120377
0.00123164
0.00123515
0.00121772
0.00117884
0.00111769
0.00103732
0.000948103
0.000870413
0.000830026
0.000813732
0.000807945
0.000805917
0.000805131
0.000805094
0.000805853
0.000807871
0.000813641
0.0008299
0.000870208
0.000947592
0.00103593
0.00111369
0.00116853
0.0011938
0.00118476
0.00113342
0.00102314
0.000818604
0.000458008
0.000458072
0.000819424
0.00102606
0.00114145
0.0012031
0.00123025
0.00123257
0.00121341
0.00117252
0.00110976
0.00102924
0.000941815
0.000866578
0.000827811
0.000812297
0.000806809
0.000804884
0.000804156
0.000804123
0.000804821
0.000806735
0.000812209
0.000827692
0.000866386
0.000941333
0.00102789
0.00110583
0.00116228
0.00118959
0.00118227
0.00113213
0.00102258
0.000818435
0.00045802
0.000458091
0.000819401
0.00102588
0.00114093
0.00120187
0.00122762
0.00122747
0.00120446
0.00115848
0.00109079
0.00100872
0.00092578
0.000856901
0.000822324
0.000808786
0.000804056
0.000802387
0.000801775
0.000801749
0.00080233
0.000803987
0.000808706
0.00082222
0.000856738
0.000925366
0.00100744
0.00108696
0.00114836
0.00118076
0.00117731
0.00112966
0.00102151
0.000818107
0.000458022
0.000458109
0.000819355
0.0010256
0.00114014
0.00119997
0.00122343
0.00121889
0.00118823
0.00113054
0.00104873
0.000959081
0.000888487
0.000835475
0.000810763
0.000801543
0.000798487
0.000797358
0.000796921
0.000796902
0.000797312
0.000798426
0.000801471
0.000810675
0.000835355
0.000888199
0.000957956
0.00104509
0.00112057
0.00116467
0.00116887
0.00112563
0.00101981
0.000817574
0.000458
0.000458121
0.000819284
0.00102524
0.00113914
0.00119754
0.00121788
0.00120681
0.00116305
0.00108081
0.000959783
0.00083802
0.00080747
0.000794449
0.000790523
0.000789053
0.000789191
0.000789038
0.000788843
0.00078883
0.000788998
0.000789124
0.000788953
0.000790392
0.000794326
0.000807342
0.000837188
0.00095645
0.001071
0.00113955
0.00115687
0.00112022
0.00101761
0.000816882
0.000457955
0.000458127
0.000819179
0.00102482
0.00113809
0.00119513
0.00121238
0.00119407
0.00113294
0.00100796
0.000786233
0.000545821
0.000650461
0.000731539
0.000762697
0.000771376
0.00077592
0.000777068
0.000777178
0.00077716
0.000777004
0.00077577
0.000771061
0.000762174
0.000730955
0.000650346
0.000545414
0.000783513
0.000998113
0.00110926
0.00114406
0.00111483
0.00101546
0.000816212
0.000457905
0.000458122
0.000818972
0.00102427
0.00113708
0.00119342
0.00120925
0.00118719
0.00111426
0.000946532
0.000574002
0.000505077
0.000679603
0.000736338
0.000752053
0.000756906
0.000758217
0.00075847
0.000758418
0.000758013
0.000756377
0.000750836
0.000733993
0.000676182
0.000502806
0.000571682
0.000935771
0.0010898
0.0011369
0.00111186
0.00101421
0.000815808
0.000457881
0.000458066
0.000818395
0.0010231
0.00113557
0.00119222
0.00120975
0.0011927
0.00113412
0.0010131
0.000796424
0.000554167
0.00067774
0.000761435
0.000788305
0.000794779
0.000796606
0.000797155
0.000797256
0.000797152
0.000796705
0.000795284
0.000791345
0.000780843
0.000748665
0.000664776
0.000548249
0.00078679
0.000998287
0.00110783
0.00114196
0.00111279
0.001014
0.000815562
0.00045787
0.000457855
0.000816708
0.00101999
0.00113165
0.00118882
0.00120954
0.00120111
0.00116303
0.00109017
0.000982296
0.000874617
0.000861707
0.000854928
0.000840189
0.000830951
0.000827252
0.000826058
0.00082569
0.000825525
0.000825306
0.000824849
0.000824165
0.000823834
0.000824148
0.000828265
0.000847089
0.000959909
0.00106891
0.00113414
0.00115011
0.00111384
0.0010129
0.000814577
0.000457742
0.00045719
0.000812182
0.00101201
0.00112136
0.0011781
0.0012014
0.00120064
0.00117885
0.00113608
0.00107498
0.00100858
0.000958448
0.000909563
0.000864319
0.000841969
0.000833576
0.000830882
0.000830104
0.000829899
0.000829905
0.000830291
0.000832153
0.000839014
0.000859145
0.000904543
0.000964028
0.00104184
0.00110937
0.00114827
0.00115061
0.00110881
0.00100715
0.000810818
0.000457158
0.000455352
0.000801178
0.000993561
0.00109773
0.0011519
0.00117588
0.00118002
0.00116882
0.00114343
0.00110462
0.00105554
0.00100115
0.000941642
0.000887328
0.000860239
0.000849839
0.000846421
0.000845429
0.000845203
0.000845332
0.000846157
0.000849255
0.000859171
0.000885951
0.000941499
0.0010061
0.00106842
0.00111575
0.00113942
0.00113353
0.00108963
0.000990606
0.000800462
0.000455383
0.000450674
0.00077655
0.000954475
0.0010489
0.00109743
0.00111959
0.00112583
0.00112094
0.00110625
0.0010815
0.0010466
0.00100282
0.000953668
0.000909288
0.000885122
0.00087512
0.000871608
0.000870558
0.00087034
0.000870508
0.000871508
0.000874917
0.000884771
0.000908933
0.000954109
0.00100522
0.00105089
0.00108292
0.00109625
0.00108621
0.00104426
0.000952974
0.000776303
0.000450748
0.00043962
0.000724724
0.000876543
0.000954574
0.000993562
0.00101133
0.00101728
0.00101581
0.00100815
0.000993898
0.000972286
0.000943663
0.000911163
0.000882054
0.00086501
0.000857365
0.000854545
0.000853665
0.000853476
0.000853649
0.000854504
0.000857286
0.000864895
0.000881996
0.000911432
0.000944544
0.000973265
0.000992298
0.000998422
0.000987791
0.00095246
0.000876042
0.000724768
0.000439717
0.000415754
0.000619021
0.000724824
0.000776772
0.000801463
0.00081232
0.000816179
0.000816145
0.000813121
0.00080683
0.000796608
0.000782443
0.000766034
0.000751169
0.000742024
0.000737693
0.000736013
0.00073546
0.00073534
0.000735465
0.000736018
0.000737694
0.000742019
0.000751191
0.000766157
0.000782716
0.000796681
0.000805379
0.000807154
0.000799432
0.000776237
0.000724865
0.000619181
0.000415846
0.000375768
0.0004158
0.000439752
0.000450897
0.000455664
0.000457586
0.000458295
0.000458441
0.000458189
0.000457467
0.000456221
0.000454314
0.000451927
0.000449637
0.000448183
0.000447457
0.000447131
0.000446975
0.000446921
0.000446983
0.000447139
0.00044746
0.000448178
0.000449625
0.000451913
0.000454305
0.00045618
0.000457253
0.000457291
0.000455723
0.000451074
0.000439928
0.000415921
0.000375832
0.000538724
0.00068705
0.000775245
0.000819402
0.000840169
0.000849313
0.000853031
0.000854385
0.000854771
0.000854783
0.000854668
0.000854532
0.000854421
0.000854343
0.000854293
0.000854258
0.000854233
0.000854218
0.000854217
0.000854228
0.000854251
0.000854284
0.000854329
0.000854391
0.000854453
0.000854435
0.000854093
0.000852816
0.000849179
0.000840101
0.000819377
0.000775246
0.000687063
0.000538741
0.000687056
0.00130034
0.00157001
0.00170904
0.00177934
0.00181291
0.00182768
0.00183338
0.00183499
0.00183488
0.00183414
0.00183332
0.00183266
0.00183221
0.00183193
0.00183175
0.00183164
0.00183159
0.00183159
0.00183165
0.00183176
0.00183193
0.00183218
0.00183255
0.00183294
0.00183299
0.00183159
0.00182629
0.00181198
0.00177879
0.00170875
0.00156988
0.0013003
0.000687072
0.00077529
0.0015701
0.00192606
0.0021172
0.00221824
0.0022687
0.00229173
0.00230066
0.00230274
0.00230172
0.00229963
0.00229754
0.00229595
0.00229495
0.00229438
0.00229404
0.00229383
0.00229373
0.00229373
0.00229384
0.00229405
0.00229438
0.00229489
0.00229573
0.00229681
0.00229748
0.00229586
0.00228796
0.00226613
0.00221673
0.00211645
0.00192576
0.00157003
0.000775323
0.000819488
0.00170921
0.0021173
0.0023428
0.0024655
0.0025283
0.00255708
0.00256731
0.00256784
0.00256376
0.00255825
0.00255324
0.00254964
0.0025475
0.00254636
0.00254567
0.00254523
0.00254501
0.00254501
0.00254524
0.00254568
0.00254635
0.00254741
0.0025493
0.00255216
0.00255513
0.00255552
0.00254773
0.00252188
0.00246167
0.00234084
0.00211647
0.00170898
0.000819522
0.000840288
0.00177957
0.00221843
0.00246561
0.00260239
0.00267279
0.00270377
0.00271178
0.00270674
0.00269521
0.00268221
0.00267133
0.00266394
0.00265985
0.00265783
0.00265655
0.00265566
0.0026552
0.00265521
0.00265568
0.00265657
0.00265783
0.00265975
0.00266352
0.00266997
0.00267832
0.00268509
0.00268251
0.00265815
0.00259359
0.00246101
0.00221639
0.0017789
0.000840271
0.000849455
0.0018132
0.002269
0.00252862
0.0026731
0.00274621
0.00277468
0.00277479
0.00275699
0.00272984
0.0027021
0.00268092
0.00266766
0.00266111
0.00265826
0.00265615
0.00265452
0.00265366
0.00265367
0.00265454
0.00265618
0.00265826
0.00266101
0.00266721
0.00267942
0.00269774
0.00271848
0.00272996
0.00271563
0.00265476
0.00251894
0.00226458
0.0018116
0.000849292
0.00085319
0.00182803
0.00229224
0.00255788
0.00270493
0.00277591
0.00279593
0.00277965
0.002737
0.00267959
0.00262471
0.00258876
0.00256934
0.00256167
0.00255933
0.00255647
0.00255384
0.00255244
0.00255245
0.00255387
0.0025565
0.00255935
0.0025616
0.00256892
0.00258727
0.00262021
0.00266761
0.00270833
0.00271714
0.00267015
0.00253957
0.00228377
0.0018248
0.000852737
0.000854564
0.00183387
0.00230161
0.00256912
0.00271493
0.00277934
0.0027842
0.00273992
0.00265297
0.00253813
0.00243322
0.00238532
0.00236873
0.00236696
0.00236921
0.00236659
0.00236326
0.00236146
0.00236147
0.00236329
0.00236663
0.00236924
0.00236693
0.00236842
0.00238401
0.0024289
0.00252605
0.00262351
0.00267552
0.00265511
0.00253805
0.00228719
0.00182823
0.000853645
0.000854986
0.00183575
0.0023045
0.00257161
0.0027139
0.00276868
0.00275254
0.00266717
0.0025066
0.00227826
0.00206351
0.00204661
0.00207353
0.00209689
0.00211054
0.00211177
0.00210981
0.0021085
0.00210851
0.00210984
0.00211182
0.0021106
0.00209692
0.00207339
0.00204572
0.00205982
0.00226652
0.00247677
0.00260163
0.00262152
0.00252471
0.00228288
0.00182716
0.000853469
0.000855061
0.0018361
0.00230487
0.00257085
0.00270928
0.00275439
0.00271633
0.00258276
0.00231507
0.00184251
0.00115835
0.00152851
0.00172446
0.00180524
0.0018336
0.00184582
0.00184876
0.00184909
0.0018491
0.00184879
0.00184587
0.00183368
0.00180535
0.00172456
0.0015284
0.00115637
0.0018316
0.00228492
0.00251631
0.00258404
0.00250888
0.00227657
0.00182477
0.000852974
0.00085504
0.00183604
0.00230475
0.00257008
0.00270646
0.00274636
0.0026959
0.00253139
0.00217144
0.00121818
0.000956613
0.00144287
0.00157475
0.00161721
0.00163004
0.00163337
0.00163403
0.00163403
0.00163339
0.00163008
0.00161727
0.00157486
0.00144305
0.000956706
0.00121061
0.00214106
0.0024643
0.00256289
0.00250006
0.00227291
0.00182321
0.000852652
0.000855019
0.00183603
0.002305
0.00257079
0.00270809
0.00275023
0.00270619
0.00256208
0.00227763
0.00177976
0.00108905
0.0013709
0.00154852
0.00162206
0.00165121
0.00165513
0.00165513
0.00165484
0.00165484
0.00165511
0.00165511
0.00165118
0.00162201
0.00154842
0.00137046
0.00108682
0.0017686
0.00224723
0.00249522
0.00257323
0.00250378
0.00227422
0.0018235
0.000852724
0.000855018
0.00183617
0.00230572
0.00257282
0.00271306
0.00276188
0.0027331
0.0026246
0.00242544
0.00213684
0.00183776
0.00172004
0.00166519
0.001648
0.00164444
0.00164278
0.00164175
0.00164124
0.00164124
0.00164173
0.00164274
0.00164438
0.00164786
0.00166483
0.00171893
0.00183396
0.00212494
0.00239519
0.00255813
0.00260048
0.00251558
0.00227913
0.00182527
0.000853093
0.000855025
0.00183638
0.00230663
0.00257527
0.00271891
0.00277487
0.0027606
0.00268035
0.00253292
0.00232561
0.00209516
0.00190298
0.00175471
0.00168414
0.00165858
0.00165039
0.00164782
0.00164706
0.00164706
0.00164781
0.00165035
0.0016585
0.00168395
0.00175425
0.00190166
0.00209093
0.00231339
0.00250265
0.00261405
0.00262816
0.00252866
0.0022849
0.00182746
0.000853525
0.000855026
0.00183658
0.00230743
0.00257741
0.00272383
0.0027853
0.00278117
0.00271814
0.00259669
0.00242057
0.0022078
0.00199196
0.00180677
0.00171083
0.00167357
0.00166131
0.00165768
0.00165674
0.00165673
0.00165766
0.00166127
0.00167348
0.00171063
0.00180629
0.00199058
0.0022034
0.00240814
0.0025663
0.0026518
0.00264872
0.00253903
0.00228968
0.00182932
0.000853862
0.000855017
0.00183673
0.002308
0.00257891
0.0027272
0.00279216
0.00279397
0.00273999
0.00263032
0.00246576
0.00225734
0.00203216
0.00183214
0.00172518
0.00168248
0.00166821
0.00166404
0.001663
0.00166299
0.00166402
0.00166818
0.00168239
0.00172498
0.00183166
0.0020308
0.00225286
0.00245321
0.00259979
0.00267352
0.00266139
0.00254574
0.00229286
0.00183056
0.000854062
0.000855
0.00183681
0.00230834
0.00257979
0.00272914
0.00279598
0.0028008
0.00275102
0.00264623
0.00248569
0.00227799
0.0020488
0.00184291
0.00173149
0.00168653
0.00167142
0.001667
0.00166591
0.00166591
0.00166699
0.00167139
0.00168645
0.0017313
0.00184243
0.00204741
0.00227346
0.00247305
0.0026156
0.00268443
0.00266809
0.00254942
0.00229463
0.00183125
0.000854152
0.000854981
0.00183684
0.0023085
0.00258019
0.00273
0.00279763
0.00280367
0.00275548
0.00265239
0.00249305
0.00228531
0.00205462
0.00184669
0.00173373
0.00168797
0.00167255
0.00166804
0.00166692
0.00166692
0.00166802
0.00167251
0.00168789
0.00173353
0.00184621
0.00205322
0.00228077
0.00248037
0.0026217
0.00268883
0.00267088
0.00255099
0.0022954
0.00183154
0.000854173
0.000854968
0.00183684
0.00230851
0.00258021
0.00273003
0.00279768
0.00280373
0.00275557
0.0026525
0.00249317
0.00228544
0.00205474
0.00184681
0.0017338
0.00168801
0.00167257
0.00166805
0.00166693
0.00166693
0.00166803
0.00167254
0.00168793
0.00173361
0.00184633
0.00205335
0.0022809
0.0024805
0.00262181
0.00268891
0.00267095
0.00255103
0.00229542
0.00183155
0.000854156
0.000854965
0.0018368
0.00230837
0.00257985
0.00272923
0.00279611
0.00280099
0.00275127
0.00264655
0.00248606
0.00227839
0.0020492
0.0018433
0.00173176
0.00168669
0.00167152
0.00166707
0.00166597
0.00166596
0.00166706
0.00167149
0.00168661
0.00173157
0.00184284
0.00204783
0.00227388
0.00247344
0.00261593
0.00268469
0.00266828
0.00254954
0.0022947
0.00183126
0.000854108
0.000854971
0.00183672
0.00230804
0.002579
0.00272735
0.00279238
0.00279429
0.00274041
0.00263087
0.00246644
0.0022581
0.00203293
0.0018329
0.00172571
0.00168283
0.00166848
0.00166427
0.00166322
0.00166321
0.00166426
0.00166846
0.00168277
0.00172555
0.00183246
0.0020316
0.00225368
0.00245393
0.00260037
0.00267395
0.0026617
0.00254594
0.00229296
0.00183058
0.000854005
0.000854974
0.00183657
0.00230747
0.00257751
0.00272401
0.00278558
0.00278159
0.00271874
0.00259752
0.00242165
0.0022091
0.00199333
0.00180803
0.00171173
0.00167421
0.00166184
0.00165818
0.00165723
0.00165723
0.00165818
0.00166184
0.00167418
0.00171161
0.00180767
0.00199212
0.00220482
0.00240931
0.00256716
0.00265239
0.00264911
0.00253927
0.00228981
0.00182934
0.0008538
0.000854967
0.00183635
0.00230663
0.00257533
0.00271904
0.00277511
0.00276101
0.00268103
0.00253399
0.00232721
0.00209726
0.00190522
0.00175644
0.0016852
0.00165926
0.00165092
0.00164832
0.00164757
0.00164758
0.00164835
0.00165094
0.00165925
0.00168512
0.00175615
0.00190416
0.00209325
0.0023151
0.00250369
0.00261462
0.00262848
0.00252883
0.00228499
0.00182746
0.000853456
0.000854946
0.00183605
0.00230557
0.00257264
0.00271289
0.00276177
0.00273316
0.00262498
0.00242647
0.00213892
0.0018409
0.00172294
0.00166614
0.0016475
0.00164321
0.00164126
0.00164019
0.00163971
0.00163972
0.00164021
0.00164126
0.00164312
0.00164726
0.00166575
0.00172215
0.00183743
0.00212708
0.00239586
0.00255807
0.00260022
0.00251535
0.00227897
0.00182514
0.000853002
0.000854898
0.00183563
0.00230434
0.00256986
0.00270694
0.00274895
0.00270489
0.00256101
0.00227737
0.00178168
0.00109142
0.00137084
0.00154246
0.0016125
0.00163965
0.00164283
0.00164269
0.00164242
0.00164241
0.00164263
0.00164258
0.00163894
0.00161105
0.00154054
0.00136986
0.00108927
0.00177009
0.00224535
0.00249266
0.00257109
0.0025023
0.00227331
0.00182299
0.000852563
0.000854764
0.00183485
0.00230264
0.00256707
0.00270266
0.00274188
0.00269079
0.00252568
0.00216552
0.00121391
0.000937665
0.00140567
0.00152697
0.00156229
0.00157298
0.00157599
0.00157665
0.00157655
0.00157553
0.00157162
0.00155887
0.00151999
0.00139483
0.000929021
0.0012017
0.00212919
0.00245442
0.00255578
0.00249536
0.00227005
0.0018217
0.000852296
0.000854326
0.00183275
0.00229902
0.00256264
0.00269901
0.00274227
0.00270218
0.00256578
0.00229374
0.00181477
0.00112577
0.001445
0.0016098
0.00165978
0.00166764
0.00167468
0.00167738
0.001678
0.00167774
0.0016762
0.00167104
0.00165795
0.00163827
0.00157244
0.00140252
0.00109953
0.00177952
0.00224684
0.00248981
0.0025661
0.00249701
0.00226914
0.00182076
0.000852104
0.000852983
0.00182696
0.0022897
0.00255143
0.0026892
0.00274
0.00271939
0.00262716
0.00245422
0.00220279
0.00194666
0.0018681
0.00182488
0.00177633
0.00174662
0.00173662
0.00173376
0.00173291
0.00173247
0.00173168
0.00172988
0.00172754
0.00173077
0.0017415
0.00177488
0.00186552
0.0021372
0.00239192
0.00254515
0.00258308
0.00249831
0.00226548
0.00181733
0.000851274
0.000849309
0.00181236
0.00226701
0.00252352
0.00266057
0.00271775
0.00271502
0.00265943
0.00255205
0.00239965
0.0022308
0.0020892
0.00195523
0.00183308
0.00177025
0.00174654
0.00173897
0.00173679
0.00173621
0.00173619
0.00173721
0.00174262
0.00176329
0.00182214
0.00194907
0.00211277
0.00230982
0.00247721
0.0025738
0.00258159
0.00248406
0.00224921
0.0018054
0.00084816
0.000840209
0.00177901
0.00221716
0.00246227
0.00259394
0.00265327
0.00266254
0.00263185
0.00256437
0.00246249
0.00233374
0.0021897
0.00203494
0.00189244
0.00181763
0.00178811
0.00177821
0.00177527
0.00177459
0.00177501
0.0017775
0.00178661
0.00181518
0.00188999
0.00203754
0.00220581
0.0023661
0.00248757
0.00254948
0.00253805
0.00243493
0.00220513
0.00177444
0.000839534
0.000819467
0.00170889
0.00211667
0.00234103
0.00246069
0.00251662
0.00253157
0.00251646
0.00247468
0.00240615
0.00231133
0.0021942
0.0020649
0.00194891
0.00188331
0.00185506
0.00184482
0.00184156
0.00184082
0.00184149
0.0018446
0.00185461
0.00188271
0.00194888
0.00206754
0.00220203
0.00232269
0.00240831
0.00244578
0.00242374
0.00232358
0.00210929
0.00170618
0.000819138
0.000775313
0.00156995
0.0019259
0.00211657
0.0022161
0.00226285
0.00227803
0.00227192
0.00224771
0.00220473
0.00214173
0.00206057
0.00197025
0.00189006
0.00184179
0.0018194
0.00181068
0.00180773
0.00180706
0.00180774
0.00181068
0.00181938
0.00184182
0.00189047
0.00197181
0.0020638
0.0021446
0.00219947
0.00221926
0.00219427
0.00210674
0.00192196
0.00156857
0.000775207
0.000687106
0.00130032
0.00157011
0.00170907
0.00177884
0.00181085
0.00182199
0.00182031
0.00180829
0.00178536
0.00175018
0.00170348
0.00165093
0.00160409
0.0015748
0.00156056
0.00155477
0.00155274
0.00155228
0.00155279
0.00155487
0.00156071
0.00157502
0.00160451
0.0016518
0.00170482
0.0017506
0.00178048
0.00178881
0.00176839
0.00170468
0.00156849
0.00129977
0.000687118
0.000538772
0.000687105
0.000775387
0.000819627
0.000840404
0.000849369
0.000852501
0.000852466
0.000850037
0.000844975
0.000836745
0.000825281
0.000811941
0.000799858
0.000792357
0.000788753
0.000787292
0.000786772
0.000786651
0.000786787
0.000787317
0.000788783
0.000792391
0.000799918
0.000812076
0.000825508
0.000836775
0.000843767
0.000845138
0.000838655
0.000819049
0.000775262
0.00068711
0.000538836
0.000590542
0.000810317
0.000942909
0.00101176
0.00104572
0.00106147
0.00106821
0.00107076
0.00107149
0.00107147
0.00107118
0.00107086
0.00107059
0.0010704
0.00107028
0.00107021
0.00107016
0.00107013
0.00107013
0.00107016
0.0010702
0.00107028
0.00107038
0.00107053
0.00107069
0.00107069
0.00107006
0.00106767
0.00106111
0.00104551
0.00101165
0.000942863
0.000810307
0.000590559
0.000810317
0.00161682
0.00197034
0.00215869
0.0022576
0.00230674
0.00232921
0.00233819
0.00234074
0.00234045
0.00233909
0.00233755
0.00233628
0.00233541
0.00233485
0.0023345
0.00233429
0.00233418
0.00233418
0.00233428
0.0023345
0.00233483
0.00233533
0.00233605
0.00233683
0.00233701
0.00233483
0.00232656
0.00230489
0.00225644
0.00215802
0.00196999
0.00161665
0.000810303
0.000942952
0.00197046
0.00242465
0.00267502
0.00281181
0.00288248
0.00291581
0.00292906
0.00293209
0.00293031
0.00292674
0.00292309
0.00292022
0.00291834
0.00291724
0.00291657
0.00291616
0.00291596
0.00291596
0.00291616
0.00291656
0.00291721
0.00291821
0.00291979
0.00292178
0.00292308
0.00292083
0.00290925
0.00287789
0.00280898
0.00267347
0.00242391
0.00197018
0.000942931
0.00101185
0.00215891
0.00267514
0.00296666
0.00313
0.00321613
0.00325671
0.00327138
0.00327195
0.00326553
0.00325672
0.00324847
0.0032423
0.00323847
0.00323633
0.00323504
0.00323423
0.00323384
0.00323384
0.00323424
0.00323504
0.00323629
0.00323828
0.00324167
0.00324659
0.00325158
0.00325257
0.00324164
0.00320554
0.00312342
0.00296306
0.00267344
0.00215826
0.00101178
0.00104586
0.00225792
0.00281207
0.00313018
0.00331095
0.0034065
0.00344953
0.00346076
0.0034533
0.00343613
0.00341629
0.00339897
0.00338665
0.00337949
0.00337575
0.00337341
0.00337187
0.0033711
0.0033711
0.00337188
0.00337341
0.00337571
0.00337927
0.00338587
0.00339663
0.00340996
0.00342039
0.00341712
0.00338372
0.00329678
0.00312235
0.00280828
0.00225641
0.00104564
0.00106165
0.00230716
0.00288295
0.00321668
0.00340703
0.00350567
0.00354486
0.00354505
0.00352
0.00348116
0.00344017
0.0034068
0.0033845
0.0033727
0.00336719
0.0033633
0.00336052
0.00335911
0.00335912
0.00336054
0.00336331
0.00336715
0.00337247
0.00338365
0.0034042
0.00343307
0.00346349
0.00347968
0.00346019
0.00337885
0.00320107
0.00287528
0.00230398
0.00106108
0.00106843
0.00232978
0.00291668
0.00325808
0.00345149
0.00354688
0.00357445
0.00355262
0.00349451
0.00341515
0.00333607
0.00327799
0.00324273
0.00322682
0.00322097
0.00321522
0.0032106
0.00320827
0.00320827
0.00321062
0.00321524
0.00322095
0.00322662
0.00324192
0.00327537
0.00332866
0.00339637
0.00345155
0.0034627
0.00340004
0.00322973
0.00290265
0.00232382
0.00106721
0.00107104
0.00233906
0.00293074
0.00327451
0.00346599
0.00355237
0.00355976
0.00350147
0.00338647
0.00323323
0.00308604
0.0030001
0.00295807
0.002945
0.00294384
0.00293687
0.00293043
0.00292725
0.00292726
0.00293046
0.0029369
0.00294385
0.00294487
0.00295741
0.00299773
0.00307878
0.00321401
0.0033419
0.00340833
0.00338016
0.00322786
0.00290768
0.00232909
0.00106885
0.00107188
0.00234218
0.00293526
0.00327837
0.00346494
0.00353842
0.00351856
0.00340834
0.00320214
0.00290885
0.00261785
0.0025457
0.00254461
0.00255719
0.00256704
0.00256587
0.00256145
0.00255893
0.00255893
0.00256147
0.00256591
0.00256707
0.00255715
0.00254423