/*--------------------------------*- C++ -*----------------------------------*\
| =========                 |                                                 |
| \\      /  F ield         | OpenFOAM: The Open Source CFD Toolbox           |
|  \\    /   O peration     | Version:  2112                                  |
|   \\  /    A nd           | Website:  www.openfoam.com                      |
|    \\/     M anipulation  |                                                 |
\*---------------------------------------------------------------------------*/
FoamFile
{
    version     2.0;
    format      ascii;
    arch        "LSB;label=32;scalar=64";
    class       volScalarField;
    location    "3.2";
    object      nut;
}
// * * * * * * * * * * * * * * * * * * * * * * * * * * * * * * * * * * * * * //

dimensions      [0 2 -1 0 0 0 0];

internalField   nonuniform List<scalar> 
64906
(
4.82787e-05
5.08631e-05
5.23633e-05
5.30563e-05
5.33535e-05
5.34735e-05
5.35188e-05
5.35346e-05
5.35392e-05
5.35397e-05
5.35388e-05
5.35379e-05
5.3537e-05
5.35362e-05
5.35354e-05
5.35346e-05
5.35338e-05
5.35331e-05
5.35327e-05
5.35331e-05
5.35339e-05
5.35346e-05
5.35354e-05
5.35361e-05
5.35365e-05
5.35359e-05
5.3532e-05
5.35173e-05
5.34729e-05
5.33536e-05
5.30568e-05
5.23643e-05
5.08644e-05
4.82798e-05
5.08646e-05
6.22156e-05
6.74215e-05
6.98714e-05
7.10308e-05
7.15572e-05
7.17798e-05
7.18643e-05
7.18896e-05
7.18913e-05
7.18848e-05
7.18772e-05
7.18715e-05
7.18682e-05
7.18666e-05
7.18657e-05
7.18652e-05
7.18649e-05
7.18649e-05
7.18652e-05
7.18658e-05
7.18666e-05
7.18679e-05
7.18703e-05
7.18727e-05
7.18701e-05
7.18472e-05
7.17676e-05
7.15505e-05
7.10287e-05
6.98724e-05
6.74242e-05
6.22187e-05
5.08673e-05
5.23673e-05
6.74237e-05
7.42608e-05
7.75878e-05
7.92381e-05
8.00271e-05
8.03763e-05
8.05102e-05
8.05439e-05
8.05343e-05
8.05104e-05
8.04872e-05
8.04707e-05
8.04619e-05
8.04581e-05
8.04564e-05
8.04554e-05
8.04549e-05
8.0455e-05
8.04557e-05
8.04568e-05
8.04585e-05
8.04618e-05
8.04686e-05
8.04784e-05
8.04824e-05
8.04541e-05
8.03337e-05
8.00004e-05
7.92251e-05
7.75844e-05
7.42628e-05
6.74284e-05
5.23718e-05
5.3062e-05
6.98758e-05
7.759e-05
8.14443e-05
8.34152e-05
8.43842e-05
8.48171e-05
8.49704e-05
8.49829e-05
8.49308e-05
8.48597e-05
8.47975e-05
8.47549e-05
8.47324e-05
8.47225e-05
8.47172e-05
8.47136e-05
8.47118e-05
8.4712e-05
8.4714e-05
8.47177e-05
8.4723e-05
8.47321e-05
8.47516e-05
8.47843e-05
8.48189e-05
8.48183e-05
8.46985e-05
8.4306e-05
8.33722e-05
8.14262e-05
7.75866e-05
6.98798e-05
5.30678e-05
5.33603e-05
7.10366e-05
7.92422e-05
8.34173e-05
8.55907e-05
8.66681e-05
8.71322e-05
8.72534e-05
8.71854e-05
8.70252e-05
8.68464e-05
8.67022e-05
8.66084e-05
8.65614e-05
8.65416e-05
8.65291e-05
8.65198e-05
8.65149e-05
8.65151e-05
8.65203e-05
8.65299e-05
8.65423e-05
8.6561e-05
8.6604e-05
8.66856e-05
8.67955e-05
8.68874e-05
8.68445e-05
8.64753e-05
8.548e-05
8.33645e-05
7.92238e-05
7.10363e-05
5.33667e-05
5.34807e-05
7.15638e-05
8.00328e-05
8.43892e-05
8.66722e-05
8.77876e-05
8.82142e-05
8.82187e-05
8.796e-05
8.75642e-05
8.71639e-05
8.68723e-05
8.66972e-05
8.66199e-05
8.65928e-05
8.65697e-05
8.65497e-05
8.6539e-05
8.65392e-05
8.65503e-05
8.65706e-05
8.65937e-05
8.66197e-05
8.66926e-05
8.68539e-05
8.7107e-05
8.74099e-05
8.7581e-05
8.73644e-05
8.64267e-05
8.42665e-05
7.99832e-05
7.15525e-05
5.34868e-05
5.35262e-05
7.1787e-05
8.03845e-05
8.48278e-05
8.71471e-05
8.82302e-05
8.85306e-05
8.82862e-05
8.76421e-05
8.67672e-05
8.59351e-05
8.54344e-05
8.518e-05
8.50985e-05
8.50886e-05
8.50549e-05
8.50194e-05
8.50004e-05
8.50006e-05
8.50202e-05
8.50561e-05
8.50899e-05
8.50988e-05
8.51761e-05
8.54163e-05
8.58764e-05
8.66047e-05
8.72409e-05
8.73856e-05
8.66617e-05
8.45825e-05
8.02793e-05
7.17549e-05
5.35303e-05
5.35418e-05
7.18726e-05
8.05232e-05
8.49936e-05
8.72942e-05
8.82791e-05
8.83483e-05
8.76645e-05
8.62987e-05
8.44475e-05
8.27354e-05
8.21281e-05
8.19738e-05
8.20171e-05
8.20983e-05
8.20672e-05
8.20188e-05
8.19932e-05
8.19935e-05
8.20197e-05
8.20687e-05
8.21001e-05
8.20184e-05
8.19715e-05
8.2113e-05
8.26794e-05
8.42838e-05
8.58861e-05
8.67369e-05
8.64324e-05
8.45616e-05
8.03338e-05
7.18083e-05
5.3542e-05
5.35462e-05
7.19003e-05
8.05665e-05
8.50312e-05
8.72797e-05
8.81187e-05
8.78594e-05
8.65024e-05
8.38535e-05
7.98542e-05
7.58886e-05
7.62415e-05
7.70263e-05
7.75653e-05
7.78724e-05
7.78944e-05
7.78633e-05
7.78448e-05
7.78452e-05
7.78644e-05
7.78961e-05
7.78748e-05
7.75677e-05
7.7027e-05
7.6233e-05
7.58421e-05
7.96959e-05
8.34348e-05
8.55566e-05
8.5914e-05
8.43619e-05
8.02724e-05
7.17957e-05
5.35405e-05
5.35464e-05
7.19065e-05
8.05736e-05
8.50224e-05
8.72141e-05
8.79049e-05
8.72921e-05
8.51011e-05
8.04008e-05
7.12471e-05
5.93467e-05
6.6379e-05
7.07795e-05
7.24901e-05
7.31242e-05
7.32956e-05
7.3334e-05
7.33404e-05
7.33407e-05
7.33351e-05
7.32974e-05
7.31269e-05
7.24938e-05
7.07842e-05
6.63829e-05
5.93258e-05
7.11061e-05
7.99771e-05
8.41393e-05
8.53254e-05
8.41238e-05
8.01816e-05
7.17641e-05
5.35342e-05
5.35456e-05
7.19071e-05
8.05743e-05
8.50151e-05
8.7178e-05
8.77901e-05
8.69733e-05
8.42044e-05
7.7511e-05
6.01707e-05
5.64728e-05
6.57277e-05
6.85557e-05
6.93902e-05
6.96587e-05
6.97341e-05
6.97511e-05
6.97513e-05
6.97347e-05
6.96599e-05
6.93922e-05
6.85591e-05
6.57336e-05
5.64773e-05
6.00888e-05
7.70888e-05
8.32327e-05
8.49946e-05
8.39963e-05
8.01326e-05
7.17456e-05
5.35292e-05
5.35446e-05
7.19083e-05
8.05808e-05
8.50306e-05
8.72115e-05
8.78674e-05
8.71778e-05
8.48415e-05
7.98967e-05
7.03598e-05
5.84615e-05
6.36923e-05
6.76177e-05
6.9088e-05
6.9507e-05
6.97415e-05
6.98061e-05
6.98156e-05
6.98155e-05
6.98059e-05
6.97412e-05
6.95066e-05
6.90875e-05
6.7617e-05
6.36858e-05
5.84329e-05
7.02089e-05
7.94665e-05
8.38723e-05
8.52007e-05
8.40723e-05
8.01618e-05
7.17542e-05
5.35293e-05
5.3544e-05
7.19111e-05
8.05937e-05
8.50649e-05
8.72937e-05
8.80606e-05
8.76344e-05
8.59523e-05
8.27281e-05
7.77791e-05
7.2469e-05
7.09728e-05
7.03345e-05
7.01446e-05
7.00789e-05
7.00976e-05
7.00991e-05
7.00942e-05
7.0094e-05
7.00985e-05
7.00964e-05
7.00768e-05
7.01411e-05
7.03275e-05
7.09545e-05
7.24127e-05
7.76129e-05
8.23004e-05
8.49917e-05
8.56655e-05
8.42704e-05
8.02446e-05
7.17835e-05
5.35326e-05
5.35432e-05
7.19144e-05
8.06085e-05
8.51042e-05
8.73863e-05
8.82679e-05
8.8082e-05
8.68909e-05
8.46293e-05
8.1343e-05
7.75986e-05
7.4518e-05
7.21373e-05
7.10075e-05
7.05851e-05
7.04505e-05
7.04048e-05
7.0389e-05
7.03886e-05
7.04038e-05
7.04487e-05
7.05821e-05
7.10025e-05
7.21282e-05
7.44974e-05
7.7537e-05
8.11726e-05
8.42031e-05
8.59355e-05
8.61189e-05
8.44816e-05
8.03374e-05
7.18173e-05
5.35359e-05
5.35422e-05
7.19172e-05
8.06213e-05
8.51374e-05
8.74623e-05
8.84299e-05
8.84068e-05
8.75024e-05
8.56956e-05
8.29952e-05
7.96313e-05
7.61135e-05
7.30873e-05
7.15228e-05
7.09028e-05
7.0688e-05
7.06162e-05
7.0593e-05
7.05925e-05
7.06147e-05
7.06857e-05
7.08993e-05
7.15174e-05
7.30776e-05
7.60922e-05
7.95679e-05
8.28227e-05
8.52689e-05
8.65483e-05
8.64456e-05
8.46445e-05
8.04118e-05
7.18447e-05
5.35377e-05
5.35409e-05
7.19188e-05
8.06301e-05
8.51604e-05
8.75136e-05
8.85345e-05
8.86044e-05
8.78461e-05
8.62374e-05
8.37435e-05
8.04728e-05
7.68017e-05
7.35243e-05
7.17759e-05
7.1064e-05
7.08121e-05
7.07268e-05
7.06985e-05
7.06977e-05
7.07249e-05
7.08094e-05
7.10603e-05
7.17701e-05
7.35144e-05
7.67774e-05
8.04086e-05
8.35696e-05
8.58093e-05
8.68911e-05
8.66426e-05
8.47479e-05
8.04604e-05
7.18622e-05
5.35378e-05
5.35395e-05
7.19195e-05
8.06354e-05
8.51739e-05
8.75428e-05
8.85921e-05
8.87082e-05
8.80162e-05
8.64873e-05
8.40633e-05
8.08114e-05
7.70807e-05
7.37035e-05
7.18822e-05
7.11325e-05
7.08646e-05
7.07726e-05
7.07403e-05
7.07393e-05
7.07703e-05
7.08617e-05
7.11286e-05
7.18763e-05
7.36934e-05
7.70558e-05
8.07467e-05
8.38884e-05
8.6058e-05
8.706e-05
8.67451e-05
8.48038e-05
8.04872e-05
7.18714e-05
5.35366e-05
5.35381e-05
7.19195e-05
8.06379e-05
8.51802e-05
8.7556e-05
8.86171e-05
8.87517e-05
8.80846e-05
8.65831e-05
8.41799e-05
8.09299e-05
7.71773e-05
7.37655e-05
7.19192e-05
7.1156e-05
7.0882e-05
7.07866e-05
7.07513e-05
7.075e-05
7.07841e-05
7.08789e-05
7.11519e-05
7.19132e-05
7.37553e-05
7.71524e-05
8.0865e-05
8.40046e-05
8.61533e-05
8.71277e-05
8.67877e-05
8.48278e-05
8.04989e-05
7.1875e-05
5.35349e-05
5.3537e-05
7.19192e-05
8.06382e-05
8.51808e-05
8.7557e-05
8.86185e-05
8.87535e-05
8.80869e-05
8.6586e-05
8.41834e-05
8.09339e-05
7.71813e-05
7.37685e-05
7.1921e-05
7.11568e-05
7.08818e-05
7.07853e-05
7.07482e-05
7.07466e-05
7.07825e-05
7.08785e-05
7.11525e-05
7.1915e-05
7.37584e-05
7.71566e-05
8.08692e-05
8.40083e-05
8.61564e-05
8.71302e-05
8.67897e-05
8.48292e-05
8.04997e-05
7.18748e-05
5.35331e-05
5.35368e-05
7.19188e-05
8.06364e-05
8.51758e-05
8.75457e-05
8.85961e-05
8.87136e-05
8.80233e-05
8.64963e-05
8.40742e-05
8.08239e-05
7.70937e-05
7.37131e-05
7.18883e-05
7.11352e-05
7.08645e-05
7.07691e-05
7.07321e-05
7.07304e-05
7.07661e-05
7.0861e-05
7.1131e-05
7.18823e-05
7.37032e-05
7.70695e-05
8.07601e-05
8.39002e-05
8.60678e-05
8.70677e-05
8.67508e-05
8.48079e-05
8.04896e-05
7.18712e-05
5.35324e-05
5.35378e-05
7.19181e-05
8.06318e-05
8.51635e-05
8.75183e-05
8.85411e-05
8.86135e-05
8.78581e-05
8.62531e-05
8.37632e-05
8.04961e-05
7.68261e-05
7.35423e-05
7.17874e-05
7.10698e-05
7.0813e-05
7.07225e-05
7.06883e-05
7.06867e-05
7.07195e-05
7.08095e-05
7.10656e-05
7.17818e-05
7.35331e-05
7.68032e-05
8.04337e-05
8.35911e-05
8.58266e-05
8.69043e-05
8.66523e-05
8.47547e-05
8.04645e-05
7.18624e-05
5.3533e-05
5.35389e-05
7.19167e-05
8.06235e-05
8.51416e-05
8.74687e-05
8.84389e-05
8.84194e-05
8.75197e-05
8.57192e-05
8.30263e-05
7.96698e-05
7.61499e-05
7.31163e-05
7.15413e-05
7.09125e-05
7.06908e-05
7.06125e-05
7.05838e-05
7.05826e-05
7.06098e-05
7.06876e-05
7.09087e-05
7.15364e-05
7.31083e-05
7.61302e-05
7.96103e-05
8.28572e-05
8.52949e-05
8.65672e-05
8.64591e-05
8.46539e-05
8.04175e-05
7.18456e-05
5.35328e-05
5.35399e-05
7.19141e-05
8.0611e-05
8.51087e-05
8.73933e-05
8.82781e-05
8.80969e-05
8.69128e-05
8.46616e-05
8.13899e-05
7.76603e-05
7.45738e-05
7.21773e-05
7.10293e-05
7.05941e-05
7.04502e-05
7.03977e-05
7.03774e-05
7.03766e-05
7.03955e-05
7.04473e-05
7.05906e-05
7.1025e-05
7.21712e-05
7.45591e-05
7.76059e-05
8.1225e-05
8.42381e-05
8.59585e-05
8.61345e-05
8.44922e-05
8.0344e-05
7.18189e-05
5.3531e-05
5.35406e-05
7.19102e-05
8.05948e-05
8.50674e-05
8.72981e-05
8.80681e-05
8.76471e-05
8.59739e-05
8.27661e-05
7.78442e-05
7.25663e-05
7.10561e-05
7.03652e-05
7.01409e-05
7.00553e-05
7.00613e-05
7.00558e-05
7.00475e-05
7.00469e-05
7.00539e-05
7.0058e-05
7.00504e-05
7.01344e-05
7.03588e-05
7.10486e-05
7.25227e-05
7.76861e-05
8.23386e-05
8.50108e-05
8.56766e-05
8.4278e-05
8.02497e-05
7.17847e-05
5.35275e-05
5.35408e-05
7.19045e-05
8.05759e-05
8.50242e-05
8.72043e-05
8.78613e-05
8.71753e-05
8.48482e-05
7.99263e-05
7.04408e-05
5.85274e-05
6.37207e-05
6.75217e-05
6.89286e-05
6.93083e-05
6.95231e-05
6.95801e-05
6.95864e-05
6.95855e-05
6.95769e-05
6.95156e-05
6.92926e-05
6.89025e-05
6.74919e-05
6.37135e-05
5.85014e-05
7.02975e-05
7.94812e-05
8.38633e-05
8.51899e-05
8.40656e-05
8.01588e-05
7.17518e-05
5.35239e-05
5.35404e-05
7.18936e-05
8.05506e-05
8.49815e-05
8.71363e-05
8.77422e-05
8.69199e-05
8.41458e-05
7.74553e-05
6.01417e-05
5.61765e-05
6.51183e-05
6.77768e-05
6.84944e-05
6.87195e-05
6.87819e-05
6.87943e-05
6.87917e-05
6.87718e-05
6.86933e-05
6.84341e-05
6.76599e-05
6.49409e-05
5.60383e-05
6.00012e-05
7.69545e-05
8.31194e-05
8.49167e-05
8.39477e-05
8.0105e-05
7.17316e-05
5.35222e-05
5.35364e-05
7.1864e-05
8.04983e-05
8.49173e-05
8.70844e-05
8.77544e-05
8.71192e-05
8.48957e-05
8.01456e-05
7.09299e-05
5.90077e-05
6.51263e-05
6.89759e-05
7.01557e-05
7.04306e-05
7.05068e-05
7.05299e-05
7.05341e-05
7.05291e-05
7.05083e-05
7.04436e-05
7.02678e-05
6.98011e-05
6.83588e-05
6.4455e-05
5.86607e-05
7.04494e-05
7.94854e-05
8.38027e-05
8.51028e-05
8.39794e-05
8.00929e-05
7.17182e-05
5.35213e-05
5.35219e-05
7.17803e-05
8.03615e-05
8.4754e-05
8.69444e-05
8.7734e-05
8.74187e-05
8.59705e-05
8.31471e-05
7.88092e-05
7.42241e-05
7.35284e-05
7.31307e-05
7.24261e-05
7.19914e-05
7.18168e-05
7.17602e-05
7.17426e-05
7.17349e-05
7.17248e-05
7.17049e-05
7.16782e-05
7.16774e-05
7.17314e-05
7.20027e-05
7.29653e-05
7.78266e-05
8.22458e-05
8.47876e-05
8.54005e-05
8.40117e-05
8.0042e-05
7.16688e-05
5.35126e-05
5.34778e-05
7.15611e-05
8.00188e-05
8.43364e-05
8.65197e-05
8.74105e-05
8.73806e-05
8.65416e-05
8.48794e-05
8.2458e-05
7.97402e-05
7.75921e-05
7.54577e-05
7.34535e-05
7.24427e-05
7.20581e-05
7.19336e-05
7.18973e-05
7.18877e-05
7.1888e-05
7.19064e-05
7.19941e-05
7.23133e-05
7.32359e-05
7.52664e-05
7.78533e-05
8.10806e-05
8.37801e-05
8.5302e-05
8.54032e-05
8.38027e-05
7.97947e-05
7.14876e-05
5.34741e-05
5.33587e-05
7.10384e-05
7.92392e-05
8.33907e-05
8.54989e-05
8.64262e-05
8.65835e-05
8.61399e-05
8.51337e-05
8.35826e-05
8.15882e-05
7.93286e-05
7.68067e-05
7.44492e-05
7.3243e-05
7.27724e-05
7.2616e-05
7.25702e-05
7.25597e-05
7.25657e-05
7.2604e-05
7.27463e-05
7.31969e-05
7.43937e-05
7.68106e-05
7.95428e-05
8.2101e-05
8.40012e-05
8.49444e-05
8.47322e-05
8.30362e-05
7.90984e-05
7.09977e-05
5.33595e-05
5.30616e-05
6.98816e-05
7.75966e-05
8.14406e-05
8.33761e-05
8.42571e-05
8.45022e-05
8.42978e-05
8.36933e-05
8.26754e-05
8.12326e-05
7.94048e-05
7.73238e-05
7.54087e-05
7.43433e-05
7.38958e-05
7.37367e-05
7.36882e-05
7.36782e-05
7.3686e-05
7.37322e-05
7.38869e-05
7.43288e-05
7.53953e-05
7.73466e-05
7.95081e-05
8.14043e-05
8.27194e-05
8.32713e-05
8.2888e-05
8.12283e-05
7.75208e-05
6.98652e-05
5.30655e-05
5.23685e-05
6.74325e-05
7.42741e-05
7.76002e-05
7.92367e-05
7.99831e-05
8.02325e-05
8.01632e-05
7.98257e-05
7.92025e-05
7.82611e-05
7.70132e-05
7.55875e-05
7.4296e-05
7.35281e-05
7.31791e-05
7.30489e-05
7.30078e-05
7.29989e-05
7.30071e-05
7.30471e-05
7.31756e-05
7.35232e-05
7.42944e-05
7.56009e-05
7.70525e-05
7.83006e-05
7.91263e-05
7.94e-05
7.89668e-05
7.7495e-05
7.4245e-05
6.74321e-05
5.23743e-05
5.08675e-05
6.2225e-05
6.74373e-05
6.98919e-05
7.10506e-05
7.15639e-05
7.17469e-05
7.17413e-05
7.15885e-05
7.12762e-05
7.07743e-05
7.00833e-05
6.92838e-05
6.85568e-05
6.81051e-05
6.7889e-05
6.78043e-05
6.77761e-05
6.77699e-05
6.77763e-05
6.78045e-05
6.7889e-05
6.8105e-05
6.85583e-05
6.92904e-05
7.00968e-05
7.07765e-05
7.12024e-05
7.12965e-05
7.09404e-05
6.98591e-05
6.74363e-05
6.22325e-05
5.08733e-05
4.82818e-05
5.08706e-05
5.23771e-05
5.30758e-05
5.33783e-05
5.35023e-05
5.35483e-05
5.3557e-05
5.35387e-05
5.34888e-05
5.34045e-05
5.32779e-05
5.31212e-05
5.29719e-05
5.28768e-05
5.28291e-05
5.28077e-05
5.27975e-05
5.2794e-05
5.2798e-05
5.28082e-05
5.28293e-05
5.28765e-05
5.29712e-05
5.31206e-05
5.32775e-05
5.34018e-05
5.34744e-05
5.34789e-05
5.33795e-05
5.3086e-05
5.23879e-05
5.08784e-05
4.82861e-05
7.48001e-05
8.46739e-05
9.00866e-05
9.27182e-05
9.39548e-05
9.45066e-05
9.47356e-05
9.48206e-05
9.48453e-05
9.48459e-05
9.48381e-05
9.4829e-05
9.48215e-05
9.48163e-05
9.48129e-05
9.48106e-05
9.48089e-05
9.4808e-05
9.48079e-05
9.48087e-05
9.48102e-05
9.48123e-05
9.48153e-05
9.48195e-05
9.48237e-05
9.48226e-05
9.48008e-05
9.47207e-05
9.44972e-05
9.39497e-05
9.27162e-05
9.00864e-05
8.46746e-05
7.48014e-05
8.46743e-05
0.000246726
0.000304671
0.000331673
0.000345208
0.00035186
0.000354901
0.000356116
0.000356458
0.000356412
0.000356221
0.000356007
0.000355832
0.00035571
0.000355633
0.000355584
0.000355553
0.000355538
0.000355538
0.000355554
0.000355584
0.000355632
0.000355702
0.000355803
0.000355914
0.000355945
0.000355657
0.000354541
0.00035161
0.000345052
0.000331583
0.000304622
0.000246705
8.46753e-05
9.00894e-05
0.000304696
0.000386349
0.000425735
0.000446153
0.000456559
0.000461471
0.000463432
0.000463881
0.000463615
0.000463085
0.000462543
0.00046212
0.000461847
0.000461688
0.000461591
0.000461531
0.000461502
0.000461502
0.000461532
0.000461591
0.000461685
0.00046183
0.00046206
0.000462355
0.00046255
0.000462218
0.000460508
0.00045589
0.000445744
0.000425515
0.000386248
0.000304663
9.00912e-05
9.27234e-05
0.000331714
0.000425755
0.00047231
0.000497027
0.00050987
0.000515925
0.000518123
0.000518203
0.000517226
0.000515882
0.000514623
0.000513681
0.000513102
0.000512783
0.000512587
0.000512463
0.000512402
0.000512402
0.000512465
0.000512589
0.000512779
0.000513077
0.000513591
0.000514346
0.000515114
0.00051528
0.000513654
0.00050828
0.000496047
0.00047178
0.00042551
0.000331633
9.27247e-05
9.39619e-05
0.000345259
0.000446191
0.000497052
0.000524436
0.000538687
0.000545103
0.000546772
0.000545622
0.000542988
0.000539928
0.00053725
0.000535333
0.000534228
0.000533661
0.000533289
0.000533038
0.000532913
0.000532914
0.00053304
0.00053329
0.000533656
0.000534196
0.000535219
0.000536903
0.000538978
0.000540614
0.000540176
0.000535232
0.000522292
0.000495876
0.000445635
0.000345062
9.39594e-05
9.45151e-05
0.000351921
0.000456623
0.000509945
0.000538764
0.000553457
0.000559273
0.000559255
0.000555402
0.000549402
0.000543026
0.000537871
0.000534376
0.000532549
0.000531725
0.000531078
0.000530603
0.000530366
0.000530367
0.000530606
0.00053108
0.000531721
0.000532517
0.000534253
0.000537487
0.000541962
0.000546739
0.000549332
0.00054654
0.000534483
0.000507583
0.000455484
0.000351495
9.45027e-05
9.47452e-05
0.00035498
0.000461591
0.000516121
0.000545393
0.000559579
0.00056362
0.000560221
0.000551212
0.00053873
0.000526191
0.000517542
0.000512131
0.000509742
0.000508971
0.000507931
0.000507103
0.000506702
0.000506703
0.000507107
0.000507935
0.000508969
0.000509715
0.000512015
0.000517159
0.000525091
0.000535914
0.000544753
0.000546746
0.000537566
0.000511818
0.000459495
0.000354168
9.47135e-05
9.48317e-05
0.000356232
0.000463668
0.000518581
0.00054756
0.000560368
0.000561309
0.00055219
0.00053388
0.000508561
0.000483634
0.00047328
0.000467774
0.000466228
0.000466561
0.000465032
0.000463777
0.000463216
0.000463217
0.00046378
0.000465036
0.000466563
0.000466211
0.000467683
0.000472947
0.000482592
0.000505719
0.000527205
0.000538236
0.000534468
0.000511488
0.000460209
0.000354863
9.47699e-05
9.4859e-05
0.000356646
0.000464335
0.000519159
0.000547391
0.000558215
0.000554866
0.000537139
0.000502309
0.00044813
0.000387888
0.000396693
0.000402056
0.000405715
0.000409079
0.000407247
0.000405859
0.00040532
0.000405321
0.000405861
0.000407251
0.000409085
0.000405711
0.000402009
0.000396481
0.000387079
0.000445422
0.000495532
0.000522858
0.000527509
0.000508665
0.000459255
0.00035461
9.47591e-05
9.4864e-05
0.000356721
0.000464426
0.000519005
0.000546422
0.000555235
0.000547254
0.000518588
0.000455786
0.000325362
0.000110591
0.00026645
0.000322537
0.0003395
0.000346942
0.000345995
0.000345312
0.000345097
0.000345098
0.000345314
0.000345999
0.000346951
0.000339511
0.000322551
0.000266473
0.00011048
0.000323196
0.00044902
0.000504062
0.000519542
0.000505275
0.000457858
0.000354071
9.47283e-05
9.48629e-05
0.000356703
0.000464397
0.000518828
0.000545787
0.000553451
0.000542587
0.000505403
0.000408597
0.000113535
0.000100051
0.000257656
0.000289208
0.000295919
0.000299066
0.000300093
0.000300324
0.000300325
0.000300095
0.000299072
0.000295929
0.000289225
0.000257695
0.000100055
0.00011313
0.000402095
0.000490762
0.000514692
0.00050329
0.000457015
0.000353709
9.47082e-05
9.48617e-05
0.000356695
0.00046445
0.000518962
0.000546067
0.00055413
0.000544698
0.000513592
0.000447254
0.000313147
0.000106977
0.000232055
0.000273087
0.000282119
0.000278776
0.000286739
0.000289504
0.00029004
0.00029004
0.000289504
0.00028674
0.00027877
0.00028211
0.00027307
0.000232017
0.00010685
0.000310935
0.000440447
0.000498987
0.000516847
0.000503969
0.000457246
0.00035374
9.47122e-05
9.48619e-05
0.000356723
0.00046461
0.000519384
0.000547045
0.000556362
0.000549958
0.000526813
0.00048326
0.000416256
0.000339835
0.00032205
0.000304104
0.000297093
0.000293295
0.000295045
0.000295893
0.000296071
0.00029607
0.00029589
0.000295039
0.000293279
0.000297061
0.000304026
0.000321816
0.000339031
0.000413545
0.00047641
0.000512334
0.000522249
0.000506302
0.000458257
0.000354099
9.4735e-05
9.48627e-05
0.000356772
0.000464816
0.000519912
0.000548231
0.000558888
0.000555206
0.000537631
0.000505366
0.000459053
0.000405856
0.000361297
0.000322869
0.000306952
0.00030133
0.000300167
0.000299954
0.000299903
0.000299902
0.000299951
0.000300161
0.000301315
0.000306915
0.000322771
0.000361001
0.000404888
0.00045622
0.000498527
0.00052325
0.000527617
0.000508922
0.000459479
0.000354564
9.47622e-05
9.48631e-05
0.000356819
0.000465005
0.000520383
0.000549258
0.000560959
0.000559147
0.000544753
0.0005175
0.000477746
0.000428933
0.00037812
0.00033227
0.000312089
0.00030488
0.000302709
0.000302129
0.000301997
0.000301996
0.000302128
0.000302705
0.000304867
0.000312053
0.000332169
0.000377813
0.000427919
0.000474871
0.000510661
0.000530415
0.000531618
0.000511042
0.000460514
0.00035497
9.47839e-05
9.48628e-05
0.000356854
0.000465143
0.000520723
0.000549981
0.000562359
0.000561649
0.000548891
0.000523766
0.000486159
0.00043817
0.000385308
0.000336646
0.000314596
0.000306536
0.000303986
0.000303285
0.000303129
0.000303129
0.000303285
0.000303984
0.000306525
0.000314561
0.000336548
0.000385019
0.000437139
0.000483261
0.000516916
0.000534557
0.000534135
0.000512451
0.000461223
0.000355249
9.47971e-05
9.4862e-05
0.000356875
0.000465226
0.000520929
0.000550409
0.000563162
0.000563024
0.00055103
0.000526766
0.000489851
0.000441941
0.000388257
0.000338514
0.000315697
0.000307262
0.000304565
0.00030382
0.000303658
0.000303659
0.000303821
0.000304563
0.000307251
0.000315662
0.000338416
0.000387962
0.0004409
0.000486938
0.000519901
0.000536687
0.000535503
0.000513245
0.000461629
0.000355409
9.48033e-05
9.4861e-05
0.000356883
0.000465265
0.000521023
0.000550603
0.000563518
0.000563614
0.000551916
0.00052795
0.000491233
0.00044329
0.000389299
0.000339183
0.000316092
0.000307521
0.000304771
0.000304013
0.00030385
0.000303851
0.000304014
0.00030477
0.00030751
0.000316057
0.000339084
0.000389002
0.000442244
0.000488313
0.000521077
0.000537564
0.000536086
0.00051359
0.000461807
0.000355478
9.4805e-05
9.48602e-05
0.000356883
0.000465266
0.000521026
0.000550608
0.000563526
0.000563625
0.000551929
0.000527966
0.00049125
0.000443307
0.000389316
0.000339204
0.000316105
0.000307528
0.000304776
0.000304017
0.000303855
0.000303856
0.000304018
0.000304774
0.000307518
0.000316071
0.000339106
0.000389019
0.000442261
0.00048833
0.000521093
0.000537577
0.000536096
0.000513597
0.000461811
0.000355478
9.4804e-05
9.48599e-05
0.000356874
0.000465231
0.000520939
0.000550425
0.000563185
0.000563054
0.000551069
0.000526814
0.000489905
0.000441996
0.000388311
0.000338584
0.000315742
0.00030729
0.000304585
0.00030384
0.00030368
0.000303682
0.000303842
0.000304584
0.000307281
0.00031571
0.000338489
0.000388018
0.000440957
0.000486994
0.000519951
0.000536727
0.000535533
0.000513265
0.00046164
0.00035541
9.48007e-05
9.48601e-05
0.000356853
0.00046515
0.000520739
0.000550006
0.000562395
0.000561699
0.000548957
0.00052385
0.000486258
0.000438277
0.000385416
0.000336784
0.000314695
0.000306606
0.000304045
0.000303344
0.000303192
0.000303193
0.000303347
0.000304047
0.0003066
0.000314667
0.000336695
0.000385131
0.000437252
0.000483365
0.000517003
0.000534623
0.000534183
0.000512483
0.000461241
0.000355252
9.47937e-05
9.486e-05
0.000356815
0.000465011
0.000520398
0.000549284
0.000560999
0.000559207
0.000544841
0.000517623
0.000477909
0.000429128
0.000378345
0.000332508
0.000312267
0.000305021
0.000302835
0.000302257
0.000302131
0.000302133
0.000302263
0.000302842
0.000305022
0.000312249
0.000332432
0.000378077
0.000428131
0.000475044
0.000510785
0.000530497
0.000531673
0.000511078
0.000460533
0.00035497
9.47802e-05
9.48592e-05
0.00035676
0.000464811
0.000519911
0.000548237
0.000558907
0.00055525
0.000537717
0.000505522
0.000459307
0.00040621
0.000361711
0.000323218
0.000307196
0.000301532
0.000300341
0.000300129
0.000300086
0.00030009
0.000300139
0.000300355
0.000301541
0.000307187
0.000323159
0.000361473
0.000405278
0.00045649
0.000498667
0.000523307
0.000527638
0.000508931
0.00045948
0.000354554
9.47581e-05
9.48574e-05
0.000356689
0.000464561
0.000519319
0.000546968
0.000556283
0.000549897
0.00052681
0.000483392
0.000416634
0.000340446
0.000322655
0.000304357
0.000297109
0.000293235
0.000294908
0.000295751
0.00029594
0.000295944
0.000295763
0.000294921
0.000293231
0.000297075
0.000304293
0.000322515
0.00033972
0.000413952
0.000476461
0.000512223
0.000522115
0.0005062
0.000458191
0.000354054
9.47293e-05
9.48539e-05
0.000356592
0.00046427
0.000518705
0.000545741
0.000553752
0.000544296
0.000513235
0.000447125
0.000313636
0.000107099
0.000232306
0.000271978
0.000280332
0.000276632
0.000284451
0.000287218
0.000287769
0.000287769
0.000287211
0.000284412
0.000276493
0.000280068
0.000271663
0.000232355
0.000106975
0.000311504
0.000440005
0.00049829
0.000516245
0.000503547
0.000456986
0.000353598
9.47019e-05
9.48448e-05
0.000356412
0.000463864
0.000518067
0.000544819
0.000552301
0.000541271
0.000503971
0.00040732
0.000113305
9.89593e-05
0.000250841
0.00028029
0.000285697
0.000288577
0.00028962
0.00028988
0.000289863
0.000289541
0.000288335
0.000285073
0.000279026
0.000249002
9.84673e-05
0.000112661
0.0003997
0.000488398
0.000512905
0.000502082
0.000456272
0.000353323
9.46848e-05
9.48163e-05
0.000355942
0.000463021
0.00051704
0.000543965
0.000552319
0.000543832
0.000514511
0.000450936
0.000320332
0.000108869
0.000250392
0.00029972
0.000310478
0.000313659
0.000312423
0.000312002
0.000311934
0.000311886
0.000311781
0.000311734
0.000311807
0.000306268
0.000292166
0.000242695
0.000107495
0.000313898
0.000440565
0.000497793
0.000515196
0.000502371
0.00045603
0.00035311
9.46716e-05
9.47316e-05
0.000354697
0.000460942
0.000514562
0.000541778
0.000551667
0.00054723
0.000527865
0.00049026
0.000431353
0.000363479
0.000358162
0.000348545
0.00033569
0.000329526
0.000326628
0.000325675
0.000325417
0.000325334
0.000325285
0.000325344
0.000325776
0.000326143
0.00032921
0.00033732
0.000346462
0.000416715
0.00047602
0.000509683
0.000518511
0.000502485
0.000455181
0.000352383
9.46188e-05
9.45053e-05
0.000351686
0.000456095
0.000508665
0.000535782
0.000546971
0.000546109
0.000534271
0.000511164
0.000477279
0.000438016
0.000406082
0.000372582
0.00033986
0.000326177
0.000321393
0.000319908
0.000319491
0.000319386
0.000319404
0.000319669
0.000320839
0.00032491
0.000338063
0.000371728
0.000410092
0.000456128
0.000493736
0.000515152
0.00051795
0.000499436
0.000451747
0.000349967
9.44279e-05
9.39563e-05
0.000345086
0.000445829
0.000496164
0.000522323
0.000534027
0.000535589
0.000528732
0.0005138
0.000490879
0.000461093
0.000426882
0.000388327
0.000350915
0.000334774
0.000329024
0.000327181
0.000326644
0.000326522
0.0003266
0.000327065
0.000328781
0.000334359
0.000350594
0.000389104
0.000430234
0.000467909
0.000495791
0.00051024
0.000509238
0.000489547
0.000442796
0.000343915
9.39095e-05
9.27216e-05
0.000331596
0.000425548
0.000471792
0.000495736
0.000506915
0.000509721
0.000506079
0.000496469
0.000480674
0.000458569
0.000430886
0.000399762
0.000371389
0.000357176
0.000351483
0.000349489
0.000348858
0.000348713
0.000348846
0.000349449
0.000351406
0.000357089
0.000371471
0.000400418
0.000432558
0.000460874
0.000480876
0.000490123
0.000486775
0.000467418
0.000423619
0.000330871
9.26976e-05
9.00906e-05
0.000304623
0.000386259
0.0004255
0.000445505
0.000454965
0.000457947
0.000456302
0.000450547
0.000440457
0.000425723
0.000406757
0.00038561
0.000366848
0.000356283
0.000351592
0.000349795
0.000349187
0.000349047
0.000349191
0.000349801
0.000351599
0.00035631
0.000366975
0.000385989
0.000407466
0.000426287
0.000439204
0.000444365
0.000440052
0.000422955
0.00038519
0.000304228
9.00818e-05
8.46775e-05
0.000246696
0.000304663
0.000331626
0.000345001
0.000351245
0.000353397
0.000352862
0.000350057
0.000344846
0.000336982
0.000326672
0.000315166
0.000304977
0.000298796
0.000295841
0.000294639
0.000294213
0.000294116
0.000294227
0.000294666
0.000295882
0.000298857
0.000305091
0.000315381
0.000326982
0.000337076
0.000343802
0.000346012
0.000342432
0.000330492
0.000304213
0.000246527
8.46775e-05
7.48036e-05
8.46775e-05
9.00951e-05
9.2731e-05
9.39667e-05
9.45054e-05
9.46946e-05
9.46888e-05
9.45332e-05
9.42142e-05
9.37016e-05
9.29933e-05
9.2172e-05
9.1427e-05
9.0961e-05
9.07352e-05
9.06429e-05
9.06098e-05
9.06021e-05
9.06107e-05
9.06444e-05
9.0737e-05
9.09632e-05
9.1431e-05
9.21809e-05
9.30074e-05
9.37021e-05
9.41365e-05
9.42287e-05
9.38482e-05
9.26892e-05
9.00846e-05
8.46769e-05
7.48082e-05
7.83815e-05
9.2073e-05
9.94865e-05
0.000103177
0.000104982
0.000105827
0.000106195
0.000106337
0.000106378
0.000106376
0.00010636
0.00010634
0.000106324
0.000106313
0.000106307
0.000106302
0.000106299
0.000106298
0.000106298
0.000106299
0.000106302
0.000106306
0.000106312
0.000106321
0.00010633
0.000106331
0.000106295
0.000106162
0.000105805
0.000104969
0.00010317
9.94835e-05
9.20722e-05
7.83827e-05
9.2073e-05
0.000323416
0.000413119
0.000456044
0.000478078
0.000489216
0.000494468
0.000496621
0.000497224
0.000497104
0.000496702
0.00049625
0.000495873
0.000495607
0.000495437
0.000495328
0.00049526
0.000495227
0.000495227
0.000495259
0.000495326
0.00049543
0.000495585
0.000495804
0.000496048
0.000496142
0.000495648
0.000493695
0.000488666
0.000477723
0.00045583
0.000412998
0.000323359
9.2072e-05
9.9489e-05
0.00041316
0.000547463
0.000614329
0.000649667
0.000668031
0.000676879
0.000680463
0.000681252
0.000680667
0.000679544
0.000678383
0.000677456
0.000676842
0.000676477
0.000676252
0.000676115
0.000676048
0.000676048
0.000676115
0.00067625
0.000676466
0.000676799
0.000677317
0.000677976
0.000678445
0.000677912
0.000674843
0.000666591
0.00064876
0.000613817
0.000547208
0.000413063
9.94873e-05
0.000103182
0.000456114
0.000614367
0.00069537
0.000739124
0.000762205
0.000773245
0.000777269
0.000777322
0.000775314
0.000772531
0.000769863
0.000767818
0.000766535
0.000765816
0.000765367
0.000765084
0.000764947
0.000764948
0.000765085
0.000765364
0.0007658
0.000766471
0.000767611
0.000769267
0.000770953
0.000771457
0.000768595
0.000758911
0.000737046
0.000694203
0.000613798
0.000455902
0.000103177
0.00010499
0.000478169
0.000649744
0.000739178
0.000788113
0.000813903
0.000825626