/*--------------------------------*- C++ -*----------------------------------*\
| =========                 |                                                 |
| \\      /  F ield         | OpenFOAM: The Open Source CFD Toolbox           |
|  \\    /   O peration     | Version:  2112                                  |
|   \\  /    A nd           | Website:  www.openfoam.com                      |
|    \\/     M anipulation  |                                                 |
\*---------------------------------------------------------------------------*/
FoamFile
{
    version     2.0;
    format      ascii;
    arch        "LSB;label=32;scalar=64";
    class       volScalarField;
    location    "3.2";
    object      p;
}
// * * * * * * * * * * * * * * * * * * * * * * * * * * * * * * * * * * * * * //

dimensions      [0 2 -2 0 0 0 0];

internalField   nonuniform List<scalar> 
64906
(
-5.76193e-06
-5.74258e-06
-5.72874e-06
-5.73051e-06
-5.75274e-06
-5.79794e-06
-5.86804e-06
-5.96438e-06
-6.08656e-06
-6.23341e-06
-6.40608e-06
-6.57491e-06
-6.73061e-06
-6.87268e-06
-6.99479e-06
-7.09373e-06
-7.1674e-06
-7.21688e-06
-7.23729e-06
-7.22912e-06
-7.19715e-06
-7.14068e-06
-7.06217e-06
-6.96495e-06
-6.85511e-06
-6.73202e-06
-6.61213e-06
-6.51955e-06
-6.45303e-06
-6.41206e-06
-6.39601e-06
-6.40533e-06
-6.41783e-06
-6.43694e-06
-5.70466e-06
-5.63049e-06
-5.57332e-06
-5.5337e-06
-5.52087e-06
-5.53373e-06
-5.57013e-06
-5.6278e-06
-5.703e-06
-5.79105e-06
-5.8779e-06
-5.97641e-06
-6.07366e-06
-6.16329e-06
-6.23975e-06
-6.30289e-06
-6.35141e-06
-6.38563e-06
-6.40471e-06
-6.40886e-06
-6.39915e-06
-6.37552e-06
-6.33958e-06
-6.29172e-06
-6.2382e-06
-6.18672e-06
-6.14745e-06
-6.11038e-06
-6.0901e-06
-6.09224e-06
-6.12139e-06
-6.17691e-06
-6.26259e-06
-6.35669e-06
-5.67941e-06
-5.56565e-06
-5.45993e-06
-5.37365e-06
-5.32264e-06
-5.30496e-06
-5.31697e-06
-5.35562e-06
-5.41662e-06
-5.49707e-06
-5.58583e-06
-5.68304e-06
-5.76995e-06
-5.84691e-06
-5.90783e-06
-5.95692e-06
-5.9942e-06
-6.02166e-06
-6.03957e-06
-6.04809e-06
-6.04722e-06
-6.03522e-06
-6.01243e-06
-5.97497e-06
-5.92968e-06
-5.87683e-06
-5.83617e-06
-5.80925e-06
-5.81022e-06
-5.84515e-06
-5.92132e-06
-6.04143e-06
-6.18619e-06
-6.33386e-06
-5.68802e-06
-5.53832e-06
-5.38798e-06
-5.25849e-06
-5.17441e-06
-5.13526e-06
-5.1384e-06
-5.18284e-06
-5.266e-06
-5.38878e-06
-5.53444e-06
-5.69842e-06
-5.83459e-06
-5.94716e-06
-6.02706e-06
-6.08686e-06
-6.12858e-06
-6.15729e-06
-6.17412e-06
-6.17919e-06
-6.17166e-06
-6.14665e-06
-6.10267e-06
-6.02751e-06
-5.93151e-06
-5.81116e-06
-5.71588e-06
-5.65213e-06
-5.64168e-06
-5.68844e-06
-5.79864e-06
-5.97247e-06
-6.1736e-06
-6.36912e-06
-5.74436e-06
-5.56446e-06
-5.37884e-06
-5.21731e-06
-5.11361e-06
-5.07072e-06
-5.08977e-06
-5.17558e-06
-5.33127e-06
-5.56726e-06
-5.85804e-06
-6.19746e-06
-6.46736e-06
-6.68072e-06
-6.82409e-06
-6.92694e-06
-6.99365e-06
-7.03412e-06
-7.05027e-06
-7.04217e-06
-7.00814e-06
-6.93842e-06
-6.82932e-06
-6.65181e-06
-6.4214e-06
-6.12581e-06
-5.88956e-06
-5.71976e-06
-5.64911e-06
-5.67335e-06
-5.79334e-06
-6.00163e-06
-6.24649e-06
-6.4825e-06
-5.85031e-06
-5.64171e-06
-5.42711e-06
-5.2437e-06
-5.134e-06
-5.10569e-06
-5.16567e-06
-5.3284e-06
-5.60804e-06
-6.035e-06
-6.57918e-06
-7.25498e-06
-7.76032e-06
-8.14622e-06
-8.3978e-06
-8.57686e-06
-8.68954e-06
-8.75269e-06
-8.76864e-06
-8.73735e-06
-8.65666e-06
-8.50965e-06
-8.29111e-06
-7.93958e-06
-7.47338e-06
-6.84123e-06
-6.35795e-06
-6.00508e-06
-5.82333e-06
-5.78999e-06
-5.89594e-06
-6.1219e-06
-6.40183e-06
-6.67707e-06
-6.00394e-06
-5.76393e-06
-5.52333e-06
-5.3255e-06
-5.22149e-06
-5.22384e-06
-5.34586e-06
-5.61388e-06
-6.05868e-06
-6.75138e-06
-7.64994e-06
-8.9322e-06
-9.77715e-06
-1.03994e-05
-1.07924e-05
-1.10734e-05
-1.12479e-05
-1.13423e-05
-1.13586e-05
-1.12965e-05
-1.11542e-05
-1.09047e-05
-1.05436e-05
-9.95382e-06
-9.1479e-06
-7.90614e-06
-7.07999e-06
-6.46889e-06
-6.13423e-06
-6.01498e-06
-6.08774e-06
-6.31996e-06
-6.63118e-06
-6.9502e-06
-6.19959e-06
-5.92225e-06
-5.65912e-06
-5.45192e-06
-5.36491e-06
-5.4138e-06
-5.61638e-06
-6.00596e-06
-6.63261e-06
-7.6061e-06
-8.88812e-06
-1.12957e-05
-1.25256e-05
-1.34391e-05
-1.40047e-05
-1.44171e-05
-1.46725e-05
-1.48085e-05
-1.48257e-05
-1.47236e-05
-1.45015e-05
-1.41207e-05
-1.3586e-05
-1.27016e-05
-1.15106e-05
-9.1312e-06
-7.94779e-06
-7.05936e-06
-6.55269e-06
-6.33047e-06
-6.35386e-06
-6.58356e-06
-6.92343e-06
-7.29723e-06
-6.43228e-06
-6.10927e-06
-5.82121e-06
-5.60904e-06
-5.54903e-06
-5.65815e-06
-5.95369e-06
-6.46676e-06
-7.21552e-06
-8.39621e-06
-1.00425e-05
-1.45314e-05
-1.58557e-05
-1.70467e-05
-1.77821e-05
-1.83183e-05
-1.86508e-05
-1.88273e-05
-1.88458e-05
-1.87056e-05
-1.84084e-05
-1.79048e-05
-1.71996e-05
-1.60307e-05
-1.47469e-05
-1.02678e-05
-8.78923e-06
-7.66638e-06
-7.03985e-06
-6.70978e-06
-6.67316e-06
-6.89478e-06
-7.26192e-06
-7.70613e-06
-6.7088e-06
-6.31764e-06
-6.00297e-06
-5.79412e-06
-5.78065e-06
-5.98136e-06
-6.41448e-06
-7.08262e-06
-8.03826e-06
-1.04038e-05
-8.42498e-06
-1.79036e-05
-1.92561e-05
-2.0963e-05
-2.19486e-05
-2.26797e-05
-2.31341e-05
-2.33705e-05
-2.33904e-05
-2.31934e-05
-2.27773e-05
-2.20812e-05
-2.11274e-05
-1.94376e-05
-1.81538e-05
-8.54643e-06
-1.07771e-05
-8.46627e-06
-7.66769e-06
-7.19943e-06
-7.06038e-06
-7.24965e-06
-7.63915e-06
-8.16869e-06
-6.98974e-06
-6.52909e-06
-6.18788e-06
-5.98608e-06
-6.03071e-06
-6.34437e-06
-6.91064e-06
-7.58013e-06
-8.2351e-06
-6.06095e-06
-2.64166e-05
-2.37835e-05
-2.48258e-05
-2.57531e-05
-2.65557e-05
-2.7087e-05
-2.73573e-05
-2.73785e-05
-2.71501e-05
-2.66598e-05
-2.58949e-05
-2.49983e-05
-2.39667e-05
-2.6519e-05
-6.76187e-06
-8.80688e-06
-8.21052e-06
-7.72074e-06
-7.47529e-06
-7.61498e-06
-8.0293e-06
-8.67287e-06
-7.28786e-06
-6.72884e-06
-6.37386e-06
-6.19208e-06
-6.33046e-06
-6.86278e-06
-7.90349e-06
-9.6132e-06
-1.24268e-05
-1.60221e-05
-2.3999e-05
-2.29076e-05
-2.57645e-05
-2.78741e-05
-2.94797e-05
-3.06771e-05
-3.14166e-05
-3.17708e-05
-3.17929e-05
-3.14834e-05
-3.07895e-05
-2.96389e-05
-2.8083e-05
-2.60297e-05
-2.3227e-05
-2.44568e-05
-1.64177e-05
-1.28768e-05
-1.01733e-05
-8.68431e-06
-8.0157e-06
-8.01327e-06
-8.41764e-06
-9.22384e-06
-7.55973e-06
-6.92985e-06
-6.54483e-06
-6.36611e-06
-6.56057e-06
-7.21692e-06
-8.4592e-06
-1.03988e-05
-1.31664e-05
-1.64291e-05
-2.17933e-05
-2.47555e-05
-2.74942e-05
-2.9874e-05
-3.1774e-05
-3.31191e-05
-3.39492e-05
-3.43459e-05
-3.43684e-05
-3.40169e-05
-3.32333e-05
-3.19361e-05
-3.00866e-05
-2.7753e-05
-2.50474e-05
-2.21609e-05
-1.68311e-05
-1.35924e-05
-1.09306e-05
-9.23037e-06
-8.40274e-06
-8.34769e-06
-8.78401e-06
-9.71123e-06
-7.80387e-06
-7.11876e-06
-6.70109e-06
-6.51669e-06
-6.74505e-06
-7.48062e-06
-8.84853e-06
-1.09539e-05
-1.3909e-05
-1.75454e-05
-2.20204e-05
-2.55119e-05
-2.87209e-05
-3.13519e-05
-3.34132e-05
-3.4815e-05
-3.56686e-05
-3.60707e-05
-3.60929e-05
-3.57355e-05
-3.4928e-05
-3.35744e-05
-3.15643e-05
-2.89806e-05
-2.58191e-05
-2.23627e-05
-1.79003e-05
-1.42983e-05
-1.14625e-05
-9.61942e-06
-8.70756e-06
-8.6381e-06
-9.11732e-06
-1.01476e-05
-8.01594e-06
-7.28245e-06
-6.83269e-06
-6.63221e-06
-6.86785e-06
-7.63327e-06
-9.04689e-06
-1.12066e-05
-1.41962e-05
-1.78717e-05
-2.20815e-05
-2.59114e-05
-2.94238e-05
-3.21676e-05
-3.428e-05
-3.56789e-05
-3.65204e-05
-3.69117e-05
-3.69333e-05
-3.65857e-05
-3.57894e-05
-3.44375e-05
-3.23754e-05
-2.96773e-05
-2.62108e-05
-2.24027e-05
-1.82052e-05
-1.45671e-05
-1.1707e-05
-9.8307e-06
-8.90964e-06
-8.86467e-06
-9.39715e-06
-1.05165e-05
-8.19124e-06
-7.41839e-06
-6.94111e-06
-6.72256e-06
-6.95459e-06
-7.72913e-06
-9.15883e-06
-1.13384e-05
-1.43382e-05
-1.8035e-05
-2.22101e-05
-2.62073e-05
-2.98711e-05
-3.26779e-05
-3.48081e-05
-3.61888e-05
-3.70084e-05
-3.73849e-05
-3.74063e-05
-3.70729e-05
-3.62977e-05
-3.49632e-05
-3.28826e-05
-3.01198e-05
-2.64919e-05
-2.25198e-05
-1.8357e-05
-1.47005e-05
-1.18397e-05
-9.962e-06
-9.05498e-06
-9.04365e-06
-9.62455e-06
-1.08139e-05
-8.32602e-06
-7.52367e-06
-7.02486e-06
-6.78978e-06
-7.0137e-06
-7.78726e-06
-9.21983e-06
-1.14065e-05
-1.44138e-05
-1.81369e-05
-2.23387e-05
-2.64321e-05
-3.01806e-05
-3.30224e-05
-3.51591e-05
-3.65261e-05
-3.73305e-05
-3.76972e-05
-3.77187e-05
-3.73955e-05
-3.66357e-05
-3.53149e-05
-3.32279e-05
-3.0432e-05
-2.67336e-05
-2.26478e-05
-1.84552e-05
-1.47746e-05
-1.1914e-05
-1.00435e-05
-9.1561e-06
-9.1766e-06
-9.79627e-06
-1.10367e-05
-8.41891e-06
-7.59775e-06
-7.08514e-06
-6.83907e-06
-7.05731e-06
-7.83031e-06
-9.26655e-06
-1.14628e-05
-1.44851e-05
-1.82381e-05
-2.24779e-05
-2.66332e-05
-3.04366e-05
-3.3307e-05
-3.54549e-05
-3.6821e-05
-3.76214e-05
-3.79853e-05
-3.80076e-05
-3.76889e-05
-3.69342e-05
-3.56151e-05
-3.35171e-05
-3.06915e-05
-2.69352e-05
-2.27876e-05
-1.85573e-05
-1.48483e-05
-1.19776e-05
-1.01068e-05
-9.23016e-06
-9.2705e-06
-9.91445e-06
-1.11868e-05
-8.46955e-06
-7.64035e-06
-7.1222e-06
-6.87203e-06
-7.08927e-06
-7.86506e-06
-9.30896e-06
-1.15202e-05
-1.45648e-05
-1.8349e-05
-2.26258e-05
-2.68203e-05
-3.0657e-05
-3.35521e-05
-3.57169e-05
-3.70947e-05
-3.79025e-05
-3.82705e-05
-3.82944e-05
-3.79742e-05
-3.72147e-05
-3.58858e-05
-3.37718e-05
-3.09214e-05
-2.713e-05
-2.2942e-05
-1.86737e-05
-1.49333e-05
-1.2042e-05
-1.01604e-05
-9.28178e-06
-9.32727e-06
-9.98008e-06
-1.12657e-05
-8.47847e-06
-7.65192e-06
-7.13643e-06
-6.88898e-06
-7.11e-06
-7.89261e-06
-9.34896e-06
-1.15777e-05
-1.46505e-05
-1.84671e-05
-2.27815e-05
-2.69961e-05
-3.08439e-05
-3.3758e-05
-3.59436e-05
-3.73441e-05
-3.81695e-05
-3.85485e-05
-3.85744e-05
-3.82476e-05
-3.74742e-05
-3.61258e-05
-3.39933e-05
-3.11258e-05
-2.73238e-05
-2.31116e-05
-1.88022e-05
-1.5027e-05
-1.21056e-05
-1.02037e-05
-9.31128e-06
-9.34775e-06
-9.99434e-06
-1.12751e-05
-8.44747e-06
-7.63387e-06
-7.1286e-06
-6.88908e-06
-7.11547e-06
-7.90328e-06
-9.36968e-06
-1.16172e-05
-1.47236e-05
-1.85765e-05
-2.29454e-05
-2.71608e-05
-3.0989e-05
-3.39115e-05
-3.61182e-05
-3.75507e-05
-3.84029e-05
-3.87989e-05
-3.8828e-05
-3.84903e-05
-3.76957e-05
-3.63202e-05
-3.41707e-05
-3.12988e-05
-2.75215e-05
-2.32982e-05
-1.89296e-05
-1.51147e-05
-1.21558e-05
-1.02288e-05
-9.31557e-06
-9.33237e-06
-9.95923e-06
-1.12169e-05
-8.37922e-06
-7.58779e-06
-7.09862e-06
-6.86837e-06
-7.09507e-06
-7.87645e-06
-9.33632e-06
-1.15834e-05
-1.47137e-05
-1.86071e-05
-2.31005e-05
-2.72788e-05
-3.10337e-05
-3.39308e-05
-3.61388e-05
-3.7602e-05
-3.84843e-05
-3.89013e-05
-3.89347e-05
-3.85845e-05
-3.77679e-05
-3.63695e-05
-3.42242e-05
-3.13815e-05
-2.76806e-05
-2.34808e-05
-1.89873e-05
-1.51305e-05
-1.21427e-05
-1.02052e-05
-9.27999e-06
-9.27684e-06
-9.87545e-06
-1.10928e-05
-8.27881e-06
-7.5182e-06
-7.05012e-06
-6.82796e-06
-7.04519e-06
-7.79996e-06
-9.22199e-06
-1.14281e-05
-1.45547e-05
-1.84769e-05
-2.33092e-05
-2.73944e-05
-3.09218e-05
-3.37396e-05
-3.59146e-05
-3.73938e-05
-3.82983e-05
-3.87342e-05
-3.87742e-05
-3.84187e-05
-3.75931e-05
-3.61924e-05
-3.40904e-05
-3.13327e-05
-2.78366e-05
-2.37289e-05
-1.89104e-05
-1.50209e-05
-1.20288e-05
-1.01161e-05
-9.20145e-06
-9.18583e-06
-9.75072e-06
-1.09104e-05
-8.1508e-06
-7.42961e-06
-6.98347e-06
-6.76046e-06
-6.94424e-06
-7.62587e-06
-8.92983e-06
-1.09676e-05
-1.3863e-05
-1.73602e-05
-2.33375e-05
-2.7667e-05
-3.05273e-05
-3.30837e-05
-3.5114e-05
-3.65541e-05
-3.74519e-05
-3.78967e-05
-3.79468e-05
-3.76032e-05
-3.68054e-05
-3.54671e-05
-3.35285e-05
-3.10538e-05
-2.82372e-05
-2.3806e-05
-1.78523e-05
-1.44007e-05
-1.16409e-05
-9.87613e-06
-9.0424e-06
-9.04757e-06
-9.58623e-06
-1.06746e-05
-7.99462e-06
-7.34313e-06
-6.91307e-06
-6.68457e-06
-6.82179e-06
-7.40143e-06
-8.54609e-06
-1.04312e-05
-1.35421e-05
-1.77472e-05
-2.4912e-05
-2.6004e-05
-2.95298e-05
-3.21591e-05
-3.4015e-05
-3.53872e-05
-3.62499e-05
-3.66864e-05
-3.67531e-05
-3.6453e-05
-3.57273e-05
-3.44972e-05
-3.27598e-05
-3.02297e-05
-2.67141e-05
-2.53485e-05
-1.84897e-05
-1.42744e-05
-1.12472e-05
-9.58335e-06
-8.85432e-06
-8.89642e-06
-9.40981e-06
-1.03893e-05
-7.8277e-06
-7.25765e-06
-6.83608e-06
-6.59061e-06
-6.64906e-06
-7.02931e-06
-7.68257e-06
-8.35483e-06
-8.89768e-06
-5.51508e-06
-3.34819e-05
-2.95842e-05
-3.07445e-05
-3.18891e-05
-3.29149e-05
-3.36256e-05
-3.40197e-05
-3.41066e-05
-3.3893e-05
-3.33685e-05
-3.25472e-05
-3.15705e-05
-3.05881e-05
-3.4439e-05
-6.22041e-06
-9.75172e-06
-9.29894e-06
-8.83012e-06
-8.53686e-06
-8.70607e-06
-9.23759e-06
-1.00769e-05
-7.67682e-06
-7.1706e-06
-6.7758e-06
-6.53756e-06
-6.58061e-06
-6.9495e-06
-7.71912e-06
-9.00075e-06
-1.11412e-05
-1.46508e-05
-1.57619e-05
-2.35529e-05
-2.60892e-05
-2.84983e-05
-3.0116e-05
-3.13702e-05
-3.21917e-05
-3.26534e-05
-3.27689e-05
-3.2551e-05
-3.19878e-05
-3.10263e-05
-2.96419e-05
-2.75096e-05
-2.49777e-05
-1.78495e-05
-1.63609e-05
-1.25957e-05
-1.02707e-05
-9.01816e-06
-8.5046e-06
-8.6061e-06
-9.08302e-06
-9.84939e-06
-7.55652e-06
-7.09912e-06
-6.73271e-06
-6.5058e-06
-6.5336e-06
-6.85965e-06
-7.54252e-06
-8.64679e-06
-1.02193e-05
-1.23059e-05
-1.6373e-05
-2.15678e-05
-2.40055e-05
-2.62742e-05
-2.79492e-05
-2.92552e-05
-3.01091e-05
-3.05957e-05
-3.07317e-05
-3.05371e-05
-2.99985e-05
-2.90624e-05
-2.76719e-05
-2.57486e-05
-2.33683e-05
-1.83655e-05
-1.39043e-05
-1.1693e-05
-1.00048e-05
-8.91247e-06
-8.43154e-06
-8.51207e-06
-8.94856e-06
-9.66084e-06
-7.4815e-06
-7.06163e-06
-6.73023e-06
-6.52868e-06
-6.56023e-06
-6.86695e-06
-7.51012e-06
-8.57391e-06
-1.01865e-05
-1.24472e-05
-1.54407e-05
-1.90776e-05
-2.1759e-05
-2.41068e-05
-2.58591e-05
-2.72233e-05
-2.81061e-05
-2.86057e-05
-2.87498e-05
-2.85642e-05
-2.80276e-05
-2.70866e-05
-2.56702e-05
-2.37299e-05
-2.11785e-05
-1.76075e-05
-1.43906e-05
-1.1862e-05
-1.00423e-05
-8.92915e-06
-8.43456e-06
-8.47906e-06
-8.86682e-06
-9.52769e-06
-7.44645e-06
-7.0663e-06
-6.77959e-06
-6.61579e-06
-6.66159e-06
-6.95147e-06
-7.53671e-06
-8.48942e-06
-9.89875e-06
-1.18428e-05
-1.43032e-05
-1.71206e-05
-1.96017e-05
-2.1835e-05
-2.35365e-05
-2.48449e-05
-2.56886e-05
-2.61664e-05
-2.6308e-05
-2.61426e-05
-2.5646e-05
-2.47699e-05
-2.34316e-05
-2.16181e-05
-1.92537e-05
-1.64588e-05
-1.3786e-05
-1.15881e-05
-9.97715e-06
-8.96081e-06
-8.49346e-06
-8.51033e-06
-8.84579e-06
-9.45385e-06
-7.45317e-06
-7.12273e-06
-6.899e-06
-6.79374e-06
-6.87491e-06
-7.16725e-06
-7.70731e-06
-8.54595e-06
-9.74131e-06
-1.13356e-05
-1.32988e-05
-1.55152e-05
-1.76305e-05
-1.95983e-05
-2.11417e-05
-2.23112e-05
-2.30773e-05
-2.35222e-05
-2.36516e-05
-2.35093e-05
-2.30628e-05
-2.22834e-05
-2.10979e-05
-1.95125e-05
-1.75039e-05
-1.52907e-05
-1.31574e-05
-1.13574e-05
-9.99848e-06
-9.10954e-06
-8.67386e-06
-8.64815e-06
-8.90421e-06
-9.45133e-06
-7.50105e-06
-7.23178e-06
-7.09609e-06
-7.07328e-06
-7.215e-06
-7.53851e-06
-8.06858e-06
-8.83771e-06
-9.87702e-06
-1.12048e-05
-1.27867e-05
-1.45489e-05
-1.62919e-05
-1.79299e-05
-1.92427e-05
-2.02507e-05
-2.09218e-05
-2.13092e-05
-2.14321e-05
-2.13094e-05
-2.09252e-05
-2.02543e-05
-1.92508e-05
-1.7931e-05
-1.62996e-05
-1.45514e-05
-1.28612e-05
-1.13976e-05
-1.02501e-05
-9.45047e-06
-9.02024e-06
-8.92045e-06
-9.0708e-06
-9.49783e-06
-7.55725e-06
-7.38589e-06
-7.33917e-06
-7.40687e-06
-7.62459e-06
-8.00727e-06
-8.57245e-06
-9.33843e-06
-1.03192e-05
-1.1513e-05
-1.28958e-05
-1.44093e-05
-1.59135e-05
-1.73241e-05
-1.84855e-05
-1.93897e-05
-2.00094e-05
-2.03719e-05
-2.04895e-05
-2.03725e-05
-2.00122e-05
-1.93949e-05
-1.84986e-05
-1.73455e-05
-1.59596e-05
-1.44859e-05
-1.30449e-05
-1.17799e-05
-1.07466e-05
-9.98795e-06
-9.49634e-06
-9.28817e-06
-9.30898e-06
-9.57594e-06
-7.62265e-06
-7.55693e-06
-7.59515e-06
-7.74389e-06
-8.038e-06
-8.49944e-06
-9.15015e-06
-1.00096e-05
-1.10873e-05
-1.23741e-05
-1.38259e-05
-1.53638e-05
-1.68849e-05
-1.83074e-05
-1.95069e-05
-2.04559e-05
-2.11231e-05
-2.15165e-05
-2.16413e-05
-2.15027e-05
-2.10967e-05
-2.04181e-05
-1.94635e-05
-1.82637e-05
-1.68608e-05
-1.53792e-05
-1.39278e-05
-1.25976e-05
-1.14851e-05
-1.06316e-05
-1.0043e-05
-9.71192e-06
-9.59334e-06
-9.67862e-06
-5.81972e-06
-5.82356e-06
-5.83659e-06
-5.86243e-06
-5.90824e-06
-5.97847e-06
-6.07624e-06
-6.20273e-06
-6.35646e-06
-6.53499e-06
-6.73008e-06
-6.93391e-06
-7.13009e-06
-7.31193e-06
-7.46928e-06
-7.59735e-06
-7.69132e-06
-7.74776e-06
-7.76906e-06
-7.7551e-06
-7.70427e-06
-7.62023e-06
-7.50814e-06
-7.37301e-06
-7.22532e-06
-7.07194e-06
-6.92809e-06
-6.80188e-06
-6.70073e-06
-6.62599e-06
-6.57639e-06
-6.54675e-06
-6.5263e-06
-6.51229e-06
-5.77674e-06
-5.74839e-06
-5.73625e-06
-5.73286e-06
-5.75044e-06
-5.79245e-06
-5.86051e-06
-5.95432e-06
-6.06974e-06
-6.20319e-06
-6.3425e-06
-6.48824e-06
-6.62723e-06
-6.75777e-06
-6.86962e-06
-6.96184e-06
-7.03047e-06
-7.07515e-06
-7.09552e-06
-7.09169e-06
-7.0644e-06
-7.01428e-06
-6.94561e-06
-6.85959e-06
-6.76695e-06
-6.66961e-06
-6.58044e-06
-6.49937e-06
-6.43878e-06
-6.40171e-06
-6.39013e-06
-6.40034e-06
-6.41977e-06
-6.44912e-06
-5.76878e-06
-5.73091e-06
-5.70525e-06
-5.67897e-06
-5.6777e-06
-5.70761e-06
-5.77157e-06
-5.87072e-06
-6.00028e-06
-6.16042e-06
-6.3316e-06
-6.51843e-06
-6.68565e-06
-6.84077e-06
-6.96594e-06
-7.06704e-06
-7.13946e-06
-7.18581e-06
-7.2056e-06
-7.19894e-06
-7.16666e-06
-7.10637e-06
-7.02315e-06
-6.91133e-06
-6.78969e-06
-6.65087e-06
-6.53158e-06
-6.42762e-06
-6.36025e-06
-6.32948e-06
-6.33739e-06
-6.37583e-06
-6.41062e-06
-6.44894e-06
-5.79414e-06
-5.73986e-06
-5.69572e-06
-5.64683e-06
-5.63098e-06
-5.65845e-06
-5.73541e-06
-5.86735e-06
-6.05044e-06
-6.29338e-06
-6.56165e-06
-6.87065e-06
-7.13129e-06
-7.36804e-06
-7.54693e-06
-7.6868e-06
-7.78141e-06
-7.83849e-06
-7.8577e-06
-7.83912e-06
-7.78338e-06
-7.68294e-06
-7.54469e-06
-7.34996e-06
-7.13445e-06
-6.87378e-06
-6.66075e-06
-6.48002e-06
-6.36978e-06
-6.32197e-06
-6.33658e-06
-6.39757e-06
-6.4513e-06
-6.50685e-06
-5.86758e-06
-5.79317e-06
-5.73338e-06
-5.6701e-06
-5.65181e-06
-5.69398e-06
-5.80795e-06
-6.00725e-06
-6.29119e-06
-6.68705e-06
-7.13466e-06
-7.68051e-06
-8.11352e-06
-8.49971e-06
-8.77632e-06
-8.98773e-06
-9.12419e-06
-9.20212e-06
-9.22104e-06
-9.18094e-06
-9.08258e-06
-8.90955e-06
-8.67254e-06
-8.32719e-06
-7.93929e-06
-7.44239e-06
-7.055e-06
-6.72852e-06
-6.52961e-06
-6.43165e-06
-6.43056e-06
-6.49901e-06
-6.56647e-06
-6.6438e-06
-5.99206e-06
-5.89231e-06
-5.81971e-06
-5.75062e-06
-5.74295e-06
-5.81759e-06
-5.99192e-06
-6.29027e-06
-6.71717e-06
-7.3354e-06
-8.05316e-06
-9.00154e-06
-9.69265e-06
-1.03022e-05
-1.07196e-05
-1.10358e-05
-1.12335e-05
-1.13428e-05
-1.13618e-05
-1.12904e-05
-1.11305e-05
-1.0852e-05
-1.04733e-05
-9.90298e-06
-9.25688e-06
-8.3573e-06
-7.70696e-06
-7.16555e-06
-6.83671e-06
-6.65797e-06
-6.61991e-06
-6.68185e-06
-6.75835e-06
-6.8643e-06
-6.16725e-06
-6.03564e-06
-5.95234e-06
-5.88488e-06
-5.89939e-06
-6.02096e-06
-6.27208e-06
-6.68824e-06
-7.27937e-06
-8.18169e-06
-9.25313e-06
-1.08722e-05
-1.18848e-05
-1.27643e-05
-1.33368e-05
-1.37708e-05
-1.40353e-05
-1.41801e-05
-1.41997e-05
-1.40935e-05
-1.38673e-05
-1.34705e-05
-1.29356e-05
-1.20928e-05
-1.11251e-05
-9.55239e-06
-8.56084e-06
-7.74219e-06
-7.26218e-06
-6.98434e-06
-6.89516e-06
-6.94123e-06
-7.02409e-06
-7.16823e-06
-6.38927e-06
-6.21743e-06
-6.12627e-06
-6.06892e-06
-6.11993e-06
-6.30595e-06
-6.65061e-06
-7.18928e-06
-7.9334e-06
-9.06553e-06
-1.05485e-05
-1.33108e-05
-1.46208e-05
-1.58011e-05
-1.65468e-05
-1.71257e-05
-1.74752e-05
-1.76657e-05
-1.76861e-05
-1.75359e-05
-1.72259e-05
-1.66842e-05
-1.59747e-05
-1.48268e-05
-1.35592e-05
-1.08335e-05
-9.45572e-06
-8.4096e-06
-7.78924e-06
-7.40772e-06
-7.25329e-06
-7.27239e-06
-7.35808e-06
-7.55341e-06
-6.65002e-06
-6.42764e-06
-6.32828e-06
-6.28603e-06
-6.38225e-06
-6.63974e-06
-7.07347e-06
-7.70098e-06
-8.45069e-06
-9.67007e-06
-1.14002e-05
-1.66686e-05
-1.77479e-05
-1.90032e-05
-1.98195e-05
-2.04665e-05
-2.08546e-05
-2.10712e-05
-2.10925e-05
-2.09179e-05
-2.05704e-05
-1.99606e-05
-1.91789e-05
-1.79469e-05
-1.69079e-05
-1.16535e-05
-1.01053e-05
-8.94891e-06
-8.32894e-06
-7.87403e-06
-7.65918e-06
-7.64994e-06
-7.74115e-06
-8.00999e-06
-6.92941e-06
-6.65819e-06
-6.55712e-06
-6.54736e-06
-6.72249e-06
-7.10389e-06
-7.70699e-06
-8.45041e-06
-9.28155e-06
-1.13789e-05
-7.90798e-06
-1.92102e-05
-2.02112e-05
-2.18738e-05
-2.28775e-05
-2.37186e-05
-2.42093e-05
-2.44748e-05
-2.44967e-05
-2.42745e-05
-2.38261e-05
-2.30234e-05
-2.20544e-05
-2.04096e-05
-1.94778e-05
-8.00619e-06
-1.17705e-05
-9.74667e-06
-9.07971e-06
-8.5277e-06
-8.17595e-06
-8.09276e-06
-8.16967e-06
-8.53143e-06
-7.23507e-06
-6.89421e-06
-6.7875e-06
-6.81027e-06
-7.06605e-06
-7.57282e-06
-8.31812e-06
-9.10177e-06
-9.40989e-06
-5.16621e-06
-2.76964e-05
-2.33792e-05
-2.40592e-05
-2.49118e-05
-2.56237e-05
-2.6094e-05
-2.63467e-05
-2.63684e-05
-2.61585e-05
-2.57299e-05
-2.50562e-05
-2.42358e-05
-2.35621e-05
-2.77579e-05
-5.95823e-06
-1.0005e-05
-9.764e-06
-9.15848e-06
-8.68668e-06
-8.5282e-06
-8.59818e-06
-9.0799e-06
-7.54884e-06
-7.1308e-06
-7.03074e-06
-7.11564e-06
-7.52345e-06
-8.32877e-06
-9.65617e-06
-1.15745e-05
-1.46486e-05
-1.77273e-05
-2.53725e-05
-2.19521e-05
-2.38996e-05
-2.5663e-05
-2.70047e-05
-2.79294e-05
-2.85349e-05
-2.88396e-05
-2.88613e-05
-2.85999e-05
-2.80384e-05
-2.71579e-05
-2.58625e-05
-2.41519e-05
-2.22546e-05
-2.58258e-05
-1.80899e-05
-1.50851e-05
-1.21445e-05
-1.04421e-05
-9.43432e-06
-9.03906e-06
-9.03723e-06
-9.63865e-06
-7.84632e-06
-7.35633e-06
-7.24981e-06
-7.36893e-06
-7.86638e-06
-8.82797e-06
-1.03825e-05
-1.25374e-05
-1.54825e-05
-1.82497e-05
-2.28059e-05
-2.38446e-05
-2.51071e-05
-2.6416e-05
-2.76307e-05
-2.85441e-05
-2.91755e-05
-2.9496e-05
-2.95172e-05
-2.9239e-05
-2.86499e-05
-2.7777e-05
-2.66018e-05
-2.53225e-05
-2.40771e-05
-2.31234e-05
-1.86115e-05
-1.58904e-05
-1.30742e-05
-1.11526e-05
-9.9519e-06
-9.45629e-06
-9.44228e-06
-1.0173e-05
-8.11773e-06
-7.5685e-06
-7.45628e-06
-7.60545e-06
-8.18223e-06
-9.2829e-06
-1.10367e-05
-1.34407e-05
-1.65657e-05
-1.97655e-05
-2.33156e-05
-2.50245e-05
-2.64034e-05
-2.76786e-05
-2.89183e-05
-2.98397e-05
-3.04817e-05
-3.08035e-05
-3.08243e-05
-3.05441e-05
-2.99437e-05
-2.90616e-05
-2.78601e-05
-2.66116e-05
-2.52609e-05
-2.35919e-05
-2.00768e-05
-1.69346e-05
-1.39492e-05
-1.17992e-05
-1.04336e-05
-9.85176e-06
-9.82606e-06
-1.06586e-05
-8.35225e-06
-7.75362e-06
-7.62949e-06
-7.78839e-06
-8.40281e-06
-9.56975e-06
-1.14072e-05
-1.39074e-05
-1.70619e-05
-2.0375e-05
-2.36911e-05
-2.57354e-05
-2.72938e-05
-2.85704e-05
-2.98179e-05
-3.07313e-05
-3.13712e-05
-3.16888e-05
-3.17093e-05
-3.14324e-05
-3.0833e-05
-2.9957e-05
-2.87458e-05
-2.74924e-05
-2.59633e-05
-2.39432e-05
-2.06633e-05
-1.74142e-05
-1.44093e-05
-1.21827e-05
-1.07641e-05
-1.01611e-05
-1.01513e-05
-1.10673e-05
-8.5451e-06
-7.90908e-06
-7.77397e-06
-7.93608e-06
-8.57263e-06
-9.78081e-06
-1.16705e-05
-1.42341e-05
-1.74191e-05
-2.07987e-05
-2.40677e-05
-2.63016e-05
-2.79524e-05
-2.9264e-05
-3.05331e-05
-3.14438e-05
-3.20793e-05
-3.23916e-05
-3.2412e-05
-3.21403e-05
-3.15449e-05
-3.06709e-05
-2.94376e-05
-2.81497e-05
-2.6542e-05
-2.4311e-05
-2.10771e-05
-1.77648e-05
-1.4739e-05
-1.24664e-05
-1.10214e-05
-1.04135e-05
-1.04206e-05
-1.13953e-05
-8.69227e-06
-8.02961e-06
-7.88435e-06
-8.04401e-06
-8.68881e-06
-9.91565e-06
-1.18295e-05
-1.44254e-05
-1.76311e-05
-2.10625e-05
-2.43484e-05
-2.6688e-05
-2.8405e-05
-2.97426e-05
-3.10249e-05
-3.19337e-05
-3.25667e-05
-3.28758e-05
-3.28966e-05
-3.26286e-05
-3.20362e-05
-3.1164e-05
-2.99174e-05
-2.86055e-05
-2.69618e-05
-2.4592e-05
-2.13391e-05
-1.79783e-05
-1.49398e-05
-1.26484e-05
-1.1199e-05
-1.05988e-05
-1.06237e-05
-1.16391e-05
-8.79282e-06
-8.11437e-06
-7.96264e-06
-8.12001e-06
-8.76903e-06
-1.0007e-05
-1.19372e-05
-1.45573e-05
-1.7787e-05
-2.12607e-05
-2.45795e-05
-2.69774e-05
-2.87436e-05
-3.01048e-05
-3.14007e-05
-3.23142e-05
-3.29491e-05
-3.32587e-05
-3.32805e-05
-3.30139e-05
-3.24209e-05
-3.15451e-05
-3.02851e-05
-2.89459e-05
-2.72214e-05
-2.48231e-05
-2.15413e-05
-1.81403e-05
-1.50829e-05
-1.27761e-05
-1.13227e-05
-1.07275e-05
-1.07633e-05
-1.18021e-05
-8.84657e-06
-8.16263e-06
-8.00853e-06
-8.16505e-06
-8.81632e-06
-1.00606e-05
-1.20023e-05
-1.46408e-05
-1.78958e-05
-2.14037e-05
-2.47591e-05
-2.71935e-05
-2.89866e-05
-3.03668e-05
-3.16759e-05
-3.25997e-05
-3.32415e-05
-3.35554e-05
-3.35788e-05
-3.33111e-05
-3.2714e-05
-3.18302e-05
-3.05583e-05
-2.92001e-05
-2.7443e-05
-2.50124e-05
-2.16945e-05
-1.82594e-05
-1.51783e-05
-1.28564e-05
-1.13962e-05
-1.08005e-05
-1.08393e-05
-1.18866e-05
-8.85409e-06
-8.17492e-06
-8.02254e-06
-8.17958e-06
-8.83106e-06
-1.00767e-05
-1.20247e-05
-1.46747e-05
-1.79554e-05
-2.14903e-05
-2.48883e-05
-2.73422e-05
-2.91408e-05
-3.05339e-05
-3.18545e-05
-3.27931e-05
-3.3446e-05
-3.37677e-05
-3.37935e-05
-3.35227e-05
-3.29188e-05
-3.2024e-05
-3.07435e-05
-2.93754e-05
-2.76179e-05
-2.51611e-05
-2.1798e-05
-1.83336e-05
-1.5225e-05
-1.28892e-05
-1.14202e-05
-1.08191e-05
-1.08532e-05
-1.18943e-05
-8.81708e-06
-8.15343e-06
-8.00646e-06
-8.16415e-06
-8.81143e-06
-1.00498e-05
-1.1994e-05
-1.46446e-05
-1.79516e-05
-2.15056e-05
-2.49696e-05
-2.74271e-05
-2.92018e-05
-3.06023e-05
-3.19319e-05
-3.28902e-05
-3.35579e-05
-3.3891e-05
-3.39203e-05
-3.36452e-05
-3.30327e-05
-3.21243e-05
-3.08394e-05
-2.94714e-05
-2.77727e-05
-2.52746e-05
-2.18399e-05
-1.83527e-05
-1.52139e-05
-1.28702e-05
-1.13945e-05
-1.07862e-05
-1.08089e-05
-1.18268e-05
-8.7378e-06
-8.10016e-06
-7.95949e-06
-8.11219e-06
-8.741e-06
-9.94789e-06
-1.18563e-05
-1.44698e-05
-1.77848e-05
-2.13463e-05
-2.49548e-05
-2.73844e-05
-2.91097e-05
-3.05015e-05
-3.18232e-05
-3.27973e-05
-3.3479e-05
-3.38252e-05
-3.38593e-05
-3.35809e-05
-3.29635e-05
-3.20482e-05
-3.07773e-05
-2.94191e-05
-2.7717e-05
-2.52914e-05
-2.17182e-05
-1.82214e-05
-1.50705e-05
-1.27529e-05
-1.12956e-05
-1.06938e-05
-1.07068e-05
-1.16847e-05
-8.62193e-06
-8.02232e-06
-7.88989e-06
-8.03285e-06
-8.63003e-06
-9.78217e-06
-1.16228e-05
-1.41593e-05
-1.74701e-05
-2.09702e-05
-2.49175e-05
-2.72779e-05
-2.88632e-05
-3.02809e-05
-3.16097e-05
-3.26079e-05
-3.33038e-05
-3.36643e-05
-3.37056e-05
-3.34278e-05
-3.28099e-05
-3.18857e-05
-3.06185e-05
-2.92462e-05
-2.76863e-05
-2.53081e-05
-2.14039e-05
-1.79666e-05
-1.4815e-05
-1.25586e-05
-1.11441e-05
-1.05614e-05
-1.05634e-05
-1.14773e-05
-8.475e-06
-7.92353e-06
-7.79383e-06
-7.90831e-06
-8.43408e-06
-9.45888e-06
-1.11102e-05
-1.3395e-05
-1.6472e-05
-1.94701e-05
-2.4643e-05
-2.72039e-05
-2.84194e-05
-2.98202e-05
-3.11075e-05
-3.21012e-05
-3.27957e-05
-3.31659e-05
-3.32167e-05
-3.29488e-05
-3.23504e-05
-3.14524e-05
-3.02437e-05
-2.89148e-05
-2.77431e-05
-2.50791e-05
-1.99706e-05
-1.70526e-05
-1.41417e-05
-1.21189e-05
-1.08607e-05
-1.03595e-05
-1.03766e-05
-1.12123e-05
-8.30897e-06
-7.82098e-06
-7.69774e-06
-7.78723e-06
-8.24526e-06
-9.14824e-06
-1.06231e-05
-1.27211e-05
-1.60271e-05
-1.96909e-05
-2.61321e-05
-2.53003e-05
-2.77953e-05
-2.99287e-05
-3.1432e-05
-3.24978e-05
-3.32119e-05
-3.35951e-05
-3.36612e-05
-3.34128e-05
-3.28253e-05
-3.18894e-05
-3.04846e-05
-2.84586e-05
-2.59937e-05
-2.65275e-05
-2.0414e-05
-1.67849e-05
-1.36174e-05
-1.1742e-05
-1.06118e-05
-1.01756e-05
-1.01942e-05
-1.09347e-05
-8.13749e-06
-7.71307e-06
-7.58525e-06
-7.62468e-06
-7.9543e-06
-8.58759e-06
-9.48831e-06
-1.03413e-05
-1.03919e-05
-4.21222e-06
-3.5179e-05
-2.89067e-05
-2.94871e-05
-3.03985e-05
-3.12236e-05
-3.18119e-05
-3.21617e-05
-3.22429e-05
-3.2061e-05
-3.16292e-05
-3.09757e-05
-3.01801e-05
-2.97557e-05
-3.59707e-05
-4.94588e-06
-1.13355e-05
-1.14212e-05
-1.07587e-05
-1.01438e-05
-9.91168e-06
-9.98921e-06
-1.06308e-05
-7.99083e-06
-7.61678e-06
-7.5034e-06
-7.53861e-06
-7.84775e-06
-8.47596e-06
-9.48915e-06
-1.08693e-05
-1.2896e-05
-1.61511e-05
-1.58049e-05
-2.44512e-05
-2.63009e-05
-2.82884e-05
-2.95986e-05
-3.0742e-05
-3.14838e-05
-3.19243e-05
-3.20297e-05
-3.18093e-05
-3.12677e-05
-3.03408e-05
-2.91234e-05
-2.73133e-05
-2.56239e-05
-1.78675e-05
-1.77762e-05
-1.4405e-05
-1.22432e-05
-1.0909e-05
-1.00911e-05
-9.79038e-06
-9.81889e-06
-1.03598e-05
-7.8616e-06
-7.53241e-06
-7.43089e-06
-7.4571e-06
-7.72689e-06
-8.28834e-06
-9.19955e-06
-1.04886e-05
-1.21543e-05
-1.41529e-05
-1.80316e-05
-2.32644e-05
-2.47233e-05
-2.62349e-05
-2.73732e-05
-2.84404e-05
-2.91573e-05
-2.96029e-05
-2.97238e-05
-2.95328e-05
-2.90367e-05
-2.82054e-05
-2.70961e-05
-2.56971e-05
-2.43887e-05
-1.96933e-05
-1.56427e-05
-1.36671e-05
-1.19509e-05
-1.06955e-05
-9.9313e-06
-9.63936e-06
-9.65245e-06
-1.01265e-05
-7.7606e-06
-7.47886e-06
-7.40101e-06
-7.44048e-06
-7.70597e-06
-8.2513e-06
-9.14365e-06
-1.0435e-05
-1.2197e-05
-1.44393e-05
-1.7307e-05
-2.06045e-05
-2.23636e-05
-2.38403e-05
-2.49894e-05
-2.60868e-05
-2.68228e-05
-2.72758e-05
-2.74019e-05
-2.72171e-05
-2.67141e-05
-2.58809e-05
-2.47431e-05
-2.33413e-05
-2.18051e-05
-1.89223e-05
-1.60896e-05
-1.38182e-05
-1.19808e-05
-1.06857e-05
-9.89604e-06
-9.57037e-06
-9.54501e-06
-9.95701e-06
-7.69824e-06
-7.46045e-06
-7.41054e-06
-7.46894e-06
-7.73009e-06
-8.24302e-06
-9.067e-06
-1.02528e-05
-1.1841e-05
-1.38563e-05
-1.61596e-05
-1.86256e-05
-2.02844e-05
-2.1704e-05
-2.28628e-05
-2.39225e-05
-2.46357e-05
-2.50733e-05
-2.52014e-05
-2.50348e-05
-2.45649e-05
-2.37897e-05
-2.26914e-05
-2.1365e-05
-1.98557e-05
-1.77347e-05
-1.55013e-05
-1.34729e-05
-1.18183e-05
-1.06172e-05
-9.86988e-06
-9.53961e-06
-9.48759e-06
-9.84494e-06
-7.67487e-06
-7.48208e-06
-7.46942e-06
-7.56052e-06
-7.83221e-06
-8.32496e-06
-9.08536e-06
-1.01509e-05
-1.15401e-05
-1.32414e-05
-1.51236e-05
-1.70853e-05
-1.86329e-05
-2.00297e-05
-2.11856e-05
-2.21988e-05
-2.28931e-05
-2.33128e-05
-2.345e-05
-2.32899e-05
-2.28522e-05
-2.21213e-05
-2.10836e-05
-1.98358e-05
-1.84005e-05
-1.66901e-05
-1.4862e-05
-1.31485e-05
-1.1703e-05
-1.06221e-05
-9.92384e-06
-9.58467e-06
-9.49686e-06
-9.79236e-06
-7.68307e-06
-7.5385e-06
-7.56969e-06
-7.70315e-06
-7.99674e-06
-8.48183e-06
-9.19259e-06
-1.01538e-05
-1.13702e-05
-1.28218e-05
-1.44048e-05
-1.60427e-05
-1.74815e-05
-1.88027e-05
-1.99058e-05
-2.08471e-05
-2.15055e-05
-2.19078e-05
-2.20357e-05
-2.1898e-05
-2.14886e-05
-2.08145e-05
-1.98665e-05
-1.87296e-05
-1.74137e-05
-1.59439e-05
-1.43989e-05
-1.29361e-05
-1.16791e-05
-1.07099e-05
-1.00549e-05
-9.69928e-06
-9.56868e-06
-9.7866e-06
-7.70164e-06
-7.60322e-06
-7.65968e-06
-7.82503e-06
-8.13936e-06
-8.62692e-06
-9.31221e-06
-1.02113e-05
-1.13231e-05
-1.26248e-05
-1.4045e-05
-1.55159e-05
-1.6896e-05
-1.81711e-05
-1.92464e-05
-2.0136e-05
-2.07679e-05
-2.11521e-05
-2.12761e-05
-2.11466e-05