/*--------------------------------*- C++ -*----------------------------------*\
| =========                 |                                                 |
| \\      /  F ield         | OpenFOAM: The Open Source CFD Toolbox           |
|  \\    /   O peration     | Version:  2112                                  |
|   \\  /    A nd           | Website:  www.openfoam.com                      |
|    \\/     M anipulation  |                                                 |
\*---------------------------------------------------------------------------*/
FoamFile
{
    version     2.0;
    format      ascii;
    arch        "LSB;label=32;scalar=64";
    class       surfaceScalarField;
    location    "3.2";
    object      phi;
}
// * * * * * * * * * * * * * * * * * * * * * * * * * * * * * * * * * * * * * //

dimensions      [0 3 -1 0 0 0 0];

oriented        oriented;

internalField   nonuniform List<scalar> 
188215
(
7.25356e-10
1.59332e-09
-2.31868e-09
2.81214e-09
6.54501e-10
-2.74128e-09
5.53213e-09
-4.79258e-10
-2.24073e-09
8.56792e-09
-1.58385e-09
-1.45195e-09
1.16676e-08
-2.25517e-09
-8.44553e-10
1.47431e-08
-2.59436e-09
-4.81121e-10
1.77357e-08
-2.6862e-09
-3.06329e-10
2.05298e-08
-2.53912e-09
-2.55071e-10
2.29488e-08
-2.12956e-09
-2.89405e-10
2.46063e-08
-1.26705e-09
-3.90452e-10
2.51182e-08
2.66388e-11
-5.38491e-10
2.4411e-08
1.30342e-09
-5.96274e-10
2.25658e-08
2.43468e-09
-5.89415e-10
1.96611e-08
3.42878e-09
-5.24088e-10
1.59889e-08
4.1086e-09
-4.36458e-10
1.17439e-08
4.59777e-09
-3.52723e-10
7.14956e-09
4.88696e-09
-2.92632e-10
2.38356e-09
5.01982e-09
-2.53821e-10
-2.36354e-09
5.00345e-09
-2.56345e-10
-6.90313e-09
4.83757e-09
-2.97983e-10
-1.1058e-08
4.51583e-09
-3.6099e-10
-1.46063e-08
3.99493e-09
-4.46629e-10
-1.73582e-08
3.28708e-09
-5.35147e-10
-1.90282e-08
2.27164e-09
-6.0165e-10
-1.95554e-08
1.13936e-09
-6.12138e-10
-1.88362e-08
-1.56426e-10
-5.62816e-10
-1.6959e-08
-1.42361e-09
-4.53546e-10
-1.43329e-08
-2.17426e-09
-4.51856e-10
-1.13541e-08
-2.3581e-09
-6.20662e-10
-8.23476e-09
-2.06766e-09
-1.0517e-09
-5.20404e-09
-1.19934e-09
-1.83138e-09
-2.54978e-09
2.46443e-10
-2.9007e-09
-5.36297e-10
1.62499e-09
-3.63848e-09
2.70562e-09
-3.24191e-09
-1.32061e-09
6.50995e-09
-3.59601e-09
1.04681e-09
6.4695e-09
-8.18242e-09
4.59383e-09
5.6695e-09
-9.69578e-09
8.16648e-09
4.98487e-09
-1.01414e-08
1.15758e-08
4.86596e-09
-1.05305e-08
1.48244e-08
5.36298e-09
-1.12059e-08
1.79293e-08
6.48906e-09
-1.22801e-08
2.0828e-08
8.35019e-09
-1.37881e-08
2.33566e-08
1.10815e-08
-1.57396e-08
2.51838e-08
1.50329e-08
-1.81272e-08
2.60925e-08
1.99726e-08
-2.08547e-08
2.53542e-08
2.59459e-08
-2.39042e-08
2.33728e-08
3.12014e-08
-2.67853e-08
2.02993e-08
3.58048e-08
-2.93025e-08
1.64723e-08
3.928e-08
-3.13444e-08
1.2084e-08
4.1884e-08
-3.2898e-08
7.35149e-09
4.35664e-08
-3.39469e-08
2.45567e-09
4.4413e-08
-3.44973e-08
-2.42002e-09
4.44228e-08
-3.45437e-08
-7.09258e-09
4.35961e-08
-3.40859e-08
-1.13826e-08
4.19353e-08
-3.31295e-08
-1.50753e-08
3.93564e-08
-3.16688e-08
-1.79834e-08
3.59176e-08
-2.97225e-08
-1.97705e-08
3.13673e-08
-2.73084e-08
-2.02878e-08
2.62049e-08
-2.45483e-08
-1.91452e-08
2.03616e-08
-2.16606e-08
-1.70801e-08
1.56527e-08
-1.91414e-08
-1.42605e-08
1.20392e-08
-1.7033e-08
-1.09932e-08
9.83363e-09
-1.5459e-08
-7.40476e-09
8.76439e-09
-1.44205e-08
-3.57345e-09
8.75784e-09
-1.37885e-08
1.86311e-10
9.60703e-09
-1.31203e-08
2.45911e-09
1.05351e-08
-1.11829e-08
1.03414e-08
-5.17672e-09
-2.83745e-09
1.30093e-08
-3.66186e-09
-3.83663e-10
1.40669e-08
-1.00512e-08
3.64822e-09
1.40244e-08
-1.23868e-08
7.79738e-09
1.41891e-08
-1.33533e-08
1.1738e-08
1.51176e-08
-1.41922e-08
1.54958e-08
1.69624e-08
-1.53573e-08
1.91667e-08
1.98612e-08
-1.7043e-08
2.27572e-08
2.41046e-08
-1.93449e-08
2.61134e-08
3.00357e-08
-2.23104e-08
2.8716e-08
3.83918e-08
-2.59615e-08
3.00345e-08
4.88296e-08
-3.01755e-08
2.906e-08
6.16777e-08
-3.47573e-08
2.65282e-08
7.28348e-08
-3.91016e-08
2.27498e-08
8.2504e-08
-4.29209e-08
1.8259e-08
8.98103e-08
-4.60395e-08
1.32439e-08
9.53156e-08
-4.84165e-08
7.92067e-09
9.89089e-08
-5.00192e-08
2.45084e-09
1.00739e-07
-5.08566e-08
-2.99789e-09
1.00794e-07
-5.09221e-08
-8.25781e-09
9.90713e-08
-5.02154e-08
-1.31683e-08
9.5589e-08
-4.87432e-08
-1.75127e-08
9.01984e-08
-4.64975e-08
-2.11061e-08
8.30251e-08
-4.35141e-08
-2.34123e-08
7.3514e-08
-3.98406e-08
-2.41265e-08
6.25838e-08
-3.56646e-08
-2.25027e-08
5.003e-08
-3.12921e-08
-1.95545e-08
4.00537e-08
-2.73492e-08
-1.57419e-08
3.22737e-08
-2.40471e-08
-1.15243e-08
2.71355e-08
-2.15194e-08
-7.00673e-09
2.3953e-08
-1.97062e-08
-2.27675e-09
2.24065e-08
-1.83787e-08
2.21903e-09
2.20626e-08
-1.69514e-08
4.57039e-09
2.20176e-08
-1.38339e-08
2.03493e-08
-5.43751e-09
-3.82451e-09
1.99652e-08
-3.13138e-09
-1.17989e-09
2.18516e-08
-1.04293e-08
3.48397e-09
2.24976e-08
-1.3137e-08
8.40381e-09
2.35737e-08
-1.43045e-08
1.31785e-08
2.56795e-08
-1.53366e-08
1.78735e-08
2.90216e-08
-1.67541e-08
2.26945e-08
3.38413e-08
-1.88011e-08
2.77622e-08
4.06526e-08
-2.16155e-08
3.29188e-08
5.01401e-08
-2.5261e-08
3.72909e-08
6.3808e-08
-2.97884e-08
3.97368e-08
8.14088e-08
-3.50252e-08
3.81335e-08
1.04085e-07
-4.08044e-08
3.42339e-08
1.22981e-07
-4.62464e-08
2.87839e-08
1.3898e-07
-5.10259e-08
2.27168e-08
1.50797e-07
-5.49192e-08
1.61851e-08
1.59711e-07
-5.78637e-08
9.39626e-09
1.65527e-07
-5.9829e-08
2.47971e-09
1.68506e-07
-6.085e-08
-4.41506e-09
1.68611e-07
-6.09227e-08
-1.11378e-08
1.65841e-07
-6.00467e-08
-1.75581e-08
1.60234e-07
-5.82249e-08
-2.34633e-08
1.51527e-07
-5.54238e-08
-2.86996e-08
1.39937e-07
-5.16756e-08
-3.23233e-08
1.24189e-07
-4.70512e-08
-3.35932e-08
1.05642e-07
-4.17886e-08
-3.07303e-08
8.34002e-08
-3.62332e-08
-2.58837e-08
6.6499e-08
-3.12919e-08
-2.00831e-08
5.36165e-08
-2.71434e-08
-1.41258e-08
4.5143e-08
-2.39647e-08
-8.13323e-09
3.9617e-08
-2.16567e-08
-2.16704e-09
3.63904e-08
-1.995e-08
3.26147e-09
3.48158e-08
-1.81817e-08
5.90904e-09
3.39037e-08
-1.45337e-08
3.11496e-08
-4.89124e-09
-4.29801e-09
2.67678e-08
-2.50459e-09
-1.16312e-09
2.92886e-08
-1.05719e-08
4.3854e-09
3.05298e-08
-1.35808e-08
1.03554e-08
3.24937e-08
-1.48899e-08
1.63092e-08
3.58155e-08
-1.60898e-08
2.24074e-08
4.07025e-08
-1.77791e-08
2.9051e-08
4.74448e-08
-2.02471e-08
3.66095e-08
5.67657e-08
-2.36717e-08
4.49988e-08
6.98553e-08
-2.81045e-08
5.28273e-08
8.96114e-08
-3.36319e-08
5.76532e-08
1.16561e-07
-3.99782e-08
5.4608e-08
1.5441e-07
-4.72789e-08
4.79381e-08
1.83711e-07
-5.40602e-08
3.93973e-08
2.07597e-07
-6.00765e-08
3.05637e-08
2.24619e-07
-6.49885e-08
2.13916e-08
2.37514e-07
-6.86306e-08
1.20334e-08
2.45906e-07
-7.10206e-08
2.56446e-09
2.50227e-07
-7.2252e-08
-6.88301e-09
2.50389e-07
-7.23306e-08
-1.61752e-08
2.46388e-07
-7.12551e-08
-2.52328e-08
2.3831e-07
-6.90178e-08
-3.38912e-08
2.25712e-07
-6.55259e-08
-4.21863e-08
2.08994e-07
-6.07622e-08
-4.85143e-08
1.85419e-07
-5.49025e-08
-5.11245e-08
1.56557e-07
-4.83042e-08
-4.57265e-08
1.19237e-07
-4.12346e-08
-3.72961e-08
9.32763e-08
-3.52078e-08
-2.80792e-08
7.44894e-08
-3.00898e-08
-1.93741e-08
6.2602e-08
-2.61642e-08
-1.12359e-08
5.47721e-08
-2.32932e-08
-3.55201e-09
4.99079e-08
-2.12015e-08
3.2122e-09
4.71868e-08
-1.91352e-08
6.57401e-09
4.55562e-08
-1.50143e-08
4.19551e-08
-4.23145e-09
-4.42819e-09
3.31127e-08
-1.91678e-09
-4.26101e-10
3.61338e-08
-1.08473e-08
6.34685e-09
3.79641e-08
-1.42072e-08
1.37151e-08
4.08129e-08
-1.56875e-08
2.12119e-08
4.54226e-08
-1.71038e-08
2.91502e-08
5.19186e-08
-1.91544e-08
3.82457e-08
6.05196e-08
-2.21702e-08
4.93966e-08
7.19734e-08
-2.63586e-08
6.2901e-08
8.80282e-08
-3.16774e-08
7.7036e-08
1.13695e-07
-3.82189e-08
8.68569e-08
1.52021e-07
-4.52809e-08
8.07268e-08
2.14818e-07
-5.42789e-08
6.89981e-08
2.58033e-07
-6.25938e-08
5.54466e-08
2.91475e-07
-7.03256e-08
4.24485e-08
3.14351e-07
-7.67345e-08
2.93248e-08
3.31908e-07
-8.12706e-08
1.6076e-08
3.43324e-07
-8.417e-08
2.71101e-09
3.49241e-07
-8.56487e-08
-1.06355e-08
3.4947e-07
-8.57348e-08
-2.38264e-08
3.44005e-07
-8.44265e-08
-3.68461e-08
3.33021e-07
-8.16919e-08
-4.96714e-08
3.15853e-07
-7.73156e-08
-6.2958e-08
2.9334e-07
-7.10594e-08
-7.42741e-08
2.60222e-07
-6.34868e-08
-7.98379e-08
2.17482e-07
-5.5362e-08
-6.92134e-08
1.55209e-07
-4.65971e-08
-5.43799e-08
1.18329e-07
-3.98866e-08
-3.98763e-08
9.37791e-08
-3.37933e-08
-2.73004e-08
7.90682e-08
-2.90421e-08
-1.63284e-08
6.92839e-08
-2.54838e-08
-6.3797e-09
6.28745e-08
-2.29152e-08
2.23754e-09
5.90428e-08
-2.04733e-08
6.82349e-09
5.67381e-08
-1.57679e-08
5.24207e-08
-3.64215e-09
-4.3378e-09
3.87974e-08
-1.3469e-09
8.56517e-10
4.22695e-08
-1.133e-08
9.34941e-09
4.46581e-08
-1.5187e-08
1.85345e-08
4.85147e-08
-1.68868e-08
2.79362e-08
5.46068e-08
-1.8586e-08
3.8041e-08
6.29052e-08
-2.10914e-08
4.99776e-08
7.33437e-08
-2.47607e-08
6.56191e-08
8.61378e-08
-2.9806e-08
8.64144e-08
1.032e-07
-3.59672e-08
1.11185e-07
1.32077e-07
-4.31521e-08
1.32014e-07
1.8081e-07
-4.96174e-08
1.19023e-07
2.87802e-07
-5.99918e-08
9.83578e-08
3.48197e-07
-6.94987e-08
7.73656e-08
3.92031e-07
-7.95641e-08
5.87592e-08
4.21165e-07
-8.82076e-08
4.0301e-08
4.44048e-07
-9.36814e-08
2.17044e-08
4.59017e-07
-9.70958e-08
2.93081e-09
4.66833e-07
-9.88192e-08
-1.58318e-08
4.67148e-07
-9.89149e-08
-3.43931e-08
4.59947e-07
-9.738e-08
-5.27839e-08
4.45558e-07
-9.41459e-08
-7.12574e-08
4.23172e-07
-8.88456e-08
-9.20062e-08
3.9445e-07
-8.03613e-08
-1.12201e-07
3.50881e-07
-7.04638e-08
-1.24463e-07
2.90912e-07
-6.11682e-08
-1.02438e-07
1.8421e-07
-5.1025e-08
-7.69721e-08
1.3782e-07
-4.4957e-08
-5.50423e-08
1.10109e-07
-3.82592e-08
-3.76499e-08
9.44223e-08
-3.27465e-08
-2.33347e-08
8.34017e-08
-2.8433e-08
-1.06114e-08
7.54559e-08
-2.53047e-08
3.97574e-10
7.04108e-08
-2.2377e-08
6.81227e-09
6.72345e-08
-1.69111e-08
6.23127e-08
-3.07972e-09
-4.02964e-09
4.35858e-08
-7.58677e-10
2.84761e-09
4.74407e-08
-1.20485e-08
1.35915e-08
5.04535e-08
-1.65392e-08
2.51358e-08
5.55053e-08
-1.85349e-08
3.68818e-08
6.34542e-08
-2.05934e-08
4.93293e-08
7.41083e-08
-2.36506e-08
6.38183e-08
8.69341e-08
-2.80794e-08
8.34071e-08
1.00651e-07
-3.4102e-08
1.11861e-07
1.1573e-07
-4.09835e-08
1.53946e-07
1.38749e-07
-4.87571e-08
1.99524e-07
1.84775e-07
-4.95436e-08
1.72118e-07
3.73876e-07
-5.86687e-08
1.37736e-07
4.51722e-07
-6.91424e-08
1.07057e-07
5.05894e-07
-8.31845e-08
8.14775e-08
5.4214e-07
-9.53951e-08
5.58683e-08
5.71388e-07
-1.01731e-07
2.97416e-08
5.90741e-07
-1.05597e-07
3.249e-09
6.00859e-07
-1.07533e-07
-2.32457e-08
6.01281e-07
-1.07638e-07
-4.93792e-08
5.9199e-07
-1.0591e-07
-7.49994e-08
5.73419e-07
-1.02241e-07
-1.00559e-07
5.44829e-07
-9.60974e-08
-1.31127e-07
5.09075e-07
-8.40571e-08
-1.65089e-07
4.55046e-07
-7.02032e-08
-1.91545e-07
3.77383e-07
-6.00142e-08
-1.44045e-07
1.87775e-07
-5.10647e-08
-1.01544e-07
1.46001e-07
-5.0682e-08
-7.18332e-08
1.23852e-07
-4.34535e-08
-5.00699e-08
1.10003e-07
-3.73437e-08
-3.25179e-08
9.80451e-08
-3.21955e-08
-1.65584e-08
8.79361e-08
-2.84396e-08
-2.26118e-09
8.10648e-08
-2.49512e-08
6.53043e-09
7.6838e-08
-1.83951e-08
7.12751e-08
-2.43196e-09
-3.51304e-09
4.72768e-08
-1.77978e-10
5.56191e-09
5.13712e-08
-1.30054e-08
1.92031e-08
5.50885e-08
-1.82762e-08
3.37858e-08
6.15665e-08
-2.06439e-08
4.84565e-08
7.191e-08
-2.31265e-08
6.33903e-08
8.59648e-08
-2.67903e-08
7.94973e-08
1.02862e-07
-3.2035e-08
1.00356e-07
1.18868e-07
-3.90758e-08
1.32757e-07
1.30632e-07
-4.73037e-08
1.99879e-07
1.26011e-07
-5.4384e-08
2.96247e-07
1.44052e-07
-5.56453e-08
2.38628e-07
4.81669e-07
-5.01737e-08
1.84233e-07
5.63966e-07
-5.78498e-08
1.43261e-07
6.24224e-07
-7.73576e-08
1.09987e-07
6.69553e-07
-9.41387e-08
7.57332e-08
7.06275e-07
-1.00633e-07
4.00941e-08
7.31507e-07
-1.05127e-07
3.69943e-09
7.44586e-07
-1.07333e-07
-3.27154e-08
7.45138e-07
-1.07442e-07
-6.84221e-08
7.33146e-07
-1.05449e-07
-1.02811e-07
7.08961e-07
-1.01153e-07
-1.3628e-07
6.73155e-07
-9.48567e-08
-1.77466e-07
6.285e-07
-7.82386e-08
-2.31742e-07
5.68267e-07
-5.89454e-08
-2.88014e-07
4.85295e-07
-5.16399e-08
-1.885e-07
1.45899e-07
-5.76375e-08
-1.22142e-07
1.36202e-07
-5.65592e-08
-8.81754e-08
1.39865e-07
-4.99808e-08
-6.45535e-08
1.29078e-07
-4.26976e-08
-4.44551e-08
1.14666e-07
-3.67192e-08
-2.47914e-08
1.00601e-07
-3.23285e-08
-6.31457e-09
9.08e-08
-2.8212e-08
5.87735e-09
8.49591e-08
-2.0313e-08
7.88151e-08
-1.66264e-09
-2.66418e-09
4.93702e-08
5.70703e-10
9.33396e-09
5.35933e-08
-1.42202e-08
2.69036e-08
5.79396e-08
-2.04208e-08
4.59248e-08
6.58012e-08
-2.32559e-08
6.53342e-08
7.87734e-08
-2.62729e-08
8.45528e-08
9.74181e-08
-3.06718e-08
1.0278e-07
1.21488e-07
-3.68537e-08
1.19879e-07
1.47629e-07
-4.58594e-08
1.34685e-07
1.71299e-07
-5.5473e-08
1.87182e-07
1.45284e-07
-7.17702e-08
4.15599e-07
-8.43651e-08
3.25423e-07
5.92312e-07
-2.04659e-08
2.49927e-07
6.56922e-07
-1.74602e-08
1.99235e-07
7.11304e-07
-3.63878e-08
1.56084e-07
7.67654e-07
-5.49498e-08
1.07806e-07
8.11839e-07
-5.72867e-08
5.65301e-08
8.42943e-07
-6.01595e-08
4.34019e-09
8.58574e-07
-6.1798e-08
-4.78803e-08
8.59235e-07
-6.18771e-08
-9.92694e-08
8.44931e-07
-6.03966e-08
-1.47809e-07
8.15154e-07
-5.76531e-08
-1.91429e-07
7.72271e-07
-5.54962e-08
-2.42936e-07
7.17067e-07
-3.706e-08
-3.19741e-07
6.63387e-07
-1.8315e-08
-4.09578e-07
5.97078e-07
-2.19458e-08
-1.76321e-07
-8.73577e-08
-1.22658e-07
1.55874e-07
-7.33351e-08
-1.0731e-07
1.82442e-07
-5.79249e-08
-8.69294e-08
1.58513e-07
-4.98156e-08
-6.35812e-08
1.33566e-07
-4.22483e-08
-3.80931e-08
1.12323e-07
-3.72101e-08
-1.31948e-08
9.82735e-08
-3.23717e-08
4.13742e-09
9.04272e-08
-2.28004e-08
8.37357e-08
-7.83216e-10
-1.58436e-09
4.95771e-08
1.37751e-09
1.38225e-08
5.38381e-08
-1.56516e-08
3.61068e-08
5.85921e-08
-2.29368e-08
6.08246e-08
6.74305e-08
-2.6347e-08
8.70261e-08
8.25789e-08
-3.0007e-08
1.13399e-07
1.06049e-07
-3.50038e-08
1.35034e-07
1.41284e-07
-4.14305e-08
1.38008e-07
1.92693e-07
-4.80377e-08
1.07545e-07
2.67035e-07
-6.52734e-08
3.61762e-07
-1.08934e-07
1.89613e-07
3.23346e-07
7.93528e-08
2.55459e-07
5.48131e-07
4.29456e-08
2.52107e-07
6.7933e-07
3.53255e-08
2.06528e-07
7.76356e-07
3.68772e-08
1.43526e-07
8.41389e-07
3.3451e-08
7.52117e-08
8.82323e-07
2.89339e-08
5.17342e-09
9.01909e-07
2.67038e-08
-6.49017e-08
9.02602e-07
2.67083e-08
-1.33349e-07
8.84437e-07
2.89419e-08
-1.96681e-07
8.45015e-07
3.34714e-08
-2.43038e-07
7.81698e-07
3.69297e-08
-2.48203e-07
6.86747e-07
3.54839e-08
-1.85487e-07
5.57854e-07
4.28177e-08
3.33612e-07
7.79784e-08
-1.04188e-07
3.6619e-07
-1.06129e-07
-1.29315e-07
2.74851e-07
-6.72815e-08
-1.20147e-07
2.01916e-07
-5.25711e-08
-9.12002e-08
1.52484e-07
-4.78649e-08
-5.64269e-08
1.20485e-07
-4.29351e-08
-2.25851e-08
1.0197e-07
-3.75382e-08
1.39195e-09
9.24388e-08
-2.59886e-08
8.51367e-08
-8.9866e-12
6.77867e-11
4.73979e-08
2.11138e-09
1.94083e-08
5.17014e-08
-1.72039e-08
4.77464e-08
5.5975e-08
-2.5721e-08
8.10719e-08
6.39872e-08
-2.98822e-08
1.20738e-07
7.74957e-08
-3.45827e-08
1.70206e-07
9.76815e-08
-4.11012e-08
2.35116e-07
1.25768e-07
-4.9394e-08
3.22487e-07
1.61739e-07
-5.6417e-08
4.4561e-07
2.03361e-07
-5.94489e-08
6.01391e-07
2.48735e-07
-4.27529e-08
4.69971e-07
8.48037e-08
4.66162e-08
4.80703e-07
2.31959e-07
8.06548e-08
4.61673e-07
4.13978e-07
1.53183e-07
3.94084e-07
5.33023e-07
2.13897e-07
3.00399e-07
6.22204e-07
2.47837e-07
2.00111e-07
6.81498e-07
2.60179e-07
1.02006e-07
7.1853e-07
2.61898e-07
6.02266e-09
7.36315e-07
2.61577e-07
-8.99387e-08
7.36922e-07
2.61641e-07
-1.87972e-07
7.20375e-07
2.62095e-07
-2.88145e-07
6.8464e-07
2.60548e-07
-3.81703e-07
6.26731e-07
2.48525e-07
-4.4921e-07
5.39011e-07
2.15243e-07
-4.67807e-07
4.21088e-07
1.55362e-07
-4.58866e-07
2.40269e-07
8.44031e-08
-5.95926e-07
8.67783e-08
5.02811e-08
-4.40021e-07
2.52329e-07
-4.2043e-08
-3.1307e-07
2.09794e-07
-6.18934e-08
-2.19689e-07
1.7004e-07
-6.15046e-08
-1.4648e-07
1.36307e-07
-5.70322e-08
-8.68109e-08
1.11535e-07
-5.07195e-08
-3.70872e-08
9.62232e-08
-4.39771e-08
-2.7691e-09
8.81716e-08
-3.00509e-08
8.13105e-08
1.05705e-09
9.29593e-10
4.35133e-08
2.95499e-09
2.39749e-08
4.74137e-08
-1.87576e-08
5.73457e-08
5.09777e-08
-2.83736e-08
9.70697e-08
5.75005e-08
-3.32373e-08
1.4526e-07
6.81853e-08
-3.88803e-08
2.06327e-07
8.33789e-08
-4.67642e-08
2.85986e-07
1.02743e-07
-5.6633e-08
3.88333e-07
1.24748e-07
-6.53564e-08
5.15496e-07
1.44465e-07
-6.82672e-08
6.59327e-07
1.59283e-07
-5.43792e-08
6.59609e-07
1.05489e-07
-2.09677e-08
6.53038e-07
1.92608e-07
4.59219e-08
5.9574e-07
3.03284e-07
1.67993e-07
4.91532e-07
3.87022e-07
2.50209e-07
3.68391e-07
4.51618e-07
2.93727e-07
2.43071e-07
4.94301e-07
3.12518e-07
1.22872e-07
5.21213e-07
3.17517e-07
6.68644e-09
5.34154e-07
3.18346e-07
-1.09457e-07
5.34652e-07
3.18414e-07
-2.29525e-07
5.22712e-07
3.1773e-07
-3.54637e-07
4.96817e-07
3.12935e-07
-4.77576e-07
4.55149e-07
2.94521e-07
-5.81881e-07
3.91525e-07
2.51792e-07
-6.39912e-07
3.08479e-07
1.70639e-07
-6.48121e-07
1.98117e-07
5.03611e-08
-6.5183e-07
1.08535e-07
-1.80482e-08
-5.09082e-07
1.63686e-07
-5.41047e-08
-3.78653e-07
1.50416e-07
-7.10507e-08
-2.69899e-07
1.32386e-07
-7.11002e-08
-1.80802e-07
1.12564e-07
-6.53539e-08
-1.07772e-07
9.63651e-08
-5.78603e-08
-4.73349e-08
8.56412e-08
-4.98546e-08
-5.19808e-09
7.9764e-08
-3.37292e-08
7.38485e-08
2.26392e-09
1.67103e-09
3.80829e-08
3.75939e-09
2.77723e-08
4.1405e-08
-2.00926e-08
6.52989e-08
4.41208e-08
-3.06697e-08
1.1e-07
4.89386e-08
-3.61396e-08
1.64176e-07
5.66318e-08
-4.2622e-08
2.32298e-07
6.71288e-08
-5.18716e-08
3.19195e-07
7.96469e-08
-6.38016e-08
4.26954e-07
9.29677e-08
-7.59783e-08
5.51615e-07
1.03433e-07
-8.36293e-08
6.76551e-07
1.12418e-07
-7.80702e-08
7.30463e-07
1.02679e-07
-5.11023e-08
7.44961e-07
1.52656e-07
2.54545e-08
6.77268e-07
2.17997e-07
1.52979e-07
5.56398e-07
2.71888e-07
2.36003e-07
4.13631e-07
3.14396e-07
2.7999e-07
2.71432e-07
3.42589e-07
2.93911e-07
1.36695e-07
3.60675e-07
2.95274e-07
7.2061e-09
3.69448e-07
2.94196e-07
-1.22234e-07
3.69864e-07
2.94228e-07
-2.5682e-07
3.61919e-07
2.9538e-07
-3.98795e-07
3.44642e-07
2.94151e-07
-5.41398e-07
3.1721e-07
2.80542e-07
-6.62577e-07
2.75393e-07
2.37311e-07
-7.31437e-07
2.21975e-07
1.55363e-07
-7.19903e-07
1.56911e-07
2.9673e-08
-6.69071e-07
1.06199e-07
-4.84963e-08
-5.44434e-07
1.1681e-07
-7.77606e-08
-4.16451e-07
1.08947e-07
-8.65142e-08
-3.01888e-07
9.99358e-08
-8.21135e-08
-2.04621e-07
8.8583e-08
-7.32855e-08
-1.2307e-07
7.88673e-08
-6.4053e-08
-5.48795e-08
7.21845e-08
-5.47342e-08
-6.83907e-09
6.83861e-08
-3.66626e-08
6.3537e-08
3.47247e-09
2.08138e-09
3.15744e-08
4.42719e-09
3.03794e-08
3.42569e-08
-2.115e-08
7.08146e-08
3.62008e-08
-3.25152e-08
1.18676e-07
3.95403e-08
-3.84632e-08
1.76118e-07
4.47806e-08
-4.55909e-08
2.47404e-07
5.17343e-08
-5.58915e-08
3.36741e-07
5.97053e-08
-6.93952e-08
4.45592e-07
6.80418e-08
-8.39253e-08
5.68477e-07
7.48631e-08
-9.43146e-08
6.89859e-07
8.28273e-08
-9.17918e-08
7.70359e-07
8.74074e-08
-6.52292e-08
7.96982e-07
1.18331e-07
7.70208e-09
7.24143e-07
1.58298e-07
1.32539e-07
5.94419e-07
1.92448e-07
2.09164e-07
4.41094e-07
2.19802e-07
2.47918e-07
2.89206e-07
2.38383e-07
2.56095e-07
1.45556e-07
2.50495e-07
2.5383e-07
7.62082e-09
2.56469e-07
2.50914e-07
-1.30274e-07
2.56849e-07
2.5091e-07
-2.738e-07
2.5162e-07
2.53824e-07
-4.25516e-07
2.40214e-07
2.56144e-07
-5.78769e-07
2.22267e-07
2.48196e-07
-7.08968e-07
1.95456e-07
2.10136e-07
-7.83261e-07
1.61685e-07
1.34584e-07
-7.60019e-07
1.21996e-07
1.16731e-08
-6.82012e-07
9.0989e-08
-6.27972e-08
-5.60598e-07
8.70218e-08
-9.16261e-08
-4.34158e-07
7.98768e-08
-9.73703e-08
-3.1806e-07
7.42255e-08
-9.03883e-08
-2.1756e-07
6.7515e-08
-7.94319e-08
-1.31694e-07
6.18298e-08
-6.88281e-08
-5.896e-08
5.78934e-08
-5.84431e-08
-7.32664e-09
5.55756e-08
-3.88229e-08
5.17677e-08
4.44268e-09
2.29442e-09
2.43394e-08
4.94057e-09
3.21426e-08
2.63597e-08
-2.1951e-08
7.46066e-08
2.76548e-08
-3.3918e-08
1.24546e-07
2.98182e-08
-4.02172e-08
1.83932e-07
3.32018e-08
-4.78076e-08
2.56855e-07
3.76704e-08
-5.88583e-08
3.47233e-07
4.28057e-08
-7.34788e-08
4.56468e-07
4.83957e-08
-8.95886e-08
5.79367e-07
5.36961e-08
-1.01732e-07
7.02352e-07
6.08391e-08
-1.00997e-07
7.95565e-07
6.8624e-08
-7.44296e-08
8.28603e-07
8.86633e-08
-3.36997e-09
7.5374e-07
1.13563e-07
1.19598e-07
6.18919e-07
1.35422e-07
1.91846e-07
4.58989e-07
1.53135e-07
2.26597e-07
3.00902e-07
1.65508e-07
2.30961e-07
1.51465e-07
1.73698e-07
2.26234e-07
7.99681e-09
1.77844e-07
2.22094e-07
-1.35445e-07
1.7822e-07
2.2207e-07
-2.84802e-07
1.7481e-07
2.26167e-07
-4.42789e-07
1.67297e-07
2.30903e-07
-6.02749e-07
1.5551e-07
2.26718e-07
-7.38187e-07
1.38271e-07
1.92623e-07
-8.14703e-07
1.16748e-07
1.21453e-07
-7.85151e-07
9.21451e-08
2.99263e-10
-6.94143e-07
7.20973e-08
-7.21165e-08
-5.70875e-07
6.46907e-08
-1.00936e-07
-4.44153e-07
5.8094e-08
-1.0494e-07
-3.2726e-07
5.36348e-08
-9.63024e-08
-2.25084e-07
4.92444e-08
-8.39055e-08
-1.36733e-07
4.57856e-08
-7.23061e-08
-6.11918e-08
4.34818e-08
-6.113e-08
-7.34677e-09
4.20973e-08
-4.03667e-08
3.92622e-08
5.15875e-09
2.36136e-09
1.66984e-08
5.27959e-09
3.32067e-08
1.80474e-08
-2.2533e-08
7.69765e-08
1.88078e-08
-3.49228e-08
1.28202e-07
2.00492e-08
-4.14564e-08
1.88723e-07
2.2022e-08
-4.93414e-08
2.62557e-07
2.4694e-08
-6.08573e-08
3.53596e-07
2.79178e-08
-7.61511e-08
4.63427e-07
3.1719e-08
-9.31551e-08
5.87424e-07
3.59413e-08
-1.06241e-07
7.1279e-07
4.1796e-08
-1.06324e-07
8.12339e-07
4.8989e-08
-7.99137e-08
8.48944e-07
6.15886e-08
-9.53043e-09
7.72819e-07
7.64549e-08
1.13233e-07
6.34802e-07
8.97531e-08
1.83687e-07
4.70797e-07
1.00616e-07
2.16524e-07
3.0877e-07
1.0847e-07
2.19065e-07
1.55535e-07
1.13764e-07
2.13169e-07
8.36579e-09
1.16559e-07
2.08454e-07
-1.38797e-07
1.16959e-07
2.08425e-07
-2.9201e-07
1.14941e-07
2.13082e-07
-4.54029e-07
1.10346e-07
2.1897e-07
-6.18182e-07
1.03076e-07
2.16587e-07
-7.56937e-07
9.26416e-08
1.84384e-07
-8.34794e-07
7.96035e-08
1.15001e-07
-8.01846e-07
6.48597e-08
-5.6619e-09
-7.04312e-07
5.22617e-08
-7.76987e-08
-5.78471e-07
4.52334e-08
-1.06384e-07
-4.50421e-07
3.96522e-08
-1.09608e-07
-3.32607e-07
3.59098e-08
-1.00089e-07
-2.2931e-07
3.28269e-08
-8.68793e-08
-1.39472e-07
3.06206e-08
-7.46736e-08
-6.2255e-08
2.92526e-08
-6.29875e-08
-7.13917e-09
2.84351e-08
-4.14536e-08
2.65378e-08
5.58519e-09
2.36592e-09
8.88131e-09
5.4512e-09
3.37855e-08
9.55423e-09
-2.29265e-08
7.83273e-08
9.83962e-09
-3.55735e-08
1.30329e-07
1.029e-08
-4.22421e-08
1.9157e-07
1.10695e-08
-5.02893e-08
2.66062e-07
1.22575e-08
-6.20551e-08
3.57741e-07
1.39427e-08
-7.77041e-08
4.68339e-07
1.62815e-08
-9.51606e-08
5.93539e-07
1.94483e-08
-1.08706e-07
7.20745e-07
2.37245e-08
-1.09135e-07
8.2339e-07
2.91006e-08
-8.27563e-08
8.61675e-07
3.5677e-08
-1.23735e-08
7.84766e-07
4.24399e-08
1.10924e-07
6.44815e-07
4.86166e-08
1.81088e-07
4.78368e-07
5.36881e-08
2.13375e-07
3.13906e-07
5.76176e-08
2.15315e-07
1.58283e-07
6.03739e-08
2.09013e-07
8.75582e-09
6.19868e-08
2.04099e-07
-1.4079e-07
6.24339e-08
2.04071e-07
-2.96464e-07
6.16861e-08
2.08929e-07
-4.61036e-07
5.96971e-08
2.15221e-07
-6.27782e-07
5.63868e-08
2.13435e-07
-7.68633e-07
5.1723e-08
1.8177e-07
-8.47417e-07
4.57345e-08
1.12652e-07
-8.1284e-07
3.89379e-08
-8.65457e-09
-7.12141e-07
3.22056e-08
-8.06433e-08
-5.84344e-07
2.67555e-08
-1.09319e-07
-4.54929e-07
2.2467e-08
-1.1223e-07
-3.36132e-07
1.94045e-08
-1.02292e-07
-2.31905e-07
1.72756e-08
-8.86757e-08
-1.41061e-07
1.59265e-08
-7.61497e-08
-6.28146e-08
1.51867e-08
-6.41802e-08
-6.96514e-09
1.47729e-08
-4.21873e-08
1.37998e-08
5.77283e-09
2.33634e-09
1.0885e-09
5.45646e-09
3.39593e-08
1.08063e-09
-2.31494e-08
7.88085e-08
8.88153e-10
-3.58977e-08
1.31166e-07
5.43823e-10
-4.26116e-08
1.92826e-07
1.14953e-10
-5.07056e-08
2.67827e-07
-2.04374e-10
-6.25387e-08
3.60157e-07
-1.09649e-10
-7.8278e-08
4.71582e-07
7.01293e-10
-9.58444e-08
5.97761e-07
2.76712e-09
-1.09498e-07
7.2597e-07
5.51717e-09
-1.10002e-07
8.29438e-07
9.28248e-09
-8.365e-08
8.67922e-07
1.03596e-08
-1.31663e-08
7.90528e-07
9.2418e-09
1.10592e-07
6.49681e-07
8.38182e-09
1.81081e-07
4.82184e-07
7.66609e-09
2.1352e-07
3.16613e-07
7.67312e-09
2.15515e-07
1.59865e-07
7.90072e-09
2.09222e-07
9.18931e-09
8.35516e-09
2.04307e-07
-1.41536e-07
8.87902e-09
2.0428e-07
-2.9843e-07
9.43937e-09
2.0914e-07
-4.64259e-07
1.01028e-08
2.15424e-07
-6.32253e-07
1.0802e-08
2.13578e-07
-7.74211e-07
1.19338e-08
1.81748e-07
-8.5367e-07
1.29135e-08
1.1228e-07
-8.1898e-07
1.37967e-08
-9.54876e-09
-7.17435e-07
1.23189e-08
-8.16584e-08
-5.88575e-07
8.23178e-09
-1.10336e-07
-4.58094e-07
5.18235e-09
-1.13196e-07
-3.38376e-07
2.85449e-09
-1.03169e-07
-2.33377e-07
1.73771e-09
-8.94612e-08
-1.41882e-07
1.28593e-09
-7.68539e-08
-6.30936e-08
1.1965e-09
-6.47984e-08
-6.89784e-09
1.20009e-09
-4.26229e-08
1.16236e-09
5.73964e-09
2.2713e-09
-6.4774e-09
5.2946e-09
3.37257e-08
-7.16831e-09
-2.32054e-08
7.84158e-08
-7.90122e-09
-3.59008e-08
1.3071e-07
-9.17673e-09
-4.25734e-08
1.92468e-07
-1.10368e-08
-5.06063e-08
2.67819e-07
-1.32227e-08
-6.23328e-08
3.60788e-07
-1.51664e-08
-7.79127e-08
4.73081e-07
-1.63419e-08
-9.52495e-08
6.00082e-07
-1.55673e-08
-1.08666e-07
7.28592e-07
-1.3999e-08
-1.08994e-07
8.30737e-07
-1.01554e-08
-8.27071e-08
8.67836e-07
-1.4592e-08
-1.21476e-08
7.90151e-07
-2.49745e-08
1.11902e-07
6.49407e-07
-3.40876e-08
1.83213e-07
4.82246e-07
-4.15928e-08
2.16419e-07
3.16902e-07
-4.6055e-08
2.19072e-07
1.60295e-07
-4.86575e-08
2.13165e-07
9.68813e-09
-4.9471e-08
2.08433e-07
-1.41006e-07
-4.88314e-08
2.08405e-07
-2.97872e-07
-4.67741e-08
2.13079e-07
-4.63658e-07
-4.30755e-08
2.18964e-07
-6.31565e-07
-3.7731e-08
2.1644e-07
-7.73698e-07
-2.97393e-08
1.83806e-07
-8.53716e-07
-2.0546e-08
1.13478e-07
-8.20559e-07
-1.06704e-08
-8.69024e-09
-7.20342e-07
-6.99731e-09
-8.09007e-08
-5.91166e-07
-1.14102e-08
-1.09535e-07
-4.59859e-07
-1.35496e-08
-1.12574e-07
-3.39281e-07
-1.49501e-08
-1.02774e-07
-2.3369e-07
-1.45793e-08
-8.92738e-08
-1.41915e-07
-1.36765e-08
-7.68127e-08
-6.30779e-08
-1.27798e-08
-6.48609e-08
-6.92803e-09
-1.21769e-08
-4.27729e-08
-1.12472e-08
5.48157e-09
2.14034e-09
-1.35779e-08
4.96017e-09
3.30033e-08
-1.49468e-08
-2.30845e-08
7.69936e-08
-1.63246e-08
-3.55669e-08
1.28687e-07
-1.87655e-08
-4.21043e-08
1.90087e-07
-2.24865e-08
-4.99502e-08
2.65458e-07
-2.72254e-08
-6.13691e-08
3.58977e-07
-3.21921e-08
-7.64924e-08
4.72315e-07
-3.64748e-08
-9.32057e-08
6.00386e-07
-3.76808e-08
-1.05957e-07
7.2908e-07
-3.6989e-08
-1.05704e-07
8.27137e-07
-2.87911e-08
-7.94222e-08
8.60544e-07
-3.95597e-08
-8.4391e-09
7.82729e-07
-6.33583e-08
1.16199e-07
6.43263e-07
-8.40713e-08
1.8945e-07
4.78091e-07
-1.00964e-07
2.24543e-07
3.14512e-07
-1.11404e-07
2.28928e-07
1.59483e-07
-1.17701e-07
2.24072e-07
1.03013e-08
-1.20121e-07
2.19832e-07
-1.39012e-07
-1.19296e-07
2.19778e-07
-2.94435e-07
-1.15256e-07
2.23905e-07
-4.58684e-07
-1.07507e-07
2.2868e-07
-6.24933e-07
-9.58442e-08
2.24363e-07
-7.6617e-07
-7.82844e-08
1.89782e-07
-8.46715e-07
-5.7481e-08
1.1748e-07
-8.17464e-07
-3.46654e-08
-5.25627e-09
-7.21302e-07
-2.52425e-08
-7.79164e-08
-5.91948e-07
-3.41966e-08
-1.06568e-07
-4.59644e-07
-3.569e-08
-1.10163e-07
-3.38173e-07
-3.54438e-08
-1.00977e-07
-2.3226e-07
-3.24598e-08
-8.80321e-08
-1.40746e-07
-2.92253e-08
-7.5965e-08
-6.25309e-08
-2.6677e-08
-6.43181e-08
-6.9708e-09
-2.51284e-08
-4.26086e-08
-2.31885e-08
4.97045e-09
1.86309e-09
-1.98842e-08
4.44318e-09
3.15875e-08
-2.1906e-08
-2.27653e-08
7.41523e-08
-2.40229e-08
-3.48664e-08
1.24424e-07
-2.78754e-08
-4.11621e-08
1.8458e-07
-3.39738e-08
-4.86685e-08
2.59115e-07
-4.22415e-08
-5.95186e-08
3.52621e-07
-5.19177e-08
-7.37806e-08
4.67119e-07
-6.17272e-08
-8.92456e-08
5.97573e-07
-6.75292e-08
-1.00606e-07
7.2813e-07
-6.86488e-08
-9.88969e-08
8.17134e-07
-4.49327e-08
-7.28617e-08
8.42913e-07
-6.42674e-08
-1.07172e-09
7.64876e-07
-1.10408e-07
1.25087e-07
6.28441e-07
-1.49678e-07
2.02041e-07
4.67871e-07
-1.80987e-07
2.40592e-07
3.08409e-07
-2.00325e-07
2.48382e-07
1.56993e-07
-2.11945e-07
2.45661e-07
1.10814e-08
-2.16644e-07
2.42434e-07
-1.35007e-07
-2.15524e-07
2.42316e-07
-2.86965e-07
-2.08594e-07
2.45296e-07
-4.47356e-07
-1.94912e-07
2.47795e-07
-6.09426e-07
-1.73713e-07
2.3994e-07
-7.48164e-07
-1.41339e-07
2.01793e-07
-8.29595e-07
-1.01791e-07
1.25741e-07
-8.08232e-07
-5.74061e-08
1.37729e-09
-7.20939e-07
-4.06825e-08
-7.18529e-08
-5.89747e-07
-6.51109e-08
-1.00277e-07
-4.55222e-07
-6.49584e-08
-1.05257e-07
-3.32874e-07
-6.04555e-08
-9.73368e-08
-2.27387e-07
-5.24613e-08
-8.54855e-08
-1.37239e-07
-4.52261e-08
-7.41477e-08
-6.08048e-08
-4.00607e-08
-6.305e-08
-6.76705e-09
-3.71114e-08
-4.20548e-08
-3.41032e-08
4.14766e-09
1.40944e-09
-2.5056e-08
3.76235e-09
2.93836e-08
-2.76565e-08
-2.22236e-08
6.96776e-08
-3.05411e-08
-3.37759e-08
1.17456e-07
-3.59334e-08
-3.97206e-08
1.74991e-07
-4.47755e-08
-4.67325e-08
2.46974e-07
-5.74649e-08
-5.67599e-08
3.38673e-07
-7.38319e-08
-6.97846e-08
4.53125e-07
-9.27949e-08
-8.3385e-08
5.8757e-07
-1.09335e-07
-9.26385e-08
7.26323e-07
-1.18623e-07
-8.87786e-08
7.96241e-07
-5.31591e-08
-6.16913e-08
8.06197e-07
-8.68462e-08
1.26219e-08
7.30291e-07
-1.73638e-07
1.39137e-07
6.00814e-07
-2.40729e-07
2.20528e-07
4.48848e-07
-2.92096e-07
2.63076e-07
2.9692e-07
-3.24058e-07
2.75662e-07
1.52077e-07
-3.42962e-07
2.7586e-07
1.21472e-08
-3.50764e-07
2.74051e-07
-1.27993e-07
-3.49197e-07
2.73813e-07
-2.73506e-07
-3.38212e-07
2.75131e-07
-4.2663e-07
-3.16249e-07
2.74461e-07
-5.80639e-07
-2.813e-07
2.61596e-07
-7.13165e-07
-2.28104e-07
2.19291e-07
-7.93643e-07
-1.60127e-07
1.38813e-07
-7.88614e-07
-7.66296e-08
1.41946e-08
-7.19708e-07
-4.8232e-08
-6.13566e-08
-5.8046e-07
-1.13336e-07
-9.10232e-08
-4.42226e-07
-1.05234e-07
-9.79583e-08
-3.20315e-07
-9.04809e-08
-9.18851e-08
-2.17205e-07
-7.39599e-08
-8.16123e-08
-1.30357e-07
-6.07992e-08
-7.12741e-08
-5.73811e-08
-5.21013e-08
-6.09355e-08
-6.1421e-09
-4.73552e-08
-4.09952e-08
-4.32923e-08
3.04696e-09
6.70476e-10
-2.86579e-08
2.93149e-09
2.60795e-08
-3.16104e-08
-2.14551e-08
6.29226e-08
-3.50729e-08
-3.23113e-08
1.06442e-07
-4.16562e-08
-3.77969e-08
1.58629e-07
-5.28176e-08
-4.41442e-08
2.23989e-07
-6.9764e-08
-5.30608e-08
3.08453e-07
-9.39024e-08
-6.43939e-08
4.17045e-07
-1.26355e-07
-7.50311e-08
5.54284e-07
-1.6631e-07
-8.02643e-08
7.22922e-07
-2.18626e-07
-6.86356e-08
7.56411e-07
-4.95721e-08
-3.70752e-08
7.28083e-07
-8.58984e-08
2.73799e-08
6.61585e-07
-2.54473e-07
1.47332e-07
5.47479e-07