/*--------------------------------*- C++ -*----------------------------------*\
| =========                 |                                                 |
| \\      /  F ield         | OpenFOAM: The Open Source CFD Toolbox           |
|  \\    /   O peration     | Version:  2112                                  |
|   \\  /    A nd           | Website:  www.openfoam.com                      |
|    \\/     M anipulation  |                                                 |
\*---------------------------------------------------------------------------*/
FoamFile
{
    version     2.0;
    format      ascii;
    arch        "LSB;label=32;scalar=64";
    class       volVectorField;
    location    "3.2";
    object      U;
}
// * * * * * * * * * * * * * * * * * * * * * * * * * * * * * * * * * * * * * //

dimensions      [0 1 -1 0 0 0 0];

internalField   nonuniform List<vector> 
64906
(
(7.84682e-08 3.36711e-07 -1.04368e-06)
(2.20656e-06 -1.21911e-06 -1.07538e-06)
(5.94755e-06 -2.79992e-06 -3.96637e-07)
(1.01122e-05 -4.0644e-06 4.89321e-07)
(1.45492e-05 -4.94808e-06 1.22282e-06)
(1.89907e-05 -5.58812e-06 1.78341e-06)
(2.33685e-05 -6.11128e-06 2.23867e-06)
(2.75481e-05 -6.57031e-06 2.65169e-06)
(3.13669e-05 -6.99389e-06 3.04919e-06)
(3.43579e-05 -7.27929e-06 3.45992e-06)
(3.60397e-05 -7.44925e-06 3.88465e-06)
(3.59359e-05 -7.11257e-06 4.48991e-06)
(3.40414e-05 -6.96788e-06 5.11709e-06)
(3.05929e-05 -6.87447e-06 5.75984e-06)
(2.57935e-05 -6.94594e-06 6.33002e-06)
(2.0059e-05 -7.03369e-06 6.80019e-06)
(1.36476e-05 -7.13809e-06 7.12708e-06)
(6.87236e-06 -7.20948e-06 7.29457e-06)
(-1.91534e-08 -7.24075e-06 7.30134e-06)
(-6.74191e-06 -7.23227e-06 7.14762e-06)
(-1.30491e-05 -7.1913e-06 6.83604e-06)
(-1.86291e-05 -7.16795e-06 6.38288e-06)
(-2.32298e-05 -7.16065e-06 5.83174e-06)
(-2.64405e-05 -7.31876e-06 5.2088e-06)
(-2.80792e-05 -7.51983e-06 4.60167e-06)
(-2.7902e-05 -7.89046e-06 4.01771e-06)
(-2.59115e-05 -7.72387e-06 3.59051e-06)
(-2.26142e-05 -7.42123e-06 3.1136e-06)
(-1.85087e-05 -6.8833e-06 2.55314e-06)
(-1.40997e-05 -6.11164e-06 1.82359e-06)
(-9.6335e-06 -4.93188e-06 8.45323e-07)
(-5.50757e-06 -3.17709e-06 -3.57034e-07)
(-1.89489e-06 -1.02396e-06 -1.35044e-06)
(1.78381e-07 8.19779e-07 -1.47193e-06)
(-2.30039e-06 4.80672e-06 -1.84082e-06)
(-1.01931e-06 3.59753e-06 -6.34045e-06)
(4.06874e-06 1.84118e-06 -7.68282e-06)
(9.1961e-06 3.48753e-07 -7.95174e-06)
(1.42227e-05 -4.7618e-07 -8.16714e-06)
(1.89877e-05 -6.65794e-07 -8.62373e-06)
(2.35649e-05 -2.97736e-07 -9.39772e-06)
(2.78918e-05 6.57917e-07 -1.05023e-05)
(3.18988e-05 2.26873e-06 -1.19431e-05)
(3.51071e-05 4.82527e-06 -1.37197e-05)
(3.72788e-05 8.14505e-06 -1.58011e-05)
(3.74456e-05 1.25561e-05 -1.81541e-05)
(3.53713e-05 1.63637e-05 -2.03719e-05)
(3.16959e-05 1.96677e-05 -2.22917e-05)
(2.66266e-05 2.20627e-05 -2.38426e-05)
(2.06769e-05 2.38225e-05 -2.50191e-05)
(1.40465e-05 2.49223e-05 -2.58137e-05)
(7.07374e-06 2.54583e-05 -2.62309e-05)
(-1.48292e-08 2.54395e-05 -2.62666e-05)
(-6.92969e-06 2.48656e-05 -2.59206e-05)
(-1.34463e-05 2.37292e-05 -2.51968e-05)
(-1.92276e-05 2.19347e-05 -2.40915e-05)
(-2.40812e-05 1.95138e-05 -2.26135e-05)
(-2.74946e-05 1.61963e-05 -2.07719e-05)
(-2.92706e-05 1.24115e-05 -1.86453e-05)
(-2.87733e-05 8.07362e-06 -1.6414e-05)
(-2.62625e-05 4.92191e-06 -1.44975e-05)
(-2.2683e-05 2.63519e-06 -1.29411e-05)
(-1.82074e-05 1.51723e-06 -1.18082e-05)
(-1.32805e-05 1.4091e-06 -1.11075e-05)
(-7.9175e-06 2.37551e-06 -1.07468e-05)
(-2.40397e-06 4.34632e-06 -1.03588e-05)
(2.88099e-06 6.61571e-06 -8.648e-06)
(3.51364e-06 7.85518e-06 -2.73759e-06)
(-3.94855e-06 1.39368e-05 -1.64119e-06)
(-3.4235e-06 1.47734e-05 -8.01361e-06)
(2.37382e-06 1.42494e-05 -1.0136e-05)
(8.26247e-06 1.38975e-05 -1.08378e-05)
(1.40841e-05 1.44772e-05 -1.14202e-05)
(1.9572e-05 1.61538e-05 -1.22847e-05)
(2.49061e-05 1.90435e-05 -1.35821e-05)
(3.01104e-05 2.34226e-05 -1.53802e-05)
(3.52562e-05 2.96058e-05 -1.77174e-05)
(3.96361e-05 3.82947e-05 -2.06218e-05)
(4.28516e-05 4.90502e-05 -2.4014e-05)
(4.31566e-05 6.20362e-05 -2.77223e-05)
(4.03644e-05 7.34893e-05 -3.12399e-05)
(3.57712e-05 8.35054e-05 -3.43125e-05)
(2.96625e-05 9.11313e-05 -3.68139e-05)
(2.28011e-05 9.68727e-05 -3.87169e-05)
(1.52839e-05 0.000100615 -4e-05)
(7.48091e-06 0.000102513 -4.06715e-05)
(-4.36293e-07 0.000102559 -4.07242e-05)
(-8.17833e-06 0.000100752 -4.01578e-05)
(-1.55753e-05 9.71057e-05 -3.89792e-05)
(-2.2255e-05 9.14663e-05 -3.71817e-05)
(-2.81267e-05 8.39649e-05 -3.47884e-05)
(-3.24206e-05 7.41052e-05 -3.18321e-05)
(-3.48669e-05 6.28862e-05 -2.84481e-05)
(-3.41498e-05 5.02117e-05 -2.49067e-05)
(-3.04694e-05 3.99554e-05 -2.17336e-05)
(-2.55327e-05 3.19323e-05 -1.91169e-05)
(-1.96179e-05 2.67083e-05 -1.71527e-05)
(-1.33733e-05 2.36707e-05 -1.57949e-05)
(-6.68745e-06 2.25491e-05 -1.48561e-05)
(-4.78675e-08 2.28638e-05 -1.38146e-05)
(6.23515e-06 2.33743e-05 -1.09986e-05)
(5.80807e-06 2.18917e-05 -2.60393e-06)
(-5.07322e-06 2.36915e-05 -1.03415e-06)
(-4.92388e-06 2.584e-05 -8.21678e-06)
(1.67756e-06 2.62982e-05 -1.06164e-05)
(8.56368e-06 2.71933e-05 -1.1429e-05)
(1.55398e-05 2.93596e-05 -1.2121e-05)
(2.22662e-05 3.30669e-05 -1.31489e-05)
(2.90737e-05 3.85981e-05 -1.47054e-05)
(3.61101e-05 4.65265e-05 -1.68967e-05)
(4.36978e-05 5.75469e-05 -1.97739e-05)
(5.06735e-05 7.31287e-05 -2.33942e-05)
(5.64296e-05 9.2736e-05 -2.76243e-05)
(5.71239e-05 0.000117146 -3.23216e-05)
(5.25215e-05 0.000138069 -3.67447e-05)
(4.57158e-05 0.000156056 -4.05972e-05)
(3.71692e-05 0.000169554 -4.37214e-05)
(2.8129e-05 0.000179729 -4.60752e-05)
(1.8448e-05 0.000186374 -4.76449e-05)
(8.56591e-06 0.00018977 -4.84616e-05)
(-1.43866e-06 0.000189883 -4.85196e-05)
(-1.12573e-05 0.000186714 -4.7818e-05)
(-2.08125e-05 0.000180297 -4.63621e-05)
(-2.96555e-05 0.000170355 -4.41217e-05)
(-3.79366e-05 0.000157118 -4.11118e-05)
(-4.43847e-05 0.000139433 -3.73809e-05)
(-4.85593e-05 0.000118929 -3.30974e-05)
(-4.73129e-05 9.50493e-05 -2.85753e-05)
(-4.09181e-05 7.62681e-05 -2.45807e-05)
(-3.31724e-05 6.16688e-05 -2.1272e-05)
(-2.44895e-05 5.1951e-05 -1.87947e-05)
(-1.59919e-05 4.57086e-05 -1.70679e-05)
(-7.34858e-06 4.22778e-05 -1.58716e-05)
(8.22571e-07 4.08796e-05 -1.4617e-05)
(8.25726e-06 4.01535e-05 -1.14093e-05)
(7.3447e-06 3.69469e-05 -1.90474e-06)
(-5.72934e-06 3.36634e-05 -3.69563e-07)
(-5.48909e-06 3.68666e-05 -8.23629e-06)
(2.31751e-06 3.82343e-05 -1.08586e-05)
(1.05899e-05 4.04156e-05 -1.17353e-05)
(1.91587e-05 4.42993e-05 -1.25211e-05)
(2.76862e-05 5.01984e-05 -1.37411e-05)
(3.67601e-05 5.85165e-05 -1.5629e-05)
(4.67723e-05 7.01597e-05 -1.83351e-05)
(5.85992e-05 8.64255e-05 -2.18976e-05)
(7.0382e-05 0.000110239 -2.64168e-05)
(8.13766e-05 0.000141518 -3.16476e-05)
(8.28126e-05 0.000183003 -3.77276e-05)
(7.42971e-05 0.000216651 -4.33556e-05)
(6.3259e-05 0.000244769 -4.83011e-05)
(5.03424e-05 0.000265263 -5.23173e-05)
(3.75301e-05 0.000280739 -5.52708e-05)
(2.40685e-05 0.000290827 -5.72058e-05)
(1.05307e-05 0.000296006 -5.8204e-05)
(-3.1604e-06 0.000296197 -5.82665e-05)
(-1.66351e-05 0.000291394 -5.7392e-05)
(-2.99709e-05 0.000281679 -5.55777e-05)
(-4.25744e-05 0.000266566 -5.27424e-05)
(-5.5199e-05 0.000246459 -4.88417e-05)
(-6.58063e-05 0.000218756 -4.40168e-05)
(-7.37894e-05 0.000185684 -3.85278e-05)
(-7.15967e-05 0.000144901 -3.26244e-05)
(-5.97524e-05 0.000114811 -2.76453e-05)
(-4.70047e-05 9.22598e-05 -2.34611e-05)
(-3.37597e-05 7.75916e-05 -2.0333e-05)
(-2.18738e-05 6.79451e-05 -1.81395e-05)
(-1.048e-05 6.21094e-05 -1.66594e-05)
(-1.56827e-07 5.90092e-05 -1.52184e-05)
(9.02903e-06 5.71674e-05 -1.16539e-05)
(8.27391e-06 5.25719e-05 -1.12548e-06)
(-6.1429e-06 4.315e-05 2.70314e-07)
(-5.34692e-06 4.71569e-05 -8.39034e-06)
(4.22819e-06 4.93518e-05 -1.12988e-05)
(1.43936e-05 5.27742e-05 -1.22691e-05)
(2.50598e-05 5.84147e-05 -1.31993e-05)
(3.59414e-05 6.65356e-05 -1.47089e-05)
(4.80064e-05 7.75503e-05 -1.70751e-05)
(6.21037e-05 9.26142e-05 -2.04946e-05)
(8.0294e-05 0.000113856 -2.49131e-05)
(0.000100086 0.00014681 -3.04554e-05)
(0.000121546 0.00019297 -3.63722e-05)
(0.000124542 0.000261816 -4.41331e-05)
(0.000108121 0.000312519 -5.12734e-05)
(8.99237e-05 0.000353018 -5.78634e-05)
(7.02112e-05 0.000381345 -6.32971e-05)
(5.18279e-05 0.000402868 -6.70764e-05)
(3.26563e-05 0.000416853 -6.94867e-05)
(1.35603e-05 0.000424076 -7.07157e-05)
(-5.76996e-06 0.000424353 -7.07853e-05)
(-2.48104e-05 0.000417677 -6.96935e-05)
(-4.38726e-05 0.00040422 -6.74152e-05)
(-6.20562e-05 0.000383187 -6.37633e-05)
(-8.14757e-05 0.000355345 -5.8449e-05)
(-9.91729e-05 0.000315319 -5.19807e-05)
(-0.000114955 0.000265298 -4.49825e-05)
(-0.000110894 0.000197232 -3.73912e-05)
(-8.83237e-05 0.000152766 -3.17483e-05)
(-6.74356e-05 0.00012132 -2.65712e-05)
(-4.74934e-05 0.00010192 -2.26377e-05)
(-3.10589e-05 8.91354e-05 -1.98027e-05)
(-1.60708e-05 8.10417e-05 -1.79224e-05)
(-2.84015e-06 7.63736e-05 -1.62059e-05)
(8.91086e-06 7.35777e-05 -1.21579e-05)
(8.92552e-06 6.78884e-05 -3.81572e-07)
(-6.45975e-06 5.18515e-05 9.40129e-07)
(-4.64996e-06 5.6559e-05 -8.72407e-06)
(7.37097e-06 5.9577e-05 -1.20638e-05)
(2.00072e-05 6.43516e-05 -1.31717e-05)
(3.33372e-05 7.19691e-05 -1.4312e-05)
(4.70628e-05 8.25261e-05 -1.62144e-05)
(6.2589e-05 9.62095e-05 -1.91932e-05)
(8.14665e-05 0.000113922 -2.34903e-05)
(0.000108088 0.00013852 -2.88431e-05)
(0.000139766 0.000178582 -3.52002e-05)
(0.000182027 0.000241731 -4.06511e-05)
(0.000188697 0.000356819 -5.01019e-05)
(0.000155999 0.000429741 -5.85642e-05)
(0.000126532 0.000485303 -6.75188e-05)
(9.73062e-05 0.000522757 -7.51756e-05)
(7.15828e-05 0.000551783 -7.98585e-05)
(4.45746e-05 0.000570682 -8.27869e-05)
(1.78008e-05 0.000580502 -8.42593e-05)
(-9.38059e-06 0.000580887 -8.43388e-05)
(-3.61194e-05 0.000571821 -8.30225e-05)
(-6.30641e-05 0.000553638 -8.02426e-05)
(-8.8641e-05 0.00052524 -7.57021e-05)
(-0.000117636 0.000488347 -6.81719e-05)
(-0.000146568 0.000433229 -5.93471e-05)
(-0.000178574 0.000360986 -5.10432e-05)
(-0.000170318 0.00024654 -4.17454e-05)
(-0.000126592 0.000185979 -3.66076e-05)
(-9.38776e-05 0.00014757 -3.06415e-05)
(-6.51441e-05 0.000124968 -2.58383e-05)
(-4.33522e-05 0.000109762 -2.22173e-05)
(-2.40744e-05 9.94617e-05 -1.98221e-05)
(-7.14216e-06 9.31537e-05 -1.77143e-05)
(8.13619e-06 8.92632e-05 -1.29873e-05)
(9.49927e-06 8.25974e-05 4.06257e-07)
(-6.70468e-06 5.94334e-05 1.69931e-06)
(-3.42071e-06 6.47428e-05 -9.24773e-06)
(1.18873e-05 6.85874e-05 -1.31457e-05)
(2.78071e-05 7.48856e-05 -1.44595e-05)
(4.45374e-05 8.47715e-05 -1.58841e-05)
(6.16231e-05 9.80536e-05 -1.82902e-05)
(8.05683e-05 0.000114317 -2.20331e-05)
(0.000103535 0.000133216 -2.74498e-05)
(0.000137664 0.000156796 -3.38096e-05)
(0.000183564 0.000198939 -4.14097e-05)
(0.000267795 0.000274606 -4.05123e-05)
(0.000284311 0.000473415 -4.94528e-05)
(0.000219839 0.000569845 -5.95523e-05)
(0.000175654 0.000639334 -7.28781e-05)
(0.000134542 0.000685205 -8.43171e-05)
(9.94942e-05 0.000721479 -8.98761e-05)
(6.15641e-05 0.00074532 -9.32957e-05)
(2.38723e-05 0.000757825 -9.49864e-05)
(-1.45404e-05 0.000758344 -9.50771e-05)
(-5.22336e-05 0.000746853 -9.35641e-05)
(-9.01888e-05 0.000723965 -9.03132e-05)
(-0.00012522 0.000688494 -8.49195e-05)
(-0.000166301 0.000643252 -7.36219e-05)
(-0.000210052 0.000574049 -6.04486e-05)
(-0.00027401 0.000478201 -5.05848e-05)
(-0.000254881 0.000279555 -4.16945e-05)
(-0.000168652 0.000208396 -4.29114e-05)
(-0.000122245 0.000167633 -3.57461e-05)
(-8.55292e-05 0.000145965 -3.00354e-05)
(-5.88794e-05 0.000129625 -2.54207e-05)
(-3.5016e-05 0.000117117 -2.23939e-05)
(-1.35428e-05 0.000108888 -1.98057e-05)
(6.53615e-06 0.000103743 -1.40776e-05)
(1.0046e-05 9.62182e-05 1.37306e-06)
(-6.91635e-06 6.56345e-05 2.56191e-06)
(-1.66354e-06 7.14424e-05 -9.95688e-06)
(1.78845e-05 7.63028e-05 -1.45497e-05)
(3.80624e-05 8.45884e-05 -1.61293e-05)
(5.91454e-05 9.7682e-05 -1.78896e-05)
(8.02715e-05 0.000115262 -2.08475e-05)
(0.000102316 0.000136279 -2.543e-05)
(0.00012659 0.000157124 -3.20915e-05)
(0.000164509 0.000178361 -4.05555e-05)
(0.000216724 0.000211306 -4.80307e-05)
(0.000380581 0.00023242 -4.94799e-05)
(0.000422252 0.000592006 -4.35522e-05)
(0.000291479 0.00072136 -5.17899e-05)
(0.000234143 0.000810697 -7.18954e-05)
(0.000181019 0.000870214 -8.84173e-05)
(0.000134934 0.000919166 -9.45013e-05)
(8.3378e-05 0.000951684 -9.88007e-05)
(3.17445e-05 0.000968565 -0.000100838)
(-2.11211e-05 0.000969258 -0.000100935)
(-7.28073e-05 0.000953736 -9.90895e-05)
(-0.000124518 0.000922517 -9.4967e-05)
(-0.000170812 0.000874666 -8.90617e-05)
(-0.00022434 0.000815959 -7.26823e-05)
(-0.000281523 0.000726805 -5.27708e-05)
(-0.000412507 0.00059767 -4.48513e-05)
(-0.000366149 0.000235463 -5.11745e-05)
(-0.000199729 0.00022199 -4.98166e-05)
(-0.000148751 0.000190347 -4.26576e-05)
(-0.000107355 0.000171119 -3.49872e-05)
(-7.83425e-05 0.000152808 -2.92894e-05)
(-4.9814e-05 0.000135836 -2.56006e-05)
(-2.25897e-05 0.000124066 -2.24716e-05)
(3.95591e-06 0.000116888 -1.5507e-05)
(1.0557e-05 0.000108353 2.55393e-06)
(-7.02658e-06 6.98666e-05 3.44459e-06)
(8.79837e-07 7.59515e-05 -1.08594e-05)
(2.60494e-05 8.17677e-05 -1.62869e-05)
(5.21928e-05 9.20369e-05 -1.82008e-05)
(7.99223e-05 0.000108569 -2.03771e-05)
(0.000108003 0.000131277 -2.39817e-05)
(0.000134963 0.000158357 -2.94695e-05)
(0.000161342 0.00018186 -3.85012e-05)
(0.000193672 0.000188656 -4.86584e-05)
(0.000158574 0.000110727 -7.12814e-05)
(0.000454905 0.000213734 -7.28045e-05)
(0.000617209 0.000844416 -1.66362e-05)
(0.00038252 0.000915015 -1.82177e-05)
(0.000322873 0.000978263 -4.07274e-05)
(0.000255819 0.00104345 -6.04155e-05)
(0.000192338 0.0010974 -6.25654e-05)
(0.000118329 0.00113617 -6.56403e-05)
(4.40627e-05 0.00115624 -6.72221e-05)
(-3.15992e-05 0.00115712 -6.72977e-05)
(-0.000105947 0.00113881 -6.58689e-05)
(-0.000180223 0.00110173 -6.29167e-05)
(-0.000244171 0.00104929 -6.09432e-05)
(-0.000312195 0.000985196 -4.13811e-05)
(-0.000372495 0.00092183 -1.90723e-05)
(-0.000611634 0.000847773 -1.8212e-05)
(-0.000441894 0.000217003 -7.52081e-05)
(-0.000139878 0.000129404 -7.2357e-05)
(-0.000177968 0.000205064 -5.0462e-05)
(-0.000141098 0.000197702 -4.16472e-05)
(-0.00010896 0.000175825 -3.3922e-05)
(-7.36234e-05 0.000152719 -2.96026e-05)
(-3.71977e-05 0.000136374 -2.58738e-05)
(-9.69142e-07 0.000126782 -1.73606e-05)
(1.05663e-05 0.000117476 4.05239e-06)
(-7.1475e-06 7.16439e-05 4.2728e-06)
(3.89229e-06 7.79383e-05 -1.19548e-05)
(3.5713e-05 8.46978e-05 -1.83484e-05)
(6.91932e-05 9.71316e-05 -2.0676e-05)
(0.000105816 0.000118175 -2.33462e-05)
(0.000144098 0.000150021 -2.73781e-05)
(0.000180082 0.000195663 -3.29414e-05)
(0.000206275 0.000257033 -3.85409e-05)
(0.000168322 0.000336504 -5.73355e-05)
(0.000171262 0.000384929 -9.00344e-05)
(0.000277699 0.000724921 7.16829e-05)
(0.000312785 0.00092459 3.33081e-05)
(0.000385718 0.00105158 1.99134e-05)
(0.000336643 0.0011648 1.99265e-05)
(0.000254379 0.0012451 1.52143e-05)
(0.000158131 0.0012984 1.03428e-05)
(5.81666e-05 0.0013244 8.09726e-06)
(-4.33076e-05 0.00132541 8.10218e-06)
(-0.000143374 0.00130147 1.03498e-05)
(-0.000239936 0.00125032 1.52279e-05)
(-0.000322863 0.00117233 1.9958e-05)
(-0.000373675 0.00106159 2.00289e-05)
(-0.000304777 0.000937011 3.303e-05)
(-0.000272697 0.000737301 7.01456e-05)
(-0.000167519 0.000397172 -8.72119e-05)
(-0.000160918 0.000350861 -5.86983e-05)
(-0.00018943 0.000271789 -4.22623e-05)
(-0.000153864 0.000212562 -3.83227e-05)
(-0.000106518 0.000171272 -3.42575e-05)
(-5.6933e-05 0.000146349 -3.01749e-05)
(-7.81885e-06 0.000133125 -1.98325e-05)
(1.033e-05 0.000122573 5.56952e-06)
(-6.98576e-06 7.02389e-05 5.13181e-06)
(7.79925e-06 7.66032e-05 -1.31784e-05)
(4.76309e-05 8.3341e-05 -2.06248e-05)
(9.11341e-05 9.59579e-05 -2.34839e-05)
(0.000142711 0.000117572 -2.69582e-05)
(0.000205753 0.000150999 -3.22496e-05)
(0.000285608 0.000200892 -3.95061e-05)
(0.000395824 0.000273222 -4.55951e-05)
(0.000527734 0.000378252 -4.9065e-05)
(0.000792965 0.000527296 -3.10848e-05)
(0.000820916 0.000147197 5.1251e-05)
(0.000631651 0.000307442 7.2121e-05)
(0.000699466 0.000681783 0.00013105)
(0.000629617 0.000892913 0.00018615)
(0.000502846 0.00104233 0.000217075)
(0.000359663 0.00114138 0.000226756)
(0.000216649 0.00120235 0.000227731)
(7.7432e-05 0.0012313 0.000227313)
(-6.01208e-05 0.00123226 0.000227376)
(-0.000199267 0.00120529 0.00022792)
(-0.000342156 0.00114644 0.000227094)
(-0.000485112 0.00104981 0.000217681)
(-0.000611726 0.000903233 0.000187336)
(-0.000681605 0.000695471 0.000132918)
(-0.000612124 0.0003239 7.52908e-05)
(-0.000808935 0.000150459 5.39405e-05)
(-0.000787896 0.000529869 -3.01309e-05)
(-0.000517235 0.000387311 -5.0921e-05)
(-0.000378443 0.000285429 -4.97095e-05)
(-0.000258188 0.000216441 -4.59056e-05)
(-0.000164865 0.000171401 -4.06233e-05)
(-8.75841e-05 0.000145156 -3.55248e-05)
(-1.91993e-05 0.000131632 -2.308e-05)
(8.42073e-06 0.000120893 7.20165e-06)
(-6.89129e-06 6.57671e-05 6.05351e-06)
(1.10188e-05 7.17897e-05 -1.44074e-05)
(5.75576e-05 7.74891e-05 -2.27962e-05)
(0.000109014 8.80077e-05 -2.61549e-05)
(0.000170993 0.000105417 -3.03524e-05)
(0.000248113 0.000130616 -3.67741e-05)
(0.000346578 0.000163654 -4.5354e-05)
(0.000477718 0.000201845 -5.30929e-05)
(0.000634585 0.000234327 -5.59408e-05)
(0.000866945 0.000251037 -4.28297e-05)
(0.000976384 0.000123353 -1.612e-05)
(0.000949867 0.000311308 3.14838e-05)
(0.000920945 0.000504637 0.000140624)
(0.000788846 0.000647036 0.000212481)
(0.000621186 0.000757164 0.000249459)
(0.000438399 0.000830588 0.000264363)
(0.000261697 0.000876773 0.000267851)
(9.25407e-05 0.000899049 0.000268315)
(-7.33193e-05 0.00089984 0.000268379)
(-0.000242348 0.000879162 0.000268042)
(-0.000418816 0.000834615 0.000264717)
(-0.000601226 0.000762855 0.000250106)
(-0.000768818 0.000654338 0.000213789)
(-0.000901272 0.000512933 0.000142818)
(-0.000931077 0.000319496 3.53823e-05)
(-0.000963125 0.00012657 -1.35967e-05)
(-0.000858407 0.000257848 -4.25163e-05)
(-0.000623822 0.000243501 -5.81601e-05)
(-0.000459929 0.000213387 -5.78046e-05)
(-0.000317559 0.000178369 -5.27157e-05)
(-0.000203562 0.000150029 -4.64805e-05)
(-0.000109436 0.00013161 -4.04019e-05)
(-2.68422e-05 0.000121639 -2.60031e-05)
(7.8086e-06 0.000112285 8.71353e-06)
(-6.86259e-06 5.89877e-05 6.92837e-06)
(1.36548e-05 6.42838e-05 -1.54393e-05)
(6.58484e-05 6.88419e-05 -2.46477e-05)
(0.000123727 7.70374e-05 -2.84226e-05)
(0.000193506 9.02701e-05 -3.32436e-05)
(0.000279979 0.000108673 -4.07903e-05)
(0.000389262 0.000131271 -5.11819e-05)
(0.000530172 0.000155928 -6.23741e-05)
(0.000695087 0.000176085 -7.03847e-05)
(0.000893275 0.000192727 -6.77885e-05)
(0.00102677 0.000160127 -4.84451e-05)
(0.00108313 0.000250104 1.29325e-05)
(0.00104996 0.000366644 0.000126378)
(0.000895631 0.000463178 0.000196472)
(0.000700526 0.000538908 0.000232217)
(0.000490305 0.00058851 0.000241502)
(0.000291608 0.000620041 0.000241173)
(0.000102623 0.000635242 0.000239686)
(-8.19064e-05 0.000635887 0.000239715)
(-0.000270741 0.000621977 0.000241257)
(-0.000469173 0.000591732 0.000241676)
(-0.000679003 0.000543378 0.00023261)
(-0.000874183 0.000468813 0.000197475)
(-0.00102914 0.000373091 0.00012826)
(-0.00106532 0.000257055 1.65495e-05)
(-0.00101443 0.000165128 -4.6284e-05)
(-0.000883667 0.000199064 -6.74128e-05)
(-0.000683251 0.000184291 -7.26765e-05)
(-0.000511015 0.000166436 -6.73996e-05)
(-0.000357972 0.000144808 -5.91911e-05)
(-0.000231435 0.000126551 -5.14502e-05)
(-0.000125682 0.000114152 -4.43411e-05)
(-3.22213e-05 0.000107202 -2.82365e-05)
(7.64585e-06 9.93031e-05 1.02126e-05)
(-7.04981e-06 5.02831e-05 7.64742e-06)
(1.53101e-05 5.46425e-05 -1.62472e-05)
(7.16516e-05 5.7957e-05 -2.61256e-05)
(0.00013385 6.37177e-05 -3.02222e-05)
(0.000208293 7.27944e-05 -3.55085e-05)
(0.000299426 8.49203e-05 -4.38985e-05)
(0.000413135 9.89229e-05 -5.56376e-05)
(0.000556368 0.000113476 -6.90614e-05)
(0.000722819 0.000124816 -7.98385e-05)
(0.000909716 0.000137006 -8.04828e-05)
(0.00105957 0.00013745 -6.1149e-05)
(0.00115567 0.000192341 -3.07699e-06)
(0.0011246 0.000264311 0.000107669)
(0.000957537 0.000324363 0.000170729)
(0.000747969 0.000372233 0.000200861)
(0.000522512 0.000404515 0.000204451)
(0.000310679 0.000425486 0.000200657)
(0.000109192 0.000435762 0.000197429)
(-8.72834e-05 0.000436324 0.000197424)
(-0.000288643 0.000427153 0.000200637)
(-0.000500268 0.000407241 0.000204445)
(-0.000725423 0.000375926 0.000200992)
(-0.000935262 0.000328906 0.000171407)
(-0.00110319 0.00026944 0.000109214)
(-0.00113808 0.000197905 3.05565e-07)
(-0.00104722 0.000142614 -5.91478e-05)
(-0.000899161 0.000143232 -8.02464e-05)
(-0.000709846 0.000132422 -8.22763e-05)
(-0.000535627 0.000122976 -7.43584e-05)
(-0.000379408 0.00011103 -6.41154e-05)
(-0.000247039 0.000100711 -5.52207e-05)
(-0.000134901 9.35115e-05 -4.72892e-05)
(-3.46024e-05 8.93196e-05 -2.9846e-05)
(8.25215e-06 8.31072e-05 1.13821e-05)
(-7.29124e-06 4.03284e-05 8.20902e-06)
(1.63326e-05 4.37382e-05 -1.68503e-05)
(7.56518e-05 4.60405e-05 -2.72395e-05)
(0.000140794 4.99256e-05 -3.15686e-05)
(0.000218184 5.59922e-05 -3.71828e-05)
(0.000311914 6.39882e-05 -4.61682e-05)
(0.000427764 7.31074e-05 -5.88585e-05)
(0.000571722 8.2798e-05 -7.37497e-05)
(0.000739018 9.13678e-05 -8.62344e-05)
(0.000923956 0.00010243 -8.86826e-05)
(0.00108463 0.000112826 -6.90928e-05)
(0.0011996 0.000148278 -1.24406e-05)
(0.00117056 0.000192788 9.65068e-05)
(0.000997218 0.000231547 0.000155263)
(0.000778782 0.000262845 0.000181602)
(0.000543658 0.000284416 0.000181607)
(0.00032332 0.00029859 0.000175562)
(0.000113664 0.00030567 0.00017122)
(-9.06758e-05 0.000306206 0.000171198)
(-0.000300246 0.000300174 0.000175488)
(-0.000520457 0.000286977 0.000181507)
(-0.0007554 0.000266268 0.000181593)
(-0.000974294 0.000235692 0.000155765)
(-0.00114871 0.00019745 9.78769e-05)
(-0.00118196 0.000153376 -9.16818e-06)
(-0.00107201 0.000117925 -6.71983e-05)
(-0.000912646 0.000108241 -8.85313e-05)
(-0.000725008 9.8152e-05 -8.87932e-05)
(-0.000549461 9.1036e-05 -7.92469e-05)
(-0.000391795 8.33939e-05 -6.76589e-05)
(-0.000256207 7.71397e-05 -5.79317e-05)
(-0.00014025 7.28732e-05 -4.93936e-05)
(-3.55568e-05 7.03223e-05 -3.09679e-05)
(8.98463e-06 6.55468e-05 1.22698e-05)
(-7.54679e-06 2.95637e-05 8.59169e-06)
(1.68611e-05 3.19934e-05 -1.72871e-05)
(7.81402e-05 3.34435e-05 -2.80353e-05)
(0.000145145 3.5829e-05 -3.25169e-05)
(0.000224312 3.95732e-05 -3.83337e-05)
(0.000319506 4.4549e-05 -4.76769e-05)
(0.00043656 5.03607e-05 -6.09216e-05)
(0.000581167 5.69257e-05 -7.66043e-05)
(0.000749834 6.37264e-05 -8.99543e-05)
(0.000936071 7.32039e-05 -9.31606e-05)
(0.00110343 8.45594e-05 -7.36601e-05)
(0.00122789 0.000107427 -1.76692e-05)
(0.00120009 0.000135103 9.13353e-05)
(0.00102284 0.000159635 0.000148455)
(0.000798902 0.000179611 0.000173097)
(0.000557777 0.000193824 0.000171478)
(0.000331921 0.000203327 0.000164425)
(0.000116841 0.000208232 0.000159589)
(-9.27945e-05 0.000208783 0.000159562)
(-0.000307844 0.000204949 0.000164336)
(-0.000533685 0.000196421 0.000171349)
(-0.000774781 0.000183035 0.000173042)
(-0.00099936 0.0001637 0.000148893)
(-0.00117782 0.0001396 9.26467e-05)
(-0.00121006 0.000112241 -1.43106e-05)
(-0.00109059 8.94058e-05 -7.18364e-05)
(-0.000924222 7.84428e-05 -9.31076e-05)
(-0.00073502 6.95586e-05 -9.26415e-05)
(-0.000557707 6.37138e-05 -8.2279e-05)
(-0.000398846 5.85372e-05 -6.99712e-05)
(-0.000261296 5.46694e-05 -5.97577e-05)
(-0.000143073 5.21846e-05 -5.084e-05)
(-3.57104e-05 5.06881e-05 -3.17562e-05)
(9.69819e-06 4.73144e-05 1.28354e-05)
(-7.74132e-06 1.84025e-05 8.80736e-06)
(1.71016e-05 1.98596e-05 -1.7582e-05)
(7.95376e-05 2.06045e-05 -2.85501e-05)
(0.000147652 2.18048e-05 -3.31193e-05)
(0.000227909 2.37581e-05 -3.90468e-05)
(0.000324078 2.64993e-05 -4.8581e-05)
(0.000442081 2.99938e-05 -6.21163e-05)
(0.000587562 3.43871e-05 -7.81927e-05)
(0.000757689 3.97233e-05 -9.1956e-05)
(0.000945711 4.70464e-05 -9.54693e-05)
(0.00111686 5.62013e-05 -7.59644e-05)
(0.00124577 6.97385e-05 -1.99576e-05)
(0.00121847 8.49924e-05 8.96512e-05)
(0.00103891 9.87812e-05 0.000146544)
(0.000811664 0.000110091 0.000170736)
(0.000566922 0.000118479 0.000168607)
(0.000337604 0.000124213 0.000161222)
(0.000119098 0.000127353 0.000156225)
(-9.39323e-05 0.000127953 0.000156201)
(-0.00031248 0.000125976 0.000161137)
(-0.000541922 0.000121282 0.000168482)
(-0.000786833 0.000113745 0.000170683)
(-0.00101496 0.00010303 0.000146976)
(-0.00119595 8.9565e-05 9.09346e-05)
(-0.00122787 7.43869e-05 -1.67347e-05)
(-0.00110392 6.07643e-05 -7.42223e-05)
(-0.000933597 5.16771e-05 -9.55128e-05)
(-0.000742424 4.45434e-05 -9.47676e-05)
(-0.000563379 3.96286e-05 -8.40243e-05)
(-0.00040329 3.59065e-05 -7.13641e-05)
(-0.000264325 3.33885e-05 -6.08973e-05)
(-0.000144655 3.19067e-05 -5.17706e-05)
(-3.56974e-05 3.10406e-05 -3.22923e-05)
(1.01811e-05 2.89833e-05 1.31438e-05)
(-7.85451e-06 7.12703e-06 8.85741e-06)
(1.71287e-05 7.60159e-06 -1.77506e-05)
(8.00028e-05 7.67549e-06 -2.88072e-05)
(0.000148587 7.76861e-06 -3.34066e-05)
(0.000229393 8.05887e-06 -3.93659e-05)
(0.000326214 8.72945e-06 -4.89524e-05)
(0.000445041 1.00792e-05 -6.25619e-05)
(0.000591568 1.24018e-05 -7.87318e-05)
(0.000763017 1.61416e-05 -9.25903e-05)
(0.000952479 2.11009e-05 -9.61691e-05)
(0.00112506 2.74169e-05 -7.66815e-05)
(0.00125484 3.28324e-05 -2.0587e-05)
(0.00122729 3.70263e-05 8.94624e-05)
(0.00104665 4.09788e-05 0.000146657)
(0.000817937 4.42297e-05 0.000170983)
(0.000571635 4.71201e-05 0.000168902)
(0.000340697 4.92982e-05 0.000161525)
(0.000120558 5.07865e-05 0.000156528)
(-9.41496e-05 5.14686e-05 0.000156507)
(-0.000314421 5.13e-05 0.000161445)
(-0.000545658 5.02852e-05 0.000168784)
(-0.000792386 4.83254e-05 0.000170936)
(-0.00102228 4.56578e-05 0.000147084)
(-0.00120466 4.19317e-05 9.07215e-05)
(-0.00123705 3.75715e-05 -1.74485e-05)
(-0.00111225 3.17828e-05 -7.5033e-05)
(-0.000940422 2.51796e-05 -9.63295e-05)
(-0.000747709 1.99886e-05 -9.55385e-05)
(-0.00056721 1.61186e-05 -8.47172e-05)
(-0.000405925 1.37351e-05 -7.19797e-05)
(-0.000265945 1.23834e-05 -6.14501e-05)
(-0.000145433 1.17454e-05 -5.22608e-05)
(-3.5719e-05 1.14294e-05 -3.26206e-05)
(1.03912e-05 1.07044e-05 1.32124e-05)
(-7.88804e-06 -3.96509e-06 8.74309e-06)
(1.69394e-05 -4.47471e-06 -1.77948e-05)
(7.95321e-05 -5.11326e-06 -2.881e-05)
(0.000147943 -6.21684e-06 -3.33847e-05)
(0.000228745 -7.74581e-06 -3.93059e-05)
(0.000325875 -9.37744e-06 -4.88133e-05)
(0.000445375 -1.0468e-05 -6.22963e-05)
(0.000593079 -1.04885e-05 -7.82677e-05)
(0.000765749 -8.36702e-06 -9.19063e-05)
(0.000956432 -5.43058e-06 -9.53214e-05)
(0.00112833 -7.41208e-07 -7.59109e-05)
(0.00125542 -3.0841e-06 -1.97803e-05)
(0.00122667 -1.06418e-05 9.04709e-05)
(0.00104607 -1.71377e-05 0.000148385)
(0.000817718 -2.24856e-05 0.000173347)
(0.000571919 -2.5375e-05 0.000171815)
(0.000341216 -2.6912e-05 0.000164748)
(0.000121248 -2.71148e-05 0.000159902)
(-9.34082e-05 -2.62984e-05 0.000159882)
(-0.000313619 -2.45125e-05 0.000164676)
(-0.000544832 -2.15851e-05 0.0001717)
(-0.000791379 -1.7589e-05 0.00017329)
(-0.00102131 -1.1611e-05 0.000148772)
(-0.00120407 -4.97404e-06 9.16547e-05)
(-0.00123799 2.09337e-06 -1.67596e-05)
(-0.00111595 3.64492e-06 -7.44054e-05)
(-0.000944767 -1.69096e-06 -9.56426e-05)
(-0.00075082 -5.26798e-06 -9.50161e-05)
(-0.0005691 -8.05097e-06 -8.44038e-05)
(-0.000406682 -8.82516e-06 -7.18493e-05)
(-0.000266117 -8.72649e-06 -6.14364e-05)
(-0.000145385 -8.30585e-06 -5.23235e-05)
(-3.57583e-05 -7.95471e-06 -3.27488e-05)
(1.03391e-05 -7.33218e-06 1.3043e-05)
(-7.86704e-06 -1.45804e-05 8.46096e-06)
(1.64561e-05 -1.60941e-05 -1.77048e-05)
(7.79636e-05 -1.75923e-05 -2.85436e-05)
(0.000145426 -2.02053e-05 -3.30331e-05)
(0.00022549 -2.41002e-05 -3.88281e-05)
(0.000322352 -2.88754e-05 -4.81032e-05)
(0.000442158 -3.35352e-05 -6.12151e-05)
(0.00059119 -3.70857e-05 -7.66339e-05)
(0.000765263 -3.71384e-05 -8.96569e-05)
(0.000957983 -3.55728e-05 -9.25206e-05)
(0.0011272 -2.86453e-05 -7.31311e-05)
(0.00124665 -3.93201e-05 -1.66161e-05)
(0.00121517 -6.20584e-05 9.40442e-05)
(0.00103599 -8.21741e-05 0.00015376)
(0.000810142 -9.87436e-05 0.000180397)
(0.000567279 -0.000108885 0.000180403)
(0.000338914 -0.000114949 0.000174239)
(0.000121142 -0.000117141 0.000169815)
(-9.15425e-05 -0.000116114 0.000169775)
(-0.000309687 -0.000111918 0.000174104)
(-0.000538816 -0.000104078 0.000180178)
(-0.000782841 -9.24894e-05 0.000180181)
(-0.00101078 -7.51363e-05 0.000153935)
(-0.00119274 -5.49253e-05 9.49917e-05)
(-0.00122988 -3.31931e-05 -1.37999e-05)
(-0.00111554 -2.3939e-05 -7.18666e-05)
(-0.000946975 -3.18244e-05 -9.3107e-05)
(-0.000751059 -3.43909e-05 -9.30073e-05)
(-0.000568092 -3.54816e-05 -8.29674e-05)
(-0.000404619 -3.34414e-05 -7.09031e-05)
(-0.00026412 -3.07693e-05 -6.08035e-05)
(-0.000144049 -2.84853e-05 -5.19148e-05)
(-3.55946e-05 -2.70284e-05 -3.26513e-05)
(1.0081e-05 -2.49434e-05 1.26185e-05)
(-7.86729e-06 -2.42927e-05 7.99965e-06)
(1.54792e-05 -2.67761e-05 -1.74626e-05)
(7.48949e-05 -2.9262e-05 -2.79823e-05)
(0.00014031 -3.36993e-05 -3.23148e-05)
(0.000218395 -4.05616e-05 -3.78714e-05)
(0.00031371 -4.95171e-05 -4.66975e-05)
(0.000432652 -5.93218e-05 -5.90773e-05)
(0.000582673 -6.83637e-05 -7.33289e-05)
(0.000758743 -7.20576e-05 -8.49818e-05)
(0.000957309 -7.19425e-05 -8.63409e-05)
(0.00112194 -5.3408e-05 -6.73278e-05)
(0.00122483 -7.40204e-05 -1.00548e-05)
(0.00118772 -0.000121266 0.000101862)
(0.00101179 -0.000161196 0.000165291)
(0.000791819 -0.000193572 0.000195244)
(0.000555732 -0.000213757 0.00019847)
(0.000332781 -0.000226025 0.000194262)
(0.000119987 -0.000230912 0.000190768)
(-8.81463e-05 -0.000229551 0.000190675)
(-0.000301452 -0.000221976 0.000193963)
(-0.00052544 -0.000207266 0.000197959)
(-0.000763197 -0.000184968 0.000194627)
(-0.000985936 -0.000151418 0.000164968)
(-0.00116558 -0.000111278 0.000102265)
(-0.00120915 -6.58612e-05 -7.93018e-06)
(-0.00111127 -4.78392e-05 -6.64908e-05)
(-0.000947092 -6.75111e-05 -8.73733e-05)
(-0.000745515 -6.89571e-05 -8.87052e-05)
(-0.000560861 -6.68917e-05 -7.99241e-05)
(-0.000396895 -6.00765e-05 -6.88879e-05)
(-0.000257937 -5.3262e-05 -5.93979e-05)
(-0.000140171 -4.81057e-05 -5.0928e-05)
(-3.4606e-05 -4.50469e-05 -3.2268e-05)
(9.83506e-06 -4.14819e-05 1.18754e-05)
(-7.91557e-06 -3.26687e-05 7.38382e-06)