/*--------------------------------*- C++ -*----------------------------------*\
| =========                 |                                                 |
| \\      /  F ield         | OpenFOAM: The Open Source CFD Toolbox           |
|  \\    /   O peration     | Version:  2112                                  |
|   \\  /    A nd           | Website:  www.openfoam.com                      |
|    \\/     M anipulation  |                                                 |
\*---------------------------------------------------------------------------*/
FoamFile
{
    version     2.0;
    format      ascii;
    arch        "LSB;label=32;scalar=64";
    class       volScalarField;
    location    "0.4";
    object      epsilon;
}
// * * * * * * * * * * * * * * * * * * * * * * * * * * * * * * * * * * * * * //

dimensions      [0 2 -3 0 0 0 0];

internalField   nonuniform List<scalar> 
64906
(
0.0914652
0.0916627
0.091633
0.0916211
0.0916195
0.0916197
0.09162
0.0916204
0.0916209
0.0916213
0.0916218
0.0916222
0.0916225
0.0916228
0.0916229
0.0916231
0.0916231
0.0916231
0.0916231
0.0916231
0.091623
0.0916229
0.0916227
0.0916224
0.0916221
0.0916217
0.0916213
0.0916209
0.0916205
0.0916203
0.0916218
0.0916337
0.0916634
0.0914659
0.0916629
0.0991855
0.0998572
0.0998346
0.0998232
0.099822
0.0998225
0.0998231
0.0998239
0.0998247
0.0998256
0.0998264
0.0998272
0.0998279
0.0998285
0.099829
0.0998293
0.0998294
0.0998294
0.0998293
0.099829
0.0998286
0.099828
0.0998273
0.0998265
0.0998257
0.0998249
0.0998241
0.0998236
0.0998247
0.099836
0.0998585
0.0991868
0.0916639
0.0916336
0.0998577
0.100597
0.100561
0.100546
0.100544
0.100545
0.100546
0.100547
0.100548
0.100549
0.100551
0.100552
0.100554
0.100555
0.100555
0.100556
0.100556
0.100556
0.100556
0.100556
0.100555
0.100554
0.100552
0.100551
0.10055
0.100548
0.100547
0.100546
0.100548
0.100563
0.100599
0.0998594
0.0916348
0.091622
0.0998354
0.100561
0.10052
0.100504
0.100503
0.100503
0.100505
0.100506
0.100508
0.10051
0.100512
0.100514
0.100516
0.100518
0.100519
0.10052
0.10052
0.10052
0.10052
0.100519
0.100518
0.100516
0.100515
0.100512
0.10051
0.100508
0.100507
0.100506
0.100507
0.100523
0.100564
0.0998375
0.0916235
0.0916207
0.0998243
0.100546
0.100504
0.100488
0.100487
0.100488
0.10049
0.100492
0.100494
0.100497
0.100501
0.100504
0.100506
0.100509
0.10051
0.100512
0.100512
0.100512
0.100512
0.100511
0.100509
0.100507
0.100504
0.100501
0.100498
0.100495
0.100492
0.100491
0.100492
0.100507
0.100549
0.0998268
0.0916225
0.091621
0.0998233
0.100545
0.100503
0.100487
0.100486
0.100488
0.10049
0.100493
0.100497
0.100502
0.100506
0.10051
0.100514
0.100517
0.10052
0.100521
0.100522
0.100522
0.100522
0.10052
0.100517
0.100514
0.10051
0.100507
0.100502
0.100497
0.100494
0.100491
0.100491
0.100507
0.100548
0.0998263
0.0916233
0.0916216
0.0998239
0.100546
0.100504
0.100488
0.100488
0.10049
0.100493
0.100498
0.100507
0.100517
0.100522
0.100524
0.100528
0.100532
0.100536
0.100538
0.100539
0.100539
0.100538
0.100536
0.100533
0.100528
0.100524
0.100522
0.100517
0.100508
0.100499
0.100494
0.100494
0.100508
0.100549
0.0998274
0.0916242
0.0916221
0.0998246
0.100546
0.100505
0.10049
0.10049
0.100493
0.100498
0.100513
0.10054
0.100529
0.100563
0.10055
0.100549
0.100553
0.100558
0.100561
0.100562
0.100562
0.100561
0.100558
0.100554
0.100549
0.100551
0.100563
0.100529
0.100541
0.100513
0.1005
0.100497
0.100511
0.100551
0.0998287
0.0916252
0.0916226
0.0998253
0.100548
0.100507
0.100492
0.100492
0.100497
0.100512
0.100555
0.10053
0.0997959
0.100555
0.100595
0.100569
0.100568
0.100572
0.100576
0.100578
0.100578
0.100576
0.100572
0.100569
0.100569
0.100595
0.100555
0.099796
0.10053
0.100556
0.100513
0.100501
0.100513
0.100553
0.09983
0.0916261
0.091623
0.0998259
0.100549
0.100508
0.100494
0.100496
0.100505
0.100538
0.100528
0.099063
0.0920162
0.0990437
0.100464
0.100484
0.100467
0.100467
0.10047
0.100472
0.100472
0.10047
0.100467
0.100467
0.100484
0.100464
0.0990444
0.0920161
0.0990637
0.100529
0.100539
0.100509
0.100516
0.100555
0.0998312
0.0916268
0.0916233
0.0998265
0.10055
0.100509
0.100496
0.100499
0.100513
0.100523
0.0997894
0.0920137
0.0919374
0.099301
0.0999772
0.0999772
0.099973
0.0999744
0.0999757
0.0999758
0.0999745
0.0999731
0.0999774
0.0999775
0.0993016
0.0919379
0.0920144
0.0997905
0.100525
0.100517
0.10052
0.100557
0.0998323
0.0916274
0.0916234
0.0998269
0.10055
0.100511
0.100498
0.100502
0.100514
0.100551
0.100545
0.0990793
0.0920214
0.0989855
0.10042
0.100436
0.100414
0.100406
0.100404
0.100404
0.100404
0.100404
0.100406
0.100414
0.100436
0.10042
0.0989851
0.0920205
0.099079
0.100546
0.100552
0.100517
0.100522
0.100559
0.0998332
0.0916278
0.0916234
0.0998272
0.100551
0.100512
0.1005
0.100504
0.100513
0.100533
0.100582
0.100562
0.0998087
0.100538
0.100559
0.100516
0.100502
0.100495
0.100492
0.100491
0.100491
0.100492
0.100495
0.100502
0.100515
0.100558
0.100537
0.0998076
0.100562
0.100582
0.100534
0.100516
0.100524
0.10056
0.0998337
0.0916278
0.0916233
0.0998273
0.100552
0.100513
0.100501
0.100505
0.100514
0.100527
0.100549
0.100583
0.100563
0.100573
0.10053
0.100509
0.100497
0.100489
0.100484
0.100481
0.100481
0.100483
0.100489
0.100497
0.100508
0.10053
0.100571
0.100562
0.100583
0.100548
0.100527
0.100517
0.100525
0.100561
0.0998341
0.0916277
0.0916231
0.0998274
0.100552
0.100514
0.100502
0.100507
0.100516
0.100527
0.100541
0.100559
0.100565
0.100552
0.100522
0.100505
0.100492
0.100481
0.100473
0.100468
0.100468
0.100473
0.100481
0.100492
0.100504
0.100521
0.100551
0.100564
0.100558
0.100541
0.100528
0.100518
0.100527
0.100562
0.0998342
0.0916273
0.0916228
0.0998274
0.100553
0.100514
0.100503
0.100508
0.100517
0.100529
0.100542
0.100556
0.10056
0.100551
0.100522
0.100506
0.100491
0.100478
0.100467
0.10046
0.10046
0.100466
0.100477
0.10049
0.100505
0.100521
0.10055
0.100559
0.100555
0.100542
0.100529
0.10052
0.100528
0.100563
0.0998343
0.0916269
0.0916225
0.0998274
0.100553
0.100515
0.100504
0.100509
0.100518
0.10053
0.100544
0.100557
0.100562
0.100554
0.100524
0.100507
0.100491
0.100476
0.100463
0.100453
0.100453
0.100462
0.100475
0.10049
0.100506
0.100523
0.100553
0.100561
0.100557
0.100543
0.10053
0.100521
0.100528
0.100563
0.0998342
0.0916264
0.0916222
0.0998273
0.100553
0.100515
0.100504
0.100509
0.100519
0.100531
0.100545
0.100559
0.100563
0.100556
0.100524
0.100507
0.100491
0.100475
0.100461
0.100449
0.100449
0.10046
0.100474
0.10049
0.100506
0.100523
0.100554
0.100562
0.100558
0.100544
0.100531
0.100521
0.100529
0.100563
0.0998342
0.0916259
0.0916221
0.0998273
0.100553
0.100515
0.100504
0.10051
0.100519
0.100531
0.100545
0.100559
0.100563
0.100556
0.100525
0.100507
0.100491
0.100475
0.10046
0.100447
0.100447
0.100459
0.100474
0.10049
0.100506
0.100524
0.100555
0.100562
0.100558
0.100545
0.100531
0.100522
0.100529
0.100563
0.0998341
0.0916257
0.0916221
0.0998273
0.100553
0.100515
0.100504
0.100509
0.100519
0.100531
0.100545
0.100559
0.100563
0.100555
0.100524
0.100507
0.100491
0.100475
0.100461
0.100449
0.100449
0.100459
0.100474
0.10049
0.100506
0.100523
0.100554
0.100562
0.100558
0.100544
0.100531
0.100521
0.100529
0.100563
0.0998341
0.0916258
0.0916223
0.0998273
0.100553
0.100515
0.100504
0.100509
0.100518
0.10053
0.100544
0.100558
0.100563
0.100554
0.100523
0.100506
0.100491
0.100476
0.100463
0.100454
0.100453
0.100462
0.100475
0.10049
0.100505
0.100522
0.100553
0.100562
0.100558
0.100544
0.10053
0.100521
0.100528
0.100563
0.0998341
0.0916261
0.0916225
0.0998273
0.100553
0.100514
0.100503
0.100508
0.100517
0.100529
0.100544
0.100562
0.100568
0.100556
0.100523
0.100506
0.100491
0.100479
0.100468
0.100461
0.100461
0.100467
0.100477
0.10049
0.100504
0.100522
0.100555
0.100568
0.100561
0.100544
0.100529
0.10052
0.100528
0.100563
0.0998341
0.0916264
0.0916227
0.0998272
0.100552
0.100514
0.100502
0.100507
0.100516
0.100529
0.100551
0.100587
0.100568
0.100578
0.100532
0.100509
0.100495
0.100485
0.100477
0.100473
0.100472
0.100476
0.100484
0.100494
0.100507
0.100531
0.100577
0.100568
0.100587
0.100551
0.10053
0.100519
0.100526
0.100562
0.099834
0.0916268
0.0916228
0.0998271
0.100552
0.100513
0.100501
0.100505
0.100515
0.100536
0.100585
0.100567
0.0998172
0.100545
0.10056
0.100515
0.100498
0.100489
0.100484
0.100481
0.100481
0.100483
0.100488
0.100497
0.100513
0.100559
0.100544
0.099817
0.100567
0.100586
0.100537
0.100518
0.100525
0.100561
0.0998338
0.091627
0.0916229
0.0998268
0.100551
0.100512
0.100499
0.100503
0.100516
0.100554
0.100549
0.0990851
0.0920289
0.0989896
0.10042
0.100433
0.100408
0.100397
0.100394
0.100393
0.100392
0.100393
0.100396
0.100406
0.100431
0.100419
0.0989896
0.0920287
0.0990855
0.10055
0.100555
0.10052
0.100524
0.10056
0.0998333
0.091627
0.0916228
0.0998265
0.10055
0.10051
0.100497
0.100501
0.100515
0.100526
0.0997907
0.0920131
0.0919316
0.0992931
0.0999693
0.0999667
0.0999597
0.0999592
0.0999593
0.099959
0.0999583
0.0999583
0.0999647
0.099967
0.0992908
0.0919299
0.092013
0.0997916
0.100527
0.100519
0.100522
0.100558
0.0998327
0.0916268
0.0916226
0.0998261
0.100549
0.100509
0.100496
0.100498
0.100508
0.100542
0.100533
0.0990698
0.0920254
0.0990431
0.10046
0.100472
0.100448
0.100443
0.100443
0.100444
0.100444
0.100442
0.100441
0.100445
0.100467
0.100453
0.0990398
0.092025
0.0990708
0.100534
0.100543
0.100512
0.100519
0.100557
0.0998318
0.0916263
0.0916222
0.0998256
0.100548
0.100508
0.100494
0.100495
0.100501
0.100517
0.100561
0.100539
0.0998073
0.10056
0.100592
0.10055
0.10054
0.100538
0.100538
0.100538
0.100537
0.100536
0.100535
0.100536
0.100543
0.100578
0.100555
0.0998059
0.10054
0.100563
0.100519
0.100505
0.100516
0.100555
0.0998309
0.0916258
0.0916219
0.0998252
0.100548
0.100507
0.100493
0.100493
0.100498
0.100505
0.10052
0.10055
0.10054
0.100567
0.100542
0.100509
0.100501
0.100499
0.100499
0.100498
0.100498
0.100497
0.100497
0.100498
0.100501
0.100514
0.100556
0.100536
0.10055
0.100522
0.100507
0.100502
0.100515
0.100554
0.0998301
0.0916251
0.0916216
0.0998263
0.100549
0.100509
0.100494
0.100494
0.100498
0.100502
0.100509
0.10052
0.10053
0.100531
0.100522
0.100501
0.100497
0.100497
0.100496
0.100496
0.100496
0.100496
0.100495
0.100495
0.100496
0.1005
0.100522
0.100528
0.100521
0.100511
0.100504
0.100502
0.100515
0.100555
0.0998308
0.0916245
0.091623
0.0998375
0.100564
0.100524
0.10051
0.10051
0.100513
0.100516
0.100521
0.100527
0.100534
0.100537
0.100538
0.100531
0.10053
0.100529
0.10053
0.10053
0.10053
0.10053
0.100529
0.100528
0.100527
0.100528
0.100535
0.100534
0.100529
0.100523
0.100519
0.100517
0.100531
0.10057
0.0998416
0.0916256
0.0916348
0.09986
0.1006
0.100565
0.100551
0.100551
0.100554
0.100557
0.100561
0.100565
0.10057
0.100574
0.100577
0.100576
0.100576
0.100577
0.100578
0.100578
0.100578
0.100578
0.100577
0.100576
0.100575
0.100574
0.100574
0.100571
0.100567
0.100563
0.100559
0.100558
0.100571
0.100605
0.0998637
0.0916371
0.0916642
0.0991879
0.0998606
0.0998389
0.0998287
0.0998289
0.0998311
0.0998338
0.099837
0.0998405
0.0998441
0.099847
0.0998493
0.0998496
0.0998501
0.0998503
0.0998506
0.0998507
0.0998506
0.0998505
0.0998501
0.0998496
0.0998491
0.0998483
0.0998477
0.0998452
0.0998422
0.0998387
0.0998356
0.0998344
0.0998437
0.0998646
0.0991911
0.0916662
0.0914665
0.0916645
0.0916355
0.0916242
0.0916236
0.0916248
0.0916264
0.0916283
0.0916304
0.0916327
0.091635
0.091637
0.0916383
0.0916387
0.0916385
0.0916378
0.091637
0.0916362
0.0916359
0.0916362
0.0916369
0.0916376
0.091638
0.091638
0.0916374
0.0916358
0.0916337
0.0916314
0.0916292
0.0916273
0.0916273
0.091638
0.0916666
0.0914682
0.109187
0.112299
0.112543
0.112514
0.112505
0.112504
0.112505
0.112505
0.112505
0.112505
0.112506
0.112506
0.112506
0.112506
0.112506
0.112506
0.112506
0.112506
0.112506
0.112506
0.112506
0.112506
0.112506
0.112506
0.112506
0.112506
0.112505
0.112505
0.112505
0.112506
0.112515
0.112544
0.112299
0.109187
0.112299
0.0869304
0.0856214
0.085425
0.0853926
0.0853885
0.0853883
0.0853884
0.0853887
0.085389
0.0853893
0.0853896
0.0853899
0.0853902
0.0853905
0.0853907
0.0853908
0.0853909
0.0853909
0.0853908
0.0853907
0.0853905
0.0853902
0.08539
0.0853897
0.0853893
0.085389
0.0853888
0.085389
0.0853931
0.0854254
0.0856218
0.0869308
0.112299
0.112544
0.0856213
0.0838894
0.0836158
0.0835719
0.0835664
0.0835659
0.083566
0.0835662
0.0835664
0.0835666
0.0835669
0.0835671
0.0835674
0.0835676
0.0835677
0.0835678
0.0835679
0.0835679
0.0835678
0.0835677
0.0835676
0.0835674
0.0835672
0.0835669
0.0835667
0.0835665
0.0835663
0.0835667
0.0835723
0.0836162
0.0838898
0.0856216
0.112545
0.112515
0.0854249
0.0836158
0.0833254
0.0832788
0.0832729
0.0832724
0.0832725
0.0832728
0.083273
0.0832733
0.0832736
0.0832739
0.0832741
0.0832743
0.0832745
0.0832746
0.0832747
0.0832747
0.0832747
0.0832745
0.0832744
0.0832742
0.0832739
0.0832736
0.0832734
0.0832731
0.0832729
0.0832733
0.0832792
0.0833257
0.0836162
0.0854253
0.112516
0.112507
0.0853926
0.0835719
0.0832789
0.0832319
0.0832259
0.0832255
0.0832256
0.0832259
0.0832264
0.083227
0.0832272
0.0832275
0.0832278
0.0832281
0.0832283
0.0832285
0.0832286
0.0832286
0.0832285
0.0832284
0.0832281
0.0832279
0.0832275
0.0832273
0.083227
0.0832265
0.0832261
0.0832264
0.0832323
0.0832793
0.0835723
0.0853931
0.112508
0.112506
0.0853885
0.0835664
0.0832729
0.083226
0.08322
0.0832196
0.0832199
0.0832207
0.0832225
0.0832249
0.0832239
0.0832232
0.0832233
0.0832237
0.083224
0.0832242
0.0832243
0.0832243
0.0832242
0.083224
0.0832237
0.0832233
0.0832232
0.0832239
0.0832249
0.0832226
0.0832209
0.0832208
0.0832265
0.0832734
0.0835669
0.0853891
0.112507
0.112506
0.0853883
0.0835659
0.0832725
0.0832255
0.0832196
0.0832194
0.0832205
0.0832245
0.0832364
0.0832524
0.0832391
0.0832294
0.0832268
0.0832268
0.0832271
0.0832273
0.0832275
0.0832275
0.0832273
0.0832271
0.0832268
0.0832269
0.0832295
0.0832392
0.0832524
0.0832365
0.0832247
0.0832213
0.0832263
0.0832731
0.0835665
0.085389
0.112508
0.112506
0.0853885
0.083566
0.0832726
0.0832256
0.0832199
0.0832204
0.0832259
0.0832507
0.0833279
0.0834501
0.0833343
0.083263
0.0832416
0.0832381
0.0832377
0.0832378
0.0832379
0.0832379
0.0832378
0.0832377
0.0832381
0.0832416
0.083263
0.0833343
0.0834502
0.0833279
0.0832509
0.0832267
0.0832273
0.0832734
0.0835667
0.0853894
0.112509
0.112507
0.0853887
0.0835662
0.0832728
0.0832259
0.0832206
0.0832244
0.0832506
0.0833761
0.0838174
0.0851599
0.0838202
0.083396
0.0832814
0.0832594
0.0832564
0.0832557
0.0832557
0.0832557
0.0832557
0.0832564
0.0832594
0.0832814
0.083396
0.0838202
0.0851599
0.0838175
0.0833763
0.0832514
0.0832313
0.0832741
0.0835671
0.0853899
0.11251
0.112507
0.085389
0.0835664
0.083273
0.0832263
0.0832223
0.083236
0.0833271
0.0838164
0.0867525
0.118459
0.0866475
0.0837339
0.0832773
0.0831952
0.0831855
0.0831837
0.0831835
0.0831835
0.0831838
0.0831856
0.0831953
0.0832774
0.0837339
0.0866472
0.118458
0.0867526
0.0838166
0.083328
0.0832429
0.0832758
0.0835676
0.0853904
0.11251
0.112507
0.0853893
0.0835666
0.0832732
0.0832267
0.0832244
0.0832514
0.0834478
0.0851575
0.11849
0.117647
0.0845917
0.0829832
0.0828129
0.0827875
0.0827838
0.0827835
0.0827835
0.0827838
0.0827875
0.0828129
0.0829832
0.0845915
0.117648
0.118491
0.0851578
0.0834486
0.0832583
0.083278
0.0835681
0.0853909
0.11251
0.112507
0.0853896
0.0835668
0.0832734
0.0832268
0.0832231
0.0832371
0.083329
0.0838209
0.0867767
0.118487
0.0866789
0.0837516
0.0832946
0.0832274
0.0831974
0.0831897
0.0831882
0.0831882
0.0831897
0.0831974
0.0832273
0.0832945
0.0837514
0.0866787
0.118485
0.0867771
0.0838211
0.0833298
0.083244
0.0832766
0.0835683
0.0853915
0.11251
0.112507
0.0853899
0.083567
0.0832735
0.0832269
0.083222
0.0832264
0.0832534
0.0833804
0.0838255
0.0851734
0.0838312
0.0834254
0.0833108
0.083291
0.0832806
0.0832771
0.0832763
0.0832763
0.0832771
0.0832806
0.083291
0.0833107
0.0834253
0.0838311
0.0851735
0.0838256
0.0833806
0.0832542
0.0832332
0.0832756
0.0835685
0.085392
0.11251
0.112507
0.0853901
0.0835671
0.0832737
0.0832271
0.0832219
0.0832231
0.0832294
0.0832554
0.0833338
0.0834562
0.0833429
0.0832945
0.0832732
0.0832677
0.0832644
0.0832627
0.0832621
0.0832621
0.0832627
0.0832643
0.0832676
0.0832731
0.0832944
0.0833427
0.0834561
0.0833338
0.0832555
0.0832302
0.0832299
0.0832755
0.0835687
0.0853923
0.11251
0.112507
0.0853902
0.0835672
0.0832738
0.0832272
0.083222
0.0832226
0.0832247
0.0832299
0.0832427
0.0832587
0.0832488
0.0832624
0.08326
0.0832572
0.0832551
0.0832536
0.0832529
0.0832529
0.0832536
0.083255
0.0832572
0.0832599
0.0832623
0.0832486
0.0832586
0.0832426
0.0832299
0.0832254
0.0832294
0.0832756
0.0835689
0.0853926
0.112509
0.112506
0.0853903
0.0835673
0.0832739
0.0832273
0.0832221
0.0832227
0.0832241
0.0832262
0.083229
0.0832316
0.0832345
0.0832571
0.0832576
0.0832551
0.0832529
0.0832512
0.0832503
0.0832503
0.0832512
0.0832528
0.083255
0.0832574
0.083257
0.0832343
0.0832315
0.083229
0.0832262
0.0832249
0.0832295
0.0832757
0.0835691
0.0853928
0.112509
0.112506
0.0853904
0.0835674
0.083274
0.0832274
0.0832222
0.0832228
0.0832242
0.0832259
0.0832276
0.0832286
0.083233
0.0832566
0.0832574
0.0832549
0.0832525
0.0832506
0.0832494
0.0832493
0.0832505
0.0832524
0.0832547
0.0832572
0.0832565
0.0832328
0.0832285
0.0832275
0.0832259
0.0832249
0.0832296
0.0832758
0.0835692
0.0853929
0.112508
0.112506
0.0853904
0.0835674
0.083274
0.0832275
0.0832223
0.0832229
0.0832243
0.083226
0.0832276
0.0832285
0.0832331
0.0832567
0.0832574
0.0832549
0.0832524
0.0832503
0.0832489
0.0832489
0.0832502
0.0832523
0.0832547
0.0832573
0.0832566
0.0832329
0.0832284
0.0832275
0.083226
0.083225
0.0832297
0.0832759
0.0835692
0.085393
0.112508
0.112506
0.0853904
0.0835674
0.083274
0.0832275
0.0832223
0.0832229
0.0832243
0.083226
0.0832276
0.0832285
0.0832331
0.0832567
0.0832574
0.0832549
0.0832523
0.0832502
0.0832488
0.0832487
0.0832501
0.0832522
0.0832547
0.0832573
0.0832566
0.0832329
0.0832284
0.0832275
0.083226
0.0832251
0.0832297
0.0832759
0.0835693
0.085393
0.112508
0.112506
0.0853904
0.0835674
0.083274
0.0832275
0.0832223
0.0832229
0.0832243
0.083226
0.0832277
0.0832288
0.0832332
0.0832567
0.0832574
0.0832548
0.0832524
0.0832504
0.083249
0.0832489
0.0832502
0.0832523
0.0832547
0.0832573
0.0832566
0.083233
0.0832287
0.0832277
0.0832261
0.083225
0.0832297
0.0832759
0.0835692
0.0853929
0.112508
0.112506
0.0853904
0.0835674
0.083274
0.0832274
0.0832222
0.0832228
0.0832243
0.0832264
0.0832293
0.0832319
0.0832348
0.0832573
0.0832576
0.0832551
0.0832527
0.0832509
0.0832497
0.0832497
0.0832508
0.0832526
0.083255
0.0832575
0.0832571
0.0832346
0.0832318
0.0832292
0.0832264
0.083225
0.0832296
0.0832758
0.0835692
0.0853929
0.112508
0.112506
0.0853903
0.0835673
0.0832739
0.0832273
0.0832221
0.0832227
0.0832249
0.0832301
0.083243
0.0832591
0.0832492
0.0832626
0.0832601
0.0832572
0.0832548
0.0832531
0.0832522
0.0832522
0.083253
0.0832547
0.083257
0.0832599
0.0832624
0.0832491
0.083259
0.083243
0.0832302
0.0832257
0.0832296
0.0832757
0.0835691
0.0853927
0.112509
0.112506
0.0853901
0.0835672
0.0832738
0.0832272
0.083222
0.0832233
0.0832297
0.0832557
0.0833341
0.0834565
0.0833434
0.0832947
0.0832732
0.0832675
0.0832639
0.0832621
0.0832613
0.0832613
0.083262
0.0832638
0.0832674
0.0832731
0.0832946
0.0833432
0.0834564
0.0833341
0.0832558
0.0832305
0.0832302
0.0832756
0.0835689
0.0853925
0.112509
0.112506
0.08539
0.0835671
0.0832737
0.0832271
0.0832222
0.0832266
0.0832537
0.0833807
0.0838256
0.0851723
0.0838315
0.0834256
0.0833109
0.0832908
0.0832802
0.0832765
0.0832755
0.0832755
0.0832764
0.0832801
0.0832907
0.0833107
0.0834254
0.0838312
0.0851721
0.0838256
0.0833809
0.0832545
0.0832335
0.0832759
0.0835687
0.0853922
0.112509
0.112507
0.0853898
0.0835669
0.0832735
0.083227
0.0832233
0.0832374
0.0833293
0.0838211
0.0867755
0.118497
0.0866784
0.0837525
0.0832951
0.0832274
0.0831972
0.0831893
0.0831877
0.0831877
0.0831892
0.0831971
0.0832273
0.0832949
0.0837522
0.0866772
0.118496
0.0867752
0.0838212
0.0833302
0.0832444
0.0832769
0.0835686
0.0853918
0.112509
0.112507
0.0853895
0.0835668
0.0832734
0.0832269
0.0832247
0.0832517
0.0834481
0.0851577
0.118485
0.117635
0.0845942
0.0829823
0.082811
0.082785
0.082781
0.0827805
0.0827804
0.0827809
0.0827848
0.0828106
0.0829818
0.0845932
0.117631
0.118484
0.0851578
0.083449
0.0832587
0.0832783
0.0835685
0.0853914
0.112509
0.112506
0.0853893
0.0835666
0.0832732
0.0832265
0.0832226
0.0832364
0.0833276
0.083817
0.0867536
0.118473
0.086654
0.0837349
0.083276
0.0831927
0.0831822
0.08318
0.0831796
0.0831795
0.0831799
0.0831819
0.0831922
0.0832752
0.083734
0.0866536
0.118473
0.0867537
0.0838172
0.0833285
0.0832434
0.0832762
0.083568
0.085391
0.112509
0.112506
0.0853891
0.0835665
0.0832731
0.0832263
0.0832211
0.083225
0.0832513
0.083377
0.0838185
0.0851616
0.0838217
0.0833967
0.0832842
0.0832617
0.0832576
0.0832564
0.0832562
0.0832561
0.0832563
0.0832573
0.0832611
0.0832838
0.0833994
0.0838218
0.0851613
0.0838186
0.0833772
0.0832522
0.083232
0.0832747
0.0835676
0.0853906
0.112509
0.112506
0.0853893
0.0835669
0.0832735
0.0832267
0.0832211
0.0832217
0.0832273
0.0832524
0.0833297
0.083452
0.083336
0.0832686
0.0832684
0.0832672
0.0832662
0.0832657
0.0832656
0.0832655
0.0832656
0.0832659
0.083267
0.0832712
0.0832905
0.0833402
0.083452
0.0833297
0.0832526
0.0832283
0.0832287
0.0832747
0.083568
0.0853907
0.112508
0.112507
0.0853934
0.0835725
0.0832795
0.0832326
0.0832269
0.0832268
0.0832281
0.0832324
0.0832444
0.0832604
0.0832472
0.0832418
0.0832615
0.083264
0.0832639
0.0832638
0.0832637
0.0832637
0.0832637
0.0832637
0.0832639
0.0832644
0.0832645
0.0832517
0.0832606
0.0832444
0.0832326
0.083229
0.0832338
0.0832804
0.0835734
0.0853946
0.112509
0.112515
0.0854257
0.0836164
0.083326
0.0832796
0.0832739
0.0832736
0.0832742
0.0832752
0.0832773
0.0832798
0.0832788
0.0832787
0.0832827
0.0832831
0.0832831
0.0832832
0.0832832
0.0832832
0.0832832
0.083283
0.0832829
0.0832828
0.0832827
0.0832794
0.0832798
0.0832775
0.0832755
0.0832751
0.0832806
0.0833269
0.0836173
0.0854268
0.112517
0.112544
0.0856221
0.08389
0.0836165
0.0835727
0.0835674
0.0835672
0.0835676
0.0835683
0.0835691
0.0835701
0.0835707
0.0835712
0.0835719
0.0835723
0.0835726
0.0835728
0.083573
0.083573
0.0835729
0.0835726
0.0835723
0.0835719
0.0835715
0.0835709
0.0835703
0.0835695
0.0835687
0.0835686
0.0835738
0.0836174
0.0838909
0.0856231
0.112546
0.112299
0.0869312
0.0856221
0.0854258
0.0853936
0.0853898
0.0853899
0.0853906
0.0853914
0.0853925
0.0853937
0.0853951
0.0853964
0.0853976
0.0853986
0.0853994
0.0853999
0.0854002
0.0854002
0.0854
0.0853996
0.085399
0.0853981
0.085397
0.0853957
0.0853944
0.0853931
0.085392
0.0853915
0.085395
0.085427
0.0856231
0.0869323
0.112301
0.109188
0.1123
0.112545
0.112516
0.112508
0.112508
0.112509
0.112511
0.112512
0.112514
0.112515
0.112517
0.112517
0.112517
0.112517
0.112516
0.112515
0.112514
0.112514
0.112514
0.112515
0.112516
0.112516
0.112517
0.112517
0.112516
0.112514
0.112513
0.112511
0.112511
0.112518
0.112546
0.112301
0.109189
0.114948
0.119199
0.119625
0.119598
0.119587
0.119585
0.119585
0.119586
0.119586
0.119586
0.119586
0.119587
0.119587
0.119587
0.119587
0.119587
0.119587
0.119587
0.119587
0.119587
0.119587
0.119587
0.119587
0.119587
0.119587
0.119586
0.119586
0.119586
0.119586
0.119587
0.119599
0.119626
0.1192
0.114949
0.119199
0.0896111
0.0877293
0.0874462
0.0874006
0.0873947
0.0873942
0.0873943
0.0873945
0.0873947
0.0873949
0.0873952
0.0873955
0.0873958
0.087396
0.0873962
0.0873963
0.0873964
0.0873964
0.0873963
0.0873962
0.087396
0.0873958
0.0873956
0.0873953
0.087395
0.0873948
0.0873946
0.0873951
0.0874011
0.0874466
0.0877296
0.0896115
0.1192
0.119626
0.087729
0.0851974
0.0847963
0.0847332
0.084725
0.0847241
0.0847241
0.0847242
0.0847243
0.0847244
0.0847245
0.0847246
0.0847248
0.0847249
0.0847249
0.084725
0.084725
0.084725
0.084725
0.084725
0.0847249
0.0847248
0.0847247
0.0847245
0.0847244
0.0847243
0.0847243
0.0847251
0.0847334
0.0847965
0.0851976
0.0877293
0.119627
0.119599
0.087446
0.0847962
0.0843692
0.084302
0.0842932
0.0842923
0.0842922
0.0842923
0.0842924
0.0842925
0.0842926
0.0842926
0.0842927
0.0842928
0.0842928
0.0842929
0.0842929
0.0842929
0.0842929
0.0842928
0.0842928
0.0842927
0.0842927
0.0842926
0.0842925
0.0842924
0.0842924
0.0842933
0.0843021
0.0843694
0.0847964
0.0874463
0.1196
0.119588
0.0874004
0.0847331
0.084302
0.0842341
0.0842252
0.0842243
0.0842242
0.0842244
0.0842247
0.084225
0.0842249
0.0842248
0.0842249
0.0842249
0.084225
0.084225
0.084225
0.084225
0.084225
0.084225
0.0842249
0.0842249
0.0842248
0.0842249
0.084225
0.0842247
0.0842245
0.0842254
0.0842342
0.0843021
0.0847333
0.0874007
0.119589
0.119586
0.0873945
0.0847249
0.0842932
0.0842252
0.0842163
0.0842154
0.0842155
0.0842162
0.0842184
0.0842212
0.0842192
0.0842177
0.0842173
0.0842173
0.0842173
0.0842173
0.0842173
0.0842173
0.0842173
0.0842173
0.0842173
0.0842173
0.0842177
0.0842193
0.0842212
0.0842184
0.0842164
0.0842166
0.0842254
0.0842933
0.084725
0.0873949
0.119588
0.119587
0.087394
0.084724
0.0842923
0.0842243
0.0842154
0.0842146
0.0842158
0.0842213
0.0842378
0.0842613
0.0842422
0.0842287
0.0842246
0.084224
0.0842238
0.0842236
0.0842235
0.0842235
0.0842236
0.0842238
0.084224
0.0842246
0.0842287
0.0842422
0.0842613
0.0842378
0.0842214
0.0842169
0.0842246
0.0842924
0.0847242
0.0873945
0.119589
0.119587
0.0873941
0.084724
0.0842922
0.0842242
0.0842155
0.0842158
0.0842232
0.0842585
0.0843712
0.0845637
0.0843891
0.0842956
0.0842682
0.0842624
0.0842617
0.0842607
0.0842604
0.0842604
0.0842607
0.0842617
0.0842624
0.0842682
0.0842956
0.0843892
0.0845637
0.0843712
0.0842586
0.0842244
0.0842258
0.0842926
0.0847243
0.0873948
0.119589
0.119587
0.0873944
0.0847241
0.0842923
0.0842243
0.0842162
0.0842212
0.0842583
0.0844408
0.0851164
0.0870812
0.0851315
0.084562
0.084421
0.0843844
0.0843895
0.0843872
0.0843863
0.0843863
0.0843872
0.0843895
0.0843844
0.084421
0.0845621
0.0851315
0.0870812
0.0851164
0.0844409
0.0842594
0.0842312
0.0842933
0.0847245
0.0873952
0.11959
0.119588
0.0873947
0.0847242
0.0842924
0.0842246
0.0842182
0.0842374
0.0843695
0.0851134
0.0894111
0.127498
0.0889079
0.085187
0.0846363
0.0845087
0.0845332
0.0845315
0.0845303
0.0845303
0.0845315
0.0845333
0.0845088
0.0846364
0.0851871
0.0889075
0.127497
0.0894111
0.0851134
0.0843706
0.0842474
0.0842954
0.084725
0.0873957
0.11959
0.119588
0.0873949
0.0847243
0.0842924
0.0842249
0.0842208
0.0842595
0.0845571
0.0870779
0.127744
0.121296
0.0864612
0.0848084
0.0846492
0.0846125
0.0846048
0.0846039
0.084604
0.0846048
0.0846126
0.0846494
0.0848085
0.086461
0.121297
0.127745
0.087078
0.0845582
0.0842696
0.0842981
0.0847254
0.0873962
0.119591
0.119588
0.0873952
0.0847245
0.0842925
0.0842247
0.0842184
0.0842377
0.0843704
0.0851174
0.0894397
0.127537
0.088983
0.0853705
0.084871
0.0849298
0.084761
0.0847192
0.0847124
0.0847124
0.0847191
0.084761
0.0849297
0.0848709
0.0853702
0.0889826
0.127536
0.0894403
0.0851176
0.0843715
0.0842477
0.0842957
0.0847254
0.0873968
0.119591
0.119588
0.0873955
0.0847246
0.0842925
0.0842246
0.0842165
0.0842216
0.0842591
0.084443
0.085124
0.0871056
0.0852302
0.0849875
0.084898
0.0849106
0.0848651
0.0848499
0.0848469
0.0848469
0.0848499
0.0848651
0.0849106
0.0848979
0.0849874
0.08523
0.0871058
0.0851242
0.0844432
0.0842603
0.0842317
0.0842938
0.0847255
0.0873973
0.11959
0.119587
0.0873958
0.0847247
0.0842926
0.0842246
0.0842159
0.0842164
0.0842241
0.0842599
0.0843745
0.08458
0.0844971
0.0847758
0.0847965
0.0847988
0.0847903
0.0847868
0.0847859
0.0847859
0.0847868
0.0847903
0.0847988
0.0847964
0.0847757
0.084497
0.0845801
0.0843746
0.08426
0.0842252
0.0842264
0.0842933
0.0847256
0.0873977
0.11959
0.119587
0.0873959
0.0847248
0.0842926
0.0842246
0.0842158
0.0842152
0.0842166
0.0842224
0.0842403
0.0842763
0.0843506
0.0847144
0.0847578
0.0847594
0.0847575
0.0847565
0.0847561
0.0847561
0.0847564
0.0847575
0.0847594
0.0847577
0.0847144
0.0843505
0.0842762
0.0842403
0.0842225
0.0842178
0.0842253
0.0842932
0.0847257
0.087398
0.11959
0.119587
0.0873961
0.0847248
0.0842927
0.0842246
0.0842158
0.0842151
0.0842155
0.0842165
0.0842199
0.0842352
0.0843269
0.0847031
0.0847501
0.0847518
0.0847508
0.0847501
0.0847498
0.0847498
0.0847501
0.0847508
0.0847518
0.0847501
0.084703
0.0843268
0.0842351
0.0842199
0.0842166
0.0842166
0.0842252
0.0842932
0.0847258
0.0873983
0.119589
0.119587
0.0873962
0.0847249
0.0842927
0.0842246
0.0842158
0.0842151
0.0842153
0.0842158
0.0842174
0.0842302
0.0843239
0.0847016
0.0847491
0.0847509
0.0847499
0.0847492
0.0847489
0.0847489
0.0847492
0.0847499
0.0847509
0.0847491
0.0847016
0.0843238
0.0842302
0.0842173
0.0842159
0.0842165
0.0842252
0.0842933
0.0847259
0.0873984
0.119589
0.119587
0.0873962
0.0847249
0.0842927
0.0842246
0.0842159
0.0842151
0.0842154
0.0842158
0.0842171
0.0842298
0.0843236
0.0847015
0.0847491
0.0847508
0.0847499
0.0847492
0.0847488
0.0847488
0.0847492
0.0847498
0.0847508
0.084749
0.0847014
0.0843235
0.0842297
0.0842171
0.0842159
0.0842165
0.0842252
0.0842933
0.0847259
0.0873985
0.119589
0.119586
0.0873962
0.0847249
0.0842927
0.0842246
0.0842159
0.0842151
0.0842154
0.0842158
0.0842171
0.0842298
0.0843236
0.0847015
0.0847491
0.0847508
0.0847499
0.0847492
0.0847488
0.0847488
0.0847491
0.0847498
0.0847508
0.0847491
0.0847015
0.0843235
0.0842297
0.0842171
0.0842159
0.0842165
0.0842252
0.0842933
0.0847259
0.0873985
0.119589
0.119587
0.0873962
0.0847249
0.0842927
0.0842246
0.0842159
0.0842151
0.0842154
0.0842158
0.0842174
0.0842303
0.084324
0.0847016
0.0847492
0.0847509
0.0847499
0.0847492
0.0847489
0.0847489
0.0847492
0.0847499
0.0847509
0.0847491
0.0847016
0.0843239
0.0842302
0.0842174
0.084216
0.0842165
0.0842252
0.0842933
0.0847259
0.0873985
0.119589
0.119587
0.0873961
0.0847249
0.0842927
0.0842246
0.0842158
0.0842151
0.0842155
0.0842166
0.0842199
0.0842353
0.084327
0.0847032
0.0847502
0.0847519
0.0847508
0.0847501
0.0847497
0.0847497
0.0847501
0.0847508
0.0847519
0.0847501
0.0847031
0.0843269
0.0842352
0.0842199
0.0842167
0.0842166
0.0842252
0.0842933
0.0847259
0.0873984
0.119589
0.119587
0.087396
0.0847248
0.0842927
0.0842246
0.0842158
0.0842153
0.0842167
0.0842225
0.0842403
0.0842763
0.0843507
0.0847145
0.0847579
0.0847595
0.0847576
0.0847565
0.0847561
0.0847561
0.0847565
0.0847575
0.0847595
0.0847579
0.0847145
0.0843506
0.0842762
0.0842403
0.0842226
0.0842178
0.0842254