/*--------------------------------*- C++ -*----------------------------------*\
| =========                 |                                                 |
| \\      /  F ield         | OpenFOAM: The Open Source CFD Toolbox           |
|  \\    /   O peration     | Version:  2112                                  |
|   \\  /    A nd           | Website:  www.openfoam.com                      |
|    \\/     M anipulation  |                                                 |
\*---------------------------------------------------------------------------*/
FoamFile
{
    version     2.0;
    format      ascii;
    arch        "LSB;label=32;scalar=64";
    class       volScalarField;
    location    "0.4";
    object      k;
}
// * * * * * * * * * * * * * * * * * * * * * * * * * * * * * * * * * * * * * //

dimensions      [0 2 -2 0 0 0 0];

internalField   nonuniform List<scalar> 
64906
(
0.0155813
0.015629
0.0156305
0.0156295
0.0156293
0.0156293
0.0156294
0.0156294
0.0156295
0.0156295
0.0156296
0.0156297
0.0156297
0.0156297
0.0156298
0.0156298
0.0156298
0.0156298
0.0156298
0.0156298
0.0156298
0.0156298
0.0156297
0.0156297
0.0156297
0.0156296
0.0156295
0.0156295
0.0156294
0.0156294
0.0156296
0.0156306
0.0156291
0.0155814
0.0156291
0.0167853
0.0169293
0.0169341
0.0169332
0.016933
0.0169331
0.0169332
0.0169333
0.0169334
0.0169335
0.0169336
0.0169337
0.0169338
0.0169339
0.0169339
0.016934
0.016934
0.016934
0.016934
0.0169339
0.0169339
0.0169338
0.0169337
0.0169336
0.0169335
0.0169334
0.0169333
0.0169332
0.0169334
0.0169343
0.0169295
0.0167854
0.0156292
0.0156306
0.0169294
0.0170998
0.0171054
0.0171041
0.0171039
0.0171039
0.0171041
0.0171042
0.0171044
0.0171046
0.0171048
0.017105
0.0171052
0.0171053
0.0171055
0.0171055
0.0171056
0.0171056
0.0171055
0.0171055
0.0171054
0.0171052
0.017105
0.0171048
0.0171046
0.0171045
0.0171043
0.0171042
0.0171044
0.0171057
0.0171001
0.0169296
0.0156308
0.0156296
0.0169342
0.0171054
0.0171107
0.0171092
0.017109
0.0171091
0.0171093
0.0171095
0.0171098
0.0171101
0.0171104
0.0171107
0.0171109
0.0171111
0.0171113
0.0171114
0.0171115
0.0171115
0.0171115
0.0171113
0.0171112
0.017111
0.0171107
0.0171104
0.0171101
0.0171098
0.0171096
0.0171095
0.0171096
0.017111
0.0171058
0.0169345
0.0156298
0.0156295
0.0169333
0.0171042
0.0171093
0.0171079
0.0171077
0.0171078
0.0171081
0.0171084
0.0171087
0.0171091
0.0171096
0.01711
0.0171104
0.0171107
0.0171109
0.0171111
0.0171112
0.0171112
0.0171111
0.017111
0.0171107
0.0171104
0.01711
0.0171096
0.0171092
0.0171088
0.0171084
0.0171082
0.0171083
0.0171097
0.0171045
0.0169337
0.0156297
0.0156295
0.0169332
0.017104
0.0171091
0.0171077
0.0171076
0.0171078
0.0171081
0.0171085
0.0171091
0.0171097
0.0171104
0.0171109
0.0171114
0.0171119
0.0171122
0.0171125
0.0171126
0.0171126
0.0171125
0.0171123
0.0171119
0.0171115
0.017111
0.0171104
0.0171098
0.0171091
0.0171086
0.0171082
0.0171083
0.0171096
0.0171044
0.0169336
0.0156298
0.0156296
0.0169333
0.0171041
0.0171092
0.0171079
0.0171078
0.0171081
0.0171085
0.0171092
0.0171103
0.0171111
0.0171123
0.0171128
0.0171134
0.017114
0.0171144
0.0171148
0.0171149
0.017115
0.0171148
0.0171145
0.017114
0.0171134
0.0171128
0.0171124
0.0171112
0.0171104
0.0171093
0.0171087
0.0171086
0.0171098
0.0171046
0.0169337
0.0156299
0.0156296
0.0169333
0.0171042
0.0171094
0.0171081
0.0171081
0.0171085
0.0171093
0.0171109
0.0171123
0.0171048
0.0171152
0.0171158
0.0171159
0.0171166
0.0171171
0.0171176
0.0171178
0.0171178
0.0171176
0.0171172
0.0171166
0.017116
0.0171159
0.0171152
0.0171048
0.0171124
0.0171111
0.0171094
0.017109
0.0171101
0.0171048
0.0169339
0.0156301
0.0156297
0.0169334
0.0171043
0.0171096
0.0171083
0.0171084
0.0171091
0.0171108
0.017113
0.0170887
0.0169496
0.0170906
0.0171156
0.0171156
0.0171158
0.0171163
0.0171168
0.017117
0.017117
0.0171168
0.0171163
0.0171159
0.0171157
0.0171157
0.0170906
0.0169496
0.0170888
0.0171131
0.017111
0.0171096
0.0171105
0.0171051
0.0169341
0.0156302
0.0156298
0.0169335
0.0171045
0.0171098
0.0171086
0.0171088
0.01711
0.017112
0.0170884
0.0167947
0.0157265
0.016787
0.0170671
0.0170899
0.0170898
0.0170899
0.0170903
0.0170906
0.0170906
0.0170904
0.01709
0.0170898
0.0170899
0.0170672
0.0167871
0.0157265
0.0167948
0.0170886
0.0171121
0.0171106
0.0171109
0.0171054
0.0169342
0.0156303
0.0156298
0.0169336
0.0171046
0.01711
0.0171089
0.0171093
0.0171105
0.0171039
0.0169488
0.0157264
0.0157142
0.0168591
0.0169983
0.0170049
0.0170048
0.0170049
0.0170051
0.0170051
0.017005
0.0170048
0.0170049
0.0169983
0.0168592
0.0157143
0.0157265
0.016949
0.0171041
0.0171111
0.0171114
0.0171056
0.0169344
0.0156304
0.0156298
0.0169336
0.0171047
0.0171102
0.0171092
0.0171097
0.0171112
0.0171137
0.0170905
0.016796
0.015727
0.0167776
0.0170599
0.017082
0.0170812
0.01708
0.0170796
0.0170796
0.0170796
0.0170796
0.01708
0.0170812
0.017082
0.0170599
0.0167776
0.0157269
0.0167959
0.0170906
0.0171138
0.0171117
0.0171117
0.0171059
0.0169345
0.0156304
0.0156298
0.0169337
0.0171048
0.0171103
0.0171094
0.0171099
0.0171112
0.0171137
0.0171165
0.0170927
0.0169505
0.0170866
0.0171082
0.0171053
0.0171036
0.0171025
0.017102
0.0171018
0.0171018
0.017102
0.0171025
0.0171035
0.0171053
0.0171081
0.0170865
0.0169504
0.0170926
0.0171166
0.0171138
0.0171117
0.0171119
0.0171061
0.0169346
0.0156304
0.0156298
0.0169337
0.0171049
0.0171105
0.0171096
0.0171102
0.0171114
0.0171132
0.0171158
0.017118
0.0171088
0.017115
0.0171101
0.0171068
0.0171051
0.0171039
0.0171031
0.0171027
0.0171027
0.0171031
0.0171038
0.017105
0.0171067
0.01711
0.0171149
0.0171087
0.0171179
0.0171158
0.0171132
0.0171118
0.0171122
0.0171062
0.0169346
0.0156304
0.0156298
0.0169337
0.017105
0.0171106
0.0171098
0.0171104
0.0171116
0.0171132
0.0171151
0.0171173
0.0171172
0.0171151
0.0171094
0.0171066
0.0171047
0.0171032
0.017102
0.0171014
0.0171014
0.017102
0.0171031
0.0171046
0.0171065
0.0171093
0.0171149
0.0171171
0.0171172
0.0171151
0.0171133
0.017112
0.0171123
0.0171063
0.0169346
0.0156303
0.0156297
0.0169337
0.017105
0.0171107
0.0171099
0.0171106
0.0171118
0.0171134
0.0171152
0.0171171
0.0171173
0.0171152
0.0171095
0.0171067
0.0171046
0.0171027
0.0171013
0.0171004
0.0171003
0.0171012
0.0171026
0.0171044
0.0171065
0.0171093
0.017115
0.0171171
0.017117
0.0171152
0.0171135
0.0171122
0.0171125
0.0171064
0.0169346
0.0156303
0.0156297
0.0169337
0.0171051
0.0171107
0.01711
0.0171107
0.017112
0.0171136
0.0171155
0.0171173
0.0171175
0.0171155
0.0171097
0.0171068
0.0171046
0.0171025
0.0171008
0.0170996
0.0170996
0.0171007
0.0171024
0.0171044
0.0171067
0.0171095
0.0171153
0.0171174
0.0171172
0.0171154
0.0171137
0.0171124
0.0171126
0.0171065
0.0169346
0.0156302
0.0156297
0.0169337
0.0171051
0.0171108
0.01711
0.0171108
0.0171121
0.0171137
0.0171156
0.0171174
0.0171177
0.0171158
0.0171098
0.0171069
0.0171046
0.0171024
0.0171005
0.0170991
0.017099
0.0171004
0.0171023
0.0171044
0.0171067
0.0171096
0.0171156
0.0171176
0.0171174
0.0171156
0.0171138
0.0171124
0.0171127
0.0171065
0.0169346
0.0156302
0.0156296
0.0169337
0.0171051
0.0171108
0.0171101
0.0171108
0.0171121
0.0171138
0.0171156
0.0171175
0.0171178
0.0171158
0.0171098
0.0171069
0.0171046
0.0171024
0.0171004
0.0170989
0.0170988
0.0171003
0.0171023
0.0171044
0.0171067
0.0171097
0.0171156
0.0171176
0.0171174
0.0171156
0.0171138
0.0171125
0.0171127
0.0171065
0.0169346
0.0156301
0.0156296
0.0169337
0.0171051
0.0171108
0.01711
0.0171108
0.0171121
0.0171137
0.0171156
0.0171175
0.0171177
0.0171157
0.0171098
0.0171068
0.0171045
0.0171024
0.0171005
0.0170991
0.017099
0.0171004
0.0171023
0.0171044
0.0171067
0.0171096
0.0171155
0.0171176
0.0171174
0.0171156
0.0171138
0.0171125
0.0171127
0.0171065
0.0169346
0.0156301
0.0156297
0.0169337
0.0171051
0.0171107
0.01711
0.0171107
0.017112
0.0171136
0.0171155
0.0171174
0.0171176
0.0171155
0.0171096
0.0171067
0.0171045
0.0171025
0.0171008
0.0170996
0.0170996
0.0171007
0.0171024
0.0171044
0.0171066
0.0171095
0.0171154
0.0171175
0.0171173
0.0171155
0.0171137
0.0171124
0.0171126
0.0171065
0.0169346
0.0156302
0.0156297
0.0169337
0.017105
0.0171107
0.0171099
0.0171106
0.0171118
0.0171135
0.0171155
0.0171177
0.0171178
0.0171156
0.0171096
0.0171067
0.0171046
0.0171028
0.0171014
0.0171005
0.0171005
0.0171013
0.0171026
0.0171044
0.0171065
0.0171095
0.0171155
0.0171177
0.0171177
0.0171155
0.0171136
0.0171122
0.0171125
0.0171064
0.0169346
0.0156302
0.0156297
0.0169337
0.017105
0.0171106
0.0171097
0.0171104
0.0171116
0.0171135
0.0171162
0.0171186
0.0171096
0.0171158
0.0171104
0.0171068
0.0171049
0.0171034
0.0171023
0.0171017
0.0171017
0.0171022
0.0171032
0.0171047
0.0171067
0.0171102
0.0171157
0.0171096
0.0171186
0.0171163
0.0171136
0.0171121
0.0171123
0.0171063
0.0169346
0.0156303
0.0156297
0.0169337
0.0171049
0.0171104
0.0171096
0.0171102
0.0171115
0.0171141
0.0171171
0.0170934
0.0169518
0.0170877
0.0171084
0.0171052
0.0171032
0.0171017
0.017101
0.0171006
0.0171005
0.0171009
0.0171016
0.017103
0.0171051
0.0171083
0.0170876
0.0169518
0.0170934
0.0171171
0.0171142
0.017112
0.0171122
0.0171062
0.0169346
0.0156303
0.0156297
0.0169336
0.0171048
0.0171103
0.0171094
0.0171099
0.0171115
0.0171141
0.0170911
0.0167969
0.0157281
0.0167783
0.0170599
0.0170817
0.0170804
0.0170789
0.0170783
0.0170781
0.0170781
0.0170782
0.0170788
0.0170802
0.0170815
0.0170597
0.0167783
0.0157281
0.016797
0.0170912
0.0171143
0.0171121
0.017112
0.0171061
0.0169345
0.0156303
0.0156297
0.0169336
0.0171047
0.0171101
0.0171091
0.0171096
0.0171109
0.0171043
0.0169491
0.0157263
0.0157133
0.0168579
0.0169971
0.0170034
0.017003
0.0170029
0.0170028
0.0170028
0.0170027
0.0170028
0.0170032
0.0169968
0.0168575
0.0157131
0.0157263
0.0169492
0.0171045
0.0171114
0.0171117
0.0171058
0.0169344
0.0156303
0.0156297
0.0169336
0.0171046
0.01711
0.0171089
0.0171092
0.0171105
0.0171125
0.0170891
0.0167957
0.0157278
0.0167867
0.0170665
0.0170879
0.0170869
0.0170864
0.0170863
0.0170864
0.0170864
0.0170862
0.0170861
0.0170864
0.0170872
0.0170653
0.0167862
0.0157278
0.0167959
0.0170893
0.0171128
0.0171111
0.0171113
0.0171056
0.0169343
0.0156302
0.0156297
0.0169335
0.0171045
0.0171098
0.0171087
0.0171089
0.0171097
0.0171116
0.0171139
0.01709
0.0169512
0.0170911
0.0171149
0.0171121
0.0171109
0.0171105
0.0171105
0.0171105
0.0171104
0.0171103
0.0171101
0.0171102
0.017111
0.0171125
0.0170902
0.0169509
0.0170901
0.0171141
0.0171119
0.0171103
0.017111
0.0171054
0.0169342
0.0156301
0.0156296
0.0169334
0.0171044
0.0171097
0.0171085
0.0171086
0.0171092
0.0171102
0.0171121
0.0171137
0.0171062
0.0171156
0.0171138
0.0171084
0.0171071
0.0171067
0.0171065
0.0171065
0.0171064
0.0171064
0.0171064
0.0171065
0.017107
0.0171088
0.0171135
0.0171056
0.0171137
0.0171123
0.0171105
0.0171098
0.0171107
0.0171053
0.0169341
0.01563
0.0156296
0.0169336
0.0171046
0.0171099
0.0171087
0.0171087
0.0171092
0.0171098
0.0171108
0.0171121
0.017113
0.0171134
0.0171118
0.0171077
0.0171068
0.0171066
0.0171066
0.0171066
0.0171065
0.0171065
0.0171064
0.0171064
0.0171066
0.0171075
0.0171115
0.0171125
0.0171122
0.0171111
0.0171102
0.0171098
0.0171108
0.0171054
0.0169342
0.01563
0.0156298
0.0169345
0.0171059
0.0171113
0.01711
0.0171101
0.0171104
0.017111
0.0171117
0.0171125
0.0171134
0.0171138
0.0171137
0.0171122
0.0171118
0.0171117
0.0171117
0.0171118
0.0171118
0.0171117
0.0171116
0.0171114
0.0171114
0.0171118
0.0171132
0.0171133
0.0171127
0.017112
0.0171113
0.0171111
0.0171122
0.0171066
0.0169351
0.0156301
0.0156308
0.0169297
0.0171003
0.017106
0.0171049
0.0171049
0.0171052
0.0171057
0.0171062
0.0171069
0.0171076
0.0171081
0.0171084
0.0171081
0.0171081
0.0171082
0.0171083
0.0171083
0.0171083
0.0171083
0.0171081
0.017108
0.0171078
0.0171078
0.017108
0.0171077
0.0171072
0.0171065
0.017106
0.0171058
0.0171068
0.017101
0.0169302
0.0156311
0.0156292
0.0167856
0.0169298
0.0169347
0.0169339
0.016934
0.0169343
0.0169347
0.0169351
0.0169356
0.0169361
0.0169364
0.0169367
0.0169367
0.0169367
0.0169368
0.0169368
0.0169368
0.0169368
0.0169368
0.0169367
0.0169367
0.0169366
0.0169365
0.0169365
0.0169362
0.0169358
0.0169353
0.0169349
0.0169348
0.0169354
0.0169304
0.0167861
0.0156295
0.0155815
0.0156293
0.0156309
0.0156299
0.0156299
0.01563
0.0156302
0.0156305
0.0156308
0.0156311
0.0156314
0.0156317
0.0156319
0.0156319
0.0156319
0.0156318
0.0156317
0.0156316
0.0156315
0.0156316
0.0156316
0.0156317
0.0156318
0.0156318
0.0156317
0.0156315
0.0156312
0.0156309
0.0156306
0.0156304
0.0156304
0.0156312
0.0156296
0.0155817
0.0209703
0.0215456
0.0216207
0.0216219
0.021621
0.0216208
0.0216208
0.0216209
0.0216209
0.0216209
0.021621
0.021621
0.021621
0.0216211
0.0216211
0.0216211
0.0216211
0.0216211
0.0216211
0.0216211
0.0216211
0.0216211
0.0216211
0.021621
0.021621
0.021621
0.0216209
0.0216209
0.0216209
0.021621
0.0216219
0.0216208
0.0215457
0.0209704
0.0215457
0.0296089
0.0305316
0.0305999
0.0305993
0.0305983
0.0305981
0.0305981
0.0305981
0.030598
0.030598
0.0305979
0.0305979
0.0305978
0.0305978
0.0305977
0.0305977
0.0305977
0.0305977
0.0305977
0.0305977
0.0305978
0.0305978
0.0305979
0.0305979
0.030598
0.030598
0.0305981
0.0305983
0.0305992
0.0305999
0.0305315
0.0296089
0.0215457
0.0216208
0.0305317
0.0315964
0.0316777
0.0316766
0.0316753
0.0316751
0.0316752
0.0316752
0.0316753
0.0316754
0.0316754
0.0316755
0.0316755
0.0316756
0.0316756
0.0316757
0.0316757
0.0316757
0.0316757
0.0316756
0.0316756
0.0316756
0.0316755
0.0316754
0.0316754
0.0316753
0.0316753
0.0316755
0.0316767
0.0316778
0.0315965
0.0305318
0.0216209
0.021622
0.0306001
0.0316778
0.0317592
0.0317576
0.0317562
0.031756
0.031756
0.0317561
0.0317562
0.0317564
0.0317565
0.0317566
0.0317567
0.0317568
0.0317569
0.031757
0.031757
0.031757
0.031757
0.0317569
0.0317568
0.0317568
0.0317566
0.0317565
0.0317564
0.0317563
0.0317562
0.0317564
0.0317577
0.0317593
0.0316779
0.0306002
0.0216222
0.0216211
0.0305995
0.0316767
0.0317576
0.0317559
0.0317544
0.0317543
0.0317543
0.0317545
0.0317547
0.0317549
0.0317551
0.0317552
0.0317554
0.0317555
0.0317556
0.0317557
0.0317557
0.0317557
0.0317557
0.0317556
0.0317555
0.0317554
0.0317552
0.0317551
0.0317549
0.0317547
0.0317546
0.0317547
0.0317561
0.0317578
0.0316768
0.0305996
0.0216213
0.021621
0.0305985
0.0316754
0.0317562
0.0317544
0.031753
0.0317529
0.031753
0.0317534
0.0317539
0.0317543
0.0317545
0.0317545
0.0317545
0.0317547
0.0317549
0.0317549
0.031755
0.031755
0.031755
0.0317549
0.0317547
0.0317546
0.0317545
0.0317546
0.0317543
0.031754
0.0317535
0.0317534
0.0317547
0.0317564
0.0316756
0.0305986
0.0216213
0.0216211
0.0305983
0.0316752
0.031756
0.0317542
0.0317529
0.0317528
0.0317533
0.0317545
0.0317558
0.0317528
0.0317565
0.0317559
0.0317554
0.0317554
0.0317555
0.0317556
0.0317557
0.0317557
0.0317556
0.0317555
0.0317554
0.0317554
0.0317559
0.0317566
0.0317529
0.0317558
0.0317546
0.0317536
0.0317546
0.0317562
0.0316754
0.0305984
0.0216214
0.0216211
0.0305982
0.0316752
0.031756
0.0317543
0.031753
0.0317532
0.0317548
0.0317576
0.0317458
0.031679
0.0317444
0.0317557
0.0317537
0.0317531
0.0317528
0.0317527
0.0317528
0.0317528
0.0317527
0.0317528
0.0317532
0.0317538
0.0317557
0.0317445
0.031679
0.0317459
0.0317577
0.0317552
0.0317551
0.0317564
0.0316754
0.0305984
0.0216215
0.0216212
0.0305982
0.0316752
0.0317561
0.0317544
0.0317533
0.0317544
0.0317575
0.0317408
0.0315257
0.0307741
0.0315028
0.031701
0.0317156
0.0317138
0.0317124
0.0317119
0.0317118
0.0317118
0.0317119
0.0317124
0.0317138
0.0317156
0.031701
0.0315029
0.0307741
0.0315258
0.0317409
0.0317579
0.0317562
0.0317567
0.0316755
0.0305983
0.0216216
0.0216212
0.0305981
0.0316753
0.0317562
0.0317546
0.0317538
0.0317555
0.0317455
0.0315255
0.0298171
0.0227098
0.0297022
0.0312853
0.0314759
0.031483
0.0314818
0.0314811
0.031481
0.031481
0.0314811
0.0314818
0.0314831
0.0314759
0.0312854
0.0297024
0.0227097
0.0298172
0.0315257
0.0317459
0.0317574
0.0317572
0.0316756
0.0305982
0.0216216
0.0216212
0.030598
0.0316753
0.0317562
0.0317547
0.031754
0.0317523
0.0316785
0.030776
0.0227176
0.022578
0.0300911
0.0308799
0.030939
0.0309385
0.0309374
0.0309372
0.0309372
0.0309374
0.0309385
0.030939
0.03088
0.0300913
0.0225782
0.0227177
0.0307761
0.0316789
0.0317542
0.0317574
0.0316757
0.030598
0.0216217
0.0216212
0.0305979
0.0316753
0.0317563
0.0317548
0.0317541
0.0317559
0.0317459
0.0315244
0.0298063
0.0227134
0.0296775
0.0312664
0.0314554
0.0314633
0.031454
0.0314501
0.031449
0.0314489
0.0314501
0.031454
0.0314632
0.0314553
0.0312663
0.0296774
0.0227131
0.0298061
0.0315245
0.0317462
0.0317577
0.0317574
0.0316758
0.0305978
0.0216217
0.0216212
0.0305978
0.0316753
0.0317564
0.0317548
0.0317538
0.0317551
0.0317584
0.0317415
0.0315237
0.0307669
0.0314849
0.0316611
0.0316651
0.0316587
0.0316528
0.0316501
0.0316492
0.0316492
0.0316501
0.0316528
0.0316587
0.031665
0.031661
0.0314848
0.0307667
0.0315236
0.0317416
0.0317588
0.0317569
0.0317572
0.0316757
0.0305977
0.0216216
0.0216212
0.0305978
0.0316754
0.0317564
0.0317549
0.0317538
0.0317543
0.0317562
0.0317591
0.0317465
0.0316753
0.0317275
0.0317077
0.0316924
0.0316857
0.0316822
0.0316805
0.0316798
0.0316798
0.0316805
0.0316822
0.0316857
0.0316923
0.0317076
0.0317274
0.0316752
0.0317465
0.0317592
0.0317565
0.0317561
0.0317572
0.0316758
0.0305975
0.0216216
0.0216211
0.0305977
0.0316754
0.0317565
0.031755
0.0317538
0.0317541
0.0317549
0.0317564
0.0317572
0.0317503
0.0317401
0.0317074
0.0316932
0.0316872
0.0316844
0.031683
0.0316824
0.0316823
0.0316829
0.0316844
0.0316871
0.0316931
0.0317073
0.0317401
0.0317503
0.0317572
0.0317565
0.0317553
0.0317559
0.0317572
0.0316758
0.0305974
0.0216215
0.0216211
0.0305976
0.0316754
0.0317565
0.031755
0.0317539
0.0317541
0.0317547
0.0317554
0.0317556
0.0317522
0.0317386
0.0317068
0.0316933
0.0316875
0.0316849
0.0316835
0.0316829
0.0316829
0.0316835
0.0316848
0.0316875
0.0316932
0.0317067
0.0317386
0.0317521
0.0317556
0.0317555
0.0317551
0.031756
0.0317573
0.0316758
0.0305973
0.0216214
0.021621
0.0305976
0.0316754
0.0317566
0.0317551
0.031754
0.0317542
0.0317548
0.0317553
0.0317553
0.0317518
0.0317383
0.0317069
0.0316937
0.0316879
0.0316853
0.0316839
0.0316833
0.0316833
0.0316839
0.0316853
0.0316879
0.0316936
0.0317069
0.0317382
0.0317517
0.0317553
0.0317554
0.0317551
0.031756
0.0317574
0.0316759
0.0305972
0.0216214
0.021621
0.0305976
0.0316754
0.0317566
0.0317551
0.031754
0.0317542
0.0317548
0.0317554
0.0317553
0.0317517
0.0317384
0.0317071
0.0316939
0.0316881
0.0316855
0.0316841
0.0316835
0.0316835
0.0316841
0.0316855
0.0316881
0.0316938
0.0317071
0.0317383
0.0317517
0.0317553
0.0317554
0.0317552
0.0317561
0.0317574
0.0316759
0.0305972
0.0216213
0.021621
0.0305976
0.0316754
0.0317566
0.0317551
0.031754
0.0317542
0.0317548
0.0317554
0.0317553
0.0317518
0.0317384
0.0317072
0.0316939
0.0316882
0.0316855
0.0316841
0.0316835
0.0316835
0.0316841
0.0316855
0.0316881
0.0316939
0.0317071
0.0317383
0.0317517
0.0317553
0.0317555
0.0317552
0.0317561
0.0317574
0.0316759
0.0305972
0.0216213
0.021621
0.0305976
0.0316754
0.0317566
0.0317551
0.031754
0.0317542
0.0317548
0.0317554
0.0317553
0.0317518
0.0317384
0.0317071
0.0316938
0.031688
0.0316854
0.031684
0.0316833
0.0316833
0.031684
0.0316854
0.031688
0.0316937
0.031707
0.0317384
0.0317518
0.0317553
0.0317555
0.0317552
0.0317561
0.0317574
0.0316759
0.0305972
0.0216213
0.021621
0.0305976
0.0316754
0.0317566
0.0317551
0.031754
0.0317542
0.0317548
0.0317555
0.0317558
0.0317523
0.0317388
0.031707
0.0316936
0.0316877
0.031685
0.0316836
0.031683
0.031683
0.0316836
0.031685
0.0316877
0.0316935
0.031707
0.0317388
0.0317523
0.0317558
0.0317556
0.0317552
0.0317561
0.0317574
0.0316759
0.0305973
0.0216213
0.021621
0.0305977
0.0316754
0.0317565
0.031755
0.0317539
0.0317542
0.0317551
0.0317566
0.0317574
0.0317505
0.0317404
0.0317079
0.0316936
0.0316876
0.0316847
0.0316833
0.0316827
0.0316826
0.0316833
0.0316847
0.0316876
0.0316936
0.0317078
0.0317404
0.0317505
0.0317574
0.0317567
0.0317554
0.0317561
0.0317573
0.0316759
0.0305973
0.0216214
0.0216211
0.0305977
0.0316754
0.0317565
0.031755
0.0317539
0.0317544
0.0317563
0.0317593
0.0317468
0.0316758
0.031728
0.0317084
0.0316931
0.0316864
0.0316829
0.0316811
0.0316804
0.0316804
0.0316811
0.0316829
0.0316864
0.0316931
0.0317084
0.0317279
0.0316758
0.0317469
0.0317594
0.0317567
0.0317563
0.0317573
0.0316758
0.0305974
0.0216214
0.0216211
0.0305978
0.0316754
0.0317565
0.0317549
0.031754
0.0317553
0.0317586
0.0317418
0.0315244
0.0307686
0.0314861
0.0316622
0.0316662
0.0316599
0.0316539
0.0316512
0.0316503
0.0316503
0.0316513
0.031654
0.0316599
0.0316663
0.0316623
0.0314862
0.0307688
0.0315245
0.0317419
0.031759
0.0317571
0.0317574
0.0316758
0.0305976
0.0216215
0.0216211
0.0305979
0.0316754
0.0317564
0.0317549
0.0317542
0.0317561
0.0317461
0.0315249
0.0298078
0.0227152
0.0296794
0.0312677
0.0314568
0.0314648
0.0314555
0.0314516
0.0314505
0.0314505
0.0314517
0.0314556
0.0314648
0.0314568
0.0312678
0.02968
0.0227151
0.0298081
0.0315251
0.0317465
0.031758
0.0317576
0.0316759
0.0305977
0.0216215
0.0216211
0.030598
0.0316754
0.0317564
0.0317549
0.0317542
0.0317526
0.0316788
0.0307761
0.0227168
0.0225758
0.0300886
0.0308786
0.0309377
0.030937
0.0309357
0.0309354
0.0309354
0.0309357
0.0309369
0.0309375
0.0308784
0.0300882
0.0225751
0.0227167
0.0307763
0.0316792
0.0317545
0.0317576
0.0316759
0.0305979
0.0216215
0.0216211
0.030598
0.0316753
0.0317563
0.0317547
0.031754
0.0317558
0.0317458
0.0315259
0.0298177
0.022712
0.0296986
0.0312833
0.0314731
0.0314796
0.0314781
0.0314773
0.0314771
0.0314771
0.0314773
0.031478
0.0314794
0.0314725
0.0312818
0.0296976
0.022712
0.0298178
0.0315261
0.0317463
0.0317577
0.0317574
0.0316758
0.030598
0.0216215
0.0216211
0.0305981
0.0316753
0.0317563
0.0317546
0.0317536
0.0317547
0.0317579
0.0317413
0.0315263
0.0307747
0.0315014
0.0316962
0.0317035
0.0316989
0.0316968
0.0316961
0.031696
0.031696
0.0316961
0.0316966
0.0316982
0.0317009
0.0316889
0.0314977
0.0307737
0.0315262
0.0317415
0.0317583
0.0317566
0.031757
0.0316757
0.0305981
0.0216214
0.0216211
0.0305983
0.0316755
0.0317565
0.0317548
0.0317536
0.0317539
0.0317555
0.0317584
0.0317466
0.0316793
0.0317418
0.0317435
0.0317223
0.0317151
0.0317129
0.0317124
0.0317122
0.0317122
0.0317121
0.0317123
0.0317131
0.0317156
0.0317242
0.0317323
0.0316765
0.0317461
0.0317584
0.031756
0.0317558
0.031757
0.0316759
0.0305984
0.0216214
0.0216212
0.0305993
0.0316768
0.0317579
0.0317562
0.0317549
0.0317549
0.0317555
0.0317567
0.031758
0.0317546
0.0317555
0.0317452
0.031725
0.0317184
0.0317166
0.0317162
0.0317161
0.031716
0.031716
0.031716
0.0317164
0.0317182
0.0317255
0.0317459
0.0317519
0.0317576
0.0317568
0.0317559
0.0317568
0.0317583
0.0316772
0.0305994
0.0216215
0.0216221
0.0306
0.031678
0.0317594
0.0317579
0.0317566
0.0317566
0.0317568
0.0317572
0.0317579
0.0317581
0.0317571
0.031753
0.031745
0.0317423
0.0317417
0.0317416
0.0317416
0.0317416
0.0317416
0.0317415
0.0317416
0.0317422
0.0317449
0.0317531
0.0317569
0.0317577
0.0317574
0.0317572
0.0317584
0.0317599
0.0316783
0.0306
0.0216223
0.0216209
0.0305316
0.0315966
0.031678
0.031677
0.0316758
0.0316757
0.0316758
0.031676
0.0316763
0.0316765
0.0316762
0.0316751
0.031673
0.0316722
0.031672
0.031672
0.031672
0.031672
0.0316719
0.0316719
0.0316719
0.0316721
0.0316729
0.0316751
0.0316761
0.0316763
0.0316762
0.0316762
0.0316774
0.0316784
0.0315968
0.0305316
0.0216211
0.0215458
0.0296088
0.0305317
0.0306002
0.0305996
0.0305987
0.0305985
0.0305985
0.0305985
0.0305985
0.0305983
0.0305979
0.0305972
0.0305961
0.0305955
0.030595
0.0305948
0.0305947
0.0305946
0.0305947
0.0305949
0.0305951
0.0305956
0.0305963
0.0305973
0.030598
0.0305984
0.0305985
0.0305988
0.0305997
0.0306003
0.0305318
0.0296088
0.021546
0.0209704
0.0215458
0.021621
0.0216222
0.0216214
0.0216214
0.0216216
0.0216218
0.021622
0.0216222
0.0216224
0.0216226
0.0216227
0.0216226
0.0216225
0.0216224
0.0216223
0.0216222
0.0216221
0.0216222
0.0216223
0.0216224
0.0216225
0.0216226
0.0216226
0.0216225
0.0216223
0.0216221
0.0216218
0.0216218
0.0216225
0.0216212
0.021546
0.0209706
0.0217399
0.0225192
0.0226388
0.0226435
0.0226425
0.0226423
0.0226423
0.0226423
0.0226423
0.0226424
0.0226424
0.0226424
0.0226424
0.0226425
0.0226425
0.0226425
0.0226425
0.0226425
0.0226425
0.0226425
0.0226425
0.0226425
0.0226425
0.0226424
0.0226424
0.0226424
0.0226424
0.0226423
0.0226423
0.0226426
0.0226436
0.0226388
0.0225193
0.02174
0.0225192
0.032424
0.0336622
0.0337711
0.0337727
0.0337715
0.0337712
0.0337711
0.033771
0.0337709
0.0337708
0.0337707
0.0337706
0.0337705
0.0337704
0.0337703
0.0337703
0.0337702
0.0337702
0.0337703
0.0337703
0.0337704
0.0337705
0.0337706
0.0337707
0.0337708
0.0337709
0.033771
0.0337713
0.0337725
0.0337709
0.0336621
0.0324238
0.0225193
0.0226388
0.0336624
0.035112
0.0352461
0.0352482
0.0352466
0.0352463
0.0352463
0.0352463
0.0352463
0.0352463
0.0352463
0.0352463
0.0352463
0.0352463
0.0352463
0.0352463
0.0352463
0.0352463
0.0352463
0.0352463
0.0352463
0.0352463
0.0352463
0.0352463
0.0352463
0.0352463
0.0352463
0.0352467
0.0352482
0.0352461
0.035112
0.0336624
0.022639
0.0226436
0.0337713
0.0352462
0.0353821
0.0353838
0.0353821
0.0353817
0.0353817
0.0353818
0.0353818
0.0353819
0.0353819
0.0353819
0.035382
0.035382
0.035382
0.0353821
0.0353821
0.0353821
0.0353821
0.035382
0.035382
0.035382
0.035382
0.0353819
0.0353819
0.0353818
0.0353818
0.0353822
0.0353839
0.0353822
0.0352462
0.0337713
0.0226438
0.0226426
0.0337729
0.0352483
0.0353838
0.0353853
0.0353836
0.0353832
0.0353832
0.0353833
0.0353834
0.0353836
0.0353836
0.0353836
0.0353836
0.0353837
0.0353837
0.0353838
0.0353838
0.0353838
0.0353838
0.0353837
0.0353837
0.0353837
0.0353836
0.0353836
0.0353836
0.0353835
0.0353834
0.0353837
0.0353854
0.0353839
0.0352483
0.0337729
0.0226428
0.0226424
0.0337717
0.0352467
0.0353821
0.0353836
0.0353818
0.0353815
0.0353816
0.0353819
0.0353824
0.0353825
0.0353827
0.0353823
0.0353822
0.0353823
0.0353823
0.0353823
0.0353823
0.0353823
0.0353823
0.0353823
0.0353823
0.0353822
0.0353823
0.0353827
0.0353825
0.0353824
0.035382
0.035382
0.0353837
0.0353822
0.0352468
0.0337717
0.0226427
0.0226425
0.0337714
0.0352464
0.0353817
0.0353832
0.0353815
0.0353812
0.0353817
0.035383
0.0353836
0.0353775
0.035383
0.0353822
0.0353813
0.0353813
0.035381
0.0353808
0.0353807
0.0353807
0.0353808
0.035381
0.0353813
0.0353813
0.0353822
0.035383
0.0353775
0.0353836
0.0353831
0.0353822
0.0353835
0.0353819
0.0352464
0.0337714
0.0226427
0.0226425
0.0337713
0.0352463
0.0353817
0.0353832
0.0353815
0.0353817
0.0353835
0.035385
0.0353602
0.0352598
0.0353456
0.0353624
0.0353608
0.0353607
0.0353589
0.0353579
0.0353576
0.0353576
0.0353579
0.0353589
0.0353607
0.0353608
0.0353625
0.0353456
0.0352598
0.0353602
0.0353851
0.035384
0.0353839
0.0353819
0.0352464
0.0337712
0.0226428
0.0226426
0.0337712
0.0352463
0.0353817
0.0353833
0.0353818
0.035383
0.0353849
0.0353485
0.0350232
0.0340348
0.0349005
0.0351448
0.0351668
0.0351667
0.0351627
0.0351601
0.0351594
0.0351594
0.0351601
0.0351627
0.0351667
0.0351668
0.0351448
0.0349005
0.0340348
0.0350233
0.0353486
0.0353854
0.0353852
0.0353822
0.0352464
0.0337711
0.0226429
0.0226426
0.033771
0.0352463
0.0353818
0.0353834
0.0353823
0.0353834
0.0353599
0.0350238
0.0327577
0.0240646
0.0321738
0.0339247
0.0341419
0.0341443
0.0341498
0.0341489
0.0341483
0.0341483
0.0341489
0.0341498
0.0341442
0.0341419
0.0339248
0.032174
0.0240644
0.0327577
0.0350239
0.0353604
0.0353856
0.0353827
0.0352465
0.0337709
0.022643
0.0226426
0.0337709
0.0352463
0.0353818
0.0353835
0.0353823
0.0353772
0.035261
0.03405
0.0241166
0.0231766
0.0308737
0.0316859
0.0317513
0.031749
0.0317471
0.0317467
0.0317467
0.0317471
0.031749
0.0317514
0.031686
0.0308739
0.0231768
0.0241167
0.0340501
0.0352615
0.0353794
0.0353827
0.0352465
0.0337706
0.022643
0.0226426
0.0337707
0.0352462
0.0353818
0.0353835
0.0353824
0.0353835
0.0353599
0.0350218
0.0327444
0.0240693
0.0321446
0.03392
0.034148
0.0341893
0.0341497
0.0341369
0.0341342
0.0341341
0.0341369
0.0341496
0.0341891
0.0341479
0.0339198
0.0321445
0.0240691
0.0327441
0.0350219
0.0353604
0.0353857
0.0353828
0.0352464
0.0337703
0.022643
0.0226426
0.0337706
0.0352462
0.0353818
0.0353834
0.035382
0.0353832
0.0353852
0.035348
0.0350179
0.0340161
0.0348397
0.0350098
0.0350113
0.0350139
0.0349988
0.0349927
0.0349912
0.0349912
0.0349927
0.0349988
0.0350138
0.0350112
0.0350097
0.0348396
0.0340159
0.0350178
0.035348
0.0353856
0.0353855
0.0353824
0.0352463
0.03377
0.022643
0.0226425
0.0337705
0.0352462
0.0353819
0.0353834
0.0353818
0.0353821
0.0353839
0.035385
0.0353566
0.0352387
0.0352655
0.0351699
0.0351355
0.035129
0.0351243
0.0351223
0.0351216
0.0351216
0.0351223
0.0351243
0.0351289
0.0351354
0.0351699
0.0352655
0.0352387
0.0353566
0.0353851
0.0353844
0.0353843
0.0353822
0.0352462
0.0337698
0.0226429
0.0226425
0.0337703
0.0352462
0.0353819
0.0353834
0.0353818
0.0353817
0.0353822
0.0353831
0.0353802
0.0353558
0.0352978
0.0351772
0.0351411
0.0351336
0.0351313
0.0351304
0.0351301
0.0351301
0.0351304
0.0351313
0.0351336
0.0351411
0.0351772
0.0352978
0.0353557
0.0353802
0.0353832
0.0353827
0.0353839
0.0353822
0.0352462
0.0337696
0.0226428
0.0226425
0.0337703
0.0352462
0.0353819
0.0353835
0.0353818
0.0353816
0.0353818
0.0353817
0.0353787
0.0353604
0.0352965
0.0351756
0.03514
0.0351325
0.0351306
0.0351299
0.0351296
0.0351296
0.0351299
0.0351306
0.0351325
0.03514
0.0351755
0.0352965
0.0353604
0.0353788
0.0353818
0.0353823
0.0353839
0.0353822
0.0352462
0.0337695
0.0226428
0.0226424
0.0337702
0.0352462
0.0353819
0.0353835
0.0353818
0.0353816
0.0353817
0.0353815
0.0353781
0.0353598
0.0352957
0.0351752
0.0351398
0.0351323
0.0351305
0.0351298
0.0351296
0.0351296
0.0351298
0.0351305
0.0351323
0.0351398
0.0351752
0.0352957
0.0353598
0.0353781
0.0353815
0.0353822
0.0353839
0.0353822
0.0352462
0.0337694
0.0226427
0.0226424
0.0337702
0.0352462
0.0353819
0.0353835
0.0353818
0.0353816
0.0353818
0.0353814
0.035378
0.0353597
0.0352956
0.0351753
0.0351399
0.0351324
0.0351306
0.0351299
0.0351296
0.0351296
0.0351299
0.0351306
0.0351324
0.0351399
0.0351752
0.0352956
0.0353597
0.035378
0.0353815
0.0353822
0.0353839
0.0353822
0.0352462
0.0337693
0.0226427
0.0226424
0.0337702
0.0352462
0.0353819
0.0353835
0.0353818
0.0353816
0.0353818
0.0353815
0.035378
0.0353597
0.0352956
0.0351753
0.0351399
0.0351324
0.0351306
0.0351299
0.0351296
0.0351296
0.0351299
0.0351306
0.0351324
0.0351399
0.0351753