/*--------------------------------*- C++ -*----------------------------------*\
| =========                 |                                                 |
| \\      /  F ield         | OpenFOAM: The Open Source CFD Toolbox           |
|  \\    /   O peration     | Version:  2112                                  |
|   \\  /    A nd           | Website:  www.openfoam.com                      |
|    \\/     M anipulation  |                                                 |
\*---------------------------------------------------------------------------*/
FoamFile
{
    version     2.0;
    format      ascii;
    arch        "LSB;label=32;scalar=64";
    class       volScalarField;
    location    "0.4";
    object      nut;
}
// * * * * * * * * * * * * * * * * * * * * * * * * * * * * * * * * * * * * * //

dimensions      [0 2 -1 0 0 0 0];

internalField   nonuniform List<scalar> 
64906
(
0.000238888
0.000239836
0.000239959
0.000239959
0.000239957
0.000239958
0.000239958
0.000239959
0.000239959
0.00023996
0.000239961
0.000239961
0.000239962
0.000239962
0.000239962
0.000239962
0.000239962
0.000239962
0.000239962
0.000239962
0.000239962
0.000239962
0.000239962
0.000239962
0.000239961
0.000239961
0.00023996
0.000239959
0.000239959
0.000239959
0.00023996
0.00023996
0.000239837
0.000238889
0.000239837
0.000255653
0.00025831
0.000258516
0.000258516
0.000258514
0.000258515
0.000258516
0.000258517
0.000258518
0.00025852
0.000258521
0.000258522
0.000258523
0.000258524
0.000258525
0.000258525
0.000258525
0.000258525
0.000258525
0.000258525
0.000258524
0.000258523
0.000258522
0.000258521
0.00025852
0.000258519
0.000258518
0.000258517
0.000258518
0.000258518
0.000258313
0.000255655
0.000239838
0.00023996
0.000258311
0.000261602
0.000261866
0.000261866
0.000261864
0.000261864
0.000261866
0.000261868
0.00026187
0.000261872
0.000261875
0.000261877
0.000261879
0.000261881
0.000261882
0.000261883
0.000261884
0.000261884
0.000261883
0.000261882
0.000261881
0.000261879
0.000261877
0.000261875
0.000261873
0.00026187
0.000261869
0.000261867
0.00026187
0.00026187
0.000261605
0.000258314
0.000239962
0.00023996
0.000258517
0.000261867
0.000262134
0.000262132
0.00026213
0.000262131
0.000262133
0.000262136
0.000262139
0.000262142
0.000262146
0.000262149
0.000262152
0.000262155
0.000262157
0.000262159
0.000262159
0.000262159
0.000262159
0.000262157
0.000262155
0.000262153
0.00026215
0.000262146
0.000262143
0.000262139
0.000262137
0.000262135
0.000262137
0.000262138
0.000261871
0.000258521
0.000239963
0.000239959
0.000258518
0.000261867
0.000262133
0.000262131
0.000262129
0.000262131
0.000262133
0.000262137
0.000262141
0.000262146
0.000262152
0.000262157
0.000262161
0.000262165
0.000262168
0.00026217
0.000262171
0.000262171
0.00026217
0.000262168
0.000262165
0.000262162
0.000262157
0.000262152
0.000262147
0.000262142
0.000262138
0.000262135
0.000262137
0.000262138
0.000261871
0.000258522
0.000239962
0.000239959
0.000258516
0.000261865
0.00026213
0.000262129
0.000262127
0.00026213
0.000262133
0.000262139
0.000262145
0.000262153
0.000262161
0.000262168
0.000262174
0.000262179
0.000262183
0.000262186
0.000262188
0.000262188
0.000262186
0.000262184
0.00026218
0.000262174
0.000262168
0.000262162
0.000262153
0.000262146
0.00026214
0.000262136
0.000262136
0.000262136
0.00026187
0.000258521
0.000239963
0.00023996
0.000258517
0.000261865
0.000262131
0.000262131
0.00026213
0.000262133
0.000262138
0.000262147
0.000262157
0.000262157
0.000262181
0.000262189
0.000262196
0.000262204
0.000262209
0.000262213
0.000262215
0.000262215
0.000262213
0.000262209
0.000262204
0.000262197
0.00026219
0.000262182
0.000262158
0.000262158
0.000262148
0.000262141
0.000262139
0.000262139
0.000261872
0.000258523
0.000239964
0.000239961
0.000258518
0.000261867
0.000262133
0.000262133
0.000262133
0.000262138
0.000262148
0.000262162
0.000262132
0.00026193
0.000262161
0.000262213
0.00026222
0.000262228
0.000262235
0.000262239
0.000262242
0.000262242
0.00026224
0.000262235
0.000262229
0.000262221
0.000262214
0.000262162
0.000261931
0.000262133
0.000262163
0.00026215
0.000262144
0.000262142
0.000261875
0.000258524
0.000239965
0.000239962
0.000258519
0.000261868
0.000262135
0.000262136
0.000262137
0.000262145
0.00026216
0.000262114
0.000261436
0.000259088
0.000261427
0.000262091
0.000262158
0.000262166
0.000262171
0.000262176
0.000262179
0.000262179
0.000262177
0.000262172
0.000262167
0.000262158
0.000262092
0.000261428
0.000259089
0.000261437
0.000262115
0.000262163
0.000262152
0.000262147
0.000261877
0.000258526
0.000239967
0.000239962
0.00025852
0.00026187
0.000262138
0.000262139
0.000262142
0.000262153
0.000262127
0.000261433
0.000256258
0.000241904
0.000256072
0.000260948
0.000261591
0.000261632
0.000261637
0.000261641
0.000261644
0.000261644
0.000261641
0.000261637
0.000261633
0.000261592
0.00026095
0.000256074
0.000241903
0.000256259
0.000261434
0.00026213
0.00026216
0.000262152
0.000261881
0.000258528
0.000239968
0.000239963
0.00025852
0.000261872
0.00026214
0.000262143
0.000262147
0.000262149
0.00026192
0.000259082
0.000241907
0.000241732
0.000257606
0.000260106
0.000260309
0.000260317
0.000260318
0.000260319
0.000260319
0.000260318
0.000260317
0.00026031
0.000260106
0.000257608
0.000241733
0.000241908
0.000259084
0.000261922
0.000262156
0.000262156
0.000261884
0.000258529
0.000239969
0.000239963
0.000258521
0.000261873
0.000262142
0.000262146
0.000262152
0.000262167
0.000262146
0.000261452
0.000256254
0.000241905
0.000255936
0.00026084
0.000261476
0.000261508
0.000261491
0.000261485
0.000261483
0.000261483
0.000261485
0.000261491
0.000261508
0.000261475
0.00026084
0.000255936
0.000241904
0.000256253
0.000261452
0.000262148
0.000262173
0.000262161
0.000261887
0.00025853
0.000239969
0.000239963
0.000258521
0.000261874
0.000262144
0.000262149
0.000262155
0.00026217
0.000262193
0.000262153
0.000261473
0.000259085
0.000261351
0.000261957
0.000261982
0.000261964
0.000261948
0.000261941
0.000261938
0.000261938
0.000261941
0.000261948
0.000261964
0.000261981
0.000261956
0.00026135
0.000259082
0.000261472
0.000262153
0.000262195
0.000262176
0.000262164
0.000261889
0.000258531
0.000239969
0.000239963
0.000258521
0.000261875
0.000262146
0.000262151
0.000262158
0.000262172
0.000262193
0.000262217
0.000262195
0.000261967
0.000262132
0.000262089
0.000262046
0.000262023
0.000262007
0.000261998
0.000261994
0.000261993
0.000261998
0.000262007
0.000262022
0.000262045
0.000262088
0.000262129
0.000261965
0.000262194
0.000262218
0.000262194
0.000262177
0.000262166
0.000261891
0.000258531
0.000239969
0.000239962
0.000258522
0.000261876
0.000262148
0.000262153
0.00026216
0.000262174
0.000262193
0.000262216
0.000262237
0.000262219
0.000262185
0.000262091
0.000262048
0.000262023
0.000262005
0.000261992
0.000261985
0.000261985
0.000261991
0.000262004
0.000262022
0.000262046
0.00026209
0.000262183
0.000262218
0.000262236
0.000262216
0.000262194
0.00026218
0.000262169
0.000261892
0.000258532
0.000239968
0.000239962
0.000258522
0.000261877
0.000262149
0.000262155
0.000262162
0.000262177
0.000262196
0.000262217
0.000262237
0.000262232
0.00026219
0.000262092
0.000262049
0.000262022
0.000262001
0.000261986
0.000261976
0.000261976
0.000261985
0.000262
0.000262021
0.000262047
0.000262091
0.000262188
0.000262231
0.000262236
0.000262217
0.000262197
0.000262182
0.00026217
0.000261893
0.000258532
0.000239968
0.000239961
0.000258521
0.000261877
0.000262149
0.000262156
0.000262164
0.000262179
0.000262198
0.000262219
0.000262239
0.000262236
0.000262194
0.000262094
0.00026205
0.000262022
0.000262
0.000261981
0.000261969
0.000261969
0.00026198
0.000261999
0.000262021
0.000262049
0.000262093
0.000262192
0.000262234
0.000262238
0.000262219
0.000262199
0.000262184
0.000262172
0.000261894
0.000258532
0.000239967
0.000239961
0.000258521
0.000261878
0.00026215
0.000262156
0.000262165
0.00026218
0.000262199
0.000262221
0.000262241
0.000262238
0.000262197
0.000262096
0.000262052
0.000262023
0.000261999
0.000261979
0.000261964
0.000261963
0.000261978
0.000261998
0.000262021
0.00026205
0.000262094
0.000262195
0.000262237
0.00026224
0.000262221
0.0002622
0.000262185
0.000262173
0.000261895
0.000258532
0.000239966
0.000239961
0.000258521
0.000261878
0.00026215
0.000262156
0.000262165
0.00026218
0.0002622
0.000262221
0.000262242
0.000262239
0.000262198
0.000262096
0.000262052
0.000262023
0.000261999
0.000261978
0.000261962
0.000261961
0.000261977
0.000261997
0.000262021
0.00026205
0.000262094
0.000262196
0.000262237
0.000262241
0.000262221
0.000262201
0.000262185
0.000262173
0.000261895
0.000258532
0.000239966
0.000239961
0.000258521
0.000261878
0.00026215
0.000262156
0.000262165
0.00026218
0.000262199
0.000262221
0.000262242
0.000262238
0.000262197
0.000262095
0.000262051
0.000262022
0.000261999
0.000261978
0.000261964
0.000261963
0.000261977
0.000261997
0.000262021
0.00026205
0.000262094
0.000262195
0.000262237
0.000262241
0.000262221
0.000262201
0.000262185
0.000262173
0.000261895
0.000258532
0.000239966
0.000239961
0.000258521
0.000261877
0.000262149
0.000262156
0.000262164
0.000262179
0.000262198
0.00026222
0.000262241
0.000262237
0.000262195
0.000262094
0.00026205
0.000262022
0.000261999
0.000261981
0.000261968
0.000261968
0.000261979
0.000261998
0.00026202
0.000262048
0.000262093
0.000262193
0.000262236
0.00026224
0.00026222
0.000262199
0.000262184
0.000262172
0.000261894
0.000258532
0.000239967
0.000239961
0.000258521
0.000261877
0.000262149
0.000262155
0.000262162
0.000262177
0.000262197
0.00026222
0.000262242
0.000262226
0.000262193
0.000262094
0.000262049
0.000262022
0.000262001
0.000261986
0.000261976
0.000261976
0.000261984
0.000262
0.00026202
0.000262047
0.000262093
0.000262191
0.000262225
0.000262242
0.00026222
0.000262198
0.000262183
0.000262171
0.000261894
0.000258532
0.000239967
0.000239962
0.000258521
0.000261876
0.000262148
0.000262153
0.00026216
0.000262175
0.000262197
0.000262223
0.000262202
0.000261977
0.000262142
0.000262093
0.000262047
0.000262021
0.000262002
0.00026199
0.000261983
0.000261983
0.000261989
0.000262001
0.000262019
0.000262045
0.000262092
0.00026214
0.000261977
0.000262202
0.000262224
0.000262199
0.000262181
0.000262169
0.000261892
0.000258532
0.000239968
0.000239962
0.000258521
0.000261875
0.000262146
0.000262151
0.000262158
0.000262174
0.000262198
0.00026216
0.000261483
0.000259102
0.000261366
0.00026196
0.000261982
0.000261961
0.000261942
0.000261931
0.000261926
0.000261926
0.00026193
0.00026194
0.000261959
0.00026198
0.000261959
0.000261365
0.000259103
0.000261484
0.000262161
0.000262201
0.00026218
0.000262167
0.000261891
0.000258531
0.000239968
0.000239962
0.000258521
0.000261874
0.000262144
0.000262149
0.000262155
0.000262171
0.000262152
0.000261459
0.000256267
0.000241919
0.000255945
0.000260841
0.000261473
0.000261501
0.000261482
0.000261472
0.000261469
0.000261469
0.000261471
0.00026148
0.000261499
0.000261471
0.000260839
0.000255946
0.000241919
0.000256269
0.000261461
0.000262155
0.000262178
0.000262165
0.000261889
0.000258531
0.000239968
0.000239962
0.000258521
0.000261873
0.000262142
0.000262146
0.000262151
0.000262154
0.000261925
0.000259086
0.000241907
0.00024172
0.00025759
0.000260092
0.000260292
0.000260295
0.000260294
0.000260293
0.000260293
0.000260292
0.000260293
0.000260289
0.000260088
0.000257586
0.000241717
0.000241907
0.000259088
0.000261928
0.000262161
0.000262161
0.000261887
0.00025853
0.000239968
0.000239962
0.00025852
0.000261872
0.000262141
0.000262143
0.000262147
0.000262159
0.000262135
0.000261442
0.000256271
0.00024192
0.000256064
0.000260938
0.000261564
0.000261594
0.00026159
0.000261589
0.000261589
0.000261589
0.000261587
0.000261586
0.000261588
0.000261555
0.000260922
0.000256057
0.000241919
0.000256272
0.000261445
0.000262139
0.000262167
0.000262157
0.000261884
0.000258529
0.000239967
0.000239961
0.00025852
0.000261871
0.000262139
0.000262141
0.000262143
0.000262153
0.00026217
0.000262126
0.000261453
0.000259108
0.000261432
0.000262077
0.000262102
0.00026209
0.000262083
0.000262082
0.000262083
0.000262082
0.00026208
0.000262079
0.000262081
0.000262085
0.000262039
0.000261416
0.000259103
0.000261454
0.000262129
0.000262174
0.000262161
0.000262153
0.000261882
0.000258528
0.000239966
0.000239961
0.000258519
0.00026187
0.000262138
0.000262139
0.00026214
0.000262147
0.00026216
0.000262177
0.00026215
0.000261948
0.000262163
0.000262174
0.000262093
0.000262072
0.000262066
0.000262064
0.000262063
0.000262062
0.000262062
0.000262062
0.000262064
0.000262072
0.000262094
0.000262126
0.000261936
0.00026215
0.00026218
0.000262164
0.000262155
0.000262151
0.000261881
0.000258527
0.000239965
0.00023996
0.000258521
0.000261872
0.00026214
0.000262141
0.000262142
0.000262147
0.000262155
0.000262167
0.00026218
0.00026218
0.000262191
0.000262162
0.000262093
0.000262076
0.000262072
0.000262071
0.000262071
0.00026207
0.00026207
0.000262069
0.00026207
0.000262074
0.000262091
0.000262157
0.000262169
0.000262181
0.00026217
0.00026216
0.000262155
0.000262152
0.000261882
0.000258529
0.000239965
0.000239962
0.000258521
0.000261873
0.000262141
0.000262142
0.000262142
0.000262147
0.000262154
0.000262162
0.000262172
0.000262182
0.000262186
0.000262179
0.000262151
0.000262143
0.000262141
0.000262141
0.000262142
0.000262142
0.000262141
0.000262139
0.000262138
0.000262139
0.000262146
0.000262174
0.000262179
0.000262175
0.000262166
0.000262158
0.000262155
0.000262152
0.000261882
0.000258528
0.000239966
0.000239962
0.000258315
0.000261608
0.000261874
0.000261876
0.000261876
0.00026188
0.000261886
0.000261893
0.0002619
0.000261908
0.000261914
0.000261916
0.000261909
0.000261908
0.000261909
0.00026191
0.000261911
0.000261911
0.00026191
0.000261909
0.000261907
0.000261905
0.000261906
0.000261912
0.000261909
0.000261904
0.000261896
0.00026189
0.000261888
0.000261884
0.000261616
0.000258321
0.000239965
0.000239839
0.000255657
0.000258316
0.000258524
0.000258526
0.000258526
0.00025853
0.000258534
0.000258539
0.000258545
0.00025855
0.000258554
0.000258557
0.000258556
0.000258555
0.000258555
0.000258556
0.000258556
0.000258556
0.000258556
0.000258555
0.000258554
0.000258554
0.000258554
0.000258555
0.000258552
0.000258548
0.000258542
0.000258538
0.000258535
0.000258532
0.000258323
0.000255662
0.000239842
0.00023889
0.000239839
0.000239963
0.000239964
0.000239964
0.000239965
0.000239968
0.000239971
0.000239974
0.000239978
0.000239981
0.000239984
0.000239986
0.000239987
0.000239986
0.000239985
0.000239984
0.000239983
0.000239982
0.000239983
0.000239984
0.000239985
0.000239985
0.000239986
0.000239985
0.000239983
0.000239979
0.000239976
0.000239972
0.00023997
0.000239969
0.000239967
0.000239842
0.000238892
0.000362478
0.000372038
0.000373821
0.000373957
0.000373955
0.000373953
0.000373953
0.000373953
0.000373954
0.000373954
0.000373955
0.000373955
0.000373955
0.000373956
0.000373956
0.000373956
0.000373956
0.000373956
0.000373956
0.000373956
0.000373956
0.000373956
0.000373955
0.000373955
0.000373955
0.000373955
0.000373954
0.000373954
0.000373954
0.000373956
0.000373958
0.000373822
0.000372038
0.000362478
0.000372038
0.000907644
0.000979847
0.000986503
0.000986835
0.00098682
0.000986811
0.000986807
0.000986802
0.000986797
0.000986791
0.000986783
0.000986776
0.000986769
0.000986763
0.000986758
0.000986755
0.000986753
0.000986753
0.000986755
0.000986758
0.000986763
0.000986769
0.000986775
0.000986782
0.00098679
0.000986796
0.000986802
0.000986811
0.000986827
0.000986495
0.000979839
0.000907638
0.000372039
0.000373822
0.000979857
0.00107105
0.0010801
0.00108059
0.00108057
0.00108056
0.00108056
0.00108057
0.00108057
0.00108057
0.00108057
0.00108057
0.00108057
0.00108057
0.00108057
0.00108057
0.00108057
0.00108057
0.00108057
0.00108057
0.00108057
0.00108057
0.00108057
0.00108057
0.00108057
0.00108057
0.00108057
0.00108058
0.00108059
0.0010801
0.00107105
0.000979857
0.000373824
0.000373959
0.000986515
0.0010801
0.00108944
0.00108994
0.00108992
0.00108991
0.00108992
0.00108992
0.00108992
0.00108993
0.00108993
0.00108994
0.00108994
0.00108995
0.00108995
0.00108995
0.00108995
0.00108995
0.00108995
0.00108995
0.00108995
0.00108994
0.00108994
0.00108994
0.00108993
0.00108993
0.00108992
0.00108993
0.00108995
0.00108945
0.0010801
0.000986517
0.000373961
0.000373957
0.000986848
0.00108059
0.00108994
0.00109044
0.00109042
0.00109041
0.00109041
0.00109042
0.00109043
0.00109044
0.00109044
0.00109045
0.00109046
0.00109046
0.00109047
0.00109047
0.00109047
0.00109047
0.00109047
0.00109047
0.00109046
0.00109046
0.00109045
0.00109045
0.00109044
0.00109043
0.00109042
0.00109043
0.00109044
0.00108995
0.0010806
0.000986849
0.000373959
0.000373955
0.000986832
0.00108057
0.00108992
0.00109042
0.0010904
0.00109039
0.0010904
0.00109041
0.00109043
0.00109042
0.00109045
0.00109046
0.00109046
0.00109047
0.00109047
0.00109048
0.00109048
0.00109048
0.00109048
0.00109047
0.00109047
0.00109046
0.00109046
0.00109045
0.00109042
0.00109043
0.00109042
0.00109041
0.00109043
0.00108993
0.00108058
0.000986832
0.000373959
0.000373956
0.000986822
0.00108057
0.00108991
0.00109041
0.00109039
0.00109039
0.00109041
0.00109044
0.00109037
0.00108996
0.00109039
0.00109047
0.00109047
0.00109047
0.00109048
0.00109048
0.00109048
0.00109048
0.00109048
0.00109048
0.00109047
0.00109047
0.00109047
0.00109039
0.00108996
0.00109037
0.00109044
0.00109042
0.00109043
0.00108992
0.00108057
0.000986821
0.000373959
0.000373956
0.000986816
0.00108057
0.00108991
0.00109041
0.0010904
0.00109041
0.00109044
0.00109031
0.00108849
0.00108233
0.00108831
0.00109002
0.00109016
0.00109017
0.00109015
0.00109015
0.00109015
0.00109015
0.00109015
0.00109015
0.00109017
0.00109017
0.00109002
0.00108831
0.00108233
0.0010885
0.00109031
0.00109046
0.00109044
0.00108993
0.00108057
0.000986813
0.000373961
0.000373957
0.00098681
0.00108057
0.00108992
0.00109042
0.00109041
0.00109043
0.0010903
0.00108752
0.00106718
0.00100087
0.0010656
0.00108453
0.00108703
0.00108719
0.00108713
0.00108711
0.0010871
0.0010871
0.00108711
0.00108713
0.00108719
0.00108703
0.00108454
0.0010656
0.00100087
0.00106718
0.00108753
0.00109032
0.00109047
0.00108994
0.00108057
0.000986803
0.000373962
0.000373957
0.000986802
0.00108057
0.00108992
0.00109042
0.00109042
0.00109036
0.00108848
0.00106718
0.00092234
0.000391832
0.000916357
0.00105202
0.00107071
0.00107225
0.00107229
0.00107227
0.00107226
0.00107226
0.00107227
0.00107229
0.00107225
0.00107071
0.00105202
0.000916373
0.00039183
0.000922342
0.00106719
0.0010885
0.00109039
0.00108995
0.00108058
0.000986791
0.000373962
0.000373957
0.000986793
0.00108056
0.00108992
0.00109043
0.00109041
0.00108994
0.00108232
0.00100102
0.000391999
0.00038997
0.000963364
0.0010342
0.0010403
0.00104058
0.00104055
0.00104054
0.00104054
0.00104055
0.00104058
0.0010403
0.0010342
0.000963379
0.000389973
0.000392001
0.00100102
0.00108234
0.00108998
0.00108994
0.00108058
0.000986775
0.000373963
0.000373957
0.000986783
0.00108056
0.00108992
0.00109043
0.00109043
0.00109037
0.00108848
0.00106705
0.000921416
0.000391866
0.000914501
0.00105052
0.00106909
0.0010705
0.00107025
0.00107008
0.00107002
0.00107002
0.00107008
0.00107025
0.00107049
0.00106909
0.00105052
0.000914495
0.000391862
0.000921397
0.00106705
0.00108849
0.00109041
0.00108996
0.00108057
0.000986755
0.000373963
0.000373957
0.000986774
0.00108056
0.00108993
0.00109043
0.00109043
0.00109046
0.00109033
0.00108751
0.00106694
0.00100024
0.00106425
0.00108143
0.00108319
0.00108301
0.00108274
0.0010826
0.00108254
0.00108254
0.0010826
0.00108274
0.00108301
0.00108318
0.00108142
0.00106424
0.00100023
0.00106693
0.00108751
0.00109035
0.00109049
0.00108996
0.00108057
0.000986738
0.000373962
0.000373957
0.000986767
0.00108056
0.00108993
0.00109043
0.00109043
0.00109044
0.00109049
0.00109035
0.00108846
0.00108199
0.00108704
0.00108632
0.00108554
0.00108516
0.00108496
0.00108486
0.00108483
0.00108482
0.00108486
0.00108496
0.00108516
0.00108554
0.00108631
0.00108704
0.00108199
0.00108846
0.00109035
0.0010905
0.00109048
0.00108996
0.00108057
0.000986723
0.000373962
0.000373956
0.00098676
0.00108056
0.00108993
0.00109044
0.00109043
0.00109044
0.00109047
0.0010905
0.00109039
0.0010897
0.00108914
0.00108672
0.00108577
0.00108539
0.00108523
0.00108515
0.00108512
0.00108512
0.00108515
0.00108523
0.00108539
0.00108577
0.00108671
0.00108913
0.0010897
0.00109039
0.0010905
0.00109048
0.00109047
0.00108996
0.00108057
0.000986713
0.000373961
0.000373956
0.000986755
0.00108056
0.00108993
0.00109044
0.00109043
0.00109044
0.00109046
0.00109048
0.00109046
0.00109019
0.00108922
0.00108674
0.00108581
0.00108544
0.00108529
0.00108522
0.00108519
0.00108519
0.00108522
0.00108529
0.00108544
0.00108581
0.00108673
0.00108922
0.00109019
0.00109046
0.00109049
0.00109048
0.00109048
0.00108996
0.00108057
0.000986705
0.00037396
0.000373955
0.000986752
0.00108056
0.00108993
0.00109044
0.00109043
0.00109044
0.00109046
0.00109048
0.00109045
0.0010902
0.00108922
0.00108676
0.00108584
0.00108548
0.00108533
0.00108526
0.00108523
0.00108523
0.00108526
0.00108533
0.00108547
0.00108583
0.00108675
0.00108921
0.0010902
0.00109045
0.00109048
0.00109048
0.00109048
0.00108996
0.00108057
0.000986701
0.000373959
0.000373955
0.00098675
0.00108056
0.00108994
0.00109044
0.00109043
0.00109044
0.00109046
0.00109048
0.00109045
0.0010902
0.00108922
0.00108677
0.00108585
0.00108549
0.00108534
0.00108528
0.00108525
0.00108525
0.00108528
0.00108534
0.00108549
0.00108585
0.00108677
0.00108922
0.0010902
0.00109045
0.00109049
0.00109048
0.00109048
0.00108997
0.00108057
0.000986698
0.000373958
0.000373954
0.00098675
0.00108056
0.00108994
0.00109044
0.00109043
0.00109044
0.00109046
0.00109048
0.00109045
0.0010902
0.00108922
0.00108677
0.00108585
0.00108549
0.00108535
0.00108528
0.00108525
0.00108525
0.00108528
0.00108535
0.00108549
0.00108585
0.00108677
0.00108922
0.0010902
0.00109046
0.00109049
0.00109048
0.00109048
0.00108997
0.00108057
0.000986697
0.000373958
0.000373954
0.000986751
0.00108056
0.00108994
0.00109044
0.00109043
0.00109044
0.00109046
0.00109048
0.00109046
0.0010902
0.00108922
0.00108677
0.00108585
0.00108548
0.00108533
0.00108526
0.00108524
0.00108524
0.00108526
0.00108533
0.00108548
0.00108584
0.00108676
0.00108922
0.0010902
0.00109046
0.00109049
0.00109048
0.00109048
0.00108997
0.00108057
0.000986699
0.000373958
0.000373955
0.000986753
0.00108056
0.00108993
0.00109044
0.00109043
0.00109044
0.00109046
0.00109049
0.00109046
0.00109019
0.00108923
0.00108675
0.00108583
0.00108546
0.00108531
0.00108524
0.00108521
0.00108521
0.00108524
0.00108531
0.00108546
0.00108583
0.00108675
0.00108923
0.00109019
0.00109047
0.00109049
0.00109048
0.00109048
0.00108996
0.00108057
0.000986702
0.000373958
0.000373955
0.000986757
0.00108056
0.00108993
0.00109044
0.00109043
0.00109044
0.00109047
0.00109051
0.0010904
0.00108972
0.00108915
0.00108674
0.0010858
0.00108542
0.00108526
0.00108518
0.00108515
0.00108515
0.00108518
0.00108526
0.00108542
0.0010858
0.00108674
0.00108915
0.00108972
0.0010904
0.00109051
0.00109049
0.00109048
0.00108996
0.00108057
0.000986708
0.000373959
0.000373955
0.000986763
0.00108056
0.00108993
0.00109044
0.00109043
0.00109045
0.0010905
0.00109036
0.00108848
0.00108203
0.00108707
0.00108636
0.00108559
0.00108521
0.00108501
0.00108491
0.00108488
0.00108488
0.00108492
0.00108501
0.00108521
0.00108559
0.00108636
0.00108707
0.00108203
0.00108848
0.00109037
0.00109051
0.00109049
0.00108996
0.00108057
0.000986717
0.00037396
0.000373956
0.00098677
0.00108057
0.00108993
0.00109044
0.00109043
0.00109046
0.00109034
0.00108753
0.00106699
0.00100037
0.00106432
0.0010815
0.00108326
0.00108309
0.00108282
0.00108268
0.00108263
0.00108263
0.00108269
0.00108282
0.00108309
0.00108327
0.0010815
0.00106433
0.00100038
0.00106699
0.00108753
0.00109036
0.0010905
0.00108997
0.00108058
0.000986729
0.00037396
0.000373956
0.000986778
0.00108057
0.00108993
0.00109044
0.00109044
0.00109038
0.00108849
0.00106708
0.000921524
0.000391894
0.000914624
0.00105059
0.00106918
0.00107059
0.00107035
0.00107019
0.00107014
0.00107014
0.00107019
0.00107036
0.0010706
0.00106919
0.00105061
0.000914671
0.000391893
0.000921541
0.00106709
0.00108851
0.00109042
0.00108997
0.00108058
0.000986744
0.000373961
0.000373956
0.000986786
0.00108057
0.00108993
0.00109043
0.00109042
0.00108995
0.00108234
0.00100103
0.000391989
0.000389935
0.000963176
0.00103413
0.00104023
0.00104051
0.00104048
0.00104046
0.00104046
0.00104047
0.00104051
0.00104022
0.00103411
0.000963161
0.000389924
0.000391986
0.00100104
0.00108236
0.00108999
0.00108995
0.00108058
0.000986762
0.000373961
0.000373956
0.000986794
0.00108057
0.00108993
0.00109043
0.00109043
0.00109037
0.0010885
0.0010672
0.000922366
0.000391864
0.000916063
0.00105187
0.00107054
0.00107205
0.00107208
0.00107206
0.00107205
0.00107205
0.00107206
0.00107208
0.00107204
0.0010705
0.00105177
0.000916006
0.000391863
0.000922368
0.00106721
0.00108851
0.00109041
0.00108996
0.00108058
0.000986774
0.000373961
0.000373956
0.000986802
0.00108057
0.00108993
0.00109043
0.00109042
0.00109045
0.00109032
0.00108754
0.00106721
0.00100089
0.00106548
0.0010842
0.00108616
0.00108614
0.00108605
0.00108602
0.00108601
0.00108601
0.00108602
0.00108604
0.0010861
0.00108599
0.00108366
0.00106523
0.00100083
0.0010672
0.00108755
0.00109034
0.00109049
0.00108996
0.00108058
0.000986785
0.00037396
0.000373956
0.000986813
0.00108058
0.00108993
0.00109043
0.00109042
0.00109043
0.00109047
0.00109034
0.00108852
0.00108232
0.00108811
0.00108911
0.00108765
0.00108718
0.00108704
0.00108701
0.001087
0.001087
0.001087
0.001087
0.00108704
0.00108716
0.0010875
0.0010874
0.00108213
0.00108849
0.00109034
0.00109049
0.00109047
0.00108996
0.00108059
0.000986799
0.00037396
0.000373957
0.00098683
0.0010806
0.00108995
0.00109045
0.00109044
0.00109044
0.00109046
0.00109049
0.00109042
0.00108998
0.00109021
0.00108958
0.00108794
0.00108744
0.00108732
0.0010873
0.00108729
0.00108729
0.00108728
0.00108729
0.00108731
0.00108743
0.00108793
0.00108949
0.00108979
0.00109039
0.00109049
0.00109048
0.00109048
0.00108997
0.0010806
0.000986818
0.000373961
0.00037396
0.000986499
0.0010801
0.00108945
0.00108995
0.00108994
0.00108994
0.00108995
0.00108996
0.00108998
0.00108996
0.00108991
0.00108963
0.00108903
0.00108884
0.00108879
0.00108879
0.00108879
0.00108879
0.00108879
0.00108879
0.00108879
0.00108883
0.00108902
0.00108962
0.00108988
0.00108997
0.00108997
0.00108997
0.00108998
0.00108947
0.00108011
0.000986488
0.000373963
0.000373823
0.000979841
0.00107105
0.00108011
0.0010806
0.00108059
0.00108058
0.00108059
0.00108059
0.0010806
0.0010806
0.00108058
0.0010805
0.00108034
0.00108028
0.00108026
0.00108026
0.00108026
0.00108026
0.00108026
0.00108026
0.00108026
0.00108028
0.00108034
0.0010805
0.00108057
0.0010806
0.0010806
0.0010806
0.00108062
0.00108012
0.00107106
0.000979831
0.000373826
0.000372039
0.000907632
0.000979849
0.000986509
0.000986843
0.000986827
0.000986817
0.00098681
0.000986801
0.000986784
0.000986759
0.000986715
0.000986656
0.000986573
0.000986519
0.000986483
0.000986461
0.00098645
0.000986448
0.000986454
0.000986469
0.000986494
0.000986533
0.000986589
0.000986673
0.000986733
0.000986771
0.000986795
0.000986814
0.000986835
0.000986504
0.000979843
0.000907616
0.000372041
0.000362479
0.00037204
0.000373824
0.000373962
0.000373961
0.00037396
0.000373962
0.000373965
0.000373968
0.000373971
0.000373973
0.000373975
0.000373976
0.000373974
0.000373972
0.00037397
0.000373968
0.000373967
0.000373967
0.000373967
0.000373968
0.00037397
0.000373972
0.000373974
0.000373975
0.000373974
0.000373972
0.000373969
0.000373966
0.000373965
0.000373966
0.000373827
0.000372042
0.000362481
0.000370047
0.000382891
0.000385589
0.000385838
0.00038584
0.000385838
0.000385837
0.000385838
0.000385838
0.000385838
0.000385839
0.000385839
0.000385839
0.000385839
0.000385839
0.000385839
0.000385839
0.000385839
0.000385839
0.000385839
0.000385839
0.000385839
0.000385839
0.000385839
0.000385839
0.000385839
0.000385838
0.000385838
0.000385838
0.000385841
0.000385838
0.00038559
0.000382891
0.000370048
0.000382891
0.00105588
0.00116248
0.00117379
0.00117452
0.00117451
0.0011745
0.00117449
0.00117448
0.00117447
0.00117446
0.00117445
0.00117444
0.00117443
0.00117442
0.00117441
0.00117441
0.0011744
0.0011744
0.00117441
0.00117441
0.00117442
0.00117443
0.00117444
0.00117445
0.00117446
0.00117447
0.00117448
0.0011745
0.0011745
0.00117378
0.00116246
0.00105586
0.000382891
0.00038559
0.00116249
0.00130235
0.00131852
0.00131966
0.00131967
0.00131966
0.00131966
0.00131966
0.00131966
0.00131966
0.00131965
0.00131965
0.00131965
0.00131965
0.00131965
0.00131965
0.00131965
0.00131965
0.00131965
0.00131965
0.00131965
0.00131965
0.00131965
0.00131965
0.00131966
0.00131966
0.00131966
0.00131967
0.00131966
0.00131852
0.00130235
0.00116249
0.000385592
0.000385839
0.00117381
0.00131853
0.00133545
0.00133664
0.00133665
0.00133664
0.00133664
0.00133664
0.00133664
0.00133664
0.00133664
0.00133665
0.00133665
0.00133665
0.00133665
0.00133665
0.00133665
0.00133665
0.00133665
0.00133665
0.00133665
0.00133665
0.00133665
0.00133664
0.00133664
0.00133664
0.00133664
0.00133665
0.00133664
0.00133545
0.00131853
0.00117381
0.000385841
0.000385842
0.00117454
0.00131967
0.00133664
0.00133783
0.00133784
0.00133783
0.00133783
0.00133783
0.00133784
0.00133784
0.00133785
0.00133785
0.00133785
0.00133785
0.00133785
0.00133786
0.00133786
0.00133786
0.00133786
0.00133785
0.00133785
0.00133785
0.00133785
0.00133785
0.00133784
0.00133784
0.00133784
0.00133784
0.00133784
0.00133664
0.00131967
0.00117453
0.000385844
0.00038584
0.00117453
0.00131968
0.00133665
0.00133784
0.00133785
0.00133784
0.00133784
0.00133785
0.00133786
0.00133782
0.00133786
0.00133786
0.00133786
0.00133787
0.00133787
0.00133786
0.00133787
0.00133787
0.00133787
0.00133787
0.00133787
0.00133786
0.00133786
0.00133787
0.00133782
0.00133786
0.00133786
0.00133786
0.00133784
0.00133665
0.00131968
0.00117453
0.000385843
0.00038584
0.00117452
0.00131967
0.00133664
0.00133783
0.00133784
0.00133783
0.00133785
0.00133786
0.00133764
0.0013368
0.00133752
0.00133768
0.00133768
0.00133769
0.00133767
0.00133765
0.00133765
0.00133765
0.00133765
0.00133767
0.00133769
0.00133768