/*--------------------------------*- C++ -*----------------------------------*\
| =========                 |                                                 |
| \\      /  F ield         | OpenFOAM: The Open Source CFD Toolbox           |
|  \\    /   O peration     | Version:  2112                                  |
|   \\  /    A nd           | Website:  www.openfoam.com                      |
|    \\/     M anipulation  |                                                 |
\*---------------------------------------------------------------------------*/
FoamFile
{
    version     2.0;
    format      ascii;
    arch        "LSB;label=32;scalar=64";
    class       volScalarField;
    location    "0.4";
    object      p;
}
// * * * * * * * * * * * * * * * * * * * * * * * * * * * * * * * * * * * * * //

dimensions      [0 2 -2 0 0 0 0];

internalField   nonuniform List<scalar> 
64906
(
-2.1647e-05
-2.16607e-05
-2.17335e-05
-2.18742e-05
-2.20798e-05
-2.2346e-05
-2.26694e-05
-2.30465e-05
-2.34712e-05
-2.39364e-05
-2.44261e-05
-2.49261e-05
-2.54072e-05
-2.58515e-05
-2.62375e-05
-2.65522e-05
-2.67841e-05
-2.69268e-05
-2.69771e-05
-2.69353e-05
-2.68053e-05
-2.65942e-05
-2.6314e-05
-2.59781e-05
-2.56083e-05
-2.52227e-05
-2.48506e-05
-2.45056e-05
-2.42041e-05
-2.39533e-05
-2.37604e-05
-2.36307e-05
-2.35682e-05
-2.35593e-05
-2.16472e-05
-2.15673e-05
-2.15931e-05
-2.17095e-05
-2.18976e-05
-2.21466e-05
-2.24513e-05
-2.28082e-05
-2.32112e-05
-2.36548e-05
-2.4121e-05
-2.45983e-05
-2.50538e-05
-2.54733e-05
-2.58354e-05
-2.61301e-05
-2.63471e-05
-2.64818e-05
-2.65313e-05
-2.64959e-05
-2.63791e-05
-2.61864e-05
-2.59285e-05
-2.56158e-05
-2.52701e-05
-2.49056e-05
-2.45553e-05
-2.42303e-05
-2.39488e-05
-2.37174e-05
-2.35462e-05
-2.34484e-05
-2.34484e-05
-2.35648e-05
-2.17767e-05
-2.16519e-05
-2.16532e-05
-2.17618e-05
-2.19527e-05
-2.22115e-05
-2.25318e-05
-2.29125e-05
-2.33486e-05
-2.3839e-05
-2.43603e-05
-2.49054e-05
-2.54192e-05
-2.58898e-05
-2.62894e-05
-2.66119e-05
-2.68464e-05
-2.69898e-05
-2.70396e-05
-2.6996e-05
-2.68624e-05
-2.66427e-05
-2.63481e-05
-2.59856e-05
-2.55833e-05
-2.51531e-05
-2.47505e-05
-2.43817e-05
-2.40711e-05
-2.38215e-05
-2.36442e-05
-2.35561e-05
-2.35887e-05
-2.37656e-05
-2.20349e-05
-2.18902e-05
-2.18858e-05
-2.20042e-05
-2.22174e-05
-2.25098e-05
-2.28761e-05
-2.33195e-05
-2.3839e-05
-2.44438e-05
-2.51016e-05
-2.58141e-05
-2.64731e-05
-2.70704e-05
-2.75661e-05
-2.79609e-05
-2.82427e-05
-2.84104e-05
-2.84614e-05
-2.83962e-05
-2.8218e-05
-2.79287e-05
-2.75414e-05
-2.70557e-05
-2.6513e-05
-2.59206e-05
-2.53887e-05
-2.4913e-05
-2.45275e-05
-2.42253e-05
-2.40156e-05
-2.39141e-05
-2.39549e-05
-2.41591e-05
-2.24155e-05
-2.22562e-05
-2.22562e-05
-2.23975e-05
-2.2649e-05
-2.29946e-05
-2.34314e-05
-2.39702e-05
-2.46188e-05
-2.54093e-05
-2.6298e-05
-2.7313e-05
-2.82214e-05
-2.90303e-05
-2.96811e-05
-3.0193e-05
-3.05511e-05
-3.07582e-05
-3.08115e-05
-3.07112e-05
-3.04612e-05
-3.00594e-05
-2.95219e-05
-2.88301e-05
-2.80449e-05
-2.7158e-05
-2.64065e-05
-2.57563e-05
-2.5254e-05
-2.487e-05
-2.46068e-05
-2.44756e-05
-2.45126e-05
-2.47389e-05
-2.29077e-05
-2.27319e-05
-2.2742e-05
-2.29168e-05
-2.32213e-05
-2.36378e-05
-2.41656e-05
-2.48266e-05
-2.56449e-05
-2.6701e-05
-2.79479e-05
-2.9492e-05
-3.07989e-05
-3.19301e-05
-3.28065e-05
-3.34899e-05
-3.39596e-05
-3.42248e-05
-3.42813e-05
-3.41293e-05
-3.37739e-05
-3.32067e-05
-3.24498e-05
-3.14423e-05
-3.02671e-05
-2.88608e-05
-2.77677e-05
-2.68668e-05
-2.62102e-05
-2.57203e-05
-2.53865e-05
-2.52132e-05
-2.52409e-05
-2.54941e-05
-2.35015e-05
-2.33058e-05
-2.33306e-05
-2.35502e-05
-2.39235e-05
-2.44291e-05
-2.50673e-05
-2.58708e-05
-2.68908e-05
-2.83038e-05
-3.00804e-05
-3.26064e-05
-3.45442e-05
-3.61482e-05
-3.73391e-05
-3.82653e-05
-3.88944e-05
-3.92434e-05
-3.93044e-05
-3.90776e-05
-3.85714e-05
-3.77693e-05
-3.67053e-05
-3.52316e-05
-3.34346e-05
-3.10551e-05
-2.94589e-05
-2.82192e-05
-2.73786e-05
-2.67641e-05
-2.63432e-05
-2.61152e-05
-2.61289e-05
-2.6416e-05
-2.41858e-05
-2.39671e-05
-2.4013e-05
-2.4292e-05
-2.47556e-05
-2.53756e-05
-2.61475e-05
-2.71033e-05
-2.83235e-05
-3.01133e-05
-3.25845e-05
-3.70325e-05
-3.99158e-05
-4.21879e-05
-4.38198e-05
-4.50983e-05
-4.59635e-05
-4.64378e-05
-4.65054e-05
-4.61663e-05
-4.54363e-05
-4.42925e-05
-4.27959e-05
-4.06592e-05
-3.79232e-05
-3.36227e-05
-3.13812e-05
-2.97841e-05
-2.8761e-05
-2.80119e-05
-2.74819e-05
-2.71796e-05
-2.71696e-05
-2.74965e-05
-2.49458e-05
-2.47013e-05
-2.4776e-05
-2.51325e-05
-2.5715e-05
-2.64868e-05
-2.74332e-05
-2.85631e-05
-2.99433e-05
-3.21203e-05
-3.51563e-05
-4.37313e-05
-4.77924e-05
-5.09081e-05
-5.31339e-05
-5.48915e-05
-5.6089e-05
-5.67409e-05
-5.68184e-05
-5.63207e-05
-5.52766e-05
-5.36693e-05
-5.15898e-05
-4.86108e-05
-4.46991e-05
-3.62437e-05
-3.35489e-05
-3.15729e-05
-3.04019e-05
-2.94914e-05
-2.88097e-05
-2.83991e-05
-2.83488e-05
-2.87203e-05
-2.57641e-05
-2.54928e-05
-2.5608e-05
-2.60688e-05
-2.68179e-05
-2.7818e-05
-2.90535e-05
-3.04535e-05
-3.20636e-05
-3.4387e-05
-3.32861e-05
-5.26946e-05
-5.78788e-05
-6.21186e-05
-6.52622e-05
-6.77454e-05
-6.94441e-05
-7.03547e-05
-7.04458e-05
-6.97166e-05
-6.81977e-05
-6.58886e-05
-6.29088e-05
-5.88086e-05
-5.37773e-05
-3.42969e-05
-3.60328e-05
-3.38989e-05
-3.25013e-05
-3.13257e-05
-3.03748e-05
-2.97821e-05
-2.96552e-05
-3.00692e-05
-2.66134e-05
-2.63133e-05
-2.64759e-05
-2.70592e-05
-2.8012e-05
-2.93156e-05
-3.09767e-05
-3.2896e-05
-3.47882e-05
-3.31378e-05
-7.42978e-05
-7.27098e-05
-7.61958e-05
-8.01174e-05
-8.33332e-05
-8.55903e-05
-8.67801e-05
-8.68889e-05
-8.59161e-05
-8.3874e-05
-8.08661e-05
-7.71382e-05
-7.37999e-05
-7.53889e-05
-3.54189e-05
-3.69866e-05
-3.52043e-05
-3.34846e-05
-3.21182e-05
-3.12669e-05
-3.1034e-05
-3.14932e-05
-2.74682e-05
-2.71411e-05
-2.73621e-05
-2.80954e-05
-2.93159e-05
-3.10762e-05
-3.35679e-05
-3.71087e-05
-4.26251e-05
-5.07994e-05
-7.0585e-05
-7.40812e-05
-8.21478e-05
-8.93755e-05
-9.58026e-05
-0.000100557
-0.000103717
-0.000105317
-0.000105445
-0.000104099
-0.000101194
-9.66957e-05
-9.05291e-05
-8.35674e-05
-7.58054e-05
-7.28728e-05
-5.30341e-05
-4.49828e-05
-3.96178e-05
-3.62922e-05
-3.41171e-05
-3.28574e-05
-3.24597e-05
-3.29534e-05
-2.82886e-05
-2.79326e-05
-2.82012e-05
-2.9058e-05
-3.04866e-05
-3.25644e-05
-3.55286e-05
-3.9713e-05
-4.58747e-05
-5.42544e-05
-6.7964e-05
-7.78405e-05
-8.91118e-05
-9.86847e-05
-0.000106805
-0.000112601
-0.000116389
-0.000118283
-0.000118425
-0.000116816
-0.000113315
-0.000107808
-9.99865e-05
-9.07148e-05
-7.9758e-05
-7.02103e-05
-5.6649e-05
-4.84097e-05
-4.2415e-05
-3.84594e-05
-3.58345e-05
-3.43061e-05
-3.37994e-05
-3.43401e-05
-2.90491e-05
-2.86666e-05
-2.89758e-05
-2.9938e-05
-3.15383e-05
-3.38626e-05
-3.71569e-05
-4.17377e-05
-4.82569e-05
-5.68788e-05
-6.89194e-05
-8.0633e-05
-9.3984e-05
-0.000105174
-0.000114485
-0.000121029
-0.000125276
-0.000127385
-0.00012754
-0.00012574
-0.000121806
-0.000115578
-0.000106591
-9.57218e-05
-8.2696e-05
-7.12481e-05
-5.93977e-05
-5.09413e-05
-4.46096e-05
-4.02751e-05
-3.73453e-05
-3.56177e-05
-3.50293e-05
-3.56136e-05
-2.97226e-05
-2.93157e-05
-2.96529e-05
-3.06905e-05
-3.24083e-05
-3.48874e-05
-3.83633e-05
-4.31298e-05
-4.97665e-05
-5.84554e-05
-7.01293e-05
-8.26725e-05
-9.71087e-05
-0.000109127
-0.000119087
-0.000126054
-0.000130568
-0.000132805
-0.000132969
-0.000131062
-0.000126881
-0.00012025
-0.000110632
-9.89456e-05
-8.48411e-05
-7.25535e-05
-6.10907e-05
-5.25846e-05
-4.61518e-05
-4.16486e-05
-3.85614e-05
-3.67214e-05
-3.60918e-05
-3.6721e-05
-3.02933e-05
-2.98664e-05
-3.02235e-05
-3.13159e-05
-3.31164e-05
-3.57001e-05
-3.92913e-05
-4.41708e-05
-5.0882e-05
-5.96402e-05
-7.13085e-05
-8.4296e-05
-9.92935e-05
-0.000111793
-0.000122151
-0.000129384
-0.000134071
-0.000136394
-0.000136568
-0.000134594
-0.000130257
-0.000123375
-0.000113374
-0.000101216
-8.65571e-05
-7.38266e-05
-6.2382e-05
-5.38179e-05
-4.73233e-05
-4.27217e-05
-3.95404e-05
-3.76308e-05
-3.69787e-05
-3.76452e-05
-3.07485e-05
-3.03071e-05
-3.06775e-05
-3.18072e-05
-3.36634e-05
-3.63159e-05
-3.99821e-05
-4.49383e-05
-5.1715e-05
-6.0559e-05
-7.23168e-05
-8.55716e-05
-0.000100905
-0.000113704
-0.000124316
-0.000131728
-0.000136535
-0.00013892
-0.000139103
-0.000137085
-0.000132645
-0.000125598
-0.000115354
-0.000102906
-8.79169e-05
-7.49225e-05
-6.33957e-05
-5.47533e-05
-4.82021e-05
-4.35349e-05
-4.02946e-05
-3.83425e-05
-3.76785e-05
-3.83729e-05
-3.10818e-05
-3.06324e-05
-3.10125e-05
-3.21672e-05
-3.40608e-05
-3.6761e-05
-4.04827e-05
-4.55024e-05
-5.23485e-05
-6.12852e-05
-7.31562e-05
-8.65996e-05
-0.000102157
-0.00011516
-0.000125951
-0.000133495
-0.000138394
-0.000140828
-0.000141021
-0.000138971
-0.000134457
-0.000127292
-0.00011688
-0.000104234
-8.90253e-05
-7.58439e-05
-6.42069e-05
-5.5475e-05
-4.88592e-05
-4.41349e-05
-4.08491e-05
-3.88657e-05
-3.81917e-05
-3.89013e-05
-3.12895e-05
-3.08391e-05
-3.1226e-05
-3.23955e-05
-3.43116e-05
-3.70431e-05
-4.08068e-05
-4.58823e-05
-5.28018e-05
-6.18343e-05
-7.38246e-05
-8.74088e-05
-0.000103116
-0.00011626
-0.000127173
-0.000134816
-0.000139785
-0.00014226
-0.000142464
-0.000140394
-0.000135827
-0.000128579
-0.000118055
-0.000105273
-8.99149e-05
-7.65909e-05
-6.48328e-05
-5.60039e-05
-4.93146e-05
-4.45359e-05
-4.12114e-05
-3.9203e-05
-3.85175e-05
-3.92291e-05
-3.1371e-05
-3.09266e-05
-3.13178e-05
-3.24916e-05
-3.44152e-05
-3.7161e-05
-4.09524e-05
-4.60753e-05
-5.30725e-05
-6.22061e-05
-7.43272e-05
-8.80142e-05
-0.000103804
-0.000117029
-0.000128012
-0.00013572
-0.00014074
-0.000143249
-0.000143465
-0.000141385
-0.000136789
-0.000129492
-0.000118909
-0.00010605
-9.06061e-05
-7.7172e-05
-6.52759e-05
-5.63396e-05
-4.95677e-05
-4.47376e-05
-4.13816e-05
-3.93546e-05
-3.86563e-05
-3.93565e-05
-3.13294e-05
-3.08976e-05
-3.12892e-05
-3.2455e-05
-3.43674e-05
-3.71055e-05
-4.09031e-05
-4.60575e-05
-5.31347e-05
-6.23822e-05
-7.46748e-05
-8.84213e-05
-0.000104199
-0.000117425
-0.000128409
-0.000136143
-0.00014119
-0.000143725
-0.000143956
-0.000141881
-0.000137284
-0.000129983
-0.00011941
-0.000106553
-9.11121e-05
-7.76031e-05
-6.55216e-05
-5.64595e-05
-4.95974e-05
-4.47259e-05
-4.13529e-05
-3.93191e-05
-3.86096e-05
-3.92862e-05
-3.11707e-05
-3.07567e-05
-3.11423e-05
-3.22829e-05
-3.41566e-05
-3.68498e-05
-4.06098e-05
-4.57538e-05
-5.28968e-05
-6.22829e-05
-7.48743e-05
-8.85931e-05
-0.000104173
-0.000117241
-0.000128097
-0.00013578
-0.000140811
-0.000143354
-0.000143605
-0.000141561
-0.000137015
-0.000129794
-0.000119366
-0.000106671
-9.1409e-05
-7.78972e-05
-6.54942e-05
-5.62757e-05
-4.93324e-05
-4.44562e-05
-4.11027e-05
-3.90885e-05
-3.83783e-05
-3.9022e-05
-3.09067e-05
-3.05152e-05
-3.08875e-05
-3.19831e-05
-3.37849e-05
-3.6383e-05
-4.00363e-05
-4.50873e-05
-5.22366e-05
-6.17509e-05
-7.5042e-05
-8.85596e-05
-0.000103475
-0.000116079
-0.000126581
-0.000134082
-0.000139022
-0.000141546
-0.000141824
-0.000139853
-0.000135447
-0.000128452
-0.000118405
-0.000106182
-9.15505e-05
-7.81776e-05
-6.50442e-05
-5.56739e-05
-4.87031e-05
-4.38985e-05
-4.06264e-05
-3.86717e-05
-3.79767e-05
-3.85794e-05
-3.05525e-05
-3.01857e-05
-3.05332e-05
-3.15562e-05
-3.32347e-05
-3.56491e-05
-3.9047e-05
-4.37834e-05
-5.06589e-05
-6.00771e-05
-7.53706e-05
-8.82314e-05
-0.00010156
-0.000112955
-0.000122596
-0.000129629
-0.00013432
-0.000136762
-0.000137077
-0.000135262
-0.000131179
-0.000124723
-0.000115583
-0.000104592
-9.14887e-05
-7.86331e-05
-6.34749e-05
-5.41724e-05
-4.74459e-05
-4.29258e-05
-3.98749e-05
-3.80582e-05
-3.74137e-05
-3.79754e-05
-3.01343e-05
-2.97954e-05
-3.01136e-05
-3.10508e-05
-3.25789e-05
-3.4754e-05
-3.77774e-05
-4.19722e-05
-4.83094e-05
-5.76831e-05
-7.83071e-05
-8.72567e-05
-9.8115e-05
-0.000107667
-0.000116031
-0.000122396
-0.000126736
-0.000129058
-0.000129422
-0.000127829
-0.0001242
-0.000118526
-0.000110744
-0.000101655
-9.08809e-05
-8.1634e-05
-6.12498e-05
-5.19519e-05
-4.57118e-05
-4.16864e-05
-3.89635e-05
-3.73303e-05
-3.67506e-05
-3.72643e-05
-2.96751e-05
-2.93624e-05
-2.96416e-05
-3.047e-05
-3.17951e-05
-3.36048e-05
-3.59103e-05
-3.8572e-05
-4.11472e-05
-3.91207e-05
-9.52637e-05
-9.38271e-05
-9.95029e-05
-0.000105741
-0.000111019
-0.000114797
-0.000116922
-0.000117345
-0.000116076
-0.000113143
-0.000108721
-0.000103197
-9.81703e-05
-9.96858e-05
-4.29775e-05
-4.50232e-05
-4.24386e-05
-3.98704e-05
-3.78024e-05
-3.64698e-05
-3.60005e-05
-3.64765e-05
-2.9213e-05
-2.8929e-05
-2.9183e-05
-2.99367e-05
-3.11404e-05
-3.27868e-05
-3.49255e-05
-3.76063e-05
-4.11799e-05
-4.64518e-05
-5.19549e-05
-7.30466e-05
-8.18198e-05
-8.97992e-05
-9.62528e-05
-0.000101528
-0.000105204
-0.000107305
-0.000107786
-0.000106672
-0.000103995
-9.97847e-05
-9.42215e-05
-8.71156e-05
-7.83151e-05
-5.7668e-05
-5.12094e-05
-4.5501e-05
-4.16804e-05
-3.89614e-05
-3.69764e-05
-3.57341e-05
-3.52946e-05
-3.57167e-05
-2.87687e-05
-2.85108e-05
-2.87435e-05
-2.94337e-05
-3.05375e-05
-3.20581e-05
-3.40612e-05
-3.66822e-05
-4.02065e-05
-4.53499e-05
-5.31704e-05
-6.55928e-05
-7.41047e-05
-8.2022e-05
-8.83357e-05
-9.34416e-05
-9.6949e-05
-9.89696e-05
-9.94875e-05
-9.85407e-05
-9.61421e-05
-9.22732e-05
-8.69804e-05
-8.01057e-05
-7.14422e-05
-5.89229e-05
-5.03411e-05
-4.4718e-05
-4.08647e-05
-3.81318e-05
-3.62199e-05
-3.50413e-05
-3.46215e-05
-3.49969e-05
-2.8368e-05
-2.81352e-05
-2.83558e-05
-2.9003e-05
-3.00411e-05
-3.1485e-05
-3.34121e-05
-3.59752e-05
-3.94392e-05
-4.42766e-05
-5.09195e-05
-5.99281e-05
-6.79795e-05
-7.58999e-05
-8.22617e-05
-8.73385e-05
-9.07698e-05
-9.27429e-05
-9.32813e-05
-9.24352e-05
-9.01894e-05
-8.64904e-05
-8.12721e-05
-7.4541e-05
-6.62137e-05
-5.69076e-05
-4.94667e-05
-4.40631e-05
-4.0207e-05
-3.74825e-05
-3.56025e-05
-3.44519e-05
-3.4032e-05
-3.43608e-05
-2.80276e-05
-2.78174e-05
-2.80308e-05
-2.86443e-05
-2.96276e-05
-3.09988e-05
-3.28319e-05
-3.52649e-05
-3.84968e-05
-4.28524e-05
-4.84658e-05
-5.56007e-05
-6.2753e-05
-7.00728e-05
-7.59822e-05
-8.07059e-05
-8.38971e-05
-8.57387e-05
-8.62653e-05
-8.55274e-05
-8.34996e-05
-8.01302e-05
-7.53126e-05
-6.91873e-05
-6.17662e-05
-5.42934e-05
-4.79471e-05
-4.30539e-05
-3.94459e-05
-3.68507e-05
-3.50507e-05
-3.39438e-05
-3.35293e-05
-3.38198e-05
-2.77647e-05
-2.75787e-05
-2.7793e-05
-2.83847e-05
-2.93256e-05
-3.06318e-05
-3.23648e-05
-3.46309e-05
-3.75638e-05
-4.13552e-05
-4.6055e-05
-5.17778e-05
-5.77622e-05
-6.39442e-05
-6.90664e-05
-7.31708e-05
-7.59873e-05
-7.76307e-05
-7.81198e-05
-7.74927e-05
-7.57304e-05
-7.28095e-05
-6.86639e-05
-6.34709e-05
-5.73357e-05
-5.13601e-05
-4.61218e-05
-4.19193e-05
-3.86916e-05
-3.63015e-05
-3.46117e-05
-3.35557e-05
-3.31455e-05
-3.3399e-05
-2.75954e-05
-2.74461e-05
-2.76776e-05
-2.8264e-05
-2.91807e-05
-3.04421e-05
-3.2097e-05
-3.4224e-05
-3.69098e-05
-4.02644e-05
-4.42928e-05
-4.90292e-05
-5.40354e-05
-5.91755e-05
-6.35434e-05
-6.70767e-05
-6.95531e-05
-7.10181e-05
-7.14702e-05
-7.09333e-05
-6.93994e-05
-6.6873e-05
-6.33408e-05
-5.8988e-05
-5.39594e-05
-4.90845e-05
-4.47044e-05
-4.10653e-05
-3.81714e-05
-3.5966e-05
-3.43711e-05
-3.33501e-05
-3.29244e-05
-3.31233e-05
-2.75299e-05
-2.74588e-05
-2.77372e-05
-2.83442e-05
-2.92669e-05
-3.0523e-05
-3.21546e-05
-3.42214e-05
-3.6782e-05
-3.98974e-05
-4.35499e-05
-4.77156e-05
-5.20968e-05
-5.65191e-05
-6.03697e-05
-6.35204e-05
-6.57769e-05
-6.71282e-05
-6.75549e-05
-6.70686e-05
-6.56722e-05
-6.33928e-05
-6.02644e-05
-5.64698e-05
-5.21832e-05
-4.798e-05
-4.41197e-05
-4.0817e-05
-3.81165e-05
-3.60082e-05
-3.44508e-05
-3.34207e-05
-3.29323e-05
-3.30127e-05
-2.75581e-05
-2.76476e-05
-2.80093e-05
-2.8663e-05
-2.96277e-05
-3.09317e-05
-3.26179e-05
-3.47407e-05
-3.7352e-05
-4.04967e-05
-4.41553e-05
-4.82761e-05
-5.26042e-05
-5.69288e-05
-6.07453e-05
-6.38784e-05
-6.61466e-05
-6.75081e-05
-6.7937e-05
-6.74385e-05
-6.60223e-05
-6.37253e-05
-6.06086e-05
-5.68531e-05
-5.26661e-05
-4.85329e-05
-4.47164e-05
-4.14144e-05
-3.86874e-05
-3.65372e-05
-3.49312e-05
-3.38363e-05
-3.32224e-05
-3.3055e-05
-2.17216e-05
-2.17742e-05
-2.18759e-05
-2.20377e-05
-2.22627e-05
-2.25499e-05
-2.28975e-05
-2.33031e-05
-2.37604e-05
-2.42633e-05
-2.47937e-05
-2.53379e-05
-2.58617e-05
-2.63465e-05
-2.67673e-05
-2.711e-05
-2.73615e-05
-2.75147e-05
-2.75658e-05
-2.75152e-05
-2.73673e-05
-2.71298e-05
-2.68166e-05
-2.64421e-05
-2.60317e-05
-2.56041e-05
-2.51938e-05
-2.48136e-05
-2.4482e-05
-2.42045e-05
-2.39869e-05
-2.38294e-05
-2.37273e-05
-2.36613e-05
-2.17362e-05
-2.17257e-05
-2.17958e-05
-2.19428e-05
-2.21556e-05
-2.24306e-05
-2.27651e-05
-2.31575e-05
-2.36004e-05
-2.40902e-05
-2.46031e-05
-2.51317e-05
-2.56338e-05
-2.60983e-05
-2.6498e-05
-2.68234e-05
-2.70617e-05
-2.72079e-05
-2.72585e-05
-2.7214e-05
-2.70785e-05
-2.68575e-05
-2.65646e-05
-2.62095e-05
-2.58202e-05
-2.54073e-05
-2.50135e-05
-2.46456e-05
-2.43275e-05
-2.40629e-05
-2.38601e-05
-2.37232e-05
-2.36643e-05
-2.36814e-05
-2.18881e-05
-2.18559e-05
-2.19161e-05
-2.20657e-05
-2.22908e-05
-2.25864e-05
-2.29499e-05
-2.33829e-05
-2.38782e-05
-2.44403e-05
-2.50334e-05
-2.56643e-05
-2.62519e-05
-2.67958e-05
-2.72553e-05
-2.76268e-05
-2.78947e-05
-2.80562e-05
-2.81075e-05
-2.8049e-05
-2.78851e-05
-2.76196e-05
-2.72686e-05
-2.68361e-05
-2.63637e-05
-2.58514e-05
-2.53814e-05
-2.49453e-05
-2.45798e-05
-2.4281e-05
-2.40587e-05
-2.3917e-05
-2.387e-05
-2.39123e-05
-2.21666e-05
-2.21292e-05
-2.21961e-05
-2.23661e-05
-2.26241e-05
-2.29659e-05
-2.33909e-05
-2.39072e-05
-2.45098e-05
-2.52203e-05
-2.59819e-05
-2.68317e-05
-2.76017e-05
-2.83129e-05
-2.88991e-05
-2.93687e-05
-2.97008e-05
-2.98954e-05
-2.99483e-05
-2.98597e-05
-2.9635e-05
-2.92747e-05
-2.88008e-05
-2.82052e-05
-2.7556e-05
-2.68307e-05
-2.62004e-05
-2.56241e-05
-2.5161e-05
-2.47898e-05
-2.45192e-05
-2.4348e-05
-2.429e-05
-2.43352e-05
-2.25673e-05
-2.25202e-05
-2.26011e-05
-2.28043e-05
-2.31111e-05
-2.35192e-05
-2.40312e-05
-2.46658e-05
-2.54238e-05
-2.63628e-05
-2.73904e-05
-2.86161e-05
-2.96769e-05
-3.06505e-05
-3.14274e-05
-3.20451e-05
-3.2473e-05
-3.27176e-05
-3.27729e-05
-3.26392e-05
-3.23235e-05
-3.182e-05
-3.11608e-05
-3.03086e-05
-2.93762e-05
-2.82833e-05
-2.73994e-05
-2.66062e-05
-2.60009e-05
-2.55256e-05
-2.51844e-05
-2.49669e-05
-2.48891e-05
-2.49455e-05
-2.30816e-05
-2.3019e-05
-2.31191e-05
-2.33672e-05
-2.3739e-05
-2.42329e-05
-2.48549e-05
-2.56384e-05
-2.65952e-05
-2.78546e-05
-2.9278e-05
-3.1146e-05
-3.26485e-05
-3.40117e-05
-3.50575e-05
-3.5887e-05
-3.64516e-05
-3.6768e-05
-3.68266e-05
-3.66278e-05
-3.6182e-05
-3.54731e-05
-3.45517e-05
-3.33166e-05
-3.19517e-05
-3.02259e-05
-2.89644e-05
-2.78657e-05
-2.70782e-05
-2.64708e-05
-2.60392e-05
-2.57608e-05
-2.56578e-05
-2.57349e-05
-2.37008e-05
-2.36174e-05
-2.37421e-05
-2.40479e-05
-2.45023e-05
-2.51021e-05
-2.58559e-05
-2.68122e-05
-2.80009e-05
-2.96939e-05
-3.17027e-05
-3.47326e-05
-3.68942e-05
-3.88067e-05
-4.02075e-05
-4.1326e-05
-4.20776e-05
-4.24935e-05
-4.25568e-05
-4.22677e-05
-4.16438e-05
-4.0654e-05
-3.93854e-05
-3.76074e-05
-3.55933e-05
-3.27146e-05
-3.08961e-05
-2.93817e-05
-2.83814e-05
-2.76195e-05
-2.70785e-05
-2.6724e-05
-2.65895e-05
-2.66969e-05
-2.44145e-05
-2.43055e-05
-2.44626e-05
-2.48435e-05
-2.54043e-05
-2.61375e-05
-2.70474e-05
-2.81797e-05
-2.95733e-05
-3.16646e-05
-3.44989e-05
-3.96901e-05
-4.27071e-05
-4.53403e-05
-4.72036e-05
-4.87218e-05
-4.97384e-05
-5.02965e-05
-5.03665e-05
-4.99482e-05
-4.90717e-05
-4.76929e-05
-4.59706e-05
-4.34764e-05
-4.06128e-05
-3.55754e-05
-3.2982e-05
-3.10884e-05
-2.99034e-05
-2.8984e-05
-2.83104e-05
-2.78569e-05
-2.76789e-05
-2.78249e-05
-2.52076e-05
-2.50673e-05
-2.52648e-05
-2.5739e-05
-2.64336e-05
-2.73324e-05
-2.84289e-05
-2.97288e-05
-3.11885e-05
-3.36012e-05
-3.68977e-05
-4.73275e-05
-5.10202e-05
-5.42867e-05
-5.6624e-05
-5.85898e-05
-5.99223e-05
-6.06552e-05
-6.07349e-05
-6.01608e-05
-5.89862e-05
-5.71748e-05
-5.49892e-05
-5.18605e-05
-4.83224e-05
-3.80092e-05
-3.50851e-05
-3.28774e-05
-3.164e-05
-3.05655e-05
-2.97265e-05
-2.91432e-05
-2.89066e-05
-2.9103e-05
-2.60631e-05
-2.58886e-05
-2.61412e-05
-2.67409e-05
-2.76248e-05
-2.87763e-05
-3.01931e-05
-3.17272e-05
-3.32702e-05
-3.55855e-05
-3.11555e-05
-5.54817e-05
-5.98101e-05
-6.38688e-05
-6.69454e-05
-6.95409e-05
-7.13128e-05
-7.22734e-05
-7.23659e-05
-7.15896e-05
-7.00006e-05
-6.75817e-05
-6.46733e-05
-6.07526e-05
-5.65798e-05
-3.20993e-05
-3.72729e-05
-3.51523e-05
-3.38447e-05
-3.25462e-05
-3.1406e-05
-3.06075e-05
-3.0268e-05
-3.05165e-05
-2.69515e-05
-2.67365e-05
-2.70481e-05
-2.77856e-05
-2.88815e-05
-3.03305e-05
-3.21562e-05
-3.42132e-05
-3.57656e-05
-3.09432e-05
-7.91204e-05
-7.25612e-05
-7.48664e-05
-7.8451e-05
-8.12724e-05
-8.33252e-05
-8.44298e-05
-8.45392e-05
-8.36523e-05
-8.18151e-05
-7.92013e-05
-7.58121e-05
-7.36392e-05
-8.01173e-05
-3.33402e-05
-3.8021e-05
-3.65925e-05
-3.47512e-05
-3.32087e-05
-3.2145e-05
-3.16885e-05
-3.20078e-05
-2.78475e-05
-2.75947e-05
-2.79842e-05
-2.89034e-05
-3.03091e-05
-3.22796e-05
-3.50485e-05
-3.88947e-05
-4.50504e-05
-5.30335e-05
-7.53928e-05
-7.25521e-05
-7.88281e-05
-8.51838e-05
-9.09019e-05
-9.49712e-05
-9.77366e-05
-9.91441e-05
-9.9271e-05
-9.81172e-05
-9.56068e-05
-9.17919e-05
-8.63361e-05
-8.02474e-05
-7.42664e-05
-7.7708e-05
-5.52791e-05
-4.7457e-05
-4.148e-05
-3.78632e-05
-3.53943e-05
-3.38416e-05
-3.31714e-05
-3.35447e-05
-2.87062e-05
-2.84121e-05
-2.88611e-05
-2.99209e-05
-3.15461e-05
-3.38345e-05
-3.70562e-05
-4.14561e-05
-4.79671e-05
-5.59876e-05
-6.9609e-05
-7.62512e-05
-8.52759e-05
-9.25251e-05
-9.91697e-05
-0.000103854
-0.000107028
-0.000108627
-0.000108767
-0.00010745
-0.000104559
-0.000100159
-9.38082e-05
-8.68546e-05
-7.81932e-05
-7.18556e-05
-5.84013e-05
-5.05573e-05
-4.424e-05
-4.0083e-05
-3.71793e-05
-3.53446e-05
-3.45513e-05
-3.49989e-05
-2.95022e-05
-2.91729e-05
-2.96769e-05
-3.08645e-05
-3.26867e-05
-3.52547e-05
-3.88509e-05
-4.3704e-05
-5.05564e-05
-5.89029e-05
-7.05117e-05
-7.98273e-05
-9.03359e-05
-9.87047e-05
-0.000106333
-0.00011163
-0.000115214
-0.000117005
-0.000117158
-0.000115672
-0.000112398
-0.00010741
-0.000100103
-9.20449e-05
-8.18682e-05
-7.2835e-05
-6.14497e-05
-5.33002e-05
-4.66624e-05
-4.20696e-05
-3.88137e-05
-3.67363e-05
-3.58326e-05
-3.63365e-05
-3.02053e-05
-2.98442e-05
-3.03866e-05
-3.16649e-05
-3.36189e-05
-3.63575e-05
-4.01503e-05
-4.52094e-05
-5.2164e-05
-6.06645e-05
-7.19605e-05
-8.22046e-05
-9.36544e-05
-0.000102656
-0.00011083
-0.000116475
-0.000120299
-0.000122206
-0.000122369
-0.000120789
-0.000117294
-0.000111977
-0.000104142
-9.54611e-05
-8.43515e-05
-7.43814e-05
-6.33321e-05
-5.50452e-05
-4.83226e-05
-4.35409e-05
-4.01105e-05
-3.78973e-05
-3.69355e-05
-3.74944e-05
-3.07995e-05
-3.04141e-05
-3.09855e-05
-3.2332e-05
-3.4383e-05
-3.72438e-05
-4.11728e-05
-4.6376e-05
-5.34233e-05
-6.20583e-05
-7.33392e-05
-8.40893e-05
-9.60739e-05
-0.000105515
-0.000114075
-0.000119972
-0.000123969
-0.000125961
-0.000126134
-0.000124488
-0.000120838
-0.000115285
-0.000107078
-9.79676e-05
-8.63322e-05
-7.58563e-05
-6.48362e-05
-5.64257e-05
-4.9624e-05
-4.47132e-05
-4.11661e-05
-3.88601e-05
-3.78591e-05
-3.84587e-05
-3.12714e-05
-3.08689e-05
-3.146e-05
-3.28527e-05
-3.49682e-05
-3.79088e-05
-4.19255e-05
-4.72243e-05
-5.43511e-05
-6.31107e-05
-7.44781e-05
-8.55321e-05
-9.7853e-05
-0.000107581
-0.000116394
-0.000122467
-0.000126586
-0.000128641
-0.000128823
-0.000127132
-0.000123377
-0.000117664
-0.000109215
-9.98267e-05
-8.78618e-05
-7.70849e-05
-6.59867e-05
-5.74591e-05
-5.05875e-05
-4.55922e-05
-4.19724e-05
-3.96091e-05
-3.85852e-05
-3.92139e-05
-3.16143e-05
-3.12032e-05
-3.18079e-05
-3.32312e-05
-3.53896e-05
-3.83846e-05
-4.24648e-05
-4.78384e-05
-5.50441e-05
-6.39154e-05
-7.53982e-05
-8.6657e-05
-9.92039e-05
-0.000109135
-0.00011813
-0.000124335
-0.000128549
-0.000130654
-0.000130846
-0.000129123
-0.000125291
-0.00011946
-0.000110841
-0.000101257
-8.907e-05
-7.80897e-05
-6.68796e-05
-5.82435e-05
-5.12979e-05
-4.62343e-05
-4.25602e-05
-4.01564e-05
-3.91152e-05
-3.97582e-05
-3.18245e-05
-3.14133e-05
-3.20265e-05
-3.3466e-05
-3.56484e-05
-3.86761e-05
-4.28e-05
-4.82316e-05
-5.5513e-05
-6.44828e-05
-7.60866e-05
-8.74877e-05
-0.000100183
-0.000110253
-0.00011937
-0.000125674
-0.000129957
-0.000132105
-0.000132307
-0.000130564
-0.00012668
-0.000120766
-0.000112036
-0.000102318
-8.99842e-05
-7.88596e-05
-6.7527e-05
-5.87911e-05
-5.17696e-05
-4.66491e-05
-4.29341e-05
-4.05027e-05
-3.94471e-05
-4.00901e-05
-3.19015e-05
-3.14988e-05
-3.21151e-05
-3.35567e-05
-3.57438e-05
-3.87822e-05
-4.29295e-05
-4.84015e-05
-5.57554e-05
-6.48133e-05
-7.6549e-05
-8.80413e-05
-0.000100814
-0.000110964
-0.000120146
-0.000126514
-0.000130847
-0.000133027
-0.000133242
-0.00013149
-0.00012758
-0.000121619
-0.000112835
-0.000103042
-9.0627e-05
-7.94038e-05
-6.79323e-05
-5.91015e-05
-5.20021e-05
-4.68366e-05
-4.30942e-05
-4.0648e-05
-3.95814e-05
-4.021e-05
-3.18484e-05
-3.14626e-05
-3.20763e-05
-3.35041e-05
-3.56739e-05
-3.86968e-05
-4.28412e-05
-4.83302e-05
-5.57543e-05
-6.48937e-05
-7.68049e-05
-8.83295e-05
-0.000101085
-0.000111247
-0.000120429
-0.000126827
-0.000131185
-0.00013339
-0.000133621
-0.000131875
-0.000127966
-0.000121997
-0.000113225
-0.000103425
-9.10183e-05
-7.97469e-05
-6.80859e-05
-5.91611e-05
-5.19806e-05
-4.67877e-05
-4.30374e-05
-4.05934e-05
-3.9521e-05
-4.01206e-05
-3.16713e-05
-3.13095e-05
-3.19112e-05
-3.33035e-05
-3.54233e-05
-3.83867e-05
-4.2476e-05
-4.79278e-05
-5.54025e-05
-6.46243e-05
-7.68467e-05
-8.83013e-05
-0.000100874
-0.000110918
-0.000119979
-0.000126341
-0.000130682
-0.000132897
-0.000133149
-0.000131433
-0.000127575
-0.000121673
-0.000113038
-0.000103361
-9.11197e-05
-7.98864e-05
-6.78921e-05
-5.88663e-05
-5.1619e-05
-4.64473e-05
-4.27345e-05
-4.03279e-05
-3.92656e-05
-3.9825e-05
-3.1383e-05
-3.1053e-05
-3.16343e-05
-3.29698e-05
-3.50064e-05
-3.78623e-05
-4.18335e-05
-4.71751e-05
-5.46698e-05
-6.39309e-05
-7.68149e-05
-8.80133e-05
-0.000100013
-0.00010978
-0.000118582
-0.000124836
-0.000129113
-0.000131322
-0.000131601
-0.000129944
-0.0001262
-0.000120451
-0.000112099
-0.000102713
-9.10114e-05
-7.9969e-05
-6.72811e-05
-5.81938e-05
-5.09054e-05
-4.58221e-05
-4.22031e-05
-3.98732e-05
-3.88366e-05
-3.93408e-05
-3.09986e-05
-3.07038e-05
-3.1249e-05
-3.24925e-05
-3.43829e-05
-3.70236e-05
-4.06954e-05
-4.56612e-05
-5.28775e-05
-6.19409e-05
-7.71483e-05
-8.72472e-05
-9.80035e-05
-0.000106996
-0.000115111
-0.000121018
-0.000125086
-0.000127233
-0.000127548
-0.000126029
-0.000122563
-0.000117232
-0.000109609
-0.000101031
-9.05207e-05
-8.04096e-05
-6.53809e-05
-5.64718e-05
-4.94374e-05
-4.47013e-05
-4.13499e-05
-3.91972e-05
-3.82345e-05
-3.86821e-05
-3.05478e-05
-3.02949e-05
-3.08026e-05
-3.19476e-05
-3.36805e-05
-3.60862e-05
-3.94083e-05
-4.3912e-05
-5.08397e-05
-5.99497e-05
-8.23082e-05
-8.6047e-05
-9.48856e-05
-0.000103484
-0.000111077
-0.000116731
-0.000120654
-0.000122776
-0.000123138
-0.000121742
-0.000118518
-0.000113553
-0.000106522
-9.84219e-05
-8.96845e-05
-8.54993e-05
-6.35218e-05
-5.45457e-05
-4.77616e-05
-4.34457e-05
-4.04006e-05
-3.84367e-05
-3.75451e-05
-3.79142e-05
-3.00529e-05
-2.98382e-05
-3.02904e-05
-3.12973e-05
-3.27858e-05
-3.47596e-05
-3.725e-05
-4.00657e-05
-4.2199e-05
-3.62965e-05
-0.000101258
-9.37992e-05
-9.80824e-05
-0.000103865
-0.00010868
-0.000112197
-0.000114216
-0.000114634
-0.000113465
-0.00011077
-0.000106806
-0.000101685
-9.80886e-05
-0.000105506
-4.01435e-05
-4.61522e-05
-4.40421e-05
-4.13387e-05
-3.90666e-05
-3.74832e-05
-3.67476e-05
-3.70599e-05
-2.95576e-05
-2.93849e-05
-2.98049e-05
-3.07277e-05
-3.20947e-05
-3.39243e-05
-3.62849e-05
-3.91385e-05
-4.27299e-05
-4.79877e-05
-5.05778e-05
-7.57968e-05
-8.35106e-05
-9.12386e-05
-9.7431e-05
-0.000102736
-0.000106409
-0.000108534
-0.000109008
-0.000107861
-0.000105145
-0.00010089
-9.54584e-05
-8.86285e-05
-8.0875e-05
-5.64331e-05
-5.27959e-05
-4.71723e-05
-4.33363e-05
-4.04554e-05
-3.8228e-05
-3.67222e-05
-3.60141e-05
-3.62451e-05
-2.90811e-05
-2.89431e-05
-2.93301e-05
-3.01708e-05
-3.1416e-05
-3.30935e-05
-3.52813e-05
-3.80991e-05
-4.17568e-05
-4.71153e-05
-5.51819e-05
-6.91378e-05
-7.68245e-05
-8.43837e-05
-9.02634e-05
-9.53075e-05
-9.87549e-05
-0.000100778
-0.000101275
-0.000100289
-9.78531e-05
-9.39748e-05
-8.88389e-05
-8.23082e-05
-7.45305e-05
-6.08559e-05
-5.21015e-05
-4.63577e-05
-4.23917e-05
-3.94804e-05
-3.73676e-05
-3.59592e-05
-3.52943e-05
-3.54698e-05
-2.86517e-05
-2.85461e-05
-2.89126e-05
-2.96981e-05
-3.08666e-05
-3.2459e-05
-3.45663e-05
-3.73453e-05
-4.10304e-05
-4.61447e-05
-5.30385e-05
-6.25377e-05
-7.00488e-05
-7.76222e-05
-8.32553e-05
-8.81596e-05
-9.14692e-05
-9.34136e-05
-9.39205e-05
-9.30425e-05
-9.07764e-05
-8.71171e-05
-8.20723e-05
-7.57615e-05
-6.8165e-05
-5.8848e-05
-5.12868e-05
-4.5728e-05
-4.16837e-05
-3.87637e-05
-3.66885e-05
-3.53212e-05
-3.46673e-05
-3.47873e-05
-2.82845e-05
-2.82053e-05
-2.85551e-05
-2.9293e-05
-3.03915e-05
-3.18932e-05
-3.38841e-05
-3.65112e-05
-3.99516e-05
-4.45791e-05
-5.03442e-05
-5.77559e-05
-6.44808e-05
-7.1281e-05
-7.66429e-05
-8.11831e-05
-8.42374e-05
-8.60386e-05
-8.6534e-05
-8.57767e-05
-8.37481e-05
-8.04536e-05
-7.58095e-05
-7.01198e-05
-6.33027e-05
-5.60037e-05
-4.96236e-05
-4.45769e-05
-4.07949e-05
-3.80258e-05
-3.60545e-05
-3.47536e-05
-3.41224e-05
-3.42023e-05
-2.79953e-05
-2.79392e-05
-2.82793e-05
-2.89819e-05
-3.00236e-05
-3.1443e-05
-3.33116e-05
-3.57433e-05
-3.88545e-05
-4.28603e-05
-4.76894e-05
-5.35946e-05
-5.93653e-05
-6.52968e-05
-7.01173e-05
-7.41356e-05
-7.68801e-05
-7.85089e-05
-7.89785e-05
-7.83319e-05
-7.65509e-05
-7.36572e-05
-6.95813e-05
-6.46296e-05
-5.87787e-05
-5.29077e-05
-4.76149e-05
-4.32854e-05
-3.99059e-05
-3.73664e-05
-3.55279e-05
-3.43003e-05
-3.36917e-05
-3.37385e-05
-2.77954e-05
-2.7763e-05
-2.81046e-05
-2.8785e-05
-2.97847e-05
-3.11378e-05
-3.29018e-05
-3.51607e-05
-3.79895e-05
-4.15101e-05
-4.56543e-05
-5.05245e-05
-5.54611e-05
-6.0528e-05
-6.47659e-05
-6.82829e-05
-7.0739e-05
-7.22092e-05
-7.26527e-05
-7.20987e-05
-7.05371e-05
-6.80027e-05
-6.44741e-05
-6.02185e-05
-5.52776e-05
-5.04285e-05
-4.59742e-05
-4.22249e-05
-3.9205e-05
-3.68783e-05
-3.51619e-05
-3.39968e-05
-3.33993e-05
-3.34136e-05
-2.76868e-05
-2.77054e-05
-2.80682e-05
-2.87453e-05
-2.97282e-05
-3.10499e-05
-3.27585e-05
-3.4917e-05
-3.75771e-05
-4.08038e-05
-4.45406e-05
-4.8787e-05
-5.31514e-05
-5.75506e-05
-6.13501e-05
-6.45069e-05
-6.67641e-05
-6.81254e-05
-6.85489e-05
-6.805e-05
-6.66297e-05