/*--------------------------------*- C++ -*----------------------------------*\
| =========                 |                                                 |
| \\      /  F ield         | OpenFOAM: The Open Source CFD Toolbox           |
|  \\    /   O peration     | Version:  2112                                  |
|   \\  /    A nd           | Website:  www.openfoam.com                      |
|    \\/     M anipulation  |                                                 |
\*---------------------------------------------------------------------------*/
FoamFile
{
    version     2.0;
    format      ascii;
    arch        "LSB;label=32;scalar=64";
    class       surfaceScalarField;
    location    "0.4";
    object      phi;
}
// * * * * * * * * * * * * * * * * * * * * * * * * * * * * * * * * * * * * * //

dimensions      [0 3 -1 0 0 0 0];

oriented        oriented;

internalField   nonuniform List<scalar> 
188215
(
1.34585e-09
3.19353e-09
-4.53938e-09
3.01179e-09
3.21375e-09
-4.87969e-09
4.67712e-09
3.31128e-09
-4.97661e-09
6.28224e-09
3.57346e-09
-5.17859e-09
7.8169e-09
3.97174e-09
-5.5064e-09
9.26999e-09
4.49499e-09
-5.94809e-09
1.06222e-08
5.14602e-09
-6.49827e-09
1.183e-08
5.94347e-09
-7.15125e-09
1.28387e-08
6.89403e-09
-7.90272e-09
1.35234e-08
8.04605e-09
-8.73079e-09
1.37985e-08
9.34461e-09
-9.61963e-09
1.34505e-08
1.08666e-08
-1.05187e-08
1.25074e-08
1.23372e-08
-1.1394e-08
1.09674e-08
1.37305e-08
-1.21906e-08
8.92565e-09
1.49201e-08
-1.28784e-08
6.47751e-09
1.58714e-08
-1.34232e-08
3.75336e-09
1.6531e-08
-1.38068e-08
8.91001e-10
1.68768e-08
-1.40144e-08
-1.96258e-09
1.68937e-08
-1.40402e-08
-4.6605e-09
1.6582e-08
-1.38841e-08
-7.06474e-09
1.5957e-08
-1.35527e-08
-9.04459e-09
1.50412e-08
-1.30613e-08
-1.05052e-08
1.38893e-08
-1.24287e-08
-1.13518e-08
1.25364e-08
-1.16898e-08
-1.1589e-08
1.11123e-08
-1.08751e-08
-1.11899e-08
9.64214e-09
-1.00413e-08
-1.03738e-08
8.40702e-09
-9.22307e-09
-9.22564e-09
7.3257e-09
-8.47387e-09
-7.87202e-09
6.45849e-09
-7.8121e-09
-6.36682e-09
5.76072e-09
-7.26592e-09
-4.75284e-09
5.23759e-09
-6.85157e-09
-3.0529e-09
4.89588e-09
-6.59582e-09
-1.34226e-09
4.76882e-09
-6.47946e-09
4.71441e-09
-6.05668e-09
1.21013e-09
7.01862e-09
-5.03523e-09
3.20824e-09
7.52583e-09
-6.3102e-09
5.14707e-09
7.95553e-09
-6.58309e-09
6.96012e-09
8.63418e-09
-6.87377e-09
8.68227e-09
9.58993e-09
-7.34034e-09
1.03217e-08
1.08281e-08
-7.97254e-09
1.1867e-08
1.23646e-08
-8.7638e-09
1.32772e-08
1.42446e-08
-9.71136e-09
1.44942e-08
1.64915e-08
-1.08145e-08
1.5366e-08
1.92266e-08
-1.20524e-08
1.57821e-08
2.23318e-08
-1.34034e-08
1.54199e-08
2.60282e-08
-1.47994e-08
1.43449e-08
2.95752e-08
-1.61631e-08
1.25664e-08
3.29179e-08
-1.74088e-08
1.02084e-08
3.57596e-08
-1.84815e-08
7.38423e-09
3.80258e-08
-1.93302e-08
4.245e-09
3.95953e-08
-1.99251e-08
9.48168e-10
4.0418e-08
-2.02443e-08
-2.33927e-09
4.04596e-08
-2.02784e-08
-5.45018e-09
3.97204e-08
-2.00275e-08
-8.2267e-09
3.82354e-08
-1.95019e-08
-1.05171e-08
3.60556e-08
-1.8724e-08
-1.22083e-08
3.33049e-08
-1.77244e-08
-1.31762e-08
3.00595e-08
-1.65552e-08
-1.34147e-08
2.66232e-08
-1.52723e-08
-1.28589e-08
2.30499e-08
-1.39636e-08
-1.18399e-08
2.00958e-08
-1.27078e-08
-1.04648e-08
1.7527e-08
-1.15764e-08
-8.88544e-09
1.54739e-08
-1.05948e-08
-7.1527e-09
1.38207e-08
-9.79271e-09
-5.28615e-09
1.25601e-08
-9.18908e-09
-3.25095e-09
1.16667e-08
-8.80604e-09
-1.12821e-09
1.10954e-08
-8.44928e-09
1.03667e-08
-6.78046e-09
1.30378e-09
1.08569e-08
-5.14205e-09
3.59729e-09
1.18011e-08
-6.56876e-09
5.84198e-09
1.25816e-08
-6.87074e-09
7.94209e-09
1.37209e-08
-7.18686e-09
9.95178e-09
1.52888e-08
-7.70851e-09
1.18965e-08
1.73095e-08
-8.42606e-09
1.3781e-08
1.98166e-08
-9.33654e-09
1.5573e-08
2.28953e-08
-1.04427e-08
1.72218e-08
2.65977e-08
-1.1755e-08
1.85097e-08
3.119e-08
-1.32513e-08
1.92937e-08
3.64696e-08
-1.49217e-08
1.8916e-08
4.30666e-08
-1.66608e-08
1.75969e-08
4.92646e-08
-1.83703e-08
1.53689e-08
5.50694e-08
-1.99234e-08
1.24351e-08
5.99508e-08
-2.12575e-08
8.93528e-09
6.38307e-08
-2.23051e-08
5.05906e-09
6.65074e-08
-2.30359e-08
9.93949e-10
6.79073e-08
-2.34242e-08
-3.0614e-09
6.79747e-08
-2.34597e-08
-6.90801e-09
6.67097e-08
-2.31426e-08
-1.03575e-08
6.41689e-08
-2.24839e-08
-1.32188e-08
6.04269e-08
-2.151e-08
-1.53514e-08
5.56895e-08
-2.02519e-08
-1.65508e-08
5.00372e-08
-1.87783e-08
-1.67884e-08
4.40134e-08
-1.71527e-08
-1.58422e-08
3.76085e-08
-1.55048e-08
-1.4386e-08
3.25731e-08
-1.39335e-08
-1.25523e-08
2.82429e-08
-1.25496e-08
-1.0556e-08
2.48439e-08
-1.13662e-08
-8.43407e-09
2.21157e-08
-1.0417e-08
-6.18745e-09
2.00273e-08
-9.71383e-09
-3.75206e-09
1.85095e-08
-9.27817e-09
-1.24497e-09
1.74613e-08
-8.873e-09
1.61162e-08
-6.99456e-09
1.59171e-09
1.45741e-08
-5.30897e-09
4.29605e-09
1.58829e-08
-6.78613e-09
6.96962e-09
1.70093e-08
-7.10128e-09
9.50172e-09
1.86407e-08
-7.45191e-09
1.19616e-08
2.08758e-08
-8.04697e-09
1.43954e-08
2.37544e-08
-8.87881e-09
1.68363e-08
2.73288e-08
-9.95306e-09
1.92797e-08
3.1736e-08
-1.12841e-08
2.17059e-08
3.70749e-08
-1.29034e-08
2.3801e-08
4.38855e-08
-1.47906e-08
2.53647e-08
5.1868e-08
-1.69621e-08
2.49341e-08
6.27492e-08
-1.9252e-08
2.31448e-08
7.25676e-08
-2.15136e-08
2.01099e-08
8.16555e-08
-2.35512e-08
1.61822e-08
8.91732e-08
-2.52947e-08
1.15346e-08
9.51254e-08
-2.66471e-08
6.41676e-09
9.92109e-08
-2.75856e-08
1.06149e-09
1.01341e-07
-2.80785e-08
-4.28372e-09
1.01435e-07
-2.81153e-08
-9.37079e-09
9.9493e-08
-2.76963e-08
-1.39652e-08
9.55957e-08
-2.68324e-08
-1.78144e-08
8.98321e-08
-2.55561e-08
-2.07428e-08
8.25087e-08
-2.38907e-08
-2.23936e-08
7.36228e-08
-2.19349e-08
-2.26588e-08
6.40371e-08
-1.97586e-08
-2.08954e-08
5.34076e-08
-1.75625e-08
-1.86027e-08
4.57728e-08
-1.54923e-08
-1.59535e-08
3.93164e-08
-1.37228e-08
-1.3256e-08
3.43852e-08
-1.22389e-08
-1.05092e-08
3.04451e-08
-1.10761e-08
-7.68161e-09
2.74296e-08
-1.02299e-08
-4.67653e-09
2.52236e-08
-9.71922e-09
-1.62212e-09
2.36884e-08
-9.28156e-09
2.18118e-08
-7.31764e-09
2.03319e-09
1.81114e-08
-5.57041e-09
5.31278e-09
1.97718e-08
-7.16855e-09
8.58396e-09
2.12669e-08
-7.52876e-09
1.17243e-08
2.34462e-08
-7.94573e-09
1.48242e-08
2.64359e-08
-8.65995e-09
1.7961e-08
3.02886e-08
-9.67103e-09
2.12179e-08
3.50722e-08
-1.10002e-08
2.46643e-08
4.09734e-08
-1.26838e-08
2.83763e-08
4.81542e-08
-1.47913e-08
3.19553e-08
5.76188e-08
-1.73123e-08
3.51406e-08
6.90061e-08
-2.03233e-08
3.45142e-08
8.69378e-08
-2.35622e-08
3.18281e-08
1.02016e-07
-2.67624e-08
2.74345e-08
1.15667e-07
-2.96181e-08
2.19324e-08
1.2673e-07
-3.2055e-08
1.55059e-08
1.35463e-07
-3.39112e-08
8.48285e-09
1.41428e-07
-3.51943e-08
1.15525e-09
1.44529e-07
-3.58607e-08
-6.16233e-09
1.44653e-07
-3.59003e-08
-1.31543e-08
1.41798e-07
-3.53134e-08
-1.95259e-08
1.36078e-07
-3.41103e-08
-2.49438e-08
1.27585e-07
-3.23354e-08
-2.92185e-08
1.16764e-07
-2.99811e-08
-3.17412e-08
1.03357e-07
-2.72113e-08
-3.21656e-08
8.8561e-08
-2.40995e-08
-2.87198e-08
7.09208e-08
-2.0959e-08
-2.491e-08
6.00163e-08
-1.80534e-08
-2.09287e-08
5.09944e-08
-1.56592e-08
-1.71637e-08
4.43183e-08
-1.3698e-08
-1.3509e-08
3.89905e-08
-1.22001e-08
-9.85374e-09
3.49015e-08
-1.11272e-08
-6.04376e-09
3.18991e-08
-1.04854e-08
-2.20981e-09
2.98174e-08
-9.96298e-09
2.7404e-08
-7.80202e-09
2.62658e-09
2.13979e-08
-5.91311e-09
6.67448e-09
2.34111e-08
-7.68712e-09
1.07441e-08
2.53153e-08
-8.11807e-09
1.46997e-08
2.81191e-08
-8.62866e-09
1.86574e-08
3.19824e-08
-9.50421e-09
2.27351e-08
3.69681e-08
-1.07572e-08
2.7091e-08
4.31489e-08
-1.24326e-08
3.19596e-08
5.07089e-08
-1.46042e-08
3.76666e-08
5.98512e-08
-1.74041e-08
4.39694e-08
7.21676e-08
-2.08516e-08
5.06113e-08
8.74756e-08
-2.51113e-08
4.9327e-08
1.18058e-07
-2.98361e-08
4.48913e-08
1.40947e-07
-3.44948e-08
3.82727e-08
1.60903e-07
-3.86173e-08
3.0385e-08
1.76754e-07
-4.21361e-08
2.13206e-08
1.89263e-07
-4.47359e-08
1.14963e-08
1.97784e-07
-4.65317e-08
1.27815e-09
2.02203e-07
-4.74556e-08
-8.9308e-09
2.02362e-07
-4.74998e-08
-1.8726e-08
1.98258e-07
-4.66646e-08
-2.77375e-08
1.90047e-07
-4.49575e-08
-3.55397e-08
1.77835e-07
-4.24472e-08
-4.20297e-08
1.62272e-07
-3.90175e-08
-4.62733e-08
1.42587e-07
-3.49869e-08
-4.73046e-08
1.20012e-07
-3.04197e-08
-4.02975e-08
8.97115e-08
-2.57977e-08
-3.37398e-08
7.51055e-08
-2.16469e-08
-2.77166e-08
6.33102e-08
-1.8339e-08
-2.24516e-08
5.47527e-08
-1.56995e-08
-1.75775e-08
4.7853e-08
-1.37366e-08
-1.28123e-08
4.24896e-08
-1.23533e-08
-7.91522e-09
3.85304e-08
-1.15284e-08
-3.01952e-09
3.57987e-08
-1.08769e-08
3.28148e-08
-8.43038e-09
3.3899e-09
2.43292e-08
-6.32118e-09
8.42466e-09
2.66926e-08
-8.31627e-09
1.35273e-08
2.90511e-08
-8.8384e-09
1.85444e-08
3.25685e-08
-9.46654e-09
2.36163e-08
3.74535e-08
-1.05429e-08
2.89002e-08
4.37824e-08
-1.20982e-08
3.46449e-08
5.1613e-08
-1.42088e-08
4.13976e-08
6.09652e-08
-1.7009e-08
5.00438e-08
7.19353e-08
-2.07303e-08
6.12829e-08
8.63655e-08
-2.54371e-08
7.56306e-08
1.0454e-07
-3.14124e-08
7.21864e-08
1.59825e-07
-3.83224e-08
6.41333e-08
1.9405e-07
-4.50502e-08
5.38894e-08
2.22162e-07
-5.10153e-08
4.24895e-08
2.44306e-07
-5.6152e-08
2.96251e-08
2.61871e-07
-5.97427e-08
1.57871e-08
2.73865e-07
-6.22425e-08
1.43541e-09
2.80076e-07
-6.35208e-08
-1.29092e-08
2.80279e-07
-6.35722e-08
-2.67242e-08
2.7447e-07
-6.23966e-08
-3.95455e-08
2.62867e-07
-5.99987e-08
-5.08694e-08
2.45668e-07
-5.65098e-08
-6.09866e-08
2.2386e-07
-5.14708e-08
-6.88207e-08
1.96026e-07
-4.56044e-08
-7.19422e-08
1.62103e-07
-3.89692e-08
-5.7036e-08
1.06968e-07
-3.21631e-08
-4.5558e-08
8.99251e-08
-2.62976e-08
-3.65645e-08
7.60614e-08
-2.17448e-08
-2.93268e-08
6.57152e-08
-1.82001e-08
-2.291e-08
5.70731e-08
-1.56369e-08
-1.67133e-08
5.01556e-08
-1.38627e-08
-1.03924e-08
4.50165e-08
-1.28071e-08
-4.09711e-09
4.14927e-08
-1.19894e-08
3.78982e-08
-9.18049e-09
4.34792e-09
2.67624e-08
-6.78119e-09
1.06214e-08
2.94594e-08
-9.04023e-09
1.70389e-08
3.23049e-08
-9.67134e-09
2.34247e-08
3.66206e-08
-1.04379e-08
2.99257e-08
4.27034e-08
-1.17509e-08
3.66857e-08
5.06872e-08
-1.36648e-08
4.39469e-08
6.06464e-08
-1.62946e-08
5.26336e-08
7.21613e-08
-1.98828e-08
6.46524e-08
8.47161e-08
-2.47996e-08
8.49562e-08
9.74092e-08
-3.13475e-08
1.16483e-07
1.11665e-07
-3.86523e-08
1.06755e-07
2.17812e-07
-4.82588e-08
9.16923e-08
2.67024e-07
-5.79106e-08
7.59615e-08
3.04391e-07
-6.64979e-08
5.9625e-08
3.3462e-07
-7.39776e-08
4.1399e-08
3.58784e-07
-7.86872e-08
2.18594e-08
3.75434e-07
-8.20296e-08
1.63579e-09
3.8404e-07
-8.37407e-08
-1.85844e-08
3.84301e-07
-8.38019e-08
-3.8113e-08
3.76212e-07
-8.22133e-08
-5.63183e-08
3.60063e-07
-7.89908e-08
-7.26112e-08
3.36362e-07
-7.44003e-08
-8.82527e-08
3.06531e-07
-6.70294e-08
-1.03105e-07
2.69427e-07
-5.85484e-08
-1.12399e-07
2.2039e-07
-4.89937e-08
-7.99417e-08
1.13988e-07
-3.94773e-08
-5.95283e-08
1.01789e-07
-3.22777e-08
-4.71603e-08
8.95944e-08
-2.5901e-08
-3.78867e-08
7.76213e-08
-2.11798e-08
-2.97572e-08
6.6806e-08
-1.78625e-08
-2.1791e-08
5.78115e-08
-1.56221e-08
-1.36338e-08
5.11535e-08
-1.42943e-08
-5.51795e-09
4.66546e-08
-1.32776e-08
4.24087e-08
-1.00284e-08
5.50935e-09
2.85358e-08
-7.28273e-09
1.32919e-08
3.1524e-08
-9.84723e-09
2.13434e-08
3.48596e-08
-1.06061e-08
2.94711e-08
4.0026e-08
-1.15332e-08
3.78142e-08
4.74793e-08
-1.3119e-08
4.64094e-08
5.75347e-08
-1.54427e-08
5.52546e-08
7.04589e-08
-1.86578e-08
6.53822e-08
8.51913e-08
-2.31576e-08
8.00093e-08
9.97636e-08
-2.96746e-08
1.13409e-07
1.01847e-07
-3.78376e-08
1.82285e-07
9.06493e-08
-4.78597e-08
1.56678e-07
2.98442e-07
-5.50239e-08
1.28912e-07
3.6175e-07
-6.69598e-08
1.05675e-07
4.06173e-07
-7.85455e-08
8.29336e-08
4.46065e-07
-8.87037e-08
5.75542e-08
4.78181e-07
-9.4018e-08
3.02133e-08
5.00797e-07
-9.80223e-08
1.89369e-09
5.12455e-07
-1.00095e-07
-2.64282e-08
5.12789e-07
-1.00166e-07
-5.37769e-08
5.01795e-07
-9.8235e-08
-7.91759e-08
4.79829e-07
-9.43675e-08
-1.01944e-07
4.4832e-07
-8.91902e-08
-1.25205e-07
4.0894e-07
-7.91484e-08
-1.52883e-07
3.64783e-07
-6.76774e-08
-1.77919e-07
3.01257e-07
-5.58305e-08
-1.0735e-07
9.22516e-08
-4.88327e-08
-7.42107e-08
1.07481e-07
-3.88309e-08
-5.93036e-08
1.0554e-07
-3.08528e-08
-4.8469e-08
9.13446e-08
-2.45578e-08
-3.84947e-08
7.72032e-08
-2.03714e-08
-2.83105e-08
6.52385e-08
-1.76112e-08
-1.77863e-08
5.66074e-08
-1.59781e-08
-7.33791e-09
5.09358e-08
-1.47296e-08
4.60311e-08
-1.09603e-08
6.89775e-09
2.94456e-08
-7.80757e-09
1.65009e-08
3.26369e-08
-1.07161e-08
2.66056e-08
3.63709e-08
-1.16159e-08
3.70545e-08
4.22934e-08
-1.27163e-08
4.80072e-08
5.11207e-08
-1.45941e-08
5.92041e-08
6.36829e-08
-1.73452e-08
6.96454e-08
8.11337e-08
-2.1116e-08
7.7356e-08
1.04133e-07
-2.66528e-08
8.10664e-08
1.30183e-07
-3.41303e-08
1.07054e-07
1.20582e-07
-4.47232e-08
2.62804e-07
-6.51005e-08
2.09646e-07
4.03389e-07
-5.17886e-08
1.73858e-07
4.58199e-07
-6.06612e-08
1.45462e-07
5.06664e-07
-7.20944e-08
1.15298e-07
5.58307e-07
-8.20779e-08
8.01445e-08
5.99372e-07
-8.60372e-08
4.18603e-08
6.28482e-07
-8.94002e-08
2.22297e-09
6.43333e-07
-9.12405e-08
-3.74208e-08
6.43742e-07
-9.13092e-08
-7.57292e-08
6.2971e-07
-8.96058e-08
-1.10947e-07
6.01418e-07
-8.63707e-08
-1.41238e-07
5.61156e-07
-8.25459e-08
-1.69915e-07
5.10281e-07
-7.26638e-08
-2.06172e-07
4.62373e-07
-6.13336e-08
-2.59194e-07
4.06893e-07
-5.26143e-08
-1.00496e-07
-6.64465e-08
-7.46619e-08
1.27343e-07
-4.56963e-08
-7.08582e-08
1.37109e-07
-3.53722e-08
-6.22142e-08
1.10858e-07
-2.81579e-08
-5.02806e-08
8.82492e-08
-2.29796e-08
-3.70166e-08
7.17155e-08
-1.9741e-08
-2.32357e-08
6.06309e-08
-1.78043e-08
-9.72122e-09
5.37293e-08
-1.63081e-08
4.82421e-08
-1.19322e-08
8.43493e-09
2.93608e-08
-8.35014e-09
2.00795e-08
3.26261e-08
-1.16337e-08
3.25518e-08
3.65957e-08
-1.26971e-08
4.58129e-08
4.30365e-08
-1.40042e-08
6.01833e-08
5.29812e-08
-1.62308e-08
7.52958e-08
6.80217e-08
-1.94512e-08
8.88671e-08
9.12709e-08
-2.37085e-08
9.40626e-08
1.27824e-07
-2.88863e-08
7.60413e-08
1.84934e-07
-3.67287e-08
2.49443e-07
-5.28195e-08
1.42084e-07
2.401e-07
2.12053e-08
1.88679e-07
3.97388e-07
1.42167e-08
1.85131e-07
4.94559e-07
1.56523e-08
1.53112e-07
5.6926e-07
2.10661e-08
1.07979e-07
6.21843e-07
2.26621e-08
5.65672e-08
6.56429e-07
2.34646e-08
2.6467e-09
6.73479e-07
2.37741e-08
-5.12842e-08
6.73903e-07
2.37697e-08
-1.02737e-07
6.57711e-07
2.34513e-08
-1.47982e-07
6.24017e-07
2.26468e-08
-1.80269e-07
5.72399e-07
2.10443e-08
-1.84487e-07
4.9884e-07
1.56595e-08
-1.39358e-07
4.03112e-07
1.41326e-08
2.46708e-07
2.08272e-08
-7.31205e-08
2.53475e-07
-5.30111e-08
-8.8654e-08
1.90526e-07
-3.78843e-08
-8.13287e-08
1.33998e-07
-3.0465e-08
-6.55288e-08
9.8156e-08
-2.57066e-08
-4.76976e-08
7.59605e-08
-2.20763e-08
-2.97213e-08
6.24729e-08
-1.98183e-08
-1.2506e-08
5.45363e-08
-1.80223e-08
4.86939e-08
-1.29579e-08
1.01336e-08
2.81092e-08
-8.88196e-09
2.40896e-08
3.12252e-08
-1.25551e-08
3.94857e-08
3.49789e-08
-1.37792e-08
5.68083e-08
4.10013e-08
-1.52873e-08
7.75399e-08
5.01061e-08
-1.78565e-08
1.03735e-07
6.33746e-08
-2.15481e-08
1.38729e-07
8.25712e-08
-2.62942e-08
1.88577e-07
1.09658e-07
-3.16825e-08
2.63191e-07
1.45625e-07
-3.53052e-08
3.72227e-07
1.75094e-07
-3.46869e-08
2.89248e-07
8.18122e-08
1.16685e-09
3.19697e-07
1.943e-07
1.53502e-08
3.13551e-07
3.0913e-07
9.44034e-08
2.74794e-07
3.90238e-07
1.43078e-07
2.15007e-07
4.54344e-07
1.74703e-07
1.47199e-07
4.99535e-07
1.90117e-07
7.57629e-08
5.2913e-07
1.98734e-07
3.09448e-09
5.4373e-07
2.02418e-07
-6.95681e-08
5.44099e-07
2.02467e-07
-1.40986e-07
5.30243e-07
1.98886e-07
-2.0877e-07
5.01411e-07
1.90389e-07
-2.68501e-07
4.57022e-07
1.75108e-07
-3.07152e-07
3.93785e-07
1.43706e-07
-3.12794e-07
3.13509e-07
9.52448e-08
-2.82069e-07
1.99273e-07
1.67095e-08
-3.68006e-07
8.37947e-08
2.14233e-09
-2.58432e-07
1.7876e-07
-3.48587e-08
-1.82149e-07
1.50487e-07
-3.62435e-08
-1.30289e-07
1.15308e-07
-3.317e-08
-9.28147e-08
8.90521e-08
-2.83706e-08
-6.34092e-08
7.09465e-08
-2.43916e-08
-3.83072e-08
5.92147e-08
-2.18438e-08
-1.60615e-08
5.20615e-08
-1.97709e-08
4.65871e-08
-1.39546e-08
1.16886e-08
2.58231e-08
-9.40248e-09
2.77259e-08
2.864e-08
-1.34521e-08
4.55959e-08
3.19607e-08
-1.48519e-08
6.59934e-08
3.7202e-08
-1.65982e-08
9.07724e-08
4.49188e-08
-1.95918e-08
1.22405e-07
5.56974e-08
-2.39554e-08
1.64415e-07
7.022e-08
-2.96588e-08
2.21838e-07
8.88143e-08
-3.65788e-08
2.99695e-07
1.10116e-07
-4.23474e-08
3.9208e-07
1.27878e-07
-4.51693e-08
3.97495e-07
1.04778e-07
-2.83806e-08
4.25825e-07
1.65469e-07
5.00622e-10
3.95345e-07
2.3571e-07
1.039e-07
3.36089e-07
2.92722e-07
1.56771e-07
2.59497e-07
3.40204e-07
1.90732e-07
1.76207e-07
3.74682e-07
2.08143e-07
9.01819e-08
3.97632e-07
2.17524e-07
3.45833e-09
4.09066e-07
2.21387e-07
-8.32548e-08
4.0938e-07
2.21431e-07
-1.69247e-07
3.98575e-07
2.1766e-07
-2.52485e-07
3.76259e-07
2.0839e-07
-3.28987e-07
3.42414e-07
1.9111e-07
-3.88142e-07
2.95561e-07
1.57379e-07
-4.18445e-07
2.39079e-07
1.04734e-07
-3.90284e-07
1.69202e-07
1.91017e-09
-3.8634e-07
1.07497e-07
-2.76466e-08
-2.93819e-07
1.31522e-07
-4.52834e-08
-2.14613e-07
1.14501e-07
-4.32206e-08
-1.55127e-07
9.39164e-08
-3.8094e-08
-1.10355e-07
7.61305e-08
-3.18502e-08
-7.50433e-08
6.26545e-08
-2.70195e-08
-4.51828e-08
5.33076e-08
-2.39534e-08
-1.89826e-08
4.73696e-08
-2.15083e-08
4.25713e-08
-1.49667e-08
1.30834e-08
2.26169e-08
-9.87722e-09
3.09668e-08
2.50202e-08
-1.42636e-08
5.09828e-08
2.77561e-08
-1.58115e-08
7.39355e-08
3.1999e-08
-1.77497e-08
1.01836e-07
3.80955e-08
-2.10767e-08
1.37152e-07
4.63294e-08
-2.59488e-08
1.82834e-07
5.68994e-08
-3.23614e-08
2.42201e-07
6.97882e-08
-4.03406e-08
3.16351e-07
8.36704e-08
-4.77047e-08
4.00159e-07
9.71658e-08
-5.30953e-08
4.46998e-07
9.87023e-08
-4.07638e-08
4.88966e-07
1.34109e-07
-1.06081e-08
4.52493e-07
1.76936e-07
9.52485e-08
3.83128e-07
2.15573e-07
1.46514e-07
2.94412e-07
2.48967e-07
1.79952e-07
1.99264e-07
2.73957e-07
1.95873e-07
1.01742e-07
2.90894e-07
2.04259e-07
3.77255e-09
2.99437e-07
2.07599e-07
-9.41856e-08
2.99708e-07
2.0763e-07
-1.91671e-07
2.91705e-07
2.04356e-07
-2.86766e-07
2.75298e-07
1.96056e-07
-3.75412e-07
2.50818e-07
1.80242e-07
-4.44773e-07
2.17902e-07
1.4702e-07
-4.81308e-07
1.79647e-07
9.59668e-08
-4.40017e-07
1.37107e-07
-9.19644e-09
-3.93888e-07
1.01506e-07
-4.01375e-08
-3.09746e-07
1.00528e-07
-5.31481e-08
-2.34237e-07
8.75582e-08
-4.85666e-08
-1.727e-07
7.42833e-08
-4.19038e-08
-1.24012e-07
6.21122e-08
-3.46701e-08
-8.46105e-08
5.24702e-08
-2.92169e-08
-5.10125e-08
4.54823e-08
-2.57728e-08
-2.15037e-08
4.09009e-08
-2.304e-08
3.69407e-08
-1.58731e-08
1.42142e-08
1.87025e-08
-1.02999e-08
3.35781e-08
2.06275e-08
-1.49712e-08
5.52441e-08
2.27373e-08
-1.66472e-08
8.00345e-08
2.59607e-08
-1.87521e-08
1.09988e-07
3.05097e-08
-2.23677e-08
1.47482e-07
3.65144e-08
-2.76791e-08
1.9509e-07
4.40042e-08
-3.47131e-08
2.55499e-07
5.29456e-08
-4.3566e-08
3.28711e-07
6.25718e-08
-5.21131e-08
4.11562e-07
7.31891e-08
-5.88747e-08
4.77151e-07
8.09543e-08
-4.78413e-08
5.28265e-07
1.03186e-07
-2.019e-08
4.89776e-07
1.30314e-07
8.51102e-08
4.15077e-07
1.56044e-07
1.34228e-07
3.18939e-07
1.78845e-07
1.6626e-07
2.15841e-07
1.96382e-07
1.80674e-07
1.10173e-07
2.08441e-07
1.88121e-07
4.04054e-09
2.14605e-07
1.90964e-07
-1.02083e-07
2.14849e-07
1.90984e-07
-2.07727e-07
2.09165e-07
1.88183e-07
-3.10794e-07
1.97567e-07
1.80799e-07
-4.06905e-07
1.80459e-07
1.6647e-07
-4.81679e-07
1.58041e-07
1.34635e-07
-5.20362e-07
1.32615e-07
8.57158e-08
-4.70106e-07
1.05731e-07
-1.88804e-08
-4.0488e-07
8.35647e-08
-4.72846e-08
-3.21561e-07
7.61702e-08
-5.89608e-08
-2.46918e-07
6.59382e-08
-5.30238e-08
-1.84214e-07
5.67868e-08
-4.52068e-08
-1.33384e-07
4.84251e-08
-3.71434e-08
-9.14683e-08
4.16881e-08
-3.11333e-08
-5.5319e-08
3.66845e-08
-2.73516e-08
-2.33817e-08
3.33306e-08
-2.43671e-08
3.02465e-08
-1.66875e-08
1.50868e-08
1.42659e-08
-1.06502e-08
3.5584e-08
1.56767e-08
-1.55464e-08
5.84849e-08
1.71556e-08
-1.73192e-08
8.46033e-08
1.93892e-08
-1.95468e-08
1.15978e-07
2.25074e-08
-2.33727e-08
1.54916e-07
2.65738e-08
-2.89973e-08
2.03799e-07
3.15889e-08
-3.64674e-08
2.65091e-07
3.75648e-08
-4.5911e-08
3.38743e-07
4.41621e-08
-5.52427e-08
4.22971e-07
5.1891e-08
-6.29299e-08
4.97307e-07
5.94789e-08
-5.28604e-08
5.53492e-07
7.35536e-08
-2.65528e-08
5.14729e-07
9.05236e-08
7.85529e-08
4.37124e-07
1.06997e-07
1.26652e-07
3.36238e-07
1.21787e-07
1.57944e-07
2.27711e-07
1.3338e-07
1.71528e-07
1.16282e-07
1.41444e-07
1.78426e-07
4.28141e-09
1.45628e-07
1.80978e-07
-1.07717e-07
1.45856e-07
1.80991e-07
-2.19141e-07
1.4212e-07
1.78469e-07
-3.27669e-07
1.34477e-07
1.71619e-07
-4.28578e-07
1.23261e-07
1.58107e-07
-5.06326e-07
1.0879e-07
1.27e-07
-5.4536e-07
9.25604e-08
7.90881e-08
-4.90095e-07
7.5778e-08
-2.5312e-08
-4.15973e-07
6.18122e-08
-5.2369e-08
-3.31197e-07
5.44596e-08
-6.30657e-08
-2.5603e-07
4.69869e-08
-5.62157e-08
-1.92327e-07
4.07165e-08
-4.7633e-08
-1.40043e-07
3.51513e-08
-3.90098e-08
-9.64196e-08
3.06756e-08
-3.2611e-08
-5.84687e-08
2.7326e-08
-2.85924e-08
-2.47644e-08
2.50527e-08
-2.54264e-08
2.28363e-08
-1.73542e-08
1.56919e-08
9.49539e-09
-1.09214e-08
3.69737e-08
1.03748e-08
-1.59799e-08
6.07141e-08
1.12364e-08
-1.78212e-08
8.77124e-08
1.25257e-08
-2.01348e-08
1.20008e-07
1.4319e-08
-2.41067e-08
1.59874e-07
1.66529e-08
-2.99455e-08
2.09633e-07
1.95398e-08
-3.77095e-08
2.71718e-07
2.30179e-08
-4.7539e-08
3.46251e-07
2.69943e-08
-5.73648e-08
4.3195e-07
3.17983e-08
-6.56059e-08
5.10498e-07
3.70649e-08
-5.61344e-08
5.69472e-07
4.5065e-08
-3.04849e-08
5.30668e-07
5.45127e-08
7.48149e-08
4.51378e-07
6.372e-08
1.22567e-07
3.47591e-07
7.20174e-08
1.53557e-07
2.35603e-07
7.86107e-08
1.66757e-07
1.20401e-07
8.32503e-08
1.73396e-07
4.50627e-09
8.57167e-08
1.75805e-07
-1.11395e-07
8.59428e-08
1.75814e-07
-2.26618e-07
8.39169e-08
1.73427e-07
-3.38652e-07
7.96822e-08
1.66828e-07
-4.42519e-07
7.34371e-08
1.5369e-07
-5.22017e-07
6.54122e-08
1.22876e-07
-5.61153e-07
5.63946e-08
7.53016e-08
-5.03132e-07
4.70613e-08
-2.93049e-08
-4.24736e-07
3.91236e-08
-5.57074e-08
-3.38438e-07
3.39649e-08
-6.58031e-08
-2.62326e-07
2.92815e-08
-5.84069e-08
-1.97738e-07
2.54702e-08
-4.9341e-08
-1.44447e-07
2.22113e-08
-4.03513e-08
-9.97061e-08
1.96246e-08
-3.369e-08
-6.05696e-08
1.76989e-08
-2.95095e-08
-2.56846e-08
1.63855e-08
-2.62178e-08
1.50193e-08
-1.78676e-08
1.60409e-08
4.55997e-09
-1.11055e-08
3.77774e-08
4.90134e-09
-1.6263e-08
6.20015e-08
5.15592e-09
-1.81437e-08
8.95051e-08
5.52831e-09
-2.05062e-08
1.22331e-07
6.05336e-09
-2.45607e-08
1.62749e-07
6.75532e-09
-3.05197e-08
2.13068e-07
7.66771e-09
-3.84473e-08
2.75736e-07
8.83899e-09
-4.84887e-08
3.50985e-07
1.0326e-08
-5.85808e-08
4.37689e-07
1.22096e-08
-6.71154e-08
5.18164e-07
1.45195e-08
-5.79293e-08
5.78458e-07
1.72975e-08
-3.25268e-08
5.39625e-07
2.03052e-08
7.30401e-08
4.59427e-07
2.31642e-08
1.20754e-07
3.54066e-07
2.57001e-08
1.51678e-07
2.40157e-07
2.77679e-08
1.64752e-07
1.22833e-07
2.92778e-08
1.71296e-07
4.7283e-09
3.01702e-08
1.73651e-07
-1.13395e-07
3.04087e-08
1.73657e-07
-2.30775e-07
2.99785e-08
1.71318e-07
-3.44785e-07
2.88841e-08
1.64808e-07
-4.50298e-07
2.71593e-08
1.51791e-07
-5.30784e-07
2.48647e-08
1.21034e-07
-5.70019e-07
2.21422e-08
7.34868e-08
-5.10712e-07
1.91601e-08
-3.14054e-08
-4.30372e-07
1.63504e-08
-5.75672e-08
-3.43043e-07
1.4015e-08
-6.73786e-08
-2.66174e-07
1.21045e-08
-5.96922e-08
-2.00947e-07
1.06081e-08
-5.03648e-08
-1.47013e-07
9.44942e-09
-4.11724e-08
-1.01606e-07
8.58202e-09
-3.43643e-08
-6.17794e-08
7.9657e-09
-3.00933e-08
-2.62118e-08
7.54835e-09
-2.67304e-08
7.01915e-09
-1.82117e-08
1.61377e-08
-3.77224e-10
-1.12005e-08
3.80065e-08
-5.73814e-10
-1.63937e-08
6.23736e-08
-9.25075e-10
-1.82861e-08
9.0033e-08
-1.46804e-09
-2.06629e-08
1.23038e-07
-2.20976e-09
-2.47417e-08
1.63668e-07
-3.13885e-09
-3.07357e-08
2.14246e-07
-4.20099e-09
-3.87101e-08
2.77233e-07
-5.3357e-09
-4.88118e-08
3.52867e-07
-6.33113e-09
-5.89765e-08
4.39997e-07
-7.33007e-09
-6.75904e-08
5.20878e-07
-7.90238e-09
-5.84592e-08
5.81383e-07
-1.0139e-08
-3.30685e-08
5.42444e-07
-1.34342e-08
7.26782e-08
4.61928e-07
-1.68003e-08
1.2048e-07
3.56109e-07
-1.99341e-08
1.51453e-07
2.41649e-07
-2.23172e-08
1.64545e-07
1.23714e-07
-2.38815e-08
1.71095e-07
4.96155e-09
-2.45259e-08
1.73449e-07
-1.13825e-07
-2.4257e-08
1.73452e-07
-2.31861e-07
-2.30925e-08
1.71108e-07
-3.46495e-07
-2.10679e-08
1.64585e-07
-4.52562e-07
-1.83171e-08
1.51543e-07
-5.33468e-07
-1.49549e-08
1.20726e-07
-5.72905e-07
-1.15013e-08
7.30805e-08
-5.13442e-07
-8.28879e-09
-3.20145e-08
-4.32705e-07
-6.21638e-09
-5.81703e-08
-3.44947e-07
-5.81546e-09
-6.79277e-08
-2.67678e-07
-5.00427e-09
-6.01596e-08
-2.02109e-07
-4.20331e-09
-5.07572e-08
-1.47883e-07
-3.27329e-09
-4.15033e-08
-1.02221e-07
-2.4302e-09
-3.46506e-08
-6.21581e-08
-1.74466e-09
-3.03522e-08
-2.63709e-08
-1.2714e-09
-2.69674e-08
-9.66145e-10
-1.83857e-08
1.59833e-08
-5.15427e-09
-1.12062e-08
3.76628e-08
-5.88068e-09
-1.63726e-08
6.18324e-08
-6.84518e-09
-1.82496e-08
8.9298e-08
-8.32689e-09
-2.06067e-08
1.22128e-07
-1.03877e-08
-2.46521e-08
1.62632e-07
-1.30456e-08
-3.05969e-08
2.13171e-07
-1.62368e-08
-3.85033e-08
2.76224e-07
-1.98722e-08
-4.85168e-08
3.51939e-07
-2.34807e-08
-5.85651e-08
4.38968e-07
-2.73068e-08
-6.70524e-08
5.18805e-07
-2.99796e-08
-5.77598e-08
5.78392e-07
-3.75615e-08
-3.21646e-08
5.39242e-07
-4.79448e-08
7.36599e-08
4.58976e-07
-5.81951e-08
1.21661e-07
3.53795e-07
-6.75414e-08
1.52788e-07
2.40136e-07
-7.46924e-08
1.66035e-07
1.23081e-07
-7.95098e-08
1.72683e-07
5.22382e-09
-8.17549e-08
1.75086e-07
-1.12686e-07
-8.14317e-08
1.75085e-07
-2.299e-07
-7.85603e-08
1.72682e-07
-3.43827e-07
-7.31913e-08
1.66051e-07
-4.49386e-07
-6.56028e-08
1.52844e-07
-5.30186e-07
-5.60133e-08
1.21859e-07
-5.69976e-07
-4.57117e-08
7.40006e-08
-5.11514e-07
-3.55515e-08
-3.11994e-08
-4.31847e-07
-2.83211e-08
-5.75625e-08
-3.44203e-07
-2.59805e-08
-6.74793e-08
-2.66863e-07
-2.25163e-08
-5.98282e-08
-2.01238e-07
-1.9297e-08
-5.05309e-08
-1.47068e-07
-1.60902e-08
-4.13527e-08
-1.01558e-07
-1.33854e-08
-3.45549e-08
-6.17116e-08
-1.13008e-08
-3.02906e-08
-2.6165e-08
-9.88599e-09
-2.6932e-08
-8.73996e-09
-1.83912e-08
1.55743e-08
-9.60147e-09
-1.11271e-08
3.67367e-08
-1.0839e-08
-1.6204e-08
6.03548e-08
-1.24262e-08
-1.80371e-08
8.7252e-08
-1.48853e-08
-2.03388e-08
1.19516e-07
-1.83625e-08
-2.42896e-08
1.59513e-07
-2.29475e-08
-3.00944e-08
2.09697e-07
-2.86136e-08
-3.78075e-08
2.72627e-07
-3.52345e-08
-4.75677e-08
3.48338e-07
-4.19044e-08
-5.72873e-08
4.34986e-07
-4.85412e-08
-6.54138e-08
5.11754e-07
-5.10591e-08
-5.56884e-08
5.68867e-07
-6.51355e-08
-2.95385e-08
5.29426e-07
-8.48749e-08
7.63704e-08
4.50106e-07
-1.03708e-07
1.24833e-07
3.4683e-07
-1.20575e-07
1.5631e-07
2.35455e-07
-1.33255e-07
1.69937e-07
1.20875e-07
-1.41758e-07
1.76828e-07
5.53857e-09
-1.45773e-07
1.79355e-07
-1.09874e-07
-1.45364e-07
1.79345e-07
-2.24685e-07
-1.4055e-07
1.768e-07
-3.36449e-07
-1.31337e-07
1.6991e-07
-4.40279e-07
-1.18078e-07
1.56305e-07
-5.20337e-07
-1.00905e-07
1.2495e-07
-5.6064e-07
-8.20259e-08
7.66166e-08
-5.04779e-07
-6.27125e-08
-2.86993e-08
-4.28205e-07
-4.9282e-08
-5.56134e-08
-3.40962e-07
-4.72659e-08
-6.59579e-08
-2.63655e-07
-4.11751e-08
-5.86478e-08
-1.98195e-07
-3.50995e-08
-4.96575e-08
-1.44443e-07
-2.91358e-08
-4.07068e-08
-9.95333e-08
-2.42223e-08
-3.40724e-08
-6.03915e-08
-2.05335e-08
-2.99092e-08
-2.55742e-08
-1.80746e-08
-2.66287e-08
-1.60794e-08
-1.82347e-08
1.49011e-08
-1.3531e-08
-1.09716e-08
3.52017e-08
-1.52415e-08
-1.58981e-08
5.7876e-08
-1.74399e-08
-1.76607e-08
8.37578e-08
-2.08946e-08
-1.98724e-08
1.14951e-07
-2.58876e-08
-2.3668e-08
1.53914e-07
-3.2671e-08
-2.92394e-08
2.03332e-07
-4.14063e-08
-3.66252e-08
2.6607e-07
-5.20309e-08
-4.59415e-08
3.42351e-07
-6.31166e-08
-5.50691e-08
4.29106e-07
-7.27908e-08
-6.25052e-08
4.98963e-07
-6.88686e-08
-5.20481e-08
5.51003e-07
-9.23908e-08
-2.47844e-08
5.11245e-07
-1.26579e-07
8.14616e-08
4.33937e-07
-1.57365e-07
1.30965e-07
3.34314e-07
-1.84103e-07
1.63151e-07
2.27096e-07
-2.03584e-07
1.77547e-07
1.16882e-07
-2.16467e-07
1.84924e-07
5.93788e-09
-2.22527e-07
1.87697e-07
-1.05107e-07
-2.21989e-07
1.8767e-07
-2.15638e-07
-2.14867e-07
1.84849e-07
-3.23396e-07
-2.01017e-07
1.77439e-07
-4.23814e-07
-1.80699e-07
1.63038e-07
-5.02155e-07
-1.53508e-07
1.30944e-07
-5.43139e-07
-1.226e-07
8.15584e-08
-4.92554e-07
-8.91641e-08
-2.41333e-08
-4.22857e-07
-6.68315e-08
-5.21475e-08
-3.35519e-07
-7.13852e-08
-6.32184e-08
-2.57691e-07
-6.24398e-08
-5.65634e-08
-1.92491e-07
-5.21716e-08
-4.81278e-08
-1.39608e-07
-4.24409e-08
-3.95779e-08
-9.58881e-08
-3.4721e-08
-3.32212e-08
-5.80552e-08
-2.914e-08
-2.92264e-08
-2.45359e-08
-2.55192e-08
-2.60746e-08
-2.26789e-08
-1.79365e-08
1.39769e-08
-1.6761e-08
-1.07468e-08
3.30774e-08
-1.88772e-08
-1.54649e-08
5.44026e-08
-2.16377e-08
-1.71274e-08
7.87671e-08
-2.60509e-08
-1.92081e-08
1.08256e-07
-3.26025e-08
-2.27744e-08
1.45429e-07
-4.18511e-08
-2.79926e-08
1.93362e-07
-5.44633e-08
-3.48761e-08
2.55656e-07
-7.08373e-08
-4.34877e-08
3.33905e-07
-8.96968e-08
-5.16682e-08
4.23905e-07
-1.04713e-07
-5.80781e-08
4.78584e-07
-7.7057e-08
-4.64911e-08
5.20465e-07
-1.17267e-07
-1.70044e-08
4.817e-07
-1.77314e-07
8.94994e-08
4.08644e-07
-2.25296e-07
1.40988e-07
3.15222e-07
-2.65093e-07
1.74413e-07
2.14532e-07
-2.93057e-07
1.90163e-07
1.10899e-07
-3.11184e-07
1.9835e-07
6.46346e-09
-3.19627e-07
2.01535e-07
-9.80976e-08
-3.1891e-07
2.01481e-07
-2.02136e-07
-3.09025e-07
1.98195e-07
-3.03538e-07
-2.89537e-07
1.89922e-07
-3.98079e-07
-2.60285e-07
1.74127e-07
-4.72598e-07
-2.1974e-07
1.40751e-07
-5.13227e-07
-1.71364e-07
8.93923e-08
-4.73157e-07
-1.12633e-07
-1.66013e-08
-4.18394e-07
-7.4778e-08
-4.68165e-08
-3.27801e-07
-1.02935e-07
-5.90424e-08
-2.48086e-07
-8.88053e-08
-5.33495e-08
-1.83421e-07
-7.10345e-08
-4.58027e-08
-1.32154e-07
-5.58146e-08
-3.78928e-08
-9.04305e-08
-4.44775e-08
-3.19674e-08
-5.46295e-08
-3.67084e-08
-2.82327e-08
-2.30345e-08
-3.18404e-08
-2.52739e-08
-2.82106e-08
-1.75027e-08
1.27966e-08
-1.90841e-08
-1.04735e-08
3.03427e-08
-2.14892e-08
-1.4934e-08
4.98357e-08
-2.46513e-08
-1.64795e-08
7.19773e-08
-2.97841e-08
-1.84084e-08
9.86972e-08
-3.76153e-08
-2.17072e-08
1.3254e-07
-4.91814e-08
-2.65127e-08
1.7712e-07
-6.6223e-08
-3.28199e-08
2.3779e-07
-9.09435e-08
-4.05644e-08
3.20466e-07
-1.24913e-07
-4.74591e-08
4.22528e-07
-1.55132e-07
-5.16419e-08
4.43034e-07
-6.1448e-08