/*--------------------------------*- C++ -*----------------------------------*\
| =========                 |                                                 |
| \\      /  F ield         | OpenFOAM: The Open Source CFD Toolbox           |
|  \\    /   O peration     | Version:  2112                                  |
|   \\  /    A nd           | Website:  www.openfoam.com                      |
|    \\/     M anipulation  |                                                 |
\*---------------------------------------------------------------------------*/
FoamFile
{
    version     2.0;
    format      ascii;
    arch        "LSB;label=32;scalar=64";
    class       volVectorField;
    location    "0.4";
    object      U;
}
// * * * * * * * * * * * * * * * * * * * * * * * * * * * * * * * * * * * * * //

dimensions      [0 1 -1 0 0 0 0];

internalField   nonuniform List<vector> 
64906
(
(8.72209e-07 2.41513e-06 -3.29627e-06)
(3.13596e-06 2.42068e-06 -3.47618e-06)
(5.53644e-06 2.48895e-06 -3.53815e-06)
(7.88424e-06 2.68845e-06 -3.68689e-06)
(1.01435e-05 2.99477e-06 -3.92579e-06)
(1.22925e-05 3.3974e-06 -4.24586e-06)
(1.43145e-05 3.898e-06 -4.64348e-06)
(1.61606e-05 4.51125e-06 -5.11395e-06)
(1.77736e-05 5.2402e-06 -5.65591e-06)
(1.9008e-05 6.12262e-06 -6.25063e-06)
(1.97386e-05 7.11211e-06 -6.89239e-06)
(1.97124e-05 8.26538e-06 -7.53759e-06)
(1.87782e-05 9.38228e-06 -8.17074e-06)
(1.69892e-05 1.04454e-05 -8.74527e-06)
(1.43937e-05 1.13549e-05 -9.24358e-06)
(1.11444e-05 1.20842e-05 -9.63801e-06)
(7.39743e-06 1.25902e-05 -9.91619e-06)
(3.35167e-06 1.28556e-05 -1.00665e-05)
(-7.8937e-07 1.28682e-05 -1.00847e-05)
(-4.81084e-06 1.26282e-05 -9.97089e-06)
(-8.5075e-06 1.2148e-05 -9.72968e-06)
(-1.16809e-05 1.14452e-05 -9.37314e-06)
(-1.4175e-05 1.05638e-05 -8.91395e-06)
(-1.58373e-05 9.53108e-06 -8.38041e-06)
(-1.66223e-05 8.44913e-06 -7.79041e-06)
(-1.64785e-05 7.33504e-06 -7.1918e-06)
(-1.55634e-05 6.39352e-06 -6.60042e-06)
(-1.41341e-05 5.56487e-06 -6.06209e-06)
(-1.23153e-05 4.89966e-06 -5.58407e-06)
(-1.02541e-05 4.36308e-06 -5.18942e-06)
(-8.0047e-06 3.9616e-06 -4.88783e-06)
(-5.62461e-06 3.70184e-06 -4.70019e-06)
(-3.18772e-06 3.61495e-06 -4.62567e-06)
(-7.92358e-07 3.58892e-06 -4.40489e-06)
(7.82262e-07 7.22801e-06 -3.56342e-06)
(3.13526e-06 7.5672e-06 -4.70909e-06)
(6.02392e-06 7.92157e-06 -4.91299e-06)
(8.71315e-06 8.57231e-06 -5.13164e-06)
(1.12547e-05 9.51271e-06 -5.48476e-06)
(1.36705e-05 1.07371e-05 -5.9614e-06)
(1.5967e-05 1.22575e-05 -6.55645e-06)
(1.80941e-05 1.41168e-05 -7.26732e-06)
(2.00147e-05 1.63349e-05 -8.09462e-06)
(2.15313e-05 1.90193e-05 -9.01956e-06)
(2.25333e-05 2.20531e-05 -1.0031e-05)
(2.26166e-05 2.56043e-05 -1.10698e-05)
(2.15573e-05 2.90335e-05 -1.20893e-05)
(1.95039e-05 3.2271e-05 -1.30193e-05)
(1.64954e-05 3.50324e-05 -1.38221e-05)
(1.27431e-05 3.72373e-05 -1.44573e-05)
(8.41632e-06 3.87662e-05 -1.4903e-05)
(3.75101e-06 3.95682e-05 -1.51421e-05)
(-1.02468e-06 3.96092e-05 -1.51674e-05)
(-5.66363e-06 3.88897e-05 -1.4979e-05)
(-9.93604e-06 3.74443e-05 -1.45848e-05)
(-1.36057e-05 3.53251e-05 -1.40023e-05)
(-1.65033e-05 3.26542e-05 -1.32538e-05)
(-1.84163e-05 2.95138e-05 -1.23809e-05)
(-1.931e-05 2.61952e-05 -1.14218e-05)
(-1.90357e-05 2.27676e-05 -1.04482e-05)
(-1.78262e-05 1.98838e-05 -9.50773e-06)
(-1.60908e-05 1.73662e-05 -8.66236e-06)
(-1.3934e-05 1.53432e-05 -7.92543e-06)
(-1.15511e-05 1.3714e-05 -7.32224e-06)
(-8.95787e-06 1.24788e-05 -6.86607e-06)
(-6.1613e-06 1.1628e-05 -6.57866e-06)
(-3.11473e-06 1.11598e-05 -6.31165e-06)
(-6.49014e-07 1.06515e-05 -4.80103e-06)
(8.5792e-07 1.28659e-05 -3.62359e-06)
(3.45628e-06 1.39202e-05 -4.89607e-06)
(6.80607e-06 1.47879e-05 -5.11637e-06)
(9.91615e-06 1.60848e-05 -5.35202e-06)
(1.28692e-05 1.78838e-05 -5.7464e-06)
(1.57072e-05 2.02056e-05 -6.28721e-06)
(1.84669e-05 2.30848e-05 -6.97209e-06)
(2.11026e-05 2.6612e-05 -7.8021e-06)
(2.36246e-05 3.08386e-05 -8.78748e-06)
(2.57373e-05 3.60188e-05 -9.90527e-06)
(2.73773e-05 4.19302e-05 -1.11589e-05)
(2.77492e-05 4.90676e-05 -1.24502e-05)
(2.64531e-05 5.58704e-05 -1.373e-05)
(2.39055e-05 6.22637e-05 -1.48895e-05)
(2.01387e-05 6.76761e-05 -1.5889e-05)
(1.5483e-05 7.19862e-05 -1.66736e-05)
(1.01288e-05 7.49671e-05 -1.72217e-05)
(4.3739e-06 7.65284e-05 -1.75127e-05)
(-1.51596e-06 7.66066e-05 -1.75389e-05)
(-7.24338e-06 7.52019e-05 -1.73006e-05)
(-1.25406e-05 7.23794e-05 -1.68058e-05)
(-1.71082e-05 6.82307e-05 -1.6076e-05)
(-2.07555e-05 6.29875e-05 -1.51328e-05)
(-2.31476e-05 5.67746e-05 -1.40324e-05)
(-2.42584e-05 5.01773e-05 -1.2815e-05)
(-2.3666e-05 4.32678e-05 -1.15917e-05)
(-2.17867e-05 3.76388e-05 -1.04117e-05)
(-1.94226e-05 3.2767e-05 -9.37771e-06)
(-1.66197e-05 2.88983e-05 -8.48791e-06)
(-1.36682e-05 2.57868e-05 -7.77378e-06)
(-1.05222e-05 2.34068e-05 -7.24234e-06)
(-7.1737e-06 2.16926e-05 -6.91773e-06)
(-3.52347e-06 2.05359e-05 -6.62112e-06)
(-7.41718e-07 1.90365e-05 -4.93078e-06)
(1.08015e-06 1.82949e-05 -3.74983e-06)
(4.14769e-06 1.99153e-05 -5.06087e-06)
(8.11708e-06 2.12769e-05 -5.28843e-06)
(1.18421e-05 2.32521e-05 -5.5507e-06)
(1.54276e-05 2.59614e-05 -6.00139e-06)
(1.89338e-05 2.94502e-05 -6.62916e-06)
(2.2444e-05 3.37795e-05 -7.43847e-06)
(2.59252e-05 3.91071e-05 -8.43788e-06)
(2.95038e-05 4.55394e-05 -9.65644e-06)
(3.27077e-05 5.36185e-05 -1.10642e-05)
(3.56665e-05 6.29849e-05 -1.27004e-05)
(3.6639e-05 7.50428e-05 -1.43914e-05)
(3.48319e-05 8.62071e-05 -1.60871e-05)
(3.13812e-05 9.66114e-05 -1.76063e-05)
(2.62794e-05 0.000105299 -1.89136e-05)
(2.00824e-05 0.000112191 -1.99265e-05)
(1.29911e-05 0.000116935 -2.06311e-05)
(5.40584e-06 0.000119414 -2.10007e-05)
(-2.35375e-06 0.000119529 -2.10278e-05)
(-9.9106e-06 0.000117282 -2.07127e-05)
(-1.69424e-05 0.00011277 -2.00633e-05)
(-2.30452e-05 0.000106112 -1.91067e-05)
(-2.80164e-05 9.76682e-05 -1.78573e-05)
(-3.12897e-05 8.752e-05 -1.6399e-05)
(-3.28826e-05 7.66492e-05 -1.47665e-05)
(-3.1641e-05 6.49126e-05 -1.31458e-05)
(-2.83931e-05 5.59669e-05 -1.15846e-05)
(-2.48936e-05 4.8331e-05 -1.02648e-05)
(-2.09702e-05 4.24102e-05 -9.14654e-06)
(-1.70899e-05 3.76711e-05 -8.27132e-06)
(-1.30773e-05 3.40442e-05 -7.63063e-06)
(-8.91068e-06 3.13981e-05 -7.24874e-06)
(-4.43781e-06 2.95601e-05 -6.93098e-06)
(-1.03e-06 2.72525e-05 -5.17102e-06)
(1.42757e-06 2.35235e-05 -3.94288e-06)
(5.16879e-06 2.56613e-05 -5.35205e-06)
(1.00051e-05 2.7534e-05 -5.61319e-06)
(1.45911e-05 3.02528e-05 -5.92648e-06)
(1.90712e-05 3.39782e-05 -6.46833e-06)
(2.35315e-05 3.87756e-05 -7.23223e-06)
(2.8131e-05 4.47303e-05 -8.23503e-06)
(3.28703e-05 5.20778e-05 -9.49918e-06)
(3.81442e-05 6.10051e-05 -1.10882e-05)
(4.31908e-05 7.25742e-05 -1.29619e-05)
(4.88091e-05 8.63088e-05 -1.52419e-05)
(5.09779e-05 0.000106035 -1.76098e-05)
(4.80284e-05 0.000123364 -2.00118e-05)
(4.30032e-05 0.000139272 -2.21339e-05)
(3.57233e-05 0.000152312 -2.39598e-05)
(2.71236e-05 0.000162622 -2.53483e-05)
(1.73543e-05 0.000169682 -2.63116e-05)
(6.9691e-06 0.000173359 -2.68111e-05)
(-3.64765e-06 0.000173514 -2.68403e-05)
(-1.40043e-05 0.000170148 -2.63993e-05)
(-2.37133e-05 0.000163397 -2.5495e-05)
(-3.22138e-05 0.000153396 -2.41667e-05)
(-3.93523e-05 0.000140669 -2.24018e-05)
(-4.41718e-05 0.000125084 -2.0344e-05)
(-4.68707e-05 0.000108128 -1.80074e-05)
(-4.43542e-05 8.87973e-05 -1.57139e-05)
(-3.83744e-05 7.56488e-05 -1.35112e-05)
(-3.29854e-05 6.46534e-05 -1.1733e-05)
(-2.72851e-05 5.63837e-05 -1.02523e-05)
(-2.20369e-05 4.97866e-05 -9.12533e-06)
(-1.67783e-05 4.47342e-05 -8.31203e-06)
(-1.14528e-05 4.10304e-05 -7.83028e-06)
(-5.80921e-06 3.84565e-05 -7.44887e-06)
(-1.4899e-06 3.53796e-05 -5.52524e-06)
(1.89377e-06 2.84462e-05 -4.19558e-06)
(6.5368e-06 3.10921e-05 -5.74509e-06)
(1.25308e-05 3.35219e-05 -6.05897e-06)
(1.82693e-05 3.70786e-05 -6.44371e-06)
(2.39492e-05 4.19657e-05 -7.1084e-06)
(2.96868e-05 4.82651e-05 -8.05531e-06)
(3.57475e-05 5.60788e-05 -9.32005e-06)
(4.22014e-05 6.56977e-05 -1.09487e-05)
(5.00016e-05 7.74021e-05 -1.30634e-05)
(5.80107e-05 9.31126e-05 -1.56088e-05)
(6.9122e-05 0.000112207 -1.88641e-05)
(7.36873e-05 0.000145224 -2.22668e-05)
(6.80676e-05 0.000171673 -2.57687e-05)
(6.03296e-05 0.000195267 -2.88127e-05)
(4.96297e-05 0.000214187 -3.14413e-05)
(3.74525e-05 0.00022911 -3.33787e-05)
(2.37284e-05 0.000239287 -3.47243e-05)
(9.23835e-06 0.000244572 -3.5415e-05)
(-5.56405e-06 0.000244774 -3.54474e-05)
(-2.00275e-05 0.00023989 -3.48219e-05)
(-3.36949e-05 0.000230108 -3.35414e-05)
(-4.57734e-05 0.00021557 -3.16701e-05)
(-5.6328e-05 0.000197031 -2.91072e-05)
(-6.383e-05 0.000173811 -2.61323e-05)
(-6.91626e-05 0.000147798 -2.26977e-05)
(-6.41149e-05 0.000115205 -1.93744e-05)
(-5.25362e-05 9.6939e-05 -1.61974e-05)
(-4.41598e-05 8.19235e-05 -1.37586e-05)
(-3.58378e-05 7.1007e-05 -1.17622e-05)
(-2.87373e-05 6.22796e-05 -1.02881e-05)
(-2.18073e-05 5.55557e-05 -9.23944e-06)
(-1.49229e-05 5.06056e-05 -8.61903e-06)
(-7.68924e-06 4.7181e-05 -8.14087e-06)
(-2.12405e-06 4.33101e-05 -5.98452e-06)
(2.49425e-06 3.2943e-05 -4.49589e-06)
(8.29309e-06 3.61023e-05 -6.22011e-06)
(1.57789e-05 3.91563e-05 -6.60169e-06)
(2.30139e-05 4.36782e-05 -7.07594e-06)
(3.02553e-05 4.99286e-05 -7.89338e-06)
(3.76444e-05 5.80045e-05 -9.06873e-06)
(4.55638e-05 6.79973e-05 -1.06621e-05)
(5.41936e-05 8.00892e-05 -1.27567e-05)
(6.55559e-05 9.45476e-05 -1.55696e-05)
(7.79667e-05 0.000113959 -1.90022e-05)
(0.000100814 0.000138414 -2.36143e-05)
(0.000110343 0.000196112 -2.84695e-05)
(9.804e-05 0.000235825 -3.35338e-05)
(8.55082e-05 0.00026987 -3.78938e-05)
(6.9563e-05 0.000296743 -4.17095e-05)
(5.22216e-05 0.000317984 -4.43702e-05)
(3.28152e-05 0.000332453 -4.6238e-05)
(1.24557e-05 0.000339949 -4.71893e-05)
(-8.33022e-06 0.000340207 -4.72267e-05)
(-2.86689e-05 0.000333221 -4.63505e-05)
(-4.8031e-05 0.000319252 -4.45569e-05)
(-6.5287e-05 0.000298484 -4.19711e-05)
(-8.11015e-05 0.000272058 -3.82272e-05)
(-9.33728e-05 0.000238414 -3.39421e-05)
(-0.000105377 0.000199156 -2.89449e-05)
(-9.51089e-05 0.000141798 -2.41723e-05)
(-7.16283e-05 0.000118608 -1.96364e-05)
(-5.89147e-05 9.99784e-05 -1.63242e-05)
(-4.69286e-05 8.64033e-05 -1.3641e-05)
(-3.74846e-05 7.53078e-05 -1.17223e-05)
(-2.84198e-05 6.6567e-05 -1.03778e-05)
(-1.9506e-05 6.00884e-05 -9.58313e-06)
(-1.01805e-05 5.56285e-05 -8.98079e-06)
(-2.97087e-06 5.08972e-05 -6.53278e-06)
(3.24794e-06 3.68313e-05 -4.83451e-06)
(1.04934e-05 4.04882e-05 -6.76538e-06)
(1.98628e-05 4.42191e-05 -7.22734e-06)
(2.90175e-05 4.98215e-05 -7.80618e-06)
(3.82726e-05 5.76446e-05 -8.80222e-06)
(4.7755e-05 6.78206e-05 -1.02463e-05)
(5.78325e-05 8.04209e-05 -1.22279e-05)
(6.87515e-05 9.52658e-05 -1.48988e-05)
(8.38412e-05 0.000112145 -1.86274e-05)
(0.000101564 0.000134268 -2.33639e-05)
(0.000149961 0.000159926 -2.91727e-05)
(0.00016997 0.000268069 -3.5816e-05)
(0.000141502 0.000326389 -4.31606e-05)
(0.000121181 0.000373262 -4.93518e-05)
(9.77285e-05 0.000410237 -5.48653e-05)
(7.31541e-05 0.000439656 -5.83244e-05)
(4.56884e-05 0.000459813 -6.08169e-05)
(1.69909e-05 0.000470251 -6.2084e-05)
(-1.22909e-05 0.000470581 -6.21284e-05)
(-4.09781e-05 0.000460797 -6.09501e-05)
(-6.84244e-05 0.000441274 -5.85444e-05)
(-9.29514e-05 0.000412442 -5.51725e-05)
(-0.000116331 0.000375987 -4.97378e-05)
(-0.000136409 0.000329501 -4.36285e-05)
(-0.000164656 0.000271593 -3.63523e-05)
(-0.000143368 0.000163442 -2.97863e-05)
(-9.40629e-05 0.000139958 -2.40483e-05)
(-7.63411e-05 0.000118601 -1.94491e-05)
(-6.05086e-05 0.000102616 -1.58615e-05)
(-4.85695e-05 8.8795e-05 -1.3392e-05)
(-3.69891e-05 7.7552e-05 -1.16983e-05)
(-2.54877e-05 6.91892e-05 -1.07002e-05)
(-1.34468e-05 6.34834e-05 -9.9507e-06)
(-4.09245e-06 5.78474e-05 -7.15199e-06)
(4.15962e-06 3.98991e-05 -5.20527e-06)
(1.31605e-05 4.40258e-05 -7.37275e-06)
(2.48427e-05 4.84844e-05 -7.92912e-06)
(3.6413e-05 5.53148e-05 -8.63027e-06)
(4.82511e-05 6.50504e-05 -9.83422e-06)
(6.04209e-05 7.79864e-05 -1.15899e-05)
(7.30145e-05 9.43329e-05 -1.40151e-05)
(8.5938e-05 0.00011289 -1.73711e-05)
(0.000104421 0.000132523 -2.23915e-05)
(0.000123122 0.000146544 -2.83407e-05)
(0.00022186 0.000143849 -3.62409e-05)
(0.00026589 0.000358537 -4.03508e-05)
(0.000200388 0.00044098 -4.98104e-05)
(0.000168883 0.000502271 -5.82332e-05)
(0.000135884 0.000552967 -6.57384e-05)
(0.00010177 0.000593511 -6.96459e-05)
(6.3398e-05 0.000621546 -7.26576e-05)
(2.32206e-05 0.000635988 -7.41971e-05)
(-1.77811e-05 0.000636411 -7.42483e-05)
(-5.79647e-05 0.000622807 -7.28112e-05)
(-9.63593e-05 0.00059559 -6.98982e-05)
(-0.0001305 0.000555804 -6.60908e-05)
(-0.000163569 0.00050575 -5.86695e-05)
(-0.000194925 0.000444862 -5.03372e-05)
(-0.000260565 0.000362561 -4.09384e-05)
(-0.000214192 0.000146622 -3.69637e-05)
(-0.000114054 0.000153379 -2.90653e-05)
(-9.61745e-05 0.000140059 -2.32671e-05)
(-7.67627e-05 0.00012121 -1.84066e-05)
(-6.25497e-05 0.000103625 -1.52862e-05)
(-4.79846e-05 8.86833e-05 -1.31976e-05)
(-3.31562e-05 7.77379e-05 -1.19668e-05)
(-1.76273e-05 7.04302e-05 -1.10446e-05)
(-5.52456e-06 6.37981e-05 -7.83841e-06)
(5.24685e-06 4.18635e-05 -5.59255e-06)
(1.63469e-05 4.63526e-05 -8.02406e-06)
(3.08635e-05 5.14509e-05 -8.68241e-06)
(4.55556e-05 5.94195e-05 -9.51134e-06)
(6.0941e-05 7.10445e-05 -1.09285e-05)
(7.7043e-05 8.69875e-05 -1.29921e-05)
(9.27925e-05 0.000107844 -1.58032e-05)
(0.000107297 0.00013211 -1.99036e-05)
(0.000118164 0.000153466 -2.57584e-05)
(9.81412e-05 0.000130178 -3.42744e-05)
(0.000269884 0.000139213 -4.53486e-05)
(0.00038289 0.000541159 -3.89953e-05)
(0.000265826 0.000616093 -4.81994e-05)
(0.000230554 0.000672356 -5.67466e-05)
(0.000188761 0.000733761 -6.42986e-05)
(0.00014172 0.000784605 -6.71531e-05)
(8.818e-05 0.000821283 -6.97858e-05)
(3.18638e-05 0.000840237 -7.12031e-05)
(-2.54792e-05 0.000840777 -7.12547e-05)
(-8.18139e-05 0.000822898 -6.99405e-05)
(-0.000135416 0.000787276 -6.74032e-05)
(-0.000182582 0.000737424 -6.4651e-05)
(-0.000224651 0.000676861 -5.71717e-05)
(-0.000260183 0.000620972 -4.87062e-05)
(-0.000378991 0.000544821 -3.96018e-05)
(-0.000262016 0.00014161 -4.62565e-05)
(-8.76117e-05 0.000140354 -3.498e-05)
(-0.000109561 0.000163215 -2.66897e-05)
(-9.73522e-05 0.000141608 -2.10216e-05)
(-8.11528e-05 0.000117924 -1.71878e-05)
(-6.28382e-05 9.83843e-05 -1.47685e-05)
(-4.32882e-05 8.45248e-05 -1.33222e-05)
(-2.30847e-05 7.55709e-05 -1.22242e-05)
(-7.39967e-06 6.80656e-05 -8.54872e-06)
(6.44462e-06 4.25002e-05 -5.99626e-06)
(1.98831e-05 4.72261e-05 -8.71292e-06)
(3.76114e-05 5.28572e-05 -9.49215e-06)
(5.59783e-05 6.19247e-05 -1.04805e-05)
(7.58181e-05 7.57748e-05 -1.21698e-05)
(9.72553e-05 9.6353e-05 -1.46167e-05)
(0.000118519 0.000127224 -1.78428e-05)
(0.000134839 0.000173588 -2.1816e-05)
(0.000121922 0.000239072 -2.78358e-05)
(0.000114986 0.000276469 -3.64101e-05)
(0.000186668 0.000501912 1.72335e-05)
(0.00024484 0.000653333 1.05373e-05)
(0.000277772 0.000758407 1.10383e-05)
(0.000248166 0.000853088 1.52738e-05)
(0.000189776 0.0009234 1.62939e-05)
(0.000119379 0.000971348 1.69276e-05)
(4.28377e-05 0.000995345 1.71755e-05)
(-3.5236e-05 0.000995965 1.71722e-05)
(-0.000111808 0.000973217 1.69175e-05)
(-0.000182309 0.000926548 1.62818e-05)
(-0.000240932 0.000857567 1.52552e-05)
(-0.00027117 0.000764333 1.10405e-05)
(-0.000239815 0.000660738 1.0462e-05)
(-0.000183376 0.000509777 1.6935e-05)
(-0.000111603 0.000284813 -3.65986e-05)
(-0.000116124 0.000248353 -2.86968e-05)
(-0.000125544 0.000182998 -2.29883e-05)
(-0.000106172 0.000137376 -1.93225e-05)
(-8.13756e-05 0.000107917 -1.65595e-05)
(-5.55004e-05 8.9528e-05 -1.48417e-05)
(-2.95097e-05 7.85275e-05 -1.35155e-05)
(-9.56148e-06 7.01576e-05 -9.31586e-06)
(7.76007e-06 4.15468e-05 -6.38835e-06)
(2.37929e-05 4.62236e-05 -9.39869e-06)
(4.52636e-05 5.18797e-05 -1.02895e-05)
(6.84451e-05 6.10441e-05 -1.14149e-05)
(9.53719e-05 7.51539e-05 -1.33288e-05)
(0.000128596 9.63828e-05 -1.60585e-05)
(0.000171322 0.000128906 -1.94846e-05)
(0.000231806 0.000179378 -2.33515e-05)
(0.000313319 0.000257385 -2.53768e-05)
(0.000478533 0.000343172 -2.46237e-05)
(0.00049488 0.00011949 6.29486e-06)
(0.000412263 0.000271527 8.20895e-06)
(0.00047431 0.000503737 7.20249e-05)
(0.000428906 0.00064624 0.000108896)
(0.000355895 0.000754137 0.000133975)
(0.000261438 0.00082891 0.000146071)
(0.000160992 0.000877359 0.000153059)
(5.67688e-05 0.000901096 0.000156027)
(-4.78764e-05 0.000901675 0.000156065)
(-0.000152081 0.00087911 0.000153175)
(-0.000252504 0.000831882 0.00014628)
(-0.000346893 0.000758435 0.000134284)
(-0.000419825 0.000652092 0.000109379)
(-0.00046492 0.000511455 7.26578e-05)
(-0.000401305 0.000281049 9.22541e-06)
(-0.000486573 0.000122204 7.068e-06)
(-0.000473238 0.000347743 -2.47338e-05)
(-0.000305246 0.000264531 -2.60764e-05)
(-0.000221189 0.000187765 -2.44587e-05)
(-0.000157542 0.000138512 -2.10235e-05)
(-0.000110748 0.000107581 -1.81629e-05)
(-7.22123e-05 8.86058e-05 -1.62972e-05)
(-3.7726e-05 7.73752e-05 -1.48002e-05)
(-1.22826e-05 6.89936e-05 -1.004e-05)
(8.96903e-06 3.89704e-05 -6.77515e-06)
(2.73709e-05 4.32924e-05 -1.00703e-05)
(5.21421e-05 4.84139e-05 -1.10905e-05)
(7.92259e-05 5.65501e-05 -1.23974e-05)
(0.00011116 6.86535e-05 -1.46376e-05)
(0.000151098 8.58222e-05 -1.78953e-05)
(0.000202565 0.000109537 -2.20966e-05)
(0.000273594 0.000140734 -2.72577e-05)
(0.000365633 0.000177302 -3.11875e-05)
(0.000511876 0.000204291 -3.38522e-05)
(0.000575394 0.000136475 -1.95938e-05)
(0.000593928 0.000261718 -2.91361e-06)
(0.000608769 0.000386748 7.76246e-05)
(0.000528467 0.000482506 0.000114944)
(0.000432087 0.000561107 0.000140774)
(0.000313936 0.000617522 0.000153902)
(0.000192079 0.000654813 0.000161184)
(6.73156e-05 0.000673323 0.000164178)
(-5.73761e-05 0.000673809 0.000164211)
(-0.000182106 0.000656276 0.000161284)
(-0.000303911 0.000619975 0.000154083)
(-0.000421945 0.000564569 0.000141047)
(-0.000518235 0.000486998 0.000115387)
(-0.000598301 0.000392134 7.82056e-05)
(-0.000583088 0.000267579 -1.81147e-06)
(-0.000566231 0.000139862 -1.90829e-05)
(-0.000504086 0.000209868 -3.39584e-05)
(-0.000356385 0.000184043 -3.18482e-05)
(-0.00026189 0.000148502 -2.83872e-05)
(-0.000187405 0.000118486 -2.37204e-05)
(-0.000131332 9.63215e-05 -2.01614e-05)
(-8.52545e-05 8.13048e-05 -1.78822e-05)
(-4.44716e-05 7.19024e-05 -1.61036e-05)
(-1.45395e-05 6.44454e-05 -1.07947e-05)
(1.00581e-05 3.49897e-05 -7.12477e-06)
(3.05721e-05 3.87915e-05 -1.0676e-05)
(5.82489e-05 4.31755e-05 -1.18027e-05)
(8.86591e-05 5.0033e-05 -1.32493e-05)
(0.000124642 6.00058e-05 -1.57314e-05)
(0.000169506 7.36959e-05 -1.93521e-05)
(0.00022653 9.16597e-05 -2.40483e-05)
(0.000302229 0.00011399 -2.99128e-05)
(0.00039531 0.000138415 -3.49715e-05)
(0.000520941 0.000160708 -3.92533e-05)
(0.000610891 0.00015108 -2.89165e-05)
(0.000684964 0.00021678 -9.58094e-06)
(0.000697044 0.000293288 7.16661e-05)
(0.000603963 0.00036115 0.000107713)
(0.000491356 0.000418791 0.000133449)
(0.000355444 0.000461238 0.00014552)
(0.000216944 0.000489759 0.000152159)
(7.58089e-05 0.000504053 0.000154798)
(-6.49659e-05 0.000504471 0.000154821)
(-0.000206064 0.000491012 0.000152231)
(-0.000344508 0.000463321 0.000145656)
(-0.000480306 0.000421689 0.000133661)
(-0.0005929 0.000364833 0.000108087)
(-0.000685899 0.000297612 7.21655e-05)
(-0.000674326 0.000221575 -8.55714e-06)
(-0.000601584 0.000155151 -2.8495e-05)
(-0.000512001 0.000165796 -3.9317e-05)
(-0.000385058 0.000144359 -3.56284e-05)
(-0.000289409 0.000120897 -3.108e-05)
(-0.000210014 9.96779e-05 -2.57595e-05)
(-0.000147917 8.31499e-05 -2.17688e-05)
(-9.61985e-05 7.14018e-05 -1.92238e-05)
(-5.025e-05 6.38125e-05 -1.72415e-05)
(-1.65126e-05 5.74387e-05 -1.14551e-05)
(1.09438e-05 2.98255e-05 -7.43652e-06)
(3.31671e-05 3.29639e-05 -1.12055e-05)
(6.31383e-05 3.64492e-05 -1.24263e-05)
(9.6033e-05 4.18052e-05 -1.39985e-05)
(0.00013482 4.94158e-05 -1.66985e-05)
(0.000182757 5.95461e-05 -2.06504e-05)
(0.000242913 7.23035e-05 -2.58174e-05)
(0.000320784 8.76152e-05 -3.23311e-05)
(0.000414981 0.000103984 -3.83088e-05)
(0.000534386 0.000121471 -4.3465e-05)
(0.000638296 0.00013034 -3.41805e-05)
(0.000739067 0.000169965 -1.65462e-05)
(0.000753766 0.00021852 6.4447e-05)
(0.000654287 0.000263497 9.89325e-05)
(0.000532363 0.000302965 0.000123727)
(0.000385046 0.000333008 0.000134744)
(0.000234976 0.000353546 0.000140737)
(8.2055e-05 0.000363982 0.000143026)
(-7.04428e-05 0.000364349 0.000143041)
(-0.000223336 0.000354639 0.000140784)
(-0.000373374 0.000334805 0.000134838)
(-0.00052062 0.000305427 0.000123882)
(-0.000642622 0.000266566 9.92359e-05)
(-0.000742137 0.000222073 6.48644e-05)
(-0.000728292 0.000173909 -1.55872e-05)
(-0.000628678 0.000134259 -3.38134e-05)
(-0.000524674 0.000126039 -4.35512e-05)
(-0.000403911 0.000109206 -3.90026e-05)
(-0.000307004 9.36187e-05 -3.35558e-05)
(-0.000225202 7.92472e-05 -2.76185e-05)
(-0.000159576 6.77078e-05 -2.3204e-05)
(-0.000104199 5.92033e-05 -2.0404e-05)
(-5.45593e-05 5.35484e-05 -1.82351e-05)
(-1.79877e-05 4.84696e-05 -1.20537e-05)
(1.16291e-05 2.37838e-05 -7.69325e-06)
(3.51675e-05 2.62007e-05 -1.16355e-05)
(6.68807e-05 2.87807e-05 -1.29268e-05)
(0.000101606 3.2696e-05 -1.45905e-05)
(0.000142381 3.81853e-05 -1.74473e-05)
(0.000192395 4.53758e-05 -2.1631e-05)
(0.000254607 5.42731e-05 -2.71205e-05)
(0.000333966 6.48583e-05 -3.406e-05)
(0.000429462 7.63712e-05 -4.06211e-05)
(0.000548264 8.95557e-05 -4.63855e-05)
(0.00066006 0.000101396 -3.79033e-05)
(0.000773513 0.00012681 -2.1209e-05)
(0.000790827 0.000157569 5.97734e-05)
(0.00068862 0.000187273 9.35654e-05)
(0.000561002 0.000213823 0.000117907)
(0.000406121 0.000234476 0.000128353)
(0.000247971 0.00024877 0.000133975)
(8.66284e-05 0.00025613 0.000136063)
(-7.43256e-05 0.000256466 0.000136074)
(-0.000235659 0.000249767 0.000134008)
(-0.000393814 0.000236102 0.000128424)
(-0.00054868 0.000216023 0.000118028)
(-0.000676465 0.000189972 9.38272e-05)
(-0.000778803 0.000160661 6.01411e-05)
(-0.000762494 0.000130217 -2.03e-05)
(-0.000650113 0.000104956 -3.75848e-05)
(-0.000538013 9.35471e-05 -4.65075e-05)
(-0.000417774 8.08227e-05 -4.13615e-05)
(-0.000319423 6.98893e-05 -3.53446e-05)
(-0.000235928 6.00216e-05 -2.90043e-05)
(-0.00016793 5.20603e-05 -2.43021e-05)
(-0.000110023 4.61117e-05 -2.13275e-05)
(-5.77259e-05 4.20931e-05 -1.90261e-05)
(-1.90806e-05 3.8268e-05 -1.25382e-05)
(1.21041e-05 1.71271e-05 -7.89118e-06)
(3.65567e-05 1.87823e-05 -1.19594e-05)
(6.94671e-05 2.0461e-05 -1.33009e-05)
(0.000105422 2.29826e-05 -1.50293e-05)
(0.000147498 2.64907e-05 -1.7996e-05)
(0.000198844 3.10511e-05 -2.23403e-05)
(0.000262396 3.66677e-05 -2.80503e-05)
(0.000342887 4.33802e-05 -3.52738e-05)
(0.000439708 5.09139e-05 -4.22073e-05)
(0.000559494 5.99154e-05 -4.83564e-05)
(0.00067562 6.94379e-05 -4.03549e-05)
(0.000795317 8.49727e-05 -2.41379e-05)
(0.000814362 0.000103539 5.70513e-05)
(0.000710678 0.000121632 9.05949e-05)
(0.000579655 0.000137928 0.000114745)
(0.000420057 0.000150806 0.000124923)
(0.000256667 0.000159818 0.000130367)
(8.97641e-05 0.000164542 0.000132355)
(-7.68176e-05 0.000164865 0.000132362)
(-0.000243736 0.000160773 0.000130392)
(-0.000407183 0.000152349 0.000124979)
(-0.000566838 0.000139986 0.000114845)
(-0.000698121 0.00012411 9.08288e-05)
(-0.000802027 0.000106329 5.73839e-05)
(-0.000784073 8.79838e-05 -2.32729e-05)
(-0.000665417 7.25868e-05 -4.0084e-05)
(-0.00054889 6.3311e-05 -4.85233e-05)
(-0.000427597 5.45834e-05 -4.29987e-05)
(-0.00032781 4.74065e-05 -3.66175e-05)
(-0.000243028 4.1151e-05 -3.00073e-05)
(-0.00017346 3.61423e-05 -2.51077e-05)
(-0.000113901 3.23946e-05 -2.20119e-05)
(-5.98409e-05 2.98406e-05 -1.96176e-05)
(-1.98063e-05 2.72643e-05 -1.29111e-05)
(1.23769e-05 1.01161e-05 -8.02406e-06)
(3.73604e-05 1.09968e-05 -1.217e-05)
(7.09626e-05 1.17978e-05 -1.35404e-05)
(0.000107624 1.29889e-05 -1.53052e-05)
(0.000150448 1.4649e-05 -1.83339e-05)
(0.000202571 1.68203e-05 -2.27675e-05)
(0.000266936 1.9535e-05 -2.85994e-05)
(0.000348212 2.28561e-05 -3.59784e-05)
(0.000446 2.67676e-05 -4.31108e-05)
(0.000566793 3.15639e-05 -4.94689e-05)
(0.000685127 3.70676e-05 -4.16928e-05)
(0.000807643 4.46935e-05 -2.56665e-05)
(0.000827561 5.35032e-05 5.57491e-05)
(0.000723093 6.20518e-05 8.92639e-05)
(0.000590229 6.97385e-05 0.000113378)
(0.000428049 7.58957e-05 0.000123469)
(0.000261727 8.02716e-05 0.00012885)
(9.16826e-05 8.26632e-05 0.000130799)
(-7.81012e-05 8.29932e-05 0.000130805)
(-0.000248195 8.12427e-05 0.000128868)
(-0.00041464 7.74492e-05 0.000123515)
(-0.000576971 7.17826e-05 0.000113463)
(-0.000710206 6.44615e-05 8.94758e-05)
(-0.000815007 5.61468e-05 5.60528e-05)
(-0.000796266 4.74416e-05 -2.48447e-05)
(-0.000674795 3.98474e-05 -4.14695e-05)
(-0.000556023 3.44048e-05 -4.9684e-05)
(-0.000433681 2.96788e-05 -4.39532e-05)
(-0.000332855 2.58818e-05 -3.73765e-05)
(-0.00024719 2.27303e-05 -3.06176e-05)
(-0.000176668 2.02665e-05 -2.56085e-05)
(-0.000116138 1.84524e-05 -2.24456e-05)
(-6.10577e-05 1.72158e-05 -1.99991e-05)
(-2.02201e-05 1.58526e-05 -1.31582e-05)
(1.24499e-05 2.98318e-06 -8.09065e-06)
(3.75886e-05 3.08439e-06 -1.2266e-05)
(7.13922e-05 3.0154e-06 -1.36448e-05)
(0.000108266 2.89485e-06 -1.54201e-05)
(0.000151328 2.74375e-06 -1.84665e-05)
(0.00020373 2.58913e-06 -2.29257e-05)
(0.000268432 2.49509e-06 -2.87918e-05)
(0.00035012 2.53877e-06 -3.62147e-05)
(0.000448416 2.90207e-06 -4.33996e-05)
(0.000569793 3.53013e-06 -4.98152e-05)
(0.000688752 4.68943e-06 -4.20783e-05)
(0.000811764 5.09568e-06 -2.60654e-05)
(0.000831753 4.96503e-06 5.54857e-05)
(0.000726951 4.6618e-06 8.90607e-05)
(0.000593521 4.28402e-06 0.000113212)
(0.000430608 4.08556e-06 0.000123317)
(0.000263444 4.06108e-06 0.000128702)
(9.24894e-05 4.24246e-06 0.000130651)
(-7.82417e-05 4.60209e-06 0.000130655)
(-0.00024929 5.11658e-06 0.000128714)
(-0.00041666 5.76094e-06 0.000123351)
(-0.000579849 6.46153e-06 0.00011328)
(-0.000713796 7.17167e-06 8.9248e-05)
(-0.000819081 7.63418e-06 5.57571e-05)
(-0.000800385 7.72999e-06 -2.52936e-05)
(-0.000678456 7.19267e-06 -4.19088e-05)
(-0.000559057 5.8946e-06 -5.00847e-05)
(-0.00043612 5.11533e-06 -4.42948e-05)
(-0.000334758 4.60809e-06 -3.76636e-05)
(-0.000248642 4.42848e-06 -3.08598e-05)
(-0.000177728 4.39867e-06 -2.58181e-05)
(-0.000116848 4.44028e-06 -2.26353e-05)
(-6.14346e-05 4.4763e-06 -2.01731e-05)
(-2.03397e-05 4.31839e-06 -1.32798e-05)
(1.23238e-05 -4.03533e-06 -8.09056e-06)
(3.7243e-05 -4.70716e-06 -1.22476e-05)
(7.07585e-05 -5.64994e-06 -1.36148e-05)
(0.000107351 -7.09574e-06 -1.53749e-05)
(0.000150142 -9.0895e-06 -1.83956e-05)
(0.000202322 -1.16296e-05 -2.28174e-05)
(0.000266885 -1.46255e-05 -2.86313e-05)
(0.000348619 -1.79723e-05 -3.59886e-05)
(0.000446991 -2.1216e-05 -4.30834e-05)
(0.00056858 -2.46913e-05 -4.94101e-05)
(0.000686691 -2.73359e-05 -4.15369e-05)
(0.000807919 -3.42165e-05 -2.5372e-05)
(0.000827125 -4.3706e-05 5.6212e-05)
(0.000722408 -5.3195e-05 8.99262e-05)
(0.00058965 -6.19164e-05 0.000114178)
(0.000427824 -6.8618e-05 0.000124392)
(0.000261883 -7.31169e-05 0.000129845)
(9.22234e-05 -7.51588e-05 0.000131829)
(-7.72269e-05 -7.47399e-05 0.000131829)
(-0.000247036 -7.18879e-05 0.000129846)
(-0.000413293 -6.66751e-05 0.000124408)
(-0.000575558 -5.94081e-05 0.000114222)
(-0.000709031 -5.03557e-05 9.00781e-05)
(-0.000814449 -4.0771e-05 5.64391e-05)
(-0.000796709 -3.14896e-05 -2.46657e-05)
(-0.000676629 -2.49639e-05 -4.14346e-05)
(-0.000558099 -2.26792e-05 -4.97451e-05)
(-0.000434967 -1.95963e-05 -4.40369e-05)
(-0.000333542 -1.67694e-05 -3.74877e-05)
(-0.000247399 -1.3876e-05 -3.07403e-05)
(-0.000176654 -1.13873e-05 -2.57408e-05)
(-0.000116042 -9.43541e-06 -2.25841e-05)
(-6.09779e-05 -8.09921e-06 -2.01415e-05)
(-2.01675e-05 -7.05317e-06 -1.32768e-05)
(1.19967e-05 -1.07032e-05 -8.02693e-06)
(3.63157e-05 -1.21342e-05 -1.2118e-05)
(6.90404e-05 -1.39703e-05 -1.34528e-05)
(0.000104831 -1.67983e-05 -1.51704e-05)
(0.000146795 -2.07606e-05 -1.81187e-05)
(0.000198194 -2.59224e-05 -2.24341e-05)
(0.000262089 -3.22016e-05 -2.81007e-05)
(0.000343529 -3.94347e-05 -3.52698e-05)
(0.000441693 -4.66613e-05 -4.21121e-05)
(0.000563666 -5.41501e-05 -4.81919e-05)
(0.000679216 -5.86979e-05 -3.99592e-05)
(0.000795381 -7.38578e-05 -2.33933e-05)
(0.000812736 -9.46648e-05 5.81914e-05)
(0.000708694 -0.000115018 9.22299e-05)
(0.000578068 -0.000133451 0.00011671)
(0.000419385 -0.000147476 0.000127191)
(0.000256891 -0.00015692 0.00013281)
(9.08625e-05 -0.000161371 0.000134882)
(-7.4967e-05 -0.000160853 0.000134876)
(-0.000241214 -0.000155397 0.000132793)
(-0.000404159 -0.000145064 0.000127175)
(-0.000563501 -0.000130331 0.00011671)
(-0.000695114 -0.000111517 9.23235e-05)
(-0.000800179 -9.11041e-05 5.83518e-05)
(-0.000784566 -7.07409e-05 -2.2779e-05)
(-0.000669635 -5.62675e-05 -3.99461e-05)
(-0.000553683 -5.23205e-05 -4.86118e-05)
(-0.000430207 -4.54827e-05 -4.31362e-05)
(-0.000329037 -3.89588e-05 -3.68236e-05)
(-0.000243261 -3.25041e-05 -3.02455e-05)
(-0.000173294 -2.71166e-05 -2.53713e-05)
(-0.000113626 -2.30141e-05 -2.22917e-05)
(-5.96411e-05 -2.02503e-05 -1.99075e-05)
(-1.96899e-05 -1.7974e-05 -1.31529e-05)
(1.14619e-05 -1.67629e-05 -7.9065e-06)
(3.47846e-05 -1.89091e-05 -1.18856e-05)
(6.61794e-05 -2.16338e-05 -1.31687e-05)
(0.000100569 -2.58762e-05 -1.48188e-05)
(0.000141019 -3.19265e-05 -1.76507e-05)
(0.000190882 -3.99971e-05 -2.17926e-05)
(0.000253373 -5.01269e-05 -2.7216e-05)
(0.000334154 -6.21355e-05 -3.40654e-05)
(0.000432246 -7.43365e-05 -4.04639e-05)
(0.000556453 -8.61618e-05 -4.61011e-05)
(0.000666895 -8.72831e-05 -3.72368e-05)
(0.000771882 -0.000113122 -1.9885e-05)
(0.000785872 -0.000150338 6.18226e-05)
(0.000683524 -0.000184766 9.65686e-05)
(0.000557129 -0.000215234 0.000121481)
(0.000404308 -0.000237883 0.000132491)
(0.000247962 -0.000252997 0.000138438)
(8.82824e-05 -0.000260137 0.00014068)
(-7.1245e-05 -0.000259468 0.000140662)
(-0.000231222 -0.000251017 0.000138387)
(-0.000388181 -0.000234724 0.000132418)
(-0.000541949 -0.000211092 0.000121406)
(-0.000669709 -0.000180103 9.65641e-05)
(-0.000773582 -0.000145581 6.18799e-05)
(-0.000761803 -0.000109163 -1.94056e-05)
(-0.000658119 -8.45741e-05 -3.73509e-05)
(-0.000547224 -8.4286e-05 -4.66432e-05)
(-0.000421576 -7.33786e-05 -4.15845e-05)
(-0.000320558 -6.21842e-05 -3.56887e-05)
(-0.000235559 -5.12872e-05 -2.93988e-05)
(-0.000167179 -4.24302e-05 -2.47314e-05)
(-0.00010932 -3.58738e-05 -2.17765e-05)