/*--------------------------------*- C++ -*----------------------------------*\
| =========                 |                                                 |
| \\      /  F ield         | OpenFOAM: The Open Source CFD Toolbox           |
|  \\    /   O peration     | Version:  2112                                  |
|   \\  /    A nd           | Website:  www.openfoam.com                      |
|    \\/     M anipulation  |                                                 |
\*---------------------------------------------------------------------------*/
FoamFile
{
    version     2.0;
    format      ascii;
    arch        "LSB;label=32;scalar=64";
    class       volScalarField;
    location    "1.9";
    object      epsilon;
}
// * * * * * * * * * * * * * * * * * * * * * * * * * * * * * * * * * * * * * //

dimensions      [0 2 -3 0 0 0 0];

internalField   nonuniform List<scalar> 
64906
(
0.00118851
0.00131012
0.00137153
0.00139342
0.00140007
0.0014019
0.00140238
0.00140251
0.00140257
0.00140261
0.00140265
0.00140267
0.00140269
0.00140269
0.00140269
0.00140268
0.00140266
0.00140264
0.00140263
0.00140264
0.00140265
0.00140267
0.00140267
0.00140267
0.00140265
0.00140262
0.00140257
0.00140244
0.00140196
0.00140014
0.00139348
0.00137159
0.00131018
0.00118856
0.00131016
0.00215428
0.00257138
0.00273839
0.00279751
0.00281615
0.00282146
0.00282289
0.00282329
0.00282343
0.00282351
0.00282359
0.00282367
0.00282374
0.00282381
0.00282385
0.00282388
0.00282389
0.0028239
0.00282389
0.00282386
0.00282382
0.00282376
0.00282369
0.0028236
0.00282346
0.00282309
0.00282169
0.00281639
0.00279776
0.00273864
0.00257161
0.00215448
0.00131026
0.00137163
0.00257152
0.00321276
0.00349191
0.00359954
0.00363645
0.00364783
0.00365103
0.00365186
0.00365203
0.0036521
0.00365225
0.0036525
0.00365278
0.00365303
0.00365322
0.00365333
0.00365339
0.0036534
0.00365335
0.00365325
0.00365308
0.00365283
0.00365256
0.00365229
0.00365197
0.00365118
0.00364811
0.00363686
0.00360002
0.0034924
0.00321322
0.00257188
0.00137179
0.00139357
0.00273865
0.00349206
0.00383651
0.00397603
0.00402618
0.00404222
0.00404661
0.0040472
0.00404658
0.00404588
0.00404572
0.004046
0.0040465
0.00404699
0.00404731
0.00404749
0.00404758
0.00404759
0.00404752
0.00404736
0.00404706
0.00404659
0.00404609
0.00404577
0.00404566
0.00404525
0.00404157
0.00402622
0.00397649
0.00383714
0.00349269
0.00273914
0.00139379
0.00140026
0.00279783
0.00359979
0.00397613
0.00413261
0.00419015
0.00420844
0.00421226
0.00421037
0.00420609
0.00420204
0.00420045
0.00420053
0.0042014
0.00420229
0.0042027
0.00420283
0.00420288
0.00420289
0.00420287
0.00420277
0.00420239
0.00420151
0.00420065
0.0042005
0.00420177
0.00420443
0.00420354
0.00418807
0.00413228
0.0039766
0.00360049
0.00279842
0.00140052
0.0014021
0.0028165
0.00363673
0.00402632
0.00419019
0.00425053
0.00426804
0.00426737
0.00425658
0.00423999
0.00422513
0.00422011
0.00422048
0.00422273
0.00422475
0.00422517
0.00422497
0.00422482
0.00422484
0.00422502
0.00422525
0.00422486
0.00422287
0.00422062
0.00422018
0.00422485
0.0042382
0.00424918
0.00424135
0.00418697
0.00402589
0.00363727
0.00281712
0.0014024
0.00140258
0.00282181
0.00364808
0.00404235
0.00420851
0.00426813
0.00428032
0.00426627
0.00423014
0.00417782
0.00413237
0.00412441
0.00413075
0.00413895
0.00414459
0.00414509
0.00414417
0.00414362
0.00414364
0.00414424
0.00414519
0.00414472
0.00413911
0.00413093
0.00412452
0.0041321
0.00417602
0.0042226
0.00423964
0.00419744
0.00403932
0.00364798
0.00282237
0.0014029
0.00140271
0.00282319
0.00365123
0.00404672
0.00421246
0.00426792
0.00426719
0.00422174
0.00412325
0.00397681
0.00384889
0.00386127
0.00390095
0.00392999
0.00394563
0.00394719
0.0039456
0.00394467
0.0039447
0.00394567
0.00394731
0.00394579
0.00393019
0.00390117
0.00386144
0.00384867
0.00397514
0.00411588
0.00419518
0.00418398
0.00403794
0.00364962
0.00282351
0.00140305
0.00140276
0.00282352
0.00365199
0.00404739
0.0042111
0.00425876
0.00423462
0.00412892
0.00389834
0.00352161
0.00316264
0.00332486
0.00349119
0.00357741
0.0036137
0.00362003
0.00361969
0.00361916
0.00361919
0.00361977
0.00362016
0.00361389
0.00357764
0.00349147
0.00332512
0.00316249
0.00352019
0.00389137
0.00410282
0.00415174
0.00402876
0.00364777
0.00282335
0.00140309
0.00140278
0.00282357
0.00365212
0.00404707
0.00420822
0.00424635
0.00419185
0.00399924
0.00354282
0.00266307
0.00171335
0.00242567
0.00293866
0.00313877
0.00320307
0.00322046
0.00322443
0.00322521
0.00322523
0.0032245
0.00322058
0.00320324
0.00313901
0.00293902
0.00242609
0.00171326
0.00266207
0.00353639
0.0039737
0.00410943
0.00401659
0.00364485
0.00282279
0.00140309
0.00140278
0.00282356
0.00365222
0.00404703
0.00420697
0.00423992
0.00416672
0.00390983
0.00323434
0.00173852
0.00161652
0.00251438
0.00282131
0.00290606
0.00292657
0.00293066
0.00293132
0.00293133
0.00293069
0.00292662
0.00290616
0.0028215
0.00251471
0.00161672
0.00173812
0.00322834
0.00388457
0.00408445
0.00401015
0.00364341
0.00282246
0.00140309
0.00140276
0.00282354
0.00365246
0.00404787
0.00420947
0.00424774
0.00419244
0.00399661
0.00353284
0.00264116
0.0016967
0.00233157
0.00280754
0.0029888
0.00304336
0.00305572
0.00305642
0.00305585
0.00305584
0.0030564
0.00305567
0.0030433
0.00298876
0.00280754
0.00233141
0.00169633
0.00263951
0.00352601
0.00397078
0.00410967
0.00401743
0.00364532
0.00282271
0.00140309
0.00140273
0.00282353
0.00365279
0.00404914
0.00421369
0.00426145
0.00423514
0.00412155
0.00387144
0.00345644
0.00303629
0.00308355
0.00314303
0.00317302
0.00318349
0.00318412
0.0031824
0.00318136
0.00318134
0.00318235
0.00318403
0.00318335
0.00317284
0.00314276
0.00308307
0.00303533
0.00345434
0.00386402
0.00409504
0.00415165
0.00403041
0.0036488
0.0028233
0.00140308
0.00140269
0.0028235
0.00365308
0.00405028
0.0042174
0.00427295
0.00426864
0.00421032
0.00407915
0.00386557
0.00362219
0.00346595
0.00334039
0.00328458
0.00326524
0.00325807
0.00325504
0.00325387
0.00325385
0.00325497
0.00325796
0.00326507
0.00328434
0.00334005
0.00346547
0.00362125
0.00386332
0.00407138
0.00418329
0.00418452
0.00404122
0.00365182
0.0028238
0.00140305
0.00140264
0.00282347
0.00365328
0.00405106
0.00421977
0.00427987
0.00428755
0.00425673
0.0041775
0.00403609
0.00383886
0.00362312
0.003428
0.0033353
0.00330178
0.00329065
0.00328681
0.00328548
0.00328545
0.00328672
0.00329051
0.00330159
0.00333504
0.00342764
0.00362246
0.00383797
0.00403381
0.00416955
0.00422938
0.004203
0.00404765
0.00365368
0.00282408
0.00140299
0.00140259
0.00282343
0.00365341
0.00405152
0.00422104
0.0042833
0.00429626
0.00427674
0.00421685
0.00409878
0.00391276
0.00367915
0.00346015
0.00335417
0.00331524
0.00330246
0.00329815
0.0032966
0.00329655
0.00329803
0.0033023
0.00331504
0.0033539
0.0034598
0.00367851
0.0039119
0.00409649
0.00420883
0.00424923
0.00421148
0.00405078
0.00365463
0.0028242
0.00140291
0.00140254
0.0028234
0.00365349
0.00405177
0.00422166
0.00428478
0.00429975
0.00428422
0.00423065
0.00411937
0.0039358
0.00369685
0.00347037
0.00336022
0.00331952
0.00330612
0.00330153
0.00329975
0.00329968
0.00330139
0.00330594
0.0033193
0.00335995
0.00347002
0.00369622
0.00393495
0.00411709
0.0042226
0.00425664
0.00421486
0.00405212
0.00365506
0.00282423
0.00140283
0.00140249
0.00282337
0.00365353
0.0040519
0.00422193
0.00428536
0.00430097
0.00428662
0.00423481
0.00412526
0.00394213
0.00370173
0.00347319
0.0033619
0.00332068
0.00330706
0.00330231
0.00330033
0.00330025
0.00330215
0.00330687
0.00332046
0.00336162
0.00347283
0.00370111
0.0039413
0.00412298
0.00422676
0.00425903
0.00421604
0.00405264
0.00365524
0.00282423
0.00140275
0.00140244
0.00282336
0.00365355
0.00405194
0.004222
0.00428545
0.00430108
0.00428677
0.004235
0.00412548
0.00394237
0.00370196
0.00347333
0.00336199
0.00332072
0.00330705
0.00330222
0.00330013
0.00330002
0.00330204
0.00330684
0.00332048
0.0033617
0.00347298
0.00370136
0.00394155
0.00412323
0.00422697
0.0042592
0.00421617
0.00405273
0.00365529
0.00282423
0.00140269
0.00140244
0.00282337
0.00365355
0.0040519
0.00422186
0.00428506
0.00430011
0.00428468
0.00423123
0.00412007
0.00393656
0.00369758
0.00347082
0.0033605
0.00331964
0.00330609
0.00330129
0.00329921
0.0032991
0.0033011
0.00330587
0.00331941
0.00336022
0.00347048
0.00369701
0.00393578
0.00411786
0.00422325
0.00425717
0.00421526
0.0040524
0.00365521
0.00282423
0.00140269
0.00140249
0.00282341
0.00365352
0.00405174
0.00422138
0.00428376
0.00429687
0.00427754
0.00421788
0.00410004
0.00391419
0.00368056
0.00346101
0.00335473
0.00331553
0.00330249
0.00329785
0.00329593
0.00329584
0.00329767
0.00330228
0.0033153
0.00335447
0.0034607
0.00368005
0.00391347
0.00409791
0.00421
0.00425014
0.00421216
0.00405125
0.00365488
0.00282421
0.00140276
0.00140254
0.00282346
0.00365344
0.00405138
0.00422025
0.00428053
0.00428843
0.00425791
0.00417908
0.00403812
0.00384126
0.00362554
0.00342947
0.00333629
0.00330237
0.00329088
0.00328665
0.00328498
0.0032849
0.00328649
0.00329068
0.00330216
0.00333607
0.00342922
0.00362515
0.00384067
0.00403612
0.00417137
0.00423075
0.00420399
0.00404832
0.00365405
0.00282413
0.00140284
0.00140259
0.00282351
0.00365329
0.0040507
0.00421802
0.00427381
0.00426981
0.00421193
0.00408139
0.00386865
0.00362606
0.00346945
0.00334263
0.00328607
0.0032662
0.0032586
0.0032552
0.00325378
0.00325373
0.00325507
0.00325844
0.00326603
0.00328592
0.00334251
0.0034693
0.00362567
0.0038669
0.00407399
0.00418516
0.00418584
0.0040421
0.00365231
0.00282389
0.0014029
0.00140264
0.00282355
0.00365305
0.00404965
0.00421445
0.00426249
0.00423657
0.00412355
0.00387435
0.00346065
0.00304193
0.00308806
0.00314547
0.00317433
0.00318411
0.0031843
0.00318229
0.00318109
0.00318106
0.0031822
0.00318418
0.00318396
0.00317418
0.00314544
0.00308831
0.00304186
0.00345932
0.00386743
0.00409736
0.00415327
0.00403149
0.00364941
0.00282344
0.00140295
0.00140267
0.00282358
0.00365275
0.00404842
0.0042103
0.00424889
0.00419401
0.00399881
0.00353601
0.00264566
0.00169921
0.00233383
0.00280613
0.00298566
0.00303908
0.00305087
0.0030513
0.00305059
0.00305056
0.00305119
0.00305065
0.00303865
0.00298496
0.00280544
0.00233411
0.00169903
0.00264488
0.00352954
0.00397317
0.00411138
0.00401863
0.003646
0.00282289
0.00140297
0.00140269
0.00282357
0.0036524
0.00404742
0.0042076
0.00424084
0.00416793
0.0039112
0.00323567
0.00173887
0.00161107
0.00249766
0.00279745
0.00287753
0.00289617
0.0028996
0.00289999
0.0028999
0.00289925
0.0028953
0.00287549
0.00279337
0.00249178
0.00160815
0.00173773
0.00322861
0.00388536
0.00408554
0.0040111
0.003644
0.00282262
0.00140298
0.00140268
0.00282331
0.00365164
0.00404643
0.00420763
0.00424598
0.00419174
0.00399918
0.00354232
0.00266175
0.00171116
0.00239423
0.00287776
0.00304661
0.00309156
0.00310305
0.00310579
0.00310629
0.00310612
0.003105
0.00310054
0.00308442
0.00303001
0.00284939
0.00237109
0.00170469
0.00265331
0.00353068
0.00397123
0.0041087
0.00401643
0.00364479
0.00282269
0.00140298
0.00140258
0.00282203
0.00364867
0.00404255
0.00420547
0.0042529
0.00422863
0.00412197
0.00388785
0.00350164
0.00312061
0.00322885
0.0033193
0.00332063
0.00330863
0.00330229
0.00330026
0.00329969
0.00329941
0.00329882
0.00329706
0.00329199
0.00327753
0.00323697
0.00315094
0.00306919
0.0034698
0.0038657
0.0040899
0.00414452
0.0040241
0.00364486
0.00282204
0.00140291
0.00140213
0.00281683
0.00363753
0.0040272
0.00418956
0.0042435
0.00424185
0.00419412
0.0040881
0.00392096
0.00374528
0.00366405
0.00356485
0.00344303
0.00338407
0.00336331
0.00335723
0.00335565
0.00335528
0.00335528
0.00335592
0.00335916
0.00337233
0.00341513
0.00351917
0.00364496
0.00386335
0.00405491
0.00415839
0.00415801
0.0040183
0.00363632
0.00281735
0.00140247
0.00140031
0.00279825
0.00360077
0.00397753
0.00413371
0.00418872
0.00419871
0.00418154
0.00413616
0.00405851
0.00395533
0.00383895
0.00368655
0.00352844
0.00345367
0.00342755
0.00341997
0.00341806
0.00341768
0.00341788
0.00341941
0.00342598
0.0034497
0.00352026
0.00367566
0.00384082
0.00399344
0.0041004
0.00414649
0.00411931
0.00397438
0.00360112
0.00279907
0.00140066
0.00139365
0.00273914
0.00349315
0.00383819
0.00397801
0.00402763
0.00404081
0.00403695
0.00401871
0.00398196
0.00392137
0.00383216
0.00371249
0.00359217
0.00352982
0.00350636
0.00349936
0.00349765
0.00349734
0.00349753
0.00349906
0.00350569
0.00352836
0.00358967
0.00371001
0.00383401
0.00393199
0.00399101
0.0040084
0.0039727
0.003838
0.00349424
0.00274005
0.00139398
0.00137174
0.00257205
0.00321388
0.00349362
0.00360177
0.00363894
0.00364981
0.00365052
0.0036444
0.00362911
0.00359972
0.00355129
0.00348496
0.00341866
0.00338146
0.00336639
0.00336163
0.00336042
0.0033602
0.00336037
0.00336151
0.00336616
0.003381
0.00341796
0.00348434
0.00355178
0.00360184
0.00362895
0.00363227
0.003601
0.00349472
0.00321517
0.00257291
0.00137204
0.0013103
0.00215477
0.00257233
0.00273979
0.00279934
0.00281838
0.00282397
0.00282518
0.00282406
0.00281981
0.00281027
0.00279308
0.00276867
0.00274369
0.00272885
0.00272244
0.00272028
0.00271967
0.00271956
0.00271968
0.00272028
0.00272243
0.00272879
0.00274358
0.00276856
0.00279316
0.00281046
0.00281881
0.00281767
0.00280024
0.00274102
0.00257338
0.00215542
0.00131054
0.00118863
0.00131036
0.00137194
0.00139401
0.00140084
0.00140286
0.00140354
0.00140388
0.00140407
0.00140407
0.00140368
0.0014026
0.00140075
0.00139863
0.00139729
0.00139662
0.00139628
0.00139608
0.00139599
0.00139609
0.00139629
0.00139662
0.00139726
0.00139858
0.00140067
0.00140249
0.00140357
0.00140386
0.00140343
0.00140145
0.00139454
0.00137236
0.00131064
0.00118879
0.00154488
0.00203822
0.00230615
0.00241477
0.0024527
0.00246443
0.0024677
0.00246854
0.00246874
0.00246877
0.00246875
0.00246873
0.0024687
0.00246868
0.00246865
0.00246863
0.00246861
0.0024686
0.00246859
0.0024686
0.00246862
0.00246864
0.00246866
0.00246868
0.0024687
0.00246869
0.00246852
0.00246771
0.00246446
0.00245273
0.00241481
0.00230619
0.00203827
0.00154492
0.00203823
0.00236758
0.00267642
0.00282059
0.00287616
0.00289473
0.00290023
0.00290168
0.002902
0.00290202
0.00290197
0.00290192
0.00290188
0.00290186
0.00290185
0.00290184
0.00290183
0.00290182
0.00290182
0.00290183
0.00290184
0.00290185
0.00290187
0.00290189
0.00290191
0.00290189
0.0029016
0.00290019
0.00289474
0.00287619
0.00282064
0.00267647
0.00236763
0.00203828
0.00230624
0.00267647
0.00305202
0.0032405
0.00331877
0.00334696
0.00335591
0.00335839
0.00335889
0.00335882
0.00335863
0.00335851
0.00335847
0.00335849
0.00335852
0.00335854
0.00335855
0.00335855
0.00335855
0.00335855
0.00335855
0.00335853
0.0033585
0.00335848
0.00335849
0.00335847
0.00335803
0.00335571
0.00334692
0.00331883
0.00324061
0.00305216
0.0026766
0.00230636
0.00241495
0.00282071
0.00324057
0.00345915
0.00355374
0.00358925
0.00360089
0.00360401
0.00360423
0.00360348
0.00360264
0.00360217
0.00360205
0.00360213
0.00360224
0.0036023
0.00360232
0.00360232
0.00360233
0.00360233
0.00360232
0.00360226
0.00360216
0.00360208
0.00360214
0.0036024
0.00360236
0.00359984
0.00358878
0.00355367
0.00345928
0.00324078
0.00282091
0.00241515
0.00245294
0.00287632
0.0033189
0.0035538
0.00365768
0.00369743
0.00371033
0.0037129
0.00371127
0.00370792
0.00370475
0.00370318
0.00370289
0.00370313
0.00370342
0.00370352
0.00370351
0.00370348
0.00370348
0.00370352
0.00370355
0.00370345
0.00370317
0.00370292
0.00370315
0.00370445
0.00370657
0.00370608
0.00369528
0.0036569
0.00355371
0.00331908
0.00287655
0.0024532
0.00246471
0.00289491
0.0033471
0.00358933
0.00369746
0.00373879
0.00375097
0.00375031
0.00374261
0.00373119
0.00372119
0.00371714
0.00371714
0.00371827
0.00371913
0.00371939
0.00371927
0.00371915
0.00371915
0.00371929
0.00371941
0.00371917
0.00371832
0.00371718
0.00371712
0.00372087
0.00372971
0.003737
0.00373148
0.00369445
0.00358845
0.00334707
0.00289511
0.00246499
0.00246799
0.0029004
0.00335604
0.00360099
0.00371041
0.00375107
0.00375947
0.00374976
0.0037257
0.00369257
0.0036653
0.00365744
0.00366124
0.00366621
0.00366898
0.00366997
0.00366983
0.00366957
0.00366957
0.00366985
0.00367
0.00366903
0.00366627
0.00366129
0.00365743
0.00366498
0.00369106
0.00371994
0.00373043
0.00370167
0.00359804
0.00335538
0.00290044
0.00246823
0.00246882
0.00290182
0.00335851
0.00360413
0.00371313
0.00375082
0.0037505
0.00372064
0.00365904
0.00357468
0.00351061
0.00349876
0.00351947
0.00353719
0.00354518
0.00354887
0.0035493
0.00354904
0.00354904
0.00354933
0.00354891
0.00354524
0.00353727
0.00351955
0.00349878
0.00351031
0.00357318
0.00365327
0.00370117
0.00369228
0.00359685
0.00335651
0.00290151
0.00246892
0.00246899
0.00290211
0.00335902
0.00360448
0.00371199
0.00374438
0.00372908
0.00366324
0.0035304
0.00334452
0.00324096
0.00319821
0.00326822
0.00331877
0.00333773
0.00334874
0.00335146
0.00335169
0.0033517
0.00335149
0.00334879
0.0033378
0.00331888
0.00326834
0.00319827
0.00324066
0.00334303
0.00352464
0.00364375
0.00367074
0.00359011
0.00335484
0.0029012
0.00246882
0.00246899
0.00290211
0.003359
0.00360407
0.00370977
0.00373601
0.00370275
0.00359144
0.00336343
0.00305942
0.00362674
0.00278804
0.00293265
0.00304289
0.00307915
0.00310221
0.00310883
0.00311003
0.00311004
0.00310886
0.00310226
0.00307923
0.00304302
0.00293283
0.00278815
0.00362596
0.00305778
0.00335758
0.00357187
0.00364429
0.00358155
0.00335236
0.00290049
0.00246847
0.00246895
0.00290205
0.00335893
0.00360384
0.00370868
0.0037318
0.00368915
0.00355549
0.00331347
0.00377135
0.00311749
0.00271539
0.00285043
0.00291467
0.00292656
0.00292755
0.00292739
0.0029274
0.00292756
0.00292659
0.00291472
0.00285053
0.00271554
0.00311789
0.00376741
0.0033073
0.00353574
0.00363052
0.00357713
0.00335103
0.00290003
0.00246822
0.00246889
0.002902
0.00335899
0.00360423
0.00371003
0.00373609
0.00370191
0.00358802
0.00335399
0.00303545
0.00352273
0.00271477
0.00288589
0.00301836
0.003101
0.00307332
0.0030592
0.00305552
0.00305551
0.00305917
0.00307327
0.00310096
0.00301833
0.00288585
0.00271453
0.00352122
0.00303353
0.00334795
0.00356826
0.00364319
0.00358125
0.00335213
0.0029002
0.00246825
0.00246882
0.00290197
0.00335914
0.00360497
0.00371269
0.00374466
0.0037273
0.00365561
0.00350911
0.00329456
0.00313819
0.00304511
0.00308676
0.00311891
0.00314103
0.00313059
0.00312376
0.00312154
0.00312153
0.00312374
0.00313054
0.00314098
0.00311882
0.00308662
0.00304481
0.00313753
0.00329276
0.0035031
0.00363583
0.00366849
0.00358964
0.00335455
0.00290074
0.00246845
0.00246875
0.00290194
0.00335928
0.00360566
0.0037151
0.0037522
0.00374869
0.00370969
0.00362695
0.00350083
0.00336814
0.00327356
0.00322693
0.00319525
0.00318363
0.00317606
0.00317252
0.00317133
0.00317132
0.0031725
0.00317601
0.00318357
0.00319514
0.00322676
0.00327328
0.00336754
0.00349906
0.00362092
0.00368983
0.00368974
0.00359697
0.00335674
0.00290125
0.0024686
0.00246868
0.00290191
0.00335938
0.00360613
0.00371665
0.00375684
0.00376129
0.00373988
0.00368876
0.0036034
0.00349281
0.00338194
0.0032965
0.00323621
0.00321073
0.00320163
0.00319864
0.00319776
0.00319775
0.00319862
0.00320159
0.00321067
0.0032361
0.00329633
0.00338165
0.00349223
0.00360164
0.00368269
0.00371993
0.00370221
0.00360145
0.0033581
0.00290156
0.00246865
0.0024686
0.00290189
0.00335943
0.00360638
0.00371746
0.00375914
0.00376722
0.00375339
0.003715
0.00364477
0.00354213
0.00342383
0.00332376
0.00325273
0.00322222
0.00321201
0.00320897
0.00320815
0.00320814
0.00320895
0.00321197
0.00322216
0.00325262
0.0033236
0.00342354
0.00354157
0.00364302
0.00370891
0.00373339
0.00370805
0.00360363
0.00335878
0.0029017
0.00246862
0.00246854
0.00290187
0.00335945
0.00360651
0.00371782
0.00376011
0.00376958
0.00375852
0.0037245
0.00365908
0.00355865
0.00343765
0.00333273
0.0032582
0.00322607
0.0032154
0.00321229
0.00321146
0.00321145
0.00321227
0.00321536
0.003226
0.00325809
0.00333256
0.00343736
0.00355809
0.00365733
0.0037184
0.00373849
0.00371036
0.00360453
0.00335907
0.00290174
0.00246856
0.00246849
0.00290185
0.00335946
0.00360656
0.00371797
0.00376046
0.00377037
0.00376015
0.00372737
0.00366324
0.00356329
0.00344148
0.0033352
0.00325971
0.00322712
0.00321632
0.00321317
0.00321231
0.0032123
0.00321314
0.00321627
0.00322706
0.0032596
0.00333504
0.0034412
0.00356274
0.00366149
0.00372127
0.00374011
0.00371114
0.00360485
0.00335917
0.00290176
0.0024685
0.00246846
0.00290185
0.00335947
0.00360657
0.00371799
0.00376049
0.00377042
0.0037602
0.00372744
0.00366332
0.00356338
0.00344157
0.00333526
0.00325976
0.00322715
0.00321633
0.00321317
0.00321229
0.00321228
0.00321314
0.00321628
0.00322709
0.00325965
0.00333511
0.00344129
0.00356283
0.00366158
0.00372134
0.00374017
0.00371118
0.00360488
0.00335919
0.00290176
0.00246846
0.00246847
0.00290186
0.00335947
0.00360655
0.00371789
0.00376021
0.00376971
0.00375869
0.00372471
0.00365934
0.00355894
0.00343794
0.00333295
0.00325836
0.00322617
0.00321546
0.00321231
0.00321144
0.00321142
0.00321228
0.00321542
0.0032261
0.00325826
0.0033328
0.00343768
0.00355841
0.00365762
0.00371864
0.00373868
0.0037105
0.00360462
0.00335911
0.00290175
0.00246846
0.00246851
0.00290188
0.00335946
0.00360645
0.00371757
0.0037593
0.00376744
0.00375369
0.00371539
0.00364527
0.00354271
0.00342443
0.00332422
0.00325308
0.00322246
0.00321218
0.0032091
0.00320822
0.00320821
0.00320907
0.00321215
0.00322241
0.00325299
0.00332409
0.0034242
0.00354221
0.00364357
0.00370935
0.00373372
0.00370828
0.00360378
0.00335885
0.0029017
0.00246849
0.00246857
0.00290191
0.00335942
0.00360623
0.00371681
0.00375708
0.00376162
0.00374033
0.00368939
0.00360424
0.00349384
0.00338302
0.00329734
0.00323686
0.00321123
0.00320206
0.00319902
0.0031981
0.00319809
0.003199
0.00320204
0.0032112
0.00323681
0.00329726
0.00338285
0.00349339
0.0036026
0.00368341
0.00372045
0.00370256
0.00360167
0.00335821
0.00290157
0.0024685
0.00246864
0.00290194
0.00335934
0.0036058
0.00371531
0.00375251
0.00374914
0.00371033
0.00362789
0.00350216
0.00336984
0.00327527
0.00322825
0.00319624
0.0031844
0.00317679
0.00317324
0.00317204
0.00317204
0.00317324
0.00317679
0.00318441
0.00319624
0.00322824
0.0032752
0.00336946
0.00350059
0.00362198
0.00369055
0.00369022
0.00359727
0.00335688
0.00290128
0.00246844
0.0024687
0.00290196
0.0033592
0.00360512
0.00371294
0.00374504
0.00372784
0.00365641
0.00351033
0.00329638
0.00314063
0.0030474
0.00308809
0.0031196
0.00314136
0.00313094
0.00312413
0.00312193
0.00312193
0.00312415
0.00313096
0.00314137
0.00311958
0.00308807
0.00304738
0.00314029
0.00329483
0.00350445
0.00363669
0.00366905
0.00358998
0.00335472
0.00290078
0.00246828
0.00246876
0.00290198
0.00335904
0.00360436
0.00371027
0.00373646
0.00370244
0.0035888
0.00335516
0.00303728
0.00352907
0.0027151
0.00288411
0.00301515
0.00309705
0.00306907
0.00305482
0.00305113
0.00305113
0.00305481
0.00306899
0.00309683
0.00301454
0.00288312
0.00271407
0.00352826
0.00303522
0.00334897
0.00356894
0.00364368
0.00358156
0.00335228
0.00290022
0.00246807
0.00246878
0.00290196
0.00335884
0.00360378
0.0037087
0.00373191
0.00368935
0.00355572
0.00331354
0.0037695
0.0030932
0.00269757
0.00282644
0.00288641
0.00289669
0.00289727
0.00289702
0.00289696
0.00289704
0.00289599
0.00288454
0.0028223
0.0026904
0.00307906
0.00376079
0.00330584
0.00353527
0.00363046
0.00357716
0.00335101
0.00289996
0.00246799
0.00246865
0.00290169
0.00335829
0.00360315
0.00370876
0.00373499
0.00370167
0.00359003
0.00336088
0.0030529
0.0035938
0.00275191
0.00287689
0.00296626
0.00298917
0.00300681
0.00301232
0.00301339
0.00301326
0.00301172
0.00300478
0.00298329
0.00295273
0.00285398
0.00272481
0.00355311
0.00304013
0.00335015
0.00356839
0.00364253
0.0035805
0.00335165
0.00290005
0.00246805
0.00246788
0.00290031
0.00335592
0.00360032
0.00370716
0.00373919
0.00372349
0.00365655
0.00352042
0.00332554
0.00319983
0.0031228
0.00314721
0.00315484
0.00314586
0.00314456
0.00314444
0.00314431
0.00314408
0.00314328
0.0031404
0.00313336
0.00312577
0.00310176
0.0030717
0.00315815
0.00330166
0.00350412
0.00363281
0.00366405
0.00358548
0.00335166
0.00289935
0.00246762
0.00246465
0.00289489
0.00334713
0.00358914
0.00369588
0.00373234
0.00373105
0.00369916
0.00363196
0.00353341
0.00343877
0.00337558
0.00333052
0.00329192
0.00325629
0.00324114
0.00323638
0.00323509
0.00323477
0.00323469
0.00323491
0.00323705
0.00324744
0.00327221
0.00330616
0.00338335
0.00349942
0.0036105
0.0036737
0.00367211
0.0035811
0.00334496
0.0028945
0.00246467
0.00245294
0.00287635
0.00331905
0.00355399
0.00365735
0.0036949
0.00370146
0.00368914
0.00365852
0.00360939
0.00354886
0.00348514
0.00341724
0.00335999
0.00331403
0.00329398
0.00328749
0.00328574
0.00328538
0.00328561
0.00328701
0.00329264
0.00331094
0.00335399
0.00341122
0.00349022
0.0035729
0.00363601
0.00366431
0.00364541
0.00355021
0.0033182
0.00287633
0.00245311
0.00241499
0.00282079
0.00324082
0.00345957
0.0035541
0.00358883
0.00359789
0.00359452
0.00358115
0.00355628
0.00351857
0.00346778
0.00340644
0.00334993
0.00331079
0.0032933
0.00328735
0.00328567
0.00328534
0.00328564
0.00328722
0.00329293
0.0033099
0.00334837
0.00340532
0.00347024
0.00352634
0.00356263
0.00357347
0.00354857
0.00345807
0.00324064
0.00282092
0.00241522
0.00230633
0.00267658
0.00305232
0.00324102
0.00331942
0.00334746
0.00335553
0.00335547
0.00335
0.00333797
0.00331685
0.00328467
0.00324361
0.00320437
0.00317852
0.00316663
0.00316238
0.00316112
0.00316087
0.00316113
0.00316239
0.00316659
0.00317835
0.00320408
0.00324354
0.00328561
0.00331886
0.00333801
0.00334046
0.00331723
0.00324062
0.00305243
0.00267674
0.00230653
0.00203834
0.00236769
0.00267671
0.00282109
0.00287683
0.00289548
0.00290079
0.00290143
0.00289948
0.00289434
0.00288422
0.00286746
0.00284503
0.00282292
0.00280874
0.00280217
0.00279975
0.002799
0.00279885
0.00279903
0.0027998
0.00280223
0.00280879
0.00282297
0.00284514
0.00286782
0.00288465
0.00289343
0.0028929
0.00287626
0.00282117
0.00267689
0.00236782
0.0020385
0.00154498
0.00203835
0.00230648
0.00241535
0.00245352
0.00246545
0.00246881
0.00246941
0.00246858
0.00246583
0.00245985
0.00244916
0.00243401
0.00241857
0.00240923
0.00240506
0.00240349
0.00240295
0.00240283
0.00240298
0.00240354
0.00240512
0.00240927
0.0024186
0.00243404
0.00244928
0.00245997
0.00246517
0.00246455
0.00245365
0.00241572
0.00230678
0.0020385
0.00154512
0.00172355
0.00248992
0.00293207
0.00312403
0.00319618
0.00322019
0.00322733
0.00322923
0.00322964
0.00322964
0.00322954
0.00322941
0.00322931
0.00322922
0.00322916
0.00322911
0.00322907
0.00322905
0.00322905
0.00322906
0.0032291
0.00322915
0.00322921
0.00322928
0.00322936
0.00322938
0.00322903
0.0032272
0.00322012
0.00319615
0.00312402
0.00293207
0.00248993
0.00172359
0.00248991
0.00272184
0.00304971
0.00321778
0.00328786
0.00331304
0.00332101
0.00332322
0.00332371
0.00332371
0.00332359
0.00332346
0.00332337
0.00332331
0.00332326
0.00332323
0.00332321
0.00332319
0.00332319
0.00332321
0.00332323
0.00332327
0.00332331
0.00332336
0.00332343
0.00332342
0.00332298
0.00332085
0.00331296
0.00328783
0.00321779
0.00304974
0.00272186
0.00248992
0.00293217
0.00304975
0.00338879
0.00357943
0.00366553
0.00369891
0.00371023
0.00371351
0.00371415
0.00371396
0.00371357
0.00371326
0.00371307
0.00371298
0.00371294
0.00371291
0.00371289
0.00371287
0.00371287
0.00371289
0.00371292
0.00371295
0.00371299
0.00371306
0.0037132
0.00371328
0.00371276
0.00370973
0.00369866
0.00366545
0.00357947
0.00338889
0.00304985
0.00293225
0.00312425
0.00321789
0.00357949
0.00379087
0.00389025
0.00393038
0.00394439
0.00394827
0.00394845
0.00394733
0.003946
0.00394508
0.00394463
0.00394447
0.00394443
0.0039444
0.00394436
0.00394434
0.00394434
0.00394437
0.00394441
0.00394444
0.00394449
0.00394463
0.003945
0.0039456
0.0039457
0.00394262
0.00392944
0.0038899
0.00379085
0.00357963
0.00321805
0.00312441
0.00319649
0.003288
0.00366563
0.0038903
0.00399807
0.00404232
0.00405753
0.00406061
0.00405851
0.00405425
0.00405006
0.0040475
0.00404651
0.00404627
0.00404621
0.00404621
0.00404613
0.00404606
0.00404606
0.00404614
0.00404622
0.00404623
0.00404629
0.00404651
0.0040474
0.00404957
0.00405231
0.00405171
0.00403911
0.00399668
0.00388991
0.00366568
0.00328818
0.0031967
0.00322054
0.00331321
0.00369904
0.00393047
0.00404237
0.00408814
0.00410233
0.0041016
0.00409264
0.00407965
0.00406802
0.00406186
0.00406051
0.00406058
0.0040606
0.0040609
0.00406083
0.00406068
0.00406069
0.00406084
0.00406092
0.00406062
0.00406061
0.00406052
0.00406176
0.00406749
0.00407754
0.00408529
0.00407861
0.00403805
0.00392893
0.00369872
0.00331329
0.00322072
0.0032277
0.00332117
0.00371037
0.00394451
0.00405767
0.00410251
0.0041123
0.00410166
0.00407591
0.00404192
0.00401384
0.00400074
0.00400188
0.00400435
0.00400461
0.00400666
0.00400709
0.0040069
0.00400691
0.0040071
0.00400668
0.00400464
0.00400439
0.00400189
0.00400064
0.00401328
0.00403972
0.00406831
0.00407799
0.00404643
0.00394024
0.0037091
0.00332096
0.00322769
0.0032296
0.00332337
0.00371367
0.00394849
0.00406105
0.00410243
0.00410278
0.0040719
0.00401144
0.00393456
0.00387922
0.00384781
0.00386216
0.0038736
0.00387339
0.00388256
0.00388513
0.00388517
0.00388517
0.00388515
0.00388259
0.00387343
0.00387366
0.0038622
0.00384773
0.00387865
0.0039323
0.00400369
0.0040479
0.00403623
0.00393892
0.00371056
0.00332256
0.00322914
0.00322999
0.00332385
0.00371436
0.00394893
0.00405972
0.00409535
0.00408075
0.00401732
0.00390004
0.00375892
0.00372102
0.00357719
0.00362899
0.00366559
0.0036598
0.00369139
0.00370012
0.00370112
0.00370113
0.00370015
0.00369143
0.00365986
0.00366568
0.00362909
0.00357715
0.00372038
0.00375654
0.0038921
0.00399305
0.00401379
0.00393124
0.00370845
0.0033221
0.00322878
0.00322997
0.00332386
0.00371432
0.00394838
0.00405715
0.00408656
0.00405584
0.00395779
0.00378801
0.00366991
0.00489782
0.00322899
0.00333261
0.00342474
0.00340192
0.00348234
0.00350378
0.00350704
0.00350706
0.00350381
0.00348241
0.00340199
0.00342488
0.00333279
0.00322896
0.0048959
0.00366691
0.00377964
0.00393311
0.00398846
0.003922
0.00370541
0.00332108
0.0032279
0.00322987
0.00332378
0.0037142
0.00394804
0.00405585
0.00408235
0.0040447
0.00393907
0.00383669
0.00524725
0.00364928
0.00307258
0.00321871
0.00330473
0.00329951
0.00329391
0.00329228
0.00329228
0.00329392
0.00329954
0.0033048
0.00321883
0.00307274
0.0036497
0.00523774
0.00382749
0.00391399