/*--------------------------------*- C++ -*----------------------------------*\
| =========                 |                                                 |
| \\      /  F ield         | OpenFOAM: The Open Source CFD Toolbox           |
|  \\    /   O peration     | Version:  2112                                  |
|   \\  /    A nd           | Website:  www.openfoam.com                      |
|    \\/     M anipulation  |                                                 |
\*---------------------------------------------------------------------------*/
FoamFile
{
    version     2.0;
    format      ascii;
    arch        "LSB;label=32;scalar=64";
    class       volScalarField;
    location    "1.9";
    object      k;
}
// * * * * * * * * * * * * * * * * * * * * * * * * * * * * * * * * * * * * * //

dimensions      [0 2 -2 0 0 0 0];

internalField   nonuniform List<scalar> 
64906
(
0.00100615
0.00107546
0.00111003
0.00112243
0.00112626
0.00112733
0.00112761
0.00112769
0.00112773
0.00112775
0.00112777
0.00112778
0.00112779
0.00112779
0.00112779
0.00112778
0.00112777
0.00112776
0.00112775
0.00112776
0.00112777
0.00112778
0.00112778
0.00112778
0.00112777
0.00112775
0.00112772
0.00112764
0.00112736
0.00112629
0.00112246
0.00111007
0.0010755
0.00100617
0.00107548
0.00150375
0.00169563
0.00177059
0.00179724
0.00180578
0.00180826
0.00180894
0.00180913
0.00180919
0.00180922
0.00180925
0.00180928
0.00180932
0.00180934
0.00180936
0.00180938
0.00180938
0.00180938
0.00180938
0.00180937
0.00180935
0.00180932
0.00180929
0.00180925
0.0018092
0.00180902
0.00180836
0.00180588
0.00179735
0.0017707
0.00169574
0.00150384
0.00107554
0.00111009
0.0016957
0.0019716
0.00208739
0.00213196
0.00214745
0.00215231
0.0021537
0.00215405
0.00215411
0.00215412
0.00215417
0.00215426
0.00215437
0.00215447
0.00215455
0.00215459
0.00215462
0.00215462
0.0021546
0.00215456
0.00215449
0.0021544
0.00215429
0.00215419
0.00215406
0.00215373
0.0021524
0.0021476
0.00213215
0.00208759
0.00197179
0.00169586
0.00111019
0.00112252
0.0017707
0.00208745
0.00222631
0.0022823
0.00230266
0.00230928
0.00231111
0.00231135
0.00231106
0.00231073
0.00231063
0.00231071
0.00231089
0.00231108
0.0023112
0.00231127
0.0023113
0.0023113
0.00231128
0.00231122
0.00231111
0.00231093
0.00231075
0.00231064
0.00231063
0.00231047
0.00230895
0.00230262
0.00228245
0.00222655
0.0020877
0.00177092
0.00112264
0.00112637
0.00179738
0.00213206
0.00228234
0.00234447
0.00236755
0.002375
0.00237657
0.00237578
0.00237399
0.00237229
0.00237155
0.00237151
0.00237182
0.00237215
0.0023723
0.00237234
0.00237235
0.00237235
0.00237235
0.00237232
0.00237218
0.00237186
0.00237156
0.00237157
0.00237216
0.00237327
0.0023729
0.00236661
0.00234427
0.00228249
0.00213234
0.00179764
0.00112651
0.00112744
0.00180593
0.00214756
0.00230271
0.00236757
0.00239169
0.00239878
0.00239851
0.00239413
0.00238744
0.00238141
0.0023792
0.00237917
0.00237996
0.00238072
0.00238086
0.00238077
0.0023807
0.0023807
0.00238079
0.00238089
0.00238076
0.00238002
0.00237922
0.00237922
0.00238127
0.00238666
0.00239101
0.00238782
0.00236615
0.00230247
0.00214775
0.0018062
0.00112761
0.00112773
0.00180841
0.00215241
0.00230933
0.00237504
0.00239882
0.00240374
0.00239812
0.00238374
0.00236302
0.00234493
0.00234126
0.00234333
0.00234636
0.00234852
0.00234868
0.0023483
0.00234806
0.00234807
0.00234832
0.00234872
0.00234857
0.00234643
0.0023434
0.00234129
0.0023448
0.00236223
0.00238055
0.00238717
0.00237038
0.00230797
0.00215231
0.00180864
0.00112791
0.0011278
0.00180907
0.00215378
0.00231116
0.00237667
0.00239876
0.00239852
0.00238053
0.00234173
0.00228406
0.00223324
0.0022369
0.00225173
0.00226289
0.00226901
0.00226959
0.00226892
0.00226854
0.00226854
0.00226895
0.00226964
0.00226907
0.00226297
0.00225181
0.00223696
0.00223312
0.00228332
0.00233858
0.00236956
0.00236497
0.0023074
0.002153
0.00180918
0.00112799
0.00112783
0.00180923
0.00215411
0.00231144
0.00237611
0.00239508
0.00238563
0.00234409
0.00225331
0.00210264
0.00195479
0.00201968
0.00208619
0.00212068
0.00213532
0.00213786
0.0021377
0.00213747
0.00213748
0.00213773
0.00213791
0.0021354
0.00212078
0.00208631
0.00201978
0.00195471
0.00210198
0.00225028
0.00233322
0.00235212
0.00230364
0.0021522
0.0018091
0.00112801
0.00112784
0.00180925
0.00215416
0.0023113
0.00237494
0.00239014
0.00236886
0.00229338
0.00211169
0.00174096
0.00129296
0.00163125
0.00185505
0.00193923
0.00196616
0.00197348
0.00197516
0.00197548
0.00197549
0.00197519
0.00197353
0.00196624
0.00193934
0.0018552
0.00163145
0.0012929
0.00174045
0.0021088
0.00228263
0.00233541
0.00229869
0.00215095
0.00180883
0.00112801
0.00112784
0.00180925
0.0021542
0.00231128
0.00237442
0.0023876
0.00235908
0.00225846
0.00198603
0.00130635
0.00124133
0.00166887
0.00180324
0.00183977
0.00184869
0.0018505
0.0018508
0.0018508
0.00185051
0.00184871
0.00183981
0.00180332
0.00166902
0.00124144
0.00130611
0.00198326
0.00224775
0.00232563
0.0022961
0.00215033
0.00180867
0.001128
0.00112783
0.00180924
0.0021543
0.00231161
0.00237541
0.00239064
0.00236899
0.00229215
0.00210725
0.00173062
0.00128384
0.00158619
0.00179614
0.0018733
0.00189632
0.00190173
0.0019021
0.00190187
0.00190187
0.00190209
0.00190171
0.0018963
0.00187328
0.00179614
0.00158611
0.00128364
0.00172981
0.0021042
0.00228128
0.00233541
0.00229899
0.00215112
0.00180879
0.001128
0.00112781
0.00180924
0.00215444
0.00231214
0.00237711
0.00239606
0.00238564
0.00234077
0.00224175
0.00207437
0.00189865
0.00191495
0.00193777
0.00194958
0.00195376
0.00195405
0.00195335
0.00195292
0.00195291
0.00195333
0.00195401
0.0019537
0.0019495
0.00193765
0.00191474
0.00189822
0.00207342
0.00223853
0.00232973
0.00235188
0.00230421
0.0021526
0.00180907
0.001128
0.00112779
0.00180923
0.00215457
0.00231261
0.00237862
0.00240066
0.00239884
0.00237544
0.00232312
0.00223762
0.00213861
0.00207273
0.0020195
0.00199561
0.00198729
0.00198424
0.00198296
0.00198247
0.00198246
0.00198293
0.00198419
0.00198722
0.00199551
0.00201935
0.00207253
0.0021382
0.00223664
0.00231981
0.00236427
0.00236492
0.00230861
0.00215389
0.00180931
0.00112798
0.00112776
0.00180921
0.00215465
0.00231293
0.0023796
0.00240347
0.00240639
0.00239374
0.00236166
0.00230468
0.00222488
0.00213651
0.00205569
0.00201667
0.00200242
0.00199767
0.00199604
0.00199548
0.00199547
0.001996
0.00199762
0.00200234
0.00201656
0.00205554
0.00213624
0.0022245
0.0023037
0.0023583
0.00238247
0.00237234
0.00231127
0.0021547
0.00180945
0.00112795
0.00112773
0.0018092
0.00215471
0.00231313
0.00238012
0.00240487
0.00240992
0.00240173
0.00237723
0.00232945
0.00225434
0.00215933
0.00206908
0.0020246
0.00200807
0.00200261
0.00200078
0.00200012
0.00200011
0.00200073
0.00200255
0.00200798
0.00202448
0.00206893
0.00215906
0.00225397
0.00232846
0.00237384
0.00239041
0.00237579
0.00231258
0.00215512
0.00180951
0.00112791
0.0011277
0.00180918
0.00215474
0.00231323
0.00238038
0.00240549
0.00241135
0.00240476
0.00238277
0.00233769
0.00226362
0.00216661
0.00207339
0.00202717
0.00200989
0.00200417
0.00200221
0.00200146
0.00200143
0.00200215
0.00200409
0.0020098
0.00202705
0.00207324
0.00216635
0.00226326
0.0023367
0.00237937
0.00239342
0.00237719
0.00231315
0.00215531
0.00180953
0.00112786
0.00112768
0.00180917
0.00215476
0.00231328
0.00238049
0.00240573
0.00241185
0.00240574
0.00238446
0.00234007
0.0022662
0.00216865
0.00207459
0.00202789
0.00201039
0.00200457
0.00200255
0.00200172
0.00200168
0.00200248
0.00200449
0.00201029
0.00202777
0.00207444
0.00216839
0.00226585
0.00233909
0.00238106
0.0023944
0.00237768
0.00231336
0.00215539
0.00180953
0.00112782
0.00112765
0.00180916
0.00215477
0.0023133
0.00238052
0.00240576
0.00241189
0.0024058
0.00238453
0.00234016
0.0022663
0.00216874
0.00207465
0.00202793
0.0020104
0.00200456
0.00200251
0.00200163
0.00200159
0.00200244
0.00200448
0.0020103
0.00202781
0.0020745
0.00216849
0.00226595
0.00233919
0.00238114
0.00239447
0.00237773
0.0023134
0.00215541
0.00180953
0.00112778
0.00112765
0.00180917
0.00215477
0.00231328
0.00238046
0.00240559
0.00241149
0.00240494
0.00238299
0.00233796
0.00226392
0.00216691
0.00207358
0.00202729
0.00200994
0.00200415
0.00200211
0.00200124
0.00200119
0.00200203
0.00200406
0.00200984
0.00202717
0.00207343
0.00216667
0.00226359
0.00233701
0.00237963
0.00239363
0.00237734
0.00231326
0.00215537
0.00180953
0.00112778
0.00112768
0.00180919
0.00215475
0.00231321
0.00238025
0.00240505
0.00241015
0.00240204
0.00237763
0.00232995
0.0022549
0.0021599
0.00206944
0.00202483
0.00200819
0.00200263
0.00200066
0.00199985
0.00199981
0.00200058
0.00200254
0.00200809
0.00202472
0.00206931
0.00215969
0.0022546
0.00232902
0.0023743
0.00239077
0.00237606
0.00231277
0.00215522
0.00180952
0.00112782
0.00112771
0.00180921
0.00215472
0.00231306
0.00237978
0.00240372
0.00240673
0.0023942
0.00236228
0.00230549
0.00222585
0.00213751
0.00205631
0.00201709
0.00200267
0.00199777
0.00199598
0.00199527
0.00199524
0.00199591
0.00199769
0.00200258
0.00201699
0.0020562
0.00213734
0.00222558
0.00230461
0.00235901
0.00238301
0.00237272
0.00231154
0.00215485
0.00180947
0.00112787
0.00112774
0.00180923
0.00215465
0.00231277
0.00237886
0.00240099
0.00239929
0.00237607
0.00232401
0.00223886
0.00214019
0.00207417
0.00202044
0.00199624
0.00198769
0.00198446
0.00198302
0.00198242
0.0019824
0.00198297
0.00198439
0.00198762
0.00199618
0.00202039
0.00207411
0.00214001
0.00223807
0.00232084
0.002365
0.00236543
0.00230896
0.00215409
0.00180935
0.0011279
0.00112776
0.00180925
0.00215455
0.00231233
0.0023774
0.00239646
0.00238619
0.00234155
0.00224292
0.00207611
0.0019011
0.0019169
0.0019388
0.00195011
0.00195399
0.0019541
0.00195327
0.00195277
0.00195276
0.00195324
0.00195404
0.00195393
0.00195005
0.00193879
0.001917
0.00190105
0.00207549
0.00223989
0.00233064
0.00235251
0.00230463
0.00215284
0.00180913
0.00112793
0.00112778
0.00180926
0.00215441
0.00231182
0.00237573
0.00239108
0.0023696
0.00229301
0.00210856
0.00173266
0.00128516
0.00158725
0.00179545
0.00187184
0.00189435
0.0018995
0.00189976
0.00189947
0.00189946
0.00189971
0.00189941
0.00189416
0.00187152
0.00179513
0.00158737
0.00128506
0.00173224
0.00210563
0.00228221
0.00233607
0.00229945
0.0021514
0.00180887
0.00112794
0.00112779
0.00180925
0.00215426
0.00231141
0.00237464
0.00238793
0.00235952
0.00225897
0.00198656
0.00130652
0.00123832
0.00166089
0.00179227
0.00182679
0.00183489
0.00183641
0.00183659
0.00183655
0.00183626
0.0018345
0.00182586
0.0017904
0.0016581
0.00123671
0.00130587
0.00198329
0.00224799
0.002326
0.00229645
0.00215056
0.00180874
0.00112794
0.00112779
0.00180912
0.00215393
0.00231099
0.00237463
0.00238991
0.00236871
0.00229323
0.00211132
0.00174017
0.00129162
0.00161594
0.00182741
0.0018985
0.00191724
0.00192207
0.00192324
0.00192346
0.00192338
0.00192289
0.00192096
0.0019141
0.00189118
0.00181467
0.0016048
0.00128807
0.00173608
0.00210612
0.00228143
0.00233498
0.00229855
0.00215088
0.00180876
0.00112794
0.00112772
0.00180851
0.00215263
0.00230935
0.0023737
0.00239255
0.00238301
0.00234101
0.00224865
0.00209369
0.00193573
0.00197761
0.0020127
0.00201209
0.00200666
0.0020039
0.00200301
0.00200276
0.00200264
0.00200239
0.00200164
0.00199955
0.00199375
0.00197767
0.0019439
0.00191297
0.00207991
0.00223919
0.00232762
0.00234894
0.00230157
0.00215088
0.00180845
0.0011279
0.00112745
0.00180607
0.00214787
0.00230302
0.00236721
0.00238867
0.00238801
0.00236899
0.00232693
0.00226048
0.00218957
0.00215477
0.0021129
0.00206218
0.0020374
0.00202861
0.00202602
0.00202534
0.00202518
0.00202518
0.00202546
0.00202686
0.00203253
0.00205083
0.00209486
0.00214801
0.00223665
0.00231312
0.00235417
0.00235411
0.00229914
0.00214724
0.00180627
0.00112764
0.00112639
0.00179757
0.00213246
0.00228287
0.00234483
0.00236682
0.00237081
0.0023638
0.00234543
0.00231412
0.0022723
0.00222462
0.00216229
0.00209735
0.0020662
0.0020552
0.00205198
0.00205116
0.002051
0.00205108
0.00205174
0.00205454
0.00206455
0.00209403
0.00215809
0.0022257
0.00228752
0.00233063
0.00234926
0.00233864
0.00228139
0.00213252
0.00179791
0.00112658
0.00112256
0.00177092
0.0020879
0.00222696
0.00228305
0.00230314
0.0023085
0.00230682
0.00229918
0.00228393
0.00225893
0.00222223
0.00217317
0.00212369
0.00209776
0.0020879
0.00208492
0.00208419
0.00208405
0.00208414
0.0020848
0.00208762
0.00209715
0.00212268
0.00217223
0.0022231
0.00226326
0.00228754
0.00229484
0.00228062
0.00222676
0.0020883
0.00177132
0.00112274
0.00111016
0.00169593
0.00197207
0.00208809
0.00213286
0.00214843
0.00215302
0.00215326
0.00215053
0.00214385
0.00213118
0.00211052
0.00208242
0.00205437
0.0020385
0.00203201
0.00202994
0.00202941
0.00202931
0.00202939
0.00202989
0.00203192
0.00203831
0.00205408
0.00208219
0.00211077
0.00213209
0.00214376
0.00214533
0.00213238
0.00208848
0.0019726
0.00169632
0.00111032
0.00107556
0.00150398
0.00169606
0.00177121
0.00179805
0.00180676
0.00180934
0.00180987
0.00180929
0.00180722
0.00180267
0.00179459
0.00178325
0.0017717
0.0017648
0.00176181
0.00176079
0.0017605
0.00176044
0.0017605
0.00176079
0.0017618
0.00176478
0.00177165
0.00178321
0.00179464
0.00180276
0.00180674
0.0018063
0.00179839
0.00177174
0.00169653
0.0015043
0.0010757
0.00100622
0.0010756
0.00111027
0.00112276
0.00112669
0.00112786
0.00112826
0.00112845
0.00112855
0.00112853
0.00112827
0.00112761
0.0011265
0.00112525
0.00112446
0.00112407
0.00112387
0.00112375
0.00112371
0.00112376
0.00112388
0.00112406
0.00112445
0.00112522
0.00112646
0.00112755
0.00112821
0.00112841
0.00112817
0.00112702
0.00112306
0.0011105
0.00107576
0.00100631
0.00142334
0.00171727
0.00186823
0.00192861
0.00194985
0.00195654
0.00195844
0.00195894
0.00195906
0.00195907
0.00195907
0.00195905
0.00195903
0.00195902
0.001959
0.00195899
0.00195898
0.00195897
0.00195897
0.00195897
0.00195898
0.001959
0.00195901
0.00195902
0.00195903
0.00195902
0.00195892
0.00195844
0.00195655
0.00194987
0.00192863
0.00186825
0.00171729
0.00142336
0.00171727
0.00310973
0.00363226
0.00385284
0.00393924
0.0039697
0.00397931
0.00398197
0.00398254
0.00398249
0.0039823
0.00398208
0.00398192
0.0039818
0.00398171
0.00398165
0.0039816
0.00398157
0.00398157
0.0039816
0.00398165
0.00398172
0.0039818
0.00398191
0.00398204
0.00398209
0.0039816
0.00397906
0.00396956
0.00393916
0.00385279
0.00363223
0.00310971
0.0017173
0.00186828
0.00363239
0.00431934
0.00462709
0.00475589
0.00480457
0.004821
0.0048258
0.00482674
0.00482647
0.00482592
0.00482546
0.00482521
0.00482511
0.00482508
0.00482505
0.00482502
0.004825
0.004825
0.00482503
0.00482506
0.0048251
0.00482512
0.00482521
0.00482539
0.0048255
0.00482473
0.00482029
0.00480422
0.00475578
0.00462711
0.0043194
0.00363246
0.00186835
0.00192871
0.00385305
0.0046272
0.00498709
0.00514377
0.00520537
0.00522677
0.00523274
0.00523303
0.00523129
0.00522923
0.00522779
0.00522708
0.0052269
0.00522691
0.00522687
0.00522679
0.00522675
0.00522675
0.00522681
0.00522689
0.00522694
0.00522693
0.00522709
0.00522768
0.00522862
0.0052288
0.00522409
0.00520396
0.00514323
0.004987
0.00462729
0.00385318
0.00192882
0.00194999
0.00393951
0.00475607
0.00514385
0.00531642
0.00538549
0.0054091
0.00541388
0.00541052
0.00540365
0.00539675
0.00539246
0.0053906
0.00539023
0.00539034
0.00539017
0.00538989
0.00538971
0.00538971
0.0053899
0.00539021
0.00539038
0.00539027
0.00539062
0.00539233
0.00539601
0.00540063
0.00539992
0.00538046
0.00531423
0.00514316
0.00475601
0.00393964
0.00195013
0.00195669
0.00396998
0.00480477
0.00520549
0.00538555
0.00545738
0.00547948
0.00547812
0.00546351
0.0054418
0.00542166
0.00541108
0.00540758
0.00540763
0.0054084
0.00540796
0.00540713
0.00540662
0.00540663
0.00540715
0.005408
0.00540845
0.00540769
0.00540761
0.00541095
0.00542085
0.00543852
0.00545202
0.00544222
0.0053787
0.005203
0.00480414
0.00396998
0.00195684
0.0019586
0.00397957
0.0048212
0.00522694
0.0054093
0.00547974
0.00549475
0.0054771
0.00543381
0.00537382
0.00532083
0.00530107
0.00529938
0.00530359
0.00530732
0.00530671
0.00530491
0.00530385
0.00530386
0.00530494
0.00530676
0.00530739
0.00530366
0.00529943
0.00530095
0.00532003
0.00537046
0.00542197
0.00544012
0.00539137
0.00522015
0.00481914
0.00397917
0.00195872
0.00195909
0.00398221
0.00482601
0.00523303
0.00541452
0.00547939
0.00547881
0.00542635
0.00531874
0.00516682
0.00503508
0.0050179
0.00503935
0.00506112
0.0050741
0.00507455
0.00507191
0.00507034
0.00507035
0.00507194
0.0050746
0.00507417
0.00506121
0.00503942
0.00501784
0.00503434
0.00516351
0.00530685
0.00538902
0.00537446
0.00521783
0.00482114
0.00398101
0.00195912
0.0019592
0.00398274
0.00482702
0.00523372
0.00541236
0.00546768
0.00544117
0.00532724
0.00509268
0.00472667
0.00438289
0.0044639
0.00459056
0.0046652
0.00469864
0.00470489
0.0047038
0.00470266
0.00470267
0.00470383
0.00470494
0.00469872
0.0046653
0.00459069
0.00446394
0.00438226
0.00472352
0.00508086
0.00528981
0.00533644
0.00520538
0.00481784
0.00398029
0.00195906
0.0019592
0.0039827
0.00482695
0.00523286
0.00540815
0.00545263
0.00539504
0.00519898
0.00475832
0.00388988
0.00253873
0.00349638
0.00398303
0.00417342
0.00423607
0.00425777
0.00426274
0.00426342
0.00426343
0.00426277
0.00425782
0.00423615
0.00417356
0.00398326
0.00349666
0.00253831
0.00388697
0.0047465
0.00516137
0.00528999
0.00518987
0.00481306
0.00397884
0.00195886
0.00195917
0.00398254
0.00482679
0.00523234
0.00540599
0.00544479
0.0053694
0.00511849
0.00449221
0.00260855
0.00228671
0.00349245
0.00379897
0.00388989
0.00391241
0.00391665
0.00391716
0.00391716
0.00391666
0.00391244
0.00388995
0.00379909
0.00349271
0.00228691
0.00260648
0.00448026
0.0050806
0.00526403
0.00518165
0.00481047
0.00397788
0.00195871
0.00195914
0.00398241
0.00482688
0.00523299
0.00540825
0.00545201
0.00539207
0.00519033
0.00473808
0.00384777
0.00248648
0.00334763
0.0038105
0.00399154
0.00405796
0.00406318
0.00406044
0.00405892
0.00405891
0.0040604
0.00406312
0.0040579
0.00399147
0.00381044
0.00334741
0.0024857
0.00384435
0.00472595
0.00515243
0.00528663
0.00518867
0.00481239
0.00397809
0.00195873
0.00195911
0.00398233
0.00482717
0.00523437
0.00541298
0.00546675
0.00543497
0.00530776
0.00504442
0.00462238
0.00418322
0.00413287
0.00414313
0.0041599
0.00417062
0.00416828
0.00416507
0.0041636
0.00416359
0.00416504
0.00416822
0.00417053
0.00415975
0.00414289
0.00413241
0.00418213
0.00461881
0.00503223
0.00526987
0.00532951
0.00520327
0.00481682
0.00397906
0.00195885
0.00195907
0.00398227
0.00482746
0.00523571
0.00541745
0.00548008
0.0054713
0.00539759
0.00524336
0.00500233
0.00472492
0.00451567
0.00434838
0.00427208
0.00424634
0.00423705
0.00423352
0.00423234
0.00423233
0.00423349
0.004237
0.00424625
0.00427192
0.00434813
0.00451524
0.00472387
0.00499872
0.0052311
0.00535962
0.00536572
0.00521639
0.00482098
0.00398002
0.00195895
0.00195903
0.00398222
0.00482767
0.00523663
0.00542043
0.00548861
0.00549332
0.00544816
0.0053443
0.00517024
0.00493559
0.00468012
0.0044465
0.00432915
0.00428609
0.00427253
0.00426856
0.00426751
0.00426751
0.00426854
0.00427249
0.00428602
0.00432901
0.00444627
0.0046798
0.00493458
0.00516663
0.00533198
0.00541008
0.00538759
0.0052247
0.00482369
0.00398064
0.00195899
0.00195899
0.00398217
0.00482777
0.00523715
0.00542203
0.005493
0.00550411
0.00547155
0.00538779
0.00523683
0.00501357
0.00474268
0.00448547
0.00435249
0.00430259
0.00428712
0.0042829
0.0042819
0.00428189
0.00428288
0.00428709
0.00430253
0.00435236
0.00448526
0.00474236
0.00501258
0.00523321
0.00537543
0.00543338
0.00539824
0.00522892
0.00482509
0.00398093
0.00195898
0.00195895
0.00398213
0.00482782
0.00523739
0.00542277
0.00549491
0.0055086
0.00548082
0.00540412
0.0052604
0.00503984
0.00476372
0.00449876
0.00436054
0.00430831
0.00429216
0.00428783
0.00428684
0.00428683
0.00428782
0.00429213
0.00430825
0.00436042
0.00449855
0.00476341
0.00503886
0.00525677
0.00539173
0.0054426
0.00540265
0.00523073
0.00482569
0.00398104
0.00195895
0.00195892
0.00398211
0.00482784
0.0052375
0.00542305
0.0054956
0.00551014
0.00548385
0.00540922
0.00526745
0.00504741
0.00476971
0.00450257
0.00436286
0.00430996
0.0042936
0.00428923
0.00428823
0.00428823
0.00428921
0.00429357
0.0043099
0.00436273
0.00450237
0.00476941
0.00504643
0.00526383
0.00539683
0.00544561
0.00540416
0.00523137
0.00482591
0.00398107
0.00195892
0.00195891
0.00398211
0.00482785
0.00523752
0.00542308
0.00549565
0.0055102
0.00548392
0.00540931
0.00526755
0.00504751
0.00476981
0.00450267
0.00436293
0.00431
0.00429362
0.00428925
0.00428824
0.00428824
0.00428923
0.0042936
0.00430994
0.0043628
0.00450247
0.00476952
0.00504654
0.00526394
0.00539693
0.00544569
0.00540421
0.0052314
0.00482593
0.00398107
0.0019589
0.00195891
0.00398212
0.00482784
0.00523745
0.00542286
0.00549504
0.00550877
0.00548103
0.00540439
0.00526071
0.00504018
0.00476405
0.0044991
0.00436079
0.00430847
0.00429228
0.00428793
0.00428692
0.00428691
0.00428792
0.00429226
0.00430842
0.00436067
0.00449892
0.00476377
0.00503922
0.00525712
0.00539203
0.00544284
0.00540283
0.00523084
0.00482575
0.00398104
0.0019589
0.00195894
0.00398215
0.00482781
0.00523724
0.00542219
0.00549322
0.00550441
0.00547194
0.00538829
0.00523744
0.00501425
0.00474337
0.00448618
0.00435303
0.004303
0.00428747
0.00428322
0.00428221
0.0042822
0.00428322
0.00428746
0.00430296
0.00435294
0.00448602
0.00474312
0.00501333
0.0052339
0.005376
0.00543382
0.00539856
0.00522912
0.00482518
0.00398093
0.00195891
0.00195897
0.0039822
0.00482772
0.00523677
0.00542065
0.00548893
0.00549376
0.00544875
0.00534511
0.0051713
0.00493685
0.00468142
0.00444779
0.00433018
0.00428695
0.00427334
0.00426936
0.00426832
0.00426833
0.00426938
0.00427335
0.00428696
0.00433015
0.00444771
0.00468124
0.004936
0.00516784
0.00533291
0.00541075
0.00538805
0.005225
0.00482383
0.00398063
0.00195891
0.001959
0.00398224
0.00482753
0.00523588
0.00541773
0.00548049
0.00547188
0.00539842
0.00524456
0.00500405
0.00472717
0.00451798
0.00435044
0.00427372
0.00424778
0.00423847
0.00423499
0.00423384
0.00423386
0.00423503
0.00423854
0.00424785
0.00427377
0.00435046
0.00451794
0.00472644
0.00500072
0.00523249
0.00536055
0.00536634
0.00521677
0.00482116
0.00398001
0.00195887
0.00195904
0.00398229
0.00482724
0.00523455
0.0054133
0.00546723
0.00543566
0.00530878
0.00504601
0.00462494
0.00418695
0.00413643
0.0041453
0.00416122
0.0041716
0.00416927
0.00416615
0.00416475
0.00416478
0.00416622
0.00416936
0.00417168
0.00416123
0.00414531
0.00413654
0.00418643
0.00462178
0.005034
0.00527095
0.0053302
0.00520369
0.00481702
0.00397904
0.00195876
0.00195907
0.00398232
0.00482688
0.00523309
0.00540848
0.00545239
0.00539265
0.00519123
0.0047396
0.00385076
0.00248956
0.0033493
0.00380791
0.00398666
0.00405187
0.00405676
0.00405404
0.0040526
0.00405262
0.00405407
0.0040567
0.00405152
0.00398576
0.00380664
0.00334911
0.00248911
0.00384772
0.0047272
0.00515304
0.00528704
0.00518894
0.00481249
0.003978
0.00195864
0.00195908
0.00398228
0.00482646
0.00523197
0.00540564
0.00544451
0.00536917
0.00511823
0.00449178
0.00260756
0.0022739
0.00346481
0.00376158
0.00384602
0.00386648
0.00387037
0.00387086
0.00387079
0.00387007
0.00386548
0.00384322
0.00375536
0.00345476
0.00226649
0.00260308
0.00447728
0.0050788
0.00526314
0.00518119
0.00481015
0.00397756
0.00195858
0.001959
0.00398174
0.0048253
0.00523062
0.00540555
0.00544981
0.0053919
0.00519499
0.00475227
0.00387968
0.00252179
0.00343422
0.00388546
0.00403861
0.00407765
0.00409313
0.00409756
0.00409843
0.00409824
0.00409663
0.00408993
0.00406821
0.00401594
0.00384491
0.00339177
0.00250137
0.00386039
0.00473085
0.00515275
0.0052852
0.00518698
0.00481123
0.00397772
0.00195861
0.00195854
0.00397919
0.00482067
0.00522505
0.00540216
0.00545648
0.00542881
0.00531216
0.00507052
0.00468717
0.00430431
0.00431555
0.00435164
0.00432975
0.00430704
0.004299
0.00429666
0.00429594
0.00429559
0.00429482
0.00429233
0.0042861
0.00427572
0.00424961
0.00420964
0.00422563
0.00463848
0.00503585
0.005265
0.00532132
0.0051952
0.00481104
0.00397647
0.00195835
0.00195666
0.0039697
0.00480452
0.00520453
0.00538146
0.00544359
0.00544052
0.00538309
0.00526274
0.00508011
0.00488351
0.00475358
0.00461723
0.00447076
0.00439548
0.00436826
0.0043602
0.0043581
0.00435761
0.00435759
0.00435834
0.00436289
0.00438234
0.00444292
0.00458168
0.0047578
0.00500402
0.00521528
0.00533173
0.00533384
0.00518702
0.00479898
0.00396817
0.00195664
0.00194998
0.00393931
0.00475605
0.00514365
0.00531477
0.005379
0.00538978
0.00536577
0.00530724
0.00521127
0.00508413
0.00493633
0.00475564
0.00457324
0.00448004
0.00444562
0.00443517
0.00443243
0.00443188
0.00443222
0.00443448
0.0044437
0.0044755
0.00456507
0.00474866
0.00494661
0.00512782
0.00525687
0.00531541
0.00528855
0.00513437
0.00475328
0.00393857
0.00195007
0.00192873
0.00385292
0.00462734
0.00498735
0.00514357
0.00520314
0.00521872
0.0052109
0.00518303
0.00513092
0.00504916
0.00493403
0.00478833
0.00464664
0.004569
0.0045381
0.004528
0.00452515
0.00452458
0.00452511
0.00452783
0.00453758
0.00456779
0.00464472
0.00478764
0.00493944
0.00506339
0.00514179
0.00516842
0.00513006
0.00498291
0.00462615
0.0038526
0.00192885
0.00186833
0.00363231
0.00431956
0.00462755
0.00475635
0.00480437
0.00481852
0.00481736
0.00480503
0.00477861
0.00473236
0.00466169
0.00457079
0.00448321
0.00443201
0.00441005
0.00440237
0.00440007
0.0043996
0.0044001
0.00440241
0.00441003
0.00443185
0.00448298
0.00457111
0.00466384
0.00473624
0.00477853
0.0047874
0.00475024
0.00462578
0.00431917
0.00363218
0.00186844
0.00171734
0.00310971
0.00363252
0.00385333
0.00393988
0.00397025
0.00397918
0.00397976
0.00397519
0.00396411
0.00394313
0.00390929
0.00386473
0.00382126
0.00379474
0.00378275
0.00377833
0.00377692
0.00377663
0.00377699
0.00377846
0.00378294
0.00379493
0.0038215
0.00386515
0.00391019
0.00394411
0.00396257
0.00396369
0.00393777
0.00385285
0.00363246
0.00310964
0.00171743
0.0014234
0.00171734
0.00186842
0.00192893
0.00195031
0.0019571
0.00195903
0.00195937
0.00195884
0.00195719
0.00195365
0.00194741
0.00193866
0.00192979
0.00192441
0.001922
0.00192109
0.00192078
0.0019207
0.00192079
0.00192112
0.00192203
0.00192444
0.00192981
0.00193868
0.00194748
0.00195372
0.00195679
0.0019565
0.00195034
0.00192912
0.00186858
0.00171743
0.00142349
0.0015324
0.00196565
0.00219686
0.00229484
0.00233177
0.00234424
0.00234802
0.00234905
0.00234927
0.00234927
0.00234922
0.00234915
0.00234909
0.00234905
0.00234901
0.00234899
0.00234896
0.00234895
0.00234895
0.00234896
0.00234898
0.00234901
0.00234904
0.00234908
0.00234912
0.00234913
0.00234893
0.00234795
0.0023442
0.00233175
0.00229484
0.00219686
0.00196565
0.00153243
0.00196564
0.00377805
0.00446602
0.00477122
0.00489796
0.00494549
0.00496141
0.00496607
0.00496707
0.00496694
0.0049665
0.00496604
0.00496567
0.0049654
0.00496522
0.00496507
0.00496497
0.00496492
0.00496492
0.00496497
0.00496507
0.00496521
0.00496539
0.00496563
0.00496592
0.00496605
0.00496521
0.00496078
0.00494507
0.00489769
0.00477102
0.00446587
0.00377794
0.00196564
0.00219691
0.00446618
0.00534969
0.00576222
0.00594411
0.0060168
0.00604271
0.0060506
0.0060521
0.00605145
0.00605022
0.00604913
0.00604839
0.00604799
0.00604779
0.00604763
0.00604751
0.00604744
0.00604744
0.00604751
0.00604764
0.00604779
0.00604799
0.00604835
0.00604893
0.00604938
0.00604825
0.00604106
0.00601584
0.00594364
0.00576202
0.00534961
0.00446614
0.00219695
0.00229496
0.00477149
0.00576236
0.00624039
0.0064589
0.00654943
0.00658249
0.00659199
0.00659225
0.00658898
0.00658495
0.00658174
0.00657979
0.0065789
0.00657855
0.00657824
0.00657796
0.00657781
0.00657781
0.00657797
0.00657826
0.00657856
0.00657891
0.00657975
0.00658146
0.00658374
0.00658449
0.00657723
0.00654642
0.00645748
0.00623986
0.00576223
0.0047715
0.00229503
0.00233193
0.00489831
0.00594434
0.006459
0.00669908
0.0068001
0.00683619
0.0068436
0.0068379
0.00682629
0.00681402
0.00680509
0.00680007
0.00679806
0.00679742
0.00679666
0.00679589
0.00679546
0.00679547
0.00679591
0.00679668
0.00679745
0.00679809
0.00680002
0.00680475
0.00681255
0.00682089
0.00682015
0.00679085
0.00669466
0.00645727
0.00594383
0.00489823
0.00233203
0.00234442
0.00494586
0.00601708
0.00654963
0.00680022
0.00690504
0.00693854
0.00693634
0.00691351
0.00687942
0.00684604
0.00682427
0.00681337
0.00680994
0.00680936
0.00680761
0.00680569
0.00680462
0.00680463
0.00680571
0.00680765
0.0068094
0.00680997
0.00681334
0.00682392
0.00684444
0.00687352
0.00689422
0.00687958
0.00678796
0.00654464
0.00601542
0.00494546
0.00234449
0.00234821
0.00496178
0.00604303
0.00658282
0.00683664
0.0069391
0.00696172
0.00693545
0.00687152
0.00678317
0.00670066
0.0066563
0.00663891
0.00663663
0.00663858
0.00663524
0.00663112
0.00662893
0.00662894
0.00663114
0.00663528
0.00663863
0.00663668
0.00663889
0.00665596
0.00669904
0.00677708
0.00685154
0.00687678
0.00680688
0.00657062
0.00603876
0.00496057
0.00234817
0.00234923
0.00496643
0.00605101
0.00659267
0.006845
0.00693893
0.00693875
0.00686372
0.00671278
0.0065022
0.00630992
0.00624382
0.00623612
0.00624793
0.00625983
0.00625532
0.00624855
0.00624512
0.00624513
0.00624857
0.00625536
0.00625989
0.006248
0.00623613
0.00624354
0.00630837
0.00649614
0.00669256
0.00680423
0.00678206
0.00656707
0.00604192
0.00496369
0.00234895
0.00234945
0.00496744
0.00605275
0.00659381
0.00684174
0.00692166
0.00688529
0.00672833
0.00641433
0.00593426
0.00546496
0.00546638
0.00555519
0.00561966
0.00565253
0.00565469
0.00564948
0.00564651
0.00564651
0.0056495
0.00565473
0.00565259
0.00561974
0.00555526
0.00546624
0.0054636
0.00592834
0.00639399
0.00666834
0.0067276
0.00654825
0.00603658
0.00496242
0.00234876
0.00234945
0.0049674
0.00605263
0.00659239
0.00683527
0.00689982
0.00682186
0.00656023
0.00599235
0.00489388
0.00310777
0.00413995
0.00464727
0.00483725
0.00487956
0.00492291
0.00493263
0.0049336
0.0049336
0.00493265
0.00492296
0.00487962
0.00483737
0.00464746
0.00414016
0.00310685
0.00488816
0.00597169
0.00649957
0.00666329
0.00652539
0.006029
0.00495994
0.00234829
0.00234939
0.00496716
0.00605232
0.00659146
0.00683183
0.00688842
0.00678719
0.00645808
0.00566607
0.00325791
0.00254234
0.00378566
0.00409769
0.00419403
0.00421205
0.00421394
0.00421376
0.00421377
0.00421396
0.00421208
0.0041941
0.00409783
0.00378592
0.00254254
0.00325348
0.00564495
0.00639677
0.00662795
0.0065133
0.00602485
0.00495832