/*--------------------------------*- C++ -*----------------------------------*\
| =========                 |                                                 |
| \\      /  F ield         | OpenFOAM: The Open Source CFD Toolbox           |
|  \\    /   O peration     | Version:  2112                                  |
|   \\  /    A nd           | Website:  www.openfoam.com                      |
|    \\/     M anipulation  |                                                 |
\*---------------------------------------------------------------------------*/
FoamFile
{
    version     2.0;
    format      ascii;
    arch        "LSB;label=32;scalar=64";
    class       volScalarField;
    location    "1.9";
    object      nut;
}
// * * * * * * * * * * * * * * * * * * * * * * * * * * * * * * * * * * * * * //

dimensions      [0 2 -1 0 0 0 0];

internalField   nonuniform List<scalar> 
64906
(
7.66588e-05
7.94551e-05
8.08559e-05
8.13728e-05
8.15393e-05
8.15879e-05
8.16013e-05
8.16052e-05
8.16067e-05
8.16075e-05
8.16082e-05
8.16086e-05
8.16089e-05
8.16089e-05
8.16088e-05
8.16084e-05
8.1608e-05
8.16075e-05
8.16072e-05
8.16075e-05
8.1608e-05
8.16083e-05
8.16084e-05
8.16084e-05
8.16081e-05
8.16075e-05
8.16062e-05
8.16025e-05
8.15892e-05
8.15406e-05
8.13741e-05
8.08573e-05
7.94565e-05
7.666e-05
7.9456e-05
9.44695e-05
0.000100633
0.000103035
0.000103916
0.000104212
0.000104302
0.000104327
0.000104334
0.000104336
0.000104337
0.000104337
0.000104338
0.000104339
0.00010434
0.00010434
0.000104341
0.000104341
0.000104341
0.000104341
0.00010434
0.00010434
0.000104339
0.000104338
0.000104337
0.000104335
0.000104329
0.000104304
0.000104215
0.000103919
0.000103038
0.000100636
9.44726e-05
7.94583e-05
8.08584e-05
0.000100635
0.000108894
0.000112302
0.000113646
0.000114133
0.000114292
0.000114339
0.000114351
0.000114352
0.000114351
0.000114352
0.000114354
0.000114357
0.000114359
0.000114361
0.000114362
0.000114363
0.000114363
0.000114363
0.000114362
0.00011436
0.000114357
0.000114354
0.000114352
0.000114349
0.000114338
0.000114293
0.000114136
0.000113651
0.000112307
0.000108899
0.00010064
8.08621e-05
8.13766e-05
0.000103038
0.000112303
0.000116272
0.000117906
0.000118524
0.000118734
0.000118793
0.0001188
0.000118789
0.000118776
0.00011877
0.00011877
0.000118774
0.000118779
0.000118782
0.000118784
0.000118784
0.000118785
0.000118784
0.000118783
0.00011878
0.000118775
0.000118771
0.00011877
0.000118772
0.000118768
0.000118719
0.00011852
0.000117909
0.000116278
0.000112311
0.000103045
8.13814e-05
8.15438e-05
0.000103921
0.000113649
0.000117908
0.000119703
0.000120396
0.000120628
0.000120678
0.000120652
0.000120593
0.000120536
0.000120507
0.000120501
0.000120506
0.000120515
0.000120518
0.000120518
0.000120518
0.000120518
0.000120519
0.000120519
0.000120516
0.000120508
0.000120502
0.000120507
0.000120531
0.000120567
0.000120555
0.00012036
0.000119692
0.00011791
0.000113656
0.000103928
8.15495e-05
8.15927e-05
0.000104216
0.000114136
0.000118526
0.000120397
0.000121118
0.000121337
0.000121329
0.000121193
0.000120988
0.000120801
0.00012072
0.000120706
0.000120723
0.000120742
0.000120744
0.00012074
0.000120737
0.000120738
0.000120741
0.000120745
0.000120743
0.000120724
0.000120708
0.000120721
0.000120796
0.00012096
0.000121088
0.000120988
0.000120345
0.000118513
0.000114139
0.000104224
8.15993e-05
8.16061e-05
0.000104306
0.000114295
0.000118736
0.00012063
0.000121339
0.000121491
0.000121321
0.000120894
0.000120289
0.000119758
0.000119613
0.000119641
0.000119713
0.00011977
0.000119773
0.00011976
0.000119752
0.000119752
0.00011976
0.000119774
0.000119772
0.000119715
0.000119643
0.000119614
0.000119752
0.000120261
0.000120786
0.000120971
0.000120474
0.000118685
0.000114288
0.000104312
8.16132e-05
8.16097e-05
0.000104331
0.000114342
0.000118795
0.000120682
0.000121339
0.000121335
0.000120809
0.000119695
0.000118066
0.000116621
0.000116629
0.000116978
0.000117267
0.000117435
0.000117449
0.000117427
0.000117415
0.000117415
0.000117428
0.00011745
0.000117437
0.00011727
0.00011698
0.00011663
0.000116616
0.000118038
0.000119587
0.000120456
0.000120311
0.000118667
0.00011431
0.000104332
8.16169e-05
8.16108e-05
0.000104337
0.000114353
0.000118805
0.000120665
0.000121227
0.000120958
0.000119772
0.000117221
0.000112988
0.00010874
0.000110416
0.000112196
0.000113142
0.000113558
0.000113629
0.000113622
0.000113614
0.000113615
0.000113623
0.00011363
0.00011356
0.000113145
0.0001122
0.000110419
0.000108737
0.000112962
0.000117115
0.000119419
0.000119931
0.000118549
0.000114283
0.000104328
8.16174e-05
8.16111e-05
0.000104338
0.000114355
0.000118799
0.000120628
0.00012108
0.00012048
0.000118363
0.00011328
0.000102433
8.78139e-05
9.8731e-05
0.000105391
0.000107831
0.000108622
0.00010884
0.000108891
0.000108901
0.000108901
0.000108892
0.000108842
0.000108624
0.000107834
0.000105395
9.87375e-05
8.78114e-05
0.000102411
0.000113176
0.00011801
0.000119451
0.000118399
0.000114241
0.000104318
8.1617e-05
8.1611e-05
0.000104338
0.000114356
0.000118798
0.000120612
0.000121006
0.000120208
0.000117411
0.000109756
8.8345e-05
8.57896e-05
9.96907e-05
0.000103729
0.000104825
0.000105102
0.000105161
0.000105171
0.000105171
0.000105161
0.000105103
0.000104827
0.000103732
9.96958e-05
8.57939e-05
8.83331e-05
0.000109653
0.000117056
0.000119176
0.000118321
0.000114221
0.000104312
8.16165e-05
8.16106e-05
0.000104338
0.000114359
0.000118808
0.00012064
0.000121092
0.000120477
0.000118314
0.000113123
0.000102058
8.74295e-05
9.71189e-05
0.000103418
0.000105672
0.000106344
0.000106519
0.000106536
0.00010653
0.00010653
0.000106535
0.000106518
0.000106343
0.000105671
0.000103418
9.71162e-05
8.74213e-05
0.000102027
0.000113014
0.000117957
0.000119443
0.000118404
0.000114245
0.000104316
8.16166e-05
8.16099e-05
0.000104338
0.000114363
0.000118824
0.000120692
0.000121249
0.000120944
0.000119646
0.000116827
0.000112043
0.000106854
0.00010703
0.000107522
0.000107808
0.000107915
0.000107925
0.000107906
0.000107894
0.000107894
0.000107906
0.000107924
0.000107913
0.000107805
0.000107518
0.000107024
0.000106839
0.000112009
0.000116716
0.000119288
0.000119909
0.00011856
0.000114293
0.000104327
8.16166e-05
8.1609e-05
0.000104337
0.000114368
0.00011884
0.000120739
0.000121388
0.000121326
0.000120619
0.000119074
0.000116574
0.000113641
0.00011156
0.000109883
0.000109123
0.000108856
0.00010876
0.000108721
0.000108706
0.000108706
0.00010872
0.000108759
0.000108853
0.00010912
0.000109879
0.000111554
0.000113627
0.00011654
0.000118961
0.00012026
0.00012029
0.000118695
0.000114335
0.000104336
8.1616e-05
8.16079e-05
0.000104337
0.000114371
0.00011885
0.00012077
0.000121475
0.000121553
0.000121149
0.00012016
0.000118441
0.000116052
0.000113389
0.000110948
0.000109743
0.000109296
0.000109147
0.000109096
0.000109078
0.000109078
0.000109094
0.000109145
0.000109294
0.00010974
0.000110943
0.000113381
0.000116039
0.000118407
0.000120047
0.000120787
0.000120514
0.00011878
0.000114363
0.000104342
8.16147e-05
8.16066e-05
0.000104337
0.000114372
0.000118857
0.000120787
0.00012152
0.000121662
0.000121388
0.000120614
0.00011915
0.000116895
0.00011406
0.000111353
0.000109985
0.000109467
0.000109295
0.000109237
0.000109217
0.000109216
0.000109236
0.000109293
0.000109465
0.000109982
0.000111348
0.000114052
0.000116883
0.000119116
0.0001205
0.000121026
0.000120622
0.000118822
0.000114378
0.000104345
8.16131e-05
8.16054e-05
0.000104336
0.000114373
0.00011886
0.000120796
0.00012154
0.000121708
0.000121482
0.000120781
0.000119394
0.00011717
0.000114281
0.000111488
0.000110066
0.000109524
0.000109343
0.000109282
0.000109259
0.000109258
0.00010928
0.000109341
0.000109521
0.000110063
0.000111483
0.000114273
0.000117158
0.00011936
0.000120667
0.00012112
0.000120666
0.000118841
0.000114384
0.000104345
8.16113e-05
8.16042e-05
0.000104336
0.000114374
0.000118862
0.000120799
0.000121548
0.000121724
0.000121514
0.000120833
0.000119467
0.000117249
0.000114344
0.000111527
0.00011009
0.00010954
0.000109356
0.000109293
0.000109267
0.000109266
0.000109291
0.000109354
0.000109537
0.000110086
0.000111522
0.000114337
0.000117237
0.000119433
0.000120719
0.000121151
0.000120682
0.000118848
0.000114387
0.000104346
8.16095e-05
8.16033e-05
0.000104336
0.000114374
0.000118862
0.0001208
0.000121549
0.000121725
0.000121515
0.000120836
0.00011947
0.000117252
0.000114347
0.000111528
0.000110091
0.000109541
0.000109356
0.000109292
0.000109265
0.000109263
0.000109289
0.000109353
0.000109538
0.000110087
0.000111524
0.000114339
0.00011724
0.000119436
0.000120721
0.000121152
0.000120684
0.000118849
0.000114387
0.000104346
8.1608e-05
8.16032e-05
0.000104336
0.000114374
0.000118861
0.000120798
0.000121543
0.000121712
0.000121487
0.000120787
0.000119402
0.000117179
0.00011429
0.000111494
0.00011007
0.000109526
0.000109343
0.000109279
0.000109252
0.000109251
0.000109276
0.00010934
0.000109523
0.000110066
0.000111489
0.000114282
0.000117168
0.000119369
0.000120674
0.000121125
0.000120671
0.000118844
0.000114386
0.000104345
8.1608e-05
8.16043e-05
0.000104336
0.000114374
0.000118859
0.000120791
0.000121525
0.000121669
0.000121397
0.000120625
0.000119164
0.000116912
0.000114077
0.000111364
0.000109993
0.000109471
0.000109295
0.000109234
0.000109209
0.000109208
0.000109231
0.000109293
0.000109468
0.000109989
0.00011136
0.00011407
0.000116901
0.000119132
0.000120513
0.000121036
0.000120629
0.000118828
0.000114381
0.000104345
8.16096e-05
8.16055e-05
0.000104337
0.000114372
0.000118854
0.000120775
0.000121482
0.000121562
0.000121162
0.000120178
0.000118464
0.00011608
0.000113419
0.000110967
0.000109756
0.000109304
0.00010915
0.000109094
0.000109072
0.000109071
0.000109092
0.000109147
0.000109301
0.000109753
0.000110963
0.000113413
0.000116071
0.000118433
0.000120067
0.000120802
0.000120525
0.000118787
0.000114367
0.000104343
8.16113e-05
8.16067e-05
0.000104337
0.00011437
0.000118844
0.000120746
0.000121397
0.000121339
0.000120637
0.000119099
0.00011661
0.000113687
0.000111602
0.000109913
0.000109142
0.000108868
0.000108766
0.000108723
0.000108705
0.000108704
0.000108721
0.000108764
0.000108866
0.00010914
0.000109911
0.0001116
0.00011368
0.000116581
0.000118991
0.00012028
0.000120304
0.000118705
0.000114341
0.000104337
8.16127e-05
8.16078e-05
0.000104338
0.000114366
0.00011883
0.0001207
0.000121261
0.00012096
0.000119668
0.000116861
0.000112095
0.00010693
0.000107092
0.000107553
0.000107823
0.00010792
0.000107924
0.000107902
0.000107887
0.000107887
0.000107901
0.000107923
0.000107918
0.00010782
0.000107553
0.000107095
0.000106927
0.000112071
0.000116755
0.000119314
0.000119927
0.000118572
0.0001143
0.000104329
8.16136e-05
8.16086e-05
0.000104338
0.000114362
0.000118814
0.000120649
0.000121103
0.000120493
0.000118338
0.000113162
0.000102125
8.74798e-05
9.7154e-05
0.000103391
0.000105618
0.000106273
0.000106439
0.000106452
0.000106445
0.000106444
0.000106451
0.000106436
0.000106266
0.000105607
0.000103379
9.71574e-05
8.74754e-05
0.000102106
0.000113055
0.000117982
0.000119461
0.000118417
0.000114253
0.000104319
8.16138e-05
8.1609e-05
0.000104337
0.000114357
0.0001188
0.000120616
0.000121013
0.000120218
0.000117423
0.00010977
8.83505e-05
8.56632e-05
9.94011e-05
0.000103345
0.000104375
0.000104626
0.000104675
0.000104682
0.00010468
0.00010467
0.000104612
0.000104343
0.00010328
9.9301e-05
8.55954e-05
8.83206e-05
0.000109647
0.000117058
0.000119183
0.000118329
0.000114226
0.000104314
8.16139e-05
8.16087e-05
0.000104332
0.000114345
0.000118786
0.000120614
0.000121067
0.000120468
0.000118349
0.000113257
0.00010239
8.77444e-05
9.81589e-05
0.000104438
0.000106475
0.000107009
0.00010715
0.000107186
0.000107193
0.00010719
0.000107174
0.000107114
0.000106905
0.000106234
0.000104013
9.77547e-05
8.7594e-05
0.000102234
0.000113071
0.000117959
0.000119428
0.000118388
0.000114235
0.000104314
8.16141e-05
8.16057e-05
0.000104309
0.0001143
0.000118732
0.000120581
0.000121138
0.000120863
0.000119659
0.000117051
0.000112667
0.000108067
0.000109013
0.000109838
0.000109727
0.000109533
0.00010944
0.000109411
0.000109403
0.000109399
0.000109391
0.000109368
0.000109307
0.000109153
0.000108745
0.000107932
0.000107308
0.000112209
0.000116734
0.000119221
0.000119816
0.000118473
0.000114233
0.000104302
8.16121e-05
8.15929e-05
0.000104221
0.000114144
0.000118532
0.000120378
0.000121013
0.000120993
0.000120428
0.000119203
0.000117287
0.000115206
0.000114046
0.000112709
0.000111162
0.000110397
0.000110122
0.00011004
0.000110018
0.000110012
0.000110012
0.000110021
0.000110067
0.000110252
0.000110839
0.000112231
0.000113926
0.000116539
0.000118757
0.000119949
0.000119953
0.000118394
0.000114115
0.000104224
8.15999e-05
8.15445e-05
0.000103926
0.00011366
0.000117921
0.000119708
0.000120362
0.000120481
0.000120261
0.000119699
0.000118754
0.000117488
0.000116022
0.000114144
0.000112202
0.000111252
0.000110909
0.000110807
0.00011078
0.000110775
0.000110778
0.000110799
0.000110888
0.000111202
0.000112108
0.000114037
0.000116079
0.00011793
0.000119223
0.000119791
0.000119494
0.000117861
0.000113655
0.000103935
8.15518e-05
8.1378e-05
0.000103045
0.000112316
0.00011629
0.000117925
0.000118531
0.000118695
0.000118636
0.000118386
0.0001179
0.000117114
0.000115979
0.000114489
0.000112997
0.000112202
0.000111893
0.000111798
0.000111774
0.000111769
0.000111772
0.000111794
0.000111885
0.000112184
0.000112969
0.000114467
0.000116013
0.000117246
0.000118004
0.000118243
0.000117832
0.000116274
0.000112325
0.000103057
8.13851e-05
8.08608e-05
0.000100643
0.000108908
0.000112322
0.000113671
0.000114158
0.000114306
0.000114309
0.000114211
0.000113981
0.000113557
0.000112885
0.00011199
0.000111107
0.000110601
0.00011039
0.000110321
0.000110303
0.0001103
0.000110302
0.00011032
0.000110388
0.000110595
0.000111099
0.000111985
0.000112896
0.000113587
0.000113976
0.000114038
0.000113645
0.000112329
0.000108922
0.000100655
8.08673e-05
7.94592e-05
9.44775e-05
0.000100647
0.000103054
0.000103942
0.000104242
0.000104333
0.00010435
0.000104324
0.000104242
0.00010407
0.000103775
0.00010337
0.000102965
0.00010272
0.000102613
0.000102575
0.000102564
0.000102562
0.000102565
0.000102575
0.000102613
0.00010272
0.000102963
0.00010337
0.000103777
0.000104074
0.000104224
0.000104215
0.000103948
0.00010307
0.000100662
9.44883e-05
7.94647e-05
7.66617e-05
7.94607e-05
8.08656e-05
8.13865e-05
8.1557e-05
8.161e-05
8.16279e-05
8.16357e-05
8.16384e-05
8.16353e-05
8.1621e-05
8.15878e-05
8.15355e-05
8.14777e-05
8.14412e-05
8.14232e-05
8.14145e-05
8.14095e-05
8.14075e-05
8.14098e-05
8.14148e-05
8.14232e-05
8.14407e-05
8.14766e-05
8.15338e-05
8.15858e-05
8.16186e-05
8.163e-05
8.1621e-05
8.15702e-05
8.13985e-05
8.08751e-05
7.94672e-05
7.66656e-05
0.000118022
0.000130217
0.000136212
0.000138629
0.000139509
0.000139799
0.000139885
0.000139909
0.000139914
0.000139915
0.000139914
0.000139913
0.000139913
0.000139912
0.000139911
0.000139911
0.00013991
0.00013991
0.00013991
0.00013991
0.00013991
0.000139911
0.000139912
0.000139912
0.000139913
0.000139912
0.000139907
0.000139885
0.000139799
0.00013951
0.00013863
0.000136213
0.000130218
0.000118023
0.000130217
0.000367606
0.000443653
0.000473657
0.000485574
0.000489949
0.000491389
0.000491801
0.000491886
0.000491872
0.000491831
0.000491788
0.000491753
0.000491727
0.000491708
0.000491694
0.000491684
0.000491678
0.000491678
0.000491684
0.000491694
0.000491709
0.000491727
0.000491751
0.000491779
0.000491795
0.000491724
0.000491332
0.000489911
0.000485548
0.000473637
0.000443635
0.000367594
0.000130218
0.000136214
0.000443674
0.000550161
0.00059463
0.000613378
0.000620727
0.000623313
0.000624093
0.000624244
0.000624187
0.000624078
0.000623985
0.000623926
0.000623897
0.000623883
0.000623872
0.000623862
0.000623857
0.000623857
0.000623863
0.000623874
0.000623885
0.000623898
0.000623924
0.000623969
0.000624002
0.000623883
0.000623168
0.000620646
0.00061334
0.000594613
0.000550151
0.00044367
0.000136217
0.000138633
0.00047369
0.000594645
0.000647094
0.000670069
0.000679427
0.000682809
0.000683777
0.000683812
0.000683499
0.000683121
0.000682833
0.000682671
0.000682607
0.000682589
0.000682568
0.000682545
0.000682531
0.000682532
0.000682546
0.00068257
0.000682593
0.00068261
0.000682669
0.000682809
0.000683007
0.000683061
0.00068231
0.000679147
0.000669942
0.000647047
0.000594631
0.000473689
0.000138637
0.000139515
0.000485612
0.000613401
0.000670079
0.000695465
0.000705981
0.000709709
0.000710473
0.000709902
0.000708739
0.000707537
0.000706711
0.000706278
0.000706135
0.000706109
0.000706046
0.000705974
0.000705933
0.000705933
0.000705976
0.00070605
0.000706114
0.000706139
0.000706277
0.000706682
0.000707397
0.000708207
0.000708112
0.000705073
0.00069504
0.000669916
0.000613352
0.000485604
0.00013952
0.000139805
0.000489988
0.000620754
0.000679443
0.000705991
0.000716934
0.000720406
0.000720176
0.000717815
0.000714302
0.000710927
0.000708927
0.000708011
0.000707807
0.000707845
0.000707683
0.000707486
0.000707377
0.000707378
0.000707488
0.000707687
0.000707851
0.000707813
0.000708011
0.000708897
0.000710775
0.00071372
0.000715868
0.000714354
0.00070477
0.000678958
0.000620595
0.000489952
0.00013981
0.000139891
0.000491426
0.000623341
0.000682835
0.000709745
0.000720455
0.00072279
0.000720014
0.000713254
0.000703849
0.000695172
0.000691498
0.000690344
0.000690502
0.000690952
0.000690607
0.000690165
0.000689937
0.000689938
0.000690168
0.000690612
0.000690959
0.00069051
0.000690346
0.000691471
0.000695022
0.000703256
0.000711246
0.000714005
0.000706714
0.000681621
0.00062293
0.000491319
0.000139895
0.000139915
0.000491835
0.000624126
0.000683831
0.000710594
0.000720411
0.00072032
0.000712263
0.000695812
0.000672128
0.000649938
0.000647698
0.000649401
0.000651745
0.000653615
0.000653051
0.000652294
0.000651937
0.000651938
0.000652297
0.000653056
0.000653623
0.000651753
0.000649406
0.000647679
0.000649802
0.00067155
0.0006938
0.000706192
0.000704072
0.000681239
0.000623238
0.000491591
0.000139914
0.00013992
0.000491918
0.000624294
0.000683943
0.000710246
0.00071857
0.000714538
0.000697239
0.000661167
0.000601201
0.000533445
0.000560746
0.000580314
0.000590207
0.000595299
0.000594921
0.000594164
0.000593834
0.000593835
0.000594167
0.000594925
0.000595306
0.000590216
0.000580325
0.000560743
0.000533343
0.000600668
0.000659178
0.000691152
0.000698221
0.000679265
0.000622694
0.000491467
0.00013991
0.00013992
0.000491908
0.00062428
0.000683797
0.000709566
0.000716219
0.000707469
0.000677345
0.000605852
0.000445118
0.00015994
0.000394622
0.000486866
0.000515159
0.000524491
0.000525939
0.000526046
0.00052601
0.000526011
0.000526048
0.000525943
0.000524499
0.000515172
0.000486892
0.000394669
0.000159922
0.000444691
0.000603898
0.000671239
0.000691097
0.000676836
0.000621922
0.000491229
0.000139901
0.000139919
0.000491879
0.00062425
0.000683705
0.000709208
0.000714967
0.000703345
0.000663174
0.000548125
0.000162384
0.00015096
0.00040427
0.000455684
0.000467228
0.000470732
0.000471592
0.000471741
0.000471741
0.000471594
0.000470734
0.000467234
0.000455698
0.000404307
0.000150967
0.000162296
0.000546231
0.000657042
0.000686926
0.000675528
0.000621499
0.00049107
0.000139894
0.000139918
0.000491855
0.000624263
0.000683802
0.000709543
0.00071604
0.00070685
0.000675737
0.000602399
0.000438973
0.000157954
0.000371522
0.000452822
0.000475063
0.000477923
0.000483466
0.000485043
0.000485264
0.000485262
0.000485039
0.00048346
0.000477913
0.000475052
0.000452812
0.000371506
0.000157923
0.000438472
0.000600402
0.000669592
0.000690427
0.000676581
0.000621789
0.000491092
0.000139896
0.000139916
0.000491841
0.000624309
0.000684021
0.000710277
0.000718271
0.000713253
0.000693593
0.000652631
0.000583683
0.000501862
0.000504826
0.000500492
0.000499351
0.000498392
0.000499494
0.000499816
0.000499817
0.000499816
0.000499812
0.000499487
0.000498379
0.00049933
0.000500457
0.000504763
0.000501707
0.000583098
0.000650597
0.000687446
0.000696836
0.000678804
0.000622486
0.00049124
0.000139902
0.000139915
0.000491831
0.000624359
0.00068424
0.000710987
0.000720328
0.000718694
0.000706812
0.000682212
0.000643303
0.000596542
0.000560615
0.000527361
0.000514062
0.00050974
0.000508722
0.000508441
0.000508349
0.000508348
0.000508438
0.000508717
0.00050973
0.000514043
0.000527327
0.00056056
0.000596383
0.0006427
0.00068016
0.000700654
0.000702267
0.00068084
0.000623155
0.000491391
0.000139907
0.000139913
0.000491822
0.000624393
0.000684393
0.000711473
0.00072168
0.000722065
0.000714305
0.000696856
0.000667655
0.000627691
0.000582894
0.000539793
0.000521207
0.000514945
0.000513145
0.000512672
0.000512562
0.000512562
0.000512671
0.000513143
0.000514938
0.000521191
0.000539765
0.000582865
0.000627538
0.000667047
0.000694791
0.000708132
0.000705618
0.000682163
0.000623601
0.000491492
0.00013991
0.000139912
0.000491815
0.000624412
0.00068448
0.000711739
0.000722392
0.000723764
0.000717859
0.000703243
0.000677188
0.000638664
0.000591258
0.00054479
0.000524168
0.000517068
0.000514989
0.000514461
0.000514353
0.000514353
0.000514461
0.000514988
0.000517063
0.000524153
0.000544764
0.00059123
0.000638514
0.000676578
0.00070117
0.000711671
0.000707298
0.000682852
0.000623837
0.000491541
0.00013991
0.00013991
0.000491809
0.00062442
0.000684521
0.000711862
0.000722709
0.00072449
0.000719309
0.000705706
0.000680624
0.000642379
0.000594119
0.000546549
0.000525226
0.000517826
0.000515655
0.000515113
0.000515008
0.000515009
0.000515114
0.000515655
0.000517822
0.000525213
0.000546525
0.000594092
0.00064223
0.000680012
0.000703628
0.000713113
0.000708011
0.000683153
0.00062394
0.000491561
0.000139909
0.000139909
0.000491806
0.000624423
0.000684537
0.000711908
0.000722824
0.000724742
0.000719794
0.000706496
0.000681677
0.000643471
0.000594952
0.000547069
0.00052554
0.000518051
0.000515854
0.000515309
0.000515207
0.000515208
0.00051531
0.000515854
0.000518047
0.000525527
0.000547046
0.000594925
0.000643321
0.000681065
0.000704416
0.000713594
0.000708258
0.00068326
0.000623977
0.000491566
0.000139908
0.000139909
0.000491805
0.000624424
0.000684539
0.000711912
0.000722829
0.000724749
0.000719802
0.000706506
0.000681687
0.00064348
0.000594961
0.000547083
0.000525549
0.000518056
0.000515858
0.000515313
0.000515212
0.000515213
0.000515314
0.000515858
0.000518053
0.000525537
0.00054706
0.000594935
0.000643332
0.000681076
0.000704427
0.000713603
0.000708265
0.000683264
0.000623979
0.000491565
0.000139907
0.000139909
0.000491807
0.000624422
0.000684527
0.000711873
0.000722725
0.00072451
0.000719334
0.000705736
0.000680657
0.000642412
0.000594151
0.000546595
0.000525258
0.000517848
0.000515674
0.000515133
0.000515031
0.000515032
0.000515135
0.000515676
0.000517846
0.000525247
0.000546574
0.000594126
0.000642265
0.000680049
0.000703662
0.000713141
0.000708032
0.000683166
0.000623946
0.000491559
0.000139907
0.00013991
0.000491812
0.000624416
0.000684491
0.000711757
0.000722418
0.000723798
0.000717904
0.000703299
0.000677253
0.000638733
0.000591327
0.000544885
0.000524241
0.000517126
0.000515044
0.000514518
0.000514414
0.000514416
0.000514522
0.000515047
0.000517127
0.000524234
0.000544869
0.000591305
0.00063859
0.000676652
0.000701234
0.000711722
0.000707335
0.000682875
0.000623847
0.000491539
0.000139907
0.000139911
0.000491818
0.000624399
0.000684409
0.000711499
0.000721717
0.000722116
0.000714374
0.000696947
0.000667771
0.000627826
0.000583033
0.000539968
0.000521352
0.000515073
0.000513272
0.000512805
0.000512702
0.000512704
0.000512811
0.00051328
0.00051508
0.000521353
0.00053996
0.000583017
0.000627691
0.000667181
0.000694897
0.00070821
0.000705673
0.000682198
0.000623617
0.000491488
0.000139906
0.000139912
0.000491824
0.000624365
0.000684259
0.00071102
0.000720377
0.000718762
0.000706907
0.000682349
0.000643502
0.00059681
0.000560899
0.000527644
0.0005143
0.000509964
0.000508948
0.000508678
0.000508597
0.000508601
0.000508688
0.000508962
0.000509979
0.000514311
0.00052765
0.000560899
0.000596693
0.000642935
0.00068032
0.000700762
0.000702339
0.000680884
0.000623174
0.000491386
0.000139904
0.000139914
0.000491831
0.000624314
0.00068404
0.000710312
0.000718324
0.000713329
0.000693707
0.000652816
0.000584005
0.000502368
0.000505318
0.000500801
0.000499557
0.000498574
0.000499674
0.000500015
0.000500033
0.000500037
0.000500028
0.000499694
0.000498591
0.000499564
0.000500806
0.000505349
0.000502296
0.000583484
0.000650804
0.000687564
0.00069691
0.000678849
0.000622504
0.000491229
0.000139898
0.000139915
0.000491836
0.000624254
0.000683803
0.000709556
0.000716069
0.0007069
0.000675823
0.000602576
0.000439391
0.000158061
0.000371848
0.000452484
0.000474408
0.000477095
0.000482608
0.00048421
0.000484452
0.000484455
0.000484219
0.000482607
0.000477046
0.000474289
0.000452338
0.000371946
0.000158042
0.000438994
0.000600536
0.000669621
0.000690443
0.000676594
0.000621787
0.000491067
0.000139892
0.000139915
0.00049183
0.000624182
0.000683619
0.000709113
0.000714872
0.000703247
0.000663063
0.00054801
0.000162341
0.000150444
0.000400523
0.000450549
0.000461219
0.000464486
0.000465328
0.000465485
0.000465478
0.000465291
0.000464357
0.000460846
0.000449721
0.000399264
0.000150153
0.000162158
0.000545744
0.000656663
0.000686705
0.000675404
0.000621419
0.000491002
0.000139889
0.000139911
0.000491743
0.000623984
0.000683388
0.000709077
0.000715675
0.000706852
0.00067657
0.000604771
0.000443733
0.000159259
0.000385713
0.000472284
0.000494877
0.000500624
0.000501472
0.000501641
0.000501676
0.00050165
0.000501514
0.000501028
0.00049929
0.000491578
0.00046619
0.000379978
0.000158485
0.000441177
0.000601251
0.00066965
0.00069018
0.000676282
0.000621578
0.000491028
0.000139889
0.000139889
0.000491345
0.000623225
0.00068247
0.000708493
0.000716622
0.000712362
0.000694566
0.000657283
0.000594567
0.000521102
0.000536748
0.000541531
0.000534798
0.000530715
0.000528954
0.000528397
0.000528244
0.000528195
0.000528142
0.000528012
0.000527662
0.000526385
0.000524003
0.000519223
0.000508853
0.000586492
0.000651341
0.000686746
0.000695537
0.000677486
0.000621528
0.000490838
0.000139877
0.000139803
0.000489922
0.000620683
0.000679227
0.00070522
0.000714547
0.00071399
0.000705022
0.000686318
0.000657348
0.000624172
0.00060247
0.000576096
0.000546456
0.000533988
0.000529862
0.000528685
0.000528386
0.00052832
0.000528326
0.000528474
0.000529227
0.000532248
0.000542923
0.000571437
0.000602154
0.000643996
0.000678001
0.000696425
0.00069728
0.000676181
0.000619655
0.000489609
0.0001398
0.000139514
0.000485559
0.000613369
0.00066999
0.000695098
0.000704763
0.000706337
0.000702395
0.000692905
0.000677167
0.000655523
0.000629259
0.000595642
0.000560213
0.000545066
0.000539992
0.000538517
0.000538137
0.000538061
0.00053811
0.000538427
0.000539743
0.00054447
0.00055921
0.000594943
0.000630965
0.000662349
0.000684025
0.000693945
0.00069051
0.000668287
0.00061281
0.000485379
0.000139516
0.000138634
0.000473645
0.000594636
0.000647082
0.000669949
0.000678922
0.000681274
0.000679874
0.00067513
0.000666251
0.000652101
0.000631822
0.000605771
0.000580076
0.000567483
0.000562805
0.000561318
0.000560898
0.000560813
0.000560894
0.000561299
0.000562742
0.000567335
0.000579866
0.000605798
0.00063276
0.000654336
0.000667883
0.000672773
0.000667474
0.000646212
0.000594361
0.000473544
0.000138638
0.000136216
0.000443637
0.000550163
0.000594654
0.000613378
0.000620585
0.000622741
0.000622456
0.000620281
0.000615691
0.000607676
0.000595439
0.000579691
0.000564519
0.000556185
0.000552753
0.00055157
0.000551213
0.00055114
0.00055122
0.000551579
0.000552757
0.000556174
0.000564511
0.000579785
0.000595818
0.000608304
0.000615665
0.0006175
0.000612207
0.00059427
0.000550046
0.000443578
0.000136221
0.00013022
0.000367585
0.000443667
0.000473694
0.000485617
0.000489957
0.000491261
0.000491298
0.000490499
0.000488635
0.000485173
0.000479666
0.00047249
0.000465541
0.000461418
0.000459584
0.000458905
0.000458686
0.000458641
0.000458699
0.000458929
0.000459617
0.000461457
0.000465591
0.000472576
0.000479829
0.000485341
0.000488408
0.000488774
0.000485194
0.000473564
0.000443623
0.000367548
0.000130223
0.000118025
0.00013022
0.00013622
0.000138642
0.000139527
0.00013982
0.000139907
0.00013992
0.000139893
0.000139812
0.000139645
0.00013936
0.000138971
0.000138582
0.000138344
0.000138236
0.000138196
0.000138182
0.000138178
0.000138182
0.000138197
0.000138238
0.000138345
0.000138582
0.000138972
0.000139364
0.000139649
0.000139793
0.000139786
0.000139524
0.000138648
0.000136226
0.000130223
0.000118029
0.000122621
0.000139659
0.00014814
0.000151717
0.000153103
0.000153591
0.000153746
0.00015379
0.0001538
0.0001538
0.000153797
0.000153794
0.000153792
0.00015379
0.000153788
0.000153787
0.000153787
0.000153786
0.000153786
0.000153786
0.000153787
0.000153788
0.000153789
0.000153791
0.000153793
0.000153793
0.000153784
0.000153742
0.000153589
0.000153102
0.000151716
0.00014814
0.000139659
0.000122622
0.000139659
0.000471972
0.000588608
0.000636713
0.00065669
0.000664406
0.000667088
0.000667895
0.000668066
0.000668031
0.000667938
0.000667839
0.000667759
0.0006677
0.000667658
0.000667626
0.000667604
0.000667592
0.000667592
0.000667603
0.000667625
0.000667656
0.000667696
0.000667751
0.000667815
0.000667851
0.000667712
0.00066695
0.000664311
0.000656622
0.000636659
0.000588561
0.000471939
0.000139659
0.000148142
0.000588641
0.000760073
0.00083485
0.00086752
0.000880844
0.000885737
0.000887268
0.000887556
0.00088741
0.000887143
0.000886897
0.000886725
0.000886629
0.000886579
0.00088654
0.000886509
0.000886493
0.000886493
0.00088651
0.00088654
0.000886579
0.000886628
0.000886715
0.000886852
0.000886964
0.000886757
0.000885374
0.000880625
0.000867401
0.000834782
0.000760027
0.000588612
0.000148143
0.000151721
0.000636766
0.000834876
0.000924544
0.00096512
0.000982234
0.000988651
0.000990531
0.000990564
0.000989866
0.000988987
0.000988255
0.00098778
0.000987552
0.000987456
0.000987372
0.000987299
0.000987259
0.000987259
0.0009873
0.000987374
0.000987459
0.000987552
0.000987768
0.00098819
0.000988725
0.000988925
0.000987513
0.000981566
0.000964785
0.000924392
0.000834805
0.000636735
0.000151723
0.000153108
0.000656753
0.000867563
0.000965139
0.00101023
0.00102954
0.0010366
0.00103805
0.00103686
0.00103443