/*--------------------------------*- C++ -*----------------------------------*\
| =========                 |                                                 |
| \\      /  F ield         | OpenFOAM: The Open Source CFD Toolbox           |
|  \\    /   O peration     | Version:  2112                                  |
|   \\  /    A nd           | Website:  www.openfoam.com                      |
|    \\/     M anipulation  |                                                 |
\*---------------------------------------------------------------------------*/
FoamFile
{
    version     2.0;
    format      ascii;
    arch        "LSB;label=32;scalar=64";
    class       volScalarField;
    location    "1.9";
    object      p;
}
// * * * * * * * * * * * * * * * * * * * * * * * * * * * * * * * * * * * * * //

dimensions      [0 2 -2 0 0 0 0];

internalField   nonuniform List<scalar> 
64906
(
-8.11832e-06
-8.09834e-06
-8.09603e-06
-8.11652e-06
-8.16402e-06
-8.23827e-06
-8.33973e-06
-8.46892e-06
-8.62426e-06
-8.80251e-06
-8.99565e-06
-9.19581e-06
-9.38933e-06
-9.56834e-06
-9.72365e-06
-9.85094e-06
-9.94652e-06
-1.00089e-05
-1.00373e-05
-1.00318e-05
-9.99352e-06
-9.92419e-06
-9.82775e-06
-9.70863e-06
-9.57623e-06
-9.43829e-06
-9.30853e-06
-9.19442e-06
-9.1036e-06
-9.03866e-06
-9.00086e-06
-8.98944e-06
-8.99919e-06
-9.02201e-06
-8.05542e-06
-7.95907e-06
-7.89124e-06
-7.8531e-06
-7.85234e-06
-7.88613e-06
-7.94954e-06
-8.0383e-06
-8.14778e-06
-8.27453e-06
-8.40963e-06
-8.54863e-06
-8.67901e-06
-8.79888e-06
-8.90162e-06
-8.98687e-06
-9.05267e-06
-9.09914e-06
-9.12604e-06
-9.13348e-06
-9.12197e-06
-9.09159e-06
-9.04451e-06
-8.98115e-06
-8.90833e-06
-8.82791e-06
-8.75304e-06
-8.68884e-06
-8.64639e-06
-8.63228e-06
-8.65462e-06
-8.71798e-06
-8.81405e-06
-8.93696e-06
-8.04382e-06
-7.89748e-06
-7.78032e-06
-7.69847e-06
-7.66409e-06
-7.67099e-06
-7.71191e-06
-7.78224e-06
-7.87728e-06
-7.99533e-06
-8.12431e-06
-8.26107e-06
-8.38192e-06
-8.48899e-06
-8.57486e-06
-8.64471e-06
-8.69822e-06
-8.73774e-06
-8.76361e-06
-8.77594e-06
-8.77465e-06
-8.75758e-06
-8.72528e-06
-8.67267e-06
-8.60756e-06
-8.52789e-06
-8.45878e-06
-8.40464e-06
-8.38154e-06
-8.39667e-06
-8.4615e-06
-8.58307e-06
-8.74571e-06
-8.935e-06
-8.08415e-06
-7.89684e-06
-7.73636e-06
-7.61642e-06
-7.55547e-06
-7.54706e-06
-7.58365e-06
-7.6627e-06
-7.78192e-06
-7.945e-06
-8.13347e-06
-8.34393e-06
-8.51907e-06
-8.66569e-06
-8.77248e-06
-8.85464e-06
-8.91369e-06
-8.95536e-06
-8.9806e-06
-8.9895e-06
-8.98137e-06
-8.95065e-06
-8.89621e-06
-8.80291e-06
-8.68293e-06
-8.52951e-06
-8.40282e-06
-8.30768e-06
-8.26876e-06
-8.29017e-06
-8.38333e-06
-8.55269e-06
-8.77321e-06
-9.017e-06
-8.18819e-06
-7.96763e-06
-7.77506e-06
-7.62936e-06
-7.55575e-06
-7.54957e-06
-7.60582e-06
-7.72824e-06
-7.92205e-06
-8.20455e-06
-8.54894e-06
-8.95428e-06
-9.27668e-06
-9.53444e-06
-9.71061e-06
-9.84077e-06
-9.92824e-06
-9.98394e-06
-1.00092e-05
-1.00041e-05
-9.96745e-06
-9.88856e-06
-9.76461e-06
-9.5601e-06
-9.29358e-06
-8.94641e-06
-8.66818e-06
-8.45968e-06
-8.35633e-06
-8.35082e-06
-8.44899e-06
-8.64835e-06
-8.91052e-06
-9.20008e-06
-8.35539e-06
-8.10258e-06
-7.88496e-06
-7.72382e-06
-7.65093e-06
-7.6643e-06
-7.76378e-06
-7.96424e-06
-8.28594e-06
-8.77455e-06
-9.40088e-06
-1.01921e-05
-1.07841e-05
-1.12398e-05
-1.15394e-05
-1.17582e-05
-1.19e-05
-1.19835e-05
-1.20095e-05
-1.19781e-05
-1.18884e-05
-1.17218e-05
-1.14752e-05
-1.10733e-05
-1.05386e-05
-9.8066e-06
-9.25391e-06
-8.84645e-06
-8.62607e-06
-8.55943e-06
-8.64002e-06
-8.85424e-06
-9.14936e-06
-9.48485e-06
-8.58149e-06
-8.29192e-06
-8.05226e-06
-7.88298e-06
-7.82229e-06
-7.87074e-06
-8.03416e-06
-8.34213e-06
-8.8384e-06
-9.62336e-06
-1.06657e-05
-1.21822e-05
-1.31894e-05
-1.39334e-05
-1.44065e-05
-1.47526e-05
-1.49729e-05
-1.50975e-05
-1.51252e-05
-1.50559e-05
-1.48906e-05
-1.45989e-05
-1.41802e-05
-1.34903e-05
-1.25422e-05
-1.10828e-05
-1.01284e-05
-9.43175e-06
-9.04707e-06
-8.88966e-06
-8.93376e-06
-9.1522e-06
-9.47774e-06
-9.8673e-06
-8.86172e-06
-8.52524e-06
-8.26497e-06
-8.09463e-06
-8.05874e-06
-8.15946e-06
-8.40729e-06
-8.84234e-06
-9.53665e-06
-1.06445e-05
-1.21719e-05
-1.50764e-05
-1.66102e-05
-1.77355e-05
-1.84414e-05
-1.89656e-05
-1.92977e-05
-1.94816e-05
-1.95123e-05
-1.93892e-05
-1.9117e-05
-1.86508e-05
-1.80015e-05
-1.69294e-05
-1.5456e-05
-1.2595e-05
-1.11903e-05
-1.01725e-05
-9.59734e-06
-9.32843e-06
-9.3176e-06
-9.52944e-06
-9.88337e-06
-1.03436e-05
-9.20075e-06
-8.78051e-06
-8.50959e-06
-8.34586e-06
-8.34789e-06
-8.51887e-06
-8.86947e-06
-9.44028e-06
-1.02928e-05
-1.17169e-05
-1.36369e-05
-1.92074e-05
-2.10285e-05
-2.25527e-05
-2.35213e-05
-2.42383e-05
-2.46944e-05
-2.49454e-05
-2.49803e-05
-2.47983e-05
-2.44096e-05
-2.37562e-05
-2.28474e-05
-2.13721e-05
-1.96154e-05
-1.40556e-05
-1.23467e-05
-1.09836e-05
-1.02522e-05
-9.85957e-06
-9.776e-06
-9.9686e-06
-1.03417e-05
-1.09142e-05
-9.55126e-06
-9.07853e-06
-8.78526e-06
-8.63697e-06
-8.70155e-06
-8.98371e-06
-9.49443e-06
-1.0232e-05
-1.13073e-05
-1.3799e-05
-1.1683e-05
-2.38732e-05
-2.58799e-05
-2.80775e-05
-2.94443e-05
-3.04675e-05
-3.11211e-05
-3.1472e-05
-3.15124e-05
-3.12415e-05
-3.06658e-05
-2.97156e-05
-2.84148e-05
-2.62633e-05
-2.4352e-05
-1.1986e-05
-1.44653e-05
-1.20263e-05
-1.10979e-05
-1.05485e-05
-1.03356e-05
-1.04765e-05
-1.08645e-05
-1.15461e-05
-9.91564e-06
-9.38752e-06
-9.07133e-06
-8.94334e-06
-9.08687e-06
-9.51457e-06
-1.02172e-05
-1.10662e-05
-1.19078e-05
-9.54464e-06
-3.5456e-05
-3.25376e-05
-3.39601e-05
-3.54028e-05
-3.66267e-05
-3.74498e-05
-3.78786e-05
-3.79252e-05
-3.7589e-05
-3.68567e-05
-3.57183e-05
-3.43498e-05
-3.29696e-05
-3.58058e-05
-1.06393e-05
-1.28367e-05
-1.20259e-05
-1.13366e-05
-1.09542e-05
-1.10155e-05
-1.14211e-05
-1.2202e-05
-1.02832e-05
-9.69776e-06
-9.36376e-06
-9.27065e-06
-9.53443e-06
-1.02236e-05
-1.14784e-05
-1.35245e-05
-1.69629e-05
-2.16081e-05
-3.24693e-05
-3.20306e-05
-3.58496e-05
-3.8985e-05
-4.15166e-05
-4.33928e-05
-4.45681e-05
-4.51438e-05
-4.51965e-05
-4.47264e-05
-4.36577e-05
-4.18888e-05
-3.94667e-05
-3.64444e-05
-3.27417e-05
-3.34383e-05
-2.24486e-05
-1.78409e-05
-1.44767e-05
-1.26178e-05
-1.17266e-05
-1.16035e-05
-1.19933e-05
-1.28735e-05
-1.06346e-05
-9.99038e-06
-9.63281e-06
-9.55705e-06
-9.89751e-06
-1.07397e-05
-1.22438e-05
-1.46036e-05
-1.81125e-05
-2.2522e-05
-2.9791e-05
-3.4149e-05
-3.85511e-05
-4.24114e-05
-4.55629e-05
-4.77838e-05
-4.91588e-05
-4.98259e-05
-4.98831e-05
-4.93309e-05
-4.80726e-05
-4.597e-05
-4.29391e-05
-3.91909e-05
-3.48834e-05
-3.06607e-05
-2.34172e-05
-1.90126e-05
-1.55724e-05
-1.34141e-05
-1.23123e-05
-1.21085e-05
-1.25187e-05
-1.35072e-05
-1.09571e-05
-1.02592e-05
-9.87751e-06
-9.80955e-06
-1.02008e-05
-1.11416e-05
-1.27943e-05
-1.53455e-05
-1.90586e-05
-2.3841e-05
-3.00361e-05
-3.52624e-05
-4.0447e-05
-4.48468e-05
-4.83752e-05
-5.07849e-05
-5.22587e-05
-5.2964e-05
-5.30243e-05
-5.24403e-05
-5.109e-05
-4.8806e-05
-4.54056e-05
-4.11224e-05
-3.60446e-05
-3.08988e-05
-2.47268e-05
-1.99602e-05
-1.63284e-05
-1.39987e-05
-1.27872e-05
-1.25503e-05
-1.2994e-05
-1.40811e-05
-1.12381e-05
-1.04931e-05
-1.00852e-05
-1.00113e-05
-1.04211e-05
-1.14015e-05
-1.31059e-05
-1.57129e-05
-1.94575e-05
-2.42832e-05
-3.01675e-05
-3.58689e-05
-4.15162e-05
-4.61605e-05
-4.98358e-05
-5.23009e-05
-5.37958e-05
-5.45047e-05
-5.4567e-05
-5.39834e-05
-5.26161e-05
-5.02803e-05
-4.6736e-05
-4.22073e-05
-3.666e-05
-3.1028e-05
-2.51722e-05
-2.03681e-05
-1.67154e-05
-1.43495e-05
-1.31216e-05
-1.29007e-05
-1.33935e-05
-1.45678e-05
-1.14712e-05
-1.06883e-05
-1.02568e-05
-1.01725e-05
-1.05866e-05
-1.15818e-05
-1.33033e-05
-1.59264e-05
-1.96719e-05
-2.45117e-05
-3.0354e-05
-3.62795e-05
-4.21559e-05
-4.69222e-05
-5.06563e-05
-5.31245e-05
-5.46092e-05
-5.53083e-05
-5.53721e-05
-5.48015e-05
-5.34475e-05
-5.11115e-05
-4.7511e-05
-4.28638e-05
-3.70954e-05
-3.12243e-05
-2.54092e-05
-2.05943e-05
-1.69501e-05
-1.45858e-05
-1.33703e-05
-1.31788e-05
-1.37182e-05
-1.49615e-05
-1.1652e-05
-1.08408e-05
-1.03903e-05
-1.02947e-05
-1.07062e-05
-1.17041e-05
-1.34287e-05
-1.60553e-05
-1.98021e-05
-2.46657e-05
-3.0537e-05
-3.6582e-05
-4.25816e-05
-4.74099e-05
-5.11679e-05
-5.36303e-05
-5.51039e-05
-5.5795e-05
-5.58603e-05
-5.53005e-05
-5.3961e-05
-5.16334e-05
-4.80108e-05
-4.33031e-05
-3.74136e-05
-3.14178e-05
-2.55731e-05
-2.07373e-05
-1.70992e-05
-1.4745e-05
-1.35489e-05
-1.3387e-05
-1.39648e-05
-1.52589e-05
-1.17791e-05
-1.09499e-05
-1.04871e-05
-1.03838e-05
-1.07934e-05
-1.17938e-05
-1.35234e-05
-1.61592e-05
-1.99202e-05
-2.4817e-05
-3.07341e-05
-3.6858e-05
-4.29347e-05
-4.78091e-05
-5.15902e-05
-5.40597e-05
-5.55342e-05
-5.62248e-05
-5.62911e-05
-5.57341e-05
-5.43996e-05
-5.20686e-05
-4.84234e-05
-4.36697e-05
-3.77027e-05
-3.16256e-05
-2.57347e-05
-2.08676e-05
-1.72197e-05
-1.48652e-05
-1.36786e-05
-1.35347e-05
-1.41367e-05
-1.54627e-05
-1.18519e-05
-1.1015e-05
-1.05473e-05
-1.04416e-05
-1.08525e-05
-1.18584e-05
-1.35989e-05
-1.62527e-05
-2.00392e-05
-2.49782e-05
-3.09449e-05
-3.71239e-05
-4.32516e-05
-4.8167e-05
-5.19737e-05
-5.4469e-05
-5.59591e-05
-5.66577e-05
-5.6724e-05
-5.61556e-05
-5.4822e-05
-5.2473e-05
-4.8798e-05
-4.40025e-05
-3.79828e-05
-3.18483e-05
-2.59067e-05
-2.09995e-05
-1.73254e-05
-1.49565e-05
-1.37654e-05
-1.3625e-05
-1.42355e-05
-1.55752e-05
-1.18711e-05
-1.10368e-05
-1.05715e-05
-1.04684e-05
-1.08836e-05
-1.18979e-05
-1.36549e-05
-1.63365e-05
-2.01693e-05
-2.51493e-05
-3.11698e-05
-3.7384e-05
-4.35384e-05
-4.84929e-05
-5.2351e-05
-5.48767e-05
-5.63934e-05
-5.71112e-05
-5.71886e-05
-5.6628e-05
-5.52412e-05
-5.2852e-05
-4.91402e-05
-4.43085e-05
-3.82605e-05
-3.20873e-05
-2.60877e-05
-2.11313e-05
-1.74156e-05
-1.5019e-05
-1.38101e-05
-1.3659e-05
-1.42628e-05
-1.5598e-05
-1.18382e-05
-1.10166e-05
-1.05603e-05
-1.04634e-05
-1.08829e-05
-1.19039e-05
-1.36766e-05
-1.63868e-05
-2.0268e-05
-2.53077e-05
-3.1408e-05
-3.76341e-05
-4.37708e-05
-4.87413e-05
-5.26256e-05
-5.52001e-05
-5.67552e-05
-5.74963e-05
-5.75753e-05
-5.6991e-05
-5.55853e-05
-5.31577e-05
-4.94176e-05
-4.45697e-05
-3.85355e-05
-3.2345e-05
-2.62621e-05
-2.12448e-05
-1.74745e-05
-1.50428e-05
-1.38085e-05
-1.36365e-05
-1.42202e-05
-1.55329e-05
-1.17559e-05
-1.09565e-05
-1.05136e-05
-1.0422e-05
-1.08384e-05
-1.18524e-05
-1.36232e-05
-1.63438e-05
-2.02691e-05
-2.53779e-05
-3.16434e-05
-3.78311e-05
-4.38551e-05
-4.87769e-05
-5.26488e-05
-5.52553e-05
-5.68446e-05
-5.76109e-05
-5.76946e-05
-5.70949e-05
-5.56679e-05
-5.32191e-05
-4.94961e-05
-4.46992e-05
-3.87715e-05
-3.26077e-05
-2.63558e-05
-2.1266e-05
-1.74458e-05
-1.49932e-05
-1.37432e-05
-1.35519e-05
-1.4108e-05
-1.53813e-05
-1.16302e-05
-1.0862e-05
-1.04359e-05
-1.0346e-05
-1.07466e-05
-1.17297e-05
-1.34624e-05
-1.61464e-05
-2.00748e-05
-2.5217e-05
-3.19225e-05
-3.79915e-05
-4.36591e-05
-4.84094e-05
-5.21839e-05
-5.4774e-05
-5.63713e-05
-5.71539e-05
-5.72461e-05
-5.66477e-05
-5.52308e-05
-5.28162e-05
-4.92024e-05
-4.45847e-05
-3.90041e-05
-3.29279e-05
-2.62375e-05
-2.11096e-05
-1.72786e-05
-1.48476e-05
-1.36096e-05
-1.341e-05
-1.39352e-05
-1.51518e-05
-1.14685e-05
-1.0738e-05
-1.03275e-05
-1.0228e-05
-1.05839e-05
-1.14806e-05
-1.308e-05
-1.55832e-05
-1.92889e-05
-2.4037e-05
-3.20463e-05
-3.81528e-05
-4.29544e-05
-4.72296e-05
-5.06899e-05
-5.31449e-05
-5.46862e-05
-5.54611e-05
-5.5567e-05
-5.5005e-05
-5.36739e-05
-5.14261e-05
-4.81485e-05
-4.40255e-05
-3.93088e-05
-3.3102e-05
-2.51171e-05
-2.03891e-05
-1.67747e-05
-1.45034e-05
-1.33633e-05
-1.31977e-05
-1.37043e-05
-1.48542e-05
-1.12853e-05
-1.05979e-05
-1.02049e-05
-1.00918e-05
-1.03874e-05
-1.11601e-05
-1.2555e-05
-1.48112e-05
-1.8603e-05
-2.39697e-05
-3.40432e-05
-3.65368e-05
-4.15133e-05
-4.54489e-05
-4.84594e-05
-5.06993e-05
-5.21341e-05
-5.28761e-05
-5.30034e-05
-5.25204e-05
-5.13466e-05
-4.93725e-05
-4.65799e-05
-4.28122e-05
-3.7839e-05
-3.50564e-05
-2.52629e-05
-1.98641e-05
-1.61185e-05
-1.40518e-05
-1.30657e-05
-1.29585e-05
-1.34488e-05
-1.4521e-05
-1.10928e-05
-1.04476e-05
-1.00682e-05
-9.92873e-06
-1.01277e-05
-1.06735e-05
-1.15295e-05
-1.24666e-05
-1.32413e-05
-9.56002e-06
-4.54055e-05
-4.10512e-05
-4.28054e-05
-4.47484e-05
-4.64703e-05
-4.7672e-05
-4.83455e-05
-4.84994e-05
-4.81421e-05
-4.72701e-05
-4.59101e-05
-4.42466e-05
-4.27625e-05
-4.71049e-05
-1.08299e-05
-1.46391e-05
-1.39046e-05
-1.31283e-05
-1.2622e-05
-1.26652e-05
-1.31676e-05
-1.41701e-05
-1.09111e-05
-1.03085e-05
-9.95202e-06
-9.81134e-06
-9.98119e-06
-1.04903e-05
-1.14083e-05
-1.286e-05
-1.53063e-05
-1.93829e-05
-2.12585e-05
-3.21106e-05
-3.57728e-05
-3.9191e-05
-4.16429e-05
-4.36058e-05
-4.49084e-05
-4.565e-05
-4.58371e-05
-4.54842e-05
-4.46034e-05
-4.31515e-05
-4.10614e-05
-3.80508e-05
-3.43678e-05
-2.41636e-05
-2.17121e-05
-1.73039e-05
-1.46091e-05
-1.31509e-05
-1.24817e-05
-1.24775e-05
-1.29302e-05
-1.38558e-05
-1.07509e-05
-1.01875e-05
-9.85515e-06
-9.71807e-06
-9.86419e-06
-1.03249e-05
-1.11649e-05
-1.24931e-05
-1.44398e-05
-1.71618e-05
-2.2127e-05
-2.89714e-05
-3.25207e-05
-3.57812e-05
-3.82573e-05
-4.02386e-05
-4.15527e-05
-4.23088e-05
-4.25259e-05
-4.22345e-05
-4.14306e-05
-4.0036e-05
-3.79924e-05
-3.52115e-05
-3.16715e-05
-2.49655e-05
-1.95196e-05
-1.6536e-05
-1.43673e-05
-1.29891e-05
-1.23345e-05
-1.23099e-05
-1.27208e-05
-1.35812e-05
-1.0626e-05
-1.01038e-05
-9.80329e-06
-9.68502e-06
-9.82953e-06
-1.02682e-05
-1.10651e-05
-1.2333e-05
-1.42509e-05
-1.70149e-05
-2.08473e-05
-2.56636e-05
-2.93504e-05
-3.26752e-05
-3.5239e-05
-3.72821e-05
-3.8623e-05
-3.93892e-05
-3.96183e-05
-3.93479e-05
-3.85547e-05
-3.71612e-05
-3.50855e-05
-3.22813e-05
-2.86501e-05
-2.38728e-05
-1.96767e-05
-1.65292e-05
-1.43134e-05
-1.29416e-05
-1.22776e-05
-1.22177e-05
-1.25777e-05
-1.33705e-05
-1.05432e-05
-1.00698e-05
-9.80974e-06
-9.72224e-06
-9.87611e-06
-1.02964e-05
-1.10355e-05
-1.21886e-05
-1.3891e-05
-1.62936e-05
-1.94136e-05
-2.31221e-05
-2.64784e-05
-2.96113e-05
-3.2079e-05
-3.40255e-05
-3.5298e-05
-3.60228e-05
-3.62465e-05
-3.60083e-05
-3.52773e-05
-3.39802e-05
-3.20236e-05
-2.94226e-05
-2.61355e-05
-2.24059e-05
-1.89483e-05
-1.61795e-05
-1.41866e-05
-1.29201e-05
-1.22865e-05
-1.22012e-05
-1.25087e-05
-1.3228e-05
-1.0508e-05
-1.01018e-05
-9.89892e-06
-9.86283e-06
-1.00474e-05
-1.04692e-05
-1.11646e-05
-1.2201e-05
-1.36685e-05
-1.5657e-05
-1.81617e-05
-2.10829e-05
-2.39451e-05
-2.66999e-05
-2.8919e-05
-3.0658e-05
-3.17991e-05
-3.24507e-05
-3.26582e-05
-3.24559e-05
-3.18159e-05
-3.06612e-05
-2.89351e-05
-2.66722e-05
-2.38857e-05
-2.09225e-05
-1.81439e-05
-1.5858e-05
-1.4157e-05
-1.30329e-05
-1.24341e-05
-1.23093e-05
-1.25435e-05
-1.31631e-05
-1.05209e-05
-1.02081e-05
-1.0086e-05
-1.01263e-05
-1.03679e-05
-1.0822e-05
-1.15132e-05
-1.24848e-05
-1.37896e-05
-1.54735e-05
-1.75288e-05
-1.98856e-05
-2.22796e-05
-2.46058e-05
-2.65195e-05
-2.80206e-05
-2.90339e-05
-2.96224e-05
-2.98153e-05
-2.96358e-05
-2.90638e-05
-2.80624e-05
-2.65858e-05
-2.46783e-05
-2.23806e-05
-1.99997e-05
-1.77573e-05
-1.58611e-05
-1.44009e-05
-1.33795e-05
-1.27791e-05
-1.25773e-05
-1.26999e-05
-1.31763e-05
-1.05687e-05
-1.03707e-05
-1.03451e-05
-1.04767e-05
-1.07947e-05
-1.13114e-05
-1.20471e-05
-1.30298e-05
-1.42875e-05
-1.5824e-05
-1.76693e-05
-1.97303e-05
-2.18335e-05
-2.38654e-05
-2.55788e-05
-2.69365e-05
-2.78803e-05
-2.84378e-05
-2.86228e-05
-2.84486e-05
-2.79046e-05
-2.69757e-05
-2.56434e-05
-2.3956e-05
-2.19745e-05
-1.99283e-05
-1.79761e-05
-1.62729e-05
-1.49494e-05
-1.395e-05
-1.3294e-05
-1.29769e-05
-1.29553e-05
-1.32487e-05
-1.06398e-05
-1.0582e-05
-1.06581e-05
-1.08797e-05
-1.1281e-05
-1.18865e-05
-1.27241e-05
-1.38245e-05
-1.5214e-05
-1.69241e-05
-1.88503e-05
-2.09546e-05
-2.3095e-05
-2.5151e-05
-2.69204e-05
-2.83398e-05
-2.93487e-05
-2.99491e-05
-3.0144e-05
-2.99401e-05
-2.93336e-05
-2.83225e-05
-2.69118e-05
-2.51603e-05
-2.31513e-05
-2.10836e-05
-1.91108e-05
-1.73626e-05
-1.58635e-05
-1.47337e-05
-1.39511e-05
-1.34904e-05
-1.33015e-05
-1.33637e-05
-8.19349e-06
-8.20237e-06
-8.22649e-06
-8.26909e-06
-8.3366e-06
-8.43226e-06
-8.55866e-06
-8.71729e-06
-8.9068e-06
-9.1244e-06
-9.36e-06
-9.60501e-06
-9.84183e-06
-1.00614e-05
-1.02512e-05
-1.04059e-05
-1.05204e-05
-1.05928e-05
-1.06221e-05
-1.06083e-05
-1.05529e-05
-1.04581e-05
-1.03291e-05
-1.01714e-05
-9.99787e-06
-9.81735e-06
-9.64748e-06
-9.49622e-06
-9.37295e-06
-9.27878e-06
-9.21237e-06
-9.16883e-06
-9.14016e-06
-9.12086e-06
-8.14903e-06
-8.11151e-06
-8.0991e-06
-8.10442e-06
-8.13871e-06
-8.20405e-06
-8.30041e-06
-8.42678e-06
-8.57857e-06
-8.75292e-06
-8.93626e-06
-9.12538e-06
-9.30306e-06
-9.46888e-06
-9.61057e-06
-9.72748e-06
-9.81512e-06
-9.87354e-06
-9.90189e-06
-9.9003e-06
-9.86988e-06
-9.8108e-06
-9.7278e-06
-9.62159e-06
-9.50472e-06
-9.37745e-06
-9.25759e-06
-9.14841e-06
-9.06442e-06
-9.00904e-06
-8.98606e-06
-8.99297e-06
-9.01566e-06
-9.05655e-06
-8.15864e-06
-8.10377e-06
-8.07348e-06
-8.05434e-06
-8.07031e-06
-8.12509e-06
-8.21878e-06
-8.35161e-06
-8.51819e-06
-8.72053e-06
-8.93573e-06
-9.16922e-06
-9.37659e-06
-9.56853e-06
-9.72379e-06
-9.84999e-06
-9.94158e-06
-1.00018e-05
-1.00297e-05
-1.00256e-05
-9.99042e-06
-9.92119e-06
-9.82381e-06
-9.69064e-06
-9.54362e-06
-9.37179e-06
-9.22133e-06
-9.08703e-06
-8.99462e-06
-8.94414e-06
-8.94088e-06
-8.97833e-06
-9.02321e-06
-9.08236e-06
-8.21931e-06
-8.14348e-06
-8.09403e-06
-8.05553e-06
-8.0618e-06
-8.11946e-06
-8.23084e-06
-8.40089e-06
-8.62593e-06
-8.91956e-06
-9.24194e-06
-9.61475e-06
-9.9279e-06
-1.0213e-05
-1.04297e-05
-1.06011e-05
-1.07193e-05
-1.07928e-05
-1.08206e-05
-1.08029e-05
-1.0741e-05
-1.06262e-05
-1.04672e-05
-1.02406e-05
-9.98829e-06
-9.67802e-06
-9.4237e-06
-9.20308e-06
-9.06133e-06
-8.988e-06
-8.98702e-06
-9.04411e-06
-9.1102e-06
-9.19205e-06
-8.34375e-06
-8.24423e-06
-8.18027e-06
-8.13274e-06
-8.14319e-06
-8.2221e-06
-8.3763e-06
-8.62022e-06
-8.95567e-06
-9.42137e-06
-9.94889e-06
-1.06e-05
-1.1115e-05
-1.15757e-05
-1.19074e-05
-1.21648e-05
-1.23344e-05
-1.24344e-05
-1.24627e-05
-1.24195e-05
-1.23069e-05
-1.21067e-05
-1.18332e-05
-1.14315e-05
-1.09788e-05
-1.03919e-05
-9.93796e-06
-9.55152e-06
-9.30982e-06
-9.17794e-06
-9.155e-06
-9.21507e-06
-9.29505e-06
-9.40416e-06
-8.53238e-06
-8.40424e-06
-8.32958e-06
-8.28261e-06
-8.31116e-06
-8.42974e-06
-8.65121e-06
-9.00376e-06
-9.49929e-06
-1.02245e-05
-1.10756e-05
-1.22173e-05
-1.30496e-05
-1.37843e-05
-1.429e-05
-1.46795e-05
-1.49285e-05
-1.50702e-05
-1.50997e-05
-1.5017e-05
-1.48271e-05
-1.44963e-05
-1.40502e-05
-1.3375e-05
-1.26071e-05
-1.15305e-05
-1.07618e-05
-1.01225e-05
-9.73199e-06
-9.50741e-06
-9.43969e-06
-9.48812e-06
-9.57667e-06
-9.72056e-06
-8.78211e-06
-8.61872e-06
-8.53586e-06
-8.49738e-06
-8.55633e-06
-8.73024e-06
-9.03787e-06
-9.52308e-06
-1.02109e-05
-1.12827e-05
-1.25828e-05
-1.45708e-05
-1.5826e-05
-1.69134e-05
-1.76264e-05
-1.81767e-05
-1.85202e-05
-1.87134e-05
-1.87451e-05
-1.86147e-05
-1.83338e-05
-1.78447e-05
-1.71931e-05
-1.61652e-05
-1.49765e-05
-1.3052e-05
-1.18502e-05
-1.08706e-05
-1.0299e-05
-9.95772e-06
-9.82829e-06
-9.85465e-06
-9.94939e-06
-1.01393e-05
-9.08777e-06
-8.88012e-06
-8.79172e-06
-8.77144e-06
-8.87672e-06
-9.12549e-06
-9.53881e-06
-1.01639e-05
-1.10337e-05
-1.23975e-05
-1.42475e-05
-1.77102e-05
-1.93996e-05
-2.09022e-05
-2.18638e-05
-2.26201e-05
-2.30877e-05
-2.33498e-05
-2.33845e-05
-2.31913e-05
-2.27914e-05
-2.21001e-05
-2.12024e-05
-1.97576e-05
-1.81341e-05
-1.47236e-05
-1.30055e-05
-1.17355e-05
-1.09925e-05
-1.0527e-05
-1.03187e-05
-1.03098e-05
-1.04065e-05
-1.06574e-05
-9.44393e-06
-9.17491e-06
-9.08266e-06
-9.08785e-06
-9.25135e-06
-9.58679e-06
-1.01078e-05
-1.08415e-05
-1.17383e-05
-1.32695e-05
-1.54016e-05
-2.21447e-05
-2.37011e-05
-2.53674e-05
-2.64698e-05
-2.73509e-05
-2.78976e-05
-2.82109e-05
-2.82496e-05
-2.80127e-05
-2.75403e-05
-2.6729e-05
-2.56932e-05
-2.40782e-05
-2.25884e-05
-1.58581e-05
-1.39579e-05
-1.24967e-05
-1.17312e-05
-1.11688e-05
-1.08792e-05
-1.08284e-05
-1.09276e-05
-1.12658e-05
-9.83253e-06
-9.50127e-06
-9.40994e-06
-9.45998e-06
-9.72085e-06
-1.0205e-05
-1.0927e-05
-1.17888e-05
-1.27477e-05
-1.49867e-05
-1.09156e-05
-2.57377e-05
-2.72589e-05
-2.94413e-05
-3.08388e-05
-3.20012e-05
-3.2716e-05
-3.31137e-05
-3.31568e-05
-3.28441e-05
-3.22125e-05
-3.11274e-05
-2.98019e-05
-2.76668e-05
-2.62422e-05
-1.11844e-05
-1.56894e-05
-1.35219e-05
-1.27239e-05
-1.20465e-05
-1.15842e-05
-1.14358e-05
-1.15138e-05
-1.1954e-05
-1.02389e-05
-9.83643e-06
-9.7431e-06
-9.83921e-06
-1.0203e-05
-1.08483e-05
-1.17745e-05
-1.27806e-05
-1.32516e-05
-8.35431e-06
-3.75289e-05
-3.20047e-05
-3.28115e-05
-3.40723e-05
-3.51213e-05
-3.5842e-05
-3.6237e-05
-3.62845e-05
-3.59834e-05
-3.53547e-05
-3.4392e-05
-3.32088e-05
-3.24371e-05
-3.78235e-05
-9.55558e-06
-1.42248e-05
-1.37974e-05
-1.29536e-05
-1.23052e-05
-1.20486e-05
-1.21129e-05
-1.26819e-05
-1.0651e-05
-1.01753e-05
-1.00934e-05
-1.02695e-05
-1.08171e-05
-1.18172e-05
-1.34357e-05
-1.58045e-05
-1.96674e-05
-2.37616e-05
-3.4541e-05
-3.05593e-05
-3.2907e-05
-3.53486e-05
-3.73369e-05
-3.88082e-05
-3.97688e-05
-4.02543e-05
-4.03064e-05
-3.9925e-05
-3.90693e-05
-3.77033e-05
-3.58237e-05
-3.34953e-05
-3.12616e-05
-3.55389e-05
-2.45895e-05
-2.05635e-05
-1.67961e-05
-1.46114e-05
-1.33066e-05
-1.27571e-05
-1.27351e-05
-1.34342e-05
-1.1045e-05
-1.04952e-05
-1.04112e-05
-1.06351e-05
-1.12937e-05
-1.2483e-05
-1.4386e-05
-1.70836e-05
-2.09278e-05
-2.48248e-05
-3.11605e-05
-3.28152e-05
-3.4909e-05
-3.70336e-05
-3.90738e-05
-4.06095e-05
-4.16473e-05
-4.21753e-05
-4.2231e-05
-4.18144e-05
-4.08888e-05
-3.94639e-05
-3.75347e-05
-3.55064e-05
-3.34935e-05
-3.19952e-05
-2.57003e-05
-2.18393e-05
-1.80861e-05
-1.55852e-05
-1.40271e-05
-1.3347e-05
-1.33067e-05
-1.41434e-05
-1.14076e-05
-1.07932e-05
-1.07081e-05
-1.09749e-05
-1.17309e-05
-1.30842e-05
-1.52234e-05
-1.82239e-05
-2.23039e-05
-2.67024e-05
-3.1822e-05
-3.45647e-05
-3.69205e-05
-3.91731e-05
-4.14082e-05
-4.30422e-05
-4.4153e-05
-4.47107e-05
-4.47696e-05
-4.43297e-05
-4.33379e-05
-4.18211e-05
-3.97029e-05
-3.7547e-05
-3.52785e-05
-3.26326e-05
-2.75672e-05
-2.32154e-05
-1.92381e-05
-1.64517e-05
-1.46895e-05
-1.39001e-05
-1.38422e-05
-1.47893e-05
-1.17228e-05
-1.1053e-05
-1.09588e-05
-1.12442e-05
-1.20486e-05
-1.34797e-05
-1.57149e-05
-1.88277e-05
-2.29531e-05
-2.75046e-05
-3.23859e-05
-3.56606e-05
-3.82561e-05
-4.05846e-05
-4.28987e-05
-4.45661e-05
-4.57038e-05
-4.62699e-05
-4.6331e-05
-4.5887e-05
-4.48726e-05
-4.33257e-05
-4.11308e-05
-3.88937e-05
-3.63451e-05
-3.31894e-05
-2.83733e-05
-2.38761e-05
-1.98644e-05
-1.69841e-05
-1.51561e-05
-1.43365e-05
-1.4294e-05
-1.53341e-05
-1.19834e-05
-1.12711e-05
-1.11679e-05
-1.14632e-05
-1.22973e-05
-1.37765e-05
-1.60693e-05
-1.9252e-05
-2.34146e-05
-2.80544e-05
-3.28934e-05
-3.63794e-05
-3.91849e-05
-4.16003e-05
-4.39757e-05
-4.56599e-05
-4.68067e-05
-4.73733e-05
-4.74363e-05
-4.69956e-05
-4.59757e-05
-4.44149e-05
-4.21618e-05
-3.98431e-05
-3.71304e-05
-3.37104e-05
-2.89346e-05
-2.43527e-05
-2.03139e-05
-1.73803e-05
-1.55207e-05
-1.46913e-05
-1.4666e-05
-1.57729e-05
-1.21839e-05
-1.14412e-05
-1.13291e-05
-1.16265e-05
-1.24739e-05
-1.39758e-05
-1.62954e-05
-1.95129e-05
-2.36994e-05
-2.84048e-05
-3.32724e-05
-3.68942e-05
-3.98102e-05
-4.22771e-05
-4.46845e-05
-4.63755e-05
-4.75256e-05
-4.80918e-05
-4.81565e-05
-4.77197e-05
-4.66999e-05
-4.51349e-05
-4.28518e-05
-4.0483e-05
-3.76641e-05
-3.41014e-05
-2.9298e-05
-2.4654e-05
-2.05993e-05
-1.76443e-05
-1.57779e-05
-1.49538e-05
-1.49473e-05
-1.61012e-05
-1.23229e-05
-1.15623e-05
-1.14446e-05
-1.17428e-05
-1.2598e-05
-1.41144e-05
-1.64531e-05
-1.96979e-05
-2.39131e-05
-2.86721e-05
-3.35863e-05
-3.72941e-05
-4.02791e-05
-4.27875e-05
-4.52228e-05
-4.69273e-05
-4.80855e-05
-4.86551e-05
-4.87216e-05
-4.82849e-05
-4.72617e-05
-4.56865e-05
-4.33767e-05
-4.0967e-05
-3.80791e-05
-3.44289e-05
-2.95797e-05
-2.4884e-05
-2.08055e-05
-1.78317e-05
-1.59591e-05
-1.51379e-05
-1.51427e-05
-1.63236e-05
-1.23998e-05
-1.16335e-05
-1.15141e-05
-1.18131e-05
-1.26729e-05
-1.41985e-05
-1.65524e-05
-1.98204e-05
-2.40678e-05
-2.88717e-05
-3.38362e-05
-3.75976e-05
-4.06258e-05
-4.31692e-05
-4.56314e-05
-4.73575e-05
-4.85303e-05
-4.91086e-05
-4.91773e-05
-4.87361e-05
-4.77048e-05
-4.6112e-05
-4.37766e-05
-4.13322e-05
-3.84006e-05
-3.46952e-05
-2.97952e-05
-2.50548e-05
-2.09452e-05
-1.79513e-05
-1.60688e-05
-1.52453e-05
-1.52528e-05
-1.6443e-05
-1.24152e-05
-1.16554e-05
-1.1538e-05
-1.18378e-05
-1.26986e-05
-1.4228e-05
-1.65926e-05
-1.98796e-05
-2.41643e-05
-2.90038e-05
-3.40247e-05
-3.78142e-05
-4.08608e-05
-4.34338e-05
-4.59233e-05
-4.76761e-05
-4.88687e-05
-4.94613e-05
-4.95361e-05
-4.9092e-05
-4.80396e-05
-4.64218e-05
-4.40633e-05
-4.15916e-05
-3.86407e-05
-3.49044e-05
-2.99453e-05
-2.51653e-05
-2.10182e-05
-1.80038e-05
-1.61081e-05
-1.52774e-05
-1.52793e-05
-1.64614e-05
-1.2371e-05
-1.16301e-05
-1.15182e-05
-1.18173e-05
-1.26735e-05
-1.41971e-05
-1.65625e-05
-1.98573e-05
-2.4179e-05
-2.90465e-05
-3.41503e-05
-3.7939e-05
-4.09675e-05
-4.35579e-05
-4.60647e-05
-4.78505e-05
-4.90671e-05
-4.96771e-05
-4.97561e-05
-4.93024e-05
-4.82361e-05
-4.65928e-05
-4.42204e-05
-4.17335e-05
-3.87991e-05
-3.50582e-05
-3.0013e-05
-2.5201e-05
-2.10119e-05
-1.79825e-05
-1.6076e-05
-1.52366e-05
-1.52255e-05
-1.638e-05
-1.22699e-05
-1.15599e-05
-1.14534e-05
-1.17443e-05
-1.25791e-05
-1.407e-05
-1.64012e-05
-1.96621e-05
-2.39994e-05
-2.88781e-05
-3.41541e-05
-3.79011e-05
-4.08516e-05
-4.34216e-05
-4.59076e-05
-4.77116e-05
-4.89443e-05
-4.9571e-05
-4.96559e-05
-4.91977e-05
-4.81275e-05
-4.64774e-05
-4.41317e-05
-4.16702e-05
-3.88095e-05
-3.5099e-05
-2.98787e-05
-2.50512e-05
-2.08405e-05
-1.78342e-05
-1.59448e-05
-1.51127e-05
-1.50908e-05
-1.61988e-05
-1.21193e-05
-1.14528e-05
-1.13531e-05
-1.16289e-05
-1.24259e-05
-1.3856e-05
-1.61135e-05
-1.92893e-05
-2.36159e-05
-2.84094e-05
-3.40862e-05
-3.77382e-05
-4.04603e-05
-4.30158e-05
-4.54666e-05
-4.72787e-05
-4.85155e-05
-4.91561e-05
-4.92502e-05
-4.87973e-05
-4.77411e-05
-4.61019e-05
-4.38028e-05
-4.1366e-05
-3.87159e-05
-3.50823e-05
-2.94617e-05
-2.47172e-05
-2.05109e-05
-1.75746e-05
-1.57343e-05
-1.4926e-05
-1.48925e-05
-1.59283e-05
-1.19273e-05
-1.13131e-05
-1.1213e-05
-1.14515e-05
-1.21642e-05
-1.34483e-05
-1.54874e-05
-1.8368e-05
-2.24204e-05
-2.66686e-05
-3.37687e-05
-3.73906e-05
-3.96965e-05
-4.21334e-05
-4.44111e-05
-4.61592e-05
-4.73545e-05
-4.79916e-05
-4.80988e-05
-4.76772e-05
-4.66885e-05
-4.51431e-05
-4.30345e-05
-4.07434e-05
-3.85279e-05
-3.48098e-05
-2.77813e-05
-2.35954e-05
-1.96643e-05
-1.70057e-05
-1.53522e-05
-1.46429e-05
-1.46284e-05
-1.55774e-05
-1.17117e-05
-1.11595e-05
-1.10641e-05
-1.12686e-05
-1.1898e-05
-1.3034e-05
-1.48441e-05
-1.744e-05
-2.15908e-05
-2.63691e-05
-3.58842e-05
-3.5414e-05
-3.87339e-05
-4.18191e-05
-4.41836e-05
-4.59758e-05
-4.71728e-05
-4.78176e-05
-4.79444e-05
-4.75577e-05
-4.66101e-05
-4.50723e-05
-4.29003e-05
-3.99955e-05
-3.67118e-05
-3.68538e-05
-2.76637e-05
-2.29162e-05
-1.88668e-05
-1.64601e-05
-1.49886e-05
-1.43672e-05
-1.4356e-05
-1.51902e-05
-1.1485e-05
-1.09933e-05
-1.08901e-05
-1.1031e-05
-1.15074e-05
-1.23298e-05
-1.34778e-05
-1.46404e-05
-1.49003e-05
-7.85017e-06
-4.81579e-05
-4.02709e-05
-4.11043e-05
-4.26639e-05
-4.40763e-05
-4.50863e-05
-4.56867e-05
-4.58338e-05
-4.55351e-05
-4.48203e-05
-4.37453e-05
-4.23913e-05
-4.18029e-05
-4.96499e-05
-9.12414e-06
-1.64145e-05
-1.62453e-05
-1.52352e-05
-1.43671e-05
-1.39904e-05
-1.40478e-05
-1.47803e-05
-1.12717e-05
-1.08402e-05
-1.07496e-05
-1.0877e-05
-1.13177e-05
-1.21103e-05
-1.33281e-05
-1.49574e-05
-1.73276e-05
-2.1186e-05
-2.12043e-05
-3.35933e-05
-3.62958e-05
-3.92743e-05
-4.13885e-05
-4.33442e-05
-4.45839e-05
-4.53174e-05
-4.54927e-05
-4.51038e-05
-4.42023e-05
-4.27943e-05
-4.07982e-05
-3.81561e-05
-3.55046e-05
-2.41e-05
-2.34969e-05
-1.94468e-05
-1.68716e-05
-1.52419e-05
-1.42069e-05
-1.37792e-05
-1.37904e-05
-1.44169e-05
-1.10814e-05
-1.0701e-05
-1.06195e-05
-1.07286e-05
-1.11177e-05
-1.1831e-05
-1.29411e-05
-1.45208e-05
-1.66374e-05
-1.93984e-05
-2.43166e-05
-3.15284e-05
-3.38816e-05
-3.6222e-05
-3.80459e-05
-3.97637e-05
-4.09203e-05
-4.16375e-05
-4.18354e-05
-4.15323e-05
-4.07569e-05
-3.94808e-05
-3.77489e-05
-3.56842e-05
-3.34014e-05
-2.68103e-05
-2.16598e-05
-1.88316e-05
-1.65566e-05
-1.49417e-05
-1.39565e-05
-1.35442e-05
-1.35419e-05
-1.40948e-05
-1.09299e-05
-1.05986e-05
-1.05382e-05
-1.06533e-05
-1.10297e-05
-1.17185e-05
-1.27998e-05
-1.43676e-05
-1.65515e-05
-1.94568e-05
-2.32774e-05
-2.78613e-05
-3.0404e-05
-3.25672e-05
-3.43227e-05
-3.60172e-05
-3.71654e-05
-3.78753e-05
-3.80791e-05
-3.78029e-05
-3.70456e-05
-3.57864e-05
-3.40619e-05
-3.19749e-05
-2.96908e-05
-2.57007e-05
-2.18677e-05
-1.8859e-05
-1.64964e-05
-1.48545e-05
-1.38504e-05
-1.34083e-05
-1.33657e-05
-1.38461e-05
-1.08218e-05
-1.05387e-05
-1.05047e-05
-1.06323e-05
-1.09975e-05
-1.1647e-05
-1.26505e-05
-1.40955e-05
-1.60731e-05
-1.86845e-05
-2.17563e-05
-2.51776e-05
-2.75165e-05
-2.9527e-05
-3.12434e-05
-3.28517e-05
-3.39488e-05
-3.46258e-05
-3.48282e-05
-3.45844e-05
-3.38802e-05
-3.27154e-05
-3.10827e-05
-2.91539e-05
-2.70397e-05
-2.41245e-05
-2.10845e-05
-1.83853e-05
-1.62418e-05
-1.47155e-05
-1.37653e-05
-1.33237e-05
-1.3252e-05
-1.36656e-05
-1.07601e-05
-1.05306e-05
-1.05345e-05
-1.06904e-05
-1.10612e-05
-1.16856e-05
-1.26176e-05
-1.39223e-05
-1.56558e-05
-1.78596e-05
-2.03806e-05
-2.31164e-05
-2.53287e-05
-2.73545e-05
-2.90972e-05
-3.0609e-05
-3.16775e-05
-3.23369e-05
-3.25381e-05
-3.23141e-05
-3.16346e-05
-3.05324e-05
-2.90032e-05
-2.71729e-05
-2.51284e-05
-2.2725e-05
-2.02065e-05
-1.79163e-05
-1.60417e-05
-1.46684e-05
-1.37818e-05
-1.33358e-05
-1.32234e-05
-1.35585e-05
-1.07401e-05
-1.05726e-05
-1.0624e-05
-1.08209e-05
-1.1212e-05
-1.18284e-05
-1.27097e-05
-1.39002e-05
-1.54309e-05
-1.73168e-05
-1.94489e-05
-2.17469e-05
-2.38286e-05
-2.57907e-05
-2.74526e-05
-2.88751e-05
-2.98764e-05
-3.04891e-05
-3.06858e-05
-3.04852e-05
-2.98734e-05
-2.8864e-05
-2.74514e-05
-2.57649e-05
-2.38344e-05
-2.17316e-05
-1.95807e-05
-1.76153e-05
-1.59799e-05
-1.47443e-05
-1.3908e-05
-1.34436e-05
-1.3277e-05
-1.35176e-05
-1.07453e-05
-1.06388e-05
-1.07257e-05
-1.09601e-05
-1.1377e-05
-1.20019e-05
-1.28654e-05
-1.39979e-05
-1.54166e-05
-1.71192e-05
-1.90402e-05
-2.11005e-05
-2.30931e-05
-2.49853e-05
-2.66063e-05
-2.79548e-05
-2.89164e-05
-2.95016e-05
-2.96936e-05
-2.95027e-05
-2.89223e-05
-2.79639e-05
-2.66327e-05