/*--------------------------------*- C++ -*----------------------------------*\
| =========                 |                                                 |
| \\      /  F ield         | OpenFOAM: The Open Source CFD Toolbox           |
|  \\    /   O peration     | Version:  2112                                  |
|   \\  /    A nd           | Website:  www.openfoam.com                      |
|    \\/     M anipulation  |                                                 |
\*---------------------------------------------------------------------------*/
FoamFile
{
    version     2.0;
    format      ascii;
    arch        "LSB;label=32;scalar=64";
    class       surfaceScalarField;
    location    "1.9";
    object      phi;
}
// * * * * * * * * * * * * * * * * * * * * * * * * * * * * * * * * * * * * * //

dimensions      [0 3 -1 0 0 0 0];

oriented        oriented;

internalField   nonuniform List<scalar> 
188215
(
1.00058e-09
2.36328e-09
-3.36385e-09
3.12374e-09
1.60665e-09
-3.72982e-09
5.62685e-09
9.26694e-10
-3.4298e-09
8.18517e-09
4.88836e-10
-3.04716e-09
1.06852e-08
3.47351e-10
-2.84738e-09
1.31004e-08
4.1433e-10
-2.82956e-09
1.54048e-08
6.39876e-10
-2.94429e-09
1.75207e-08
1.03239e-09
-3.14821e-09
1.93294e-08
1.60606e-09
-3.41484e-09
2.05792e-08
2.46548e-09
-3.71527e-09
2.1087e-08
3.53373e-09
-4.04153e-09
2.05058e-08
4.9481e-09
-4.36684e-09
1.89827e-08
6.17648e-09
-4.65343e-09
1.65685e-08
7.29114e-09
-4.87694e-09
1.34869e-08
8.1332e-09
-5.05157e-09
9.88668e-09
8.7798e-09
-5.17958e-09
5.95765e-09
9.19699e-09
-5.26797e-09
1.86829e-09
9.4072e-09
-5.31784e-09
-2.20668e-09
9.40526e-09
-5.33029e-09
-6.09305e-09
9.19137e-09
-5.305e-09
-9.6233e-09
8.77115e-09
-5.2409e-09
-1.26091e-08
8.12258e-09
-5.13683e-09
-1.49051e-08
7.28177e-09
-4.98574e-09
-1.62909e-08
6.17206e-09
-4.78623e-09
-1.67239e-08
4.95839e-09
-4.52545e-09
-1.60591e-08
3.56735e-09
-4.23209e-09
-1.46541e-08
2.54577e-09
-3.95082e-09
-1.2686e-08
1.75489e-09
-3.72296e-09
-1.04074e-08
1.30413e-09
-3.58271e-09
-7.93807e-09
1.13581e-09
-3.60516e-09
-5.38578e-09
1.31974e-09
-3.87203e-09
-2.90217e-09
1.92538e-09
-4.40899e-09
-8.41345e-10
2.82763e-09
-4.88846e-09
3.67894e-09
-4.52029e-09
-3.76609e-10
7.12314e-09
-4.38325e-09
2.03038e-09
7.21326e-09
-8.01359e-09
5.1635e-09
6.89513e-09
-9.10156e-09
8.20669e-09
6.83598e-09
-9.39033e-09
1.10328e-08
7.26361e-09
-9.74234e-09
1.36737e-08
8.15771e-09
-1.03843e-08
1.61655e-08
9.50095e-09
-1.13529e-08
1.84752e-08
1.13633e-08
-1.26406e-08
2.04958e-08
1.38238e-08
-1.42383e-08
2.19442e-08
1.71578e-08
-1.61407e-08
2.25832e-08
2.11877e-08
-1.82929e-08
2.19483e-08
2.61862e-08
-2.06032e-08
2.02755e-08
3.06488e-08
-2.27996e-08
1.76493e-08
3.46676e-08
-2.47502e-08
1.43337e-08
3.78153e-08
-2.63665e-08
1.04841e-08
4.02488e-08
-2.76193e-08
6.29607e-09
4.18645e-08
-2.84795e-08
1.94377e-09
4.26965e-08
-2.8937e-08
-2.39279e-09
4.27245e-08
-2.89827e-08
-6.53366e-09
4.19488e-08
-2.86166e-08
-1.0306e-08
4.03915e-08
-2.78481e-08
-1.35153e-08
3.80198e-08
-2.66878e-08
-1.60104e-08
3.49431e-08
-2.51662e-08
-1.75301e-08
3.10067e-08
-2.33149e-08
-1.79986e-08
2.6654e-08
-2.12271e-08
-1.71782e-08
2.17894e-08
-1.90424e-08
-1.55398e-08
1.79537e-08
-1.70463e-08
-1.32923e-08
1.48566e-08
-1.53491e-08
-1.06826e-08
1.27305e-08
-1.40361e-08
-7.76435e-09
1.13574e-08
-1.31398e-08
-4.55807e-09
1.0739e-08
-1.26255e-08
-1.23623e-09
1.08121e-08
-1.22086e-08
1.19614e-09
1.11964e-08
-1.08011e-08
1.09063e-08
-6.03126e-09
-1.33278e-09
1.28472e-08
-4.39129e-09
1.32618e-09
1.38697e-08
-9.31542e-09
4.98472e-09
1.42093e-08
-1.09727e-08
8.52284e-09
1.48817e-08
-1.15838e-08
1.17725e-08
1.62092e-08
-1.21952e-08
1.48115e-08
1.82423e-08
-1.31236e-08
1.77445e-08
2.1033e-08
-1.4465e-08
2.05939e-08
2.47656e-08
-1.62516e-08
2.32659e-08
2.96508e-08
-1.8499e-08
2.53562e-08
3.62891e-08
-2.12217e-08
2.64593e-08
4.4429e-08
-2.43445e-08
2.56601e-08
5.47131e-08
-2.77276e-08
2.3538e-08
6.37255e-08
-3.09546e-08
2.02906e-08
7.17307e-08
-3.38158e-08
1.63387e-08
7.79486e-08
-3.61813e-08
1.1833e-08
8.27601e-08
-3.80057e-08
6.98594e-09
8.59633e-08
-3.92518e-08
1.97086e-09
8.76216e-08
-3.991e-08
-3.02754e-09
8.7691e-08
-3.99682e-08
-7.82442e-09
8.61719e-08
-3.94262e-08
-1.22469e-08
8.31105e-08
-3.82965e-08
-1.60826e-08
7.84448e-08
-3.65894e-08
-1.91834e-08
7.2387e-08
-3.43431e-08
-2.11293e-08
6.45593e-08
-3.16067e-08
-2.17319e-08
5.57725e-08
-2.85159e-08
-2.04046e-08
4.57532e-08
-2.52911e-08
-1.80739e-08
3.79868e-08
-2.23639e-08
-1.50893e-08
3.17665e-08
-1.98945e-08
-1.1791e-08
2.7416e-08
-1.79838e-08
-8.18863e-09
2.43815e-08
-1.66265e-08
-4.25542e-09
2.25167e-08
-1.57109e-08
-2.19261e-10
2.16015e-08
-1.48255e-08
2.50162e-09
2.1123e-08
-1.26475e-08
1.95838e-08
-6.17582e-09
-1.76748e-09
1.86884e-08
-4.07371e-09
1.23518e-09
2.04064e-08
-9.53933e-09
5.50403e-09
2.13501e-08
-1.14096e-08
9.70213e-09
2.27931e-08
-1.21095e-08
1.3616e-08
2.5105e-08
-1.28096e-08
1.73701e-08
2.83704e-08
-1.38822e-08
2.11652e-08
3.2701e-08
-1.54631e-08
2.51288e-08
3.84242e-08
-1.76222e-08
2.92017e-08
4.59764e-08
-2.03985e-08
3.27472e-08
5.6583e-08
-2.38394e-08
3.49222e-08
7.00932e-08
-2.78391e-08
3.37015e-08
8.82006e-08
-3.22668e-08
3.05271e-08
1.03367e-07
-3.64672e-08
2.59169e-08
1.16511e-07
-4.01704e-08
2.06078e-08
1.26468e-07
-4.32107e-08
1.47115e-08
1.34181e-07
-4.55247e-08
8.46171e-09
1.39302e-07
-4.70888e-08
2.03169e-09
1.4196e-07
-4.79081e-08
-4.38085e-09
1.42075e-07
-4.79709e-08
-1.05775e-08
1.39646e-07
-4.72771e-08
-1.6384e-08
1.34755e-07
-4.58376e-08
-2.15635e-08
1.27272e-07
-4.36478e-08
-2.60045e-08
1.1756e-07
-4.07317e-08
-2.89648e-08
1.04676e-07
-3.71566e-08
-2.99378e-08
8.984e-08
-3.30945e-08
-2.74671e-08
7.21117e-08
-2.88293e-08
-2.3615e-08
5.91703e-08
-2.50356e-08
-1.91286e-08
4.91469e-08
-2.18669e-08
-1.45581e-08
4.23012e-08
-1.94557e-08
-9.8639e-09
3.74481e-08
-1.77608e-08
-4.94933e-09
3.42307e-08
-1.66285e-08
-7.16059e-11
3.22921e-08
-1.55683e-08
3.10553e-09
3.10361e-08
-1.30903e-08
2.85653e-08
-5.87598e-09
-1.79987e-09
2.42752e-08
-3.78693e-09
1.7782e-09
2.65346e-08
-9.70628e-09
6.86559e-09
2.80102e-08
-1.17475e-08
1.19448e-08
3.02174e-08
-1.25035e-08
1.67853e-08
3.35631e-08
-1.32987e-08
2.1596e-08
3.81295e-08
-1.45698e-08
2.67402e-08
4.40546e-08
-1.64978e-08
3.25747e-08
5.17955e-08
-1.92058e-08
3.91757e-08
6.2129e-08
-2.27535e-08
4.55982e-08
7.74029e-08
-2.72425e-08
5.0029e-08
9.81571e-08
-3.24947e-08
4.78005e-08
1.28978e-07
-3.85492e-08
4.24819e-08
1.52909e-07
-4.42235e-08
3.53827e-08
1.72853e-07
-4.92422e-08
2.77593e-08
1.87445e-07
-5.3353e-08
1.95336e-08
1.98808e-07
-5.64015e-08
1.09385e-08
2.0633e-07
-5.84326e-08
2.13966e-09
2.10244e-07
-5.94858e-08
-6.6416e-09
2.1041e-07
-5.95543e-08
-1.51823e-08
2.06824e-07
-5.86376e-08
-2.33139e-08
1.99627e-07
-5.67405e-08
-3.07947e-08
1.88576e-07
-5.38234e-08
-3.76976e-08
1.74302e-07
-4.98397e-08
-4.27502e-08
1.54677e-07
-4.49486e-08
-4.46553e-08
1.31154e-07
-3.94092e-08
-3.98175e-08
1.00789e-07
-3.35151e-08
-3.30216e-08
8.0851e-08
-2.84766e-08
-2.5908e-08
6.6311e-08
-2.42776e-08
-1.93094e-08
5.68315e-08
-2.1129e-08
-1.30341e-08
5.01121e-08
-1.89393e-08
-6.78581e-09
4.55059e-08
-1.75235e-08
-7.57709e-10
4.25594e-08
-1.62954e-08
3.19882e-09
4.06165e-08
-1.35369e-08
3.7394e-08
-5.62983e-09
-1.57259e-09
2.94413e-08
-3.59347e-09
2.86273e-09
3.21586e-08
-1.00593e-08
9.05303e-09
3.41481e-08
-1.23282e-08
1.52858e-08
3.71606e-08
-1.31759e-08
2.13304e-08
4.16481e-08
-1.41296e-08
2.75238e-08
4.76499e-08
-1.57138e-08
3.44892e-08
5.52567e-08
-1.81675e-08
4.30605e-08
6.49068e-08
-2.16826e-08
5.37522e-08
7.77378e-08
-2.63005e-08
6.5569e-08
9.7759e-08
-3.21729e-08
7.4758e-08
1.27763e-07
-3.87944e-08
7.02449e-08
1.80568e-07
-4.70765e-08
6.08709e-08
2.17085e-07
-5.48018e-08
4.96598e-08
2.45909e-07
-6.18455e-08
3.85261e-08
2.66247e-07
-6.76682e-08
2.68085e-08
2.82292e-07
-7.17661e-08
1.46805e-08
2.92902e-07
-7.44446e-08
2.29885e-09
2.98444e-07
-7.58185e-08
-1.00669e-08
2.98673e-07
-7.58969e-08
-2.21449e-08
2.9358e-07
-7.46785e-08
-3.37735e-08
2.83406e-07
-7.2151e-08
-4.47625e-08
2.67764e-07
-6.81983e-08
-5.57581e-08
2.47808e-07
-6.25099e-08
-6.48071e-08
2.19322e-07
-5.55952e-08
-6.88905e-08
1.8324e-07
-4.80023e-08
-5.91105e-08
1.3088e-07
-3.98714e-08
-4.68764e-08
1.02091e-07
-3.34742e-08
-3.55864e-08
8.29339e-08
-2.79128e-08
-2.60823e-08
7.10658e-08
-2.37384e-08
-1.77126e-08
6.25568e-08
-2.08144e-08
-9.72476e-09
5.64805e-08
-1.89624e-08
-2.1456e-09
5.24499e-08
-1.74697e-08
2.9832e-09
4.98017e-08
-1.4314e-08
4.59032e-08
-5.52608e-09
-1.14083e-09
3.40426e-08
-3.46047e-09
4.45158e-09
3.71879e-08
-1.06217e-08
1.20843e-08
3.973e-08
-1.32146e-08
1.97932e-08
4.36648e-08
-1.42131e-08
2.73338e-08
4.95122e-08
-1.54048e-08
3.51853e-08
5.7227e-08
-1.74286e-08
4.43138e-08
6.67176e-08
-2.05894e-08
5.64154e-08
7.79583e-08
-2.51531e-08
7.31116e-08
9.21008e-08
-3.10592e-08
9.43533e-08
1.14881e-07
-3.83635e-08
1.13971e-07
1.53899e-07
-4.57543e-08
1.04028e-07
2.46992e-07
-5.64817e-08
8.71321e-08
3.00378e-07
-6.6397e-08
6.95898e-08
3.39718e-07
-7.62665e-08
5.35787e-08
3.66914e-07
-8.46563e-08
3.70275e-08
3.88791e-07
-8.9948e-08
1.99513e-08
4.03339e-07
-9.33604e-08
2.51914e-09
4.1097e-07
-9.50938e-08
-1.49024e-08
4.11281e-07
-9.51867e-08
-3.1944e-08
4.04259e-07
-9.36374e-08
-4.8431e-08
3.90295e-07
-9.04014e-08
-6.43238e-08
3.68934e-07
-8.52772e-08
-8.16621e-08
3.42179e-07
-7.70333e-08
-9.81841e-08
3.03143e-07
-6.72993e-08
-1.07556e-07
2.50131e-07
-5.75197e-08
-8.70053e-08
1.57258e-07
-4.69273e-08
-6.53881e-08
1.20253e-07
-3.97789e-08
-4.80479e-08
9.83968e-08
-3.28031e-08
-3.48213e-08
8.52341e-08
-2.73949e-08
-2.39361e-08
7.51814e-08
-2.35098e-08
-1.37995e-08
6.74015e-08
-2.10576e-08
-4.20607e-09
6.20287e-08
-1.91722e-08
2.53272e-09
5.85132e-08
-1.54503e-08
5.39495e-08
-5.51351e-09
-4.30764e-10
3.78217e-08
-3.34832e-09
6.61684e-09
4.14988e-08
-1.13584e-08
1.61212e-08
4.46154e-08
-1.43897e-08
2.57403e-08
4.96475e-08
-1.56018e-08
3.51425e-08
5.72214e-08
-1.71115e-08
4.48288e-08
6.72379e-08
-1.96971e-08
5.59494e-08
7.93267e-08
-2.37298e-08
7.12502e-08
9.22164e-08
-2.95589e-08
9.43945e-08
1.05761e-07
-3.68049e-08
1.31166e-07
1.23783e-07
-4.5674e-08
1.74034e-07
1.6085e-07
-4.98186e-08
1.52161e-07
3.29782e-07
-6.09167e-08
1.23211e-07
4.02404e-07
-7.30756e-08
9.71607e-08
4.5294e-07
-8.71719e-08
7.48539e-08
4.88566e-07
-9.93452e-08
5.16711e-08
5.17663e-07
-1.0569e-07
2.75338e-08
5.37218e-07
-1.09741e-07
2.82286e-09
5.47464e-07
-1.11783e-07
-2.18871e-08
5.47883e-07
-1.11893e-07
-4.60205e-08
5.38461e-07
-1.10068e-07
-6.91977e-08
5.19694e-07
-1.06222e-07
-9.14714e-08
4.91281e-07
-1.00074e-07
-1.17419e-07
4.5619e-07
-8.80626e-08
-1.46035e-07
4.05876e-07
-7.4117e-08
-1.67154e-07
3.33385e-07
-6.21355e-08
-1.22664e-07
1.63884e-07
-5.11156e-08
-8.58182e-08
1.30619e-07
-4.72127e-08
-6.20081e-08
1.13281e-07
-3.86938e-08
-4.53324e-08
1.00583e-07
-3.20248e-08
-3.19843e-08
8.88172e-08
-2.69839e-08
-1.93411e-08
7.85469e-08
-2.37886e-08
-7.1541e-09
7.12265e-08
-2.13848e-08
1.74439e-09
6.65126e-08
-1.68979e-08
6.12077e-08
-5.51384e-09
3.44892e-10
4.06505e-08
-3.17369e-09
9.36191e-09
4.4781e-08
-1.22993e-08
2.12764e-08
4.85456e-08
-1.58447e-08
3.33693e-08
5.48755e-08
-1.73209e-08
4.51503e-08
6.46523e-08
-1.92119e-08
5.68884e-08
7.79358e-08
-2.24361e-08
6.93998e-08
9.42474e-08
-2.7432e-08
8.59804e-08
1.10242e-07
-3.46063e-08
1.1299e-07
1.2253e-07
-4.37782e-08
1.70463e-07
1.19378e-07
-5.30674e-08
2.62075e-07
1.27885e-07
-5.86468e-08
2.13696e-07
4.36001e-07
-5.78394e-08
1.66988e-07
5.18141e-07
-6.90285e-08
1.31774e-07
5.76528e-07
-8.83734e-08
1.02254e-07
6.23163e-07
-1.05077e-07
7.08291e-08
6.60782e-07
-1.11693e-07
3.75333e-08
6.86884e-07
-1.16371e-07
3.24409e-09
7.00426e-07
-1.18673e-07
-3.10581e-08
7.00978e-07
-1.18792e-07
-6.43976e-08
6.88528e-07
-1.16728e-07
-9.59161e-08
6.63484e-07
-1.12272e-07
-1.25579e-07
6.26813e-07
-1.05869e-07
-1.60961e-07
5.80902e-07
-8.93298e-08
-2.07598e-07
5.22674e-07
-7.01623e-08
-2.54983e-07
4.39975e-07
-5.92048e-08
-1.60516e-07
1.29781e-07
-6.03642e-08
-1.03914e-07
1.28824e-07
-5.48069e-08
-7.61332e-08
1.31317e-07
-4.58173e-08
-5.78254e-08
1.19617e-07
-3.73417e-08
-4.24362e-08
1.04523e-07
-3.10947e-08
-2.68266e-08
9.00369e-08
-2.70996e-08
-1.1266e-08
7.97707e-08
-2.41047e-08
3.72971e-10
7.3502e-08
-1.86284e-08
6.70781e-08
-5.49741e-09
1.32747e-09
4.2227e-08
-2.904e-09
1.29461e-08
4.66087e-08
-1.34463e-08
2.80966e-08
5.09675e-08
-1.75725e-08
4.37818e-08
5.85557e-08
-1.93654e-08
5.94111e-08
7.07335e-08
-2.17105e-08
7.46614e-08
8.83383e-08
-2.56528e-08
8.87306e-08
1.118e-07
-3.16217e-08
1.01135e-07
1.38499e-07
-4.06615e-08
1.12285e-07
1.62431e-07
-5.10513e-08
1.59029e-07
1.39856e-07
-6.72227e-08
3.73155e-07
-8.62413e-08
2.88972e-07
5.5444e-07
-3.4256e-08
2.26554e-07
6.18749e-07
-3.81905e-08
1.84011e-07
6.76343e-07
-5.72728e-08
1.45397e-07
7.3687e-07
-7.50937e-08
1.00942e-07
7.8358e-07
-7.83431e-08
5.30252e-08
8.16442e-07
-8.16404e-08
3.83264e-09
8.32972e-07
-8.3353e-08
-4.53818e-08
8.33641e-07
-8.34488e-08
-9.338e-08
8.18455e-07
-8.19282e-08
-1.38035e-07
7.86936e-07
-7.87965e-08
-1.77027e-07
7.41546e-07
-7.57416e-08
-2.20291e-07
6.82217e-07
-5.80512e-08
-2.83832e-07
6.25352e-07
-3.9137e-08
-3.67835e-07
5.59673e-07
-3.56949e-08
-1.4914e-07
-8.89142e-08
-1.01998e-07
1.5022e-07
-6.85382e-08
-9.09696e-08
1.73261e-07
-5.29722e-08
-7.64452e-08
1.48734e-07
-4.36415e-08
-5.86399e-08
1.2249e-07
-3.57729e-08
-3.83366e-08
1.00776e-07
-3.10423e-08
-1.75341e-08
8.63984e-08
-2.74302e-08
-1.36438e-09
7.81826e-08
-2.08503e-08
7.0932e-08
-5.21831e-09
2.53459e-09
4.23139e-08
-2.62155e-09
1.71119e-08
4.67707e-08
-1.47393e-08
3.6122e-08
5.15033e-08
-1.95459e-08
5.64335e-08
5.99724e-08
-2.17282e-08
7.77149e-08
7.40747e-08
-2.46226e-08
9.93948e-08
9.5894e-08
-2.92356e-08
1.18022e-07
1.28982e-07
-3.58093e-08
1.22366e-07
1.77546e-07
-4.33906e-08
9.69969e-08
2.4751e-07
-5.97104e-08
3.33579e-07
-9.67252e-08
1.77091e-07
3.07678e-07
6.96719e-08
2.40188e-07
5.23751e-07
3.18997e-08
2.36957e-07
6.54634e-07
2.49405e-08
1.94795e-07
7.52154e-07
2.68769e-08
1.3605e-07
8.18064e-07
2.42605e-08
7.14214e-08
8.59938e-07
2.1133e-08
4.61359e-09
8.80056e-07
1.97233e-08
-6.22217e-08
8.80749e-07
1.97278e-08
-1.26953e-07
8.62042e-07
2.11435e-08
-1.85964e-07
8.21661e-07
2.42864e-08
-2.28752e-07
7.57412e-07
2.69213e-08
-2.33466e-07
6.61865e-07
2.50675e-08
-1.73154e-07
5.33281e-07
3.17579e-08
3.18043e-07
6.84766e-08
-9.41122e-08
3.39097e-07
-9.47644e-08
-1.1529e-07
2.55665e-07
-6.12256e-08
-1.06383e-07
1.86517e-07
-4.66895e-08
-8.23331e-08
1.39052e-07
-4.06122e-08
-5.39875e-08
1.08008e-07
-3.55781e-08
-2.57732e-08
8.96278e-08
-3.14437e-08
-3.77348e-09
7.97488e-08
-2.35659e-08
7.20575e-08
-4.89895e-09
4.07174e-09
4.05765e-08
-2.33433e-09
2.2169e-08
4.48014e-08
-1.6128e-08
4.61514e-08
4.91963e-08
-2.16754e-08
7.34995e-08
5.69615e-08
-2.43371e-08
1.05965e-07
6.96192e-08
-2.80101e-08
1.47258e-07
8.8493e-08
-3.38918e-08
2.03266e-07
1.15154e-07
-4.21799e-08
2.81461e-07
1.49794e-07
-5.04436e-08
3.95306e-07
1.89343e-07
-5.56778e-08
5.46371e-07
2.25933e-07
-4.34186e-08
4.25454e-07
8.19179e-08
3.89989e-08
4.46651e-07
2.2643e-07
6.00506e-08
4.34018e-07
3.97481e-07
1.38904e-07
3.7258e-07
5.13643e-07
2.02429e-07
2.85028e-07
6.01348e-07
2.38358e-07
1.90766e-07
6.60334e-07
2.51992e-07
9.74564e-08
6.97498e-07
2.55749e-07
5.42057e-09
7.15399e-07
2.56693e-07
-8.65967e-08
7.15998e-07
2.56768e-07
-1.79848e-07
6.99312e-07
2.55981e-07
-2.74014e-07
6.63416e-07
2.52411e-07
-3.61438e-07
6.05778e-07
2.39058e-07
-4.22767e-07
5.19509e-07
2.03684e-07
-4.34875e-07
4.04545e-07
1.40845e-07
-4.1465e-07
2.34491e-07
6.33262e-08
-5.41192e-07
8.4291e-08
4.2251e-08
-3.89938e-07
2.30566e-07
-4.27237e-08
-2.73277e-07
1.96232e-07
-5.72276e-08
-1.90805e-07
1.57919e-07
-5.38745e-08
-1.28732e-07
1.24632e-07
-4.76523e-08
-7.94737e-08
1.00101e-07
-4.13513e-08
-3.82571e-08
8.46133e-08
-3.6202e-08
-7.76348e-09
7.60128e-08
-2.67577e-08
6.88835e-08
-4.58955e-09
5.33803e-09
3.73064e-08
-2.06788e-09
2.64635e-08
4.11083e-08
-1.74323e-08
5.44969e-08
4.48627e-08
-2.36999e-08
8.69521e-08
5.13313e-08
-2.68251e-08
1.26264e-07
6.1531e-08
-3.12241e-08
1.77104e-07
7.59764e-08
-3.83232e-08
2.45873e-07
9.47131e-08
-4.83277e-08
3.38256e-07
1.16493e-07
-5.90823e-08
4.57365e-07
1.36403e-07
-6.61683e-08
5.92648e-07
1.49928e-07
-5.92782e-08
6.0023e-07
1.04487e-07
-3.01514e-08
6.11103e-07
1.87772e-07
2.77842e-08
5.61508e-07
2.91638e-07
1.55438e-07
4.6471e-07
3.71509e-07
2.38933e-07
3.49044e-07
4.34214e-07
2.828e-07
2.31101e-07
4.76741e-07
3.01537e-07
1.17039e-07
5.0402e-07
3.07541e-07
6.04024e-09
5.17246e-07
3.09152e-07
-1.04924e-07
5.17737e-07
3.09225e-07
-2.1888e-07
5.055e-07
3.07768e-07
-3.36647e-07
4.79222e-07
3.01962e-07
-4.52104e-07
4.37697e-07
2.83538e-07
-5.48864e-07
3.75966e-07
2.40303e-07
-5.98795e-07
2.96818e-07
1.57659e-07
-5.89173e-07
1.93326e-07
3.15426e-08
-5.85182e-07
1.07968e-07
-2.76685e-08
-4.50732e-07
1.5486e-07
-5.87438e-08
-3.29369e-07
1.42612e-07
-6.77429e-08
-2.32545e-07
1.23864e-07
-6.27684e-08
-1.56978e-07
1.03461e-07
-5.4397e-08
-9.69277e-08
8.6793e-08
-4.67418e-08
-4.72218e-08
7.5469e-08
-4.05617e-08
-1.04629e-08
6.88669e-08
-2.96129e-08
6.27096e-08
-4.28897e-09
6.42398e-09
3.27056e-08
-1.82322e-09
3.01552e-08
3.59482e-08
-1.85711e-08
6.15807e-08
3.89036e-08
-2.54664e-08
9.80392e-08
4.38487e-08
-2.89758e-08
1.42143e-07
5.14097e-08
-3.39826e-08
1.98643e-07
6.16631e-08
-4.21866e-08
2.73246e-07
7.41482e-08
-5.40383e-08
3.69991e-07
8.78579e-08
-6.81105e-08
4.87102e-07
9.93101e-08
-8.00178e-08
6.09576e-07
1.08627e-07
-8.11727e-08
6.71326e-07
1.0165e-07
-5.89133e-08
7.00821e-07
1.49016e-07
9.26084e-09
6.41141e-07
2.09841e-07
1.41477e-07
5.27707e-07
2.60661e-07
2.24282e-07
3.93303e-07
3.01909e-07
2.66709e-07
2.59067e-07
3.30341e-07
2.80635e-07
1.30743e-07
3.4902e-07
2.83325e-07
6.53905e-09
3.58199e-07
2.83251e-07
-1.17625e-07
3.5861e-07
2.83291e-07
-2.45828e-07
3.5025e-07
2.83452e-07
-3.79873e-07
3.32374e-07
2.80893e-07
-5.14094e-07
3.04705e-07
2.67213e-07
-6.27654e-07
2.6416e-07
2.25366e-07
-6.88091e-07
2.13848e-07
1.43407e-07
-6.60847e-07
1.53355e-07
1.27265e-08
-6.01585e-07
1.05431e-07
-5.67253e-08
-4.79482e-07
1.13288e-07
-8.05305e-08
-3.6018e-07
1.04861e-07
-8.15517e-08
-2.58789e-07
9.44216e-08
-7.19488e-08
-1.76773e-07
8.19872e-08
-6.0542e-08
-1.10015e-07
7.13632e-08
-5.13287e-08
-5.4159e-08
6.37946e-08
-4.41815e-08
-1.25303e-08
5.91868e-08
-3.19486e-08
5.41479e-08
-3.96859e-09
7.17714e-09
2.71654e-08
-1.63689e-09
3.28589e-08
2.97806e-08
-1.95142e-08
6.6714e-08
3.19715e-08
-2.6923e-08
1.05758e-07
3.55362e-08
-3.07311e-08
1.52501e-07
4.08619e-08
-3.61951e-08
2.11521e-07
4.78674e-08
-4.52244e-08
2.88028e-07
5.60769e-08
-5.84364e-08
3.85678e-07
6.49393e-08
-7.47312e-08
5.01815e-07
7.2648e-08
-8.9475e-08
6.23292e-07
8.09892e-08
-9.38387e-08
7.10967e-07
8.61216e-08
-7.21463e-08
7.52369e-07
1.15024e-07
-7.40937e-09
6.8789e-07
1.51776e-07
1.22544e-07
5.65762e-07
1.83798e-07
1.98991e-07
4.21128e-07
2.10434e-07
2.36108e-07
2.77261e-07
2.29335e-07
2.44874e-07
1.39858e-07
2.41992e-07
2.44431e-07
6.94406e-09
2.48326e-07
2.42787e-07
-1.25937e-07
2.48695e-07
2.42797e-07
-2.63239e-07
2.43087e-07
2.44464e-07
-4.06959e-07
2.31123e-07
2.4497e-07
-5.51484e-07
2.12852e-07
2.36378e-07
-6.73871e-07
1.86767e-07
1.99781e-07
-7.39341e-07
1.55151e-07
1.24167e-07
-7.00515e-07
1.18729e-07
-4.20028e-09
-6.1475e-07
8.97772e-08
-7.01108e-08
-4.93409e-07
8.5224e-08
-9.32771e-08
-3.7498e-07
7.75219e-08
-9.10887e-08
-2.72435e-07
7.06266e-08
-7.87508e-08
-1.87989e-07
6.28331e-08
-6.52914e-08
-1.17876e-07
5.61588e-08
-5.49089e-08
-5.8363e-08
5.12947e-08
-4.70128e-08
-1.36207e-08
4.8221e-08
-3.37764e-08
4.42932e-08
-3.76601e-09
7.70146e-09
2.09705e-08
-1.50663e-09
3.48135e-08
2.29268e-08
-2.02582e-08
7.0414e-08
2.44299e-08
-2.80589e-08
1.11212e-07
2.68205e-08
-3.20826e-08
1.59588e-07
3.03537e-08
-3.78676e-08
2.19973e-07
3.4951e-08
-4.74686e-08
2.97345e-07
4.03127e-08
-6.16078e-08
3.95375e-07
4.62469e-08
-7.93372e-08
5.11854e-07
5.20063e-08
-9.58377e-08
6.35747e-07
5.91678e-08
-1.02071e-07
7.35905e-07
6.66533e-08
-8.06902e-08
7.8374e-07
8.49805e-08
-1.77914e-08
7.17548e-07
1.07657e-07
1.10311e-07
5.90638e-07
1.27986e-07
1.82722e-07
4.39668e-07
1.45158e-07
2.16247e-07
2.89579e-07
1.57671e-07
2.21753e-07
1.46129e-07
1.66175e-07
2.19266e-07
7.3087e-09
1.7053e-07
2.16616e-07
-1.31491e-07
1.70884e-07
2.1661e-07
-2.74875e-07
1.67223e-07
2.19249e-07
-4.24877e-07
1.59364e-07
2.21761e-07
-5.75826e-07
1.47415e-07
2.16386e-07
-7.03108e-07
1.30706e-07
1.83342e-07
-7.70414e-07
1.10708e-07
1.11749e-07
-7.25295e-07
8.8278e-08
-1.4668e-08
-6.26769e-07
7.00288e-08
-7.87774e-08
-5.02847e-07
6.29019e-08
-1.016e-07
-3.83926e-07
5.61614e-08
-9.75606e-08
-2.80754e-07
5.09819e-08
-8.35274e-08
-1.95018e-07
4.58383e-08
-6.87416e-08
-1.2291e-07
4.16075e-08
-5.75568e-08
-6.10387e-08
3.85543e-08
-4.91306e-08
-1.42397e-08
3.6584e-08
-3.5162e-08
3.3706e-08
-3.65259e-09
8.01877e-09
1.43908e-08
-1.43899e-09
3.60862e-08
1.56743e-08
-2.0815e-08
7.28398e-08
1.65679e-08
-2.88915e-08
1.14756e-07
1.79632e-08
-3.30586e-08
1.64123e-07
2.00344e-08
-3.9048e-08
2.25315e-07
2.27611e-08
-4.90019e-08
3.03284e-07
2.60364e-08
-6.36932e-08
4.01889e-07
2.9866e-08
-8.22242e-08
5.19494e-07
3.40636e-08
-9.96622e-08
6.45905e-07
3.95505e-08
-1.06793e-07
7.52229e-07
4.60631e-08
-8.57337e-08
8.03595e-07
5.72727e-08
-2.36585e-08
7.36441e-07
7.05711e-08
1.0424e-07
6.06677e-07
8.26966e-08
1.75054e-07
4.51854e-07
9.29994e-08
2.06981e-07
2.97828e-07
1.00714e-07
2.10984e-07
1.50418e-07
1.0603e-07
2.07555e-07
7.6563e-09
1.0885e-07
2.04441e-07
-1.35101e-07
1.09212e-07
2.0443e-07
-2.82494e-07
1.07094e-07
2.07522e-07
-4.36512e-07
1.02422e-07
2.1096e-07
-5.91417e-07
9.52517e-08
2.07068e-07
-7.21668e-07
8.53565e-08
1.75601e-07
-7.90034e-07
7.34878e-08
1.05586e-07
-7.4144e-07
6.03214e-08
-2.06375e-08
-6.36621e-07
4.91383e-08
-8.39288e-08
-5.10067e-07
4.27785e-08
-1.06431e-07
-3.89887e-07
3.74941e-08
-1.01512e-07
-2.8594e-07
3.36146e-08
-8.65797e-08
-1.99292e-07
3.02494e-08
-7.10586e-08
-1.2594e-07
2.76542e-08
-5.93996e-08
-6.25971e-08
2.58532e-08
-5.06413e-08
-1.45239e-08
2.46903e-08
-3.61794e-08
2.28187e-08
-3.63657e-09
8.18645e-09
7.63173e-09
-1.42743e-09
3.68163e-08
8.23703e-09
-2.11925e-08
7.4257e-08
8.56322e-09
-2.9436e-08
1.16849e-07
9.0565e-09
-3.36855e-08
1.66845e-07
9.82756e-09
-3.97886e-08
2.28612e-07
1.09283e-08
-4.9935e-08
3.07141e-07
1.24283e-08
-6.49209e-08
4.06423e-07
1.44457e-08
-8.38612e-08
5.2513e-07
1.71187e-08
-1.01763e-07
6.533e-07
2.06861e-08
-1.09305e-07
7.62571e-07
2.51689e-08
-8.83764e-08
8.15614e-07
3.06391e-08
-2.64093e-08
7.47907e-07
3.63634e-08
1.01914e-07
6.16488e-07
4.16516e-08
1.72465e-07
4.59422e-07
4.61124e-08
2.03953e-07
3.0303e-07
4.96383e-08
2.07467e-07
1.53204e-07
5.21412e-08
2.03715e-07
8.00959e-09
5.36047e-08
2.0044e-07
-1.37202e-07
5.39936e-08
2.0043e-07
-2.87068e-07
5.32764e-08
2.03684e-07
-4.4355e-07
5.14628e-08
2.07441e-07
-6.0083e-07
4.8504e-08
2.04027e-07
-7.32878e-07
4.44223e-08
1.72983e-07
-8.01917e-07
3.93134e-08
1.03213e-07
-7.517e-07
3.35732e-08
-2.3468e-08
-6.43879e-07
2.79873e-08
-8.66706e-08
-5.15493e-07
2.34483e-08
-1.09055e-07
-3.94114e-07
1.98568e-08
-1.03742e-07
-2.89352e-07
1.72205e-08
-8.8368e-08
-2.01944e-07
1.53158e-08
-7.24749e-08
-1.27747e-07
1.40223e-08
-6.05651e-08
-6.34914e-08
1.32215e-08
-5.16235e-08
-1.46613e-08
1.27281e-08
-3.6868e-08
1.18405e-08
-3.6831e-09
8.22249e-09
8.80611e-10
-1.47137e-09
3.70522e-08
8.05333e-10
-2.1398e-08
7.47562e-08
5.63613e-10
-2.97044e-08
1.17641e-07
1.52852e-10
-3.39816e-08
1.67971e-07
-3.815e-10
-4.01208e-08
2.30147e-07
-9.2104e-10
-5.03263e-08
3.09198e-07
-1.22312e-09
-6.53999e-08
4.09151e-07
-1.0523e-09
-8.44545e-08
5.28697e-07
5.08551e-11
-1.02479e-07
6.57754e-07
1.76675e-09
-1.10137e-07
7.67784e-07
4.39302e-09
-8.92538e-08
8.21073e-07
4.56063e-09
-2.72109e-08
7.53011e-07
2.89672e-09
1.01529e-07
6.20862e-07
1.44005e-09
1.7236e-07
4.62893e-07
1.04858e-10
2.03977e-07
3.05506e-07
-4.98303e-10
2.07524e-07
1.54647e-07
-7.74999e-10
2.03775e-07
8.38753e-09
-6.36917e-10
2.00501e-07
-1.37923e-07
-1.94014e-10
2.00498e-07
-2.88875e-07
4.58865e-10
2.0377e-07
-4.46476e-07
1.56039e-09
2.07503e-07
-6.04834e-07
2.82888e-09
2.04033e-07
-7.37807e-07
4.55228e-09
1.72843e-07
-8.07366e-07
6.09957e-09
1.02773e-07
-7.56981e-07
7.55174e-09
-2.4364e-08
-6.48385e-07
7.0536e-09
-8.76621e-08
-5.19075e-07
4.15406e-09
-1.10016e-07
-3.9681e-07
2.19223e-09
-1.046e-07
-2.91303e-07
8.1844e-10
-8.91048e-08
-2.03283e-07
4.03167e-10
-7.31072e-08
-1.2857e-07
4.32846e-10
-6.11239e-08
-6.38652e-08
6.40494e-10
-5.21238e-08
-1.47037e-08
8.19339e-10
-3.72527e-08
9.20913e-10
-3.78414e-09
8.1273e-09
-5.67523e-09
-1.57146e-09
3.67938e-08
-6.42728e-09
-2.14338e-08
7.43362e-08
-7.27841e-09
-2.97004e-08
1.17126e-07
-8.68425e-09
-3.39526e-08
1.67489e-07
-1.06918e-08
-4.00529e-08
2.29896e-07
-1.31386e-08
-5.01892e-08
3.09431e-07
-1.56063e-08
-6.5152e-08
4.10082e-07
-1.7662e-08
-8.40409e-08
5.30227e-07
-1.82129e-08
-1.01881e-07
6.59411e-07
-1.80606e-08
-1.09357e-07
7.68141e-07
-1.58757e-08
-8.84617e-08
8.20192e-07
-2.12422e-08
-2.62478e-08
7.51894e-07
-3.16121e-08
1.02807e-07
6.19854e-07
-4.08683e-08
1.74348e-07
4.62277e-07
-4.89019e-08
2.06584e-07
3.05281e-07
-5.41826e-08
2.1068e-07
1.54784e-07
-5.75231e-08
2.07245e-07
8.84172e-09
-5.88062e-08
2.04112e-07
-1.37172e-07
-5.82653e-08
2.04085e-07
-2.87935e-07
-5.59367e-08
2.07158e-07
-4.45325e-07
-5.16517e-08
2.10602e-07
-6.035e-07
-4.56055e-08
2.0661e-07
-7.36576e-07
-3.71535e-08
1.74781e-07
-8.06604e-07
-2.78294e-08
1.03957e-07
-7.57597e-07
-1.79021e-08
-2.35532e-08
-6.50315e-07
-1.32e-08
-8.70291e-08
-5.20854e-07
-1.59053e-08
-1.09401e-07
-3.97956e-07
-1.65547e-08
-1.04151e-07
-2.91776e-07
-1.65211e-08
-8.88407e-08
-2.03309e-07
-1.50702e-08
-7.29932e-08
-1.28409e-07
-1.33672e-08
-6.11e-08
-6.37159e-08
-1.18962e-08
-5.21568e-08
-1.46493e-08
-1.09037e-08
-3.73435e-08
-9.78566e-09
-3.94277e-09
7.88202e-09
-1.1825e-08
-1.73225e-09
3.59937e-08
-1.32403e-08
-2.12987e-08
7.29054e-08
-1.47704e-08
-2.94197e-08
1.15147e-07
-1.73355e-08
-3.359e-08
1.65153e-07
-2.11295e-08
-3.95684e-08
2.27519e-07
-2.60166e-08
-4.94879e-08
3.07458e-07
-3.14425e-08
-6.41027e-08
4.08912e-07
-3.6653e-08
-8.24631e-08
5.29817e-07
-3.9448e-08
-9.96699e-08
6.58763e-07
-4.0459e-08
-1.06548e-07
7.63385e-07
-3.49802e-08
-8.55171e-08
8.11986e-07
-4.71438e-08
-2.26993e-08
7.43591e-07
-7.026e-08
1.07042e-07
6.12786e-07
-9.04561e-08
1.80393e-07
4.57203e-07
-1.07568e-07
2.1425e-07
3.02139e-07
-1.1889e-07
2.19771e-07
1.53517e-07
-1.26088e-07
2.17187e-07
9.3621e-09
-1.29106e-07
2.14455e-07
-1.34909e-07
-1.28408e-07
2.14414e-07
-2.83889e-07
-1.24021e-07
2.17064e-07
-4.39543e-07
-1.15593e-07
2.19595e-07
-5.96025e-07
-1.03236e-07
2.14112e-07
-7.28223e-07
-8.55652e-08
1.8061e-07
-7.9872e-07
-6.52784e-08
1.07946e-07
-7.53352e-07
-4.29846e-08
-2.02857e-08
-6.50163e-07
-3.2056e-08
-8.43334e-08
-5.20921e-07
-3.82994e-08
-1.06848e-07
-3.97294e-07
-3.80087e-08
-1.02172e-07
-2.90381e-07
-3.59899e-08
-8.74442e-08
-2.01654e-07
-3.17349e-08
-7.20628e-08
-1.27004e-07
-2.75603e-08
-6.04566e-08
-6.28965e-08
-2.43011e-08
-5.17028e-08
-1.44416e-08
-2.22245e-08
-3.7134e-08
-2.00506e-08
-4.17669e-09
7.43233e-09
-1.72949e-08
-1.96244e-09
3.45198e-08
-1.93376e-08
-2.09901e-08
7.02078e-08
-2.16028e-08
-2.88556e-08
1.11246e-07
-2.54945e-08
-3.28791e-08
1.60208e-07
-3.14604e-08
-3.86308e-08
2.21892e-07
-3.95668e-08
-4.81346e-08
3.01863e-07
-4.93556e-08
-6.20578e-08
4.0429e-07
-5.97714e-08
-7.93083e-08
5.2698e-07
-6.70004e-08
-9.51381e-08
6.56598e-07
-6.95541e-08
-1.00522e-07
7.52009e-07
-5.09365e-08
-7.9455e-08
7.93344e-07
-7.29703e-08
-1.55087e-08
7.24961e-07
-1.17752e-07
1.15875e-07
5.97119e-07
-1.55526e-07
1.92911e-07
4.45992e-07
-1.86446e-07
2.30004e-07
2.95149e-07
-2.06522e-07
2.38476e-07
1.50469e-07
-2.1909e-07
2.37682e-07
1.00282e-08
-2.24458e-07
2.35793e-07
-1.3057e-07
-2.23516e-07
2.35705e-07
-2.75735e-07
-2.16268e-07
2.37412e-07
-4.27402e-07
-2.01968e-07
2.38043e-07
-5.79816e-07
-1.80325e-07
2.29503e-07
-7.09541e-07
-1.48517e-07
1.92677e-07
-7.80637e-07
-1.1048e-07
1.16298e-07
-7.42852e-07
-6.71803e-08
-1.35893e-08
-6.48721e-07
-4.75212e-08
-7.86659e-08
-5.18761e-07
-6.70214e-08
-1.01239e-07
-3.93413e-07
-6.5362e-08
-9.79947e-08
-2.85678e-07
-5.91793e-08
-8.45448e-08
-1.97183e-07
-5.00829e-08
-7.01473e-08
-1.23596e-07
-4.20377e-08
-5.91099e-08
-6.09728e-08
-3.62103e-08
-5.07138e-08
-1.38992e-08
-3.26929e-08
-3.66052e-08
-2.94224e-08
-4.52734e-09
6.76941e-09
-2.18084e-08
-2.25589e-09
3.23368e-08
-2.44016e-08
-2.05033e-08
6.61396e-08
-2.74045e-08
-2.80011e-08
1.0515e-07
-3.26987e-08
-3.1806e-08
1.52023e-07
-4.11196e-08
-3.72138e-08
2.11741e-07
-5.3204e-08
-4.60813e-08
2.90419e-07
-6.90982e-08
-5.89348e-08
3.929e-07
-8.7863e-08
-7.43893e-08
5.18517e-07
-1.04707e-07
-8.79102e-08
6.53586e-07
-1.13809e-07
-9.08137e-08
7.29597e-07
-5.81685e-08
-6.87787e-08
7.55981e-07
-9.64594e-08
-2.89519e-09
6.90014e-07
-1.81424e-07
1.2964e-07
5.69058e-07
-2.46163e-07
2.11593e-07
4.26256e-07
-2.96693e-07
2.53048e-07
2.82938e-07
-3.29149e-07
2.65945e-07
1.45055e-07
-3.48953e-07
2.67746e-07
1.09292e-08
-3.57437e-07
2.67105e-07
-1.23385e-07
-3.56127e-07
2.66925e-07
-2.61873e-07
-3.44978e-07
2.67198e-07
-4.06266e-07
-3.22615e-07
2.6504e-07
-5.50858e-07
-2.87639e-07
2.51906e-07
-6.74401e-07
-2.35571e-07
2.10597e-07
-7.44149e-07
-1.70038e-07
1.29306e-07
-7.21933e-07
-8.77741e-08
-1.62263e-09
-6.46612e-07
-5.4301e-08
-6.85416e-08
-5.11135e-07
-1.10277e-07
-9.22206e-08
-3.83001e-07
-1.0218e-07
-9.13165e-08
-2.75438e-07
-8.67517e-08
-7.99901e-08
-1.88601e-07
-6.97552e-08
-6.71651e-08
-1.17514e-07
-5.61369e-08
-5.69874e-08
-5.76387e-08
-4.69642e-08
-4.91218e-08
-1.29313e-08
-4.16938e-08
-3.57065e-08
-3.73687e-08
-4.98499e-09
5.79471e-09
-2.49859e-08
-2.61723e-09
2.92238e-08
-2.79811e-08
-1.98496e-08
6.02201e-08
-3.15221e-08
-2.68787e-08
9.58137e-08
-3.79004e-08
-3.0392e-08
1.38431e-07
-4.8414e-08
-3.53225e-08
1.92903e-07
-6.43808e-08
-4.32957e-08
2.65922e-07
-8.74929e-08
-5.46243e-08
3.64028e-07
-1.18753e-07
-6.72158e-08
4.92229e-07
-1.56315e-07
-7.65928e-08
6.48068e-07
-1.97705e-07
-7.19432e-08
6.84766e-07
-5.03427e-08
-4.45238e-08
6.80748e-07
-1.04237e-07
1.17954e-08
6.22999e-07