/*--------------------------------*- C++ -*----------------------------------*\
| =========                 |                                                 |
| \\      /  F ield         | OpenFOAM: The Open Source CFD Toolbox           |
|  \\    /   O peration     | Version:  2112                                  |
|   \\  /    A nd           | Website:  www.openfoam.com                      |
|    \\/     M anipulation  |                                                 |
\*---------------------------------------------------------------------------*/
FoamFile
{
    version     2.0;
    format      ascii;
    arch        "LSB;label=32;scalar=64";
    class       volVectorField;
    location    "1.9";
    object      U;
}
// * * * * * * * * * * * * * * * * * * * * * * * * * * * * * * * * * * * * * //

dimensions      [0 1 -1 0 0 0 0];

internalField   nonuniform List<vector> 
64906
(
(3.88235e-07 1.32267e-06 -2.08743e-06)
(2.76049e-06 1.74612e-07 -2.13855e-06)
(6.2794e-06 -8.13794e-07 -1.71348e-06)
(9.9308e-06 -1.53602e-06 -1.28315e-06)
(1.35781e-05 -1.92946e-06 -1.01167e-06)
(1.71109e-05 -2.10105e-06 -8.68327e-07)
(2.05141e-05 -2.14163e-06 -7.95749e-07)
(2.37035e-05 -2.07606e-06 -7.48884e-07)
(2.65747e-05 -1.91857e-06 -7.08674e-07)
(2.88138e-05 -1.58064e-06 -6.42251e-07)
(3.01718e-05 -1.14376e-06 -5.71415e-07)
(3.01556e-05 -4.48721e-07 -4.6532e-07)
(2.86037e-05 9.51582e-08 -3.53503e-07)
(2.57539e-05 5.99466e-07 -2.11005e-07)
(2.17512e-05 9.41869e-07 -8.53145e-08)
(1.69126e-05 1.20268e-06 2.39712e-08)
(1.14513e-05 1.35674e-06 9.71601e-08)
(5.64431e-06 1.42947e-06 1.33776e-07)
(-2.72946e-07 1.41777e-06 1.29629e-07)
(-6.03941e-06 1.32174e-06 8.51838e-08)
(-1.14198e-05 1.14456e-06 4.59583e-09)
(-1.61387e-05 8.6093e-07 -1.11584e-07)
(-1.99876e-05 4.97491e-07 -2.43235e-07)
(-2.26525e-05 -2.65181e-08 -3.91384e-07)
(-2.3999e-05 -5.84137e-07 -5.0862e-07)
(-2.37935e-05 -1.28891e-06 -6.2338e-07)
(-2.22096e-05 -1.71712e-06 -7.09786e-07)
(-1.97458e-05 -2.02502e-06 -8.10568e-07)
(-1.6642e-05 -2.09096e-06 -9.24493e-07)
(-1.32165e-05 -1.93751e-06 -1.12678e-06)
(-9.58208e-06 -1.44085e-06 -1.49964e-06)
(-5.94312e-06 -4.90193e-07 -2.10843e-06)
(-2.5107e-06 8.03081e-07 -2.75283e-06)
(-1.54462e-07 2.13948e-06 -2.79669e-06)
(-1.31174e-06 6.19188e-06 -2.73329e-06)
(5.13349e-07 5.30156e-06 -6.35355e-06)
(5.21669e-06 4.27956e-06 -7.33406e-06)
(9.65058e-06 3.62831e-06 -7.49728e-06)
(1.38642e-05 3.57777e-06 -7.72607e-06)
(1.77766e-05 4.04329e-06 -8.20868e-06)
(2.1474e-05 4.9421e-06 -8.95707e-06)
(2.49292e-05 6.29887e-06 -9.95257e-06)
(2.81205e-05 8.15772e-06 -1.11854e-05)
(3.0662e-05 1.07623e-05 -1.26496e-05)
(3.2332e-05 1.393e-05 -1.4314e-05)
(3.23859e-05 1.79282e-05 -1.61034e-05)
(3.06368e-05 2.14644e-05 -1.78093e-05)
(2.75243e-05 2.46549e-05 -1.93191e-05)
(2.31694e-05 2.71191e-05 -2.05724e-05)
(1.79814e-05 2.9015e-05 -2.15439e-05)
(1.21371e-05 3.02587e-05 -2.22126e-05)
(5.94756e-06 3.08926e-05 -2.25686e-05)
(-3.60197e-07 3.09025e-05 -2.26047e-05)
(-6.50449e-06 3.02889e-05 -2.23207e-05)
(-1.22594e-05 2.90672e-05 -2.17243e-05)
(-1.73147e-05 2.71963e-05 -2.08259e-05)
(-2.1499e-05 2.47653e-05 -1.96473e-05)
(-2.44047e-05 2.16179e-05 -1.82159e-05)
(-2.59242e-05 1.81492e-05 -1.65954e-05)
(-2.56167e-05 1.42405e-05 -1.49047e-05)
(-2.36793e-05 1.12202e-05 -1.33625e-05)
(-2.08449e-05 8.81563e-06 -1.20605e-05)
(-1.72801e-05 7.28214e-06 -1.10579e-05)
(-1.33165e-05 6.47239e-06 -1.03947e-05)
(-8.90847e-06 6.48193e-06 -1.00613e-05)
(-4.21641e-06 7.33672e-06 -9.82115e-06)
(7.02666e-07 8.63991e-06 -8.56007e-06)
(2.17537e-06 9.52999e-06 -3.78536e-06)
(-2.33255e-06 1.4332e-05 -2.56908e-06)
(-8.61894e-07 1.5201e-05 -7.50802e-06)
(4.61687e-06 1.52676e-05 -9.02254e-06)
(9.76397e-06 1.57208e-05 -9.44672e-06)
(1.46317e-05 1.69775e-05 -9.88108e-06)
(1.91149e-05 1.90708e-05 -1.0597e-05)
(2.3405e-05 2.20304e-05 -1.16561e-05)
(2.75412e-05 2.60337e-05 -1.30704e-05)
(3.16243e-05 3.12714e-05 -1.48483e-05)
(3.50967e-05 3.8313e-05 -1.70023e-05)
(3.77276e-05 4.68286e-05 -1.94843e-05)
(3.80247e-05 5.73484e-05 -2.21759e-05)
(3.57091e-05 6.67254e-05 -2.47512e-05)
(3.18222e-05 7.51323e-05 -2.70277e-05)
(2.65181e-05 8.1724e-05 -2.89121e-05)
(2.04116e-05 8.68244e-05 -3.03654e-05)
(1.36063e-05 9.02222e-05 -3.13601e-05)
(6.46711e-06 9.19781e-05 -3.18864e-05)
(-8.02076e-07 9.2048e-05 -3.19332e-05)
(-7.89314e-06 9.04324e-05 -3.15005e-05)
(-1.46031e-05 8.71789e-05 -3.05994e-05)
(-2.05654e-05 8.22288e-05 -2.92407e-05)
(-2.56819e-05 7.58051e-05 -2.74525e-05)
(-2.93333e-05 6.75883e-05 -2.52769e-05)
(-3.1383e-05 5.84551e-05 -2.28113e-05)
(-3.07772e-05 4.82255e-05 -2.02471e-05)
(-2.78127e-05 4.01164e-05 -1.79222e-05)
(-2.39573e-05 3.35496e-05 -1.59741e-05)
(-1.93366e-05 2.89419e-05 -1.44768e-05)
(-1.44195e-05 2.57969e-05 -1.34395e-05)
(-9.00212e-06 2.40187e-05 -1.27876e-05)
(-3.30267e-06 2.33942e-05 -1.2167e-05)
(2.6518e-06 2.3255e-05 -1.01882e-05)
(3.58385e-06 2.18508e-05 -3.66604e-06)
(-2.88627e-06 2.26903e-05 -2.2142e-06)
(-1.39314e-06 2.4686e-05 -7.602e-06)
(4.93139e-06 2.56222e-05 -9.26475e-06)
(1.09815e-05 2.71388e-05 -9.71762e-06)
(1.67964e-05 2.97352e-05 -1.01849e-05)
(2.22449e-05 3.3516e-05 -1.09813e-05)
(2.76504e-05 3.86055e-05 -1.21968e-05)
(3.31541e-05 4.53702e-05 -1.38729e-05)
(3.91057e-05 5.42488e-05 -1.60348e-05)
(4.4617e-05 6.64451e-05 -1.87254e-05)
(4.94624e-05 8.1577e-05 -2.18713e-05)
(5.02886e-05 0.000101008 -2.53605e-05)
(4.65993e-05 0.000117776 -2.86809e-05)
(4.09711e-05 0.000132532 -3.15928e-05)
(3.36292e-05 0.000143891 -3.3983e-05)
(2.558e-05 0.000152678 -3.57983e-05)
(1.67396e-05 0.000158523 -3.70282e-05)
(7.57903e-06 0.000161553 -3.76736e-05)
(-1.73931e-06 0.000161685 -3.77234e-05)
(-1.08491e-05 0.000158917 -3.71771e-05)
(-1.95883e-05 0.000153338 -3.60457e-05)
(-2.74791e-05 0.000144822 -3.43287e-05)
(-3.461e-05 0.000133757 -3.20368e-05)
(-3.99574e-05 0.000119321 -2.92264e-05)
(-4.33223e-05 0.000102956 -2.60149e-05)
(-4.20915e-05 8.39926e-05 -2.26541e-05)
(-3.68118e-05 6.95295e-05 -1.96705e-05)
(-3.08096e-05 5.80543e-05 -1.71995e-05)
(-2.41344e-05 5.00704e-05 -1.53422e-05)
(-1.75759e-05 4.44339e-05 -1.40784e-05)
(-1.06757e-05 4.08015e-05 -1.33043e-05)
(-3.69146e-06 3.87537e-05 -1.26029e-05)
(3.40167e-06 3.74921e-05 -1.042e-05)
(4.34991e-06 3.45921e-05 -3.27624e-06)
(-3.10263e-06 3.09469e-05 -1.90051e-06)
(-1.20267e-06 3.38322e-05 -7.6753e-06)
(6.30509e-06 3.55722e-05 -9.46116e-06)
(1.35628e-05 3.81813e-05 -9.91918e-06)
(2.06669e-05 4.22171e-05 -1.04284e-05)
(2.75012e-05 4.78088e-05 -1.13557e-05)
(3.4599e-05 5.51485e-05 -1.28252e-05)
(4.23022e-05 6.48163e-05 -1.49271e-05)
(5.14996e-05 7.76544e-05 -1.77022e-05)
(6.08112e-05 9.60549e-05 -2.12505e-05)
(7.02624e-05 0.00012005 -2.54314e-05)
(7.21176e-05 0.000153358 -3.02769e-05)
(6.53997e-05 0.000180482 -3.48241e-05)
(5.64556e-05 0.000203666 -3.88166e-05)
(4.55329e-05 0.00022099 -4.20835e-05)
(3.42343e-05 0.000234427 -4.4489e-05)
(2.19872e-05 0.000243336 -4.60978e-05)
(9.44969e-06 0.000247966 -4.69335e-05)
(-3.29996e-06 0.000248165 -4.69873e-05)
(-1.57858e-05 0.000243932 -4.62588e-05)
(-2.79292e-05 0.000235419 -4.4755e-05)
(-3.90573e-05 0.000222372 -4.24528e-05)
(-4.97451e-05 0.000205455 -3.92854e-05)
(-5.83487e-05 0.000182696 -3.53928e-05)
(-6.46631e-05 0.00015611 -3.09497e-05)
(-6.22498e-05 0.000123411 -2.62282e-05)
(-5.22288e-05 0.000100389 -2.22129e-05)
(-4.23318e-05 8.29353e-05 -1.88974e-05)
(-3.22236e-05 7.12234e-05 -1.64547e-05)
(-2.31924e-05 6.29196e-05 -1.48162e-05)
(-1.42245e-05 5.73238e-05 -1.38563e-05)
(-5.50338e-06 5.38341e-05 -1.30747e-05)
(3.20653e-06 5.15438e-05 -1.06883e-05)
(4.69036e-06 4.74375e-05 -2.94067e-06)
(-3.15525e-06 3.86993e-05 -1.65723e-06)
(-4.91382e-07 4.22939e-05 -7.92733e-06)
(8.6652e-06 4.47684e-05 -9.90038e-06)
(1.75281e-05 4.84806e-05 -1.03981e-05)
(2.63134e-05 5.40457e-05 -1.1007e-05)
(3.49524e-05 6.15633e-05 -1.21703e-05)
(4.42858e-05 7.12276e-05 -1.40622e-05)
(5.50331e-05 8.37631e-05 -1.68476e-05)
(6.91962e-05 0.000100573 -2.05504e-05)
(8.49877e-05 0.00012614 -2.53365e-05)
(0.000103817 0.000161959 -3.07076e-05)
(0.000107761 0.000218766 -3.75573e-05)
(9.46763e-05 0.000260758 -4.39654e-05)
(7.99744e-05 0.000295012 -4.97669e-05)
(6.341e-05 0.000319647 -5.45555e-05)
(4.72877e-05 0.000338897 -5.78703e-05)
(2.99057e-05 0.00035162 -6.00508e-05)
(1.22757e-05 0.000358255 -6.11702e-05)
(-5.66924e-06 0.000358534 -6.12324e-05)
(-2.32518e-05 0.00035245 -6.02364e-05)
(-4.05394e-05 0.000340266 -5.81752e-05)
(-5.64929e-05 0.000321528 -5.49757e-05)
(-7.28161e-05 0.000297397 -5.02928e-05)
(-8.71167e-05 0.000263628 -4.45926e-05)
(-9.9712e-05 0.000222264 -3.82847e-05)
(-9.49551e-05 0.000166126 -3.15472e-05)
(-7.53706e-05 0.000131718 -2.63464e-05)
(-5.89548e-05 0.000107303 -2.18092e-05)
(-4.36907e-05 9.18088e-05 -1.84749e-05)
(-3.13108e-05 8.0838e-05 -1.62185e-05)
(-1.96438e-05 7.32242e-05 -1.49259e-05)
(-8.62179e-06 6.82788e-05 -1.39718e-05)
(2.35704e-06 6.50259e-05 -1.12582e-05)
(4.84799e-06 5.99173e-05 -2.70353e-06)
(-3.11818e-06 4.57618e-05 -1.43801e-06)
(6.42022e-07 5.00072e-05 -8.36058e-06)
(1.19981e-05 5.32483e-05 -1.06131e-05)
(2.29446e-05 5.81972e-05 -1.12011e-05)
(3.38569e-05 6.55479e-05 -1.19792e-05)
(4.47056e-05 7.53066e-05 -1.34968e-05)
(5.66845e-05 8.75172e-05 -1.59942e-05)
(7.11021e-05 0.000102638 -1.97413e-05)
(9.20561e-05 0.000122501 -2.46798e-05)
(0.00011778 0.000153917 -3.08999e-05)
(0.000155535 0.0002038 -3.70463e-05)
(0.000163957 0.000302104 -4.64056e-05)
(0.000137201 0.000364993 -5.49992e-05)
(0.000113018 0.000413714 -6.35132e-05)
(8.82903e-05 0.000447694 -7.07378e-05)
(6.56188e-05 0.000474734 -7.51511e-05)
(4.10403e-05 0.000492633 -7.80385e-05)
(1.62597e-05 0.000501997 -7.95031e-05)
(-9.02177e-06 0.000502378 -7.95787e-05)
(-3.3769e-05 0.000493763 -7.82638e-05)
(-5.82845e-05 0.000476584 -7.55192e-05)
(-8.08225e-05 0.000450196 -7.12423e-05)
(-0.000105352 0.000416807 -6.41348e-05)
(-0.000129098 0.000368564 -5.57288e-05)
(-0.000155317 0.000306288 -4.72369e-05)
(-0.000145623 0.000208516 -3.79672e-05)
(-0.000106833 0.000160838 -3.20056e-05)
(-8.06142e-05 0.000130708 -2.60444e-05)
(-5.8366e-05 0.000112275 -2.15162e-05)
(-4.19439e-05 9.88574e-05 -1.83744e-05)
(-2.70103e-05 8.89944e-05 -1.65798e-05)
(-1.30624e-05 8.23381e-05 -1.53328e-05)
(9.6651e-07 7.797e-05 -1.21276e-05)
(4.92169e-06 7.18791e-05 -2.50025e-06)
(-2.98423e-06 5.18311e-05 -1.1946e-06)
(2.24397e-06 5.67706e-05 -8.94355e-06)
(1.64636e-05 6.08074e-05 -1.15711e-05)
(3.01243e-05 6.71666e-05 -1.2298e-05)
(4.37617e-05 7.66396e-05 -1.33158e-05)
(5.727e-05 8.90866e-05 -1.53113e-05)
(7.1928e-05 0.000104173 -1.8609e-05)
(8.95826e-05 0.0001213 -2.36425e-05)
(0.000116796 0.000141564 -3.00696e-05)
(0.000154661 0.000175478 -3.82905e-05)
(0.000230449 0.00023577 -4.07574e-05)
(0.000249686 0.00041182 -5.10293e-05)
(0.00019561 0.000499578 -6.24894e-05)
(0.000158377 0.000563281 -7.54962e-05)
(0.000123089 0.000607279 -8.66047e-05)
(9.18174e-05 0.000642855 -9.20709e-05)
(5.70455e-05 0.000666626 -9.56452e-05)
(2.19884e-05 0.000679127 -9.74344e-05)
(-1.388e-05 0.000679642 -9.75263e-05)
(-4.89304e-05 0.000668152 -9.59192e-05)
(-8.37049e-05 0.000645343 -9.25172e-05)
(-0.000114941 0.000610608 -8.72171e-05)
(-0.000150181 0.000567292 -7.62436e-05)
(-0.000187062 0.000503962 -6.33621e-05)
(-0.00024075 0.000416699 -5.20471e-05)
(-0.000219312 0.00024063 -4.17787e-05)
(-0.000142029 0.000184252 -3.95001e-05)
(-0.000104217 0.000151488 -3.15503e-05)
(-7.54491e-05 0.000132581 -2.55961e-05)
(-5.52973e-05 0.000117138 -2.12621e-05)
(-3.68454e-05 0.000104603 -1.87907e-05)
(-1.92414e-05 9.57783e-05 -1.7127e-05)
(-1.13984e-06 9.00194e-05 -1.32435e-05)
(4.87374e-06 8.29426e-05 -2.24616e-06)
(-2.65888e-06 5.66642e-05 -8.53337e-07)
(4.40659e-06 6.23564e-05 -9.70421e-06)
(2.21327e-05 6.73249e-05 -1.27635e-05)
(3.93075e-05 7.54927e-05 -1.36633e-05)
(5.64774e-05 8.79177e-05 -1.49716e-05)
(7.3299e-05 0.0001045 -1.7518e-05)
(9.05474e-05 0.000124561 -2.17331e-05)
(0.0001096 0.000144728 -2.82331e-05)
(0.000140457 0.000164222 -3.71325e-05)
(0.000183065 0.000186637 -4.61847e-05)
(0.00033006 0.000202859 -5.13194e-05)
(0.000375367 0.00053034 -4.97759e-05)
(0.000263976 0.000651681 -6.13752e-05)
(0.000213992 0.000735411 -8.07421e-05)
(0.000167696 0.000794932 -9.67723e-05)
(0.000125909 0.000844002 -0.000102838)
(7.8108e-05 0.000877067 -0.000107259)
(2.95744e-05 0.00089427 -0.000109387)
(-2.02583e-05 0.000894959 -0.000109491)
(-6.88255e-05 0.000879114 -0.00010757)
(-0.000116732 0.000847359 -0.000103341)
(-0.000158668 0.000799434 -9.74623e-05)
(-0.000205263 0.00074079 -8.15748e-05)
(-0.000255148 0.00065737 -6.23697e-05)
(-0.00036687 0.000536108 -5.0963e-05)
(-0.000317508 0.000206091 -5.27746e-05)
(-0.000168329 0.000196959 -4.76105e-05)
(-0.00012734 0.000175645 -3.87346e-05)
(-9.43958e-05 0.000157426 -3.04064e-05)
(-7.21482e-05 0.000138809 -2.47232e-05)
(-4.99655e-05 0.000121413 -2.14908e-05)
(-2.76933e-05 0.000108964 -1.93506e-05)
(-4.20202e-06 0.00010112 -1.4607e-05)
(4.65495e-06 9.25895e-05 -1.90454e-06)
(-2.07751e-06 5.98898e-05 -4.00236e-07)
(7.35816e-06 6.60999e-05 -1.06186e-05)
(2.95308e-05 7.19598e-05 -1.41745e-05)
(5.15819e-05 8.19348e-05 -1.52808e-05)
(7.41283e-05 9.75287e-05 -1.69294e-05)
(9.66288e-05 0.000119071 -2.00819e-05)
(0.000117836 0.000145752 -2.51894e-05)
(0.00013827 0.000171246 -3.37999e-05)
(0.000160237 0.000183055 -4.40617e-05)
(0.000131766 0.000120794 -6.40483e-05)
(0.000399862 0.000196785 -7.01598e-05)
(0.000546975 0.000774493 -2.86008e-05)
(0.000346977 0.000852274 -3.70889e-05)
(0.000295596 0.00091898 -5.8823e-05)
(0.000237763 0.00098883 -7.72192e-05)
(0.000179616 0.00104571 -8.02561e-05)
(0.000111019 0.00108668 -8.36792e-05)
(4.11888e-05 0.00110785 -8.53453e-05)
(-3.01828e-05 0.00110874 -8.54341e-05)
(-0.000100072 0.00108934 -8.39472e-05)
(-0.000168868 0.0010501 -8.0675e-05)
(-0.000227387 0.00099479 -7.78209e-05)
(-0.000285999 0.000926152 -5.95485e-05)
(-0.000338039 0.00085959 -3.79806e-05)
(-0.000541977 0.000778936 -3.00391e-05)
(-0.000387926 0.000200023 -7.22423e-05)
(-0.000115036 0.000138105 -6.50097e-05)
(-0.000147166 0.000198554 -4.55172e-05)
(-0.000122306 0.000185857 -3.61767e-05)
(-9.78536e-05 0.000161072 -2.85905e-05)
(-7.02671e-05 0.000136886 -2.4685e-05)
(-4.04989e-05 0.000119825 -2.2066e-05)
(-9.41098e-06 0.000109604 -1.63633e-05)
(3.63987e-06 9.9705e-05 -1.22759e-06)
(-1.41757e-06 6.11828e-05 7.95824e-08)
(1.07797e-05 6.77077e-05 -1.16551e-05)
(3.81371e-05 7.44357e-05 -1.57943e-05)
(6.61666e-05 8.63556e-05 -1.71608e-05)
(9.5991e-05 0.000105987 -1.92191e-05)
(0.000127265 0.000135754 -2.28649e-05)
(0.0001573 0.000179153 -2.83941e-05)
(0.000180207 0.000238332 -3.47814e-05)
(0.000150881 0.00031373 -5.1429e-05)
(0.000157124 0.000359323 -7.63779e-05)
(0.000255164 0.000679702 6.23176e-05)
(0.000298146 0.000875481 2.46416e-05)
(0.000359436 0.00100828 1.29111e-05)
(0.000317122 0.00112623 1.36829e-05)
(0.000240537 0.00120988 9.95428e-06)
(0.000150237 0.00126566 6.58565e-06)
(5.50508e-05 0.00129297 5.16624e-06)
(-4.17999e-05 0.00129399 5.17088e-06)
(-0.000137063 0.00126875 6.59546e-06)
(-0.000227613 0.0012151 9.97642e-06)
(-0.000304735 0.00113374 1.37141e-05)
(-0.000348475 0.00101822 1.30106e-05)
(-0.000290557 0.000887757 2.43971e-05)
(-0.00025028 0.000692421 6.10798e-05)
(-0.00015359 0.000372131 -7.45309e-05)
(-0.000144616 0.000327976 -5.25093e-05)
(-0.000166797 0.000252409 -3.74656e-05)
(-0.000136992 0.00019424 -3.23624e-05)
(-9.82992e-05 0.000153544 -2.83129e-05)
(-5.74161e-05 0.000128596 -2.53764e-05)
(-1.62853e-05 0.000114909 -1.85437e-05)
(2.28215e-06 0.000103712 -5.06788e-07)
(-5.27546e-07 6.00076e-05 6.00639e-07)
(1.49558e-05 6.64288e-05 -1.27605e-05)
(4.85913e-05 7.32039e-05 -1.75255e-05)
(8.48204e-05 8.53041e-05 -1.92006e-05)
(0.000126921 0.000105411 -2.18124e-05)
(0.000178938 0.00013643 -2.64095e-05)
(0.000246538 0.000183121 -3.32985e-05)
(0.000343549 0.000250877 -4.00889e-05)
(0.000465274 0.00034754 -4.4885e-05)
(0.000713225 0.000472382 -3.10672e-05)
(0.000737365 0.000139317 4.44397e-05)
(0.00058593 0.000309406 5.26584e-05)
(0.00065563 0.000656477 0.000119704)
(0.000591765 0.000860885 0.000178079)
(0.000476579 0.00100829 0.000211495)
(0.00034212 0.00110673 0.000222815)
(0.000207057 0.00116794 0.000226042)
(7.38198e-05 0.00119712 0.000226948)
(-5.82405e-05 0.00119807 0.00022702)
(-0.000191418 0.00117083 0.00022626)
(-0.000326384 0.00111168 0.0002232)
(-0.000460644 0.00101555 0.00021212)
(-0.000575675 0.000870847 0.000179197)
(-0.000639318 0.000669573 0.000121366)
(-0.000567673 0.000325369 5.54071e-05)
(-0.000725708 0.000143069 4.67064e-05)
(-0.000708107 0.00047722 -3.02626e-05)
(-0.000455618 0.000357505 -4.60756e-05)
(-0.000328973 0.000262916 -4.28354e-05)
(-0.000224761 0.000197139 -3.78262e-05)
(-0.000147085 0.000153543 -3.28393e-05)
(-8.32853e-05 0.000127505 -2.92338e-05)
(-2.67993e-05 0.000113438 -2.1077e-05)
(-2.36629e-07 0.000102286 3.43964e-07)
(1.32504e-07 5.63246e-05 1.08538e-06)
(1.84577e-05 6.22024e-05 -1.38016e-05)
(5.74666e-05 6.81187e-05 -1.91808e-05)
(0.000100074 7.84091e-05 -2.1169e-05)
(0.000150483 9.48459e-05 -2.4313e-05)
(0.000213933 0.000118577 -2.98637e-05)
(0.00029714 0.000150274 -3.81197e-05)
(0.000413064 0.000187976 -4.72083e-05)
(0.000557699 0.000221784 -5.34592e-05)
(0.000775443 0.000237768 -4.72431e-05)
(0.00087739 0.000124064 -2.3859e-05)
(0.000877663 0.000299302 1.54986e-05)
(0.000868353 0.000485116 0.00013162)
(0.000743637 0.00062217 0.000204212)
(0.000588029 0.000728876 0.000241756)
(0.000416175 0.000801351 0.000257116)
(0.000249421 0.000847479 0.00026193)
(8.80317e-05 0.00086982 0.00026327)
(-7.06686e-05 0.000870597 0.000263337)
(-0.000231954 0.00084982 0.00026213)
(-0.000398521 0.000805296 0.00025748)
(-0.000570041 0.000734458 0.000242366)
(-0.000725503 0.000629371 0.000205353)
(-0.000850206 0.000493464 0.000133444)
(-0.000860012 0.000307812 1.87933e-05)
(-0.000864419 0.00012803 -2.17847e-05)
(-0.000766457 0.000245469 -4.67753e-05)
(-0.000547045 0.000231404 -5.47064e-05)
(-0.000397565 0.000199192 -5.01827e-05)
(-0.000273707 0.000163454 -4.31629e-05)
(-0.000179018 0.0001348 -3.7144e-05)
(-0.000101761 0.000115785 -3.27971e-05)
(-3.41878e-05 0.000104887 -2.33539e-05)
(-1.66367e-06 9.51928e-05 1.08732e-06)
(6.9328e-07 5.06052e-05 1.54619e-06)
(2.14602e-05 5.57609e-05 -1.46995e-05)
(6.50807e-05 6.06293e-05 -2.06113e-05)
(0.000112895 6.88816e-05 -2.28465e-05)
(0.00016956 8.16806e-05 -2.64142e-05)
(0.000240506 9.93958e-05 -3.28055e-05)
(0.000332388 0.000121585 -4.25393e-05)
(0.000456123 0.000146505 -5.46669e-05)
(0.000607025 0.000167789 -6.58069e-05)
(0.000797568 0.000183868 -6.92343e-05)
(0.000931053 0.000156808 -5.37203e-05)
(0.00100832 0.000243783 -8.91739e-07)
(0.000994001 0.000353158 0.000118701)
(0.000847174 0.000444592 0.000188105)
(0.000665241 0.000518058 0.000222878)
(0.000467236 0.000567886 0.0002329)
(0.000279079 0.000600268 0.000234354)
(9.80606e-05 0.000616063 0.000234023)
(-7.92621e-05 0.000616703 0.000234059)
(-0.000260159 0.000602188 0.00023446)
(-0.000448105 0.000571083 0.000233104)
(-0.000645763 0.000522502 0.00022326)
(-0.000827667 0.000450216 0.000188956)
(-0.000974731 0.000359644 0.000120219)
(-0.000991257 0.000250809 2.1314e-06)
(-0.000918276 0.000162257 -5.19474e-05)
(-0.000787036 0.000190831 -6.86536e-05)
(-0.000595085 0.000176226 -6.70145e-05)
(-0.000439219 0.00015653 -5.77603e-05)
(-0.000306996 0.00013355 -4.79479e-05)
(-0.00020244 0.000114222 -4.07192e-05)
(-0.000115994 0.000100716 -3.56912e-05)
(-3.98752e-05 9.2646e-05 -2.51654e-05)
(-2.74207e-06 8.44572e-05 1.85098e-06)
(1.03265e-06 4.32222e-05 1.91624e-06)
(2.36118e-05 4.74737e-05 -1.54431e-05)
(7.06772e-05 5.11528e-05 -2.17915e-05)
(0.000122067 5.71986e-05 -2.42175e-05)
(0.000182522 6.62966e-05 -2.80998e-05)
(0.000257217 7.83711e-05 -3.51093e-05)
(0.00035259 9.26486e-05 -4.59072e-05)
(0.000478101 0.000108021 -5.99606e-05)
(0.000630485 0.00012091 -7.37573e-05)
(0.000812927 0.00013386 -8.04956e-05)
(0.00096534 0.000136195 -6.53751e-05)
(0.00108026 0.000187917 -1.52676e-05)
(0.00106776 0.000254473 0.000101666)
(0.000908825 0.000311113 0.000164266)
(0.000712941 0.00035782 0.000193645)
(0.000500096 0.000390672 0.00019872)
(0.000298683 0.000412546 0.000197278)
(0.000104829 0.000423411 0.000195501)
(-8.48673e-05 0.000423963 0.000195509)
(-0.000278618 0.000414189 0.0001973)
(-0.000479866 0.000393366 0.000198778)
(-0.000692436 0.000361487 0.000193813)
(-0.000888453 0.000315651 0.000164846)
(-0.00104782 0.000259646 0.000102904)
(-0.00106317 0.000193598 -1.24456e-05)
(-0.000952254 0.000141587 -6.37253e-05)
(-0.000801269 0.000140277 -7.99888e-05)
(-0.000617373 0.000128417 -7.50334e-05)
(-0.000459793 0.000116849 -6.32036e-05)
(-0.000325264 0.000103183 -5.16119e-05)
(-0.000216238 9.1369e-05 -4.34984e-05)
(-0.00012473 8.27793e-05 -3.79497e-05)
(-4.31389e-05 7.74177e-05 -2.65822e-05)
(-3.1359e-06 7.0978e-05 2.39908e-06)
(1.24826e-06 3.47253e-05 2.20113e-06)
(2.51413e-05 3.80407e-05 -1.60266e-05)
(7.47381e-05 4.06824e-05 -2.27089e-05)
(0.000128637 4.49181e-05 -2.52703e-05)
(0.000191573 5.11934e-05 -2.93717e-05)
(0.000268448 5.93717e-05 -3.68082e-05)
(0.000365599 6.88825e-05 -4.83309e-05)
(0.000491721 7.92452e-05 -6.36037e-05)
(0.000645026 8.88003e-05 -7.89884e-05)
(0.000826621 0.000100165 -8.75566e-05)
(0.000990607 0.000110565 -7.26264e-05)
(0.00112379 0.000143304 -2.43629e-05)
(0.00111339 0.000184138 9.12244e-05)
(0.000948716 0.000220455 0.000149981)
(0.000744507 0.000251007 0.000176104)
(0.000522229 0.000273012 0.000178215)
(0.000312076 0.000287872 0.000174966)
(0.000109571 0.000295397 0.0001723)
(-8.85627e-05 0.00029591 0.000172294)
(-0.000290998 0.000289394 0.000174945)
(-0.000501056 0.000275482 0.000178199)
(-0.000723161 0.000254323 0.000176161)
(-0.000927659 0.00022449 0.000150415)
(-0.0010929 0.000188703 9.22939e-05)
(-0.00110645 0.000148297 -2.16792e-05)
(-0.000977129 0.000115637 -7.10854e-05)
(-0.000814162 0.000105902 -8.71202e-05)
(-0.000630968 9.52914e-05 -8.03517e-05)
(-0.000472186 8.67449e-05 -6.69834e-05)
(-0.000336587 7.7734e-05 -5.4267e-05)
(-0.000225021 7.01553e-05 -4.55479e-05)
(-0.000130367 6.46346e-05 -3.96317e-05)
(-4.51173e-05 6.10928e-05 -2.7648e-05)
(-3.28258e-06 5.61941e-05 2.7981e-06)
(1.35099e-06 2.54817e-05 2.38355e-06)
(2.6108e-05 2.78208e-05 -1.64635e-05)
(7.74053e-05 2.95257e-05 -2.33812e-05)
(0.000132935 3.22043e-05 -2.60317e-05)
(0.000197416 3.61559e-05 -3.02707e-05)
(0.000275584 4.13e-05 -3.79667e-05)
(0.000373807 4.73475e-05 -4.9912e-05)
(0.000500547 5.42043e-05 -6.58383e-05)
(0.000655175 6.13136e-05 -8.20245e-05)
(0.000838298 7.05215e-05 -9.1407e-05)
(0.00100901 8.11045e-05 -7.67551e-05)
(0.00115133 0.00010177 -2.92817e-05)
(0.00114229 0.000126816 8.63141e-05)
(0.000974274 0.000149493 0.000143653)
(0.000765044 0.000168739 0.000168426)
(0.000536947 0.00018298 0.000169247)
(0.000321138 0.000192735 0.000165212)
(0.000112901 0.000197812 0.000162158)
(-9.08955e-05 0.00019832 0.000162149)
(-0.000299109 0.000194234 0.000165179)
(-0.000514917 0.000185392 0.000169207)
(-0.000742972 0.000171937 0.000168445)
(-0.000952658 0.000153309 0.000144029)
(-0.0011214 0.000131054 8.73085e-05)
(-0.00113375 0.00010629 -2.66948e-05)
(-0.000995206 8.5731e-05 -7.53038e-05)
(-0.000825298 7.55143e-05 -9.10575e-05)
(-0.000640433 6.67574e-05 -8.34895e-05)
(-0.000480092 6.02994e-05 -6.93504e-05)
(-0.00034352 5.43543e-05 -5.6039e-05)
(-0.000230339 4.96172e-05 -4.69735e-05)
(-0.000133737 4.62513e-05 -4.08326e-05)
(-4.61745e-05 4.40675e-05 -2.8434e-05)
(-3.25203e-06 4.06715e-05 3.01854e-06)
(1.38801e-06 1.58471e-05 2.47111e-06)
(2.66447e-05 1.72096e-05 -1.67592e-05)
(7.89533e-05 1.80821e-05 -2.38197e-05)
(0.000135461 1.94289e-05 -2.6521e-05)
(0.000200889 2.14534e-05 -3.08365e-05)
(0.000279913 2.4178e-05 -3.86746e-05)
(0.000378967 2.75795e-05 -5.08467e-05)
(0.000506479 3.17581e-05 -6.71047e-05)
(0.000662409 3.67079e-05 -8.36817e-05)
(0.000847226 4.32456e-05 -9.34276e-05)
(0.00102156 5.12551e-05 -7.88835e-05)
(0.00116813 6.30189e-05 -3.15234e-05)
(0.00115973 7.64334e-05 8.45583e-05)
(0.000989832 8.87584e-05 0.00014169)
(0.00077768 9.92311e-05 0.000166122)
(0.000546165 0.000107226 0.000166542)
(0.000326913 0.000112791 0.000162252)
(0.000115164 0.000115841 0.000159071)
(-9.21456e-05 0.000116373 0.000159063)
(-0.00030393 0.00011435 0.000162223)
(-0.000523292 0.000109729 0.000166504)
(-0.000754935 0.000102521 0.000166136)
(-0.000967747 9.26071e-05 0.000142048)
(-0.00113856 8.0596e-05 8.5519e-05)
(-0.00115042 6.72748e-05 -2.90019e-05)
(-0.00100762 5.54673e-05 -7.75107e-05)
(-0.000833973 4.75291e-05 -9.31659e-05)
(-0.000647307 4.11222e-05 -8.52472e-05)
(-0.000485495 3.64303e-05 -7.07353e-05)
(-0.000347915 3.26713e-05 -5.7126e-05)
(-0.000233563 2.99118e-05 -4.7878e-05)
(-0.00013571 2.80705e-05 -4.16138e-05)
(-4.67472e-05 2.68962e-05 -2.89665e-05)
(-3.19651e-06 2.49156e-05 3.10937e-06)
(1.37142e-06 6.08407e-06 2.46312e-06)
(2.67963e-05 6.46242e-06 -1.69199e-05)
(7.94777e-05 6.52717e-06 -2.40345e-05)
(0.000136379 6.5977e-06 -2.67526e-05)
(0.000202252 6.78702e-06 -3.10924e-05)
(0.000281798 7.22214e-06 -3.89747e-05)
(0.000381511 8.1259e-06 -5.12157e-05)
(0.000509868 9.74088e-06 -6.7567e-05)
(0.000666897 1.24826e-05 -8.42481e-05)
(0.000852968 1.61935e-05 -9.4095e-05)
(0.00102857 2.10827e-05 -7.95906e-05)
(0.00117598 2.50954e-05 -3.21776e-05)
(0.00116748 2.81734e-05 8.42968e-05)
(0.000996725 3.10736e-05 0.000141675)
(0.000783354 3.34102e-05 0.000166212)
(0.000550465 3.55171e-05 0.00016666)
(0.000329744 3.7134e-05 0.000162373)
(0.000116484 3.82932e-05 0.000159194)
(-9.2387e-05 3.89e-05 0.000159192)
(-0.000305745 3.89191e-05 0.000162366)
(-0.000526705 3.83134e-05 0.000166634)
(-0.000759943 3.70058e-05 0.000166222)
(-0.000974248 3.51721e-05 0.00014201)
(-0.0011462 3.2486e-05 8.52185e-05)
(-0.00115836 2.92857e-05 -2.9731e-05)
(-0.00101473 2.4977e-05 -7.83074e-05)
(-0.000839764 1.98465e-05 -9.39348e-05)
(-0.000651786 1.59315e-05 -8.59228e-05)
(-0.000488787 1.30618e-05 -7.13079e-05)
(-0.000350251 1.13528e-05 -5.76149e-05)
(-0.000235098 1.03928e-05 -4.83144e-05)
(-0.000136562 9.93226e-06 -4.2012e-05)
(-4.6969e-05 9.6913e-06 -2.92657e-05)
(-3.1485e-06 9.1271e-06 3.0786e-06)
(1.30199e-06 -3.52896e-06 2.3611e-06)
(2.65631e-05 -4.13157e-06 -1.69467e-05)
(7.89779e-05 -4.9001e-06 -2.40277e-05)
(0.000135686 -6.16405e-06 -2.67305e-05)
(0.000201492 -7.91507e-06 -3.10446e-05)
(0.000281214 -9.93643e-06 -3.88775e-05)
(0.000381406 -1.17517e-05 -5.10367e-05)
(0.000510691 -1.29161e-05 -6.72561e-05)
(0.000668657 -1.24142e-05 -8.37815e-05)
(0.000855629 -1.12354e-05 -9.34689e-05)
(0.00103039 -8.44396e-06 -7.8958e-05)
(0.0011753 -1.20302e-05 -3.14041e-05)
(0.00116579 -1.99998e-05 8.52854e-05)
(0.00099509 -2.70907e-05 0.000143261)
(0.000782106 -3.33584e-05 0.000168302)
(0.000549869 -3.7363e-05 0.000169196)
(0.000329672 -3.98232e-05 0.000165158)
(0.000116924 -4.0589e-05 0.000162091)
(-9.15166e-05 -3.98769e-05 0.000162073)
(-0.000304502 -3.77264e-05 0.000165092)
(-0.000525189 -3.4081e-05 0.000169119)
(-0.000758063 -2.91456e-05 0.000168279)
(-0.00097229 -2.23537e-05 0.000143563)
(-0.00114453 -1.51348e-05 8.61412e-05)
(-0.00115799 -7.58145e-06 -2.90791e-05)
(-0.00101695 -4.66611e-06 -7.78008e-05)
(-0.000842798 -8.03256e-06 -9.34389e-05)
(-0.000653879 -9.75903e-06 -8.55754e-05)
(-0.000489931 -1.07907e-05 -7.11164e-05)
(-0.000350512 -1.02387e-05 -5.75414e-05)
(-0.00023494 -9.17916e-06 -4.83031e-05)
(-0.000136293 -8.09892e-06 -4.20378e-05)
(-4.68367e-05 -7.32168e-06 -2.9338e-05)
(-3.10539e-06 -6.4588e-06 2.92699e-06)
(1.16497e-06 -1.27214e-05 2.16249e-06)
(2.59001e-05 -1.43103e-05 -1.68381e-05)
(7.73598e-05 -1.60132e-05 -2.37953e-05)
(0.00013321 -1.88309e-05 -2.64475e-05)
(0.000198325 -2.29196e-05 -3.06812e-05)
(0.000277737 -2.80389e-05 -3.83586e-05)
(0.000378101 -3.34675e-05 -5.02587e-05)
(0.000508418 -3.83843e-05 -6.60532e-05)
(0.000667428 -4.0588e-05 -8.20385e-05)
(0.000855813 -4.13275e-05 -9.11756e-05)
(0.00102742 -3.72851e-05 -7.65304e-05)
(0.00116499 -4.94286e-05 -2.84078e-05)
(0.00115312 -7.18267e-05 8.87748e-05)
(0.000983737 -9.18303e-05 0.000148363)
(0.00077318 -0.000109073 0.000174766)
(0.00054398 -0.000120528 0.000176881)
(0.000326479 -0.000127831 0.000173549)
(0.000116412 -0.000130817 0.000170818)
(-8.95173e-05 -0.000129948 0.000170789)
(-0.000299921 -0.00012527 0.000173454)
(-0.000518112 -0.000116452 0.000176731)
(-0.000748317 -0.000103755 0.00017462)
(-0.000960592 -8.58472e-05 0.000148491)
(-0.00113207 -6.57547e-05 8.9432e-05)
(-0.00114836 -4.42096e-05 -2.63146e-05)
(-0.00101473 -3.33448e-05 -7.55751e-05)
(-0.000843666 -3.83087e-05 -9.13541e-05)
(-0.000653347 -3.84515e-05 -8.40144e-05)
(-0.000488425 -3.71779e-05 -7.00516e-05)
(-0.000348126 -3.3381e-05 -5.68475e-05)
(-0.000232637 -2.93993e-05 -4.78137e-05)
(-0.000134613 -2.6148e-05 -4.16747e-05)
(-4.62099e-05 -2.40094e-05 -2.91772e-05)
(-3.02844e-06 -2.16223e-05 2.64108e-06)
(9.1566e-07 -2.11346e-05 1.85976e-06)
(2.46817e-05 -2.3662e-05 -1.6593e-05)
(7.43618e-05 -2.63755e-05 -2.3333e-05)
(0.000128467 -3.09559e-05 -2.5894e-05)
(0.000191911 -3.78218e-05 -2.99753e-05)
(0.000270034 -4.68467e-05 -3.73471e-05)
(0.000369724 -5.71894e-05 -4.87153e-05)
(0.000500941 -6.7521e-05 -6.35708e-05)
(0.000661529 -7.36834e-05 -7.83052e-05)
(0.000854245 -7.62855e-05 -8.59487e-05)
(0.0010198 -6.27352e-05 -7.13166e-05)
(0.00114126 -8.59292e-05 -2.21535e-05)
(0.00112461 -0.000131675 9.64188e-05)
(0.000958499 -0.000170506 0.000159563)
(0.000753529 -0.000203019 0.000188918)
(0.000531004 -0.000224519 0.000193727)
(0.00031926 -0.000238177 0.000191982)
(0.000114752 -0.000243992 0.000190001)
(-8.5945e-05 -0.000242843 0.000189933)
(-0.000290911 -0.000234756 0.000191766)
(-0.000503585 -0.000219038 0.000193364)
(-0.000727577 -0.000195753 0.00018847)
(-0.000934885 -0.000162264 0.00015931)
(-0.00110395 -0.000123232 9.66706e-05)
(-0.00112582 -7.90116e-05 -2.04806e-05)
(-0.0010083 -5.8224e-05 -7.0695e-05)
(-0.000843056 -7.30128e-05 -8.64827e-05)
(-0.000648451 -7.15968e-05 -8.05711e-05)
(-0.000482099 -6.67418e-05 -6.77713e-05)
(-0.000341193 -5.80382e-05 -5.53952e-05)
(-0.000226841 -4.98439e-05 -4.67823e-05)
(-0.000130686 -4.36264e-05 -4.08866e-05)
(-4.46709e-05 -3.97437e-05 -2.87725e-05)
(-2.76858e-06 -3.58237e-05 2.17042e-06)
(5.53518e-07 -2.84054e-05 1.47214e-06)