/*--------------------------------*- C++ -*----------------------------------*\
| =========                 |                                                 |
| \\      /  F ield         | OpenFOAM: The Open Source CFD Toolbox           |
|  \\    /   O peration     | Version:  2112                                  |
|   \\  /    A nd           | Website:  www.openfoam.com                      |
|    \\/     M anipulation  |                                                 |
\*---------------------------------------------------------------------------*/
FoamFile
{
    version     2.0;
    format      ascii;
    arch        "LSB;label=32;scalar=64";
    class       volScalarField;
    location    "3.7";
    object      epsilon;
}
// * * * * * * * * * * * * * * * * * * * * * * * * * * * * * * * * * * * * * //

dimensions      [0 2 -3 0 0 0 0];

internalField   nonuniform List<scalar> 
64906
(
0.00017293
0.000203976
0.000223989
0.000233963
0.000238511
0.000240454
0.00024123
0.000241513
0.000241597
0.000241602
0.00024158
0.000241554
0.000241534
0.000241517
0.000241502
0.000241488
0.000241475
0.000241464
0.00024146
0.000241466
0.000241477
0.00024149
0.000241503
0.000241517
0.000241527
0.000241523
0.000241454
0.000241191
0.000240434
0.000238506
0.000233967
0.000224
0.000203992
0.000172942
0.000203998
0.000378069
0.000484953
0.000543
0.000573011
0.00058758
0.000594103
0.000596699
0.000597497
0.000597528
0.000597284
0.000596994
0.000596765
0.000596623
0.000596548
0.000596505
0.00059648
0.000596467
0.000596467
0.000596481
0.000596506
0.000596546
0.00059661
0.000596712
0.000596816
0.000596747
0.00059603
0.000593603
0.000587276
0.000572875
0.000542982
0.000484999
0.000378126
0.000204034
0.000224048
0.000485007
0.000653068
0.000749363
0.000801991
0.000828951
0.000841561
0.000846605
0.00084789
0.000847459
0.000846421
0.000845381
0.00084461
0.000844159
0.000843937
0.000843824
0.00084376
0.00084373
0.000843733
0.000843769
0.000843837
0.000843946
0.000844139
0.000844488
0.000844955
0.000845166
0.000844105
0.000839618
0.00082768
0.000801317
0.000749117
0.000653062
0.000485098
0.000224111
0.000234049
0.000543116
0.000749434
0.000872079
0.000941506
0.000978119
0.000995357
0.00100169
0.0010022
0.000999895
0.000996703
0.000993825
0.000991774
0.000990609
0.00099004
0.000989725
0.00098953
0.000989435
0.00098944
0.000989545
0.000989745
0.00099005
0.00099057
0.000991565
0.000993123
0.000994697
0.000994704
0.00098982
0.000974376
0.000939375
0.000871119
0.000749165
0.000543166
0.000234131
0.000238614
0.000573172
0.000802131
0.000941597
0.00102219
0.00106504
0.00108443
0.00108968
0.00108674
0.00107969
0.00107171
0.00106508
0.0010606
0.0010582
0.00105709
0.00105641
0.00105595
0.00105571
0.00105572
0.00105597
0.00105644
0.00105711
0.00105815
0.00106033
0.00106416
0.0010691
0.00107303
0.00107114
0.00105595
0.00101688
0.000939014
0.000801197
0.000573046
0.000238702
0.000240565
0.00058777
0.000829171
0.000978355
0.00106525
0.00111071
0.00112893
0.00112931
0.00111826
0.00110128
0.00108398
0.00107099
0.00106285
0.00105896
0.0010574
0.00105623
0.00105531
0.00105484
0.00105484
0.00105534
0.00105626
0.00105742
0.00105892
0.00106255
0.00106996
0.00108103
0.0010937
0.00110055
0.00109135
0.00105385
0.000972651
0.00082691
0.000587247
0.000240639
0.000241343
0.000594323
0.000841908
0.000995894
0.00108521
0.00112977
0.0011428
0.00113279
0.00110608
0.00107029
0.00103644
0.00101523
0.00100373
0.000999426
0.000998383
0.000996779
0.000995284
0.000994503
0.000994513
0.000995312
0.000996821
0.00099842
0.000999401
0.00100347
0.00101424
0.00103346
0.00106241
0.00108738
0.00109256
0.00106349
0.000984954
0.0008374
0.000593088
0.000241373
0.000241626
0.000596974
0.000847194
0.00100287
0.00109177
0.00113234
0.00113579
0.00110818
0.00105413
0.000983765
0.000920763
0.000896341
0.000888086
0.000887865
0.000889874
0.000888396
0.000886536
0.000885579
0.00088559
0.000886568
0.000888445
0.000889929
0.00088788
0.000887921
0.000895561
0.000918117
0.000976209
0.00103539
0.00106717
0.00105459
0.000984295
0.000839429
0.000594683
0.000241575
0.000241711
0.00059788
0.000848936
0.00100459
0.00109142
0.00112593
0.00111612
0.00106296
0.000964457
0.000828342
0.000706088
0.000711041
0.00072982
0.000743887
0.000752487
0.000752704
0.000751549
0.000750912
0.000750922
0.000751581
0.000752757
0.000752557
0.000743949
0.000729791
0.000710625
0.000704225
0.000821775
0.000946439
0.00102214
0.00103442
0.000976664
0.000837252
0.000594314
0.000241548
0.000241722
0.0005981
0.000849261
0.00100431
0.00108878
0.00111716
0.00109349
0.00101038
0.000847796
0.000585154
0.0003338
0.00046371
0.000560211
0.000601336
0.000617456
0.000621578
0.000622446
0.000622574
0.000622584
0.000622475
0.000621627
0.00061753
0.000601432
0.000560318
0.000463758
0.000333288
0.000580479
0.000830997
0.000970144
0.00101188
0.000967563
0.000833988
0.000593365
0.000241439
0.00024171
0.000598131
0.0008493
0.00100401
0.00108722
0.0011123
0.00108066
0.000977416
0.000757755
0.000349568
0.000282692
0.000444033
0.00050379
0.000522545
0.000528869
0.000530718
0.00053115
0.000531155
0.000530734
0.0005289
0.000522596
0.000503874
0.000444161
0.00028276
0.00034761
0.000742208
0.000937615
0.000999138
0.00096257
0.000832162
0.000592791
0.000241355
0.000241693
0.000598176
0.000849539
0.0010046
0.00108846
0.00111508
0.00108786
0.000998887
0.00082867
0.000559695
0.000316444
0.000402607
0.000479588
0.000510947
0.000519861
0.000525674
0.000527406
0.000527697
0.000527695
0.000527403
0.000525669
0.000519851
0.000510937
0.000479565
0.000402443
0.000315812
0.000554917
0.000811895
0.000958626
0.00100605
0.000965051
0.000833049
0.000593013
0.00024135
0.000241682
0.000598275
0.000850027
0.00100596
0.00109175
0.00112265
0.00110508
0.00103832
0.000919228
0.000756023
0.000603462
0.000558947
0.000538929
0.000532399
0.000530016
0.000530484
0.000530614
0.000530535
0.000530529
0.000530597
0.000530454
0.000529963
0.000532305
0.000538726
0.000558371
0.000601549
0.000749603
0.000901397
0.000997421
0.0010228
0.00097217
0.00083586
0.000593858
0.00024141
0.000241673
0.000598395
0.000850606
0.00100757
0.00109558
0.00113106
0.00112258
0.00107306
0.000984265
0.00086524
0.000741979
0.000648545
0.000581984
0.000551833
0.000540718
0.000537251
0.00053611
0.000535722
0.000535714
0.000536083
0.000537204
0.000540639
0.000551696
0.000581702
0.000647805
0.000739553
0.000858047
0.000965706
0.00103153
0.00103974
0.000980037
0.000839131
0.000594873
0.000241475
0.00024166
0.000598499
0.000851119
0.00100898
0.00109883
0.00113785
0.00113571
0.00109658
0.00102265
0.000919875
0.000802928
0.000692325
0.000606058
0.000564157
0.000547953
0.000542382
0.000540525
0.00053993
0.000539916
0.000540487
0.000542322
0.00054786
0.000564001
0.000605748
0.000691517
0.00080029
0.000912302
0.00100362
0.00105456
0.00105237
0.000986314
0.000841846
0.000595724
0.000241517
0.000241643
0.000598567
0.00085149
0.00100999
0.00110109
0.00114239
0.001144
0.0011103
0.00104298
0.000945873
0.000829616
0.000712135
0.000617624
0.000570483
0.000551818
0.000545248
0.000543021
0.000542284
0.000542265
0.000542974
0.000545179
0.000551718
0.000570318
0.000617302
0.000711255
0.000826879
0.000938099
0.00102366
0.00106792
0.00106025
0.000990438
0.000843682
0.000596292
0.000241529
0.000241623
0.0005986
0.000851716
0.0010106
0.00110243
0.00114498
0.0011485
0.00111734
0.00105272
0.000957426
0.000840801
0.000720499
0.000622543
0.000573242
0.000553528
0.000546521
0.000544107
0.000543263
0.000543237
0.00054405
0.000546444
0.000553422
0.000573073
0.000622212
0.000719551
0.000838014
0.000949546
0.00103323
0.00107475
0.0010645
0.000992744
0.000844729
0.000596605
0.000241519
0.000241603
0.000598606
0.000851824
0.00101089
0.00110305
0.00114613
0.00115044
0.00112025
0.00105656
0.000961769
0.00084484
0.000723485
0.000624297
0.00057423
0.000554133
0.000546956
0.000544452
0.000543528
0.000543494
0.000544385
0.000546872
0.000554022
0.000574057
0.000623962
0.000722528
0.000842035
0.000953847
0.001037
0.00107756
0.00106631
0.000993759
0.000845197
0.000596732
0.000241496
0.000241586
0.000598597
0.000851835
0.00101092
0.00110309
0.00114619
0.00115051
0.00112035
0.00105668
0.000961904
0.000844981
0.000723615
0.000624387
0.000574283
0.000554154
0.000546951
0.000544417
0.000543447
0.000543405
0.000544343
0.000546863
0.00055404
0.000574108
0.000624054
0.000722664
0.000842183
0.000953991
0.00103713
0.00107766
0.00106639
0.000993812
0.000845225
0.000596728
0.00024147
0.000241583
0.000598579
0.00085175
0.00101068
0.00110255
0.00114515
0.00114873
0.00111764
0.00105308
0.000957845
0.000841244
0.000720914
0.000622828
0.000573411
0.000553601
0.000546516
0.000544016
0.00054305
0.000543005
0.000543938
0.000546425
0.000553486
0.000573239
0.000622503
0.000719984
0.000838484
0.000949994
0.00103362
0.00107506
0.00106473
0.000992903
0.000844815
0.000596599
0.000241457
0.000241595
0.000598547
0.000851546
0.00101012
0.00110129
0.00114267
0.00114438
0.0011108
0.00104362
0.00094662
0.000830428
0.000712904
0.000618151
0.000570801
0.000551971
0.000545269
0.000542906
0.000542014
0.000541974
0.000542829
0.000545178
0.000551859
0.000570638
0.000617846
0.000712025
0.00082775
0.000938904
0.00102434
0.00106846
0.00106064
0.000990701
0.000843826
0.000596298
0.000241457
0.00024161
0.000598484
0.000851192
0.00100914
0.00109908
0.00113822
0.00113623
0.00109728
0.00102357
0.000921023
0.000804235
0.000693428
0.000606886
0.000564653
0.000548199
0.00054244
0.000540412
0.000539671
0.000539639
0.000540342
0.000542354
0.000548096
0.00056451
0.000606622
0.000692688
0.000801719
0.000913555
0.00100461
0.00105529
0.00105289
0.000986663
0.00084204
0.00059575
0.000241442
0.000241622
0.000598379
0.000850673
0.00100772
0.00109582
0.00113144
0.00112315
0.0010739
0.000985477
0.000866887
0.000743952
0.000650199
0.000583078
0.000552383
0.000540908
0.000537185
0.000535861
0.000535357
0.000535334
0.000535803
0.000537107
0.000540812
0.000552257
0.000582874
0.000649628
0.000741744
0.000859862
0.000966979
0.00103237
0.00104029
0.000980399
0.000839337
0.000594909
0.000241399
0.00024163
0.000598231
0.000850015
0.00100597
0.00109181
0.00112282
0.00110545
0.00103904
0.000920526
0.000758085
0.000606158
0.000561164
0.000539665
0.000532184
0.00052926
0.000529371
0.00052931
0.000529139
0.00052912
0.000529256
0.000529281
0.000529121
0.000531996
0.000539462
0.000560858
0.000604578
0.000751876
0.00090262
0.000997961
0.00102305
0.00097233
0.000835964
0.000593865
0.000241329
0.000241632
0.000598018
0.000849242
0.00100414
0.00108788
0.00111447
0.00108737
0.000998784
0.00082942
0.000561761
0.000317631
0.000403126
0.000477033
0.000506603
0.000514418
0.000519657
0.000521169
0.000521374
0.000521349
0.000521081
0.000519453
0.000513995
0.000505913
0.000476271
0.000402914
0.000317032
0.000557112
0.000812
0.000957797
0.00100519
0.00096448
0.000832762
0.000592876
0.000241258
0.000241619
0.000597626
0.000848185
0.00100225
0.00108489
0.00110954
0.00107762
0.000974308
0.000755253
0.000348786
0.000277322
0.000429577
0.000483917
0.000499252
0.000504325
0.000505807
0.000506115
0.000506047
0.000505543
0.000503649
0.000497722
0.000481039
0.000425558
0.000274923
0.000345575
0.000736962
0.000932302
0.000995171
0.00096005
0.000830807
0.000592233
0.000241227
0.000241537
0.000596642
0.000846055
0.000999346
0.0010823
0.00110946
0.00108473
0.00100055
0.00083712
0.000575045
0.000326604
0.000433557
0.000512346
0.000537763
0.000543501
0.000544946
0.000545393
0.000545468
0.000545331
0.000544812
0.00054327
0.000539253
0.000528683
0.000497215
0.000418602
0.000319826
0.000560879
0.000811875
0.000955184
0.00100141
0.000960808
0.000830154
0.000591749
0.000241201
0.000241268
0.000594035
0.000840813
0.000992406
0.00107585
0.00110759
0.00109513
0.00103851
0.000934532
0.000789583
0.000652863
0.000627625
0.000612248
0.000591332
0.00057906
0.000574152
0.000572552
0.000572056
0.000571842
0.000571584
0.000571125
0.000570675
0.000571335
0.000574575
0.000585468
0.000616263
0.000755782
0.000898609
0.000988576
0.00101133
0.000961302
0.000828027
0.000590191
0.000241039
0.000240511
0.000587604
0.000828421
0.000975724
0.00105796
0.00109334
0.00109201
0.00105813
0.00099348
0.000904482
0.000810634
0.000739385
0.00067348
0.000616262
0.000588608
0.000578234
0.000574864
0.000573873
0.000573608
0.000573622
0.000574149
0.000576599
0.000585398
0.000610992
0.000669315
0.000748694
0.000853956
0.000948823
0.00100553
0.00101018
0.000952849
0.000819207
0.000584958
0.000240387
0.000238583
0.000573151
0.000801824
0.000940105
0.00101759
0.00105357
0.00105953
0.00104117
0.00100087
0.000941295
0.00086861
0.000791242
0.000711497
0.000642633
0.000609034
0.000596136
0.000591835
0.000590559
0.000590262
0.000590434
0.000591507
0.000595449
0.000607871
0.000641353
0.000712145
0.000798602
0.000885812
0.00095491
0.000991067
0.000984404
0.000924679
0.00079588
0.000571583
0.000238547
0.000234038
0.000543223
0.000749514
0.000871611
0.000939333
0.000971924
0.00098098
0.000972414
0.000948345
0.000909354
0.000856745
0.000794013
0.000727395
0.000669961
0.000639225
0.000626485
0.000621924
0.000620501
0.0006202
0.000620445
0.000621798
0.000626242
0.000638872
0.000669694
0.000728312
0.000797525
0.00086232
0.000909852
0.000931012
0.000918467
0.000862391
0.00074623
0.000542494
0.000234064
0.000224058
0.0004852
0.000653391
0.000749578
0.000801526
0.00082661
0.000835088
0.000832137
0.000819476
0.000797033
0.000764662
0.000723977
0.000680035
0.000642149
0.00062021
0.0006103
0.000606573
0.000605376
0.000605112
0.000605355
0.000606521
0.000610207
0.000620092
0.000642155
0.00068052
0.000725229
0.000765718
0.000793819
0.000803928
0.000790606
0.000745138
0.000652046
0.00048503
0.000224127
0.000204034
0.000378253
0.000485314
0.000543469
0.000573389
0.000587425
0.000592529
0.000592107
0.000587268
0.000577833
0.000563336
0.000544279
0.000523199
0.000504715
0.00049341
0.000488004
0.000485863
0.000485139
0.000484977
0.000485144
0.000485869
0.000488007
0.000493414
0.00050477
0.000523398
0.000544641
0.000563293
0.000575487
0.000578616
0.000569517
0.000542155
0.000485095
0.000378348
0.000204107
0.000172966
0.000204079
0.000224189
0.000234254
0.00023888
0.00024087
0.000241624
0.000241735
0.000241363
0.000240447
0.00023896
0.00023683
0.000234284
0.000231913
0.000230407
0.00022965
0.000229309
0.00022915
0.000229096
0.000229158
0.000229317
0.000229654
0.000230405
0.000231906
0.000234279
0.000236829
0.000238913
0.000240184
0.000240329
0.000238803
0.000234363
0.000224331
0.000204182
0.000173017
0.000230766
0.000338931
0.000411536
0.000451282
0.000471494
0.0004811
0.000485313
0.000486956
0.000487447
0.000487451
0.000487278
0.000487072
0.0004869
0.000486779
0.0004867
0.000486648
0.000486613
0.000486594
0.000486592
0.000486608
0.00048664
0.000486689
0.000486758
0.000486853
0.000486947
0.000486929
0.000486496
0.000484961
0.000480868
0.000471364
0.000451224
0.000411522
0.000338938
0.000230779
0.000338937
0.000421932
0.000503451
0.000552808
0.000579519
0.00059281
0.000598851
0.000601268
0.000601989
0.000601975
0.000601693
0.000601368
0.000601105
0.000600929
0.000600823
0.000600759
0.00060072
0.000600701
0.000600702
0.000600721
0.00060076
0.000600821
0.000600914
0.000601049
0.000601187
0.00060116
0.000600518
0.000598268
0.00059242
0.000579301
0.000552715
0.000503437
0.000421964
0.000338947
0.000411579
0.000503474
0.00060314
0.000666874
0.000703158
0.000722065
0.000730967
0.000734519
0.000735387
0.000735025
0.000734224
0.000733415
0.000732797
0.000732403
0.000732179
0.000732049
0.000731971
0.000731934
0.000731935
0.000731974
0.000732051
0.000732175
0.000732376
0.000732692
0.000733087
0.000733291
0.000732577
0.000729422
0.000721005
0.00070254
0.000666584
0.000603058
0.000503504
0.000411594
0.000451367
0.000552861
0.000666908
0.00074211
0.000786261
0.000809859
0.000821012
0.000825095
0.000825389
0.000823871
0.000821788
0.000819903
0.000818545
0.000817726
0.000817282
0.000817028
0.000816873
0.000816796
0.000816797
0.000816877
0.000817032
0.000817277
0.000817684
0.000818386
0.000819414
0.000820435
0.000820422
0.000817241
0.000807234
0.000784687
0.00074132
0.000666611
0.000552826
0.000451357
0.000471615
0.000579602
0.000703233
0.000786314
0.000835932
0.000862603
0.000874713
0.000878007
0.000876223
0.000871946
0.000867154
0.000863195
0.000860536
0.000859039
0.000858273
0.000857835
0.00085755
0.000857403
0.000857405
0.000857556
0.000857841
0.000858268
0.000858986
0.000860334
0.000862575
0.000865453
0.00086767
0.000866304
0.000856711
0.00083235
0.000784444
0.000702437
0.000579376
0.000471504
0.000481251
0.000592921
0.000722195
0.000810008
0.000862742
0.000890607
0.000901848
0.000902212
0.000895739
0.000885878
0.000876001
0.000868584
0.000864096
0.000861824
0.000860758
0.000860149
0.0008597
0.00085945
0.000859453
0.000859707
0.000860158
0.000860756
0.00086177
0.000863875
0.000867888
0.000874076
0.000881041
0.000884593
0.000878546
0.000855394
0.000806107
0.000720436
0.000592294
0.000480909
0.000485493
0.000599
0.000731195
0.000821364
0.000875209
0.000902358
0.000910475
0.000904831
0.000889546
0.000869459
0.000850909
0.000838615
0.000832584
0.000830134
0.00082915
0.000828651
0.000828112
0.000827764
0.000827767
0.000828122
0.000828664
0.000829156
0.000830092
0.000832375
0.000837914
0.000848901
0.000864334
0.000877688
0.000879734
0.000861547
0.000814094
0.000727829
0.000597684
0.000484734
0.000487177
0.000601483
0.000734934
0.00082587
0.000879311
0.000904034
0.000906596
0.000891062
0.000861025
0.000823478
0.000791618
0.000773321
0.000768785
0.000768554
0.000768618
0.000769225
0.000769005
0.000768678
0.000768682
0.000769018
0.000769244
0.000768635
0.000768536
0.000768623
0.000772691
0.000789652
0.00081828
0.000848833
0.000865202
0.000856319
0.000813739
0.000729269
0.000599168
0.000485797
0.000487736
0.00060233
0.000736146
0.000826956
0.000879096
0.000900278
0.000895408
0.000866271
0.000814465
0.000749849
0.000705766
0.000673362
0.000679463
0.000687186
0.000689413
0.000693732
0.000694953
0.000694999
0.000695004
0.000694968
0.000693757
0.000689444
0.000687205
0.000679386
0.00067289
0.000703862
0.000744629
0.000802096
0.000839996
0.000844417
0.000808947
0.000727746
0.000598821
0.000485601
0.000487851
0.000602523
0.00073634
0.000826729
0.000877445
0.000895163
0.000882969
0.000839701
0.00076381
0.000674108
0.000778817
0.000552907
0.000581439
0.000605043
0.000609087
0.000620927
0.000624824
0.000625557
0.000625563
0.000624842
0.000620957
0.000609127
0.000605099
0.000581475
0.00055265
0.000775593
0.000668375
0.000751102
0.000813087
0.000831546
0.000803283
0.000725455
0.000597927
0.00048502
0.000487837
0.000602532
0.000736317
0.000826464
0.000876424
0.000892333
0.000876354
0.000826454
0.000748487
0.00084756
0.000562427
0.000499243
0.000531013
0.000548342
0.000551031
0.000551352
0.000551386
0.000551388
0.000551361
0.000551048
0.000548374
0.000531066
0.00049932
0.000562477
0.000835877
0.000735014
0.000799539
0.000824672
0.00080016
0.000724115
0.000597351
0.000484625
0.000487822
0.000602554
0.000736426
0.00082674
0.00087702
0.000893616
0.000879182
0.000831992
0.000749535
0.00064705
0.000695364
0.000500327
0.00054729
0.000584008
0.000617331
0.000598753
0.000591758
0.00059026
0.000590255
0.000591744
0.000598728
0.000617318
0.000583985
0.000547224
0.000499957
0.000692044
0.000641252
0.000736765
0.000805209
0.000827469
0.000801327
0.000724554
0.000597487
0.000484682
0.000487835
0.000602634
0.000736716
0.000827525
0.000878898
0.00089784
0.000888296
0.000850797
0.000785242
0.000698865
0.00062268
0.000566242
0.000557273
0.000556418
0.000561207
0.000555625
0.00055298
0.000552246
0.000552243
0.000552971
0.000555609
0.000561187
0.000556361
0.000557105
0.000565668
0.000620734
0.000693605
0.000772702
0.000824123
0.000836601
0.000805499
0.000726342
0.000598203
0.000485098
0.000487862
0.000602743
0.000737082
0.000828495
0.000881168
0.000902756
0.000898305
0.000869952
0.000819073
0.000750665
0.00067845
0.000618482
0.000580701
0.000557721
0.000549031
0.000544935
0.000543385
0.000542916
0.000542913
0.000543375
0.000544915
0.000548992
0.00055763
0.000580472
0.000617823
0.000676474
0.000745368
0.000806515
0.000843254
0.000846558
0.000810329
0.000728511
0.000599103
0.000485617
0.000487884
0.000602845
0.000737415
0.000829356
0.000883127
0.00090683
0.000906145
0.000883892
0.000841614
0.000782476
0.000714255
0.000649028
0.000598979
0.000565704
0.00055136
0.000546192
0.000544528
0.000544059
0.000544055
0.000544516
0.000546169
0.000551313
0.000565599
0.000598725
0.000648322
0.000712205
0.000777086
0.000828959
0.000857094
0.000854288
0.000814283
0.00073035
0.000599879
0.00048605
0.000487892
0.000602918
0.000737658
0.000829976
0.000884501
0.000909583
0.000911188
0.000892324
0.000854296
0.000799123
0.000732275
0.000664202
0.000608873
0.000571078
0.000554298
0.000548324
0.000546455
0.000545943
0.000545938
0.000546442
0.000548299
0.000554247
0.000570968
0.00060861
0.000663468
0.000730174
0.000793656
0.000841545
0.000865415
0.000859211
0.00081691
0.000731606
0.000600411
0.000486329
0.000487886
0.00060296
0.000737805
0.000830349
0.000885309
0.000911153
0.000913953
0.000896724
0.000860549
0.000806865
0.000740294
0.000670848
0.000613287
0.000573623
0.000555835
0.000549476
0.000547489
0.000546945
0.000546939
0.000547475
0.00054945
0.000555783
0.000573509
0.000613018
0.00067009
0.000738163
0.000801348
0.000847727
0.00086973
0.00086188
0.000818383
0.000732324
0.000600713
0.00048647
0.000487872
0.000602978
0.000737873
0.000830521
0.000885676
0.000911847
0.000915138
0.000898545
0.000863036
0.000809819
0.000743248
0.000673255
0.000614881
0.000574554
0.000556408
0.000549903
0.000547866
0.000547303
0.000547297
0.000547851
0.000549876
0.000556354
0.00057444
0.000614609
0.000672487
0.000741105
0.000804279
0.00085018
0.000871507
0.000863015
0.000819023
0.00073264
0.000600844
0.000486516
0.000487858
0.000602977
0.000737877
0.000830529
0.00088569
0.000911868
0.000915168
0.000898586
0.000863088
0.000809881
0.000743317
0.000673324
0.000614938
0.000574592
0.000556427
0.000549911
0.000547868
0.000547298
0.000547291
0.000547851
0.000549884
0.000556373
0.000574477
0.000614667
0.000672559
0.000741177
0.000804344
0.000850233
0.000871547
0.000863043
0.000819041
0.00073265
0.000600845
0.000486498
0.00048785
0.000602958
0.000737815
0.000830373
0.000885351
0.000911217
0.000914044
0.000896847
0.000860708
0.000807059
0.000740512
0.000671068
0.000613467
0.000573744
0.000555902
0.00054951
0.000547503
0.000546941
0.000546933
0.000547487
0.000549483
0.00055585
0.000573633
0.000613204
0.000670316
0.000738393
0.000801551
0.000847892
0.000869853
0.000861966
0.000818437
0.000732353
0.000600719
0.000486425
0.000487844
0.000602916
0.000737674
0.000830014
0.000884568
0.000909687
0.00091134
0.000892535
0.000854576
0.000799474
0.000732681
0.000664609
0.000609211
0.000571308
0.000554433
0.000548406
0.000546506
0.000545972
0.000545965
0.000546491
0.000548382
0.000554386
0.000571207
0.000608965
0.000663891
0.000730606
0.000794027
0.000841834
0.000865624
0.000859352
0.000816998
0.000731654
0.000600424
0.000486271
0.00048783
0.000602842
0.000737432
0.0008294
0.000883207
0.000906961
0.000906344
0.000884184
0.000842025
0.000783022
0.000714911
0.000649676
0.000599506
0.000566045
0.000551549
0.000546311
0.000544612
0.000544122
0.000544117
0.000544601
0.000546292
0.000551511
0.00056596
0.000599292
0.00064902
0.000712912
0.000777663
0.000829377
0.000857374
0.000854467
0.000814391
0.000730408
0.000599897
0.000485985
0.000487798
0.000602731
0.000737082
0.000828514
0.00088122
0.000902864
0.000898499
0.000870279
0.000819591
0.000751423
0.000679414
0.000619419
0.000581322
0.000557975
0.000549019
0.000544846
0.000543266
0.000542783
0.00054278
0.000543257
0.000544827
0.000548981
0.000557897
0.000581141
0.000618845
0.000677517
0.00074615
0.000806998
0.000843522
0.000846701
0.000810405
0.000728548
0.000599111
0.000485541
0.000487744
0.000602582
0.000736643
0.000827434
0.000878809
0.000897783
0.000888318
0.000850973
0.00078569
0.000699722
0.000623939
0.000567242
0.000557328
0.000555685
0.000559943
0.000554289
0.00055161
0.000550861
0.000550856
0.000551591
0.00055424
0.000559848
0.000555518
0.000557077
0.000566722
0.000622067
0.000694361
0.000772936
0.000824086
0.000836485
0.000805393
0.000726272
0.000598158
0.000484983
0.000487652
0.000602377
0.000736128
0.000826314
0.000876492
0.000893029
0.000878589
0.00083148
0.000749271
0.000647297
0.000697913
0.000499406
0.000544332
0.000579558
0.000611949
0.000593036
0.000585896
0.000584374
0.000584367
0.000585856
0.000592896
0.000611645
0.000578898
0.000543379
0.00049828
0.000694594
0.000640777
0.000735637
0.000804046
0.000826532
0.000800678
0.000724158
0.000597274
0.00048446
0.000487441
0.000602001
0.000735407
0.000825153
0.000874756
0.000890362
0.000874103
0.000823881
0.000745382
0.00084087
0.000540963
0.000482425
0.000510139
0.000524459
0.000525957
0.000525978
0.000525953
0.000525901
0.000525757
0.000525335
0.000522966
0.000507124
0.000477499
0.000531823
0.000823051
0.000729079
0.00079527
0.000821673
0.000798172
0.000722902
0.000596698
0.00048412
0.000486846
0.000601061
0.000733902
0.000823286
0.000873103
0.000890023
0.000876985
0.000832531
0.000754513
0.000659608
0.00073658
0.000517235
0.000535143
0.000547539
0.000544435
0.000552733
0.000555866
0.000556523
0.000556408
0.00055536
0.00055122
0.000540524
0.000539176
0.000521193
0.000499246
0.000705277
0.00064252
0.00073527
0.000802394
0.000824263
0.000798421
0.000722395
0.000596213
0.000483821
0.000485196
0.000598597
0.000730173
0.000818768
0.000868983
0.000888484
0.00088182
0.000850065
0.000793581
0.000719949
0.000658904
0.00060717
0.000589596
0.000575605
0.000563871
0.000561882
0.000561592
0.000561449
0.000561259
0.000560727
0.000559181
0.000556596
0.000559568
0.000563954
0.000576529
0.000629119
0.000695863
0.000769917
0.000818134
0.000829235
0.000798414
0.000720776
0.000594692
0.000482782
0.000481029
0.000592617
0.000721398
0.000807935
0.00085772
0.000879423
0.00087898
0.000859276
0.000822052
0.000771661
0.000718597
0.000671344
0.000633445
0.000604729
0.000583637
0.000574905
0.000571999
0.000571123
0.000570871
0.000570822
0.000571106
0.000573058
0.00058125
0.00060089
0.000631835
0.000681914
0.000741704
0.000795035
0.000826565
0.000827834
0.000792699
0.000714447
0.000589801
0.000479318
0.000471482
0.000579425
0.000702741
0.000784961
0.000832531
0.000854866
0.000858712
0.000847769
0.000823896
0.00078911
0.000747179
0.000702631
0.000659675
0.00062546
0.000600438
0.000589194
0.000585185
0.000583944
0.000583651
0.00058383
0.00058487
0.000588563
0.000599545
0.000624621
0.000660722
0.000708603
0.000757745
0.000796715
0.000816677
0.000811337
0.000774373
0.000698035
0.0005776
0.000470407
0.000451314
0.0005528
0.000666697
0.000741423
0.000784348
0.000805242
0.000811086
0.000805754
0.000790885
0.00076721
0.000735802
0.000698851
0.000660436
0.000627693
0.000605604
0.00059513
0.000591115
0.000589795
0.000589493
0.000589761
0.000591022
0.00059495
0.000605378
0.000627672
0.000661414
0.000701672
0.000739559
0.000767274
0.000779154
0.000770334
0.000734661
0.000663817
0.000551756
0.000450737
0.000411586
0.000503496
0.000603135
0.000666676
0.000702352
0.000719791
0.000725648
0.000723535
0.000714823
0.000699693
0.000678233
0.000651559
0.000622912
0.000597958
0.000581528
0.000573393
0.000570099
0.000568963
0.000568702
0.000568963
0.000570091
0.000573371
0.00058152
0.000598092
0.000623468
0.000652683
0.000679064
0.000697294
0.000703561
0.000694002
0.000662844
0.000601602
0.000502998
0.000411354
0.000338978
0.000422001
0.00050356
0.000552895
0.000579383
0.000592012
0.000596543
0.000595955
0.000591293
0.000582521
0.000569396
0.000552427
0.000533785
0.000517366
0.000506698
0.000501333
0.000499102
0.000498312
0.00049813
0.000498325
0.000499126
0.000501365
0.00050675
0.000517491
0.00053407
0.000552852
0.000569376
0.000580282
0.000583148
0.000575085
0.000551064
0.000502899
0.00042182
0.000338943
0.000230802
0.000338977
0.000411654
0.000451452
0.000471599
0.000480869
0.000484194
0.000483938
0.00048085
0.000474794
0.000465457
0.000453093
0.000439318
0.000427204
0.000419716
0.000416084
0.000414587
0.000414045
0.000413917
0.000414058
0.00041461
0.000416113
0.000419755
0.000427278
0.000439479
0.00045333
0.0004654
0.000473247
0.000475185
0.000469032
0.000450479
0.00041137
0.000338933
0.000230847
0.000266754
0.000438636
0.000558091
0.000626373
0.000662834
0.00068105
0.000689423
0.000692813
0.000693827
0.000693781
0.00069333
0.000692803
0.000692361
0.000692052
0.000691857
0.000691734
0.000691658
0.00069162
0.000691619
0.000691655
0.000691728
0.000691844
0.000692016
0.000692258
0.00069251
0.000692519
0.000691641
0.000688505
0.000680419
0.000662455
0.000626176
0.000558007
0.000438614
0.000266767
0.000438637
0.000500832
0.000587552
0.000643989
0.000676134
0.000692837
0.000700735
0.000704004
0.000705005
0.00070498
0.000704562
0.000704076
0.000703672
0.000703394
0.000703222
0.000703118
0.000703056
0.000703027
0.000703027
0.000703057
0.000703117
0.000703215
0.000703365
0.000703576
0.000703786
0.000703752
0.000702861
0.000699826
0.000692208
0.000675758
0.000643806
0.000587494
0.000500844
0.000438612
0.000558137
0.000587567
0.000675805
0.000738054
0.000775568
0.000795973
0.000805931
0.000810026
0.000811054
0.000810624
0.000809649
0.000808643
0.000807847
0.000807315
0.000806996
0.000806808
0.0008067
0.000806648
0.000806648
0.0008067
0.000806807
0.000806983
0.000807267
0.000807692
0.000808193
0.000808438
0.000807586
0.000803952
0.000794572
0.000774708
0.000737612
0.000675639
0.000587551
0.000558075
0.000626479
0.000644033
0.000738084
0.000807021
0.00084987
0.000873728
0.000885378
0.000889769
0.00089013
0.000888508
0.000886236
0.00088413
0.00088256
0.000881553
0.000880968
0.000880639
0.000880448
0.000880356
0.000880357
0.00088045
0.000880637
0.000880951
0.000881485
0.00088234
0.000883504
0.000884593
0.000884501
0.000881041
0.000870613
0.000847916
0.000805965
0.000737622
0.000643894
0.000626301
0.000662999
0.000676212
0.000775641
0.000849926
0.00089679
0.000922956
0.000935207
0.000938692
0.000937006
0.00093275
0.000927916
0.000923821
0.000920975
0.000919229
0.000918242
0.000917729
0.000917425
0.000917271
0.000917272
0.000917427
0.000917727
0.000918222
0.000919144
0.000920702
0.000923045
0.0009259
0.000927912