/*--------------------------------*- C++ -*----------------------------------*\
| =========                 |                                                 |
| \\      /  F ield         | OpenFOAM: The Open Source CFD Toolbox           |
|  \\    /   O peration     | Version:  2112                                  |
|   \\  /    A nd           | Website:  www.openfoam.com                      |
|    \\/     M anipulation  |                                                 |
\*---------------------------------------------------------------------------*/
FoamFile
{
    version     2.0;
    format      ascii;
    arch        "LSB;label=32;scalar=64";
    class       volScalarField;
    location    "3.7";
    object      k;
}
// * * * * * * * * * * * * * * * * * * * * * * * * * * * * * * * * * * * * * //

dimensions      [0 2 -2 0 0 0 0];

internalField   nonuniform List<scalar> 
64906
(
0.000285137
0.000318614
0.000339361
0.000349519
0.000354131
0.000356107
0.0003569
0.000357191
0.000357278
0.000357283
0.000357259
0.000357231
0.00035721
0.000357192
0.000357176
0.000357162
0.000357149
0.000357138
0.000357134
0.00035714
0.000357151
0.000357164
0.000357178
0.000357193
0.000357203
0.0003572
0.000357129
0.000356859
0.000356085
0.000354125
0.000349522
0.000339372
0.000318631
0.000285151
0.000318637
0.000481402
0.000568799
0.000613718
0.000636429
0.00064738
0.000652287
0.000654247
0.00065485
0.000654872
0.000654682
0.000654457
0.000654279
0.000654167
0.000654107
0.000654073
0.000654053
0.000654043
0.000654043
0.000654053
0.000654073
0.000654105
0.000654156
0.000654237
0.000654318
0.000654267
0.000653725
0.000651895
0.000647138
0.000636317
0.000613698
0.000568832
0.000481451
0.000318675
0.000339422
0.000568842
0.000694204
0.000761357
0.000797001
0.000815058
0.000823485
0.000826862
0.000827722
0.000827427
0.000826719
0.000826007
0.000825476
0.000825162
0.000825005
0.000824924
0.000824878
0.000824857
0.000824859
0.000824884
0.000824932
0.00082501
0.000825146
0.000825389
0.000825712
0.000825859
0.000825149
0.000822147
0.000814172
0.000796521
0.000761172
0.000694192
0.000568911
0.000339486
0.000349606
0.000613806
0.000761406
0.000842904
0.000887524
0.000910727
0.000921606
0.000925606
0.000925923
0.000924457
0.000922417
0.000920568
0.000919243
0.000918482
0.000918106
0.000917898
0.000917769
0.000917707
0.00091771
0.000917778
0.000917909
0.000918111
0.000918454
0.000919103
0.000920108
0.000921117
0.000921124
0.000918039
0.00090829
0.000886109
0.000842241
0.000761202
0.000613837
0.000349689
0.000354235
0.000636551
0.000797097
0.000887584
0.000938026
0.000964416
0.000976297
0.00097952
0.00097772
0.000973382
0.000968441
0.000964316
0.000961504
0.000959985
0.000959272
0.000958838
0.000958543
0.000958394
0.000958398
0.000958555
0.000958853
0.000959279
0.000959948
0.000961323
0.000963725
0.00096679
0.000969212
0.000968041
0.000958718
0.000934626
0.000885871
0.000796431
0.000636441
0.000354323
0.000356219
0.000647524
0.000815207
0.00091088
0.000964554
0.00099216
0.00100317
0.00100341
0.000996748
0.000986445
0.000975862
0.000967835
0.00096276
0.000960304
0.0009593
0.000958556
0.000957982
0.000957685
0.00095769
0.000957996
0.000958576
0.000959312
0.000960269
0.000962565
0.000967178
0.000974
0.000981732
0.000985862
0.00098026
0.000957415
0.00090718
0.00081364
0.000647106
0.00035629
0.000357014
0.000652453
0.000823722
0.000921955
0.000976791
0.00100368
0.00101152
0.00100556
0.000989494
0.000967741
0.000946895
0.00093361
0.000926299
0.000923502
0.000922786
0.000921754
0.000920806
0.000920313
0.000920319
0.000920824
0.00092178
0.000922808
0.000923482
0.000926125
0.000932968
0.000944989
0.000962793
0.00097795
0.000981027
0.000963341
0.000914946
0.000820641
0.000651491
0.000357039
0.000357305
0.000654457
0.000827267
0.000926369
0.000980831
0.00100528
0.00100739
0.000990869
0.00095809
0.000914575
0.000874652
0.00085867
0.000853052
0.000852735
0.000853952
0.000852955
0.000851733
0.000851106
0.000851113
0.000851753
0.000852987
0.000853987
0.000852742
0.000852935
0.000858139
0.000872889
0.000909688
0.000946327
0.000965657
0.000957919
0.000914546
0.000822001
0.000652691
0.000357245
0.000357394
0.000655146
0.000828441
0.000927471
0.000980643
0.00100146
0.000995644
0.00096357
0.000902712
0.000815168
0.000732307
0.000735172
0.000747673
0.000757093
0.000762884
0.00076298
0.00076217
0.000761727
0.000761734
0.000762192
0.000763016
0.000762931
0.000757134
0.000747647
0.000734862
0.000730948
0.000810666
0.000891048
0.000938099
0.000945541
0.000909747
0.000820553
0.000652414
0.000357217
0.000357406
0.000655315
0.000828665
0.000927305
0.00097904
0.000996197
0.000982036
0.000931362
0.000828129
0.000646224
0.000443878
0.000552177
0.00062609
0.000656302
0.000668001
0.000670938
0.000671547
0.000671635
0.000671642
0.000671568
0.000670974
0.000668055
0.000656372
0.000626168
0.000552209
0.000443399
0.000642622
0.000816769
0.000905811
0.000931615
0.000904001
0.000818373
0.000651699
0.000357106
0.000357394
0.00065534
0.000828692
0.000927116
0.000978088
0.000993257
0.000974251
0.000910855
0.000768203
0.000457987
0.000396576
0.000535631
0.000582654
0.00059704
0.000601873
0.00060329
0.000603623
0.000603627
0.000603303
0.000601897
0.000597079
0.000582719
0.000535735
0.000396639
0.000456193
0.000757287
0.000885294
0.000923674
0.000900826
0.000817145
0.000651265
0.00035702
0.000357377
0.000655375
0.000828851
0.000927479
0.000978828
0.000994895
0.000978525
0.00092405
0.000815272
0.000626864
0.000427961
0.000501579
0.000563347
0.000587564
0.00059432
0.000598808
0.000600156
0.000600385
0.000600384
0.000600153
0.000598804
0.000594312
0.000587556
0.000563328
0.000501436
0.000427363
0.000623137
0.000803844
0.000898385
0.000927885
0.000902356
0.000817721
0.000651428
0.000357014
0.000357366
0.000655451
0.000829177
0.000928331
0.000980815
0.000999406
0.000988825
0.000948171
0.000873547
0.00076597
0.000658165
0.000624428
0.000608799
0.000603598
0.000601683
0.000602042
0.000602152
0.000602097
0.000602093
0.00060214
0.000602019
0.000601642
0.000603525
0.000608641
0.00062398
0.000656708
0.000761441
0.000861819
0.000922442
0.000938168
0.000906813
0.000819582
0.00065206
0.000357076
0.000357357
0.000655543
0.000829565
0.000929345
0.000983141
0.00100443
0.00099927
0.000969222
0.000914284
0.0008381
0.000755479
0.000689665
0.000640867
0.00061814
0.000609646
0.00060699
0.000606118
0.000605823
0.000605816
0.000606098
0.000606954
0.000609586
0.000618034
0.000640652
0.000689115
0.000753752
0.00083325
0.000902357
0.000943395
0.000948549
0.000911748
0.000821756
0.000652823
0.000357144
0.000357344
0.000655624
0.000829911
0.000930234
0.000985121
0.0010085
0.00100711
0.000983393
0.000937959
0.000873093
0.000796413
0.000720494
0.000658508
0.000627333
0.000615058
0.000610807
0.000609386
0.000608931
0.000608921
0.000609358
0.000610761
0.000614987
0.000627214
0.000658275
0.000719906
0.000794583
0.000868091
0.00092589
0.000957451
0.000956284
0.000915694
0.000823568
0.000653467
0.000357188
0.000357327
0.000655677
0.000830162
0.000930874
0.000986507
0.00101123
0.00101206
0.000991647
0.000950426
0.00088955
0.00081406
0.000734266
0.000666932
0.000632051
0.000617961
0.000612956
0.000611254
0.00061069
0.000610675
0.000611218
0.000612903
0.000617884
0.000631926
0.00066669
0.000733635
0.000812181
0.000884463
0.000938253
0.000965597
0.000961119
0.000918294
0.000824797
0.000653899
0.000357202
0.000357308
0.000655703
0.000830316
0.000931263
0.000987327
0.00101278
0.00101476
0.000995887
0.00095639
0.000896844
0.000821428
0.000740065
0.000670513
0.000634113
0.00061925
0.000613916
0.000612072
0.000611426
0.000611406
0.000612028
0.000613857
0.000619169
0.000633984
0.000670266
0.000739386
0.000819524
0.000891709
0.000944151
0.000969758
0.000963728
0.000919753
0.000825502
0.000654138
0.000357193
0.000357287
0.000655709
0.000830389
0.000931448
0.000987706
0.00101348
0.00101592
0.000997644
0.000958749
0.000899588
0.000824091
0.000742139
0.000671793
0.000634854
0.000619708
0.000614246
0.000612332
0.000611626
0.0006116
0.000612282
0.000614182
0.000619623
0.000634723
0.000671543
0.000741453
0.000822177
0.000894433
0.000946479
0.000971476
0.000964847
0.000920397
0.000825817
0.000654236
0.00035717
0.000357271
0.000655702
0.000830396
0.000931463
0.00098773
0.00101352
0.00101597
0.000997704
0.000958823
0.000899674
0.000824184
0.00074223
0.000671859
0.000634894
0.000619724
0.000614242
0.000612306
0.000611564
0.000611532
0.00061225
0.000614175
0.000619636
0.000634761
0.00067161
0.000741548
0.000822275
0.000894525
0.000946558
0.000971539
0.000964895
0.00092043
0.000825836
0.000654232
0.000357144
0.000357268
0.000655688
0.000830338
0.00093131
0.0009874
0.00101289
0.00101489
0.000996067
0.000956616
0.00089711
0.000821722
0.000740356
0.000670723
0.000634241
0.000619305
0.000613913
0.000612002
0.000611263
0.000611229
0.000611942
0.000613843
0.000619218
0.00063411
0.00067048
0.000739688
0.000819836
0.000891994
0.000944392
0.000969949
0.000963872
0.000919853
0.000825559
0.000654133
0.000357131
0.00035728
0.000655661
0.000830199
0.000930951
0.000986624
0.00101139
0.00101229
0.000991952
0.000950817
0.000890027
0.000814601
0.000734804
0.00066732
0.000632291
0.000618076
0.000612972
0.000611165
0.000610483
0.000610452
0.000611106
0.000612903
0.000617991
0.000632168
0.000667091
0.000734171
0.000812762
0.000884977
0.000938674
0.000965921
0.000961358
0.000918459
0.000824893
0.000653903
0.00035713
0.000357294
0.000655612
0.000829959
0.000930331
0.000985271
0.00100872
0.00100742
0.000983819
0.000938533
0.000873831
0.000797293
0.000721273
0.000659121
0.000627708
0.000615245
0.000610849
0.000609298
0.00060873
0.000608706
0.000609244
0.000610784
0.000615166
0.000627599
0.000658922
0.000720734
0.000795545
0.000868898
0.000926508
0.0009579
0.000956603
0.000915912
0.000823696
0.000653486
0.000357113
0.000357306
0.000655531
0.000829608
0.000929434
0.000983284
0.00100465
0.000999607
0.000969732
0.000915042
0.000839179
0.000756841
0.00069086
0.000641685
0.000618555
0.000609786
0.000606932
0.000605919
0.000605534
0.000605516
0.000605874
0.000606872
0.000609712
0.000618458
0.000641528
0.000690432
0.000755264
0.00083444
0.000903156
0.000943906
0.000948882
0.000911971
0.00082189
0.000652849
0.000357067
0.000357314
0.000655416
0.000829163
0.000928329
0.00098084
0.000999492
0.000989032
0.0009486
0.00087437
0.000767379
0.000660155
0.000626108
0.000609357
0.000603418
0.000601081
0.000601162
0.000601123
0.000600996
0.000600982
0.000601081
0.000601092
0.000600973
0.000603271
0.000609197
0.000625864
0.000658943
0.000762995
0.000862593
0.000922759
0.000938307
0.000906899
0.000819642
0.000652062
0.000356994
0.000357316
0.000655251
0.000828641
0.00092717
0.000978446
0.000994494
0.000978189
0.000923947
0.000815741
0.00062842
0.000429047
0.000502006
0.000561276
0.000584122
0.000590035
0.000594088
0.000595269
0.000595432
0.000595413
0.000595199
0.000593928
0.000589702
0.000583576
0.000560661
0.000501819
0.000428478
0.000624788
0.000803871
0.000897809
0.000927302
0.000901961
0.00081751
0.000651317
0.00035692
0.0003573
0.000654949
0.000827924
0.000925965
0.000976608
0.000991519
0.000972314
0.000908805
0.000766407
0.00045726
0.000391387
0.000523639
0.000566852
0.000578736
0.000582665
0.000583818
0.000584059
0.000584006
0.00058361
0.000582131
0.000577525
0.000564552
0.000520298
0.00038907
0.000454332
0.000753553
0.000881784
0.000921095
0.000899159
0.0008162
0.000650828
0.000356889
0.000357215
0.000654199
0.000826484
0.000924111
0.000974983
0.000991411
0.000976548
0.000925044
0.000820869
0.000638467
0.000437247
0.000527384
0.000589131
0.000608286
0.000612529
0.000613572
0.000613895
0.000613947
0.000613842
0.000613448
0.000612287
0.000609274
0.000601299
0.000577281
0.00051496
0.000431019
0.000627618
0.000803759
0.000896118
0.000924902
0.000899596
0.00081574
0.000650454
0.000356859
0.000356937
0.000652226
0.000822964
0.000919706
0.000970981
0.000990189
0.000982696
0.00094823
0.000883335
0.000788802
0.000694122
0.000675296
0.0006636
0.000647992
0.00063879
0.000635089
0.000633878
0.000633503
0.00063334
0.000633148
0.000632812
0.000632505
0.000633075
0.000635706
0.000644243
0.000667467
0.00076561
0.000859931
0.000916805
0.000930937
0.000899838
0.000814286
0.000649269
0.000356692
0.000356163
0.000647388
0.000814678
0.00090916
0.000959973
0.000981475
0.000980661
0.000960004
0.000920017
0.000863567
0.000801971
0.000753441
0.000707231
0.000666
0.000645617
0.000637881
0.000635355
0.00063461
0.00063441
0.000634421
0.00063482
0.000636668
0.000643261
0.000662222
0.000704422
0.000759948
0.000830468
0.000891559
0.000927135
0.000930103
0.000894422
0.000808366
0.000645333
0.000356027
0.000354203
0.000636527
0.000796866
0.000886579
0.000935069
0.000957215
0.000960839
0.000949495
0.000924414
0.000886762
0.000839786
0.000788378
0.000733733
0.000684973
0.000660546
0.00065104
0.000647849
0.000646898
0.000646677
0.000646806
0.000647606
0.000650534
0.000659704
0.000684081
0.000734239
0.000793357
0.000850904
0.000895217
0.000918036
0.000913997
0.000876477
0.000792727
0.000635287
0.000354159
0.000349594
0.000613883
0.000761446
0.00084256
0.000886062
0.000906684
0.000912358
0.000906888
0.000891524
0.000866421
0.000832062
0.000790268
0.00074478
0.000704503
0.00068247
0.000673223
0.000669891
0.000668846
0.000668623
0.000668806
0.000669799
0.000673048
0.000682222
0.000704327
0.000745436
0.000792638
0.000835675
0.000866628
0.000880304
0.000872413
0.000836337
0.000759088
0.000613285
0.000349616
0.000339432
0.000568992
0.000694428
0.000761484
0.000796641
0.000813407
0.000819032
0.000817014
0.000808466
0.000793267
0.000771169
0.000743045
0.000712158
0.000685037
0.000669082
0.000661803
0.000659049
0.000658161
0.000657965
0.000658145
0.000659011
0.000661735
0.000668998
0.000685047
0.000712511
0.000743916
0.000771863
0.000791027
0.00079793
0.000789073
0.000758307
0.0006934
0.000568835
0.0003395
0.000318675
0.000481561
0.000569082
0.000614068
0.000636694
0.000647222
0.000651033
0.000650687
0.000647005
0.000639837
0.000628797
0.000614199
0.000597904
0.000583462
0.000574539
0.000570242
0.000568531
0.000567951
0.000567821
0.000567955
0.000568536
0.000570244
0.000574543
0.000583508
0.000598062
0.000614477
0.000628752
0.000638032
0.000640449
0.000633666
0.000613003
0.000568882
0.000481634
0.000318752
0.000285177
0.000318724
0.000339567
0.000349813
0.000354502
0.000356522
0.000357286
0.000357394
0.000357006
0.00035606
0.000354531
0.000352348
0.000349741
0.00034731
0.000345762
0.000344981
0.00034463
0.000344466
0.000344409
0.000344473
0.000344637
0.000344985
0.00034576
0.000347304
0.000349736
0.000352348
0.000354482
0.000355789
0.000355947
0.000354409
0.000349918
0.000339711
0.000318831
0.000285233
0.000410354
0.000530919
0.000604791
0.00064353
0.000662896
0.000672061
0.000676088
0.000677666
0.000678138
0.000678141
0.000677972
0.00067777
0.0006776
0.000677481
0.000677404
0.000677353
0.000677318
0.0006773
0.000677298
0.000677314
0.000677345
0.000677393
0.000677461
0.000677554
0.000677647
0.00067763
0.000677213
0.000675739
0.000671829
0.000662764
0.00064347
0.000604775
0.000530925
0.000410369
0.000530925
0.00101531
0.00123576
0.00135417
0.00141724
0.0014493
0.00146439
0.00147062
0.00147246
0.00147229
0.00147132
0.00147022
0.00146931
0.00146868
0.00146828
0.00146803
0.00146788
0.00146781
0.00146781
0.00146789
0.00146803
0.00146827
0.00146862
0.00146912
0.00146965
0.00146972
0.00146813
0.00146241
0.00144791
0.00141638
0.0013537
0.00123553
0.00101523
0.000530935
0.000604834
0.00123584
0.0015271
0.00168932
0.00177916
0.00182656
0.00184952
0.00185892
0.00186116
0.00185992
0.00185735
0.00185469
0.00185259
0.00185119
0.00185037
0.00184988
0.00184958
0.00184945
0.00184945
0.00184959
0.00184988
0.00185035
0.00185108
0.00185222
0.00185361
0.00185444
0.00185272
0.00184451
0.00182301
0.00177694
0.00168812
0.00152656
0.00123567
0.000604846
0.000643613
0.00135433
0.00168942
0.00188095
0.00198971
0.00204822
0.00207646
0.00208697
0.00208751
0.00208299
0.0020767
0.00207078
0.00206632
0.00206351
0.00206193
0.00206098
0.00206041
0.00206013
0.00206013
0.00206042
0.00206098
0.00206189
0.00206335
0.00206577
0.0020692
0.00207256
0.00207299
0.00206509
0.00204008
0.00198457
0.0018781
0.00168808
0.00135386
0.000643597
0.000663012
0.00141747
0.00177936
0.00198986
0.00211108
0.00217636
0.00220643
0.0022146
0.00220956
0.00219761
0.00218375
0.00217169
0.00216308
0.00215799
0.00215528
0.00215363
0.00215257
0.00215204
0.00215205
0.00215258
0.00215363
0.00215524
0.00215778
0.00216238
0.0021697
0.00217861
0.00218537
0.00218258
0.00215926
0.00210022
0.00198376
0.00177639
0.00141634
0.000662894
0.000672205
0.00144961
0.00182693
0.00204866
0.00217679
0.00224436
0.00227184
0.00227242
0.00225536
0.00222876
0.00220088
0.00217853
0.00216368
0.0021557
0.00215187
0.00214929
0.00214748
0.00214657
0.00214658
0.0021475
0.0021493
0.00215183
0.00215548
0.00216292
0.00217632
0.00219509
0.00221496
0.00222513
0.00221113
0.00215576
0.00203678
0.00182103
0.00144722
0.000671859
0.00067626
0.00146483
0.00185022
0.00207757
0.002208
0.00227341
0.00229294
0.00227853
0.0022392
0.00218569
0.00213331
0.00209654
0.00207484
0.00206497
0.00206117
0.00205774
0.00205499
0.00205358
0.00205358
0.00205501
0.00205776
0.00206115
0.00206478
0.00207412
0.00209432
0.00212729
0.00217103
0.00220693
0.00221337
0.00217052
0.0020565
0.00183966
0.0014604
0.00067551
0.000677879
0.00147129
0.00186027
0.00208945
0.00221866
0.00227792
0.00228372
0.00224469
0.00216726
0.00206493
0.00196952
0.00192019
0.00189872
0.00189281
0.00189262
0.00188925
0.00188584
0.00188407
0.00188407
0.00188586
0.00188928
0.00189263
0.00189269
0.00189815
0.00191822
0.0019637
0.00205004
0.00213385
0.00217714
0.00215741
0.0020555
0.00184326
0.00146402
0.000676527
0.00067842
0.00147357
0.00186367
0.0020925
0.00221837
0.00226882
0.00225612
0.00218204
0.00204324
0.00184757
0.00166165
0.00163419
0.00164625
0.00166045
0.00166983
0.00166966
0.00166744
0.00166611
0.00166612
0.00166746
0.0016697
0.00166987
0.00166043
0.00164593
0.00163278
0.00165663
0.00183299
0.00200921
0.00211293
0.00212739
0.00204319
0.00183915
0.00146298
0.000676341
0.000678533
0.00147409
0.00186426
0.00209199
0.00221421
0.00225589
0.00222419
0.00210972
0.00188327
0.0014903
0.000927563
0.00120632
0.00135431
0.00141548
0.00143708
0.00144641
0.00144853
0.00144869
0.0014487
0.00144855
0.00144646
0.00143715
0.00141556
0.00135433
0.00120599
0.000924879
0.00147672
0.00184876
0.00203942
0.00209384
0.00202837
0.00183293
0.00146049
0.000675784
0.000678521
0.00147409
0.00186419
0.00209124
0.0022114
0.00224817
0.00220544
0.00206481
0.00176284
0.000981975
0.000744594
0.00111606
0.0012179
0.00125108
0.00126126
0.00126403
0.00126462
0.00126462
0.00126405
0.0012613
0.00125114
0.001218
0.0011162
0.000744633
0.00097258
0.00172808
0.00199376
0.00207423
0.00201968
0.0018291
0.00145879
0.000675404
0.000678507
0.00147411
0.00186446
0.00209184
0.00221256
0.00225074
0.00221242
0.00208691
0.00184361
0.0014261
0.000858779
0.00105601
0.00118817
0.00124347
0.00126571
0.00126874
0.00126891
0.00126879
0.00126879
0.0012689
0.00126872
0.00126568
0.00124342
0.00118804
0.00105544
0.00085592
0.00141237
0.00180885
0.0020161
0.00208124
0.00202207
0.00182992
0.00145894
0.000675455
0.000678521
0.00147431
0.00186522
0.00209376
0.00221692
0.00226039
0.00223393
0.00213604
0.00195939
0.00170705
0.001445
0.00132834
0.00126906
0.00124836
0.0012428
0.0012413
0.00124068
0.00124038
0.00124037
0.00124066
0.00124127
0.00124274
0.00124821
0.00126863
0.00132689
0.00144002
0.00169239
0.00192484
0.00206571
0.00210316
0.00203193
0.00183428
0.00146066
0.000675851
0.000678549
0.00147461
0.00186623
0.00209623
0.00222235
0.00227175
0.00225691
0.00218126
0.00204518
0.00185679
0.00164854
0.00147258
0.00133697
0.00127192
0.00124804
0.00124057
0.00123835
0.00123773
0.00123772
0.00123834
0.00124054
0.00124796
0.00127171
0.0013364
0.0014708
0.00164298
0.00184174
0.00201066
0.00211121
0.00212644
0.00204349
0.00183974
0.00146293
0.000676349
0.000678572
0.0014749
0.00186717
0.00209849
0.00222717
0.00228132
0.00227485
0.00221299
0.00209745
0.00193361
0.00173916
0.00154422
0.00137843
0.0012922
0.00125843
0.00124725
0.00124394
0.00124309
0.00124308
0.00124393
0.00124722
0.00125834
0.00129198
0.00137781
0.00154232
0.00173336
0.00191833
0.00206284
0.00214298
0.00214446
0.0020531
0.00184449
0.00146497
0.000676766
0.000678581
0.00147512
0.00186788
0.00210016
0.00223065
0.00228794
0.00228654
0.00223212
0.00212604
0.00197136
0.00178023
0.00157766
0.00139951
0.00130388
0.00126538
0.00125236
0.00124849
0.00124752
0.00124752
0.00124848
0.00125232
0.00126529
0.00130366
0.00139888
0.00157573
0.00177431
0.00195592
0.0020913
0.00216202
0.00215608
0.00205963
0.00184783
0.00146641
0.000677037
0.000678576
0.00147526
0.00186832
0.0021012
0.00223275
0.00229182
0.00229308
0.00224224
0.00214016
0.00198869
0.00179803
0.00159204
0.00140886
0.00130932
0.00126877
0.00125494
0.00125082
0.00124979
0.00124979
0.00125081
0.0012549
0.00126868
0.00130909
0.00140823
0.00159011
0.00179205
0.00197315
0.00210532
0.00217203
0.00216253
0.0020634
0.0018498
0.00146727
0.000677175
0.000678564
0.00147532
0.00186853
0.00210169
0.00223373
0.00229357
0.00229595
0.0022465
0.00214585
0.00199535
0.0018046
0.00159727
0.00141228
0.00131132
0.00127002
0.0012559
0.00125169
0.00125063
0.00125062
0.00125167
0.00125586
0.00126994
0.00131109
0.00141165
0.00159531
0.00179858
0.00197976
0.00211094
0.00217623
0.00216532
0.00206507
0.00185069
0.00146764
0.000677221
0.000678551
0.00147532
0.00186854
0.00210171
0.00223376
0.00229361
0.00229601
0.00224658
0.00214595
0.00199547
0.00180473
0.00159739
0.00141241
0.0013114
0.00127006
0.00125592
0.0012517
0.00125063
0.00125063
0.00125168
0.00125588
0.00126998
0.00131117
0.00141177
0.00159544
0.00179871
0.00197988
0.00211105
0.00217631
0.00216538
0.00206511
0.00185071
0.00146765
0.000677204
0.000678543
0.00147525
0.00186835
0.00210125
0.00223284
0.00229195
0.00229327
0.00224249
0.00214047
0.00198906
0.00179844
0.00159244
0.00140926
0.00130958
0.00126891
0.00125503
0.00125089
0.00124984
0.00124984
0.00125087
0.001255
0.00126883
0.00130935
0.00140864
0.00159051
0.00179246
0.00197353
0.00210563
0.00217228
0.0021627
0.00206351
0.00184986
0.00146728
0.000677133
0.000678536
0.00147512
0.00186791
0.00210024
0.00223078
0.00228814
0.00228683
0.00223253
0.00212657
0.00197202
0.00178099
0.00157841
0.00140026
0.0013044
0.0012657
0.00125259
0.00124869
0.0012477
0.0012477
0.00124868
0.00125257
0.00126564
0.0013042
0.00139968
0.00157656
0.00177511
0.00195661
0.00209185
0.00216242
0.00215636
0.00205981
0.00184793
0.00146644
0.000676982
0.00067852
0.00147488
0.00186719
0.00209855
0.0022273
0.00228154
0.0022752
0.00221352
0.00209822
0.00193465
0.00174043
0.00154559
0.00137966
0.00129304
0.00125899
0.00124768
0.00124433
0.00124347
0.00124347
0.00124434
0.00124768
0.00125894
0.00129288
0.00137914
0.00154382
0.00173472
0.00191942
0.0020636
0.00214347
0.00214476
0.00205328
0.00184459
0.00146499
0.000676704
0.000678487
0.00147455
0.00186617
0.00209618
0.00222235
0.00227183
0.00225714
0.00218176
0.0020461
0.00185827
0.00165053
0.00147471
0.00133857
0.0012728
0.0012485
0.00124085
0.00123858
0.00123796
0.00123796
0.0012386
0.00124086
0.00124848
0.00127267
0.00133814
0.00147316
0.00164513
0.00184326
0.00201147
0.00211153
0.00212654
0.0020435
0.00183972
0.00146289
0.000676275
0.000678433
0.00147411
0.00186491
0.00209333
0.00221641
0.00225988
0.00223354
0.00213598
0.00196005
0.00170887
0.00144789
0.001331
0.0012697
0.00124745
0.00124111
0.00123925
0.00123855
0.00123826
0.00123826
0.00123856
0.00123923
0.00124098
0.00124716
0.00126919
0.0013298
0.00144316
0.00169413
0.00192497
0.00206507
0.00210239
0.00203131
0.00183387
0.00146042
0.00067574
0.000678341
0.00147351
0.00186341
0.00209034
0.00221067
0.00224857
0.00221012
0.00208482
0.00184248
0.00142751
0.000860899
0.00105555
0.00118158
0.00123332
0.00125352
0.00125576
0.00125577
0.00125566
0.00125564
0.0012557
0.00125548
0.00125277
0.00123184
0.00117962
0.00105438
0.000858037
0.00141314
0.00180581
0.00201227
0.00207797
0.00201972
0.00182844
0.00145815
0.000675237
0.000678134
0.00147244
0.00186129
0.00208711
0.00220614
0.00224193
0.00219831
0.00205695
0.00175488
0.000976594
0.000725041
0.00107873
0.00117062
0.00119705
0.00120534
0.00120787
0.00120848
0.00120838
0.0012074
0.00120398
0.00119372
0.00116395
0.00106844
0.000716686
0.000962281
0.00171376
0.00198135
0.00206492
0.00201329
0.0018251
0.00145666
0.000674909
0.000677556
0.00146986
0.001857
0.00208187
0.00220151
0.00224081
0.00220656
0.00208883
0.00185783
0.00145868
0.000892861
0.00112312
0.00124331
0.00127713
0.00128033
0.0012853
0.00128735
0.00128783
0.00128757
0.0012862
0.00128182
0.00127126
0.0012573
0.00120896
0.00108354
0.000866874
0.00142095
0.00180627
0.00200862
0.00207221
0.00201366
0.00182353
0.00145533
0.000674615
0.000675969
0.00146341
0.0018469
0.00206979
0.0021905
0.00223623
0.00221826
0.00213659
0.00198515
0.00176722
0.00154324
0.00146063
0.00141139
0.00136274
0.00133405
0.0013243
0.00132146
0.0013206
0.00132018
0.00131948
0.00131805
0.00131668
0.00132165
0.00133632
0.00137567
0.00146674
0.00170147
0.00191932
0.00205089
0.00208404
0.00201296
0.00181901
0.0014514
0.000673612
0.000671985
0.00144844
0.00182419
0.00204216
0.0021621
0.00221331
0.0022105
0.00215924
0.00206119
0.00192306
0.00176925
0.00163688
0.00151317
0.00140264
0.00134591
0.00132439
0.00131742
0.00131537
0.00131482
0.00131482
0.00131587
0.00132111
0.00134051
0.00139495
0.00151102
0.0016601
0.00183565
0.0019842
0.00207066
0.0020796
0.00199821
0.00180283
0.00143941
0.000670302
0.000662878
0.00141665
0.00177746
0.00198525
0.00210046
0.00215364
0.00216134
0.0021314
0.0020669
0.00197082
0.00185067
0.00171769
0.00157772
0.00145063
0.00138382
0.00135723
0.00134817
0.00134542
0.00134478
0.00134518
0.00134754
0.00135597
0.00138197
0.00144932
0.00158139
0.00173277
0.00187772
0.00198861
0.00204654
0.0020395
0.00195339
0.00176233
0.00141042
0.000661807
0.000643557
0.00135384
0.00168834
0.00187821
0.00198309
0.00203355
0.00204657
0.00203062
0.00198876
0.00192176
0.00183125
0.00172216
0.0016046
0.0015006
0.0014416
0.00141588
0.00140638
0.0014033
0.00140259
0.00140322
0.00140618
0.00141551
0.0014412
0.00150096
0.00160753
0.00172939
0.0018403
0.00192054
0.00195742
0.00194094
0.00185685
0.00167856
0.00134996
0.000642969
0.000604839
0.00123561
0.00152666
0.00168807
0.00177576
0.00181845
0.00183214
0.00182483
0.00179929
0.00175558
0.00169363
0.00161633
0.00153257
0.00145929
0.00141503
0.00139422
0.00138596
0.0013831
0.00138244
0.00138311
0.00138596
0.00139423
0.00141513
0.00145984
0.00153422
0.00161927
0.00169543
0.00174855
0.00176944
0.00174957
0.00167535
0.00152112
0.00123351
0.000604591
0.000530968
0.00101526
0.00123573
0.00135389
0.00141606
0.00144592
0.00145637
0.00145379
0.00144033
0.00141584
0.00137982
0.00133379
0.00128352
0.00123946
0.00121183
0.0011982
0.00119255
0.00119052
0.00119005
0.00119057
0.00119264
0.00119835
0.00121206
0.00123993
0.00128443
0.00133501
0.00137974
0.00140994
0.00141971
0.00140272
0.00134779
0.00123326
0.00101438
0.000530924
0.000410398
0.000530966
0.000604906
0.000643688
0.00066298
0.000671807
0.000674965
0.0006747
0.000671714
0.000665873
0.000656859
0.000644879
0.000631445
0.000619538
0.000612119
0.000608499
0.000607001
0.000606458
0.000606329
0.000606472
0.000607025
0.000608528
0.000612158
0.000619613
0.000631605
0.000645107
0.000656793
0.000664364
0.000666264
0.000660442
0.0006427
0.000604603
0.000530913
0.000410451
0.000452204
0.000630947
0.000741514
0.00080135
0.000832559
0.000848025
0.000855133
0.000858019
0.000858885
0.000858844
0.000858453
0.000857996
0.000857612
0.000857344
0.000857174
0.000857066
0.000857
0.000856967
0.000856966
0.000856997
0.000857061
0.000857161
0.000857311
0.000857522
0.00085774
0.000857748
0.000856998
0.00085433
0.000847469
0.00083222
0.000801171
0.000741434
0.000630924
0.000452219
0.000630948
0.00126966
0.00155855
0.00171833
0.00180632
0.00185258
0.00187508
0.00188463
0.00188746
0.00188707
0.00188536
0.0018834
0.00188175
0.00188057
0.00187982
0.00187936
0.00187908
0.00187894
0.00187894
0.00187907
0.00187935
0.00187979
0.00188045
0.00188137
0.00188234
0.00188257
0.00188016
0.00187148
0.00184998
0.00180464
0.00171735
0.00155804
0.00126943
0.000630922
0.000741555
0.00155866
0.00192992
0.00214154
0.00226217
0.00232768
0.00236027
0.00237389
0.00237708
0.002375
0.0023708
0.0023664
0.00236283
0.00236041
0.00235892
0.00235803
0.0023575
0.00235725
0.00235725
0.0023575
0.00235801
0.00235886
0.00236018
0.00236215
0.00236453
0.00236604
0.00236368
0.00235194
0.00232163
0.00225825
0.00213928
0.00192877
0.00155819
0.000741494
0.000801443
0.00171855
0.00214167
0.00238808
0.00253161
0.00261076
0.00264983
0.00266456
0.00266514
0.00265826
0.00264858
0.00263926
0.00263205
0.00262737
0.00262464
0.002623
0.00262202
0.00262155
0.00262156
0.00262202
0.00262298
0.00262454
0.00262704
0.00263107
0.00263662
0.00264198
0.00264297
0.0026321
0.00259782
0.00252316
0.00238316
0.00213915
0.00171748
0.000801276
0.0008327
0.00180664
0.00226247
0.00253183
0.00269052
0.00277786
0.00281884
0.00283005
0.00282278
0.00280546
0.00278495
0.00276651
0.00275292
0.00274461
0.00274005
0.00273725
0.00273551
0.00273467
0.00273467
0.00273551
0.00273723
0.00273993
0.00274421
0.00275171
0.00276325
0.00277686
0.00278694
0.00278342
0.00275201
0.00267361
0.00252189
0.00225728
0.00180437
0.000832276
0.000848215
0.00185304
0.00232827
0.00261149
0.00277856
0.00286838
0.00290551
0.00290634
0.0028828
0.00284553
0.00280533
0.00277145
0.00274789
0.00273467
0.00272806
0.00272368
0.00272076
0.00271932
0.00271932
0.00272076
0.00272367
0.00272796
0.00273424
0.00274657
0.00276782
0.00279622
0.00282467
0.00283878
0.00282008
0.00274711
0.00259297
0.00231848
0.00184862
0.000847284
0.000855386
0.0018758
0.00236145
0.00265167
0.00282136
0.00290797
0.00293438
0.0029154
0.00286264
0.00278976
0.00271567
0.00265871
0.00262227
0.00260444
0.00259706
0.00259085
0.00258625
0.00258398
0.00258399
0.00258626
0.00259084
0.00259698
0.00260406
0.00262099
0.00265501
0.00270609
0.00276745
0.00281545
0.00282347
0.0027671
0.0026199
0.00234456
0.00186801
0.00085361
0.000858377
0.00188582
0.0023762
0.00266865
0.00283647
0.00291479
0.00292322
0.00287259