/*--------------------------------*- C++ -*----------------------------------*\
| =========                 |                                                 |
| \\      /  F ield         | OpenFOAM: The Open Source CFD Toolbox           |
|  \\    /   O peration     | Version:  2112                                  |
|   \\  /    A nd           | Website:  www.openfoam.com                      |
|    \\/     M anipulation  |                                                 |
\*---------------------------------------------------------------------------*/
FoamFile
{
    version     2.0;
    format      ascii;
    arch        "LSB;label=32;scalar=64";
    class       volScalarField;
    location    "3.7";
    object      nut;
}
// * * * * * * * * * * * * * * * * * * * * * * * * * * * * * * * * * * * * * //

dimensions      [0 2 -1 0 0 0 0];

internalField   nonuniform List<scalar> 
64906
(
4.23135e-05
4.47912e-05
4.62744e-05
4.69934e-05
4.7322e-05
4.74647e-05
4.75231e-05
4.75449e-05
4.75515e-05
4.75518e-05
4.75498e-05
4.75474e-05
4.75457e-05
4.75442e-05
4.75431e-05
4.7542e-05
4.75411e-05
4.75403e-05
4.75401e-05
4.75405e-05
4.75413e-05
4.75422e-05
4.75433e-05
4.75444e-05
4.75453e-05
4.75452e-05
4.75399e-05
4.75198e-05
4.74629e-05
4.73213e-05
4.69935e-05
4.6275e-05
4.47924e-05
4.23145e-05
4.4793e-05
5.51682e-05
6.00427e-05
6.24281e-05
6.3618e-05
6.4194e-05
6.44552e-05
6.4561e-05
6.45938e-05
6.45947e-05
6.45837e-05
6.45706e-05
6.45602e-05
6.45535e-05
6.45498e-05
6.45477e-05
6.45464e-05
6.45458e-05
6.45458e-05
6.45464e-05
6.45477e-05
6.45496e-05
6.45528e-05
6.45576e-05
6.45625e-05
6.45599e-05
6.45305e-05
6.44319e-05
6.41792e-05
6.36107e-05
6.24261e-05
6.00441e-05
5.51709e-05
4.47958e-05
4.62788e-05
6.00451e-05
6.64139e-05
6.9619e-05
7.12839e-05
7.21258e-05
7.25218e-05
7.26821e-05
7.27231e-05
7.27082e-05
7.26728e-05
7.26369e-05
7.26097e-05
7.25933e-05
7.25847e-05
7.25802e-05
7.25777e-05
7.25766e-05
7.25766e-05
7.2578e-05
7.25806e-05
7.25849e-05
7.25923e-05
7.2605e-05
7.26216e-05
7.26293e-05
7.25957e-05
7.24535e-05
7.20797e-05
7.12579e-05
6.96079e-05
6.6412e-05
6.00483e-05
4.62833e-05
4.69996e-05
6.24329e-05
6.96213e-05
7.33235e-05
7.52974e-05
7.6318e-05
7.67988e-05
7.69769e-05
7.69908e-05
7.6924e-05
7.68301e-05
7.6744e-05
7.66814e-05
7.66446e-05
7.66259e-05
7.66154e-05
7.66091e-05
7.66061e-05
7.66062e-05
7.66095e-05
7.66159e-05
7.6626e-05
7.6643e-05
7.66742e-05
7.67215e-05
7.67682e-05
7.67689e-05
7.66317e-05
7.62018e-05
7.52277e-05
7.32888e-05
6.9609e-05
6.24333e-05
4.70053e-05
4.73293e-05
6.36245e-05
7.12884e-05
7.53002e-05
7.7471e-05
7.85973e-05
7.91055e-05
7.92445e-05
7.9167e-05
7.89783e-05
7.87612e-05
7.85773e-05
7.84499e-05
7.83794e-05
7.83453e-05
7.83247e-05
7.83111e-05
7.83043e-05
7.83045e-05
7.83115e-05
7.83253e-05
7.83454e-05
7.83773e-05
7.84409e-05
7.85491e-05
7.86846e-05
7.87895e-05
7.87383e-05
7.83395e-05
7.73125e-05
7.52161e-05
7.12525e-05
6.36164e-05
4.73351e-05
4.74726e-05
6.42017e-05
7.2133e-05
7.63253e-05
7.86038e-05
7.97638e-05
8.02272e-05
8.02393e-05
7.99594e-05
7.95222e-05
7.90675e-05
7.87156e-05
7.84884e-05
7.83751e-05
7.83269e-05
7.82924e-05
7.82666e-05
7.82534e-05
7.82536e-05
7.82672e-05
7.82932e-05
7.83273e-05
7.83731e-05
7.84786e-05
7.86842e-05
7.89813e-05
7.931e-05
7.94813e-05
7.9243e-05
7.82823e-05
7.61505e-05
7.20524e-05
6.41759e-05
4.7477e-05
4.75312e-05
6.44643e-05
7.25336e-05
7.68156e-05
7.91285e-05
8.02506e-05
8.05797e-05
8.03356e-05
7.96674e-05
7.87515e-05
7.78578e-05
7.72699e-05
7.69357e-05
7.68011e-05
7.67623e-05
7.67138e-05
7.66711e-05
7.66492e-05
7.66494e-05
7.66719e-05
7.67149e-05
7.67631e-05
7.67997e-05
7.69267e-05
7.72386e-05
7.77681e-05
7.85261e-05
7.91576e-05
7.9279e-05
7.85362e-05
7.64922e-05
7.23795e-05
6.4408e-05
4.75318e-05
4.7553e-05
6.45728e-05
7.27027e-05
7.70135e-05
7.93047e-05
8.03226e-05
8.04161e-05
7.97379e-05
7.83722e-05
7.65226e-05
7.47766e-05
7.40325e-05
7.37459e-05
7.37096e-05
7.37532e-05
7.37035e-05
7.36466e-05
7.36178e-05
7.36181e-05
7.36475e-05
7.37049e-05
7.37546e-05
7.37095e-05
7.37395e-05
7.40053e-05
7.469e-05
7.6293e-05
7.7843e-05
7.86416e-05
7.83096e-05
7.64765e-05
7.24441e-05
6.44722e-05
4.7547e-05
4.75599e-05
6.46108e-05
7.27598e-05
7.70644e-05
7.92997e-05
8.01675e-05
7.99359e-05
7.86125e-05
7.60427e-05
7.21983e-05
6.83549e-05
6.84109e-05
6.89367e-05
6.9348e-05
6.96082e-05
6.96057e-05
6.95647e-05
6.95429e-05
6.95432e-05
6.95657e-05
6.96074e-05
6.96104e-05
6.93497e-05
6.89346e-05
6.83934e-05
6.82817e-05
7.19737e-05
7.55008e-05
7.74872e-05
7.77867e-05
7.62673e-05
7.23768e-05
6.44575e-05
4.7545e-05
4.75609e-05
6.46204e-05
7.27711e-05
7.70581e-05
7.92328e-05
7.995e-05
7.93749e-05
7.72669e-05
7.28026e-05
6.423e-05
5.31232e-05
5.9177e-05
6.29745e-05
6.44664e-05
6.50416e-05
6.51797e-05
6.5207e-05
6.52106e-05
6.52109e-05
6.52081e-05
6.51815e-05
6.50443e-05
6.44698e-05
6.29782e-05
5.91778e-05
5.30898e-05
6.40276e-05
7.22507e-05
7.61169e-05
7.71944e-05
7.60153e-05
7.22745e-05
6.44192e-05
4.75368e-05
4.75601e-05
6.46219e-05
7.27726e-05
7.70498e-05
7.91918e-05
7.98262e-05
7.9049e-05
7.63943e-05
7.00915e-05
5.40029e-05
5.00704e-05
5.81512e-05
6.06477e-05
6.13938e-05
6.1646e-05
6.17207e-05
6.17386e-05
6.17388e-05
6.17214e-05
6.16472e-05
6.1396e-05
6.06512e-05
5.81569e-05
5.00745e-05
5.38824e-05
6.95406e-05
7.52304e-05
7.68519e-05
7.58739e-05
7.22159e-05
6.43956e-05
4.75305e-05
4.75589e-05
6.46239e-05
7.27801e-05
7.70652e-05
7.92214e-05
7.98898e-05
7.92165e-05
7.69338e-05
7.21881e-05
6.31885e-05
5.20898e-05
5.62393e-05
5.95562e-05
6.08102e-05
6.11499e-05
6.13904e-05
6.14646e-05
6.14778e-05
6.14777e-05
6.14645e-05
6.13903e-05
6.11495e-05
6.08098e-05
5.9555e-05
5.62302e-05
5.20485e-05
6.29771e-05
7.16286e-05
7.57737e-05
7.70215e-05
7.59361e-05
7.22408e-05
6.44037e-05
4.75298e-05
4.75581e-05
6.46282e-05
7.27955e-05
7.71023e-05
7.93039e-05
8.00724e-05
7.96318e-05
7.79263e-05
7.47122e-05
6.98443e-05
6.46044e-05
6.27823e-05
6.18955e-05
6.15887e-05
6.14736e-05
6.14928e-05
6.15002e-05
6.1498e-05
6.14978e-05
6.14996e-05
6.14916e-05
6.14714e-05
6.15847e-05
6.18866e-05
6.27568e-05
6.45232e-05
6.96119e-05
7.41581e-05
7.67789e-05
7.74486e-05
7.61264e-05
7.23259e-05
6.4437e-05
4.75344e-05
4.75575e-05
6.46334e-05
7.28141e-05
7.71471e-05
7.94018e-05
8.02782e-05
8.00558e-05
7.87892e-05
7.6435e-05
7.3063e-05
6.92303e-05
6.60053e-05
6.35137e-05
6.23172e-05
6.18625e-05
6.17203e-05
6.16742e-05
6.16587e-05
6.16583e-05
6.16731e-05
6.17184e-05
6.18592e-05
6.23115e-05
6.35019e-05
6.59753e-05
6.91402e-05
7.28253e-05
7.58847e-05
7.7651e-05
7.78824e-05
7.63396e-05
7.24267e-05
6.44778e-05
4.75397e-05
4.75567e-05
6.46381e-05
7.28308e-05
7.71869e-05
7.94861e-05
8.04465e-05
8.03762e-05
7.93702e-05
7.74256e-05
7.45821e-05
7.10955e-05
6.74829e-05
6.43948e-05
6.27826e-05
6.21343e-05
6.19078e-05
6.18319e-05
6.18075e-05
6.1807e-05
6.18303e-05
6.19053e-05
6.21305e-05
6.27761e-05
6.43821e-05
6.74514e-05
7.10024e-05
7.43421e-05
7.68761e-05
7.82359e-05
7.82077e-05
7.65118e-05
7.25118e-05
6.45126e-05
4.75432e-05
4.75555e-05
6.46412e-05
7.28431e-05
7.72158e-05
7.95459e-05
8.05607e-05
8.05803e-05
7.97107e-05
7.79475e-05
7.52923e-05
7.18916e-05
6.81377e-05
6.48158e-05
6.30237e-05
6.22828e-05
6.20165e-05
6.19255e-05
6.18952e-05
6.18944e-05
6.19235e-05
6.20137e-05
6.22786e-05
6.30169e-05
6.48027e-05
6.81048e-05
7.17971e-05
7.50505e-05
7.73971e-05
7.85767e-05
7.84129e-05
7.66265e-05
7.25702e-05
6.45363e-05
4.75445e-05
4.75542e-05
6.46428e-05
7.28507e-05
7.72336e-05
7.95817e-05
8.06267e-05
8.06928e-05
7.98872e-05
7.81989e-05
7.56085e-05
7.22251e-05
6.84147e-05
6.49961e-05
6.31303e-05
6.23497e-05
6.2066e-05
6.19673e-05
6.19327e-05
6.19317e-05
6.1965e-05
6.20629e-05
6.23453e-05
6.31233e-05
6.49827e-05
6.83791e-05
7.21297e-05
7.53654e-05
7.76474e-05
7.87524e-05
7.85248e-05
7.66916e-05
7.26041e-05
6.45497e-05
4.75441e-05
4.75528e-05
6.46432e-05
7.28544e-05
7.72421e-05
7.95983e-05
8.06565e-05
8.07419e-05
7.9961e-05
7.82992e-05
7.57285e-05
7.23466e-05
6.85147e-05
6.50612e-05
6.3169e-05
6.23738e-05
6.20833e-05
6.19808e-05
6.1943e-05
6.19416e-05
6.19781e-05
6.20799e-05
6.23692e-05
6.31619e-05
6.50477e-05
6.84787e-05
7.22508e-05
7.54848e-05
7.7747e-05
7.88255e-05
7.85732e-05
7.67206e-05
7.26194e-05
6.45552e-05
4.75426e-05
4.75517e-05
6.46429e-05
7.28547e-05
7.72428e-05
7.95994e-05
8.0658e-05
8.07438e-05
7.99635e-05
7.83023e-05
7.57323e-05
7.2351e-05
6.85191e-05
6.50647e-05
6.31711e-05
6.23746e-05
6.20831e-05
6.19794e-05
6.19397e-05
6.1938e-05
6.19764e-05
6.20795e-05
6.237e-05
6.3164e-05
6.50512e-05
6.84833e-05
7.22554e-05
7.54889e-05
7.77504e-05
7.88282e-05
7.85752e-05
7.67221e-05
7.26202e-05
6.4555e-05
4.75408e-05
4.75515e-05
6.4642e-05
7.28518e-05
7.72357e-05
7.95847e-05
8.0631e-05
8.06986e-05
7.98947e-05
7.82086e-05
7.56204e-05
7.22388e-05
6.8429e-05
6.5007e-05
6.31371e-05
6.23527e-05
6.20658e-05
6.19636e-05
6.1924e-05
6.19221e-05
6.19604e-05
6.20621e-05
6.2348e-05
6.31301e-05
6.49939e-05
6.83939e-05
7.21442e-05
7.53781e-05
7.76578e-05
7.87605e-05
7.85309e-05
7.6696e-05
7.26067e-05
6.45494e-05
4.75399e-05
4.75522e-05
6.46404e-05
7.28448e-05
7.72191e-05
7.95508e-05
8.05676e-05
8.05898e-05
7.97234e-05
7.79642e-05
7.53135e-05
7.19168e-05
6.8164e-05
6.48359e-05
6.30365e-05
6.2289e-05
6.20173e-05
6.19206e-05
6.1884e-05
6.18824e-05
6.19175e-05
6.20136e-05
6.22844e-05
6.30298e-05
6.48235e-05
6.81305e-05
7.18241e-05
7.50734e-05
7.74153e-05
7.85904e-05
7.8423e-05
7.66336e-05
7.25746e-05
6.45366e-05
4.75395e-05
4.75532e-05
6.46374e-05
7.28329e-05
7.71909e-05
7.94923e-05
8.04554e-05
8.03888e-05
7.9388e-05
7.74503e-05
7.46152e-05
7.11369e-05
6.75213e-05
6.44267e-05
6.28024e-05
6.21441e-05
6.19098e-05
6.18268e-05
6.17964e-05
6.17951e-05
6.18239e-05
6.19062e-05
6.21399e-05
6.27964e-05
6.44157e-05
6.74924e-05
7.10476e-05
7.43781e-05
7.69027e-05
7.82547e-05
7.8221e-05
7.65211e-05
7.25175e-05
6.45136e-05
4.75379e-05
4.75539e-05
6.46326e-05
7.28157e-05
7.71505e-05
7.94073e-05
8.02867e-05
8.00692e-05
7.88102e-05
7.64677e-05
7.3112e-05
6.92957e-05
6.60658e-05
6.35565e-05
6.23389e-05
6.18692e-05
6.17162e-05
6.16623e-05
6.16419e-05
6.16409e-05
6.16599e-05
6.17129e-05
6.18651e-05
6.23335e-05
6.35476e-05
6.60419e-05
6.92128e-05
7.28792e-05
7.5919e-05
7.7672e-05
7.78958e-05
7.63487e-05
7.24325e-05
6.4479e-05
4.75342e-05
4.75544e-05
6.4626e-05
7.27941e-05
7.71011e-05
7.93035e-05
8.00742e-05
7.96386e-05
7.79428e-05
7.47476e-05
6.99108e-05
6.47065e-05
6.28713e-05
6.19244e-05
6.15769e-05
6.14384e-05
6.1442e-05
6.14412e-05
6.1435e-05
6.14342e-05
6.14389e-05
6.14381e-05
6.14324e-05
6.15686e-05
6.19151e-05
6.28564e-05
6.46378e-05
6.96851e-05
7.41906e-05
7.67901e-05
7.74523e-05
7.61284e-05
7.23276e-05
6.44366e-05
4.75286e-05
4.75544e-05
6.46165e-05
7.27686e-05
7.70491e-05
7.92018e-05
7.98688e-05
7.91976e-05
7.69246e-05
7.22059e-05
6.3269e-05
5.2159e-05
5.62626e-05
5.94356e-05
6.06152e-05
6.0909e-05
6.11262e-05
6.11913e-05
6.12009e-05
6.11998e-05
6.11874e-05
6.11173e-05
6.08904e-05
6.05846e-05
5.94003e-05
5.62503e-05
5.21192e-05
6.30618e-05
7.16242e-05
7.57421e-05
7.69907e-05
7.59146e-05
7.22283e-05
6.43966e-05
4.75229e-05
4.75531e-05
6.45993e-05
7.27333e-05
7.6994e-05
7.9122e-05
7.97444e-05
7.89568e-05
7.62935e-05
6.99954e-05
5.39524e-05
4.97131e-05
5.74469e-05
5.976e-05
6.03787e-05
6.05857e-05
6.06475e-05
6.06607e-05
6.06577e-05
6.06359e-05
6.05559e-05
6.03112e-05
5.96308e-05
5.72517e-05
4.9555e-05
5.37585e-05
6.93466e-05
7.50603e-05
7.6728e-05
7.57917e-05
7.21664e-05
6.43698e-05
4.75206e-05
4.75464e-05
6.45577e-05
7.26629e-05
7.69087e-05
7.90479e-05
7.97333e-05
7.91242e-05
7.6971e-05
7.2444e-05
6.37996e-05
5.26837e-05
5.77365e-05
6.09681e-05
6.19252e-05
6.21292e-05
6.21756e-05
6.219e-05
6.21922e-05
6.21865e-05
6.21659e-05
6.21064e-05
6.19547e-05
6.155e-05
6.03216e-05
5.7015e-05
5.22785e-05
6.32068e-05
7.16152e-05
7.56634e-05
7.68819e-05
7.58056e-05
7.21419e-05
6.43484e-05
4.7518e-05
4.75255e-05
6.44506e-05
7.24945e-05
7.67099e-05
7.88704e-05
7.96708e-05
7.93623e-05
7.79218e-05
7.51448e-05
7.0922e-05
6.6419e-05
6.53929e-05
6.47332e-05
6.39072e-05
6.34214e-05
6.32244e-05
6.31596e-05
6.31394e-05
6.31308e-05
6.31209e-05
6.31046e-05
6.3093e-05
6.3134e-05
6.33007e-05
6.38026e-05
6.50632e-05
6.98009e-05
7.40625e-05
7.6522e-05
7.71239e-05
7.58073e-05
7.20695e-05
6.42835e-05
4.75054e-05
4.74684e-05
6.41929e-05
7.21046e-05
7.62423e-05
7.83956e-05
7.92953e-05
7.92597e-05
7.83882e-05
7.66787e-05
7.42053e-05
7.14061e-05
6.90988e-05
6.68405e-05
6.47776e-05
6.37332e-05
6.33313e-05
6.3199e-05
6.31597e-05
6.31491e-05
6.31498e-05
6.31713e-05
6.32695e-05
6.36159e-05
6.45972e-05
6.67233e-05
6.94235e-05
7.26863e-05
7.53975e-05
7.69367e-05
7.70734e-05
7.55619e-05
7.17903e-05
6.40745e-05
4.74567e-05
4.73268e-05
6.36219e-05
7.12746e-05
7.52491e-05
7.73314e-05
7.82707e-05
7.84206e-05
7.79301e-05
7.68416e-05
7.5185e-05
7.30728e-05
7.06971e-05
6.80997e-05
6.57091e-05
6.44773e-05
6.399e-05
6.38248e-05
6.37752e-05
6.37635e-05
6.37703e-05
6.38123e-05
6.39644e-05
6.44361e-05
6.56691e-05
6.81317e-05
7.09332e-05
7.35634e-05
7.55329e-05
7.65347e-05
7.63764e-05
7.47709e-05
7.10629e-05
6.35481e-05
4.73221e-05
4.69986e-05
6.24361e-05
6.96211e-05
7.33031e-05
7.52231e-05
7.61241e-05
7.63682e-05
7.612e-05
7.54297e-05
7.42964e-05
7.27281e-05
7.07887e-05
6.86322e-05
6.66744e-05
6.55778e-05
6.51104e-05
6.49401e-05
6.48861e-05
6.48745e-05
6.48841e-05
6.49355e-05
6.51017e-05
6.55662e-05
6.66676e-05
6.86666e-05
7.09004e-05
7.28868e-05
7.42912e-05
7.49122e-05
7.45801e-05
7.29963e-05
6.94951e-05
6.23982e-05
4.69991e-05
4.62793e-05
6.0053e-05
6.64239e-05
6.9622e-05
7.12608e-05
7.20374e-05
7.22956e-05
7.21949e-05
7.17844e-05
7.10567e-05
6.99959e-05
6.86353e-05
6.71219e-05
6.5771e-05
6.49624e-05
6.45887e-05
6.44458e-05
6.43993e-05
6.4389e-05
6.43985e-05
6.44439e-05
6.45852e-05
6.49585e-05
6.57723e-05
6.71405e-05
6.86776e-05
7.00252e-05
7.0942e-05
7.12779e-05
7.08789e-05
6.94537e-05
6.63639e-05
6.00408e-05
4.62837e-05
4.47957e-05
5.51775e-05
6.00579e-05
6.24454e-05
6.36289e-05
6.41795e-05
6.43782e-05
6.43557e-05
6.41536e-05
6.37644e-05
6.31679e-05
6.23792e-05
6.14949e-05
6.07046e-05
6.02107e-05
5.99705e-05
5.9874e-05
5.9841e-05
5.98335e-05
5.98412e-05
5.98742e-05
5.99706e-05
6.02111e-05
6.07074e-05
6.15039e-05
6.2394e-05
6.31635e-05
6.36638e-05
6.38001e-05
6.34537e-05
6.23797e-05
6.00427e-05
5.51804e-05
4.48011e-05
4.23165e-05
4.47994e-05
4.62892e-05
4.70143e-05
4.73478e-05
4.74931e-05
4.75483e-05
4.75552e-05
4.75251e-05
4.74537e-05
4.73398e-05
4.71792e-05
4.69886e-05
4.68115e-05
4.66983e-05
4.66409e-05
4.6615e-05
4.6603e-05
4.65989e-05
4.66036e-05
4.66156e-05
4.66412e-05
4.66982e-05
4.68112e-05
4.69885e-05
4.71793e-05
4.73361e-05
4.74333e-05
4.74468e-05
4.73381e-05
4.70202e-05
4.6299e-05
4.48072e-05
4.23209e-05
6.56732e-05
7.48492e-05
7.99917e-05
8.2591e-05
8.38797e-05
8.44936e-05
8.4767e-05
8.48757e-05
8.49086e-05
8.49086e-05
8.48963e-05
8.48816e-05
8.48692e-05
8.48605e-05
8.48548e-05
8.4851e-05
8.48486e-05
8.48472e-05
8.48471e-05
8.48482e-05
8.48505e-05
8.4854e-05
8.4859e-05
8.48658e-05
8.48725e-05
8.48714e-05
8.48425e-05
8.47411e-05
8.44761e-05
8.38695e-05
8.25861e-05
7.99902e-05
7.48494e-05
6.56745e-05
7.48497e-05
0.000219887
0.000272993
0.000298546
0.000311933
0.000318892
0.000322283
0.000323724
0.000324147
0.000324077
0.000323806
0.000323496
0.000323236
0.000323052
0.000322934
0.00032286
0.000322815
0.000322794
0.000322794
0.000322815
0.000322859
0.00032293
0.000323035
0.000323182
0.00032334
0.000323387
0.000323033
0.000321727
0.000318492
0.000311673
0.00029839
0.000272902
0.000219836
7.48502e-05
7.99947e-05
0.000273019
0.000347985
0.000385145
0.000405152
0.000415848
0.000421174
0.00042341
0.00042393
0.000423574
0.000422864
0.00042212
0.000421518
0.000421111
0.000420865
0.000420715
0.000420627
0.000420585
0.000420585
0.000420628
0.000420714
0.000420856
0.000421076
0.000421409
0.000421815
0.000422078
0.000421703
0.000419784
0.000414841
0.000404499
0.000384764
0.000347783
0.000272926
7.99951e-05
8.25966e-05
0.000298591
0.000385168
0.000429068
0.000453164
0.000466214
0.000472651
0.000475084
0.000475159
0.000473978
0.000472313
0.000470705
0.000469457
0.000468651
0.000468185
0.000467901
0.000467729
0.000467648
0.000467648
0.00046773
0.000467899
0.000468171
0.000468599
0.000469296
0.000470264
0.000471206
0.000471413
0.000469645
0.000464021
0.000451731
0.000428228
0.00038473
0.000298402
8.25944e-05
8.38875e-05
0.000311992
0.0004052
0.0004532
0.000479822
0.000494188
0.000500909
0.000502728
0.000501466
0.000498488
0.00049494
0.000491732
0.000489347
0.000487897
0.000487109
0.000486609
0.000486291
0.000486137
0.000486138
0.000486292
0.000486607
0.000487093
0.000487833
0.000489148
0.000491186
0.000493582
0.000495378
0.000494894
0.0004898
0.000476943
0.000451499
0.000404308
0.000311614
8.38775e-05
8.45033e-05
0.000318968
0.000415941
0.000466331
0.000494305
0.000509028
0.000515068
0.000515123
0.000511086
0.000504656
0.000497656
0.000491766
0.000487603
0.00048529
0.000484165
0.000483347
0.000482787
0.000482516
0.000482517
0.000482789
0.000483346
0.000484148
0.000485222
0.000487387
0.000491162
0.000496133
0.000501162
0.000503746
0.000500848
0.000488963
0.000463168
0.00041427
0.000318255
8.44766e-05
8.47789e-05
0.000322394
0.000421362
0.000472955
0.000501334
0.000515488
0.000519711
0.000516399
0.000507294
0.000494506
0.000481359
0.00047172
0.000465354
0.000462298
0.000461144
0.000459889
0.000458959
0.00045852
0.000458521
0.000458962
0.00045989
0.000461132
0.000462238
0.000465148
0.000471115
0.000479775
0.000490788
0.000499436
0.000501188
0.000492145
0.000467548
0.000418494
0.000321156
8.47231e-05
8.48908e-05
0.000323904
0.000423784
0.000475769
0.000503825
0.000516576
0.000517742
0.000508916
0.000490963
0.000466018
0.000441011
0.000429114
0.000422048
0.000419547
0.000419428
0.000417606
0.000416219
0.000415614
0.000415615
0.000416222
0.000417609
0.000419422
0.000419504
0.000421882
0.000428581
0.000439499
0.000462237
0.00048278
0.000493057
0.000489185
0.000467297
0.000419304
0.000321951
8.47926e-05
8.49288e-05
0.000324451
0.000424634
0.000476531
0.000503818
0.000514594
0.000511619
0.000494667
0.000461328
0.000409702
0.000352098
0.000356941
0.000358977
0.000361095
0.000364003
0.000361667
0.00036007
0.000359473
0.000359474
0.000360073
0.000361671
0.000364005
0.000361075
0.00035888
0.000356579
0.000350918
0.000406089
0.000452968
0.000478337
0.000482369
0.00046445
0.000418308
0.000321679
8.47801e-05
8.49371e-05
0.000324576
0.000424792
0.00047643
0.000502875
0.000511656
0.000504242
0.000477055
0.000417909
0.000296523
9.94246e-05
0.000236874
0.000283908
0.000298033
0.00030516
0.00030324
0.00030223
0.000301944
0.000301944
0.000302232
0.000303245
0.000305168
0.000298037
0.000283898
0.000236854
9.92609e-05
0.00029364
0.000409548
0.000460381
0.000474508
0.000460963
0.000416797
0.000321063
8.47419e-05
8.49365e-05
0.00032457
0.000424775
0.000476242
0.000502183
0.000509772
0.000499521
0.000464284
0.000373665
0.000102394
8.87187e-05
0.000224545
0.000251398
0.000256897
0.000259823
0.000260811
0.00026104
0.000261041
0.000260815
0.000259829
0.000256906
0.000251413
0.000224568
8.87202e-05
0.000101848
0.000365658
0.000447456
0.000469541
0.000458806
0.000415824
0.000320627
8.47156e-05
8.49356e-05
0.00032457
0.000424833
0.000476354
0.000502369
0.000510203
0.000501068
0.000471119
0.000408121
0.000282883
9.54538e-05
0.000200596
0.000232156
0.000238283
0.000233555
0.000241958
0.000244885
0.000245459
0.000245459
0.000244886
0.000241961
0.000233551
0.000238275
0.000232135
0.000200531
9.52742e-05
0.000279968
0.000399685
0.000454317
0.000471124
0.000459224
0.000415943
0.00032062
8.47185e-05
8.49368e-05
0.000324613
0.000425014
0.000476778
0.000503273
0.000512166
0.00050562
0.000482652
0.00044003
0.000375268
0.000301795
0.000280453
0.000260099
0.000252069
0.000247699
0.000249581
0.000250525
0.000250736
0.000250735
0.000250523
0.000249577
0.000247682
0.000252034
0.000260001
0.000280126
0.00030066
0.000371645
0.000431538
0.000466005
0.000475849
0.000461312
0.000416898
0.000320989
8.47452e-05
8.49391e-05
0.000324685
0.00042526
0.000477341
0.000504441
0.000514512
0.000510327
0.000492223
0.000459601
0.000413355
0.000360515
0.000315553
0.000277035
0.000261062
0.000255331
0.000254181
0.000253994
0.000253957
0.000253957
0.000253993
0.000254176
0.000255316
0.000261019
0.000276908
0.000315128
0.000359134
0.00040957
0.000451135
0.000475713
0.000480719
0.000463793
0.000418136
0.000321506
8.47793e-05
8.4941e-05
0.000324759
0.000425498
0.000477874
0.000505507
0.000516524
0.000513984
0.000498659
0.000470448
0.00043004
0.000381126
0.00033067
0.000285496
0.000265652
0.000258501
0.000256333
0.000255754
0.000255623
0.000255623
0.000255753
0.000256329
0.000258488
0.000265609
0.000285362
0.000330219
0.000379678
0.000426205
0.000461999
0.000482225
0.000484476
0.000465892
0.000419242
0.000321985
8.48084e-05
8.4942e-05
0.000324818
0.000425682
0.00047828
0.000506299
0.000517953
0.000516405
0.000502522
0.000476184
0.000437682
0.000389512
0.000337261
0.000289512
0.000267932
0.000259979
0.000257431
0.00025672
0.000256561
0.000256561
0.000256721
0.000257429
0.000259968
0.000267891
0.000289379
0.000336811
0.000388039
0.000433821
0.000467733
0.000486114
0.000486937
0.000467356
0.000420041
0.000322335
8.48275e-05
8.49419e-05
0.000324855
0.0004258
0.000478539
0.000506792
0.000518814
0.000517796
0.000504601
0.000479027
0.00044114
0.000393038
0.000340035
0.000291284
0.000268971
0.000260651
0.000257951
0.000257193
0.000257025
0.000257025
0.000257194
0.00025795
0.00026064
0.000268929
0.00029115
0.000339595
0.000391551
0.000437262
0.000470566
0.000488193
0.000488336
0.000468222
0.000420523
0.000322547
8.48376e-05
8.49412e-05
0.000324872
0.000425856
0.000478662
0.000507024
0.00051921
0.000518418
0.000505494
0.000480189
0.000442478
0.000394341
0.00034105
0.000291941
0.000269358
0.0002609
0.000258145
0.00025737
0.0002572
0.000257201
0.000257372
0.000258144
0.000260889
0.000269317
0.000291807
0.000340605
0.000392848
0.000438591
0.00047172
0.000489081
0.000488955
0.000468615
0.000420744
0.000322643
8.48411e-05
8.49403e-05
0.000324872
0.000425858
0.000478666
0.000507029
0.000519218
0.000518429
0.000505508
0.000480206
0.000442497
0.00039436
0.000341069
0.000291965
0.000269373
0.000260907
0.000258149
0.000257374
0.000257205
0.000257206
0.000257376
0.000258148
0.000260896
0.000269332
0.000291831
0.000340623
0.000392867
0.00043861
0.000471737
0.000489095
0.000488965
0.000468622
0.000420748
0.000322644
8.484e-05
8.49397e-05
0.000324855
0.000425805
0.000478549
0.000506808
0.000518837
0.000517827
0.000504642
0.000479078
0.000441197
0.000393098
0.000340096
0.000291361
0.000269021
0.00026068
0.000257972
0.000257213
0.000257046
0.000257048
0.000257215
0.000257972
0.00026067
0.000268981
0.00029123
0.000339655
0.000391612
0.000437321
0.000470617
0.000488234
0.000488366
0.000468243
0.000420535
0.00032255
8.48348e-05
8.4939e-05
0.000324816
0.000425688
0.000478294
0.00050632
0.000517985
0.000516451
0.000502586
0.000476268
0.000437785
0.000389627
0.000337379
0.000289662
0.000268037
0.000260051
0.00025749
0.000256778
0.000256622
0.000256623
0.000256782
0.000257492
0.000260045
0.000268003
0.000289538
0.000336949
0.000388158
0.000433927
0.000467817
0.000486176
0.000486981
0.000467386
0.000420057
0.000322338
8.48239e-05
8.49376e-05
0.000324753
0.000425498
0.00047788
0.00050552
0.000516549
0.000514029
0.000498733
0.000470563
0.000430203
0.000381331
0.000330929
0.000285753
0.000265837
0.000258643
0.000256455
0.000255876
0.00025575
0.000255752
0.000255882
0.000256462
0.000258643
0.000265811
0.000285642
0.000330506
0.000379895
0.000426372
0.000462108
0.000482288
0.000484511
0.000465913
0.000419253
0.000321983
8.48042e-05
8.49349e-05
0.000324665
0.000425236
0.000477311
0.000504408
0.000514484
0.000510321
0.000492263
0.000459725
0.000413596
0.000360872
0.000315989
0.0002774
0.000261305
0.000255525
0.000254336
0.000254145
0.000254114
0.000254118
0.000254155
0.000254349
0.000255532
0.000261288
0.000277309
0.000315616
0.000359521
0.000409818
0.000451228
0.00047571
0.000480682
0.000463756
0.000418109
0.000321484
8.47743e-05
8.49306e-05
0.000324553
0.000424914
0.000476635
0.000503094
0.000511967
0.00050543
0.000482527
0.000440073
0.000375607
0.000302394
0.000281081
0.000260337
0.000252036
0.000247581
0.000249359
0.000250287
0.000250508
0.000250512
0.000250299
0.000249371
0.000247573
0.000251991
0.000260242
0.000280832
0.000301326
0.000372009
0.000431468
0.000465737
0.000475565
0.000461092
0.000416755
0.000320907
8.47373e-05
8.49237e-05
0.000324402
0.000424529
0.000475918
0.000501813
0.000509552
0.000500365
0.000470466
0.000407763
0.000283332
9.55754e-05
0.000200793
0.000230837
0.000236208
0.000231095
0.000239318
0.00024224
0.000242825
0.000242823
0.000242228
0.000239269
0.000230934
0.000235912
0.000230476
0.000200801
9.53947e-05
0.000280482
0.000398953
0.000453247
0.000470176
0.000458531
0.000415502
0.000320386
8.47028e-05
8.49086e-05
0.000324131
0.000423979
0.000475113
0.000500751
0.000508067
0.000497576
0.000462196
0.000371843
0.00010208
8.74581e-05
0.00021709
0.000241762
0.0002459
0.000248604
0.000249639
0.000249906
0.000249887
0.000249552
0.00024834
0.000245232
0.000240436
0.000215163
8.69227e-05
0.000101256
0.000362548
0.000444275
0.000467036
0.000457045
0.000414704
0.000320039
8.46798e-05
8.48676e-05
0.0003235
0.000422891
0.000473802
0.000499595
0.000507754
0.000499669
0.000471682
0.000411706
0.000290319
9.7407e-05
0.000219486
0.000259976
0.0002681
0.000270984
0.000268991
0.000268328
0.000268211
0.000268159
0.000268093
0.000268271
0.000269091
0.00026387
0.000252386
0.000211648
9.58946e-05
0.000282822
0.000399359
0.000452532
0.000468862
0.00045707
0.000414281
0.000319715
8.46585e-05
8.47577e-05
0.000321987
0.00042044
0.000470908
0.000496957
0.000506552
0.000502211
0.00048332
0.000446927
0.00039041
0.0003253
0.000316235
0.000304074
0.000290364
0.00028406
0.000280914
0.000279851
0.000279562
0.000279475
0.000279447
0.000279611
0.000280324
0.000280947
0.000284983
0.000295428
0.000307762
0.000374428
0.000430618
0.000462703
0.000471387
0.000456756
0.000413153
0.000318806
8.45886e-05
8.44872e-05
0.000318619
0.000415152
0.000464562
0.00049051
0.000501335
0.000500316
0.000488328
0.000465136
0.000431321
0.000392042
0.000359194
0.00032532
0.000292802
0.00027934
0.000274584
0.000273083
0.000272654
0.000272545
0.000272569
0.000272867
0.000274106
0.00027824
0.00029145
0.000325219
0.00036373
0.000408874
0.000445685
0.000466857
0.000470173
0.000453332
0.000409434
0.000316158
8.43645e-05
8.38774e-05
0.000311726
0.00040462
0.000451882
0.000476949
0.000488304
0.0004896
0.000482276
0.000466668
0.000442997
0.000412547
0.000377924
0.000339604
0.000302799
0.000287032
0.000281377
0.000279536
0.000278988
0.000278862
0.000278944
0.000279424
0.000281159
0.000286694
0.000302661
0.000340644
0.000381346
0.000418775
0.000446722
0.000461566
0.000461412
0.000443475
0.000400443
0.000309967
8.37975e-05
8.2592e-05
0.000298407
0.000384798
0.000428217
0.000451251
0.000462193
0.000464761
0.000460572
0.000450082
0.000433236
0.000410182
0.000381951
0.000350868
0.000322866
0.000308847
0.000303169
0.000301147
0.000300498
0.000300346
0.000300483
0.000301107
0.000303102
0.000308791
0.000323032
0.00035163
0.000383613
0.00041214
0.000432651
0.000442574
0.000440137
0.000422387
0.000382002
0.000297259
8.25465e-05
7.99947e-05
0.000272902
0.000347788
0.000384686
0.000404068
0.000413467
0.000416327
0.000414215
0.000407613
0.000396438
0.000380628
0.000360869
0.000339356
0.000320521
0.000309889
0.00030511
0.000303243
0.000302597
0.000302446
0.000302601
0.000303251
0.000305123
0.000309936
0.000320691
0.000339786
0.000361561
0.00038097
0.000394624
0.000400508
0.000396956
0.000381102
0.000346146
0.000272246
7.99741e-05
7.48526e-05
0.000219827
0.000272921
0.000298376
0.000311488
0.000317833
0.000319995
0.000319176
0.000315766
0.000309712
0.000300936
0.000289828
0.000277767
0.000267245
0.000260841
0.000257738
0.000256451
0.000255985
0.000255876
0.000255999
0.000256479
0.000257782
0.000260912
0.000267382
0.000278011
0.000290136
0.00030091
0.000308321
0.000311076
0.000307932
0.000296677
0.000272189
0.000219542
7.48481e-05
6.56769e-05
7.48525e-05
7.99992e-05
8.26003e-05
8.38823e-05
8.44706e-05
8.4681e-05
8.4659e-05
8.44504e-05
8.40466e-05
8.34271e-05
8.26059e-05
8.16836e-05
8.08617e-05
8.03449e-05
8.00907e-05
7.99847e-05
7.9946e-05
7.99368e-05
7.99469e-05
7.99863e-05
8.00927e-05
8.03478e-05
8.08672e-05
8.1695e-05
8.26214e-05
8.34206e-05
8.39397e-05
8.40762e-05
8.36967e-05
8.25248e-05
7.99741e-05
7.48472e-05
6.56813e-05
6.89923e-05
8.16815e-05
8.86699e-05
9.22687e-05
9.41168e-05
9.50343e-05
9.54604e-05
9.56358e-05
9.56889e-05
9.5686e-05
9.56612e-05
9.56321e-05
9.56075e-05
9.55902e-05
9.55792e-05
9.55723e-05
9.55681e-05
9.5566e-05
9.55659e-05
9.55679e-05
9.5572e-05
9.55784e-05
9.5588e-05
9.56015e-05
9.56154e-05
9.5616e-05
9.55701e-05
9.54083e-05
9.49978e-05
9.40941e-05
9.22563e-05
8.8664e-05
8.16795e-05
6.89935e-05
8.16816e-05
0.000289685
0.000372082
0.000412644
0.000434307
0.000445824
0.000451574
0.000454065
0.000454786
0.000454612
0.000454059
0.000453429
0.000452892
0.000452506
0.000452256
0.000452098
0.000452003
0.000451957
0.000451957
0.000452001
0.000452094
0.000452242
0.000452464
0.000452773
0.000453105
0.000453236
0.000452652
0.000450423
0.00044498
0.000433742
0.000412291
0.000371872
0.000289571
8.16794e-05
8.86725e-05
0.000372127
0.000496021
0.000559253
0.000593843
0.000612618
0.000622111
0.00062613
0.000627019
0.000626256
0.000624793
0.00062325
0.000621984
0.000621116
0.000620582
0.000620254
0.00062006
0.000619969
0.000619969
0.000620059
0.000620248
0.000620556
0.000621033
0.000621744
0.000622612
0.000623218
0.000622633
0.000619249
0.000610515
0.000592446
0.000558407
0.000495553
0.000371909
8.86676e-05
9.22743e-05
0.000412721
0.000559297
0.000635997
0.000678706
0.000702103
0.000713756
0.000718154
0.000718172
0.000715774
0.000712391
0.000709072
0.000706458
0.000704752
0.000703754
0.000703138
0.000702766
0.00070259
0.00070259
0.000702765
0.00070313
0.000703717
0.00070463
0.000706108
0.000708154
0.000710165
0.00071077
0.000707704
0.000697648
0.000675741
0.000634208
0.00055833
0.000412299
9.22621e-05
9.41253e-05
0.000434413
0.000593944
0.000678784
0.000726482
0.000752456