/*--------------------------------*- C++ -*----------------------------------*\
| =========                 |                                                 |
| \\      /  F ield         | OpenFOAM: The Open Source CFD Toolbox           |
|  \\    /   O peration     | Version:  2112                                  |
|   \\  /    A nd           | Website:  www.openfoam.com                      |
|    \\/     M anipulation  |                                                 |
\*---------------------------------------------------------------------------*/
FoamFile
{
    version     2.0;
    format      ascii;
    arch        "LSB;label=32;scalar=64";
    class       volScalarField;
    location    "3.7";
    object      p;
}
// * * * * * * * * * * * * * * * * * * * * * * * * * * * * * * * * * * * * * //

dimensions      [0 2 -2 0 0 0 0];

internalField   nonuniform List<scalar> 
64906
(
-5.2217e-06
-5.20411e-06
-5.19054e-06
-5.19084e-06
-5.21204e-06
-5.26526e-06
-5.33638e-06
-5.43145e-06
-5.54995e-06
-5.68987e-06
-5.8469e-06
-6.0265e-06
-6.17795e-06
-6.31647e-06
-6.43669e-06
-6.53497e-06
-6.60812e-06
-6.65464e-06
-6.67385e-06
-6.66591e-06
-6.63186e-06
-6.57349e-06
-6.49417e-06
-6.39685e-06
-6.2817e-06
-6.15369e-06
-6.04524e-06
-5.95444e-06
-5.88467e-06
-5.82958e-06
-5.81111e-06
-5.81373e-06
-5.83172e-06
-5.85082e-06
-5.16646e-06
-5.0979e-06
-5.04397e-06
-5.00522e-06
-4.99172e-06
-5.00398e-06
-5.03781e-06
-5.09174e-06
-5.16239e-06
-5.24598e-06
-5.33389e-06
-5.41172e-06
-5.50461e-06
-5.59088e-06
-5.66456e-06
-5.72548e-06
-5.77212e-06
-5.80442e-06
-5.82216e-06
-5.82548e-06
-5.8149e-06
-5.79072e-06
-5.75482e-06
-5.70821e-06
-5.66266e-06
-5.6232e-06
-5.58005e-06
-5.54423e-06
-5.52475e-06
-5.52551e-06
-5.55461e-06
-5.61298e-06
-5.68854e-06
-5.77466e-06
-5.13921e-06
-5.03391e-06
-4.93294e-06
-4.84805e-06
-4.79608e-06
-4.7759e-06
-4.78438e-06
-4.81886e-06
-4.87528e-06
-4.95081e-06
-5.03478e-06
-5.12283e-06
-5.20437e-06
-5.27754e-06
-5.33589e-06
-5.38295e-06
-5.4186e-06
-5.44453e-06
-5.4611e-06
-5.46843e-06
-5.46649e-06
-5.45384e-06
-5.43108e-06
-5.39524e-06
-5.354e-06
-5.30688e-06
-5.26841e-06
-5.24396e-06
-5.24677e-06
-5.28239e-06
-5.35783e-06
-5.47598e-06
-5.61262e-06
-5.74908e-06
-5.14181e-06
-5.00243e-06
-4.85778e-06
-4.72936e-06
-4.64382e-06
-4.60126e-06
-4.60012e-06
-4.63974e-06
-4.71758e-06
-4.83395e-06
-4.9725e-06
-5.12765e-06
-5.25757e-06
-5.36552e-06
-5.44259e-06
-5.50022e-06
-5.54027e-06
-5.56745e-06
-5.58288e-06
-5.58665e-06
-5.57797e-06
-5.55234e-06
-5.50852e-06
-5.43552e-06
-5.34356e-06
-5.2297e-06
-5.13944e-06
-5.08015e-06
-5.07276e-06
-5.12106e-06
-5.23022e-06
-5.40144e-06
-5.5935e-06
-5.7757e-06
-5.18846e-06
-5.02011e-06
-4.8405e-06
-4.67946e-06
-4.57366e-06
-4.52663e-06
-4.5407e-06
-4.62081e-06
-4.7696e-06
-4.99589e-06
-5.27479e-06
-5.59932e-06
-5.85869e-06
-6.06413e-06
-6.20286e-06
-6.30222e-06
-6.36645e-06
-6.40491e-06
-6.41951e-06
-6.41032e-06
-6.37568e-06
-6.30639e-06
-6.19897e-06
-6.02662e-06
-5.80428e-06
-5.52147e-06
-5.29528e-06
-5.13365e-06
-5.06798e-06
-5.09466e-06
-5.21375e-06
-5.41907e-06
-5.65401e-06
-5.87496e-06
-5.28125e-06
-5.08548e-06
-4.8768e-06
-4.69328e-06
-4.58058e-06
-4.54731e-06
-4.60144e-06
-4.75693e-06
-5.02645e-06
-5.43683e-06
-5.95828e-06
-6.6031e-06
-7.08688e-06
-7.45675e-06
-7.69876e-06
-7.87066e-06
-7.97858e-06
-8.03839e-06
-8.05255e-06
-8.02105e-06
-7.94158e-06
-7.79821e-06
-7.58582e-06
-7.24718e-06
-6.79982e-06
-6.19665e-06
-5.73438e-06
-5.39692e-06
-5.2237e-06
-5.19446e-06
-5.30007e-06
-5.52268e-06
-5.79195e-06
-6.05041e-06
-5.41833e-06
-5.19329e-06
-4.95853e-06
-4.75974e-06
-4.65164e-06
-4.64794e-06
-4.76276e-06
-5.02099e-06
-5.45024e-06
-6.11481e-06
-6.97071e-06
-8.18649e-06
-8.98832e-06
-9.57965e-06
-9.95391e-06
-1.0221e-05
-1.03865e-05
-1.04751e-05
-1.04893e-05
-1.04287e-05
-1.02912e-05
-1.00514e-05
-9.70506e-06
-9.1425e-06
-8.37668e-06
-7.19972e-06
-6.41422e-06
-5.83043e-06
-5.51015e-06
-5.39774e-06
-5.47116e-06
-5.69962e-06
-5.99988e-06
-6.3001e-06
-5.59703e-06
-5.33656e-06
-5.07659e-06
-4.86822e-06
-4.77591e-06
-4.81716e-06
-5.01036e-06
-5.38642e-06
-5.99037e-06
-6.92279e-06
-8.13245e-06
-1.03996e-05
-1.15518e-05
-1.24115e-05
-1.29428e-05
-1.33298e-05
-1.35689e-05
-1.3695e-05
-1.37095e-05
-1.3612e-05
-1.3401e-05
-1.30405e-05
-1.25352e-05
-1.17005e-05
-1.05838e-05
-8.34435e-06
-7.22946e-06
-6.38219e-06
-5.8977e-06
-5.68627e-06
-5.71195e-06
-5.93656e-06
-6.26915e-06
-6.61917e-06
-5.82069e-06
-5.50606e-06
-5.22105e-06
-5.00577e-06
-4.9383e-06
-5.03708e-06
-5.31967e-06
-5.81375e-06
-6.52758e-06
-7.63679e-06
-9.2036e-06
-1.34011e-05
-1.46106e-05
-1.57195e-05
-1.63987e-05
-1.6894e-05
-1.72e-05
-1.73609e-05
-1.73759e-05
-1.72445e-05
-1.69672e-05
-1.6498e-05
-1.58435e-05
-1.4752e-05
-1.35786e-05
-9.39515e-06
-7.9874e-06
-6.93826e-06
-6.34601e-06
-6.03249e-06
-6.00154e-06
-6.22031e-06
-6.57874e-06
-6.9991e-06
-6.06191e-06
-5.69299e-06
-5.38327e-06
-5.16915e-06
-5.14462e-06
-5.3299e-06
-5.74383e-06
-6.38986e-06
-7.30529e-06
-9.60121e-06
-7.6876e-06
-1.64675e-05
-1.7674e-05
-1.92603e-05
-2.01562e-05
-2.08218e-05
-2.12328e-05
-2.14448e-05
-2.14603e-05
-2.12789e-05
-2.08977e-05
-2.02591e-05
-1.93881e-05
-1.78139e-05
-1.66702e-05
-7.78032e-06
-9.92113e-06
-7.68388e-06
-6.92634e-06
-6.47904e-06
-6.35212e-06
-6.54292e-06
-6.92475e-06
-7.44606e-06
-6.31538e-06
-5.88576e-06
-5.54859e-06
-5.33832e-06
-5.3669e-06
-5.65651e-06
-6.18787e-06
-6.80848e-06
-7.41249e-06
-5.30884e-06
-2.42407e-05
-2.1721e-05
-2.26777e-05
-2.34924e-05
-2.4202e-05
-2.467e-05
-2.49066e-05
-2.49222e-05
-2.47165e-05
-2.42786e-05
-2.35963e-05
-2.28032e-05
-2.18514e-05
-2.42946e-05
-5.93931e-06
-7.92226e-06
-7.38188e-06
-6.94132e-06
-6.72362e-06
-6.87108e-06
-7.27511e-06
-7.908e-06
-6.57342e-06
-6.07831e-06
-5.7159e-06
-5.52023e-06
-5.63602e-06
-6.13275e-06
-7.11564e-06
-8.72878e-06
-1.13694e-05
-1.4701e-05
-2.19816e-05
-2.07891e-05
-2.34266e-05
-2.53066e-05
-2.67122e-05
-2.77622e-05
-2.84082e-05
-2.87153e-05
-2.87309e-05
-2.8455e-05
-2.78412e-05
-2.68246e-05
-2.54554e-05
-2.36197e-05
-2.10269e-05
-2.23346e-05
-1.50144e-05
-1.17428e-05
-9.22064e-06
-7.83131e-06
-7.21377e-06
-7.22845e-06
-7.62091e-06
-8.39578e-06
-6.82627e-06
-6.25602e-06
-5.86509e-06
-5.67098e-06
-5.8392e-06
-6.45291e-06
-7.62387e-06
-9.44405e-06
-1.20143e-05
-1.49936e-05
-1.99027e-05
-2.25584e-05
-2.49367e-05
-2.6996e-05
-2.86291e-05
-2.9788e-05
-3.05031e-05
-3.08431e-05
-3.08581e-05
-3.05482e-05
-2.98642e-05
-2.87378e-05
-2.71397e-05
-2.51129e-05
-2.27579e-05
-2.01692e-05
-1.53028e-05
-1.2356e-05
-9.90062e-06
-8.32316e-06
-7.55959e-06
-7.5269e-06
-7.95189e-06
-8.83912e-06
-7.07744e-06
-6.40595e-06
-5.99728e-06
-5.79945e-06
-5.99991e-06
-6.68903e-06
-7.97952e-06
-9.95784e-06
-1.27092e-05
-1.60565e-05
-2.01231e-05
-2.32248e-05
-2.60086e-05
-2.82628e-05
-3.00153e-05
-3.12063e-05
-3.19312e-05
-3.22709e-05
-3.22849e-05
-3.19737e-05
-3.12784e-05
-3.01187e-05
-2.84007e-05
-2.61794e-05
-2.34327e-05
-2.03614e-05
-1.63122e-05
-1.30086e-05
-1.03856e-05
-8.67273e-06
-7.83035e-06
-7.78567e-06
-8.25326e-06
-9.23929e-06
-7.2789e-06
-6.55129e-06
-6.11082e-06
-5.89695e-06
-6.10406e-06
-6.82199e-06
-8.15694e-06
-1.01882e-05
-1.29721e-05
-1.63547e-05
-2.01694e-05
-2.35801e-05
-2.66296e-05
-2.89707e-05
-3.07575e-05
-3.19365e-05
-3.26444e-05
-3.29714e-05
-3.29846e-05
-3.26842e-05
-3.2004e-05
-3.08544e-05
-2.91004e-05
-2.679e-05
-2.37766e-05
-2.03837e-05
-1.65855e-05
-1.32495e-05
-1.06035e-05
-8.85849e-06
-8.00729e-06
-7.98683e-06
-8.50619e-06
-9.57883e-06
-7.44259e-06
-6.67379e-06
-6.20539e-06
-5.97304e-06
-6.1762e-06
-6.90313e-06
-8.25447e-06
-1.03061e-05
-1.3101e-05
-1.65052e-05
-2.02863e-05
-2.38479e-05
-2.70342e-05
-2.9428e-05
-3.12266e-05
-3.23855e-05
-3.30711e-05
-3.33834e-05
-3.3396e-05
-3.31092e-05
-3.24502e-05
-3.13192e-05
-2.95519e-05
-2.71874e-05
-2.40427e-05
-2.0487e-05
-1.67217e-05
-1.33671e-05
-1.07194e-05
-8.97185e-06
-8.13358e-06
-8.14574e-06
-8.71184e-06
-9.85298e-06
-7.56823e-06
-6.7683e-06
-6.27861e-06
-6.02949e-06
-6.22439e-06
-6.95051e-06
-8.30533e-06
-1.03648e-05
-1.3168e-05
-1.65979e-05
-2.04042e-05
-2.40559e-05
-2.73194e-05
-2.97443e-05
-3.15478e-05
-3.26934e-05
-3.33644e-05
-3.36673e-05
-3.368e-05
-3.34027e-05
-3.2758e-05
-3.16399e-05
-2.98663e-05
-2.74665e-05
-2.423e-05
-2.05957e-05
-1.68078e-05
-1.34306e-05
-1.07822e-05
-9.04067e-06
-8.22081e-06
-8.26369e-06
-8.86706e-06
-1.00585e-05
-7.6548e-06
-6.83429e-06
-6.33134e-06
-6.07114e-06
-6.26022e-06
-6.98569e-06
-8.34444e-06
-1.04135e-05
-1.32314e-05
-1.66898e-05
-2.05312e-05
-2.424e-05
-2.75552e-05
-3.00065e-05
-3.182e-05
-3.29643e-05
-3.36314e-05
-3.39315e-05
-3.39449e-05
-3.36718e-05
-3.30322e-05
-3.19162e-05
-3.01333e-05
-2.77079e-05
-2.44211e-05
-2.07257e-05
-1.69006e-05
-1.34957e-05
-1.08371e-05
-9.09484e-06
-8.28501e-06
-8.34711e-06
-8.97376e-06
-1.01966e-05
-7.70176e-06
-6.8717e-06
-6.36379e-06
-6.09952e-06
-6.28736e-06
-7.01496e-06
-8.38158e-06
-1.04643e-05
-1.33032e-05
-1.67909e-05
-2.06666e-05
-2.44113e-05
-2.77565e-05
-3.02295e-05
-3.20574e-05
-3.32115e-05
-3.38847e-05
-3.41885e-05
-3.42033e-05
-3.39294e-05
-3.32861e-05
-3.21623e-05
-3.03665e-05
-2.79213e-05
-2.46083e-05
-2.08701e-05
-1.70077e-05
-1.35727e-05
-1.08945e-05
-9.14196e-06
-8.33043e-06
-8.39765e-06
-9.03282e-06
-1.02687e-05
-7.70924e-06
-6.88106e-06
-6.3765e-06
-6.11506e-06
-6.30651e-06
-7.04091e-06
-8.41685e-06
-1.05162e-05
-1.33811e-05
-1.68987e-05
-2.08099e-05
-2.45731e-05
-2.79254e-05
-3.04131e-05
-3.22579e-05
-3.34314e-05
-3.41198e-05
-3.44332e-05
-3.44501e-05
-3.41708e-05
-3.35161e-05
-3.23759e-05
-3.05649e-05
-2.81044e-05
-2.47789e-05
-2.10238e-05
-1.71251e-05
-1.36585e-05
-1.09527e-05
-9.18156e-06
-8.35731e-06
-8.4161e-06
-9.04536e-06
-1.02761e-05
-7.67793e-06
-6.86429e-06
-6.37066e-06
-6.11708e-06
-6.31339e-06
-7.05173e-06
-8.43687e-06
-1.05524e-05
-1.34477e-05
-1.69987e-05
-2.09621e-05
-2.47294e-05
-2.80572e-05
-3.0549e-05
-3.24111e-05
-3.36128e-05
-3.43251e-05
-3.46538e-05
-3.46738e-05
-3.43851e-05
-3.3712e-05
-3.25485e-05
-3.07228e-05
-2.82572e-05
-2.49464e-05
-2.11919e-05
-1.72419e-05
-1.37401e-05
-1.10001e-05
-9.20625e-06
-8.36283e-06
-8.40295e-06
-9.01338e-06
-1.02212e-05
-7.60548e-06
-6.82681e-06
-6.34738e-06
-6.10211e-06
-6.29809e-06
-7.02918e-06
-8.40661e-06
-1.05197e-05
-1.34354e-05
-1.70215e-05
-2.11027e-05
-2.48461e-05
-2.80988e-05
-3.05681e-05
-3.2433e-05
-3.36638e-05
-3.44044e-05
-3.47527e-05
-3.47769e-05
-3.44769e-05
-3.37834e-05
-3.25986e-05
-3.07768e-05
-2.83403e-05
-2.51096e-05
-2.13639e-05
-1.72939e-05
-1.37548e-05
-1.09895e-05
-9.18709e-06
-8.33309e-06
-8.35424e-06
-8.93754e-06
-1.01061e-05
-7.49121e-06
-6.77892e-06
-6.31092e-06
-6.07115e-06
-6.25709e-06
-6.96164e-06
-8.30153e-06
-1.03742e-05
-1.32881e-05
-1.69047e-05
-2.12965e-05
-2.49382e-05
-2.80066e-05
-3.04181e-05
-3.22622e-05
-3.35143e-05
-3.42792e-05
-3.46465e-05
-3.4677e-05
-3.43709e-05
-3.36659e-05
-3.24734e-05
-3.06838e-05
-2.83156e-05
-2.52647e-05
-2.16051e-05
-1.72352e-05
-1.366e-05
-1.08875e-05
-9.10903e-06
-8.26549e-06
-8.27443e-06
-8.82512e-06
-9.93914e-06
-7.35226e-06
-6.717e-06
-6.25859e-06
-6.01596e-06
-6.16938e-06
-6.8036e-06
-8.02989e-06
-9.93846e-06
-1.26219e-05
-1.58155e-05
-2.13091e-05
-2.52357e-05
-2.76859e-05
-2.98791e-05
-3.1612e-05
-3.28432e-05
-3.36108e-05
-3.399e-05
-3.40296e-05
-3.37308e-05
-3.30427e-05
-3.18931e-05
-3.02341e-05
-2.81082e-05
-2.56947e-05
-2.16704e-05
-1.62041e-05
-1.30642e-05
-1.0525e-05
-8.89113e-06
-8.12458e-06
-8.1522e-06
-8.67657e-06
-9.72862e-06
-7.219e-06
-6.63482e-06
-6.19803e-06
-5.95242e-06
-6.06236e-06
-6.6008e-06
-7.68166e-06
-9.46381e-06
-1.23869e-05
-1.6299e-05
-2.27906e-05
-2.36051e-05
-2.67987e-05
-2.91393e-05
-3.07544e-05
-3.19485e-05
-3.26961e-05
-3.30724e-05
-3.31274e-05
-3.2864e-05
-3.22299e-05
-3.11544e-05
-2.96379e-05
-2.73835e-05
-2.42061e-05
-2.31223e-05
-1.69436e-05
-1.30291e-05
-1.01966e-05
-8.63569e-06
-7.95991e-06
-8.01959e-06
-8.5175e-06
-9.49562e-06
-7.08538e-06
-6.54788e-06
-6.12947e-06
-5.87151e-06
-5.90763e-06
-6.25468e-06
-6.85996e-06
-7.46771e-06
-7.9553e-06
-4.6916e-06
-3.06381e-05
-2.69307e-05
-2.79735e-05
-2.89571e-05
-2.98439e-05
-3.0458e-05
-3.07975e-05
-3.08707e-05
-3.06836e-05
-3.02274e-05
-2.95161e-05
-2.86778e-05
-2.77959e-05
-3.14591e-05
-5.30113e-06
-8.71282e-06
-8.32297e-06
-7.92189e-06
-7.66911e-06
-7.85125e-06
-8.37232e-06
-9.21841e-06
-6.96472e-06
-6.47141e-06
-6.07896e-06
-5.83025e-06
-5.85446e-06
-6.19685e-06
-6.93125e-06
-8.16302e-06
-1.02048e-05
-1.35375e-05
-1.44924e-05
-2.15556e-05
-2.38408e-05
-2.60162e-05
-2.74575e-05
-2.85667e-05
-2.92917e-05
-2.96972e-05
-2.97963e-05
-2.96005e-05
-2.90982e-05
-2.82422e-05
-2.70055e-05
-2.5086e-05
-2.28577e-05
-1.64066e-05
-1.51319e-05
-1.15511e-05
-9.34038e-06
-8.14256e-06
-7.65806e-06
-7.76869e-06
-8.23477e-06
-8.97566e-06
-6.86379e-06
-6.41086e-06
-6.04548e-06
-5.80937e-06
-5.82007e-06
-6.12074e-06
-6.76559e-06
-7.80713e-06
-9.27724e-06
-1.12004e-05
-1.50273e-05
-1.9812e-05
-2.19983e-05
-2.40372e-05
-2.5534e-05
-2.66943e-05
-2.74505e-05
-2.78793e-05
-2.79967e-05
-2.78206e-05
-2.73384e-05
-2.65025e-05
-2.52579e-05
-2.35347e-05
-2.14141e-05
-1.68266e-05
-1.26178e-05
-1.06139e-05
-9.05591e-06
-8.04042e-06
-7.59626e-06
-7.68737e-06
-8.11377e-06
-8.79617e-06
-6.78295e-06
-6.3795e-06
-6.0507e-06
-5.84093e-06
-5.85614e-06
-6.13832e-06
-6.74588e-06
-7.75538e-06
-9.28335e-06
-1.14065e-05
-1.41808e-05
-1.75225e-05
-1.99643e-05
-2.20835e-05
-2.365e-05
-2.48634e-05
-2.56454e-05
-2.60854e-05
-2.62097e-05
-2.60409e-05
-2.55598e-05
-2.47186e-05
-2.34508e-05
-2.17077e-05
-1.93915e-05
-1.61402e-05
-1.31828e-05
-1.0824e-05
-9.11341e-06
-8.06703e-06
-7.60755e-06
-7.66345e-06
-8.04227e-06
-8.67425e-06
-6.75262e-06
-6.38928e-06
-6.10575e-06
-5.93409e-06
-5.96366e-06
-6.22916e-06
-6.77965e-06
-7.68045e-06
-9.00954e-06
-1.08298e-05
-1.31196e-05
-1.57151e-05
-1.79844e-05
-2.00044e-05
-2.15274e-05
-2.26931e-05
-2.34408e-05
-2.38605e-05
-2.3984e-05
-2.38323e-05
-2.33879e-05
-2.26053e-05
-2.14078e-05
-1.97776e-05
-1.76304e-05
-1.50728e-05
-1.26038e-05
-1.05609e-05
-9.05534e-06
-8.1038e-06
-7.67101e-06
-7.70048e-06
-8.02912e-06
-8.60735e-06
-6.76361e-06
-6.44825e-06
-6.22726e-06
-6.11368e-06
-6.17792e-06
-6.44525e-06
-6.95063e-06
-7.73988e-06
-8.86365e-06
-1.03541e-05
-1.21783e-05
-1.422e-05
-1.61544e-05
-1.79348e-05
-1.93131e-05
-2.03626e-05
-2.10428e-05
-2.14267e-05
-2.15512e-05
-2.14131e-05
-2.10173e-05
-2.03213e-05
-1.926e-05
-1.78342e-05
-1.60117e-05
-1.39853e-05
-1.20178e-05
-1.03468e-05
-9.08025e-06
-8.25232e-06
-7.84973e-06
-7.83874e-06
-8.09616e-06
-8.60142e-06
-6.81269e-06
-6.55534e-06
-6.42211e-06
-6.39024e-06
-6.51368e-06
-6.80997e-06
-7.30294e-06
-8.02166e-06
-8.99343e-06
-1.02286e-05
-1.16919e-05
-1.33084e-05
-1.48952e-05
-1.63716e-05
-1.75448e-05
-1.84425e-05
-1.90369e-05
-1.93769e-05
-1.94845e-05
-1.93724e-05
-1.903e-05
-1.84326e-05
-1.75373e-05
-1.63547e-05
-1.48815e-05
-1.32882e-05
-1.17368e-05
-1.03844e-05
-9.32121e-06
-8.58632e-06
-8.18461e-06
-8.10103e-06
-8.25075e-06
-8.6568e-06
-6.87219e-06
-6.7098e-06
-6.65758e-06
-6.7126e-06
-6.90924e-06
-7.26178e-06
-7.7867e-06
-8.50008e-06
-9.41083e-06
-1.05143e-05
-1.17858e-05
-1.31654e-05
-1.45259e-05
-1.57902e-05
-1.68236e-05
-1.76247e-05
-1.81714e-05
-1.84894e-05
-1.85912e-05
-1.84859e-05
-1.8166e-05
-1.76187e-05
-1.68229e-05
-1.5795e-05
-1.45512e-05
-1.3217e-05
-1.19025e-05
-1.07402e-05
-9.78585e-06
-9.07863e-06
-8.63429e-06
-8.4506e-06
-8.47981e-06
-8.7373e-06
-6.92757e-06
-6.86544e-06
-6.89682e-06
-7.02992e-06
-7.29962e-06
-7.72676e-06
-8.33146e-06
-9.12996e-06
-1.01286e-05
-1.13156e-05
-1.26425e-05
-1.40395e-05
-1.54112e-05
-1.66842e-05
-1.77511e-05
-1.85922e-05
-1.91816e-05
-1.95277e-05
-1.9636e-05
-1.95115e-05
-1.91505e-05
-1.8548e-05
-1.76993e-05
-1.66295e-05
-1.53717e-05
-1.40336e-05
-1.2714e-05
-1.14976e-05
-1.0474e-05
-9.68621e-06
-9.14657e-06
-8.84644e-06
-8.74195e-06
-8.8238e-06
-5.27464e-06
-5.27808e-06
-5.28982e-06
-5.31331e-06
-5.3554e-06
-5.41331e-06
-5.50176e-06
-5.6186e-06
-5.76253e-06
-5.93095e-06
-6.11609e-06
-6.31191e-06
-6.49761e-06
-6.66857e-06
-6.81584e-06
-6.93509e-06
-7.02236e-06
-7.07625e-06
-7.09598e-06
-7.0817e-06
-7.03458e-06
-6.95631e-06
-6.85112e-06
-6.72324e-06
-6.58115e-06
-6.43406e-06
-6.29883e-06
-6.18131e-06
-6.08899e-06
-6.02821e-06
-5.98052e-06
-5.95099e-06
-5.93278e-06
-5.92023e-06
-5.2327e-06
-5.2069e-06
-5.19559e-06
-5.19148e-06
-5.2067e-06
-5.2442e-06
-5.30694e-06
-5.39448e-06
-5.50295e-06
-5.62888e-06
-5.76108e-06
-5.89553e-06
-6.02666e-06
-6.1503e-06
-6.2564e-06
-6.34385e-06
-6.40886e-06
-6.45118e-06
-6.4701e-06
-6.46578e-06
-6.43924e-06
-6.39101e-06
-6.32525e-06
-6.24356e-06
-6.15719e-06
-6.06721e-06
-5.98242e-06
-5.90623e-06
-5.84985e-06
-5.81646e-06
-5.80622e-06
-5.81681e-06
-5.83346e-06
-5.85958e-06
-5.22167e-06
-5.18814e-06
-5.16456e-06
-5.13852e-06
-5.13558e-06
-5.16205e-06
-5.22134e-06
-5.3147e-06
-5.43757e-06
-5.58979e-06
-5.75267e-06
-5.92892e-06
-6.08802e-06
-6.23613e-06
-6.35604e-06
-6.45287e-06
-6.52214e-06
-6.5662e-06
-6.58454e-06
-6.57729e-06
-6.54528e-06
-6.48641e-06
-6.40568e-06
-6.29836e-06
-6.1826e-06
-6.05136e-06
-5.93761e-06
-5.8389e-06
-5.77522e-06
-5.74666e-06
-5.75469e-06
-5.79156e-06
-5.82226e-06
-5.85544e-06
-5.2401e-06
-5.19163e-06
-5.15038e-06
-5.10174e-06
-5.08391e-06
-5.1074e-06
-5.17888e-06
-5.30374e-06
-5.47815e-06
-5.70959e-06
-5.96517e-06
-6.2584e-06
-6.50685e-06
-6.73277e-06
-6.90398e-06
-7.03771e-06
-7.12805e-06
-7.18218e-06
-7.19987e-06
-7.18117e-06
-7.12667e-06
-7.02935e-06
-6.89585e-06
-6.70921e-06
-6.50329e-06
-6.25581e-06
-6.05294e-06
-5.88127e-06
-5.77683e-06
-5.73227e-06
-5.7471e-06
-5.806e-06
-5.85445e-06
-5.90359e-06
-5.30291e-06
-5.23564e-06
-5.17915e-06
-5.11563e-06
-5.0945e-06
-5.13145e-06
-5.23817e-06
-5.42749e-06
-5.69816e-06
-6.07461e-06
-6.49973e-06
-7.01625e-06
-7.42732e-06
-7.79397e-06
-8.05715e-06
-8.25795e-06
-8.38734e-06
-8.46077e-06
-8.47799e-06
-8.43898e-06
-8.34431e-06
-8.17853e-06
-7.95168e-06
-7.62282e-06
-7.25401e-06
-6.78401e-06
-6.41671e-06
-6.10752e-06
-5.91918e-06
-5.82731e-06
-5.82768e-06
-5.89435e-06
-5.95593e-06
-6.02479e-06
-5.41345e-06
-5.32211e-06
-5.25289e-06
-5.18276e-06
-5.17088e-06
-5.23836e-06
-5.40261e-06
-5.68631e-06
-6.09242e-06
-6.67781e-06
-7.35547e-06
-8.24762e-06
-8.89904e-06
-9.47352e-06
-9.86733e-06
-1.01649e-05
-1.03507e-05
-1.04528e-05
-1.04698e-05
-1.04016e-05
-1.02498e-05
-9.98594e-06
-9.62698e-06
-9.08828e-06
-8.4787e-06
-7.63308e-06
-7.02041e-06
-6.51012e-06
-6.19966e-06
-6.03176e-06
-5.99756e-06
-6.05857e-06
-6.12891e-06
-6.22439e-06
-5.57177e-06
-5.44985e-06
-5.37012e-06
-5.30043e-06
-5.30885e-06
-5.42061e-06
-5.65772e-06
-6.05286e-06
-6.61302e-06
-7.46327e-06
-8.46767e-06
-9.98199e-06
-1.09287e-05
-1.17512e-05
-1.22864e-05
-1.26912e-05
-1.29373e-05
-1.30711e-05
-1.30882e-05
-1.29882e-05
-1.27757e-05
-1.24035e-05
-1.19014e-05
-1.11115e-05
-1.0206e-05
-8.73631e-06
-7.80894e-06
-7.04116e-06
-6.59008e-06
-6.32963e-06
-6.24775e-06
-6.29422e-06
-6.37116e-06
-6.50273e-06
-5.77462e-06
-5.61394e-06
-5.52582e-06
-5.46501e-06
-5.50756e-06
-5.6803e-06
-6.00614e-06
-6.51711e-06
-7.22088e-06
-8.28471e-06
-9.66515e-06
-1.22367e-05
-1.34505e-05
-1.4546e-05
-1.52361e-05
-1.57715e-05
-1.60937e-05
-1.62682e-05
-1.62856e-05
-1.61455e-05
-1.58569e-05
-1.53529e-05
-1.46937e-05
-1.36258e-05
-1.24504e-05
-9.91493e-06
-8.63515e-06
-7.65691e-06
-7.07537e-06
-6.7182e-06
-6.57546e-06
-6.5969e-06
-6.6773e-06
-6.85716e-06
-6.0037e-06
-5.80332e-06
-5.70808e-06
-5.66065e-06
-5.74518e-06
-5.98479e-06
-6.39375e-06
-6.98718e-06
-7.69123e-06
-8.82274e-06
-1.04431e-05
-1.53293e-05
-1.63044e-05
-1.74575e-05
-1.82032e-05
-1.87958e-05
-1.91492e-05
-1.93449e-05
-1.93625e-05
-1.92013e-05
-1.88813e-05
-1.83187e-05
-1.76012e-05
-1.64661e-05
-1.55263e-05
-1.06592e-05
-9.21064e-06
-8.14308e-06
-7.5674e-06
-7.14362e-06
-6.94606e-06
-6.94228e-06
-7.02766e-06
-7.27706e-06
-6.26741e-06
-6.01345e-06
-5.91586e-06
-5.89813e-06
-6.05648e-06
-6.41249e-06
-6.98112e-06
-7.68707e-06
-8.47746e-06
-1.05131e-05
-7.22145e-06
-1.76497e-05
-1.8544e-05
-2.00705e-05
-2.09765e-05
-2.17423e-05
-2.21835e-05
-2.24205e-05
-2.24378e-05
-2.22349e-05
-2.1827e-05
-2.10909e-05
-2.02117e-05
-1.86971e-05
-1.78659e-05
-7.29354e-06
-1.08465e-05
-8.88774e-06
-8.2606e-06
-7.74411e-06
-7.41946e-06
-7.34741e-06
-7.4176e-06
-7.74351e-06
-6.54729e-06
-6.22843e-06
-6.12503e-06
-6.13662e-06
-6.3695e-06
-6.84036e-06
-7.53381e-06
-8.25423e-06
-8.52014e-06
-4.48331e-06
-2.53467e-05
-2.1364e-05
-2.20176e-05
-2.27801e-05
-2.34146e-05
-2.38298e-05
-2.40521e-05
-2.40682e-05
-2.38776e-05
-2.34927e-05
-2.28858e-05
-2.21457e-05
-2.1493e-05
-2.53628e-05
-5.20185e-06
-9.04801e-06
-8.85282e-06
-8.31009e-06
-7.88254e-06
-7.74328e-06
-7.80702e-06
-8.2503e-06
-6.8332e-06
-6.4455e-06
-6.34661e-06
-6.41535e-06
-6.7911e-06
-7.54297e-06
-8.78398e-06
-1.0572e-05
-1.34338e-05
-1.62766e-05
-2.3202e-05
-1.99792e-05
-2.185e-05
-2.34671e-05
-2.46769e-05
-2.54857e-05
-2.60153e-05
-2.62816e-05
-2.62968e-05
-2.60605e-05
-2.55613e-05
-2.47831e-05
-2.36058e-05
-2.20284e-05
-2.01971e-05
-2.35389e-05
-1.65518e-05
-1.37861e-05
-1.10676e-05
-9.49844e-06
-8.57022e-06
-8.21005e-06
-8.20662e-06
-8.77628e-06
-7.10853e-06
-6.64946e-06
-6.54403e-06
-6.64452e-06
-7.10464e-06
-8.00261e-06
-9.4525e-06
-1.14506e-05
-1.41607e-05
-1.66675e-05
-2.08272e-05
-2.17665e-05
-2.28762e-05
-2.40264e-05
-2.50792e-05
-2.58654e-05
-2.64117e-05
-2.66885e-05
-2.67024e-05
-2.6453e-05
-2.59338e-05
-2.51726e-05
-2.41435e-05
-2.3009e-05
-2.19053e-05
-2.10396e-05
-1.69323e-05
-1.44787e-05
-1.19076e-05
-1.01459e-05
-9.04219e-06
-8.58963e-06
-8.57452e-06
-9.26832e-06
-7.3666e-06
-6.83807e-06
-6.72863e-06
-6.85814e-06
-7.39371e-06
-8.42299e-06
-1.00593e-05
-1.22883e-05
-1.51617e-05
-1.80782e-05
-2.12875e-05
-2.28013e-05
-2.4003e-05
-2.50937e-05
-2.61393e-05
-2.69167e-05
-2.74615e-05
-2.7734e-05
-2.77468e-05
-2.74998e-05
-2.69801e-05
-2.62254e-05
-2.52013e-05
-2.41229e-05
-2.29383e-05
-2.14579e-05
-1.82868e-05
-1.54358e-05
-1.27114e-05
-1.07396e-05
-9.48319e-06
-8.9504e-06
-8.92389e-06
-9.71558e-06
-7.58657e-06
-7.00571e-06
-6.88413e-06
-7.02258e-06
-7.59399e-06
-8.68617e-06
-1.04009e-05
-1.27184e-05
-1.56144e-05
-1.86319e-05
-2.16135e-05
-2.34308e-05
-2.47892e-05
-2.58682e-05
-2.69087e-05
-2.7671e-05
-2.82085e-05
-2.84747e-05
-2.84868e-05
-2.82444e-05
-2.77302e-05
-2.69879e-05
-2.59658e-05
-2.48936e-05
-2.35488e-05
-2.17554e-05
-1.88139e-05
-1.58686e-05
-1.31309e-05
-1.10897e-05
-9.78444e-06
-9.23231e-06
-9.22043e-06
-1.00924e-05
-7.76611e-06
-7.14741e-06
-7.01449e-06
-7.1554e-06
-7.74785e-06
-8.87949e-06
-1.06438e-05
-1.30205e-05
-1.59429e-05
-1.90201e-05
-2.1955e-05
-2.3955e-05
-2.53837e-05
-2.64882e-05
-2.7543e-05
-2.82997e-05
-2.88308e-05
-2.90909e-05
-2.91027e-05
-2.88657e-05
-2.83569e-05
-2.76189e-05
-2.65805e-05
-2.54772e-05
-2.40409e-05
-2.20792e-05
-1.91883e-05
-1.61876e-05
-1.34327e-05
-1.13491e-05
-1.00193e-05
-9.46277e-06
-9.46665e-06
-1.03951e-05
-7.90264e-06
-7.25726e-06
-7.11412e-06
-7.25214e-06
-7.85231e-06
-9.00182e-06
-1.07892e-05
-1.31963e-05
-1.61369e-05
-1.92612e-05
-2.22113e-05
-2.43256e-05
-2.57972e-05
-2.69234e-05
-2.79889e-05
-2.87431e-05
-2.92711e-05
-2.9528e-05
-2.954e-05
-2.93066e-05
-2.8801e-05
-2.8065e-05
-2.70153e-05
-2.5889e-05
-2.44103e-05
-2.23304e-05
-1.94254e-05
-1.63813e-05
-1.36156e-05
-1.15147e-05
-1.01809e-05
-9.63176e-06
-9.6525e-06
-1.06199e-05
-7.99562e-06
-7.33427e-06
-7.18471e-06
-7.32018e-06
-7.92417e-06
-9.08421e-06
-1.08871e-05
-1.33169e-05
-1.62795e-05
-1.94424e-05
-2.24204e-05
-2.45723e-05
-2.6105e-05
-2.72543e-05
-2.83316e-05
-2.90895e-05
-2.9619e-05
-2.98762e-05
-2.9889e-05
-2.9657e-05
-2.91514e-05
-2.84128e-05
-2.73528e-05
-2.621e-05
-2.47204e-05
-2.25513e-05
-1.96115e-05
-1.65293e-05
-1.37461e-05
-1.16309e-05
-1.02934e-05
-9.7491e-06
-9.78004e-06
-1.07699e-05
-8.04484e-06
-7.37771e-06
-7.22592e-06
-7.36043e-06
-7.96633e-06
-9.13208e-06
-1.09457e-05
-1.33925e-05
-1.63786e-05
-1.95731e-05
-2.25843e-05
-2.47665e-05
-2.63263e-05
-2.74923e-05
-2.85806e-05
-2.93471e-05
-2.98823e-05
-3.01432e-05
-3.01576e-05
-2.9925e-05
-2.94164e-05
-2.86718e-05
-2.76028e-05
-2.64462e-05
-2.49373e-05
-2.27287e-05
-1.97529e-05
-1.66383e-05
-1.3833e-05
-1.17036e-05
-1.036e-05
-9.81545e-06
-9.84916e-06
-1.0847e-05
-8.05062e-06
-7.38819e-06
-7.23836e-06
-7.37342e-06
-7.97928e-06
-9.14596e-06
-1.09645e-05
-1.34216e-05
-1.64318e-05
-1.96519e-05
-2.2704e-05
-2.49087e-05
-2.64669e-05
-2.7642e-05
-2.8739e-05
-2.95177e-05
-3.00622e-05
-3.03298e-05
-3.03466e-05
-3.01119e-05
-2.95983e-05
-2.88453e-05
-2.777e-05
-2.66051e-05
-2.50945e-05
-2.28647e-05
-1.98478e-05
-1.6706e-05
-1.3875e-05
-1.1733e-05
-1.03813e-05
-9.83195e-06
-9.86126e-06
-1.0853e-05
-8.01402e-06
-7.36809e-06
-7.2241e-06
-7.35983e-06
-7.96124e-06
-9.12017e-06
-1.09344e-05
-1.33916e-05
-1.64269e-05
-1.96659e-05
-2.27841e-05
-2.50215e-05
-2.65264e-05
-2.77031e-05
-2.88071e-05
-2.96026e-05
-3.016e-05
-3.04378e-05
-3.0458e-05
-3.02201e-05
-2.96997e-05
-2.89356e-05
-2.78568e-05
-2.66857e-05
-2.51605e-05
-2.29624e-05
-1.98869e-05
-1.6724e-05
-1.38645e-05
-1.17153e-05
-1.03577e-05
-9.80161e-06
-9.82022e-06
-1.07894e-05
-7.93577e-06
-7.32047e-06
-7.18296e-06
-7.31363e-06
-7.89666e-06
-9.02461e-06
-1.08041e-05
-1.32261e-05
-1.62698e-05
-1.95169e-05
-2.27678e-05
-2.49334e-05
-2.64422e-05
-2.76166e-05
-2.87156e-05
-2.95266e-05
-3.00977e-05
-3.03878e-05
-3.04127e-05
-3.01719e-05
-2.96466e-05
-2.8876e-05
-2.78093e-05
-2.66501e-05
-2.51473e-05
-2.2988e-05
-1.97774e-05
-1.66035e-05
-1.37315e-05
-1.16066e-05
-1.02667e-05
-9.71715e-06
-9.72689e-06
-1.06575e-05
-7.8208e-06
-7.25337e-06
-7.12309e-06
-7.24364e-06
-7.79576e-06
-8.87114e-06
-1.05867e-05
-1.29376e-05
-1.59823e-05
-1.91777e-05
-2.27483e-05
-2.48527e-05
-2.62357e-05
-2.7442e-05
-2.85566e-05
-2.93948e-05
-2.99824e-05
-3.02871e-05
-3.03187e-05
-3.00774e-05
-2.95489e-05
-2.8766e-05
-2.76956e-05
-2.65192e-05
-2.51501e-05
-2.30271e-05
-1.9503e-05
-1.63772e-05
-1.34991e-05
-1.14296e-05
-1.01291e-05
-9.5972e-06
-9.59686e-06
-1.04663e-05
-7.67923e-06
-7.16802e-06
-7.03921e-06
-7.13207e-06
-7.61585e-06
-8.57044e-06
-1.0108e-05
-1.22228e-05
-1.50473e-05
-1.77597e-05
-2.25018e-05
-2.48509e-05
-2.58716e-05
-2.70761e-05
-2.81745e-05
-2.90199e-05
-2.96145e-05
-2.99318e-05
-2.99721e-05
-2.97359e-05
-2.9217e-05
-2.84474e-05
-2.74108e-05
-2.62646e-05
-2.52795e-05
-2.28287e-05
-1.81518e-05
-1.55254e-05
-1.28757e-05
-1.10243e-05
-9.86952e-06
-9.41366e-06
-9.42782e-06
-1.02225e-05
-7.52861e-06
-7.07545e-06
-6.95405e-06
-7.02438e-06
-7.44484e-06
-8.28649e-06
-9.66487e-06
-1.16216e-05
-1.47018e-05
-1.81023e-05
-2.38711e-05
-2.30166e-05
-2.53383e-05
-2.72709e-05
-2.8607e-05
-2.95279e-05
-3.01458e-05
-3.04776e-05
-3.05321e-05
-3.03115e-05
-2.97975e-05
-2.89835e-05
-2.77276e-05
-2.58872e-05
-2.35963e-05
-2.41626e-05
-1.87222e-05
-1.53589e-05
-1.24235e-05
-1.06901e-05
-9.64699e-06
-9.24919e-06
-9.26285e-06
-9.95708e-06
-7.37503e-06
-6.97708e-06
-6.853e-06
-6.87762e-06
-7.17736e-06
-7.76384e-06
-8.59712e-06
-9.36766e-06
-9.37393e-06
-3.49021e-06
-3.21007e-05
-2.62998e-05
-2.68451e-05
-2.76299e-05
-2.83409e-05
-2.88485e-05
-2.915e-05
-2.9218e-05
-2.90573e-05
-2.86804e-05
-2.81138e-05
-2.74259e-05
-2.70183e-05
-3.276e-05
-4.137e-06
-1.02114e-05
-1.03467e-05
-9.76969e-06
-9.21556e-06
-9.01016e-06
-9.08007e-06
-9.67289e-06
-7.23619e-06
-6.89107e-06
-6.78201e-06
-6.80466e-06
-7.08802e-06
-7.67609e-06
-8.63143e-06
-9.93708e-06
-1.18594e-05
-1.49382e-05
-1.45422e-05
-2.23305e-05
-2.39599e-05
-2.57714e-05
-2.69219e-05
-2.79313e-05
-2.85835e-05
-2.89682e-05
-2.90579e-05
-2.88606e-05
-2.83778e-05
-2.75522e-05
-2.64784e-05
-2.48552e-05
-2.33343e-05
-1.64171e-05
-1.64193e-05
-1.32403e-05
-1.1199e-05
-9.9468e-06
-9.18406e-06
-8.9078e-06
-8.93205e-06
-9.44511e-06
-7.1186e-06
-6.8177e-06
-6.72041e-06
-6.73589e-06
-6.98312e-06
-7.50812e-06
-8.36331e-06
-9.56703e-06
-1.11079e-05
-1.29193e-05
-1.6534e-05
-2.13037e-05
-2.2586e-05
-2.39252e-05
-2.49248e-05
-2.58649e-05
-2.64946e-05
-2.68842e-05
-2.69876e-05
-2.68159e-05
-2.63735e-05
-2.56339e-05
-2.46536e-05
-2.34164e-05
-2.22703e-05
-1.80138e-05
-1.42391e-05
-1.24699e-05
-1.09034e-05
-9.74771e-06
-9.04122e-06
-8.77356e-06
-8.78323e-06
-9.2323e-06
-7.04156e-06
-6.77497e-06
-6.69952e-06
-6.72897e-06
-6.9736e-06
-7.48484e-06
-8.32441e-06
-9.535e-06
-1.11786e-05
-1.32502e-05
-1.58829e-05
-1.88824e-05
-2.04822e-05
-2.18085e-05
-2.28313e-05
-2.38035e-05
-2.44526e-05
-2.48493e-05
-2.49569e-05
-2.47899e-05
-2.43398e-05
-2.35964e-05
-2.25828e-05
-2.13235e-05
-1.98943e-05
-1.73165e-05
-1.47337e-05
-1.26466e-05
-1.09497e-05
-9.75042e-06
-9.01724e-06
-8.71599e-06
-8.68847e-06
-9.07784e-06
-6.98932e-06
-6.76384e-06
-6.71529e-06
-6.764e-06
-7.00545e-06
-7.48648e-06
-8.26149e-06
-9.37251e-06
-1.08512e-05
-1.27106e-05
-1.48265e-05
-1.70735e-05
-1.85891e-05
-1.98816e-05
-2.09227e-05
-2.1865e-05
-2.24963e-05
-2.28808e-05
-2.29891e-05
-2.28388e-05
-2.2417e-05
-2.17239e-05
-2.0741e-05
-1.95456e-05
-1.81669e-05
-1.62285e-05
-1.41874e-05
-1.23279e-05
-1.08044e-05
-9.69329e-06
-8.99923e-06
-8.69279e-06
-8.64018e-06
-8.97701e-06
-6.97218e-06
-6.78942e-06
-6.7766e-06
-6.85753e-06
-7.10976e-06
-7.57201e-06
-8.28704e-06
-9.28535e-06
-1.05786e-05
-1.21479e-05
-1.38732e-05
-1.56564e-05
-1.70603e-05
-1.83239e-05
-1.93632e-05
-2.02631e-05
-2.08812e-05
-2.12551e-05
-2.13606e-05
-2.12279e-05
-2.08294e-05
-2.01728e-05
-1.92445e-05
-1.81242e-05
-1.68208e-05
-1.5267e-05
-1.36029e-05
-1.20348e-05
-1.07048e-05
-9.70478e-06
-9.05519e-06
-8.73952e-06
-8.65442e-06
-8.93129e-06
-6.984e-06
-6.84657e-06
-6.87544e-06
-6.99739e-06
-7.27064e-06
-7.72504e-06
-8.3919e-06
-9.29094e-06
-1.04219e-05
-1.17594e-05
-1.32063e-05
-1.46893e-05
-1.59844e-05
-1.71656e-05
-1.81477e-05
-1.89835e-05
-1.95676e-05
-1.99228e-05
-2.00321e-05
-1.99082e-05
-1.9541e-05
-1.8939e-05
-1.80945e-05
-1.708e-05
-1.59003e-05
-1.45755e-05
-1.31757e-05
-1.18403e-05
-1.06852e-05
-9.78978e-06
-9.1796e-06
-8.84816e-06
-8.72354e-06
-8.93064e-06
-7.00483e-06
-6.91014e-06
-6.96026e-06
-7.11093e-06
-7.40239e-06
-7.85742e-06
-8.49805e-06
-9.33653e-06
-1.03679e-05
-1.15661e-05
-1.28623e-05
-1.41921e-05
-1.54299e-05
-1.65647e-05
-1.7517e-05
-1.83036e-05
-1.88617e-05
-1.92002e-05
-1.93077e-05
-1.91908e-05
-1.88449e-05
-1.82782e-05
-1.74909e-05