/*--------------------------------*- C++ -*----------------------------------*\
| =========                 |                                                 |
| \\      /  F ield         | OpenFOAM: The Open Source CFD Toolbox           |
|  \\    /   O peration     | Version:  2112                                  |
|   \\  /    A nd           | Website:  www.openfoam.com                      |
|    \\/     M anipulation  |                                                 |
\*---------------------------------------------------------------------------*/
FoamFile
{
    version     2.0;
    format      ascii;
    arch        "LSB;label=32;scalar=64";
    class       surfaceScalarField;
    location    "3.7";
    object      phi;
}
// * * * * * * * * * * * * * * * * * * * * * * * * * * * * * * * * * * * * * //

dimensions      [0 3 -1 0 0 0 0];

oriented        oriented;

internalField   nonuniform List<scalar> 
188215
(
6.2457e-10
1.33422e-09
-1.95878e-09
2.66672e-09
3.59384e-10
-2.40153e-09
5.48688e-09
-9.89229e-10
-1.83093e-09
8.66423e-09
-2.23756e-09
-9.39784e-10
1.19738e-08
-3.06364e-09
-2.45942e-10
1.52951e-08
-3.55743e-09
2.36084e-10
1.85002e-08
-3.79847e-09
5.93468e-10
2.14977e-08
-3.76597e-09
7.68403e-10
2.41004e-08
-3.43634e-09
8.33668e-10
2.59281e-08
-2.63947e-09
8.11729e-10
2.66629e-08
-1.43457e-09
6.99851e-10
2.58029e-08
3.0961e-10
5.50387e-10
2.38462e-08
1.33091e-09
6.25804e-10
2.07804e-08
2.26739e-09
7.98364e-10
1.69017e-08
2.88427e-09
9.94467e-10
1.24189e-08
3.31021e-09
1.17253e-09
7.56822e-09
3.54791e-09
1.30279e-09
2.54484e-09
3.65257e-09
1.37081e-09
-2.45817e-09
3.63147e-09
1.37154e-09
-7.24857e-09
3.48457e-09
1.30584e-09
-1.16323e-08
3.20466e-09
1.17906e-09
-1.53755e-08
2.73721e-09
1.00603e-09
-1.82757e-08
2.08368e-09
8.16492e-10
-2.00515e-08
1.12531e-09
6.50516e-10
-2.07294e-08
9.0311e-11
5.87599e-10
-1.97508e-08
-1.7272e-09
7.48542e-10
-1.77088e-08
-2.85088e-09
8.08885e-10
-1.4898e-08
-3.50787e-09
6.97101e-10
-1.16677e-08
-3.55168e-09
3.21412e-10
-8.30639e-09
-3.09029e-09
-2.71068e-10
-5.09891e-09
-2.04833e-09
-1.15915e-09
-2.40034e-09
-3.15829e-10
-2.38273e-09
-4.33804e-10
1.24972e-09
-3.21626e-09
2.37633e-09
-2.81013e-09
-1.58729e-09
6.2561e-09
-3.33459e-09
7.65452e-10
6.19375e-09
-8.18711e-09
4.38148e-09
5.24121e-09
-9.84647e-09
8.11682e-09
4.36539e-09
-1.03383e-08
1.17303e-08
4.07218e-09
-1.07493e-08
1.5201e-08
4.43739e-09
-1.14656e-08
1.85287e-08
5.4918e-09
-1.2618e-08
2.16416e-08
7.36492e-09
-1.42437e-08
2.43546e-08
1.0211e-08
-1.63604e-08
2.62904e-08
1.43921e-08
-1.89673e-08
2.71507e-08
1.96679e-08
-2.19628e-08
2.65121e-08
2.61104e-08
-2.51623e-08
2.44511e-08
3.16825e-08
-2.82906e-08
2.123e-08
3.65212e-08
-3.10327e-08
1.72246e-08
4.01427e-08
-3.3253e-08
1.26428e-08
4.28288e-08
-3.49369e-08
7.71075e-09
4.45493e-08
-3.60693e-08
2.61515e-09
4.54078e-08
-3.66597e-08
-2.4587e-09
4.54111e-08
-3.67058e-08
-7.32576e-09
4.45591e-08
-3.62075e-08
-1.18012e-08
4.28469e-08
-3.51668e-08
-1.56612e-08
4.01724e-08
-3.35752e-08
-1.87026e-08
3.65753e-08
-3.14503e-08
-2.05456e-08
3.17807e-08
-2.88123e-08
-2.09333e-08
2.62942e-08
-2.58162e-08
-1.98442e-08
1.99757e-08
-2.27919e-08
-1.76425e-08
1.49612e-08
-2.00137e-08
-1.46144e-08
1.11648e-08
-1.77007e-08
-1.11063e-08
8.91861e-09
-1.59784e-08
-7.28296e-09
7.93381e-09
-1.48474e-08
-3.27913e-09
8.10479e-09
-1.4157e-08
6.09644e-10
9.19613e-09
-1.34007e-08
2.82903e-09
1.0292e-08
-1.12616e-08
1.01009e-08
-4.8955e-09
-3.2882e-09
1.29728e-08
-3.42845e-09
-9.26443e-10
1.40595e-08
-1.02275e-08
3.19418e-09
1.39012e-08
-1.27806e-08
7.52512e-09
1.39026e-08
-1.38682e-08
1.16945e-08
1.47043e-08
-1.48016e-08
1.57078e-08
1.64951e-08
-1.6071e-08
1.96474e-08
1.94502e-08
-1.7898e-08
2.35046e-08
2.39023e-08
-2.03945e-08
2.70961e-08
3.02356e-08
-2.36161e-08
2.98572e-08
3.92174e-08
-2.75863e-08
3.12202e-08
5.04665e-08
-3.21615e-08
3.0221e-08
6.42139e-08
-3.71043e-08
2.75711e-08
7.61329e-08
-4.18004e-08
2.36203e-08
8.64017e-08
-4.59297e-08
1.8942e-08
9.41182e-08
-4.92973e-08
1.37419e-08
9.98873e-08
-5.18584e-08
8.24052e-09
1.03631e-07
-5.35802e-08
2.59844e-09
1.05527e-07
-5.44768e-08
-3.02092e-09
1.05574e-07
-5.45439e-08
-8.454e-09
1.03773e-07
-5.37813e-08
-1.35413e-08
1.00127e-07
-5.21931e-08
-1.80613e-08
9.44595e-08
-4.97671e-08
-2.18108e-08
8.68642e-08
-4.65394e-08
-2.42126e-08
7.67456e-08
-4.25631e-08
-2.49237e-08
6.50532e-08
-3.80479e-08
-2.32279e-08
5.16125e-08
-3.33327e-08
-2.00804e-08
4.08645e-08
-2.90508e-08
-1.59843e-08
3.25248e-08
-2.54561e-08
-1.14503e-08
2.70811e-08
-2.26965e-08
-6.62828e-09
2.38127e-08
-2.07009e-08
-1.65371e-09
2.23404e-08
-1.92102e-08
2.96628e-09
2.21703e-08
-1.75941e-08
5.18973e-09
2.22392e-08
-1.41707e-08
2.05022e-08
-5.2116e-09
-4.4559e-09
2.02711e-08
-2.84247e-09
-1.95762e-09
2.22246e-08
-1.06634e-08
2.8022e-09
2.27821e-08
-1.36408e-08
7.93977e-09
2.37358e-08
-1.49707e-08
1.30036e-08
2.57764e-08
-1.61358e-08
1.80349e-08
2.91554e-08
-1.76915e-08
2.32275e-08
3.41657e-08
-1.99082e-08
2.86818e-08
4.13865e-08
-2.29385e-08
3.41944e-08
5.15729e-08
-2.685e-08
3.88172e-08
6.62865e-08
-3.16919e-08
4.1337e-08
8.52186e-08
-3.7272e-08
3.96287e-08
1.09336e-07
-4.34133e-08
3.55111e-08
1.29441e-07
-4.91907e-08
2.97933e-08
1.46386e-07
-5.42665e-08
2.34673e-08
1.58844e-07
-5.83995e-08
1.67069e-08
1.6817e-07
-6.15227e-08
9.71624e-09
1.74224e-07
-6.36026e-08
2.61413e-09
1.7731e-07
-6.46807e-08
-4.46472e-09
1.77409e-07
-6.47556e-08
-1.13847e-08
1.7452e-07
-6.38266e-08
-1.80258e-08
1.68663e-07
-6.18946e-08
-2.41776e-08
1.59531e-07
-5.89197e-08
-2.96636e-08
1.47289e-07
-5.49383e-08
-3.3479e-08
1.30589e-07
-5.00276e-08
-3.48178e-08
1.10837e-07
-4.44454e-08
-3.18336e-08
8.71784e-08
-3.85501e-08
-2.66735e-08
6.89985e-08
-3.3294e-08
-2.04408e-08
5.51526e-08
-2.88606e-08
-1.40172e-08
4.60969e-08
-2.54393e-08
-7.59254e-09
4.03069e-08
-2.29188e-08
-1.29615e-09
3.70461e-08
-2.10021e-08
4.29806e-09
3.55719e-08
-1.89958e-08
6.76429e-09
3.47426e-08
-1.49696e-08
3.18734e-08
-4.60693e-09
-5.07953e-09
2.74672e-08
-2.11654e-09
-2.12939e-09
3.00827e-08
-1.08082e-08
3.5449e-09
3.12448e-08
-1.4137e-08
9.79623e-09
3.31237e-08
-1.56392e-08
1.61337e-08
3.64356e-08
-1.69967e-08
2.26944e-08
4.14356e-08
-1.88408e-08
2.98704e-08
4.84726e-08
-2.14829e-08
3.80065e-08
5.83586e-08
-2.51082e-08
4.6947e-08
7.23935e-08
-2.97611e-08
5.51693e-08
9.35882e-08
-3.5524e-08
6.00893e-08
1.22399e-07
-4.21009e-08
5.6812e-08
1.62275e-07
-4.96624e-08
4.97459e-08
1.93181e-07
-5.6674e-08
4.07618e-08
2.18276e-07
-6.29055e-08
3.15305e-08
2.36071e-07
-6.79963e-08
2.20312e-08
2.49444e-07
-7.17742e-08
1.23997e-08
2.58103e-07
-7.42473e-08
2.68755e-09
2.62542e-07
-7.55199e-08
-7.00195e-09
2.62698e-07
-7.56001e-08
-1.65637e-08
2.58568e-07
-7.44867e-08
-2.59417e-08
2.50211e-07
-7.21697e-08
-3.49859e-08
2.37122e-07
-6.85464e-08
-4.37049e-08
2.19618e-07
-6.36107e-08
-5.03982e-08
1.94829e-07
-5.75475e-08
-5.31949e-08
1.64372e-07
-5.07382e-08
-4.76385e-08
1.25057e-07
-4.34346e-08
-3.87286e-08
9.72999e-08
-3.72113e-08
-2.88551e-08
7.717e-08
-3.18908e-08
-1.94607e-08
6.44712e-08
-2.77688e-08
-1.07019e-08
5.62448e-08
-2.46967e-08
-2.54892e-09
5.12741e-08
-2.23809e-08
4.45362e-09
4.86125e-08
-2.00432e-08
7.61463e-09
4.70595e-08
-1.54779e-08
4.33216e-08
-3.83354e-09
-5.3322e-09
3.42092e-08
-1.40984e-09
-1.54267e-09
3.73583e-08
-1.10651e-08
5.4274e-09
3.90714e-08
-1.47967e-08
1.31717e-08
4.18762e-08
-1.64969e-08
2.1178e-08
4.65154e-08
-1.80861e-08
2.97407e-08
5.31663e-08
-2.02934e-08
3.95719e-08
6.21044e-08
-2.3463e-08
5.15461e-08
7.41812e-08
-2.77967e-08
6.58637e-08
9.13028e-08
-3.32269e-08
8.05958e-08
1.18692e-07
-3.98363e-08
9.05443e-08
1.59338e-07
-4.68874e-08
8.39652e-08
2.24796e-07
-5.59411e-08
7.15704e-08
2.69867e-07
-6.42906e-08
5.73249e-08
3.04624e-07
-7.21024e-08
4.37377e-08
3.2825e-07
-7.85915e-08
3.01501e-08
3.46227e-07
-8.31956e-08
1.65227e-08
3.57857e-07
-8.61266e-08
2.82531e-09
3.63859e-07
-8.76205e-08
-1.0853e-08
3.64083e-07
-8.77068e-08
-2.44203e-08
3.58519e-07
-8.63837e-08
-3.78995e-08
3.47308e-07
-8.36181e-08
-5.13044e-08
3.29703e-07
-7.91765e-08
-6.52662e-08
3.06426e-07
-7.28461e-08
-7.72136e-08
2.71984e-07
-6.52069e-08
-8.31719e-08
2.27403e-07
-5.70718e-08
-7.23398e-08
1.62508e-07
-4.82836e-08
-5.68023e-08
1.23387e-07
-4.16249e-08
-4.13488e-08
9.72179e-08
-3.55015e-08
-2.78009e-08
8.15892e-08
-3.06658e-08
-1.59692e-08
7.13746e-08
-2.69615e-08
-5.36382e-09
6.4853e-08
-2.41843e-08
3.60779e-09
6.10911e-08
-2.14502e-08
8.00998e-09
5.88901e-08
-1.62328e-08
5.44334e-08
-3.10186e-09
-5.33208e-09
4.02595e-08
-7.18187e-10
-2.42826e-10
4.38236e-08
-1.15545e-08
8.4482e-09
4.61731e-08
-1.57927e-08
1.81182e-08
4.99633e-08
-1.77571e-08
2.8177e-08
5.60963e-08
-1.96397e-08
3.90825e-08
6.45494e-08
-2.22886e-08
5.1967e-08
7.52848e-08
-2.60649e-08
6.86965e-08
8.86109e-08
-3.11592e-08
9.0625e-08
1.06634e-07
-3.72599e-08
1.16247e-07
1.37324e-07
-4.4254e-08
1.37318e-07
1.8858e-07
-5.03126e-08
1.23515e-07
2.99031e-07
-6.04326e-08
1.01811e-07
3.6126e-07
-6.96893e-08
7.98133e-08
4.063e-07
-7.96779e-08
6.04041e-08
4.35954e-07
-8.82942e-08
4.13345e-08
4.59055e-07
-9.37586e-08
2.22437e-08
4.7409e-07
-9.71428e-08
3.03928e-09
4.81915e-07
-9.88515e-08
-1.61545e-08
4.82222e-07
-9.8945e-08
-3.52103e-08
4.74996e-07
-9.74203e-08
-5.42123e-08
4.60522e-07
-9.42124e-08
-7.34839e-08
4.37895e-07
-8.89209e-08
-9.52233e-08
4.08634e-07
-8.04683e-08
-1.16419e-07
3.63843e-07
-7.06636e-08
-1.29429e-07
3.02063e-07
-6.16498e-08
-1.0707e-07
1.91949e-07
-5.18003e-08
-8.06266e-08
1.43132e-07
-4.6188e-08
-5.73927e-08
1.13708e-07
-3.97244e-08
-3.8719e-08
9.72206e-08
-3.43051e-08
-2.32831e-08
8.58838e-08
-2.99451e-08
-9.68028e-09
7.79028e-08
-2.66526e-08
1.87111e-09
7.29706e-08
-2.34309e-08
8.13253e-09
6.99983e-08
-1.73696e-08
6.49409e-08
-2.37498e-09
-5.13223e-09
4.54492e-08
-5.74568e-11
1.63087e-09
4.93207e-08
-1.22602e-08
1.27623e-08
5.22616e-08
-1.72199e-08
2.49622e-08
5.72592e-08
-1.94959e-08
3.75415e-08
6.52561e-08
-2.17392e-08
5.09676e-08
7.60394e-08
-2.49161e-08
6.65828e-08
8.90603e-08
-2.93907e-08
8.74668e-08
1.03078e-07
-3.53511e-08
1.17379e-07
1.18699e-07
-4.19776e-08
1.60703e-07
1.4329e-07
-4.92896e-08
2.06855e-07
1.91475e-07
-4.90467e-08
1.78045e-07
3.85344e-07
-5.75033e-08
1.42151e-07
4.64557e-07
-6.7404e-08
1.10098e-07
5.19669e-07
-8.13165e-08
8.35118e-08
5.55997e-07
-9.34568e-08
5.71408e-08
5.8517e-07
-9.97438e-08
3.03906e-08
6.04376e-07
-1.03535e-07
3.35432e-09
6.14391e-07
-1.05439e-07
-2.36854e-08
6.14802e-07
-1.0554e-07
-5.04462e-08
6.05589e-07
-1.03833e-07
-7.6834e-08
5.87139e-07
-1.00229e-07
-1.03403e-07
5.58594e-07
-9.41298e-08
-1.35339e-07
5.22733e-07
-8.2163e-08
-1.70773e-07
4.67736e-07
-6.84587e-08
-1.98557e-07
3.88732e-07
-5.88847e-08
-1.50392e-07
1.94429e-07
-5.06453e-08
-1.06497e-07
1.50577e-07
-5.13404e-08
-7.51237e-08
1.26965e-07
-4.46291e-08
-5.18172e-08
1.12733e-07
-3.8819e-08
-3.29041e-08
1.00714e-07
-3.37437e-08
-1.5841e-08
9.07208e-08
-2.98811e-08
-8.75592e-10
8.40835e-08
-2.60783e-08
7.95739e-09
8.00648e-08
-1.88995e-08
7.44463e-08
-1.54799e-09
-4.78099e-09
4.93465e-08
8.83703e-10
4.31697e-09
5.34768e-08
-1.3254e-08
1.85336e-08
5.71116e-08
-1.90666e-08
3.39778e-08
6.35505e-08
-2.17354e-08
4.96752e-08
7.39585e-08
-2.43998e-08
6.57394e-08
8.81246e-08
-2.81493e-08
8.30472e-08
1.05118e-07
-3.33657e-08
1.05163e-07
1.2118e-07
-4.02179e-08
1.3896e-07
1.32876e-07
-4.79748e-08
2.08696e-07
1.27794e-07
-5.42395e-08
3.06019e-07
1.48409e-07
-5.4257e-08
2.46136e-07
4.92683e-07
-4.74565e-08
1.89491e-07
5.75242e-07
-5.40405e-08
1.46726e-07
6.35913e-07
-7.34784e-08
1.12291e-07
6.80641e-07
-9.02104e-08
7.71632e-08
7.16916e-07
-9.66181e-08
4.08129e-08
7.41752e-07
-1.01026e-07
3.80282e-09
7.54606e-07
-1.03205e-07
-3.32297e-08
7.5514e-07
-1.03306e-07
-6.96548e-08
7.43338e-07
-1.01324e-07
-1.0493e-07
7.19513e-07
-9.70987e-08
-1.3957e-07
6.84115e-07
-9.08799e-08
-1.82553e-07
6.40026e-07
-7.43114e-08
-2.39042e-07
5.79333e-07
-5.51087e-08
-2.97447e-07
4.96083e-07
-4.89462e-08
-1.96906e-07
1.50221e-07
-5.63328e-08
-1.27844e-07
1.38068e-07
-5.65528e-08
-9.221e-08
1.42186e-07
-5.08554e-08
-6.70044e-08
1.31628e-07
-4.41005e-08
-4.53831e-08
1.17428e-07
-3.83348e-08
-2.4366e-08
1.0362e-07
-3.39167e-08
-4.91125e-09
9.41318e-08
-2.95029e-08
7.4417e-09
8.8584e-08
-2.08721e-08
8.25016e-08
-6.13612e-10
-4.05124e-09
5.15409e-08
1.85677e-09
8.12829e-09
5.58214e-08
-1.45242e-08
2.65266e-08
6.00785e-08
-2.13652e-08
4.66935e-08
6.79178e-08
-2.45341e-08
6.74083e-08
8.09809e-08
-2.77372e-08
8.79873e-08
9.9744e-08
-3.21984e-08
1.076e-07
1.23818e-07
-3.83118e-08
1.26154e-07
1.49762e-07
-4.7136e-08
1.41861e-07
1.73475e-07
-5.63061e-08
1.95512e-07
1.46446e-07
-7.2303e-08
4.26901e-07
-8.29797e-08
3.3593e-07
5.99805e-07
-1.61506e-08
2.56655e-07
6.65424e-07
-1.09063e-08
2.03442e-07
7.18717e-07
-2.95915e-08
1.58943e-07
7.73443e-07
-4.83028e-08
1.09589e-07
8.16578e-07
-5.03079e-08
5.74056e-08
8.46938e-07
-5.30028e-08
4.44275e-09
8.62194e-07
-5.46245e-08
-4.85533e-08
8.62832e-07
-5.46955e-08
-1.00858e-07
8.48858e-07
-5.32157e-08
-1.5049e-07
8.19779e-07
-5.06333e-08
-1.95477e-07
7.77901e-07
-4.87996e-08
-2.49505e-07
7.24267e-07
-3.0213e-08
-3.30099e-07
6.7164e-07
-1.17132e-08
-4.20637e-07
6.04238e-07
-1.76166e-08
-1.84381e-07
-8.60349e-08
-1.29298e-07
1.56939e-07
-7.39544e-08
-1.1278e-07
1.84602e-07
-5.89346e-08
-9.05764e-08
1.60809e-07
-5.1384e-08
-6.54391e-08
1.36353e-07
-4.40628e-08
-3.82465e-08
1.15485e-07
-3.90571e-08
-1.19537e-08
1.01774e-07
-3.39352e-08
5.8616e-09
9.42834e-08
-2.35147e-08
8.78528e-08
5.10423e-10
-3.10046e-09
5.18186e-08
2.82278e-09
1.26992e-08
5.60644e-08
-1.60426e-08
3.61147e-08
6.0741e-08
-2.4078e-08
6.23117e-08
6.95816e-08
-2.78609e-08
9.01191e-08
8.48783e-08
-3.17048e-08
1.17941e-07
1.08616e-07
-3.66944e-08
1.40389e-07
1.44251e-07
-4.28813e-08
1.42816e-07
1.96324e-07
-4.89888e-08
1.1066e-07
2.71871e-07
-6.62399e-08
3.68683e-07
-1.11577e-07
1.92781e-07
3.25954e-07
8.107e-08
2.58824e-07
5.52894e-07
4.64878e-08
2.55418e-07
6.83216e-07
3.89064e-08
2.09038e-07
7.79439e-07
4.03849e-08
1.45083e-07
8.43709e-07
3.68244e-08
7.5976e-08
8.8405e-07
3.19946e-08
5.26844e-09
9.03337e-07
2.95637e-08
-6.54788e-08
9.04012e-07
2.95672e-08
-1.34727e-07
8.86108e-07
3.19984e-08
-1.99029e-07
8.47244e-07
3.68375e-08
-2.46223e-07
7.84663e-07
4.0432e-08
-2.51513e-07
6.90495e-07
3.90627e-08
-1.88649e-07
5.62418e-07
4.63589e-08
3.35915e-07
7.96738e-08
-1.07062e-07
3.72543e-07
-1.08542e-07
-1.33511e-07
2.79473e-07
-6.84223e-08
-1.24415e-07
2.05612e-07
-5.38988e-08
-9.41098e-08
1.55841e-07
-4.97931e-08
-5.73685e-08
1.23834e-07
-4.50903e-08
-2.16441e-08
1.05517e-07
-3.94673e-08
3.41295e-09
9.61881e-08
-2.69617e-08
8.94316e-08
1.83418e-09
-1.64066e-09
4.97106e-08
3.74871e-09
1.84299e-08
5.37207e-08
-1.77268e-08
4.8272e-08
5.79948e-08
-2.70959e-08
8.35423e-08
6.60038e-08
-3.16926e-08
1.25419e-07
7.96218e-08
-3.66205e-08
1.77181e-07
1.00001e-07
-4.31465e-08
2.44279e-07
1.28321e-07
-5.11683e-08
3.33524e-07
1.64645e-07
-5.75652e-08
4.58106e-07
2.07084e-07
-5.97961e-08
6.13814e-07
2.55162e-07
-4.21866e-08
4.79935e-07
8.57664e-08
4.81132e-08
4.87312e-07
2.32162e-07
8.64141e-08
4.66685e-07
4.16693e-07
1.56827e-07
3.97943e-07
5.35768e-07
2.16191e-07
3.03168e-07
6.24748e-07
2.49466e-07
2.01777e-07
6.83715e-07
2.61386e-07
1.02802e-07
7.2045e-07
2.62574e-07
6.10975e-09
7.38083e-07
2.61947e-07
-9.05609e-08
7.38678e-07
2.62005e-07
-1.89462e-07
7.22257e-07
2.62752e-07
-2.90737e-07
6.86794e-07
2.61725e-07
-3.85394e-07
6.2919e-07
2.50129e-07
-4.54069e-07
5.41643e-07
2.17527e-07
-4.74315e-07
4.23641e-07
1.59023e-07
-4.68929e-07
2.40311e-07
9.02178e-08
-6.0824e-07
8.75643e-08
5.17467e-08
-4.5244e-07
2.58284e-07
-4.15414e-08
-3.23706e-07
2.13292e-07
-6.25528e-08
-2.27914e-07
1.72982e-07
-6.31616e-08
-1.51847e-07
1.39218e-07
-5.94441e-08
-8.92107e-08
1.14603e-07
-5.34053e-08
-3.68632e-08
9.95692e-08
-4.63997e-08
-1.28322e-09
9.18548e-08
-3.12466e-08
8.52251e-08
2.92322e-09
-4.76889e-10
4.55623e-08
4.62517e-09
2.31887e-08
4.93185e-08
-1.92635e-08
5.83203e-08
5.28113e-08
-2.99481e-08
1.00372e-07
5.928e-08
-3.53283e-08
1.51233e-07
6.99962e-08
-4.12354e-08
2.15072e-07
8.52697e-08
-4.91078e-08
2.97265e-07
1.04705e-07
-5.85765e-08
4.01476e-07
1.26798e-07
-6.63646e-08
5.29815e-07
1.46646e-07
-6.79002e-08
6.75211e-07
1.62018e-07
-5.22519e-08
6.73126e-07
1.05809e-07
-1.79581e-08
6.60943e-07
1.93324e-07
5.10216e-08
6.01692e-07
3.05443e-07
1.70501e-07
4.96272e-07
3.89896e-07
2.51292e-07
3.71987e-07
4.54739e-07
2.94294e-07
2.45366e-07
4.97281e-07
3.13055e-07
1.23995e-07
5.23957e-07
3.17865e-07
6.77546e-09
5.36755e-07
3.18548e-07
-1.10402e-07
5.37244e-07
3.18612e-07
-2.31639e-07
5.25428e-07
3.18066e-07
-3.58051e-07
4.9975e-07
3.13455e-07
-4.82145e-07
4.58203e-07
2.95081e-07
-5.8771e-07
3.9431e-07
2.52898e-07
-6.47803e-07
3.10522e-07
1.73212e-07
-6.61721e-07
1.98669e-07
5.55605e-08
-6.67816e-07
1.08655e-07
-1.49959e-08
-5.23535e-07
1.66149e-07
-5.21458e-08
-3.91588e-07
1.52453e-07
-7.11087e-08
-2.80352e-07
1.34497e-07
-7.27504e-08
-1.87919e-07
1.14877e-07
-6.80916e-08
-1.11271e-07
9.89694e-08
-6.1014e-08
-4.75628e-08
8.86022e-08
-5.27416e-08
-3.60657e-09
8.30892e-08
-3.51907e-08
7.73322e-08
4.28638e-09
2.578e-10
3.97945e-08
5.50994e-09
2.70712e-08
4.31042e-08
-2.0599e-08
6.65961e-08
4.5703e-08
-3.24166e-08
1.13938e-07
5.04191e-08
-3.84811e-08
1.71142e-07
5.80682e-08
-4.52759e-08
2.42402e-07
6.85432e-08
-5.45336e-08
3.32137e-07
8.10057e-08
-6.60352e-08
4.41918e-07
9.42345e-08
-7.72177e-08
5.67439e-07
1.04542e-07
-8.34167e-08
6.92013e-07
1.13583e-07
-7.61389e-08
7.43066e-07
1.02974e-07
-4.82187e-08
7.52968e-07
1.53336e-07
3.00862e-08
6.83274e-07
2.19842e-07
1.55296e-07
5.61364e-07
2.74555e-07
2.37251e-07
4.17386e-07
3.17387e-07
2.8133e-07
2.73819e-07
3.45493e-07
2.95355e-07
1.37854e-07
3.63372e-07
2.96549e-07
7.29305e-09
3.72007e-07
2.9531e-07
-1.23218e-07
3.72417e-07
2.95338e-07
-2.59029e-07
3.64596e-07
2.96643e-07
-4.02372e-07
3.47511e-07
2.95582e-07
-5.46205e-07
3.20152e-07
2.81884e-07
-6.68487e-07
2.77994e-07
2.38598e-07
-7.39464e-07
2.23738e-07
1.57761e-07
-7.32711e-07
1.57499e-07
3.44173e-08
-6.8486e-07
1.06358e-07
-4.55551e-08
-5.60513e-07
1.17822e-07
-7.602e-08
-4.31276e-07
1.09996e-07
-8.67799e-08
-3.14008e-07
1.0131e-07
-8.40815e-08
-2.12997e-07
9.02931e-08
-7.64274e-08
-1.27323e-07
8.09464e-08
-6.76514e-08
-5.53539e-08
7.46551e-08
-5.80215e-08
-5.13957e-09
7.1208e-08
-3.83331e-08
6.64758e-08
5.71678e-09
5.14121e-10
3.2965e-08
6.3154e-09
2.96555e-08
3.56529e-08
-2.16901e-08
7.22694e-08
3.74883e-08
-3.43992e-08
1.22981e-07
4.0711e-08
-4.10033e-08
1.83669e-07
4.58671e-08
-4.84875e-08
2.5829e-07
5.27448e-08
-5.88219e-08
3.50576e-07
6.06083e-08
-7.18886e-08
4.61384e-07
6.88087e-08
-8.53825e-08
5.84726e-07
7.54504e-08
-9.42501e-08
7.04896e-07
8.33885e-08
-8.99755e-08
7.82642e-07
8.7769e-08
-6.25415e-08
8.04885e-07
1.19085e-07
1.20093e-08
7.3003e-07
1.60044e-07
1.34653e-07
5.99308e-07
1.94903e-07
2.10373e-07
4.44731e-07
2.2254e-07
2.49424e-07
2.91479e-07
2.41077e-07
2.57668e-07
1.46648e-07
2.53043e-07
2.55161e-07
7.70451e-09
2.58914e-07
2.52036e-07
-1.31198e-07
2.59291e-07
2.52028e-07
-2.75905e-07
2.54161e-07
2.55142e-07
-4.28988e-07
2.42894e-07
2.57701e-07
-5.83518e-07
2.24983e-07
2.49699e-07
-7.14787e-07
1.9788e-07
2.11383e-07
-7.91222e-07
1.634e-07
1.36773e-07
-7.72595e-07
1.22816e-07
1.60564e-08
-6.97475e-07
9.12985e-08
-6.00602e-08
-5.7716e-07
8.75269e-08
-9.00208e-08
-4.49822e-07
8.04772e-08
-9.78183e-08
-3.31018e-07
7.51355e-08
-9.26295e-08
-2.26572e-07
6.8755e-08
-8.29079e-08
-1.36279e-07
6.34272e-08
-7.27742e-08
-5.94545e-08
5.98544e-08
-6.20236e-08
-5.4648e-09
5.78377e-08
-4.06194e-08
5.41087e-08
6.90231e-09
6.20437e-10
2.5398e-08
6.94655e-09
3.13596e-08
2.74225e-08
-2.25087e-08
7.61134e-08
2.86333e-08
-3.58988e-08
1.29033e-07
3.0694e-08
-4.29024e-08
1.91794e-07
3.39934e-08
-5.08871e-08
2.68154e-07
3.83847e-08
-6.19998e-08
3.61524e-07
4.34296e-08
-7.61917e-08
4.72658e-07
4.89264e-08
-9.12517e-08
5.95819e-07
5.41325e-08
-1.01843e-07
7.17241e-07
6.13141e-08
-9.93482e-08
8.07693e-07
6.91967e-08
-7.18797e-08
8.36537e-07
8.97698e-08
4.71275e-10
7.59578e-07
1.15298e-07
1.21705e-07
6.23706e-07
1.37689e-07
1.93085e-07
4.62467e-07
1.55639e-07
2.28141e-07
3.03017e-07
1.68026e-07
2.32501e-07
1.52462e-07
1.76148e-07
2.27451e-07
8.0791e-09
1.80239e-07
2.23057e-07
-1.36278e-07
1.80619e-07
2.23029e-07
-2.86754e-07
1.77268e-07
2.27369e-07
-4.4611e-07
1.69827e-07
2.32423e-07
-6.07409e-07
1.58025e-07
2.28256e-07
-7.43968e-07
1.40541e-07
1.93899e-07
-8.22626e-07
1.18452e-07
1.23605e-07
-7.97731e-07
9.30607e-08
4.8597e-09
-7.0952e-07
7.26315e-08
-6.95442e-08
-5.87656e-07
6.51679e-08
-9.95044e-08
-4.60188e-07
5.85876e-08
-1.05578e-07
-3.40591e-07
5.43177e-08
-9.87795e-08
-2.34355e-07
5.01617e-08
-8.7643e-08
-1.41397e-07
4.69747e-08
-7.65049e-08
-6.15869e-08
4.49515e-08
-6.49075e-08
-5.31253e-09
4.37901e-08
-4.22267e-08
4.09995e-08
7.79669e-09
6.11171e-10
1.74183e-08
7.36851e-09
3.23576e-08
1.87711e-08
-2.3095e-08
7.84774e-08
1.94791e-08
-3.69656e-08
1.32756e-07
2.06534e-08
-4.42379e-08
1.9672e-07
2.25733e-08
-5.25443e-08
2.74043e-07
2.52052e-08
-6.41434e-08
3.68093e-07
2.8398e-08
-7.90186e-08
4.79799e-07
3.21895e-08
-9.49684e-08
6.03987e-07
3.64307e-08
-1.06487e-07
7.27693e-07
4.24082e-08
-1.048e-07
8.24556e-07
4.98065e-08
-7.74722e-08
8.569e-07
6.28264e-08
-5.40109e-09
7.78689e-07
7.81719e-08
1.15337e-07
6.39562e-07
9.18679e-08
1.84949e-07
4.74191e-07
1.02941e-07
2.18068e-07
3.10792e-07
1.10868e-07
2.20556e-07
1.56476e-07
1.1617e-07
2.14294e-07
8.45125e-09
1.18962e-07
2.09302e-07
-1.39568e-07
1.19371e-07
2.09268e-07
-2.93867e-07
1.17374e-07
2.14193e-07
-4.57269e-07
1.12787e-07
2.20443e-07
-6.22827e-07
1.05455e-07
2.18128e-07
-7.62795e-07
9.48185e-08
1.85691e-07
-8.42925e-07
8.13944e-08
1.17188e-07
-8.14388e-07
6.6206e-08
-1.68248e-09
-7.19694e-07
5.31432e-08
-7.52053e-08
-5.95356e-07
4.59025e-08
-1.05073e-07
-4.66601e-07
4.02229e-08
-1.1039e-07
-3.46065e-07
3.65177e-08
-1.02735e-07
-2.38639e-07
3.35315e-08
-9.07963e-08
-1.44093e-07
3.14675e-08
-7.90389e-08
-6.25156e-08
3.02618e-08
-6.68876e-08
-4.95827e-09
2.95744e-08
-4.33416e-08
2.76914e-08
8.34983e-09
5.68192e-10
9.26272e-09
7.58744e-09
3.28874e-08
9.94053e-09
-2.34887e-08
7.98102e-08
1.02094e-08
-3.7653e-08
1.34905e-07
1.06389e-08
-4.50806e-08
1.9963e-07
1.14124e-08
-5.35642e-08
2.77647e-07
1.26136e-08
-6.54247e-08
3.72362e-07
1.43441e-08
-8.06609e-08
4.8484e-07
1.67713e-08
-9.70604e-08
6.10229e-07
2.00696e-08
-1.09028e-07
7.35766e-07
2.45455e-08
-1.07674e-07
8.35763e-07
3.01803e-08
-8.0371e-08
8.69792e-07
3.70851e-08
-8.28736e-09
7.90763e-07
4.41532e-08
1.13048e-07
6.49638e-07
5.05918e-08
1.82401e-07
4.81773e-07
5.58434e-08
2.14963e-07
3.15915e-07
5.98915e-08
2.16835e-07
1.59214e-07
6.27202e-08
2.10151e-07
8.85021e-09
6.43747e-08
2.04951e-07
-1.41535e-07
6.48377e-08
2.04919e-07
-2.98294e-07
6.4079e-08
2.10054e-07
-4.64277e-07
6.20446e-08
2.16725e-07
-6.32485e-07
5.86374e-08
2.15025e-07
-7.7461e-07
5.38079e-08
1.83136e-07
-8.55686e-07
4.75651e-08
1.14905e-07
-8.25591e-07
4.04681e-08
-4.35677e-09
-7.27666e-07
3.33825e-08
-7.81641e-08
-6.01356e-07
2.7663e-08
-1.08071e-07
-4.71212e-07
2.31775e-08
-1.13098e-07
-3.49657e-07
2.00019e-08
-1.05039e-07
-2.41246e-07
1.78204e-08
-9.26999e-08
-1.45633e-07
1.64681e-08
-8.06139e-08
-6.29769e-08
1.57586e-08
-6.8153e-08
-4.68841e-09
1.53777e-08
-4.40917e-08
1.43921e-08
8.61091e-09
5.20703e-10
1.13676e-09
7.60525e-09
3.30402e-08
1.1349e-09
-2.37139e-08
8.02829e-08
9.6095e-10
-3.79943e-08
1.35754e-07
6.40737e-10
-4.54733e-08
2.00919e-07
2.53858e-10
-5.40066e-08
2.79477e-07
-1.10721e-11
-6.59326e-08
3.74879e-07
2.00019e-10
-8.1258e-08
4.88214e-07
1.19778e-09
-9.77614e-08
6.14616e-07
3.49468e-09
-1.09827e-07
7.41183e-07
6.51863e-09
-1.0854e-07
8.42021e-07
1.06074e-08
-8.12654e-08
8.76235e-07
1.1955e-08
-9.08383e-09
7.96689e-07
1.09732e-08
1.12726e-07
6.54631e-07
1.0232e-08
1.82418e-07
4.8568e-07
9.65621e-09
2.15138e-07
3.18684e-07
9.81768e-09
2.1707e-07
1.60833e-07
1.01761e-08
2.10395e-07
9.29878e-09
1.07124e-08
2.05196e-07
-1.42289e-07
1.12589e-08
2.05166e-07
-3.00295e-07
1.17809e-08
2.10304e-07
-4.67571e-07
1.23529e-08
2.16968e-07
-6.37068e-07
1.29301e-08
2.15204e-07
-7.80345e-07
1.39411e-08
1.83144e-07
-8.62133e-07
1.48016e-08
1.14551e-07
-8.31962e-07
1.55258e-08
-5.22835e-09
-7.33166e-07
1.37662e-08
-7.91794e-08
-6.05755e-07
9.34616e-09
-1.09094e-07
-4.74502e-07
6.00853e-09
-1.14084e-07
-3.5198e-07
3.42905e-09
-1.05949e-07
-2.42753e-07
2.1202e-09
-9.35265e-08
-1.4645e-07
1.52652e-09
-8.13609e-08
-6.32234e-08
1.34008e-09
-6.88085e-08
-4.58414e-09
1.28322e-09
-4.45447e-08
1.20856e-09
8.59942e-09
4.67721e-10
-6.75263e-09
7.42167e-09
3.2813e-08
-7.43589e-09
-2.37745e-08
7.98898e-08
-8.12002e-09
-3.79958e-08
1.35295e-07
-9.33939e-09
-4.54253e-08
2.00572e-07
-1.11352e-08
-5.38878e-08
2.79491e-07
-1.32291e-08
-6.57011e-08
3.75559e-07
-1.50154e-08
-8.08524e-08
4.89832e-07
-1.59592e-08
-9.71154e-08
6.17128e-07
-1.4864e-08
-1.08938e-07
7.44066e-07
-1.29496e-08
-1.0747e-07
8.43583e-07
-8.63457e-09
-8.02747e-08
8.76358e-07
-1.27731e-08
-8.0472e-09
7.96487e-07
-2.31733e-08
1.14017e-07
6.54519e-07
-3.23244e-08
1.84525e-07
4.85894e-07
-3.97493e-08
2.1803e-07
3.19096e-07
-4.40292e-08
2.20646e-07
1.61341e-07
-4.64442e-08
2.14375e-07
9.82046e-09
-4.71324e-08
2.09366e-07
-1.41793e-07
-4.64615e-08
2.09334e-07
-2.9982e-07
-4.4468e-08
2.14277e-07
-4.67091e-07
-4.09011e-08
2.20524e-07
-6.36524e-07
-3.56932e-08
2.18056e-07
-7.80003e-07
-2.77561e-08
1.85177e-07
-8.62398e-07
-1.85355e-08
1.15732e-07
-8.33798e-07
-8.71623e-09
-4.35855e-09
-7.36332e-07
-5.32037e-09
-7.83796e-08
-6.08538e-07
-1.0204e-08
-1.08244e-07
-4.76393e-07
-1.27151e-08
-1.13421e-07
-3.5296e-07
-1.44821e-08
-1.05521e-07
-2.43113e-07
-1.44118e-08
-9.33157e-08
-1.46517e-07
-1.37606e-08
-8.1308e-08
-6.32375e-08
-1.30661e-08
-6.88738e-08
-4.63328e-09
-1.26069e-08
-4.47141e-08
-1.17364e-08
8.31172e-09
3.81877e-10
-1.41668e-08
7.03232e-09
3.2113e-08
-1.55101e-08
-2.36569e-08
7.84521e-08
-1.6821e-08
-3.76381e-08
1.33219e-07
-1.91964e-08
-4.49104e-08
1.98109e-07
-2.28592e-08
-5.31652e-08
2.77046e-07
-2.75174e-08
-6.46493e-08
3.73698e-07
-3.23345e-08
-7.93326e-08
4.89093e-07
-3.6386e-08
-9.4968e-08
6.17591e-07
-3.72355e-08
-1.06127e-07
7.44888e-07
-3.61717e-08
-1.04075e-07
8.40348e-07
-2.71939e-08
-7.69006e-08
8.69324e-07
-3.74369e-08
-4.3119e-09
7.89278e-07
-6.13849e-08
1.18258e-07
6.48588e-07
-8.22919e-08
1.90657e-07
4.81958e-07
-9.91806e-08
2.26062e-07
3.16892e-07
-1.09417e-07
2.30454e-07
1.60646e-07
-1.1547e-07
2.25271e-07
1.04632e-08
-1.17723e-07
2.20773e-07
-1.39857e-07
-1.16855e-07
2.20715e-07
-2.96516e-07
-1.12899e-07
2.2509e-07
-4.62289e-07
-1.05316e-07
2.30189e-07
-6.30073e-07
-9.37899e-08
2.25881e-07
-7.7268e-07
-7.6188e-08
1.91039e-07
-8.55693e-07
-5.51639e-08
1.19641e-07
-8.31003e-07
-3.21518e-08
-1.2543e-09
-7.37593e-07
-2.33815e-08
-7.53488e-08
-6.09471e-07
-3.31308e-08
-1.05195e-07
-4.76219e-07
-3.50375e-08
-1.1093e-07
-3.51839e-07
-3.52225e-08
-1.0364e-07
-2.41668e-07
-3.25932e-08
-9.19893e-08
-1.45367e-07
-2.96722e-08
-8.0389e-08
-6.27488e-08
-2.73946e-08
-6.829e-08
-4.73899e-09
-2.60553e-08
-4.45614e-08
-2.41947e-08
7.71921e-09
1.84911e-10
-2.07905e-08
6.4388e-09
3.07082e-08
-2.26937e-08
-2.33397e-08
7.5534e-08
-2.47604e-08
-3.68864e-08
1.28784e-07
-2.85662e-08
-4.38801e-08
1.92335e-07
-3.46461e-08
-5.17641e-08
2.70364e-07
-4.28923e-08
-6.26543e-08
3.66991e-07
-5.24934e-08
-7.64678e-08
4.83635e-07
-6.21667e-08
-9.08636e-08
6.14754e-07
-6.77038e-08
-1.00651e-07
7.44346e-07
-6.86265e-08
-9.71369e-08
8.3086e-07
-4.3442e-08
-7.02662e-08
8.52044e-07
-6.17369e-08
3.1161e-09
7.71662e-07
-1.07969e-07
1.26966e-07
6.33975e-07
-1.4757e-07
2.02965e-07
4.71977e-07
-1.78948e-07
2.41766e-07
3.11011e-07
-1.98063e-07
2.49612e-07
1.58303e-07
-2.09385e-07
2.46623e-07
1.12817e-08
-2.13876e-07
2.43175e-07
-1.35923e-07
-2.12698e-07
2.43048e-07
-2.89196e-07
-2.0586e-07
2.46233e-07
-4.51133e-07
-1.92367e-07
2.48987e-07
-6.14713e-07
-1.71295e-07
2.41085e-07
-7.54843e-07
-1.38789e-07
2.02732e-07
-8.38793e-07
-9.89049e-08
1.27691e-07
-8.22332e-07
-5.45059e-08
5.89262e-09
-7.37602e-07
-3.88798e-08
-6.92312e-08
-6.07221e-07
-6.47087e-08
-9.88028e-08
-4.71544e-07
-6.47923e-08
-1.05923e-07
-3.46239e-07
-6.06601e-08
-9.98678e-08
-2.36558e-07
-5.29812e-08
-8.92923e-08
-1.41747e-07
-4.60554e-08
-7.84277e-08
-6.10397e-08
-4.11844e-08
-6.69178e-08
-4.61597e-09
-3.8488e-08
-4.39911e-08
-3.55773e-08
6.76668e-09
-2.36682e-10
-2.62627e-08
5.70889e-09
2.84604e-08
-2.85636e-08
-2.28271e-08
7.08813e-08
-3.14611e-08
-3.57202e-08
1.2147e-07
-3.68453e-08
-4.23098e-08
1.82215e-07
-4.57268e-08
-4.9664e-08
2.57517e-07
-5.84802e-08
-5.97144e-08
3.52232e-07
-7.48993e-08
-7.23093e-08
4.68927e-07
-9.39612e-08
-8.49e-08
6.04484e-07
-1.10575e-07
-9.26858e-08
7.43068e-07
-1.20118e-07
-8.70933e-08
8.10571e-07
-5.19433e-08
-5.90011e-08
8.15787e-07
-8.39619e-08
1.70084e-08
7.37326e-07
-1.70442e-07
1.40935e-07
6.06527e-07
-2.37836e-07
2.21065e-07
4.53165e-07
-2.89183e-07
2.63597e-07
2.9972e-07
-3.20854e-07
2.76236e-07
1.53524e-07
-3.39392e-07
2.76203e-07
1.24027e-08
-3.46951e-07
2.74196e-07
-1.28936e-07
-3.45304e-07
2.73944e-07
-2.75826e-07
-3.344e-07
2.7543e-07
-4.30512e-07
-3.12645e-07
2.74965e-07
-5.86009e-07
-2.77841e-07
2.62043e-07
-7.20014e-07
-2.24571e-07
2.19788e-07
-8.03287e-07
-1.56264e-07
1.40631e-07
-8.03194e-07
-7.32462e-08
1.86471e-08
-7.36762e-07
-4.66294e-08
-5.86822e-08
-5.97622e-07
-1.14172e-07
-8.96767e-08
-4.57834e-07
-1.05922e-07
-9.86583e-08
-3.3292e-07
-9.12599e-08
-9.43136e-08
-2.25788e-07
-7.48769e-08
-8.52368e-08
-1.34529e-07
-6.19684e-08
-7.53457e-08
-5.753e-08
-5.35558e-08
-6.46275e-08
-4.06229e-09
-4.90875e-08
-4.28682e-08
-4.51463e-08
5.50674e-09
-1.20909e-09
-2.99559e-08
4.90225e-09
2.49978e-08
-3.26281e-08
-2.21424e-08
6.38025e-08
-3.61065e-08
-3.41593e-08
1.09874e-07
-4.26951e-08
-4.02216e-08
1.64953e-07
-5.39318e-08
-4.68738e-08
2.33275e-07
-7.09994e-08
-5.58035e-08
3.20394e-07
-9.52749e-08
-6.67425e-08
4.30921e-07
-1.28061e-07
-7.64272e-08
5.69528e-07
-1.68914e-07
-8.02678e-08
7.40846e-07
-2.24544e-07
-6.68923e-08
7.73067e-07
-4.96623e-08
-3.45025e-08
7.37363e-07
-8.00745e-08
3.18173e-08
6.68552e-07
-2.50519e-07