/*--------------------------------*- C++ -*----------------------------------*\
| =========                 |                                                 |
| \\      /  F ield         | OpenFOAM: The Open Source CFD Toolbox           |
|  \\    /   O peration     | Version:  2112                                  |
|   \\  /    A nd           | Website:  www.openfoam.com                      |
|    \\/     M anipulation  |                                                 |
\*---------------------------------------------------------------------------*/
FoamFile
{
    version     2.0;
    format      ascii;
    arch        "LSB;label=32;scalar=64";
    class       volVectorField;
    location    "3.7";
    object      U;
}
// * * * * * * * * * * * * * * * * * * * * * * * * * * * * * * * * * * * * * //

dimensions      [0 1 -1 0 0 0 0];

internalField   nonuniform List<vector> 
64906
(
(-2.15016e-08 1.46737e-08 -6.958e-07)
(1.99176e-06 -1.64616e-06 -7.2253e-07)
(5.79211e-06 -3.35061e-06 5.80072e-08)
(1.01362e-05 -4.79984e-06 1.08088e-06)
(1.48326e-05 -5.85622e-06 1.97058e-06)
(1.96035e-05 -6.6627e-06 2.65059e-06)
(2.4313e-05 -7.3581e-06 3.17057e-06)
(2.87953e-05 -7.97365e-06 3.67518e-06)
(3.29003e-05 -8.53904e-06 4.20343e-06)
(3.61545e-05 -8.9557e-06 4.77757e-06)
(3.81273e-05 -9.29405e-06 5.35811e-06)
(3.80724e-05 -9.29465e-06 5.99225e-06)
(3.59808e-05 -9.31085e-06 6.72864e-06)
(3.2331e-05 -9.36669e-06 7.45842e-06)
(2.72609e-05 -9.59447e-06 8.08453e-06)
(2.12041e-05 -9.82079e-06 8.58696e-06)
(1.4435e-05 -1.003e-05 8.93122e-06)
(7.28933e-06 -1.01582e-05 9.1114e-06)
(2.75647e-08 -1.01963e-05 9.12136e-06)
(-7.06054e-06 -1.01448e-05 8.96184e-06)
(-1.37151e-05 -1.00135e-05 8.63906e-06)
(-1.96027e-05 -9.86727e-06 8.15921e-06)
(-2.44564e-05 -9.72028e-06 7.55739e-06)
(-2.7855e-05 -9.74532e-06 6.85326e-06)
(-2.96858e-05 -9.78714e-06 6.1508e-06)
(-2.94318e-05 -9.79607e-06 5.56678e-06)
(-2.71268e-05 -9.46769e-06 4.99934e-06)
(-2.35684e-05 -9.01106e-06 4.39426e-06)
(-1.914e-05 -8.28159e-06 3.73833e-06)
(-1.43702e-05 -7.30641e-06 2.85294e-06)
(-9.58983e-06 -5.91545e-06 1.65342e-06)
(-5.30075e-06 -3.96674e-06 2.2357e-07)
(-1.67367e-06 -1.59532e-06 -8.93834e-07)
(2.7992e-07 3.80151e-07 -1.03777e-06)
(-2.59233e-06 4.32277e-06 -1.5549e-06)
(-1.469e-06 3.04393e-06 -6.28695e-06)
(3.69822e-06 1.09914e-06 -7.75901e-06)
(8.99761e-06 -6.75811e-07 -8.05805e-06)
(1.42931e-05 -1.76487e-06 -8.27561e-06)
(1.9365e-05 -2.18627e-06 -8.7457e-06)
(2.42645e-05 -2.00631e-06 -9.56454e-06)
(2.89098e-05 -1.15437e-06 -1.07472e-05)
(3.32121e-05 4.52343e-07 -1.23046e-05)
(3.66406e-05 3.11157e-06 -1.42385e-05)
(3.88657e-05 6.58941e-06 -1.64936e-05)
(3.90666e-05 1.10643e-05 -1.89567e-05)
(3.69986e-05 1.49864e-05 -2.13684e-05)
(3.31535e-05 1.83559e-05 -2.34612e-05)
(2.78417e-05 2.07464e-05 -2.5146e-05)
(2.16217e-05 2.24661e-05 -2.64185e-05)
(1.47065e-05 2.35176e-05 -2.72739e-05)
(7.44626e-06 2.40212e-05 -2.77201e-05)
(7.11049e-08 2.39922e-05 -2.77552e-05)
(-7.12642e-06 2.34306e-05 -2.73789e-05)
(-1.39184e-05 2.23215e-05 -2.6593e-05)
(-1.99561e-05 2.05453e-05 -2.53903e-05)
(-2.50339e-05 1.81073e-05 -2.3777e-05)
(-2.85893e-05 1.47055e-05 -2.17616e-05)
(-3.03204e-05 1.08013e-05 -1.94473e-05)
(-2.97708e-05 6.41462e-06 -1.71245e-05)
(-2.71903e-05 3.12351e-06 -1.50362e-05)
(-2.33537e-05 7.93514e-07 -1.33339e-05)
(-1.85448e-05 -2.16164e-07 -1.21014e-05)
(-1.32706e-05 -1.05836e-07 -1.13497e-05)
(-7.60595e-06 1.15351e-06 -1.09589e-05)
(-1.86502e-06 3.44693e-06 -1.04907e-05)
(3.5222e-06 5.96635e-06 -8.62373e-06)
(3.90795e-06 7.27052e-06 -2.40278e-06)
(-4.43657e-06 1.36981e-05 -1.35488e-06)
(-4.2097e-06 1.45492e-05 -8.10942e-06)
(1.63921e-06 1.38359e-05 -1.04197e-05)
(7.72534e-06 1.32303e-05 -1.12159e-05)
(1.38516e-05 1.35936e-05 -1.18652e-05)
(1.9687e-05 1.51351e-05 -1.2803e-05)
(2.53995e-05 1.8015e-05 -1.42063e-05)
(3.09934e-05 2.25567e-05 -1.61585e-05)
(3.65131e-05 2.91153e-05 -1.87067e-05)
(4.11904e-05 3.84188e-05 -2.18801e-05)
(4.45657e-05 4.99916e-05 -2.55794e-05)
(4.48789e-05 6.39514e-05 -2.9605e-05)
(4.19693e-05 7.6182e-05 -3.34314e-05)
(3.71571e-05 8.68054e-05 -3.67724e-05)
(3.07789e-05 9.48428e-05 -3.94864e-05)
(2.36479e-05 0.000100844 -4.15447e-05)
(1.5869e-05 0.000104729 -4.29276e-05)
(7.81561e-06 0.000106688 -4.36486e-05)
(-3.46696e-07 0.000106724 -4.37025e-05)
(-8.33432e-06 0.000104838 -4.30891e-05)
(-1.59837e-05 0.000101029 -4.18132e-05)
(-2.29185e-05 9.51104e-05 -3.98628e-05)
(-2.90396e-05 8.71807e-05 -3.72601e-05)
(-3.35246e-05 7.67016e-05 -3.40405e-05)
(-3.6052e-05 6.46995e-05 -3.03569e-05)
(-3.52873e-05 5.1057e-05 -2.65135e-05)
(-3.13986e-05 4.00339e-05 -2.30507e-05)
(-2.61009e-05 3.14794e-05 -2.01869e-05)
(-1.97403e-05 2.60057e-05 -1.80337e-05)
(-1.30423e-05 2.29646e-05 -1.65339e-05)
(-5.94116e-06 2.20211e-05 -1.54693e-05)
(9.77073e-07 2.26345e-05 -1.42745e-05)
(7.32482e-06 2.33328e-05 -1.11956e-05)
(6.48059e-06 2.1786e-05 -2.28144e-06)
(-5.75123e-06 2.38677e-05 -6.78163e-07)
(-6.03323e-06 2.60876e-05 -8.35317e-06)
(5.98467e-07 2.64021e-05 -1.09819e-05)
(7.71565e-06 2.70939e-05 -1.19203e-05)
(1.5071e-05 2.91235e-05 -1.2711e-05)
(2.22446e-05 3.28214e-05 -1.38425e-05)
(2.95618e-05 3.85356e-05 -1.55335e-05)
(3.71491e-05 4.69156e-05 -1.79055e-05)
(4.52923e-05 5.87324e-05 -2.10147e-05)
(5.27304e-05 7.55106e-05 -2.49174e-05)
(5.87458e-05 9.66413e-05 -2.94615e-05)
(5.94017e-05 0.000122714 -3.44954e-05)
(5.4538e-05 0.000145055 -3.92286e-05)
(4.73667e-05 0.000164162 -4.33504e-05)
(3.84246e-05 0.000178432 -4.66896e-05)
(2.90344e-05 0.000189109 -4.92019e-05)
(1.90456e-05 0.000196046 -5.0872e-05)
(8.88972e-06 0.000199571 -5.17388e-05)
(-1.37615e-06 0.000199675 -5.17985e-05)
(-1.14642e-05 0.000196357 -5.10505e-05)
(-2.13184e-05 0.000189631 -4.94976e-05)
(-3.04968e-05 0.000179168 -4.71024e-05)
(-3.91519e-05 0.000165143 -4.38822e-05)
(-4.5934e-05 0.000146327 -3.9889e-05)
(-5.03261e-05 0.000124411 -3.53071e-05)
(-4.90587e-05 9.88943e-05 -3.04655e-05)
(-4.23261e-05 7.86564e-05 -2.61795e-05)
(-3.40186e-05 6.29681e-05 -2.2613e-05)
(-2.46655e-05 5.26082e-05 -1.99244e-05)
(-1.55123e-05 4.6107e-05 -1.80213e-05)
(-6.28149e-06 4.26969e-05 -1.66553e-05)
(2.25814e-06 4.14879e-05 -1.52103e-05)
(9.75707e-06 4.08948e-05 -1.1678e-05)
(8.27311e-06 3.75513e-05 -1.50056e-06)
(-6.56208e-06 3.43852e-05 9.31393e-08)
(-6.86073e-06 3.77071e-05 -8.36428e-06)
(9.82956e-07 3.8958e-05 -1.12556e-05)
(9.55075e-06 4.0995e-05 -1.22819e-05)
(1.86151e-05 4.4831e-05 -1.31882e-05)
(2.77454e-05 5.08481e-05 -1.45304e-05)
(3.75332e-05 5.95315e-05 -1.65654e-05)
(4.83503e-05 7.18979e-05 -1.94524e-05)
(6.10239e-05 8.9369e-05 -2.32241e-05)
(7.35335e-05 0.000114979 -2.79764e-05)
(8.493e-05 0.000148546 -3.34409e-05)
(8.62326e-05 0.000192512 -3.97887e-05)
(7.72082e-05 0.0002282 -4.56497e-05)
(6.55409e-05 0.000257894 -5.08058e-05)
(5.19937e-05 0.000279439 -5.49934e-05)
(3.86659e-05 0.000295584 -5.80755e-05)
(2.47779e-05 0.000306057 -6.00873e-05)
(1.08777e-05 0.000311408 -6.11234e-05)
(-3.15377e-06 0.00031159 -6.11874e-05)
(-1.69872e-05 0.000306598 -6.0278e-05)
(-3.07421e-05 0.000296482 -5.83897e-05)
(-4.38478e-05 0.000280681 -5.54293e-05)
(-5.70814e-05 0.000259507 -5.13618e-05)
(-6.82824e-05 0.00023022 -4.63344e-05)
(-7.67211e-05 0.00019512 -4.06266e-05)
(-7.45838e-05 0.000151896 -3.44754e-05)
(-6.22304e-05 0.000119602 -2.92898e-05)
(-4.86195e-05 9.53833e-05 -2.48996e-05)
(-3.43676e-05 7.96899e-05 -2.15831e-05)
(-2.15279e-05 6.95447e-05 -1.92096e-05)
(-9.30666e-06 6.35887e-05 -1.75396e-05)
(1.53401e-06 6.05886e-05 -1.58779e-05)
(1.08419e-05 5.88524e-05 -1.19311e-05)
(9.40422e-06 5.40705e-05 -5.93641e-07)
(-7.10129e-06 4.44462e-05 8.61317e-07)
(-6.92379e-06 4.8615e-05 -8.49501e-06)
(2.73314e-06 5.06712e-05 -1.17105e-05)
(1.33035e-05 5.40036e-05 -1.28538e-05)
(2.46229e-05 5.96634e-05 -1.39205e-05)
(3.63093e-05 6.79871e-05 -1.55612e-05)
(4.9347e-05 7.94758e-05 -1.80688e-05)
(6.45696e-05 9.54267e-05 -2.16373e-05)
(8.39874e-05 0.000118158 -2.61862e-05)
(0.000104874 0.000153425 -3.18285e-05)
(0.000126961 0.000202587 -3.77657e-05)
(0.00012966 0.000274777 -4.56245e-05)
(0.000112324 0.000327991 -5.28285e-05)
(9.31137e-05 0.000370339 -5.95147e-05)
(7.24409e-05 0.000399803 -6.50367e-05)
(5.33171e-05 0.000422003 -6.88889e-05)
(3.35502e-05 0.000436355 -7.13314e-05)
(1.39567e-05 0.000443734 -7.25757e-05)
(-5.83812e-06 0.000444004 -7.26457e-05)
(-2.53739e-05 0.000437154 -7.15394e-05)
(-4.50272e-05 0.000423312 -6.92297e-05)
(-6.39416e-05 0.000401582 -6.55068e-05)
(-8.43022e-05 0.000372585 -6.01081e-05)
(-0.000102975 0.000330699 -5.35529e-05)
(-0.000119611 0.000278186 -4.65089e-05)
(-0.000115752 0.000206826 -3.88433e-05)
(-9.24199e-05 0.000159461 -3.32129e-05)
(-7.02645e-05 0.000125846 -2.79669e-05)
(-4.8884e-05 0.000105161 -2.39262e-05)
(-3.11215e-05 9.17484e-05 -2.09435e-05)
(-1.50028e-05 8.34749e-05 -1.88754e-05)
(-1.04335e-06 7.8886e-05 -1.69139e-05)
(1.09513e-05 7.62121e-05 -1.24239e-05)
(1.02219e-05 7.03196e-05 3.04819e-07)
(-7.52023e-06 5.37013e-05 1.67999e-06)
(-6.4051e-06 5.85706e-05 -8.82321e-06)
(5.78851e-06 6.14782e-05 -1.24799e-05)
(1.90176e-05 6.61759e-05 -1.37988e-05)
(3.3185e-05 7.38493e-05 -1.50882e-05)
(4.79432e-05 8.46419e-05 -1.71185e-05)
(6.47154e-05 9.88096e-05 -2.02097e-05)
(8.50479e-05 0.000117406 -2.45841e-05)
(0.000113329 0.000143555 -2.99251e-05)
(0.000146546 0.000186216 -3.61522e-05)
(0.000189843 0.000252938 -4.12391e-05)
(0.000195995 0.000372335 -5.05124e-05)
(0.000161714 0.000447933 -5.87624e-05)
(0.000130742 0.00050538 -6.76633e-05)
(0.000100169 0.000543814 -7.5306e-05)
(7.34658e-05 0.000573348 -7.99912e-05)
(4.56784e-05 0.000592479 -8.28925e-05)
(1.82578e-05 0.000602382 -8.43508e-05)
(-9.52633e-06 0.000602757 -8.44287e-05)
(-3.6912e-05 0.000593587 -8.31235e-05)
(-6.46369e-05 0.00057515 -8.03674e-05)
(-9.119e-05 0.000546218 -7.5824e-05)
(-0.000121521 0.000508321 -6.83105e-05)
(-0.000151918 0.000451302 -5.95505e-05)
(-0.000185443 0.000376407 -5.14829e-05)
(-0.000177595 0.000257713 -4.23907e-05)
(-0.000132674 0.000193699 -3.76568e-05)
(-9.8213e-05 0.000152845 -3.18564e-05)
(-6.75495e-05 0.000128917 -2.70934e-05)
(-4.40313e-05 0.000113121 -2.33992e-05)
(-2.32821e-05 0.000102685 -2.08434e-05)
(-5.35568e-06 9.64928e-05 -1.84769e-05)
(1.03523e-05 9.28143e-05 -1.32424e-05)
(1.09531e-05 8.59422e-05 1.27809e-06)
(-7.90001e-06 6.18382e-05 2.60656e-06)
(-5.29175e-06 6.72291e-05 -9.32363e-06)
(1.03429e-05 7.09931e-05 -1.36208e-05)
(2.70408e-05 7.72016e-05 -1.5157e-05)
(4.48622e-05 8.71463e-05 -1.67354e-05)
(6.32335e-05 0.000100626 -1.92568e-05)
(8.3676e-05 0.000117239 -2.3069e-05)
(0.000108355 0.000136755 -2.84768e-05)
(0.000144486 0.000161429 -3.46559e-05)
(0.000192394 0.000205907 -4.19005e-05)
(0.000278605 0.000285581 -3.995e-05)
(0.000294364 0.000489924 -4.83312e-05)
(0.000227137 0.000588557 -5.78824e-05)
(0.000180941 0.000659567 -7.10985e-05)
(0.000138071 0.000705896 -8.24767e-05)
(0.000101824 0.000742245 -8.79956e-05)
(6.29146e-05 0.000766009 -9.1339e-05)
(2.44047e-05 0.000778439 -9.29945e-05)
(-1.47705e-05 0.000778944 -9.30813e-05)
(-5.32848e-05 0.000767499 -9.15957e-05)
(-9.22269e-05 0.000744655 -8.84133e-05)
(-0.000128464 0.000709073 -8.30559e-05)
(-0.000171303 0.000663339 -7.18212e-05)
(-0.000217031 0.000592584 -5.8772e-05)
(-0.000283676 0.000494567 -4.94913e-05)
(-0.00026518 0.000290498 -4.11858e-05)
(-0.000176788 0.000215485 -4.34917e-05)
(-0.000128135 0.000172508 -3.67303e-05)
(-8.90777e-05 0.000149969 -3.12383e-05)
(-6.03604e-05 0.000133337 -2.6645e-05)
(-3.46924e-05 0.000120889 -2.34992e-05)
(-1.18663e-05 0.000112914 -2.06303e-05)
(8.90933e-06 0.000108067 -1.43522e-05)
(1.166e-05 0.000100398 2.47245e-06)
(-8.30943e-06 6.84835e-05 3.50139e-06)
(-3.68933e-06 7.43342e-05 -1.00553e-05)
(1.64551e-05 7.90843e-05 -1.51134e-05)
(3.76759e-05 8.73028e-05 -1.69321e-05)
(6.01451e-05 0.000100478 -1.88467e-05)
(8.28112e-05 0.000118232 -2.18968e-05)
(0.000106526 0.00013947 -2.64927e-05)
(0.000132464 0.000160624 -3.3042e-05)
(0.000172362 0.000182586 -4.11496e-05)
(0.000227132 0.000218706 -4.79433e-05)
(0.000395211 0.000240812 -4.82979e-05)
(0.000435855 0.000607606 -4.10761e-05)
(0.000299907 0.000739092 -4.81966e-05)
(0.000240263 0.000829861 -6.82795e-05)
(0.00018501 0.000889182 -8.47623e-05)
(0.00013757 0.000937877 -9.07866e-05)
(8.48871e-05 0.000970071 -9.50083e-05)
(3.23255e-05 0.000986742 -9.70164e-05)
(-2.14054e-05 0.000987414 -9.71077e-05)
(-7.40254e-05 0.000972061 -9.52785e-05)
(-0.000126878 0.000941124 -9.12213e-05)
(-0.000174541 0.00089348 -8.53685e-05)
(-0.000230222 0.000834926 -6.9029e-05)
(-0.000289684 0.000744298 -4.91564e-05)
(-0.000425733 0.000613091 -4.23976e-05)
(-0.000380245 0.00024376 -5.00571e-05)
(-0.00020947 0.000229378 -4.98341e-05)
(-0.000155719 0.000194662 -4.34085e-05)
(-0.000111899 0.000175 -3.61415e-05)
(-8.07533e-05 0.000156758 -3.058e-05)
(-5.01114e-05 0.000140046 -2.68353e-05)
(-2.11827e-05 0.00012867 -2.34377e-05)
(6.42738e-06 0.000121853 -1.58068e-05)
(1.23857e-05 0.000113313 3.92912e-06)
(-8.60165e-06 7.29422e-05 4.47319e-06)
(-1.23075e-06 7.90975e-05 -1.10059e-05)
(2.48672e-05 8.47895e-05 -1.69783e-05)
(5.24289e-05 9.50106e-05 -1.91575e-05)
(8.19581e-05 0.000111642 -2.14953e-05)
(0.000111969 0.000134473 -2.51804e-05)
(0.000140888 0.000161476 -3.06602e-05)
(0.000169138 0.000184356 -3.96379e-05)
(0.000204517 0.000189884 -4.95252e-05)
(0.000167525 0.000107734 -7.2494e-05)
(0.00046969 0.000217561 -7.27981e-05)
(0.000636642 0.000860096 -1.27555e-05)
(0.000393076 0.000929856 -1.19537e-05)
(0.000330583 0.000992067 -3.44812e-05)
(0.000260675 0.00105553 -5.43844e-05)
(0.000195663 0.00110832 -5.62263e-05)
(0.00012019 0.00114621 -5.91527e-05)
(4.47492e-05 0.00116582 -6.07216e-05)
(-3.19911e-05 0.00116667 -6.07903e-05)
(-0.00010752 0.00114876 -5.93611e-05)
(-0.000183278 0.00111249 -5.65433e-05)
(-0.000248777 0.00106115 -5.48715e-05)
(-0.000319695 0.000998701 -3.50972e-05)
(-0.000382814 0.000936277 -1.27866e-05)
(-0.000630814 0.000862965 -1.43478e-05)
(-0.000456379 0.000220805 -7.52572e-05)
(-0.000148281 0.000126603 -7.3598e-05)
(-0.000187916 0.000206403 -5.14419e-05)
(-0.000147467 0.000200522 -4.30004e-05)
(-0.000112932 0.00017965 -3.53969e-05)
(-7.50492e-05 0.000157141 -3.10651e-05)
(-3.63756e-05 0.000141311 -2.70751e-05)
(1.514e-06 0.000132203 -1.77707e-05)
(1.26399e-05 0.00012313 5.65217e-06)
(-8.89429e-06 7.48522e-05 5.47001e-06)
(1.74784e-06 8.11793e-05 -1.21669e-05)
(3.48678e-05 8.7823e-05 -1.92031e-05)
(7.0217e-05 0.000100251 -2.18305e-05)
(0.000109113 0.000121482 -2.46657e-05)
(0.000149639 0.000153631 -2.87195e-05)
(0.000187389 0.000199615 -3.41083e-05)
(0.00021437 0.000261432 -3.92592e-05)
(0.000173798 0.000342052 -5.83891e-05)
(0.000174868 0.000390651 -9.3317e-05)
(0.000283416 0.000733562 7.31579e-05)
(0.00031597 0.000935132 3.61149e-05)
(0.000391847 0.00105961 2.26299e-05)
(0.000340844 0.00117056 2.25191e-05)
(0.000257291 0.00124922 1.76602e-05)
(0.000159738 0.00130134 1.24596e-05)
(5.87746e-05 0.00132676 1.00107e-05)
(-4.36427e-05 0.00132775 1.00146e-05)
(-0.000144716 0.00130432 1.24622e-05)
(-0.0002426 0.00125428 1.76655e-05)
(-0.000326845 0.00117789 2.25432e-05)
(-0.000379657 0.00106935 2.27391e-05)
(-0.000307945 0.000947235 3.58261e-05)
(-0.00027845 0.000745426 7.15616e-05)
(-0.000170964 0.000402371 -9.02062e-05)
(-0.000165859 0.000356271 -5.98482e-05)
(-0.000196327 0.00027636 -4.32832e-05)
(-0.000159249 0.000217127 -3.98834e-05)
(-0.000109333 0.00017605 -3.59957e-05)
(-5.69451e-05 0.000151496 -3.17007e-05)
(-5.34589e-06 0.000138672 -2.04563e-05)
(1.27561e-05 0.000128704 7.18856e-06)
(-8.94579e-06 7.35495e-05 6.48478e-06)
(5.63406e-06 7.96961e-05 -1.34541e-05)
(4.7247e-05 8.63841e-05 -2.16682e-05)
(9.32019e-05 9.90157e-05 -2.48903e-05)
(0.000147812 0.000120845 -2.85827e-05)
(0.000214124 0.000154669 -3.39391e-05)
(0.000297234 0.000205193 -4.10485e-05)
(0.000410452 0.000278719 -4.66677e-05)
(0.000544012 0.000386263 -4.95561e-05)
(0.000811633 0.000542203 -3.08377e-05)
(0.000840186 0.000149601 5.23119e-05)
(0.00064051 0.000304826 7.7246e-05)
(0.000707775 0.000685573 0.000133519)
(0.000636743 0.000897373 0.000186813)
(0.000507552 0.00104632 0.000216697)
(0.000362804 0.00114477 0.000225946)
(0.000218334 0.00120521 0.000226362)
(7.80478e-05 0.00123388 0.000225625)
(-6.0486e-05 0.00123482 0.000225683)
(-0.000200701 0.00120808 0.000226534)
(-0.000345043 0.00114973 0.000226255)
(-0.000489564 0.00105367 0.000217275)
(-0.000618605 0.000907545 0.000187982)
(-0.000689755 0.000699116 0.000135395)
(-0.000621007 0.000321011 8.04436e-05)
(-0.000828215 0.000152594 5.49171e-05)
(-0.000806496 0.000543827 -2.99115e-05)
(-0.000533268 0.000394913 -5.16368e-05)
(-0.000392183 0.000290964 -5.11854e-05)
(-0.000268044 0.000221271 -4.79757e-05)
(-0.000170438 0.000176176 -4.2865e-05)
(-8.91296e-05 0.00015022 -3.74985e-05)
(-1.69125e-05 0.000137067 -2.3869e-05)
(1.12958e-05 0.000126887 8.84707e-06)
(-9.2668e-06 6.89285e-05 7.45174e-06)
(8.65388e-06 7.46407e-05 -1.46479e-05)
(5.76252e-05 8.02898e-05 -2.40022e-05)
(0.000111981 9.07681e-05 -2.77974e-05)
(0.000177598 0.000108279 -3.22565e-05)
(0.000258666 0.000133668 -3.87466e-05)
(0.00036101 0.000166886 -4.70792e-05)
(0.000495351 0.000205201 -5.4047e-05)
(0.000654088 0.000237622 -5.56565e-05)
(0.000888983 0.000254996 -4.07549e-05)
(0.000999995 0.00012333 -1.33488e-05)
(0.000964941 0.000313755 3.5979e-05)
(0.000930005 0.000508037 0.000141827)
(0.000796814 0.000651032 0.000212139)
(0.000627232 0.000761489 0.000248437)
(0.000442603 0.000834774 0.000263141)
(0.000264056 0.000880716 0.000266352)
(9.33834e-05 0.000902854 0.000266641)
(-7.39065e-05 0.000903631 0.000266702)
(-0.000244449 0.000883062 0.000266533)
(-0.000422755 0.000838728 0.000263479)
(-0.000607008 0.000767075 0.000249074)
(-0.000776558 0.000658185 0.00021346)
(-0.000910215 0.000516105 0.000144076)
(-0.000946139 0.000321624 3.99575e-05)
(-0.000986868 0.000126252 -1.07801e-05)
(-0.000880714 0.000261328 -4.05707e-05)
(-0.000643386 0.000246539 -5.82127e-05)
(-0.000476902 0.000216812 -5.92851e-05)
(-0.000330303 0.000182109 -5.51111e-05)
(-0.000211182 0.000154138 -4.91609e-05)
(-0.000112105 0.00013619 -4.27961e-05)
(-2.47002e-05 0.000126731 -2.70162e-05)
(1.09635e-05 0.000117655 1.05825e-05)
(-9.53133e-06 6.17087e-05 8.42702e-06)
(1.11044e-05 6.68961e-05 -1.56812e-05)
(6.6203e-05 7.13184e-05 -2.59934e-05)
(0.000127367 7.93995e-05 -3.02708e-05)
(0.000201273 9.26199e-05 -3.54054e-05)
(0.000292222 0.000111058 -4.30611e-05)
(0.000405907 0.000133651 -5.32112e-05)
(0.000550386 0.000158264 -6.36175e-05)
(0.000717444 0.000178348 -7.0346e-05)
(0.000915967 0.000195458 -6.60774e-05)
(0.00104835 0.000161119 -4.59682e-05)
(0.00109794 0.000251173 1.69108e-05)
(0.00105923 0.000369417 0.000127331)
(0.000903937 0.000467149 0.000196276)
(0.00070689 0.000543321 0.000231905)
(0.000494684 0.000592746 0.000241094)
(0.000294035 0.00062393 0.000240478)
(0.00010348 0.000638907 0.000238787)
(-8.25136e-05 0.00063954 0.000238812)
(-0.000272915 0.000625829 0.000240551)
(-0.000473293 0.000595906 0.000241252)
(-0.000685112 0.000547703 0.00023229)
(-0.00088228 0.000472666 0.000197302)
(-0.00103833 0.000375715 0.000129276)
(-0.00108027 0.000257961 2.06215e-05)
(-0.00103643 0.000165885 -4.37508e-05)
(-0.000906865 0.000201474 -6.5843e-05)
(-0.000705788 0.0001864 -7.3017e-05)
(-0.000530631 0.000168892 -6.924e-05)
(-0.000372874 0.000147694 -6.19886e-05)
(-0.000240514 0.000129934 -5.45406e-05)
(-0.000129079 0.000118085 -4.70871e-05)
(-3.00628e-05 0.000111656 -2.94137e-05)
(1.10847e-05 0.000103949 1.23293e-05)
(-9.91275e-06 5.25213e-05 9.27362e-06)
(1.25904e-05 5.68773e-05 -1.65074e-05)
(7.21019e-05 6.00254e-05 -2.75774e-05)
(0.000137864 6.56205e-05 -3.22282e-05)
(0.000216747 7.4591e-05 -3.78729e-05)
(0.000312661 8.66251e-05 -4.6412e-05)
(0.000431025 0.000100479 -5.79273e-05)
(0.00057787 0.000114823 -7.05535e-05)
(0.000746265 0.000125851 -7.99952e-05)
(0.000932344 0.000137952 -7.89185e-05)
(0.00108013 0.000137764 -5.88535e-05)
(0.00117018 0.000193215 5.86305e-07)
(0.00113387 0.000266763 0.000108395)
(0.000965757 0.000327875 0.000170457)
(0.000754216 0.000376151 0.000200624)
(0.000526709 0.000408307 0.00020405)
(0.000312963 0.000429008 0.000199878)
(0.000109992 0.000439105 0.000196393)
(-8.78438e-05 0.000439659 0.000196384)
(-0.000290686 0.000430655 0.000199843)
(-0.000504221 0.000410995 0.000204023)
(-0.000731435 0.000379787 0.000200739)
(-0.000943303 0.000332341 0.000171151)
(-0.00111242 0.000271803 0.000109992)
(-0.00115281 0.000198755 4.04428e-06)
(-0.00106834 0.000142798 -5.6806e-05)
(-0.000922407 0.000144041 -7.88434e-05)
(-0.000733525 0.000133433 -8.28408e-05)
(-0.000556507 0.00012451 -7.6493e-05)
(-0.000395421 0.000113088 -6.72361e-05)
(-0.000256832 0.000103325 -5.86221e-05)
(-0.000138564 9.66905e-05 -5.0282e-05)
(-3.22307e-05 9.29786e-05 -3.1108e-05)
(1.20109e-05 8.69055e-05 1.3713e-05)
(-1.03151e-05 4.20924e-05 9.93937e-06)
(1.34452e-05 4.55097e-05 -1.71139e-05)
(7.60979e-05 4.76699e-05 -2.87624e-05)
(0.000144976 5.13905e-05 -3.36854e-05)
(0.000226998 5.73258e-05 -3.96945e-05)
(0.000325679 6.51985e-05 -4.88658e-05)
(0.000446308 7.41605e-05 -6.13586e-05)
(0.000593867 8.36708e-05 -7.54592e-05)
(0.00076297 9.20311e-05 -8.65877e-05)
(0.000946593 0.000103088 -8.72972e-05)
(0.0011048 0.000113472 -6.69114e-05)
(0.00121403 0.000149631 -8.71138e-06)
(0.00117987 0.000195254 9.72384e-05)
(0.00100536 0.000234869 0.000155009)
(0.000784841 0.000266508 0.000181363)
(0.000547606 0.000288035 0.000181118)
(0.000325408 0.00030204 0.000174611)
(0.00011439 0.000309 0.000169966)
(-9.11654e-05 0.000309536 0.000169938)
(-0.000302097 0.000303624 0.000174521)
(-0.000524171 0.000290593 0.000180993)
(-0.000761239 0.00026992 0.000181333)
(-0.000982275 0.00023899 0.000155523)
(-0.00115794 0.000199869 9.86295e-05)
(-0.00119668 0.000154639 -5.60441e-06)
(-0.0010929 0.00011851 -6.49957e-05)
(-0.000935961 0.000108868 -8.731e-05)
(-0.000749188 9.88731e-05 -8.95647e-05)
(-0.000570909 9.21285e-05 -8.16211e-05)
(-0.000408296 8.49078e-05 -7.10231e-05)
(-0.000266256 7.91211e-05 -6.15506e-05)
(-0.000143906 7.53294e-05 -5.2543e-05)
(-3.28958e-05 7.31608e-05 -3.22598e-05)
(1.30369e-05 6.8473e-05 1.47684e-05)
(-1.07011e-05 3.08422e-05 1.03937e-05)
(1.38248e-05 3.32773e-05 -1.7545e-05)
(7.85362e-05 3.46265e-05 -2.96015e-05)
(0.000149373 3.68848e-05 -3.47047e-05)
(0.000233278 4.05227e-05 -4.09411e-05)
(0.000333512 4.54047e-05 -5.04955e-05)
(0.000455403 5.1119e-05 -6.35625e-05)
(0.0006036 5.76015e-05 -7.8462e-05)
(0.00077402 6.43441e-05 -9.04467e-05)
(0.000958778 7.39384e-05 -9.18974e-05)
(0.00112361 8.55347e-05 -7.15674e-05)
(0.0012424 0.000109095 -1.38925e-05)
(0.00120947 0.000137545 9.20818e-05)
(0.00103101 0.000162726 0.000148226)
(0.000804875 0.00018301 0.000172847)
(0.000561585 0.000197281 0.000170925)
(0.000333892 0.00020674 0.000163366)
(0.000117526 0.000211605 0.000158204)
(-9.32335e-05 0.000212165 0.000158173)
(-0.000309573 0.000208387 0.00016326)
(-0.000537258 0.000199916 0.00017077)
(-0.000780545 0.00018648 0.000172771)
(-0.00100741 0.000166837 0.000148679)
(-0.00118728 0.000142071 9.3456e-05)
(-0.00122493 0.000113852 -1.05245e-05)
(-0.00111141 9.04024e-05 -6.96886e-05)
(-0.000947599 7.92248e-05 -9.20053e-05)
(-0.000759405 7.02813e-05 -9.35582e-05)
(-0.000579361 6.46033e-05 -8.48153e-05)
(-0.000415498 5.96732e-05 -7.34953e-05)
(-0.000271362 5.61123e-05 -6.3514e-05)
(-0.000146605 5.39533e-05 -5.40816e-05)
(-3.27746e-05 5.27141e-05 -3.30526e-05)
(1.39864e-05 4.93836e-05 1.54474e-05)
(-1.09849e-05 1.91932e-05 1.06498e-05)
(1.396e-05 2.06562e-05 -1.78343e-05)
(7.98862e-05 2.13511e-05 -3.01415e-05)
(0.000151885 2.24869e-05 -3.53485e-05)
(0.000236939 2.4396e-05 -4.17091e-05)
(0.000338202 2.71163e-05 -5.14675e-05)
(0.000461088 3.06205e-05 -6.48357e-05)
(0.000610178 3.50712e-05 -8.01324e-05)
(0.000782065 4.05184e-05 -9.25233e-05)
(0.000968582 4.80761e-05 -9.42638e-05)
(0.00113723 5.75698e-05 -7.39185e-05)
(0.00126052 7.16419e-05 -1.62531e-05)
(0.00122808 8.74516e-05 9.04279e-05)
(0.00104723 0.00010171 0.000146377)
(0.000817686 0.0001133 0.000170536)
(0.00057072 0.000121827 0.000168088)
(0.000339553 0.00012762 0.000160183)
(0.000119781 0.000130788 0.000154853)
(-9.43437e-05 0.000131406 0.000154824)
(-0.000314164 0.000129436 0.000160084)
(-0.000545467 0.000124712 0.000167941)
(-0.000792634 0.000117059 0.000170468)
(-0.00102314 0.000106081 0.000146831)
(-0.00120562 9.21613e-05 9.18154e-05)
(-0.001243 7.64576e-05 -1.26958e-05)
(-0.00112498 6.22504e-05 -7.20829e-05)
(-0.000957159 5.28114e-05 -9.44679e-05)
(-0.000766984 4.54624e-05 -9.57654e-05)
(-0.00058516 4.04898e-05 -8.66534e-05)
(-0.000420007 3.67983e-05 -7.49807e-05)
(-0.000274367 3.43805e-05 -6.47331e-05)
(-0.000148082 3.30377e-05 -5.50657e-05)
(-3.25739e-05 3.22886e-05 -3.35904e-05)
(1.46219e-05 3.02329e-05 1.58201e-05)
(-1.11412e-05 7.43384e-06 1.07106e-05)
(1.39375e-05 7.91597e-06 -1.80026e-05)
(8.03296e-05 7.99223e-06 -3.04113e-05)
(0.00015282 8.08958e-06 -3.56535e-05)
(0.000238453 8.40647e-06 -4.20486e-05)
(0.000340407 9.14481e-06 -5.1858e-05)
(0.000464166 1.06138e-05 -6.52994e-05)
(0.000614349 1.31183e-05 -8.06873e-05)
(0.000787606 1.7125e-05 -9.31649e-05)
(0.000975606 2.24246e-05 -9.49604e-05)
(0.00114572 2.91474e-05 -7.46322e-05)
(0.00126989 3.49772e-05 -1.68888e-05)
(0.00123717 3.9482e-05 9.02556e-05)
(0.00105518 4.37069e-05 0.000146523)
(0.000824114 4.71871e-05 0.000170822)
(0.000575542 5.02731e-05 0.000168425)
(0.000342714 5.25965e-05 0.000160527)
(0.000121278 5.41749e-05 0.000155199)
(-9.45547e-05 5.48854e-05 0.000155174)
(-0.000316133 5.46815e-05 0.000160437)
(-0.000549278 5.35701e-05 0.000168289)
(-0.000798317 5.14529e-05 0.000170765)
(-0.00103066 4.85789e-05 0.000146979)
(-0.0012146 4.4584e-05 9.16222e-05)
(-0.00125249 3.98983e-05 -1.34439e-05)
(-0.00113363 3.36698e-05 -7.28922e-05)
(-0.000964251 2.66443e-05 -9.52861e-05)
(-0.000772478 2.11051e-05 -9.6553e-05)
(-0.000589134 1.69699e-05 -8.73741e-05)
(-0.000422722 1.44066e-05 -7.56303e-05)
(-0.000276007 1.29471e-05 -6.53206e-05)
(-0.000148833 1.22585e-05 -5.5585e-05)
(-3.2524e-05 1.1921e-05 -3.39292e-05)
(1.48941e-05 1.11611e-05 1.59077e-05)
(-1.1172e-05 -4.13165e-06 1.05776e-05)
(1.37541e-05 -4.63163e-06 -1.80519e-05)
(7.98614e-05 -5.21906e-06 -3.04146e-05)
(0.000152171 -6.25945e-06 -3.5626e-05)
(0.000237808 -7.70561e-06 -4.19744e-05)
(0.000340087 -9.2049e-06 -5.16989e-05)
(0.000464544 -1.00858e-05 -6.49998e-05)
(0.000615974 -9.8086e-06 -8.017e-05)
(0.000790554 -7.27255e-06 -9.24192e-05)
(0.00097989 -3.88464e-06 -9.40486e-05)
(0.00114939 1.34003e-06 -7.38128e-05)
(0.00127082 -6.23235e-07 -1.60473e-05)
(0.00123682 -8.09944e-06 9.12514e-05)
(0.00105484 -1.45227e-05 0.000148238)
(0.000824125 -1.96981e-05 0.000173196)
(0.00057603 -2.23385e-05 0.000171373)
(0.000343382 -2.36453e-05 0.000163802)
(0.000122043 -2.36978e-05 0.000158631)
(-9.38221e-05 -2.28419e-05 0.000158607)
(-0.000315418 -2.11296e-05 0.000163717)
(-0.000548604 -1.83633e-05 0.000171238)
(-0.000797503 -1.45611e-05 0.000173126)
(-0.00102991 -8.7253e-06 0.000148652)
(-0.00121427 -2.17119e-06 9.25453e-05)
(-0.00125379 4.7422e-06 -1.26967e-05)
(-0.00113772 5.92336e-06 -7.22194e-05)
(-0.000968925 4.39749e-08 -9.45461e-05)
(-0.000775811 -4.01477e-06 -9.59834e-05)
(-0.000591162 -7.2577e-06 -8.70241e-05)
(-0.000423558 -8.40233e-06 -7.5476e-05)
(-0.000276231 -8.59981e-06 -6.52972e-05)
(-0.000148828 -8.40363e-06 -5.5653e-05)
(-3.26033e-05 -8.20402e-06 -3.4077e-05)
(1.48164e-05 -7.6502e-06 1.57123e-05)
(-1.11059e-05 -1.52091e-05 1.02473e-05)
(1.33212e-05 -1.67003e-05 -1.79683e-05)
(7.82955e-05 -1.81126e-05 -3.01326e-05)
(0.000149602 -2.06323e-05 -3.52412e-05)
(0.000234449 -2.44302e-05 -4.14446e-05)
(0.000336436 -2.90687e-05 -5.09122e-05)
(0.000461214 -3.34916e-05 -6.38221e-05)
(0.000614054 -3.66876e-05 -7.8429e-05)
(0.000790175 -3.62298e-05 -9.00592e-05)
(0.000981806 -3.41222e-05 -9.11381e-05)
(0.00114884 -2.63816e-05 -7.09379e-05)
(0.00126254 -3.65463e-05 -1.27682e-05)
(0.00122563 -5.93784e-05 9.47853e-05)
(0.00104505 -7.96379e-05 0.000153537)
(0.000816863 -9.61225e-05 0.000180195)
(0.000571694 -0.000105969 0.000179959)
(0.000341306 -0.000111711 0.000173326)
(0.000122046 -0.000113686 0.000168596)
(-9.19802e-05 -0.000112608 0.000168552)
(-0.000311631 -0.000108527 0.000173177)
(-0.00054282 -0.000100917 0.000179711)
(-0.000789223 -8.95448e-05 0.000179962)
(-0.00101965 -7.22269e-05 0.000153732)
(-0.00120328 -5.18596e-05 9.58072e-05)
(-0.00124614 -3.00538e-05 -9.92559e-06)
(-0.00113782 -2.13834e-05 -6.96265e-05)
(-0.000971464 -3.00961e-05 -9.192e-05)
(-0.000776161 -3.32548e-05 -9.38831e-05)
(-0.000590157 -3.4943e-05 -8.54962e-05)
(-0.000421458 -3.33947e-05 -7.4448e-05)
(-0.000274229 -3.11443e-05 -6.4603e-05)
(-0.000147542 -2.92109e-05 -5.5215e-05)
(-3.25559e-05 -2.80125e-05 -3.39981e-05)
(1.44563e-05 -2.6024e-05 1.52144e-05)
(-1.10171e-05 -2.53799e-05 9.71316e-06)
(1.24245e-05 -2.77621e-05 -1.77303e-05)
(7.51788e-05 -3.01608e-05 -2.95329e-05)
(0.000144306 -3.45105e-05 -3.44543e-05)
(0.000227033 -4.1306e-05 -4.03886e-05)
(0.000327349 -5.01689e-05 -4.93738e-05)
(0.000451184 -5.97802e-05 -6.15265e-05)
(0.000605061 -6.85049e-05 -7.49571e-05)
(0.000783373 -7.1643e-05 -8.52291e-05)
(0.000981409 -7.0919e-05 -8.48039e-05)
(0.0011444 -5.09695e-05 -6.50545e-05)
(0.00124142 -7.0647e-05 -6.46586e-06)
(0.00119853 -0.00011812 0.000102456)
(0.00102112 -0.000158368 0.00016484)
(0.000798857 -0.000190755 0.000194784)
(0.000560499 -0.000210606 0.000197831)
(0.000335453 -0.000222475 0.000193219)
(0.00012103 -0.000227091 0.000189454)
(-8.86121e-05 -0.00022566 0.000189354)
(-0.000303569 -0.000218216 0.000192897)
(-0.000529693 -0.000203775 0.000197281)
(-0.000769801 -0.000181695 0.000194126)
(-0.000994979 -0.000148061 0.000164507)
(-0.00117635 -0.000107583 0.000102883)
(-0.00122605 -6.19795e-05 -4.35611e-06)
(-0.00113436 -4.49814e-05 -6.42056e-05)
(-0.000971805 -6.60328e-05 -8.606e-05)
(-0.00077032 -6.81609e-05 -8.94493e-05)
(-0.000582489 -6.6786e-05 -8.2299e-05)
(-0.000413317 -6.05045e-05 -7.22784e-05)
(-0.000267785 -5.4169e-05 -6.30654e-05)
(-0.000143589 -4.94377e-05 -5.41419e-05)
(-3.1685e-05 -4.67203e-05 -3.36117e-05)
(1.40624e-05 -4.32794e-05 1.43463e-05)
(-1.08858e-05 -3.42102e-05 9.03255e-06)
(1.09834e-05 -3.73493e-05 -1.7325e-05)