/*--------------------------------*- C++ -*----------------------------------*\
| =========                 |                                                 |
| \\      /  F ield         | OpenFOAM: The Open Source CFD Toolbox           |
|  \\    /   O peration     | Version:  2112                                  |
|   \\  /    A nd           | Website:  www.openfoam.com                      |
|    \\/     M anipulation  |                                                 |
\*---------------------------------------------------------------------------*/
FoamFile
{
    version     2.0;
    format      ascii;
    arch        "LSB;label=32;scalar=64";
    class       volScalarField;
    location    "4.3";
    object      epsilon;
}
// * * * * * * * * * * * * * * * * * * * * * * * * * * * * * * * * * * * * * //

dimensions      [0 2 -3 0 0 0 0];

internalField   nonuniform List<scalar> 
64906
(
0.000112031
0.000134237
0.000149131
0.000156973
0.000160802
0.00016257
0.000163335
0.000163634
0.000163727
0.000163729
0.000163696
0.000163653
0.000163622
0.000163599
0.000163581
0.000163566
0.000163554
0.000163545
0.000163542
0.000163547
0.000163557
0.000163571
0.000163586
0.000163604
0.000163623
0.000163625
0.00016355
0.000163275
0.000162534
0.000160785
0.000156968
0.000149135
0.000134247
0.00011204
0.000134256
0.000254265
0.000330632
0.000374096
0.000397918
0.000410292
0.000416242
0.00041877
0.000419574
0.000419571
0.000419252
0.000418874
0.000418561
0.000418351
0.000418228
0.000418157
0.000418116
0.000418096
0.000418096
0.000418116
0.000418155
0.000418221
0.000418324
0.000418475
0.000418623
0.000418575
0.000417861
0.000415529
0.000409814
0.000397655
0.000373992
0.000330623
0.000254292
0.000134283
0.00014918
0.000330678
0.000451172
0.000523107
0.000564495
0.000586997
0.000598192
0.00060292
0.000604143
0.000603627
0.000602436
0.000601199
0.000600229
0.000599609
0.000599264
0.000599074
0.000598968
0.00059892
0.000598922
0.000598974
0.00059908
0.000599257
0.000599554
0.00060003
0.000600615
0.000600903
0.000599915
0.000595776
0.000585317
0.000563502
0.000522636
0.000451026
0.000330695
0.000149228
0.000157045
0.000374197
0.000523166
0.000615092
0.000669614
0.000699935
0.000714997
0.000720789
0.000721226
0.000718899
0.000715585
0.000712472
0.000710136
0.000708696
0.000707915
0.000707473
0.000707213
0.000707092
0.000707096
0.000707223
0.000707481
0.000707902
0.000708602
0.000709806
0.000711532
0.000713179
0.000713232
0.000708843
0.00069557
0.000666936
0.000613717
0.00052263
0.000374112
0.000157104
0.000160888
0.000398062
0.000564625
0.000669713
0.000733119
0.000768471
0.000785241
0.000789998
0.000787344
0.000780761
0.000773082
0.000766431
0.000761686
0.000758934
0.00075752
0.000756677
0.000756146
0.000755889
0.000755894
0.000756159
0.000756689
0.000757503
0.00075881
0.000761256
0.000765206
0.000769968
0.000773511
0.000771751
0.000758844
0.000727122
0.000666518
0.000563263
0.000397719
0.000160942
0.000162662
0.000410474
0.000587227
0.000700218
0.000768742
0.000806171
0.000821853
0.000822418
0.000812915
0.000797987
0.000782364
0.000770005
0.000761779
0.000757452
0.000755464
0.000754121
0.000753184
0.000752719
0.000752725
0.000753201
0.000754138
0.000755452
0.000757326
0.000761313
0.00076864
0.000778835
0.000789717
0.000795148
0.000787193
0.000756905
0.000693817
0.000584378
0.000409632
0.000162687
0.00016343
0.000416474
0.000598603
0.000715672
0.000786199
0.000822816
0.00083414
0.000826211
0.000804148
0.000774282
0.00074536
0.000725792
0.000714181
0.000709079
0.000707302
0.000705535
0.000704112
0.0007034
0.000703407
0.000704133
0.00070556
0.000707305
0.000708981
0.00071376
0.000724472
0.000741783
0.000765633
0.000785265
0.000788636
0.000765104
0.000704256
0.000593422
0.000414821
0.000163393
0.000163734
0.000419094
0.00060367
0.000722251
0.000792442
0.000825738
0.000829306
0.000807533
0.000764482
0.000708503
0.000657475
0.000634356
0.000624141
0.000621676
0.000622133
0.000620396
0.000618675
0.000617828
0.000617836
0.000618699
0.00062043
0.000622159
0.000621631
0.000623844
0.000633285
0.000654272
0.000700142
0.000745427
0.000768982
0.000758223
0.000703928
0.000595306
0.00041631
0.000163596
0.000163837
0.000420066
0.000605484
0.0007241
0.000792559
0.000820906
0.000814024
0.000772783
0.000696736
0.000592864
0.00049921
0.000496199
0.000504609
0.000512358
0.000517821
0.000517293
0.000516106
0.000515519
0.000515527
0.000516131
0.000517332
0.000517868
0.000512375
0.000504488
0.000495575
0.000496932
0.000585547
0.000678295
0.0007342
0.000742198
0.000697666
0.000593457
0.000415983
0.00016357
0.000163858
0.000420332
0.00060589
0.000723997
0.000790454
0.000813836
0.000796208
0.000732587
0.000609892
0.000415479
0.000231897
0.00031715
0.000380051
0.000407073
0.000418182
0.000420495
0.00042086
0.000420883
0.000420891
0.000420883
0.000420533
0.000418237
0.000407137
0.000380099
0.000317103
0.000231259
0.000410237
0.000592641
0.000694437
0.000724272
0.000690078
0.000590578
0.000415088
0.000163464
0.00016385
0.000420384
0.000605953
0.000723733
0.000789054
0.000809635
0.000785679
0.000706918
0.000542803
0.000245004
0.00019001
0.000295699
0.000335186
0.000347732
0.000352152
0.000353508
0.000353843
0.000353847
0.000353522
0.000352177
0.000347772
0.000335249
0.000295787
0.000190052
0.000242759
0.000526854
0.000669168
0.000713766
0.000685677
0.000588849
0.00041451
0.000163381
0.000163836
0.000420438
0.000606167
0.000724179
0.000789868
0.000811324
0.000790129
0.000721009
0.00059158
0.000392112
0.000216243
0.000266272
0.000314145
0.000333803
0.000339004
0.000343432
0.000344882
0.000345162
0.000345161
0.000344881
0.000343431
0.000338998
0.000333795
0.000314116
0.000266091
0.000215523
0.00038689
0.000574427
0.00068287
0.000717994
0.000687124
0.000589369
0.000414653
0.000163362
0.000163827
0.00042055
0.000606618
0.000725322
0.000792425
0.00081689
0.000802368
0.000748593
0.000654689
0.000528687
0.000411972
0.000371576
0.000351765
0.000344693
0.000341984
0.000342331
0.000342537
0.000342529
0.000342526
0.000342525
0.00034231
0.000341942
0.000344613
0.000351566
0.000370952
0.00040983
0.000521694
0.000636532
0.000709938
0.000729899
0.00069238
0.000591574
0.000415378
0.000163424
0.00016382
0.000420691
0.00060718
0.000726752
0.000795582
0.000823418
0.000815348
0.0007736
0.000700673
0.000605032
0.000507361
0.000432798
0.000380385
0.000356616
0.000347755
0.000345044
0.000344194
0.000343914
0.000343908
0.000344173
0.000345008
0.00034769
0.000356495
0.000380104
0.000431969
0.00050462
0.000597221
0.00068184
0.000734444
0.000742475
0.00069852
0.000594308
0.00041631
0.000163499
0.000163813
0.000420822
0.000607704
0.000728067
0.000798399
0.000828947
0.000825504
0.00079109
0.00072845
0.000643847
0.000550056
0.000463298
0.000396946
0.000364773
0.000352231
0.00034789
0.000346442
0.000345979
0.000345969
0.000346413
0.000347842
0.000352154
0.000364634
0.000396632
0.000462381
0.000547063
0.000635639
0.000709186
0.000751525
0.000752242
0.000703656
0.000596699
0.000417139
0.000163554
0.000163802
0.000420916
0.000608104
0.00072906
0.000800466
0.000832829
0.000832207
0.000801721
0.000743695
0.000662893
0.000569322
0.000477505
0.000405217
0.000369203
0.000354824
0.000349699
0.000347943
0.00034736
0.000347345
0.000347906
0.000349643
0.00035474
0.000369056
0.000404888
0.000476537
0.000566212
0.000654473
0.000724156
0.00076185
0.000758623
0.0007072
0.000598402
0.000417725
0.000163581
0.000163788
0.000420968
0.00060836
0.000729689
0.000801745
0.000835149
0.000836027
0.000807426
0.00075131
0.000671706
0.000577727
0.000483724
0.000408893
0.000371239
0.000356045
0.000350567
0.000348656
0.000347986
0.000347966
0.000348611
0.000350506
0.000355957
0.000371087
0.000408555
0.000482688
0.000574557
0.000663173
0.000731608
0.000767357
0.000762222
0.00070928
0.000599423
0.000418068
0.000163583
0.000163774
0.000420986
0.000608484
0.000729994
0.000802354
0.000836223
0.000837737
0.000809879
0.000754436
0.000675151
0.000580886
0.000486049
0.000410262
0.000372002
0.000356498
0.00035088
0.000348894
0.000348161
0.000348134
0.000348842
0.000350813
0.000356407
0.000371847
0.00040992
0.000484987
0.000577691
0.000666569
0.00073466
0.000769714
0.000763819
0.000710229
0.000599895
0.000418216
0.00016357
0.000163761
0.000420977
0.000608494
0.000730016
0.000802388
0.000836272
0.000837803
0.000809964
0.000754539
0.000675268
0.000581006
0.00048616
0.00041034
0.000372048
0.000356516
0.000350876
0.000348866
0.000348096
0.000348063
0.000348808
0.000350806
0.000356422
0.000371891
0.000409998
0.000485099
0.000577817
0.000666691
0.000734767
0.000769801
0.000763885
0.000710274
0.000599919
0.000418212
0.00016355
0.000163758
0.000420949
0.000608388
0.000729752
0.000801846
0.000835293
0.000836223
0.00080768
0.000751622
0.000672064
0.000578105
0.000484075
0.000409139
0.000371383
0.000356105
0.000350563
0.000348582
0.000347815
0.000347779
0.000348521
0.00035049
0.00035601
0.000371229
0.000408805
0.000483036
0.000574953
0.00066355
0.000731935
0.000767619
0.000762417
0.000709414
0.000599496
0.000418063
0.000163535
0.000163765
0.000420895
0.000608149
0.000729158
0.000800622
0.000833056
0.000832521
0.00080214
0.000744227
0.000663523
0.000570006
0.00047811
0.000405663
0.000369469
0.000354945
0.00034971
0.000347844
0.000347137
0.000347105
0.000347783
0.000349637
0.000354853
0.000369322
0.000405348
0.000477138
0.000566939
0.000655142
0.000724714
0.000762282
0.000758938
0.000707414
0.000598521
0.000417729
0.000163522
0.000163774
0.000420803
0.000607754
0.000728177
0.000798578
0.000829217
0.0008259
0.00079165
0.000729206
0.000644799
0.000551145
0.000464212
0.000397636
0.000365172
0.000352414
0.000347912
0.000346324
0.000345742
0.000345717
0.000346268
0.000347843
0.000352327
0.000365041
0.000397357
0.000463353
0.000548241
0.000636659
0.000709975
0.000752091
0.000752634
0.000703917
0.000596846
0.000417155
0.000163492
0.00016378
0.000420662
0.000607199
0.00072681
0.000795694
0.000823623
0.00081571
0.000774203
0.000701614
0.000606368
0.000508979
0.00043417
0.000381269
0.000357019
0.000347844
0.00034491
0.000343902
0.000343526
0.000343507
0.000343855
0.000344844
0.00034776
0.0003569
0.000381043
0.000433467
0.000506395
0.000598663
0.000682789
0.000735005
0.000742805
0.000698726
0.000594427
0.000416322
0.000163433
0.000163783
0.00042047
0.000606507
0.000725161
0.00079224
0.000816745
0.000802373
0.000748917
0.000655572
0.000530305
0.00041415
0.00037338
0.000352277
0.000344361
0.000341175
0.000341198
0.000341231
0.000341142
0.000341126
0.000341183
0.000341116
0.000341048
0.000344183
0.000352057
0.000372951
0.00041225
0.000523436
0.000637268
0.000710036
0.000729781
0.000692266
0.000591517
0.000415328
0.000163351
0.000163778
0.000420201
0.000605679
0.000723403
0.00078885
0.000810171
0.00078902
0.000720263
0.000591726
0.000393673
0.000217204
0.000266567
0.00031175
0.000329836
0.000334085
0.000337999
0.00033925
0.000339453
0.00033943
0.00033917
0.000337816
0.000333711
0.000329232
0.000311074
0.000266304
0.000216489
0.00038847
0.000573876
0.000681374
0.000716531
0.000686089
0.000588792
0.000414396
0.000163273
0.000163751
0.000419726
0.000604512
0.000721458
0.000786033
0.000806025
0.000781677
0.000702857
0.000539558
0.000243987
0.000185065
0.000283086
0.000318122
0.000327857
0.000331293
0.000332371
0.00033261
0.000332551
0.000332143
0.000330715
0.000326571
0.000315738
0.000279764
0.000182983
0.00024053
0.000520994
0.000663009
0.000708929
0.000682441
0.000587023
0.000413736
0.000163241
0.000163648
0.000418644
0.000602261
0.000718414
0.000783142
0.000805077
0.000786211
0.000721499
0.000598194
0.000404843
0.000224714
0.000290695
0.000339718
0.000354706
0.0003577
0.000358135
0.000358268
0.000358274
0.000358157
0.00035778
0.00035676
0.000354286
0.000347501
0.000327762
0.000278554
0.000218601
0.000391209
0.000573348
0.000678694
0.000712801
0.000682435
0.000586116
0.00041315
0.000163191
0.000163353
0.000416046
0.000597188
0.00071174
0.000776701
0.000802079
0.000792356
0.000747694
0.000666816
0.000555821
0.000451139
0.000424769
0.000407645
0.00038941
0.000379185
0.000375038
0.000373662
0.000373233
0.000373055
0.000372873
0.000372624
0.000372626
0.000373943
0.000378594
0.000391352
0.000420738
0.000525709
0.000632978
0.000701148
0.000718803
0.000681819
0.000583801
0.000411564
0.000163009
0.000162601
0.000410163
0.000586131
0.000697019
0.00076088
0.000788994
0.000787678
0.000759823
0.000707381
0.000636032
0.000560835
0.00050216
0.000449183
0.000404802
0.000383453
0.000375384
0.000372723
0.000371926
0.00037171
0.00037173
0.00037219
0.00037423
0.000381322
0.000401642
0.000447642
0.000510635
0.000592575
0.000666572
0.000711387
0.000716204
0.000674069
0.000576028
0.000406886
0.000162379
0.000160849
0.000397912
0.000563992
0.00066762
0.000727682
0.000756262
0.00076062
0.000744616
0.000710373
0.000660635
0.000600904
0.000538381
0.000475817
0.000423127
0.000397471
0.000387538
0.000384169
0.000383146
0.000382903
0.000383047
0.000383919
0.000387046
0.00039672
0.00042251
0.000476931
0.000544442
0.000613361
0.000668814
0.000698717
0.000695237
0.000651363
0.000557077
0.000395787
0.000160734
0.000157027
0.000374198
0.000522974
0.000614093
0.00066659
0.000692621
0.000699584
0.00069145
0.000669978
0.0006362
0.000591949
0.000540807
0.000488177
0.000443781
0.000420052
0.000410108
0.000406476
0.000405307
0.000405042
0.000405265
0.000406379
0.000409935
0.000419849
0.000443732
0.000489131
0.000543619
0.000595708
0.000634889
0.000653334
0.000645175
0.000603793
0.000518835
0.000373041
0.000156993
0.000149181
0.000330789
0.000451291
0.000522923
0.000563355
0.000583637
0.000590397
0.000587136
0.000575194
0.00055491
0.00052679
0.000492782
0.000457252
0.000427262
0.000409885
0.000401936
0.000398881
0.000397872
0.000397644
0.000397855
0.000398841
0.00040187
0.000409822
0.000427335
0.000457729
0.00049376
0.00052722
0.000551212
0.000560728
0.000551436
0.000517536
0.000449331
0.000330344
0.000149207
0.00013428
0.000254396
0.000330871
0.000374342
0.00039792
0.000409539
0.000413788
0.000413018
0.000408106
0.000399078
0.000385874
0.000369273
0.000351561
0.000336372
0.000327073
0.000322565
0.000320739
0.000320104
0.000319959
0.000320108
0.000320744
0.00032257
0.000327087
0.000336443
0.000351757
0.000369553
0.000385642
0.00039659
0.000399966
0.000393275
0.000372474
0.000330338
0.000254356
0.000134328
0.000112058
0.000134322
0.000149295
0.000157208
0.000161089
0.000162867
0.000163553
0.000163606
0.000163158
0.00016217
0.000160655
0.000158612
0.000156272
0.00015415
0.0001528
0.000152112
0.000151799
0.000151655
0.000151607
0.000151661
0.000151806
0.000152115
0.000152799
0.000154149
0.000156275
0.000158615
0.000160598
0.00016188
0.000162117
0.000160862
0.000157222
0.000149382
0.000134396
0.000112097
0.000150352
0.000225701
0.000278014
0.000308025
0.000324218
0.00033246
0.000336348
0.000337971
0.000338476
0.000338466
0.000338251
0.000337994
0.000337773
0.000337615
0.000337512
0.000337444
0.000337402
0.00033738
0.000337378
0.000337397
0.000337437
0.000337498
0.000337588
0.000337709
0.000337826
0.000337815
0.000337372
0.000335873
0.000332131
0.00032402
0.000307925
0.000277975
0.000225694
0.000150361
0.000225707
0.000284322
0.000342823
0.000379744
0.000400827
0.000412
0.000417434
0.000419751
0.000420474
0.000420441
0.000420108
0.000419718
0.00041939
0.000419162
0.00041902
0.000418934
0.000418884
0.00041886
0.00041886
0.000418884
0.000418933
0.000419013
0.000419135
0.000419304
0.000419472
0.000419456
0.000418818
0.000416687
0.000411478
0.000400517
0.0003796
0.000342791
0.000284358
0.000225703
0.00027805
0.000342842
0.000414447
0.000462003
0.00049042
0.000506086
0.000513912
0.000517208
0.000518039
0.000517646
0.000516776
0.000515868
0.000515141
0.000514653
0.00051436
0.000514188
0.000514088
0.000514042
0.000514042
0.000514089
0.000514186
0.000514347
0.000514603
0.000514986
0.000515436
0.000515667
0.000514993
0.000512105
0.000504797
0.000489627
0.000461602
0.000414313
0.000342861
0.000278029
0.000308097
0.00037979
0.000462034
0.000518232
0.000552738
0.000572146
0.00058181
0.000585518
0.000585794
0.000584311
0.000582211
0.000580233
0.000578734
0.000577773
0.000577218
0.000576896
0.000576708
0.000576619
0.00057662
0.00057671
0.000576894
0.000577198
0.000577697
0.000578502
0.0005796
0.000580624
0.000580613
0.000577759
0.000569216
0.000550887
0.000517238
0.000461621
0.000379706
0.000308015
0.000324325
0.000400902
0.000490494
0.000552796
0.0005916
0.000613452
0.000623848
0.000626827
0.000625273
0.000621364
0.00061684
0.000612929
0.000610148
0.000608465
0.00060754
0.000607011
0.00060669
0.000606532
0.000606533
0.000606692
0.000607009
0.000607516
0.000608369
0.000609853
0.000612129
0.00061485
0.000616787
0.000615496
0.000607375
0.000587713
0.000550634
0.000489496
0.000400567
0.00032409
0.000332602
0.00041211
0.000506229
0.000572323
0.00061362
0.000636394
0.000646009
0.000646516
0.000641068
0.00063254
0.000623738
0.000616769
0.000612229
0.000609703
0.000608405
0.000607677
0.000607199
0.00060695
0.000606952
0.000607202
0.000607676
0.000608382
0.000609601
0.000611903
0.000615866
0.000621475
0.000627338
0.000630031
0.000624794
0.000606186
0.000568124
0.00050419
0.0004113
0.000332071
0.000336532
0.000417601
0.000514187
0.000582241
0.000624436
0.000646582
0.000653617
0.000649288
0.000636882
0.000620345
0.000604638
0.000593518
0.000587383
0.00058443
0.00058304
0.000582347
0.000581786
0.000581456
0.000581458
0.000581792
0.000582351
0.000583024
0.00058434
0.000587067
0.000592597
0.000602257
0.000614789
0.000625055
0.000626102
0.000611421
0.000574875
0.000510523
0.000416033
0.000335517
0.000338217
0.000420019
0.000517728
0.000586453
0.000628309
0.000648462
0.000651069
0.000639084
0.000615525
0.000585942
0.000560124
0.000544071
0.000538635
0.000537042
0.000536268
0.000536441
0.000536147
0.000535842
0.000535844
0.000536155
0.000536451
0.000536267
0.000536984
0.000538377
0.00054323
0.000557769
0.000580253
0.000603268
0.000615035
0.000607466
0.000574752
0.000511861
0.000417413
0.000336527
0.000338824
0.000420916
0.000518982
0.000587618
0.000628396
0.000645699
0.000642538
0.000620346
0.000580881
0.000531822
0.000496935
0.000470226
0.000472608
0.000476717
0.000477255
0.0004805
0.000481415
0.000481424
0.000481427
0.000481426
0.000480517
0.000477271
0.000476706
0.000472459
0.000469582
0.000494647
0.000526063
0.000568357
0.000595777
0.00059812
0.000570878
0.000510599
0.000417124
0.000336354
0.000338971
0.000421154
0.00051924
0.000587519
0.000627108
0.000641639
0.000632871
0.000600277
0.000543647
0.000477399
0.000547642
0.000382128
0.00040225
0.000418179
0.000419302
0.000429058
0.000432239
0.000432821
0.000432826
0.000432253
0.000429082
0.000419332
0.000418218
0.000402248
0.000381767
0.000543942
0.000471089
0.000530725
0.000575302
0.000587951
0.000566202
0.000508611
0.000416303
0.000335793
0.000338973
0.000421187
0.000519244
0.000587295
0.000626211
0.000639219
0.000627445
0.000589842
0.000531808
0.000602042
0.000377653
0.000337367
0.000359713
0.000372203
0.000373675
0.000373777
0.00037379
0.000373792
0.000373785
0.000373689
0.00037223
0.000359756
0.000337427
0.000377627
0.000589702
0.000518112
0.000564551
0.000582245
0.000563464
0.000507368
0.00041574
0.000335393
0.000338966
0.000421219
0.000519344
0.000587497
0.000626575
0.000639922
0.000628951
0.000592715
0.000530262
0.000453077
0.00047664
0.000337949
0.000374272
0.000401706
0.000428962
0.000412052
0.000406038
0.000404821
0.000404817
0.000406027
0.000412032
0.000428952
0.000401681
0.000374194
0.000337531
0.000472993
0.000446755
0.000517303
0.000567568
0.000583727
0.000564058
0.000507584
0.000415804
0.000335408
0.000338991
0.000421308
0.000519611
0.000588148
0.000628016
0.000642978
0.00063528
0.00060543
0.000553987
0.000486757
0.000425966
0.000380432
0.000370634
0.000368207
0.000371428
0.000366753
0.000364703
0.000364175
0.000364173
0.000364697
0.000366741
0.000371411
0.000368148
0.00037044
0.000379753
0.000423713
0.000481011
0.000541296
0.000580425
0.000590104
0.000567094
0.000508966
0.000416407
0.000335771
0.000339036
0.000421432
0.000519965
0.000589
0.000629867
0.000646754
0.000642613
0.000618997
0.000577439
0.000522296
0.000464156
0.000415415
0.000383958
0.000364848
0.000357604
0.000354316
0.000353128
0.000352783
0.00035278
0.00035312
0.000354299
0.000357567
0.000364752
0.000383689
0.000414617
0.000461852
0.000516521
0.00056476
0.000594007
0.00059743
0.000570831
0.000510758
0.000417217
0.000336263
0.000339078
0.000421554
0.000520303
0.000589797
0.000631551
0.000650043
0.000648625
0.000629276
0.000593619
0.000544779
0.000489297
0.000436702
0.000396347
0.000369611
0.000358105
0.000353969
0.000352646
0.000352275
0.000352271
0.000352635
0.000353948
0.000358058
0.000369498
0.000396045
0.000435839
0.000486903
0.00053891
0.000580863
0.000604222
0.000603375
0.000574043
0.000512362
0.000417956
0.0003367
0.000339105
0.000421647
0.000520564
0.000590402
0.000632795
0.00065238
0.000652685
0.000635779
0.0006031
0.000556983
0.000502388
0.000447702
0.000403493
0.000373366
0.000359996
0.000355211
0.000353701
0.000353285
0.000353281
0.00035369
0.000355187
0.000359946
0.000373245
0.000403176
0.000446803
0.000499932
0.000551034
0.000590257
0.000610635
0.000607343
0.000576287
0.000513515
0.000418492
0.000337003
0.000339114
0.000421705
0.000520731
0.000590784
0.000633563
0.000653781
0.00065502
0.000639335
0.000607989
0.000562906
0.000508458
0.000452724
0.00040684
0.000375267
0.000361101
0.000355997
0.000354384
0.000353937
0.000353932
0.000354371
0.000355973
0.000361048
0.000375143
0.000406516
0.000451802
0.000505965
0.000556902
0.000595079
0.000614117
0.0006096
0.000577608
0.000514209
0.000418814
0.000337171
0.00033911
0.000421731
0.00052081
0.000590966
0.000633924
0.000654424
0.000656061
0.000640866
0.000610011
0.000565257
0.000510785
0.000454619
0.000408102
0.000375998
0.000361537
0.000356309
0.000354651
0.000354188
0.000354182
0.000354637
0.000356284
0.000361483
0.000375872
0.000407774
0.000453683
0.000508276
0.000559227
0.000597066
0.000615607
0.000610596
0.000578205
0.000514526
0.000418959
0.000337235
0.000339098
0.00042173
0.000520813
0.000590973
0.000633936
0.000654442
0.000656088
0.000640903
0.000610058
0.000565313
0.000510847
0.000454681
0.000408153
0.000376032
0.000361553
0.000356316
0.000354652
0.000354183
0.000354177
0.000354637
0.00035629
0.000361499
0.000375906
0.000407826
0.000453745
0.00050834
0.000559284
0.000597113
0.000615642
0.00061062
0.00057822
0.000514535
0.000418961
0.00033722
0.000339083
0.000421702
0.000520739
0.000590804
0.000633598
0.000653835
0.000655099
0.000639444
0.00060813
0.000563079
0.000508653
0.000452918
0.000407001
0.000375374
0.000361157
0.000356024
0.000354393
0.000353932
0.000353925
0.000354378
0.000355999
0.000361105
0.000375252
0.000406681
0.000451998
0.000506168
0.00055708
0.000595221
0.000614221
0.000609671
0.000577653
0.000514234
0.00041882
0.000337134
0.000339063
0.000421643
0.000520575
0.00059043
0.000632846
0.000652464
0.000652811
0.000635959
0.000603344
0.000557292
0.000502745
0.000448053
0.000403789
0.000373563
0.000360105
0.000355271
0.000353735
0.0003533
0.000353293
0.000353721
0.000355248
0.000360057
0.00037345
0.000403487
0.000447169
0.000500307
0.000551352
0.0005905
0.000610806
0.000607456
0.000576356
0.000513553
0.000418503
0.000336953
0.000339028
0.000421546
0.000520309
0.000589819
0.000631599
0.000650132
0.000648775
0.000629512
0.000593966
0.000545249
0.000489865
0.00043726
0.000396798
0.000369887
0.000358238
0.000354035
0.000352678
0.00035229
0.000352285
0.000352667
0.000354015
0.000358196
0.000369788
0.000396527
0.000436437
0.000487506
0.000539392
0.000581196
0.00060443
0.000603499
0.000574113
0.000512399
0.000417966
0.000336641
0.000338971
0.000421407
0.000519937
0.000588973
0.000629855
0.000646779
0.000642711
0.000619218
0.000577843
0.000522929
0.000464976
0.000416201
0.00038445
0.00036499
0.000357492
0.000354126
0.000352905
0.000352545
0.000352541
0.000352894
0.000354104
0.000357447
0.000364896
0.000384214
0.000415469
0.000462723
0.000517143
0.000565097
0.000594146
0.000597468
0.000570831
0.000510751
0.000417205
0.000336184
0.000338887
0.000421225
0.000519479
0.000587964
0.000627798
0.000642761
0.000635118
0.000605411
0.00055424
0.000487424
0.000427015
0.000381225
0.000370532
0.000367352
0.000370055
0.000365309
0.000363221
0.000362674
0.000362667
0.000363198
0.000365254
0.000369951
0.000367174
0.000370249
0.000380584
0.000424798
0.000481528
0.000541291
0.000580164
0.000589797
0.000566846
0.000508804
0.000416315
0.000335638
0.000338756
0.000420974
0.000518929
0.000586896
0.000625811
0.000639043
0.000628026
0.000591854
0.000529667
0.000453025
0.000478585
0.000337029
0.000371478
0.000397564
0.000423968
0.000406774
0.000400631
0.00039939
0.000399383
0.000400591
0.000406643
0.000423693
0.000396978
0.000370638
0.000335967
0.000474861
0.000445978
0.000515829
0.000566047
0.000582466
0.000563154
0.000507016
0.000415495
0.00033513
0.000338489
0.00042053
0.000518137
0.000585704
0.000624172
0.00063679
0.000624665
0.000586712
0.000528177
0.000594878
0.000358859
0.000322453
0.000341466
0.000351466
0.000351981
0.000351849
0.000351818
0.00035177
0.000351652
0.000351439
0.000350192
0.000338934
0.000318354
0.000351355
0.000577055
0.000511845
0.000559813
0.000578772
0.000561081
0.000505874
0.000414914
0.000334774
0.000337824
0.000419517
0.000516566
0.000583764
0.000622354
0.000635972
0.00062626
0.000592452
0.000533836
0.00046298
0.000509253
0.000350534
0.000362221
0.000369273
0.000364827
0.000371666
0.00037424
0.000374769
0.000374669
0.000373807
0.000370396
0.000361593
0.000362412
0.000350769
0.000335645
0.000482602
0.000446886
0.000515109
0.00056428
0.000580179
0.000560881
0.000505198
0.000414343
0.000334415
0.000336162
0.000417105
0.000513003
0.000579466
0.000618291
0.00063382
0.000628772
0.000604005
0.000560288
0.000503512
0.000454682
0.000412775
0.000396548
0.000383616
0.000373332
0.000371627
0.000371365
0.000371235
0.000371074
0.000370646
0.000369422
0.000367465
0.000370704
0.000375766
0.000387764
0.000429621
0.00048193
0.000538027
0.000574454
0.000582965
0.000560222
0.000503476
0.000412824
0.000333355
0.000332313
0.000411713
0.000505255
0.000569991
0.000608411
0.000625583
0.000625159
0.000609153
0.000579141
0.000538687
0.000495663
0.000456788
0.000425372
0.000401639
0.000384484
0.000377448
0.000375095
0.000374376
0.000374165
0.000374132
0.000374394
0.000376064
0.000382917
0.000399284
0.000424949
0.00046526
0.000512537
0.000554324
0.000579175
0.000580795
0.000555024
0.000497933
0.0004085
0.000330223
0.000324135
0.000400648
0.000489838
0.000551156
0.000587831
0.000605496
0.000608365
0.000598952
0.000578805
0.000549772
0.000515032
0.000478419
0.000443572
0.000416023
0.000396003
0.000387029
0.0003838
0.000382784
0.000382539
0.00038269
0.000383554
0.000386566
0.00039543
0.000415659
0.000444774
0.000483191
0.000522616
0.000554068
0.000570586
0.000567402
0.000540291
0.000484654
0.00039846
0.000322737
0.000308002
0.000379677
0.000461699
0.000517296
0.000550425
0.000567035
0.000571547
0.000566569
0.000553413
0.000532923
0.000506311
0.000475685
0.000444507
0.000418244
0.000400591
0.000392183
0.000388915
0.000387818
0.000387562
0.000387789
0.000388842
0.000392054
0.000400467
0.000418348
0.000445431
0.000477906
0.000508807
0.000531803
0.000542213
0.000536309
0.00051002
0.000458359
0.00037835
0.000307188
0.000278028
0.000342841
0.000414369
0.000461634
0.000489293
0.000503313
0.000507973
0.000505718
0.000497609
0.000484003
0.000465306
0.000442761
0.000419156
0.000398892
0.000385571
0.00037892
0.000376182
0.000375217
0.000374991
0.000375216
0.000376176
0.000378909
0.000385587
0.000399049
0.000419656
0.000443619
0.00046564
0.000481255
0.000487184
0.000480461
0.000457277
0.000412477
0.000342156
0.000277652
0.000225728
0.000284388
0.000342903
0.000379735
0.000400484
0.000410835
0.000414567
0.000413733
0.000409137
0.000400889
0.000389041
0.000374287
0.000358556
0.000344939
0.000336093
0.000331596
0.000329692
0.000329002
0.00032884
0.000329013
0.000329711
0.000331625
0.000336145
0.000345062
0.000358811
0.000374603
0.00038882
0.000398527
0.000401548
0.000395651
0.000377496
0.000342005
0.000284102
0.00022563
0.00015038
0.000225727
0.000278075
0.000308077
0.000324112
0.000331881
0.000334698
0.000334232
0.000331068
0.000325207
0.000316599
0.000305699
0.000293985
0.000283905
0.000277667
0.000274601
0.000273313
0.000272837
0.000272723
0.000272848
0.000273332
0.000274626
0.000277705
0.000283981
0.000294136
0.000305882
0.000316424
0.00032356
0.000325686
0.000321064
0.000306778
0.000277621
0.000225619
0.000150409
0.000175268
0.000295458
0.000381485
0.000432775
0.000461682
0.000477061
0.00048462
0.000487878
0.000488893
0.000488817
0.000488291
0.000487669
0.000487134
0.000486752
0.000486506
0.000486352
0.00048626
0.000486216
0.000486215
0.000486257
0.000486344
0.000486486
0.000486698
0.000486988
0.000487281
0.000487304
0.000486431
0.000483456
0.000476231
0.000461158
0.000432487
0.00038135
0.000295413
0.000175276
0.00029546
0.000339643
0.000401966
0.000444103
0.000469309
0.000483183
0.000490162
0.000493227
0.000494207
0.000494163
0.000493694
0.000493136
0.000492659
0.000492318
0.000492102
0.000491971
0.000491895
0.000491859
0.000491859
0.000491894
0.000491967
0.000492087
0.000492271
0.00049252
0.000492759
0.000492734
0.000491867
0.000489056
0.000482391
0.000468818
0.000443856
0.00040189
0.000339665
0.000295412
0.000381525
0.000401979
0.000465298
0.000511603
0.000540775
0.000557475
0.000566078
0.000569799
0.00057077
0.000570333
0.000569326
0.000568251
0.000567369
0.000566755
0.000566372
0.000566145
0.000566015
0.000565955
0.000565955
0.000566014
0.000566138
0.000566348
0.000566679
0.000567154
0.000567685
0.000567935
0.000567133
0.000563868
0.00055586
0.000539745
0.000511053
0.000465089
0.000401959
0.000381393
0.000432867
0.000444141
0.00051163
0.000562864
0.000596056
0.000615414
0.00062533
0.000629244
0.000629596
0.000628083
0.000625886
0.000623773
0.000622128
0.000621023
0.000620352
0.000619966
0.000619748
0.000619645
0.000619645
0.000619746
0.000619957
0.000620317
0.000620915
0.000621827
0.000622997
0.000624024
0.00062391
0.000620848
0.000612088
0.00059388
0.000561635
0.000511069
0.000443954
0.000432546
0.000461831
0.000469383
0.00054085
0.000596118
0.000632375
0.000653497
0.000663829