/*--------------------------------*- C++ -*----------------------------------*\
| =========                 |                                                 |
| \\      /  F ield         | OpenFOAM: The Open Source CFD Toolbox           |
|  \\    /   O peration     | Version:  2112                                  |
|   \\  /    A nd           | Website:  www.openfoam.com                      |
|    \\/     M anipulation  |                                                 |
\*---------------------------------------------------------------------------*/
FoamFile
{
    version     2.0;
    format      ascii;
    arch        "LSB;label=32;scalar=64";
    class       volScalarField;
    location    "4.3";
    object      k;
}
// * * * * * * * * * * * * * * * * * * * * * * * * * * * * * * * * * * * * * //

dimensions      [0 2 -2 0 0 0 0];

internalField   nonuniform List<scalar> 
64906
(
0.000214259
0.000241904
0.000259638
0.00026877
0.000273195
0.000275237
0.000276123
0.000276472
0.00027658
0.000276582
0.000276543
0.000276493
0.000276454
0.000276427
0.000276406
0.000276389
0.000276375
0.000276365
0.000276361
0.000276367
0.000276379
0.000276394
0.000276413
0.000276434
0.000276456
0.00027646
0.000276372
0.000276053
0.000275194
0.000273173
0.000268764
0.000259642
0.000241917
0.000214271
0.000241928
0.000370723
0.000441958
0.000480138
0.000500512
0.000510981
0.000516003
0.000518139
0.000518818
0.000518814
0.00051854
0.000518214
0.000517943
0.000517761
0.000517654
0.000517592
0.000517556
0.000517539
0.000517539
0.000517555
0.00051759
0.000517647
0.000517737
0.000517868
0.000517996
0.000517957
0.000517353
0.000515384
0.000510562
0.000500276
0.000480039
0.000441945
0.000370748
0.000241962
0.000259696
0.000442
0.000544075
0.000600775
0.000632321
0.000649212
0.000657571
0.000661098
0.000662009
0.000661619
0.000660719
0.000659781
0.000659043
0.000658569
0.000658303
0.000658156
0.000658074
0.000658037
0.000658038
0.000658078
0.00065816
0.000658297
0.000658525
0.000658889
0.000659334
0.000659554
0.000658817
0.000655728
0.000647918
0.00063154
0.000600391
0.000543945
0.00044201
0.000259752
0.000268853
0.000480225
0.000600821
0.00066962
0.000708916
0.00073038
0.000740964
0.000745027
0.000745331
0.000743688
0.000741342
0.000739129
0.000737459
0.000736425
0.00073586
0.000735539
0.000735352
0.000735264
0.000735267
0.000735358
0.000735545
0.000735849
0.000736354
0.000737219
0.000738449
0.000739617
0.000739657
0.000736573
0.000727234
0.000706948
0.000668573
0.000600383
0.000480141
0.000268921
0.000273293
0.000500635
0.00063242
0.000708988
0.00075336
0.000777617
0.000789027
0.000792259
0.000790456
0.000785965
0.0007807
0.000776111
0.000772819
0.000770896
0.000769901
0.000769308
0.000768936
0.000768757
0.00076876
0.000768945
0.000769315
0.000769887
0.000770806
0.000772512
0.000775248
0.000778526
0.000780949
0.000779744
0.000770929
0.000749112
0.000706642
0.00063135
0.000500325
0.000273354
0.000275343
0.000511137
0.000649387
0.000730585
0.000777807
0.000803073
0.000813574
0.000813961
0.000807607
0.000797557
0.000786951
0.00077848
0.000772795
0.000769778
0.00076838
0.000767439
0.000766786
0.000766463
0.000766467
0.000766798
0.00076745
0.000768369
0.000769686
0.000772462
0.000777519
0.000784497
0.000791875
0.000795525
0.000790147
0.000769592
0.000725981
0.0006472
0.000510398
0.000275368
0.000276232
0.000516202
0.000657884
0.00074145
0.000789693
0.000814229
0.000821771
0.000816529
0.000801803
0.000781631
0.000761811
0.000748185
0.000739996
0.00073635
0.000735058
0.000733795
0.000732787
0.000732283
0.000732289
0.000732802
0.000733813
0.000735059
0.000736276
0.000739688
0.000747237
0.000759281
0.000775624
0.000788905
0.000791141
0.000775203
0.000733331
0.000653951
0.000514772
0.000276184
0.000276587
0.000518417
0.00066167
0.000746073
0.000793947
0.000816214
0.000818616
0.000804154
0.000775138
0.000736569
0.000700458
0.00068362
0.000676008
0.000674088
0.00067436
0.00067306
0.000671788
0.000671164
0.00067117
0.000671806
0.000673084
0.000674378
0.000674052
0.00067578
0.000682815
0.000698095
0.000730583
0.000761891
0.000777884
0.000770529
0.000733113
0.000655361
0.000516028
0.000276419
0.000276708
0.000519243
0.00066303
0.000747383
0.00079405
0.000813026
0.000808494
0.000780841
0.000728522
0.000653892
0.000582716
0.000579971
0.000586208
0.000592064
0.000596233
0.00059578
0.000594841
0.00059438
0.000594386
0.00059486
0.00059581
0.000596269
0.000592075
0.000586106
0.000579459
0.000580871
0.00064833
0.000715288
0.000754139
0.000759561
0.000728719
0.000653987
0.000515754
0.000276389
0.000276732
0.000519471
0.000663339
0.000747319
0.000792637
0.000808322
0.000796595
0.000753434
0.000666531
0.000515731
0.00034925
0.000429922
0.000484798
0.000507443
0.000516644
0.000518508
0.000518789
0.000518802
0.000518808
0.000518807
0.000518539
0.00051669
0.000507496
0.000484836
0.000429871
0.000348582
0.00051124
0.00065358
0.000726538
0.000747193
0.000723368
0.000651837
0.000514998
0.000276267
0.000276724
0.000519516
0.000663388
0.000747135
0.000791686
0.000805504
0.000789496
0.000735638
0.000616579
0.000362454
0.000305277
0.000409721
0.000445397
0.000456443
0.000460313
0.0004615
0.000461793
0.000461797
0.000461512
0.000460335
0.000456479
0.000445453
0.000409803
0.000305321
0.000360158
0.000604129
0.000708696
0.000739873
0.000720241
0.000650538
0.000514506
0.000276171
0.000276708
0.000519562
0.000663546
0.000747442
0.000792224
0.000806602
0.000792426
0.000745294
0.000652853
0.00049585
0.000333049
0.000381926
0.000426194
0.000443725
0.000448274
0.000452213
0.000453506
0.000453757
0.000453757
0.000453505
0.000452213
0.00044827
0.000443718
0.000426166
0.000381746
0.000332281
0.000491295
0.000639843
0.000718256
0.000742746
0.000721231
0.00065091
0.000514622
0.000276148
0.000276698
0.000519657
0.000663881
0.000748235
0.000793937
0.000810281
0.000800562
0.00076412
0.000698386
0.000605073
0.000511742
0.000477044
0.000459476
0.000453094
0.000450631
0.000450939
0.000451128
0.000451125
0.000451122
0.000451118
0.00045092
0.000450593
0.000453022
0.000459297
0.00047649
0.000509901
0.000599552
0.000685078
0.000737066
0.000750919
0.000724906
0.000652541
0.00051523
0.000276219
0.000276691
0.000519778
0.000664299
0.000749232
0.00079606
0.000814604
0.000809173
0.000781023
0.000730676
0.000661978
0.00058799
0.000528195
0.0004841
0.000463433
0.000455604
0.000453199
0.000452446
0.000452198
0.000452193
0.000452427
0.000453166
0.000455547
0.000463326
0.000483854
0.000527493
0.000585792
0.000656085
0.000717186
0.000753926
0.000759533
0.000729207
0.00065457
0.000516014
0.000276306
0.000276682
0.000519889
0.000664691
0.000750151
0.000797958
0.00081827
0.000815898
0.000792763
0.000749868
0.000690011
0.000620574
0.000552797
0.0004981
0.000470483
0.000459491
0.000455653
0.000454369
0.000453959
0.00045395
0.000454344
0.000455611
0.000459423
0.00047036
0.000497828
0.000552037
0.000618238
0.000683946
0.00073625
0.000765593
0.000766209
0.000732807
0.00065635
0.000516713
0.000276371
0.00027667
0.00051997
0.000664991
0.000750846
0.000799355
0.000820848
0.000820336
0.000799876
0.000760321
0.000703587
0.000635029
0.000564093
0.000505037
0.000474306
0.000461748
0.000457227
0.000455672
0.000455155
0.000455142
0.000455639
0.000457178
0.000461675
0.000474176
0.000504754
0.0005633
0.000632628
0.000697426
0.000746607
0.000772622
0.000770568
0.000735295
0.00065762
0.000517211
0.000276404
0.000276655
0.000520016
0.000665183
0.000751288
0.000800222
0.000822392
0.000822869
0.000803693
0.000765531
0.000709841
0.0006413
0.000569013
0.000508115
0.000476064
0.000462815
0.000457987
0.000456295
0.0004557
0.000455682
0.000456255
0.000457932
0.000462737
0.000475931
0.000507825
0.000568172
0.000638865
0.000703626
0.00075175
0.000776369
0.000773029
0.000736758
0.000658384
0.000517502
0.000276407
0.000276638
0.000520031
0.000665277
0.000751503
0.000800634
0.000823107
0.000824004
0.000805335
0.00076767
0.000712285
0.000643656
0.000570854
0.000509262
0.000476724
0.000463212
0.000458261
0.000456503
0.000455853
0.000455829
0.000456457
0.000458202
0.000463131
0.000476588
0.000508969
0.00056999
0.000641206
0.000706046
0.000753857
0.000777974
0.000774123
0.000737427
0.000658738
0.000517629
0.000276392
0.000276624
0.000520024
0.000665284
0.000751519
0.000800657
0.000823139
0.000824048
0.000805392
0.000767741
0.000712368
0.000643747
0.000570942
0.000509328
0.000476764
0.000463228
0.000458258
0.000456478
0.000455795
0.000455766
0.000456427
0.000458196
0.000463144
0.000476626
0.000509035
0.000570079
0.000641301
0.000706133
0.000753931
0.000778034
0.000774168
0.000737458
0.000658756
0.000517625
0.00027637
0.000276621
0.00052
0.000665204
0.000751332
0.000800289
0.000822487
0.000822998
0.000803863
0.000765746
0.000710097
0.000641585
0.000569293
0.000508323
0.000476189
0.000462868
0.000457983
0.000456228
0.000455548
0.000455517
0.000456174
0.000457918
0.000462784
0.000476054
0.000508036
0.000568447
0.000639164
0.000703896
0.000751977
0.000776547
0.000773163
0.000736852
0.000658438
0.000517498
0.000276352
0.000276628
0.000519953
0.000665024
0.000750914
0.000799459
0.000820997
0.000820544
0.000800158
0.000760688
0.000704039
0.000635545
0.000564575
0.000505415
0.000474537
0.000461856
0.000457237
0.000455583
0.000454956
0.000454927
0.000455529
0.000457172
0.000461773
0.000474409
0.000505144
0.000563781
0.000633177
0.000697907
0.000746994
0.000772916
0.000770783
0.000735444
0.000657708
0.000517214
0.000276337
0.000276638
0.000519873
0.000664727
0.000750225
0.000798076
0.000818447
0.000816159
0.000793139
0.000750391
0.000690699
0.000621406
0.000553535
0.000498687
0.000470832
0.000459651
0.000455672
0.000454262
0.000453746
0.000453723
0.000454213
0.00045561
0.000459574
0.000470716
0.000498446
0.000552824
0.000619137
0.000684686
0.0007368
0.000765979
0.000766475
0.000732988
0.000656458
0.000516727
0.0002763
0.000276644
0.000519752
0.00066431
0.000749267
0.000796129
0.000814734
0.000809407
0.000781426
0.000731333
0.000662962
0.000589257
0.000529329
0.000484862
0.000463785
0.000455679
0.000453073
0.00045218
0.000451845
0.000451829
0.000452137
0.000453015
0.000455604
0.000463679
0.000484663
0.000528732
0.000587182
0.00065715
0.000717853
0.000754306
0.000759752
0.000729345
0.000654655
0.000516022
0.000276231
0.000276647
0.000519587
0.000663792
0.000748112
0.000793797
0.000810166
0.000800546
0.000764325
0.000699007
0.000606315
0.000513567
0.000478611
0.000459924
0.000452788
0.000449895
0.00044991
0.000449944
0.000449867
0.000449853
0.000449901
0.000449837
0.00044978
0.000452627
0.000459725
0.000478226
0.00051193
0.000600894
0.000685594
0.000737113
0.000750816
0.00072481
0.000652488
0.000515183
0.000276134
0.00027664
0.000519356
0.000663169
0.000746878
0.000791503
0.000805791
0.000791635
0.000744734
0.00065293
0.00049717
0.000334048
0.000382203
0.000423968
0.000440115
0.000443824
0.000447317
0.000448438
0.000448621
0.0004486
0.000448365
0.000447152
0.000443485
0.000439566
0.00042334
0.000381941
0.000333284
0.000492631
0.00063939
0.000717147
0.000741681
0.000720463
0.000650458
0.000514396
0.000276044
0.000276608
0.000518949
0.000662291
0.000745504
0.000789582
0.000803009
0.000786702
0.000732702
0.000614019
0.000361407
0.000299832
0.000397753
0.000429863
0.000438559
0.000441621
0.000442585
0.000442799
0.000442746
0.000442378
0.000441098
0.00043739
0.000427676
0.000394583
0.000297535
0.000357878
0.000599497
0.000704192
0.000736402
0.00071788
0.00064913
0.000513835
0.000276007
0.000276487
0.000518029
0.000660599
0.000743349
0.000787587
0.000802328
0.000789701
0.000745576
0.000657727
0.000506645
0.000341813
0.00040523
0.000449309
0.000462291
0.000464833
0.000465168
0.000465268
0.00046527
0.000465167
0.000464839
0.000463956
0.000461826
0.000455924
0.000438566
0.000393709
0.000335461
0.000494947
0.000638967
0.000715215
0.000739044
0.000717841
0.000648433
0.00051333
0.000275947
0.000276144
0.000515828
0.000656803
0.000738643
0.000783165
0.000800243
0.000793727
0.000763434
0.000707031
0.000625798
0.000544013
0.000522032
0.000507462
0.000491922
0.000483126
0.00047953
0.000478332
0.000477958
0.000477803
0.000477648
0.000477441
0.000477465
0.000478653
0.000482791
0.000493958
0.000518957
0.000602596
0.000682423
0.000730822
0.00074312
0.00071735
0.000646673
0.00051198
0.000275734
0.000275271
0.000510862
0.000648539
0.000728274
0.000772342
0.000791372
0.000790469
0.00077155
0.000735319
0.000684575
0.000628971
0.000583738
0.000541408
0.000504721
0.0004866
0.000479659
0.000477357
0.000476665
0.000476478
0.000476496
0.000476898
0.000478671
0.000484795
0.000502113
0.000540249
0.00059041
0.000652562
0.000706246
0.000737813
0.000741227
0.000711805
0.000640829
0.000508025
0.000275005
0.000273247
0.000500496
0.000631915
0.000707441
0.000749499
0.000769129
0.000772078
0.000761061
0.000737261
0.000702032
0.000658564
0.000611525
0.00056267
0.000519896
0.000498428
0.000489988
0.000487106
0.000486227
0.000486018
0.000486142
0.000486892
0.000489571
0.000497802
0.000519407
0.000563591
0.000616161
0.000667648
0.000707711
0.000728895
0.000726549
0.000695583
0.000626553
0.00049863
0.000273107
0.000268832
0.000480219
0.000600654
0.000668847
0.000706682
0.000725104
0.000729973
0.00072419
0.00070888
0.000684502
0.00065196
0.000613389
0.000572477
0.000536849
0.00051732
0.00050902
0.000505967
0.000504981
0.000504756
0.000504946
0.000505886
0.000508876
0.000517155
0.000536819
0.000573242
0.000615533
0.000654698
0.000683449
0.000696828
0.000691063
0.0006611
0.000597348
0.000479173
0.000268787
0.000259696
0.000442096
0.00054416
0.000600607
0.000631408
0.000646614
0.000651634
0.000649159
0.000640147
0.000624738
0.000603115
0.000576505
0.000548099
0.000523573
0.000509097
0.000502401
0.000499811
0.000498953
0.000498759
0.000498939
0.000499778
0.000502346
0.000509046
0.000523638
0.000548489
0.000577272
0.000603416
0.000621859
0.000629147
0.000622191
0.000596314
0.000542503
0.000441668
0.000259723
0.000241957
0.00037085
0.000442169
0.000480339
0.000500489
0.000510302
0.000513866
0.000513192
0.000509007
0.000501302
0.000489965
0.000475566
0.000459999
0.000446458
0.000438066
0.000433964
0.000432295
0.000431713
0.000431579
0.000431716
0.000432299
0.000433969
0.000438079
0.000446523
0.000460174
0.000475807
0.00048975
0.000499151
0.000502066
0.000496435
0.00047866
0.000441658
0.0003708
0.000242014
0.000214294
0.000242009
0.000259832
0.000269043
0.000273523
0.000275572
0.000276362
0.000276419
0.000275893
0.000274742
0.000272977
0.000270598
0.00026787
0.000265388
0.000263802
0.000262991
0.000262622
0.000262452
0.000262394
0.000262459
0.000262629
0.000262995
0.000263801
0.000265387
0.000267873
0.000270602
0.00027291
0.000274402
0.000274684
0.000273245
0.00026905
0.000259931
0.000242098
0.000214344
0.000309503
0.000406215
0.000467114
0.000500412
0.000517998
0.000526877
0.000531061
0.000532811
0.000533357
0.000533345
0.000533109
0.000532827
0.000532585
0.000532411
0.000532297
0.000532223
0.000532176
0.000532153
0.000532151
0.000532172
0.000532215
0.000532283
0.000532381
0.000532514
0.000532642
0.00053263
0.000532152
0.000530537
0.000526511
0.000517774
0.000500296
0.000467066
0.000406206
0.000309515
0.000406222
0.000784561
0.000962361
0.00106146
0.00111674
0.00114642
0.00116125
0.00116772
0.00116971
0.00116945
0.00116825
0.00116686
0.00116567
0.00116482
0.00116427
0.00116393
0.00116374
0.00116364
0.00116364
0.00116374
0.00116393
0.00116424
0.00116472
0.00116536
0.00116602
0.00116614
0.00116444
0.00115857
0.00114448
0.00111548
0.00106072
0.000961985
0.0007844
0.000406217
0.000467155
0.000962443
0.00119755
0.00133283
0.00141086
0.00145405
0.00147604
0.00148547
0.00148776
0.00148631
0.00148332
0.00148015
0.00147755
0.00147575
0.00147465
0.00147398
0.0014736
0.00147342
0.00147342
0.0014736
0.00147397
0.00147459
0.00147556
0.00147697
0.00147863
0.00147961
0.00147787
0.00146976
0.00144941
0.00140781
0.00133105
0.00119665
0.000962077
0.000467127
0.000500492
0.00106162
0.00133293
0.00149267
0.00158677
0.00163956
0.00166617
0.00167645
0.00167695
0.00167217
0.00166535
0.00165874
0.00165357
0.00165017
0.00164814
0.00164694
0.00164623
0.0016459
0.0016459
0.00164623
0.00164692
0.00164806
0.00164987
0.00165273
0.00165657
0.00166016
0.00166063
0.00165299
0.00162977
0.00158026
0.0014888
0.00133093
0.00106078
0.000500394
0.000518113
0.00111698
0.00141109
0.00158695
0.00169168
0.00175022
0.00177823
0.00178614
0.0017813
0.00176941
0.00175527
0.00174254
0.00173309
0.00172721
0.00172392
0.00172192
0.0017207
0.00172012
0.00172012
0.00172071
0.0017219
0.00172381
0.00172685
0.00173204
0.00173984
0.00174886
0.00175534
0.00175255
0.00173114
0.00167894
0.00157931
0.00140705
0.00111523
0.000517845
0.000527031
0.00114678
0.00145452
0.00164015
0.00175079
0.00181113
0.00183657
0.00183747
0.0018217
0.00179652
0.00176947
0.00174692
0.00173122
0.00172225
0.00171764
0.00171467
0.00171273
0.00171178
0.00171179
0.00171274
0.00171466
0.00171754
0.00172186
0.00173008
0.00174391
0.00176225
0.00178063
0.00178941
0.00177637
0.00172769
0.00162627
0.00144707
0.00114344
0.000526439
0.000531261
0.00116181
0.00147699
0.00166765
0.00178021
0.00183845
0.00185669
0.00184435
0.00180918
0.00176066
0.00171204
0.00167595
0.00165323
0.00164191
0.00163699
0.00163313
0.00163031
0.0016289
0.00162891
0.00163032
0.00163313
0.00163691
0.00164156
0.00165213
0.0016729
0.00170447
0.00174368
0.00177452
0.00177905
0.00174131
0.00164441
0.00146446
0.00115606
0.000530141
0.00053308
0.00116865
0.0014873
0.00167966
0.00179106
0.00184375
0.00184997
0.00181658
0.00174939
0.00166012
0.00157511
0.00152669
0.00150242
0.00149356
0.00149145
0.00148747
0.00148403
0.00148231
0.00148231
0.00148404
0.00148749
0.00149141
0.00149332
0.00150153
0.00152394
0.00156774
0.00164274
0.00171326
0.00174848
0.0017303
0.0016439
0.00146807
0.00115971
0.00053123
0.000533738
0.00117126
0.0014911
0.00168316
0.00179152
0.00183642
0.0018268
0.00176417
0.00164673
0.00148181
0.00132314
0.00128968
0.00129079
0.00129782
0.00130369
0.00130226
0.00129977
0.00129844
0.00129844
0.00129979
0.00130229
0.0013037
0.00129771
0.00129024
0.00128768
0.00131673
0.0014647
0.00160972
0.00169412
0.00170429
0.00163294
0.00146431
0.00115874
0.000531044
0.0005339
0.00117196
0.00149192
0.00168296
0.00178799
0.00182517
0.00179941
0.00170353
0.00151539
0.00119314
0.000735499
0.000941384
0.00105049
0.00109557
0.00111164
0.00111819
0.00111942
0.0011194
0.00111941
0.00111945
0.00111823
0.00111169
0.00109561
0.0010504
0.000940768
0.000732065
0.00117718
0.00147776
0.00163203
0.00167498
0.00161946
0.00145838
0.00115624
0.000530439
0.000533902
0.00117203
0.00149193
0.00168227
0.00178529
0.00181794
0.00178254
0.0016648
0.00141551
0.000783829
0.000572717
0.000851741
0.000929046
0.000954522
0.00096219
0.000964293
0.000964765
0.000964771
0.000964312
0.000962224
0.000954576
0.000929122
0.000851831
0.000572685
0.000772774
0.00137763
0.00159245
0.00165708
0.00161108
0.00145447
0.00115443
0.000530006
0.000533896
0.00117209
0.00149218
0.0016827
0.00178594
0.00181926
0.0017866
0.0016797
0.00147529
0.00112997
0.000669576
0.000802015
0.000898261
0.000939132
0.000955872
0.0009579
0.000957998
0.000957934
0.000957932
0.000957992
0.000957889
0.000955851
0.000939085
0.000898102
0.000801292
0.000666037
0.00111391
0.00143733
0.00160753
0.00166111
0.00161215
0.00145472
0.00115438
0.000530019
0.000533924
0.00117232
0.00149293
0.00168439
0.00178949
0.00182676
0.00180297
0.00171696
0.0015638
0.00134724
0.0011216
0.0010108
0.000950775
0.000928489
0.000921751
0.000920397
0.000920065
0.000919915
0.000919912
0.000920055
0.000920375
0.000921693
0.00092833
0.000950257
0.00100896
0.0011154
0.00133004
0.00152606
0.00164531
0.00167791
0.00161989
0.0014583
0.00115589
0.000530407
0.000533973
0.00117268
0.00149395
0.00168669
0.00179422
0.00183615
0.00182131
0.00175233
0.00163039
0.0014635
0.0012796
0.00112231
0.00100092
0.00094239
0.000920696
0.00091406
0.000912185
0.000911687
0.000911683
0.000912173
0.000914029
0.000920615
0.000942163
0.00100022
0.00112002
0.00127265
0.00144587
0.00159274
0.00168104
0.00169662
0.00162955
0.00146314
0.00115808
0.000530935
0.00053402
0.00117305
0.00149497
0.00168891
0.00179863
0.00184443
0.00183618
0.00177792
0.00167186
0.001524
0.00135081
0.00117865
0.00103314
0.000957331
0.00092748
0.000917569
0.00091464
0.00091389
0.000913887
0.000914628
0.000917537
0.000927392
0.000957078
0.00103237
0.00117619
0.00134357
0.00150613
0.00163416
0.00170674
0.00171167
0.00163797
0.00146758
0.00116015
0.000531406
0.00053405
0.00117334
0.00149578
0.00169064
0.00180197
0.00185042
0.00184628
0.00179391
0.00169524
0.00155451
0.00138388
0.00120568
0.00105016
0.000966569
0.000932724
0.000921175
0.000917711
0.000916831
0.000916828
0.0009177
0.000921143
0.000932633
0.000966308
0.00104937
0.00120314
0.00137648
0.00153647
0.00165744
0.0017227
0.00172178
0.00164395
0.00147086
0.0011617
0.000531735
0.000534061
0.00117354
0.00149631
0.00169176
0.00180408
0.00185409
0.00185219
0.0018027
0.00170722
0.00156901
0.0013987
0.00121772
0.00105802
0.000971084
0.000935458
0.000923174
0.000919468
0.000918525
0.000918521
0.000919455
0.000923141
0.000935366
0.000970819
0.00105721
0.00121518
0.00139122
0.00155086
0.00166932
0.00173142
0.00172763
0.00164756
0.00147288
0.00116266
0.000531919
0.000534057
0.00117363
0.00149657
0.00169231
0.00180509
0.0018558
0.00185486
0.00180654
0.00171221
0.00157476
0.00140435
0.00122224
0.001061
0.000972823
0.000936521
0.000923956
0.000920154
0.000919184
0.00091918
0.000920141
0.000923922
0.000936427
0.000972555
0.00106019
0.00121968
0.00139683
0.00155656
0.00167425
0.0017352
0.00173024
0.00164921
0.00147382
0.0011631
0.000531989
0.000534044
0.00117363
0.00149658
0.00169233
0.00180512
0.00185584
0.00185491
0.00180661
0.00171231
0.00157488
0.00140448
0.00122236
0.00106112
0.000972901
0.00093656
0.000923974
0.000920164
0.000919188
0.000919183
0.00092015
0.000923941
0.000936467
0.000972633
0.00106031
0.00121981
0.00139696
0.00155668
0.00167435
0.00173527
0.0017303
0.00164925
0.00147384
0.00116311
0.000531973
0.000534028
0.00117354
0.00149633
0.00169181
0.00180416
0.0018542
0.00185235
0.00180293
0.00170752
0.00156937
0.00139909
0.00121811
0.0010584
0.000971339
0.000935597
0.000923254
0.000919521
0.000918563
0.000918559
0.000919509
0.000923222
0.000935508
0.000971081
0.00105761
0.00121559
0.00139163
0.00155123
0.00166962
0.00173164
0.00172778
0.00164766
0.00147294
0.00116267
0.000531879
0.000534005
0.00117334
0.0014958
0.00169069
0.00180207
0.00185058
0.00184653
0.00179426
0.00169573
0.00155514
0.00138461
0.00120645
0.00105089
0.000967064
0.000933023
0.000921377
0.000917873
0.000916974
0.000916972
0.000917865
0.000921353
0.000932947
0.000966827
0.00105014
0.00120398
0.00137724
0.00153712
0.00165793
0.00172304
0.001722
0.00164409
0.00147093
0.00116172
0.000531682
0.000533966
0.00117302
0.00149495
0.00168891
0.00179867
0.00184454
0.00183641
0.00177833
0.00167252
0.00152496
0.00135201
0.00117998
0.00103431
0.000958099
0.000927958
0.000917907
0.000914928
0.000914163
0.000914164
0.000914929
0.000917898
0.000927904
0.000957899
0.00103363
0.00117762
0.00134483
0.0015071
0.00163479
0.00170709
0.00171184
0.00163805
0.00146762
0.00116014
0.000531343
0.000533902
0.00117257
0.0014938
0.00168649
0.001794
0.00183598
0.00182126
0.00175257
0.00163108
0.00146479
0.00128142
0.00112431
0.00100238
0.000943102
0.000920961
0.000914111
0.000912171
0.000911663
0.000911667
0.00091218
0.000914112
0.000920917
0.000942925
0.00100179
0.0011222
0.0012746
0.00144714
0.00159325
0.00168105
0.00169643
0.00162934
0.00146299
0.00115797
0.00053085
0.000533809
0.001172
0.00149238
0.00168362
0.00178853
0.00182571
0.00180199
0.00171633
0.00156396
0.00134869
0.00112419
0.0010132
0.00095115
0.000927267
0.000919706
0.000917947
0.000917502
0.00091734
0.000917342
0.000917499
0.000917904
0.000919551
0.000926922
0.000950505
0.00101155
0.00111816
0.00133133
0.00152559
0.00164402
0.00167653
0.00161878
0.00145757
0.00115548
0.00053026
0.000533665
0.00117122
0.00149066
0.00168052
0.00178317
0.00181604
0.00178315
0.00167645
0.00147315
0.00113074
0.00067141
0.000801242
0.000891421
0.000928781
0.00094353
0.000944757
0.000944683
0.000944612
0.000944598
0.000944599
0.000944467
0.000942778
0.00092733
0.000889485
0.000799877
0.000667797
0.0011139
0.00143314
0.00160242
0.00165665
0.00160884
0.00145257
0.00115321
0.000529713
0.000533373
0.00116985
0.00148816
0.00167693
0.00177851
0.00180989
0.00177338
0.00165482
0.00140563
0.000777415
0.000553183
0.000815476
0.000883702
0.000902983
0.000909085
0.000911069
0.00091159
0.000911484
0.000910611
0.000907786
0.000899847
0.000877514
0.000805966
0.000545322
0.000761418
0.0013613
0.00157782
0.00164571
0.001603
0.00144926
0.00115158
0.000529326
0.00053265
0.00116684
0.00148333
0.00167108
0.00177311
0.00180748
0.00177877
0.00167938
0.00148676
0.00115891
0.000700074
0.000861292
0.000946303
0.000967761
0.000967731
0.000970861
0.000972261
0.000972586
0.000972341
0.000971181
0.000967654
0.000959513
0.000949998
0.000915537
0.000825332
0.000675054
0.00112004
0.00143262
0.00159812
0.00165036
0.00160225
0.00144712
0.0011499
0.000528932
0.000530855
0.00115997
0.00147286
0.00165866
0.00176145
0.00180111
0.00178568
0.00171515
0.00158538
0.00139994
0.00120756
0.00112626
0.00107514
0.0010284
0.00100167
0.000992411
0.00098963
0.00098879
0.000988392
0.000987824
0.000986787
0.000986264
0.000992214
0.00100894
0.00105056
0.0011372
0.00133598
0.00151855
0.00162917
0.00165776
0.00159992
0.00144197
0.00114563
0.000527784
0.000526711
0.0011452
0.00145094
0.00163228
0.00173432
0.00177854
0.00177559
0.00172968
0.00164259
0.00152048
0.00138384
0.0012638
0.00115251
0.00105446
0.00100439
0.000985324
0.000979085
0.000977225
0.00097672
0.000976745
0.000977783
0.0009827
0.00100036
0.00104938
0.00115303
0.00128517
0.00143771
0.00156623
0.00164162
0.00165123
0.00158533
0.00142648
0.00113402
0.000524409
0.000517901
0.00111582
0.00140844
0.00158101
0.00167906
0.00172502
0.00173096
0.00170276
0.0016432
0.00155543
0.00144656
0.00132712
0.0012034
0.00109222
0.00103388
0.00101056
0.00100252
0.00100004
0.00099945
0.000999827
0.00100198
0.00100956
0.00103258
0.00109179
0.00120753
0.0013404
0.00146793
0.00156618
0.00161869
0.0016154
0.00154564
0.00139041
0.00110778
0.000516342
0.000500382
0.00106087
0.00133126
0.0014888
0.00157828
0.00162217
0.0016329
0.00161681
0.00157657
0.00151347
0.00142989
0.00133119
0.00122688
0.00113567
0.00108388
0.00106112
0.00105259
0.00104977
0.00104911
0.0010497
0.00105242
0.00106084
0.00108368
0.0011363
0.00122981
0.00133736
0.00143631
0.00150901
0.00154391
0.00153253
0.00146407
0.00131905
0.00105562
0.000499454
0.000467127
0.000962049
0.00119671
0.00133077
0.00140602
0.00144361
0.00145531
0.00144714
0.00142148
0.00137889
0.00132021
0.00124893
0.00117339
0.00110814
0.00106866
0.0010499
0.00104232
0.00103964
0.00103901
0.00103965
0.00104233
0.00104993
0.00106882
0.00110878
0.001175
0.00125134
0.00132074
0.00137024
0.00139118
0.00137629
0.00131529
0.00118941
0.000959056
0.00046668
0.000406247
0.000784419
0.000962109
0.0010607
0.00111468
0.0011415
0.00115079
0.00114738
0.00113312
0.00110822
0.00107289
0.00102918
0.000982661
0.000942471
0.000917215
0.000904619
0.000899295
0.000897346
0.000896887
0.00089739
0.000899381
0.000904757
0.000917457
0.000942962
0.00098354
0.00103016
0.00107219
0.00110139
0.00111204
0.00109866
0.00105281
0.000958627
0.000783093
0.00040612
0.000309542
0.000406245
0.000467179
0.000500459
0.000517863
0.000526219
0.000529234
0.000528713
0.000525278
0.00051891
0.000509518
0.000497537
0.000484531
0.000473216
0.000466145
0.000462646
0.000461171
0.000460625
0.000460493
0.000460637
0.000461192
0.000462675
0.000466189
0.000473303
0.000484701
0.000497736
0.000509314
0.000517099
0.000519435
0.000514484
0.000498985
0.00046664
0.000406105
0.000309581
0.000342965
0.000486383
0.00057714
0.00062811
0.000656044
0.00067073
0.000677923
0.000681024
0.000681991
0.000681917
0.00068141
0.000680808
0.000680291
0.000679921
0.000679681
0.000679532
0.000679443
0.0006794
0.0006794
0.00067944
0.000679525
0.000679662
0.000679868
0.000680148
0.000680431
0.000680454
0.000679622
0.00067679
0.000669915
0.000655523
0.000627815
0.000576996
0.00048633
0.000342976
0.000486386
0.00098661
0.00121956
0.00135279
0.0014293
0.00147156
0.00149325
0.00150292
0.00150589
0.00150537
0.00150333
0.00150095
0.0014989
0.0014974
0.00149643
0.00149582
0.00149546
0.0014953
0.0014953
0.00149546
0.0014958
0.00149636
0.0014972
0.00149833
0.00149948
0.00149977
0.00149727
0.00148858
0.00146809
0.00142697
0.00135137
0.00121877
0.000986233
0.00048633
0.000577181
0.00121966
0.00151911
0.00169496
0.00179896
0.00185791
0.0018886
0.00190196
0.00190514
0.00190282
0.00189812
0.00189308
0.00188889
0.00188594
0.00188407
0.00188294
0.00188229
0.00188198
0.00188198
0.00188228
0.00188291
0.00188395
0.00188557
0.00188789
0.00189057
0.00189223
0.00188989
0.00187853
0.00185035
0.00179382
0.00169181
0.00151739
0.00121887
0.000577038
0.0006282
0.00135301
0.00169509
0.00189974
0.00202296
0.00209353
0.00212973
0.00214386
0.00214438
0.00213732
0.00212716
0.00211714
0.00210916
0.00210378
0.00210051
0.00209855
0.0020974
0.00209687
0.00209686
0.00209739
0.0020985
0.00210034
0.00210325
0.00210774
0.00211365
0.00211913
0.0021201
0.00210979
0.00207847
0.00201267
0.00189337
0.00169157
0.00135136
0.000627869
0.000656188
0.00142965
0.00179931
0.00202325
0.00215921
0.00223658
0.00227414
0.00228479
0.00227795
0.00226113
0.00224075
0.00222195
0.00220765
0.00219855
0.00219333
0.00219016
0.00218825
0.00218735
0.00218735
0.00218824
0.0021901
0.00219312
0.00219791
0.00220592
0.00221767
0.00223097
0.00224037
0.00223686
0.00220846
0.00213995
0.00201126
0.00179258
0.00142642
0.000655474
0.000670939
0.00147212
0.00185867
0.00209448
0.00223747
0.00231668
0.00235052
0.00235175
0.00233036
0.00229572
0.00225757
0.00222445
0.0022006
0.00218659
0.00217922
0.00217448
0.00217146
0.00217001
0.00217001
0.00217145
0.00217442
0.002179
0.00218591
0.00219871
0.00221967
0.00224654
0.0022723
0.00228432
0.00226716
0.00220374
0.00207345
0.00184676
0.00146627
0.000669549
0.000678229
0.00149418
0.00189015
0.00213208
0.00227719
0.00235335
0.00237762
0.00236159
0.00231505
0.00224985
0.00218222
0.00212819
0.0020921
0.00207333
0.00206492
0.00205843
0.00205391
0.00205173
0.00205174
0.00205391