/*--------------------------------*- C++ -*----------------------------------*\
| =========                 |                                                 |
| \\      /  F ield         | OpenFOAM: The Open Source CFD Toolbox           |
|  \\    /   O peration     | Version:  2112                                  |
|   \\  /    A nd           | Website:  www.openfoam.com                      |
|    \\/     M anipulation  |                                                 |
\*---------------------------------------------------------------------------*/
FoamFile
{
    version     2.0;
    format      ascii;
    arch        "LSB;label=32;scalar=64";
    class       volScalarField;
    location    "4.3";
    object      nut;
}
// * * * * * * * * * * * * * * * * * * * * * * * * * * * * * * * * * * * * * //

dimensions      [0 2 -1 0 0 0 0];

internalField   nonuniform List<scalar> 
64906
(
3.68792e-05
3.92337e-05
4.06829e-05
4.14171e-05
4.1773e-05
4.19388e-05
4.20117e-05
4.20408e-05
4.20498e-05
4.20499e-05
4.20465e-05
4.20421e-05
4.20386e-05
4.20362e-05
4.20344e-05
4.2033e-05
4.20318e-05
4.2031e-05
4.20308e-05
4.20312e-05
4.20322e-05
4.20335e-05
4.20351e-05
4.20369e-05
4.2039e-05
4.20393e-05
4.2032e-05
4.20054e-05
4.19349e-05
4.1771e-05
4.14164e-05
4.06831e-05
3.92347e-05
3.68802e-05
3.92358e-05
4.86469e-05
5.31691e-05
5.54614e-05
5.66601e-05
5.72743e-05
5.75707e-05
5.76978e-05
5.77384e-05
5.77378e-05
5.77206e-05
5.77002e-05
5.76831e-05
5.76714e-05
5.76644e-05
5.76604e-05
5.76581e-05
5.7657e-05
5.7657e-05
5.7658e-05
5.76603e-05
5.7664e-05
5.76698e-05
5.76782e-05
5.76863e-05
5.76841e-05
5.76481e-05
5.75311e-05
5.7247e-05
5.66442e-05
5.54542e-05
5.31676e-05
4.86481e-05
3.92386e-05
4.06876e-05
5.31718e-05
5.90498e-05
6.20979e-05
6.37466e-05
6.4622e-05
6.5056e-05
6.52401e-05
6.52877e-05
6.52664e-05
6.52177e-05
6.51665e-05
6.51258e-05
6.50993e-05
6.50842e-05
6.50758e-05
6.50711e-05
6.5069e-05
6.50691e-05
6.50713e-05
6.5076e-05
6.50838e-05
6.50967e-05
6.51169e-05
6.51414e-05
6.51536e-05
6.51152e-05
6.49542e-05
6.45493e-05
6.37014e-05
6.20743e-05
5.90407e-05
5.31715e-05
4.06921e-05
4.14239e-05
5.54667e-05
6.21003e-05
6.56085e-05
6.75472e-05
6.85934e-05
6.91087e-05
6.93071e-05
6.93218e-05
6.924e-05
6.91224e-05
6.90104e-05
6.89251e-05
6.88715e-05
6.88417e-05
6.88248e-05
6.88149e-05
6.88103e-05
6.88105e-05
6.88152e-05
6.88249e-05
6.8841e-05
6.88675e-05
6.89121e-05
6.89746e-05
6.90332e-05
6.90355e-05
6.88849e-05
6.84305e-05
6.74424e-05
6.55498e-05
6.20734e-05
5.54598e-05
4.14291e-05
4.17809e-05
5.66675e-05
6.37519e-05
6.7551e-05
6.96744e-05
7.08184e-05
7.13549e-05
7.15073e-05
7.14222e-05
7.12084e-05
7.09553e-05
7.07323e-05
7.05702e-05
7.04741e-05
7.04236e-05
7.03935e-05
7.03749e-05
7.03659e-05
7.03661e-05
7.03752e-05
7.03938e-05
7.04227e-05
7.04692e-05
7.05541e-05
7.06879e-05
7.0846e-05
7.09613e-05
7.09038e-05
7.04885e-05
6.94591e-05
6.74263e-05
6.36902e-05
5.66461e-05
4.17853e-05
4.19472e-05
5.72837e-05
6.46316e-05
6.86041e-05
7.0828e-05
7.19989e-05
7.24839e-05
7.25033e-05
7.22101e-05
7.17415e-05
7.12408e-05
7.08344e-05
7.05572e-05
7.04074e-05
7.03364e-05
7.02893e-05
7.02571e-05
7.02413e-05
7.02415e-05
7.02576e-05
7.02897e-05
7.03357e-05
7.04023e-05
7.05397e-05
7.07851e-05
7.11179e-05
7.14635e-05
7.16312e-05
7.138e-05
7.04243e-05
6.83673e-05
6.45097e-05
5.72356e-05
4.19484e-05
4.20204e-05
5.75828e-05
6.50732e-05
6.9134e-05
7.13882e-05
7.25159e-05
7.28628e-05
7.26264e-05
7.19517e-05
7.10144e-05
7.00762e-05
6.94142e-05
6.90069e-05
6.88203e-05
6.87513e-05
6.86869e-05
6.86367e-05
6.86118e-05
6.8612e-05
6.86374e-05
6.86877e-05
6.87511e-05
6.8816e-05
6.89902e-05
6.93645e-05
6.99473e-05
7.07172e-05
7.13306e-05
7.1429e-05
7.06893e-05
6.87246e-05
6.48589e-05
5.74925e-05
4.20151e-05
4.20501e-05
5.77151e-05
6.52718e-05
6.93613e-05
7.1591e-05
7.2612e-05
7.27258e-05
7.2071e-05
7.07348e-05
6.89171e-05
6.71625e-05
6.6304e-05
6.58967e-05
6.57828e-05
6.57874e-05
6.57174e-05
6.56515e-05
6.56194e-05
6.56197e-05
6.56524e-05
6.57186e-05
6.57881e-05
6.57804e-05
6.58836e-05
6.62596e-05
6.70367e-05
6.86114e-05
7.00847e-05
7.08201e-05
7.04731e-05
6.87157e-05
6.49326e-05
5.75668e-05
4.20345e-05
4.20604e-05
5.77652e-05
6.53442e-05
6.94272e-05
7.15989e-05
7.24699e-05
7.22702e-05
7.10085e-05
6.85582e-05
6.49083e-05
6.12171e-05
6.10098e-05
6.12901e-05
6.15753e-05
6.17867e-05
6.17558e-05
6.17029e-05
6.16774e-05
6.16777e-05
6.17039e-05
6.17574e-05
6.17885e-05
6.15755e-05
6.12835e-05
6.09788e-05
6.11091e-05
6.4606e-05
6.78869e-05
6.97158e-05
6.99598e-05
6.85039e-05
6.48621e-05
5.75508e-05
4.20322e-05
4.20626e-05
5.77793e-05
6.53612e-05
6.94253e-05
7.15343e-05
7.2256e-05
7.17284e-05
6.97387e-05
6.55586e-05
5.76155e-05
4.73391e-05
5.24513e-05
5.56573e-05
5.69306e-05
5.74461e-05
5.75429e-05
5.75553e-05
5.75552e-05
5.75555e-05
5.75564e-05
5.75446e-05
5.74487e-05
5.69334e-05
5.56591e-05
5.24467e-05
4.72882e-05
5.734e-05
6.48707e-05
6.84111e-05
6.93755e-05
6.82438e-05
6.47506e-05
5.7506e-05
4.20222e-05
4.2062e-05
5.77822e-05
6.5364e-05
6.94165e-05
7.14895e-05
7.21254e-05
7.13998e-05
6.88971e-05
6.30345e-05
4.82587e-05
4.41421e-05
5.1094e-05
5.32661e-05
5.39226e-05
5.41524e-05
5.42234e-05
5.4241e-05
5.42413e-05
5.42241e-05
5.41538e-05
5.39248e-05
5.32695e-05
5.10991e-05
4.41451e-05
4.80897e-05
6.23464e-05
6.75503e-05
6.90242e-05
6.80893e-05
6.46819e-05
5.74764e-05
4.20142e-05
4.20607e-05
5.7785e-05
6.53721e-05
6.94308e-05
7.15128e-05
7.21716e-05
7.15257e-05
6.93357e-05
6.48425e-05
5.6433e-05
4.61656e-05
4.93033e-05
5.20386e-05
5.30859e-05
5.3349e-05
5.35906e-05
5.36708e-05
5.36867e-05
5.36867e-05
5.36708e-05
5.35905e-05
5.33487e-05
5.30855e-05
5.20367e-05
4.92903e-05
4.61063e-05
5.61486e-05
6.41438e-05
6.79928e-05
6.91516e-05
6.81327e-05
6.4699e-05
5.74824e-05
4.20121e-05
4.20599e-05
5.77908e-05
6.53894e-05
6.94686e-05
7.15907e-05
7.23353e-05
7.18883e-05
7.01972e-05
6.70499e-05
6.23245e-05
5.72107e-05
5.51204e-05
5.40151e-05
5.36027e-05
5.34415e-05
5.34603e-05
5.34731e-05
5.34734e-05
5.34733e-05
5.34725e-05
5.34592e-05
5.34392e-05
5.35982e-05
5.40036e-05
5.50849e-05
5.70967e-05
6.20127e-05
6.63593e-05
6.88707e-05
6.95289e-05
6.83064e-05
6.47812e-05
5.75176e-05
4.20179e-05
4.20594e-05
5.77982e-05
6.54113e-05
6.95166e-05
7.16884e-05
7.25297e-05
7.22741e-05
7.09666e-05
6.85767e-05
6.51855e-05
6.1329e-05
5.80156e-05
5.54485e-05
5.42021e-05
5.3721e-05
5.3573e-05
5.35269e-05
5.35119e-05
5.35116e-05
5.35258e-05
5.35709e-05
5.37175e-05
5.41953e-05
5.5433e-05
5.79727e-05
6.12019e-05
6.48675e-05
6.78929e-05
6.96533e-05
6.99284e-05
6.85117e-05
6.48849e-05
5.75637e-05
4.20252e-05
4.20588e-05
5.78051e-05
6.5432e-05
6.95613e-05
7.17766e-05
7.26957e-05
7.25764e-05
7.14996e-05
6.94723e-05
6.65536e-05
6.30121e-05
5.93626e-05
5.62528e-05
5.46145e-05
5.39471e-05
5.37118e-05
5.36328e-05
5.36075e-05
5.3607e-05
5.36312e-05
5.37092e-05
5.39429e-05
5.46068e-05
5.62359e-05
5.9317e-05
6.28805e-05
6.62332e-05
6.87913e-05
7.01932e-05
7.02391e-05
6.86849e-05
6.49767e-05
5.76052e-05
4.20308e-05
4.2058e-05
5.78102e-05
6.54479e-05
6.95955e-05
7.18421e-05
7.28135e-05
7.27772e-05
7.18233e-05
6.99587e-05
6.721e-05
6.37487e-05
5.99744e-05
5.66502e-05
5.48395e-05
5.40805e-05
5.38038e-05
5.37081e-05
5.36761e-05
5.36753e-05
5.3706e-05
5.38007e-05
5.40759e-05
5.48315e-05
5.66328e-05
5.99275e-05
6.36151e-05
6.68879e-05
6.92778e-05
7.05191e-05
7.04431e-05
6.88055e-05
6.50429e-05
5.7635e-05
4.20336e-05
4.20568e-05
5.78131e-05
6.54583e-05
6.96175e-05
7.18831e-05
7.28846e-05
7.28925e-05
7.19979e-05
7.02019e-05
6.75127e-05
6.40682e-05
6.02407e-05
5.68272e-05
5.49438e-05
5.41442e-05
5.38489e-05
5.37448e-05
5.37081e-05
5.3707e-05
5.37423e-05
5.38456e-05
5.41394e-05
5.49356e-05
5.68094e-05
6.01915e-05
6.39334e-05
6.71892e-05
6.95202e-05
7.06938e-05
7.05591e-05
6.8877e-05
6.5083e-05
5.76527e-05
4.20342e-05
4.20555e-05
5.78141e-05
6.54634e-05
6.96282e-05
7.19027e-05
7.29177e-05
7.29446e-05
7.20735e-05
7.03023e-05
6.76316e-05
6.41888e-05
6.03409e-05
5.68937e-05
5.49833e-05
5.41682e-05
5.38654e-05
5.37572e-05
5.3717e-05
5.37156e-05
5.37543e-05
5.38618e-05
5.41632e-05
5.49749e-05
5.68756e-05
6.02903e-05
6.40534e-05
6.73074e-05
6.96199e-05
7.07691e-05
7.0611e-05
6.89099e-05
6.51018e-05
5.76605e-05
4.20331e-05
4.20545e-05
5.78137e-05
6.54637e-05
6.96289e-05
7.19038e-05
7.29192e-05
7.29466e-05
7.20762e-05
7.03057e-05
6.76357e-05
6.41935e-05
6.03459e-05
5.68976e-05
5.49858e-05
5.41692e-05
5.38652e-05
5.37556e-05
5.37134e-05
5.37117e-05
5.37525e-05
5.38614e-05
5.4164e-05
5.49773e-05
5.68796e-05
6.02952e-05
6.40583e-05
6.73117e-05
6.96235e-05
7.07719e-05
7.06131e-05
6.89114e-05
6.51027e-05
5.76603e-05
4.20313e-05
4.20541e-05
5.78121e-05
6.54593e-05
6.96196e-05
7.18862e-05
7.28889e-05
7.28985e-05
7.20058e-05
7.02121e-05
6.75254e-05
6.40831e-05
6.02562e-05
5.68396e-05
5.49515e-05
5.41475e-05
5.38487e-05
5.37406e-05
5.36986e-05
5.36967e-05
5.37373e-05
5.38447e-05
5.41423e-05
5.49431e-05
5.68219e-05
6.02065e-05
6.3949e-05
6.72027e-05
6.9531e-05
7.07022e-05
7.05654e-05
6.88815e-05
6.50858e-05
5.76525e-05
4.20298e-05
4.20547e-05
5.78091e-05
6.54496e-05
6.95987e-05
7.18468e-05
7.28202e-05
7.27866e-05
7.18363e-05
6.99761e-05
6.72325e-05
6.37758e-05
6.00009e-05
5.66727e-05
5.48537e-05
5.4087e-05
5.38043e-05
5.37024e-05
5.36637e-05
5.36619e-05
5.36991e-05
5.38003e-05
5.4082e-05
5.48457e-05
5.66559e-05
5.99542e-05
6.36439e-05
6.69118e-05
6.92963e-05
7.05329e-05
7.04532e-05
6.88126e-05
6.50474e-05
5.76352e-05
4.20283e-05
4.20553e-05
5.78041e-05
6.54336e-05
6.95647e-05
7.17817e-05
7.27035e-05
7.2588e-05
7.15168e-05
6.94972e-05
6.6588e-05
6.30561e-05
5.94042e-05
5.62878e-05
5.46357e-05
5.39568e-05
5.37126e-05
5.36258e-05
5.35939e-05
5.35925e-05
5.36227e-05
5.37088e-05
5.3952e-05
5.46284e-05
5.62727e-05
5.93614e-05
6.29281e-05
6.62702e-05
6.88175e-05
7.02111e-05
7.02513e-05
6.86933e-05
6.49821e-05
5.76059e-05
4.2025e-05
4.20558e-05
5.77965e-05
6.54114e-05
6.95176e-05
7.16907e-05
7.25346e-05
7.22838e-05
7.09845e-05
6.8608e-05
6.52354e-05
6.13977e-05
5.80809e-05
5.54942e-05
5.42232e-05
5.37249e-05
5.35642e-05
5.35093e-05
5.34888e-05
5.34877e-05
5.35066e-05
5.35605e-05
5.37202e-05
5.42165e-05
5.54814e-05
5.80439e-05
6.12772e-05
6.49216e-05
6.79246e-05
6.96702e-05
6.99377e-05
6.85176e-05
6.48887e-05
5.75638e-05
4.20191e-05
4.20559e-05
5.77862e-05
6.53838e-05
6.94611e-05
7.15821e-05
7.23277e-05
7.18851e-05
7.02044e-05
6.70789e-05
6.23899e-05
5.73164e-05
5.5215e-05
5.40418e-05
5.35819e-05
5.33934e-05
5.33935e-05
5.33964e-05
5.3392e-05
5.33911e-05
5.33936e-05
5.33888e-05
5.33861e-05
5.35716e-05
5.40288e-05
5.51894e-05
5.72141e-05
6.20833e-05
6.63827e-05
6.887e-05
6.95212e-05
6.82995e-05
6.4777e-05
5.75141e-05
4.2011e-05
4.20551e-05
5.77718e-05
6.53505e-05
6.94003e-05
7.14749e-05
7.2129e-05
7.14833e-05
6.93033e-05
6.48419e-05
5.65088e-05
4.62373e-05
4.93201e-05
5.18922e-05
5.2854e-05
5.30648e-05
5.32793e-05
5.33491e-05
5.33607e-05
5.33594e-05
5.33444e-05
5.32687e-05
5.30431e-05
5.28189e-05
5.18512e-05
4.93011e-05
4.61781e-05
5.62249e-05
6.41144e-05
6.79318e-05
6.90942e-05
6.80903e-05
6.46724e-05
5.74674e-05
4.20036e-05
4.20522e-05
5.77466e-05
6.53033e-05
6.93317e-05
7.13832e-05
7.20004e-05
7.12583e-05
6.87433e-05
6.2888e-05
4.81803e-05
4.37194e-05
5.0298e-05
5.22767e-05
5.27975e-05
5.29823e-05
5.30411e-05
5.30543e-05
5.30509e-05
5.3028e-05
5.29491e-05
5.27234e-05
5.21369e-05
5.00872e-05
4.35421e-05
4.79228e-05
6.20846e-05
6.7314e-05
6.88445e-05
6.79643e-05
6.46028e-05
5.74336e-05
4.20004e-05
4.20418e-05
5.76905e-05
6.52129e-05
6.92235e-05
7.12851e-05
7.19629e-05
7.13887e-05
6.9341e-05
6.50867e-05
5.70642e-05
4.67937e-05
5.08402e-05
5.34828e-05
5.42256e-05
5.43647e-05
5.43769e-05
5.43804e-05
5.43798e-05
5.43735e-05
5.43539e-05
5.43027e-05
5.41809e-05
5.38358e-05
5.28147e-05
5.00822e-05
4.63314e-05
5.63573e-05
6.40886e-05
6.78332e-05
6.89628e-05
6.79576e-05
6.45637e-05
5.74023e-05
4.1995e-05
4.2013e-05
5.75589e-05
6.50132e-05
6.89908e-05
7.10715e-05
7.1857e-05
7.15591e-05
7.01556e-05
6.74704e-05
6.34126e-05
5.90405e-05
5.77411e-05
5.68548e-05
5.59279e-05
5.54003e-05
5.51822e-05
5.51091e-05
5.50862e-05
5.50768e-05
5.50677e-05
5.50567e-05
5.50622e-05
5.51414e-05
5.54098e-05
5.61119e-05
5.76094e-05
6.21655e-05
6.62158e-05
6.85576e-05
6.91435e-05
6.79259e-05
6.44684e-05
5.73208e-05
4.1977e-05
4.19412e-05
5.72655e-05
6.45833e-05
6.84838e-05
7.05579e-05
7.14381e-05
7.13942e-05
7.05113e-05
6.87925e-05
6.63141e-05
6.34846e-05
6.10713e-05
5.87311e-05
5.66372e-05
5.55743e-05
5.51611e-05
5.50229e-05
5.49811e-05
5.49697e-05
5.4971e-05
5.49957e-05
5.51034e-05
5.5471e-05
5.64946e-05
5.86814e-05
6.14384e-05
6.46759e-05
6.73454e-05
6.88699e-05
6.90412e-05
6.76489e-05
6.41628e-05
5.70874e-05
4.19172e-05
4.17769e-05
5.66575e-05
6.37217e-05
6.74674e-05
6.94774e-05
7.03994e-05
7.05337e-05
7.00083e-05
6.88651e-05
6.7142e-05
6.4958e-05
6.25146e-05
5.9884e-05
5.74917e-05
5.62526e-05
5.5757e-05
5.55861e-05
5.55337e-05
5.55212e-05
5.55286e-05
5.55735e-05
5.57328e-05
5.62175e-05
5.74673e-05
5.99397e-05
6.27595e-05
6.54065e-05
6.73984e-05
6.84339e-05
6.83344e-05
6.68525e-05
6.34225e-05
5.65375e-05
4.17637e-05
4.14219e-05
5.54651e-05
6.20885e-05
6.55634e-05
6.74267e-05
6.83198e-05
6.85514e-05
6.82632e-05
6.75036e-05
6.62825e-05
6.46249e-05
6.26141e-05
6.042e-05
5.84492e-05
5.734e-05
5.68609e-05
5.66829e-05
5.6625e-05
5.66117e-05
5.6623e-05
5.66782e-05
5.68528e-05
5.73313e-05
5.8449e-05
6.04636e-05
6.27265e-05
6.47577e-05
6.62151e-05
6.68896e-05
6.66194e-05
6.51462e-05
6.18967e-05
5.53949e-05
4.14169e-05
4.06875e-05
5.3177e-05
5.90527e-05
6.20849e-05
6.36914e-05
6.44749e-05
6.47301e-05
6.4596e-05
6.41191e-05
6.33017e-05
6.21448e-05
6.07007e-05
5.91295e-05
5.77435e-05
5.69092e-05
5.6518e-05
5.63653e-05
5.63144e-05
5.63028e-05
5.63135e-05
5.63634e-05
5.65149e-05
5.69065e-05
5.77479e-05
5.9152e-05
6.07417e-05
6.21562e-05
6.31405e-05
6.35322e-05
6.31821e-05
6.18374e-05
5.89495e-05
5.31457e-05
4.06889e-05
3.92381e-05
4.86551e-05
5.31814e-05
5.54714e-05
5.66546e-05
5.7227e-05
5.74333e-05
5.73895e-05
5.7137e-05
5.66741e-05
5.59921e-05
5.51209e-05
5.41696e-05
5.33315e-05
5.28051e-05
5.25452e-05
5.24386e-05
5.24011e-05
5.23925e-05
5.24014e-05
5.24389e-05
5.25456e-05
5.28061e-05
5.33359e-05
5.41806e-05
5.5135e-05
5.59767e-05
5.65411e-05
5.67207e-05
5.6399e-05
5.53606e-05
5.31443e-05
4.86496e-05
3.92426e-05
3.68824e-05
3.92426e-05
4.06987e-05
4.1439e-05
4.17988e-05
4.19643e-05
4.20282e-05
4.20318e-05
4.19872e-05
4.1891e-05
4.17447e-05
4.15487e-05
4.13247e-05
4.11207e-05
4.09897e-05
4.09224e-05
4.08917e-05
4.08774e-05
4.08727e-05
4.0878e-05
4.08923e-05
4.09228e-05
4.09897e-05
4.11207e-05
4.1325e-05
4.1549e-05
4.17388e-05
4.18622e-05
4.18871e-05
4.17729e-05
4.14377e-05
4.07061e-05
3.925e-05
3.68868e-05
5.73408e-05
6.57993e-05
7.06352e-05
7.31665e-05
7.44836e-05
7.51487e-05
7.54645e-05
7.55979e-05
7.56398e-05
7.56386e-05
7.56199e-05
7.55974e-05
7.5578e-05
7.5564e-05
7.55548e-05
7.55488e-05
7.55451e-05
7.55432e-05
7.55431e-05
7.55447e-05
7.55482e-05
7.55536e-05
7.55616e-05
7.55721e-05
7.55823e-05
7.55816e-05
7.5545e-05
7.54221e-05
7.51187e-05
7.44649e-05
7.31564e-05
7.06308e-05
6.57982e-05
5.7342e-05
6.57999e-05
0.000194843
0.000243135
0.000267027
0.000280021
0.000287102
0.000290741
0.000292369
0.000292859
0.000292753
0.000292385
0.000291959
0.000291592
0.000291324
0.00029115
0.000291041
0.000290977
0.000290947
0.000290947
0.000290977
0.000291039
0.00029114
0.000291292
0.000291498
0.000291712
0.000291781
0.000291375
0.000289921
0.00028649
0.000279603
0.000266759
0.000242968
0.000194739
6.57991e-05
7.06385e-05
0.000243163
0.00031143
0.000346058
0.000365295
0.000375989
0.000381551
0.000383978
0.000384543
0.000384087
0.000383186
0.00038222
0.000381416
0.000380852
0.000380497
0.000380281
0.000380156
0.000380098
0.000380098
0.000380155
0.000380276
0.000380477
0.000380786
0.000381233
0.000381755
0.000382092
0.000381693
0.000379643
0.000374551
0.000364307
0.000345433
0.000311061
0.000242965
7.06354e-05
7.31726e-05
0.000267075
0.000346085
0.00038694
0.000409968
0.000422854
0.000429439
0.000432002
0.000432056
0.000430686
0.000428721
0.000426775
0.000425217
0.00042417
0.000423539
0.000423155
0.000422928
0.000422823
0.000422823
0.000422927
0.000423147
0.000423509
0.000424075
0.000424955
0.00042612
0.000427213
0.000427465
0.000425636
0.000419972
0.000407977
0.000385679
0.000345355
0.000266714
7.31635e-05
7.44924e-05
0.00028009
0.00036536
0.00041002
0.000435361
0.000449416
0.000456186
0.000458065
0.000456717
0.000453477
0.000449528
0.000445858
0.000443046
0.000441264
0.000440251
0.000439615
0.000439226
0.000439043
0.000439043
0.000439226
0.000439607
0.000440214
0.000441147
0.000442726
0.000445058
0.000447695
0.000449602
0.000449113
0.000444068
0.000431665
0.000407676
0.000364009
0.000279443
7.44693e-05
7.51605e-05
0.000287203
0.000376127
0.000423029
0.000449584
0.000463891
0.000469914
0.000470009
0.000465899
0.00045922
0.000451782
0.000445312
0.000440588
0.000437841
0.00043643
0.000435445
0.000434802
0.000434497
0.000434498
0.000434802
0.000435438
0.000436394
0.000437719
0.000440242
0.00044443
0.000449732
0.00045487
0.000457406
0.000454543
0.00044317
0.000418971
0.00037379
0.000286094
7.51115e-05
7.54801e-05
0.000290903
0.000381836
0.000429882
0.00045677
0.000470458
0.000474677
0.000471511
0.000462535
0.000449741
0.000436288
0.00042592
0.00041878
0.000415152
0.000413652
0.000412193
0.000411167
0.000410692
0.000410694
0.000411169
0.00041219
0.000413622
0.000415043
0.00041845
0.000425034
0.000434149
0.000445093
0.000453402
0.00045496
0.000446328
0.000423338
0.000378077
0.000289118
7.53897e-05
7.5619e-05
0.000292645
0.000384539
0.000432965
0.000459504
0.000471804
0.000473091
0.000464724
0.000447474
0.00042332
0.000398641
0.000385556
0.000377166
0.000373836
0.000373316
0.000371209
0.000369693
0.000369047
0.000369049
0.000369696
0.00037121
0.000373298
0.000373754
0.000376896
0.000384767
0.000396587
0.000418567
0.000437904
0.000447367
0.000443573
0.000423166
0.00037895
0.000289986
7.54722e-05
7.56701e-05
0.00029333
0.000385568
0.000433907
0.000459677
0.000470066
0.000467442
0.000451532
0.000420144
0.000371586
0.000317068
0.000318348
0.000317286
0.000317989
0.000320507
0.000317647
0.000315833
0.000315178
0.000315179
0.000315836
0.00031765
0.000320502
0.000317944
0.000317117
0.000317793
0.000315455
0.00036703
0.000410317
0.00043356
0.000437059
0.00042038
0.000377946
0.000289703
7.54583e-05
7.5683e-05
0.000293514
0.000385804
0.000433878
0.000458806
0.000467261
0.000460458
0.000435101
0.000380165
0.000268378
8.89018e-05
0.000208721
0.000246906
0.000258323
0.000265243
0.000262274
0.00026092
0.000260558
0.000260559
0.000260923
0.000262279
0.000265249
0.000258315
0.000246863
0.000208645
8.86725e-05
0.000264742
0.000370321
0.000416681
0.000429457
0.000416881
0.000376358
0.000289023
7.54124e-05
7.56835e-05
0.000293526
0.000385805
0.000433687
0.000458076
0.000465321
0.000455771
0.000422893
0.000339091
9.18456e-05
7.81683e-05
0.000193533
0.000215954
0.00022031
0.000222982
0.000223897
0.000224108
0.00022411
0.000223901
0.000222989
0.000220319
0.000215963
0.000193539
7.81648e-05
9.11412e-05
0.000329674
0.000404269
0.000424446
0.000414581
0.000375259
0.000288508
7.5379e-05
7.56832e-05
0.000293532
0.000385861
0.000433761
0.000458144
0.000465484
0.000456752
0.000428409
0.00036941
0.000253631
8.46549e-05
0.0001713
0.000194026
0.0001976
0.0001917
0.000200415
0.000203425
0.00020401
0.000204011
0.000203428
0.00020042
0.000191697
0.000197593
0.000193998
0.000171203
8.44082e-05
0.00024996
0.000359424
0.000409773
0.000425433
0.000414697
0.000375227
0.000288436
7.53792e-05
7.56854e-05
0.000293587
0.000386047
0.00043415
0.000458913
0.000467101
0.000460527
0.000438227
0.000397288
0.000335596
0.000265792
0.00024171
0.000219509
0.000210719
0.000205871
0.000207883
0.000208901
0.000209135
0.000209135
0.0002089
0.00020788
0.000205855
0.000210681
0.000219385
0.000241263
0.000264262
0.000330993
0.000387212
0.000419753
0.000429391
0.000416446
0.000376054
0.000288776
7.5408e-05
7.56894e-05
0.000293679
0.000386316
0.000434707
0.000459986
0.00046916
0.000464578
0.000446466
0.000414307
0.000369071
0.000317485
0.000272891
0.000234834
0.000219074
0.00021334
0.000212227
0.000212069
0.000212044
0.000212044
0.000212068
0.000212223
0.000213325
0.000219026
0.000234669
0.000272301
0.000315617
0.00036426
0.000404267
0.000428159
0.000433637
0.000418671
0.000377225
0.000289305
7.54477e-05
7.56933e-05
0.000293779
0.00038659
0.000435263
0.000461017
0.000471004
0.00046782
0.00045209
0.000423773
0.000383702
0.000335629
0.000286306
0.000242374
0.000223162
0.000216193
0.000214069
0.000213503
0.000213378
0.000213378
0.000213504
0.000214067
0.00021618
0.000223113
0.000242197
0.000285675
0.000333671
0.000378835
0.00041377
0.000433891
0.000437013
0.000420637
0.000378329
0.000289826
7.54837e-05
7.56959e-05
0.000293863
0.000386814
0.000435709
0.000461821
0.00047237
0.000470041
0.00045555
0.000428859
0.00039047
0.000343083
0.000292223
0.000245991
0.000225203
0.000217496
0.000215001
0.000214298
0.000214139
0.00021414
0.000214299
0.000215
0.000217484
0.000225154
0.000245811
0.000291581
0.000341091
0.00038558
0.000418868
0.0004374
0.000439303
0.000422069
0.000379167
0.000290229
7.55092e-05
7.5697e-05
0.00029392
0.000386965
0.000436007
0.000462345
0.000473228
0.000471365
0.000457471
0.000431446
0.000393602
0.000346285
0.000294782
0.00024763
0.00022616
0.000218103
0.000215458
0.000214705
0.000214535
0.000214536
0.000214707
0.000215458
0.000218092
0.000226111
0.000247451
0.000294152
0.00034428
0.000388697
0.000421453
0.000439336
0.000440653
0.000422952
0.000379696
0.000290486
7.55236e-05
7.56968e-05
0.000293948
0.00038704
0.000436153
0.0004626
0.000473636
0.000471975
0.000458319
0.000432531
0.000394845
0.0003475
0.000295737
0.000248257
0.000226529
0.000218336
0.000215634
0.000214863
0.000214691
0.000214692
0.000214866
0.000215634
0.000218325
0.00022648
0.000248077
0.000295111
0.000345487
0.000389932
0.000422534
0.000440186
0.000441269
0.000423365
0.000379948
0.000290608
7.55292e-05
7.56959e-05
0.000293948
0.000387042
0.000436157
0.000462605
0.000473644
0.000471985
0.000458333
0.000432548
0.000394865
0.000347521
0.000295758
0.000248283
0.000226545
0.000218344
0.000215639
0.000214867
0.000214696
0.000214697
0.00021487
0.000215639
0.000218333
0.000226497
0.000248103
0.00029513
0.000345508
0.000389951
0.000422551
0.0004402
0.00044128
0.000423372
0.000379952
0.000290609
7.5528e-05
7.56946e-05
0.00029392
0.00038697
0.000436016
0.000462358
0.000473247
0.000471392
0.000457508
0.000431495
0.000393661
0.00034635
0.000294848
0.000247714
0.000226214
0.000218134
0.000215479
0.000214724
0.000214556
0.000214558
0.000214727
0.00021548
0.000218125
0.000226168
0.000247538
0.000294225
0.000344345
0.000388756
0.000421502
0.000439373
0.000440681
0.000422971
0.000379708
0.000290489
7.55206e-05
7.56926e-05
0.000293861
0.000386817
0.000435716
0.000461833
0.00047239
0.000470074
0.000455602
0.000428936
0.000390572
0.000343203
0.000292368
0.000246153
0.000225314
0.00021757
0.000215059
0.000214353
0.000214197
0.0002142
0.000214358
0.000215062
0.000217563
0.000225272
0.000245985
0.000291747
0.000341215
0.000385682
0.000418942
0.000437449
0.000439335
0.000422089
0.000379178
0.000290231
7.55052e-05
7.56892e-05
0.000293768
0.000386578
0.000435249
0.000461003
0.000470996
0.000467829
0.000452132
0.000423863
0.000383852
0.000335835
0.000286582
0.000242648
0.000223354
0.000216336
0.000214187
0.000213618
0.000213496
0.000213499
0.000213625
0.000214195
0.000216335
0.000223321
0.000242492
0.000285975
0.000333884
0.000378984
0.000413848
0.000433918
0.000437014
0.00042063
0.000378322
0.000289817
7.54789e-05
7.56839e-05
0.000293643
0.000386257
0.000434624
0.000459885
0.000469052
0.000464486
0.000446426
0.000414367
0.000369276
0.000317831
0.000273343
0.000235216
0.00021932
0.00021353
0.000212365
0.000212196
0.000212176
0.000212181
0.000212207
0.000212379
0.000213536
0.000219295
0.000235082
0.000272799
0.000315985
0.000364464
0.000404286
0.000428066
0.000433511
0.000418562
0.000377149
0.000289259
7.54411e-05
7.56764e-05
0.000293484
0.000385865
0.000433888
0.000458582
0.000466723
0.000460145
0.00043792
0.000397187
0.000335859
0.000266364
0.000242356
0.000219743
0.000210654
0.000205719
0.000207595
0.000208586
0.000208827
0.000208832
0.000208598
0.000207607
0.000205708
0.000210599
0.000219613
0.00024197
0.000264891
0.000331279
0.000386979
0.000419279
0.000428905
0.00041606
0.000375795
0.000288634
7.53962e-05
7.56647e-05
0.000293266
0.000385383
0.00043308
0.00045728
0.000464473
0.000455659
0.000427374
0.000368752
0.000254008
8.47733e-05
0.000171436
0.00019252
0.000195282
0.000188982
0.000197483
0.00020048
0.000201072
0.00020107
0.000200464
0.000197425
0.000188804
0.00019496
0.000192119
0.000171393
8.4521e-05
0.000250393
0.000358354
0.000408268
0.000424066
0.000413659
0.000374539
0.000288067
7.53546e-05
7.56414e-05
0.000292891
0.000384677
0.00043211
0.00045609
0.000462967
0.000453104
0.000420067
0.000336669
9.14366e-05
7.6746e-05
0.000185609
0.000205829
0.000208794
0.000211316
0.000212319
0.000212581
0.00021256
0.000212225
0.000211037
0.0002081
0.000204473
0.000183639
7.61733e-05
9.04214e-05
0.000325844
0.000400236
0.000421155
0.000412179
0.000373674
0.000287653
7.53247e-05
7.55851e-05
0.000292087
0.000383347
0.000430529
0.000454649
0.000462327
0.000454704
0.000428436
0.000372661
0.000261084
8.66157e-05
0.000190464
0.0002225
0.000228261
0.000231028
0.000228246
0.00022733
0.000227161
0.000227107
0.000227089
0.000227519
0.000229152
0.000224123
0.000215067
0.00018265
8.49826e-05
0.000252645
0.000358598
0.000407346
0.000422512
0.000411938
0.000373068
0.00028721
7.52934e-05
7.54475e-05
0.000290327
0.000380577
0.000427295
0.000451639
0.000460634
0.000456409
0.000438335
0.000403738
0.000350309
0.000288636
0.000276569
0.000262346
0.000248123
0.000241877
0.000238517
0.000237349
0.000237029
0.000236941
0.000236942
0.000237228
0.000238239
0.000239016
0.000243813
0.000256161
0.000270911
0.000333316
0.000385743
0.000415833
0.000424269
0.000411222
0.000371686
0.000286132
7.52051e-05
7.51345e-05
0.000286691
0.000375
0.000420694
0.000444945
0.000455077
0.000453875
0.000442024
0.00041929
0.000386248
0.000347716
0.000314692
0.000281035
0.000249154
0.00023614
0.000231496
0.000230007
0.000229575
0.000229466
0.000229499
0.000229825
0.000231112
0.000235208
0.000248215
0.00028157
0.0003195
0.000362962
0.000398281
0.000418774
0.000422507
0.000407537
0.000367793
0.000283331
7.49506e-05
7.44748e-05
0.000279684
0.000364476
0.000408168
0.000431639
0.000442303
0.000443252
0.000435671
0.000419846
0.000396059
0.000365662
0.000331325
0.000293829
0.000258076
0.000242932
0.000237479
0.000235681
0.000235138
0.000235011
0.000235096
0.00023558
0.000237294
0.000242673
0.0002581
0.000295051
0.000334649
0.000371083
0.000398441
0.000413282
0.000413913
0.000397952
0.000359
0.000277181
7.43478e-05
7.3163e-05
0.000266781
0.00034547
0.000385636
0.000407299
0.000417662
0.000419865
0.000415249
0.00040422
0.000386835
0.00036344
0.000335274
0.000304765
0.000277535
0.000263941
0.000258396
0.000256393
0.000255741
0.00025559
0.000255726
0.000256357
0.000258342
0.000263922
0.000277775
0.000305587
0.000336821
0.000364908
0.00038537
0.000395657
0.000394133
0.000378251
0.000341633
0.000265071
7.30851e-05
7.06356e-05
0.000242965
0.000311052
0.000345261
0.000363626
0.000372654
0.000375244
0.000372699
0.000365457
0.000353552
0.000337126
0.000317065
0.000295633
0.000277064
0.000266575
0.000261813
0.000259923
0.000259256
0.000259099
0.000259262
0.000259934
0.000261836
0.000266644
0.000277274
0.000296088
0.000317676
0.000337153
0.000351124
0.000357535
0.000354817
0.000340493
0.000308678
0.00024194
7.0596e-05
6.58016e-05
0.000194728
0.000242952
0.000266655
0.000279225
0.00028545
0.000287499
0.000286378
0.000282441
0.000275723
0.000266293
0.000254696
0.000242378
0.000231759
0.000225281
0.000222108
0.000220769
0.000220274
0.000220157
0.000220289
0.000220799
0.000222157
0.000225365
0.000231918
0.000242639
0.000254967
0.000266095
0.000273949
0.000277169
0.000274574
0.000264259
0.000241829
0.000194265
6.5789e-05
5.73446e-05
6.58015e-05
7.06395e-05
7.31681e-05
7.44694e-05
7.5092e-05
7.53155e-05
7.52722e-05
7.50073e-05
7.4519e-05
7.37992e-05
7.28784e-05
7.18722e-05
7.09885e-05
7.04304e-05
7.01519e-05
7.00336e-05
6.99896e-05
6.99789e-05
6.99905e-05
7.00353e-05
7.01542e-05
7.0434e-05
7.09956e-05
7.18856e-05
7.28931e-05
7.37811e-05
7.43765e-05
7.45601e-05
7.41985e-05
7.30455e-05
7.05918e-05
6.57877e-05
5.73481e-05
6.04004e-05
7.20617e-05
7.85828e-05
8.20448e-05
8.39006e-05
8.48718e-05
8.53495e-05
8.55571e-05
8.56222e-05
8.56168e-05
8.55816e-05
8.55397e-05
8.55035e-05
8.54774e-05
8.54605e-05
8.54499e-05
8.54437e-05
8.54407e-05
8.54406e-05
8.54435e-05
8.54494e-05
8.5459e-05
8.54735e-05
8.54931e-05
8.55127e-05
8.55145e-05
8.54585e-05
8.52693e-05
8.48134e-05
8.38625e-05
8.20225e-05
7.85712e-05
7.20569e-05
6.04012e-05
7.20619e-05
0.000257935
0.00033301
0.000370869
0.000391771
0.000403357
0.000409419
0.000412163
0.00041297
0.000412723
0.000411996
0.00041116
0.000410432
0.000409896
0.000409542
0.000409319
0.000409188
0.000409126
0.000409125
0.000409185
0.000409311
0.000409516
0.000409822
0.000410234
0.000410668
0.000410846
0.0004102
0.000407782
0.000402114
0.0003909
0.000370296
0.000332646
0.000257722
7.20569e-05
7.85857e-05
0.000333058
0.000446364
0.00050539
0.000538602
0.000557274
0.000567083
0.000571377
0.000572312
0.000571356
0.000569545
0.0005676
0.000565966
0.000564809
0.000564075
0.000563623
0.000563359
0.000563237
0.000563237
0.000563356
0.000563608
0.000564024
0.000564662
0.000565579
0.000566657
0.000567402
0.000566804
0.000563248
0.000554348
0.000536554
0.000504059
0.000445557
0.000332642
7.8574e-05
8.20511e-05
0.000370956
0.000505444
0.000577068
0.000617919
0.000640964
0.000652805
0.000657382
0.00065733
0.00065458
0.000650651
0.00064672
0.000643548
0.000641407
0.000640111
0.000639311
0.000638837
0.000638617
0.000638617
0.000638833
0.000639289
0.000640038
0.000641197
0.000642996
0.000645391
0.000647676
0.000648385
0.000645261
0.000635207
0.000613886
0.000574461
0.000503899
0.000370207
8.20254e-05
8.39105e-05
0.000391899
0.000538737
0.000618031
0.000663528
0.000688919
0.000701164
0.000704453