/*--------------------------------*- C++ -*----------------------------------*\
| =========                 |                                                 |
| \\      /  F ield         | OpenFOAM: The Open Source CFD Toolbox           |
|  \\    /   O peration     | Version:  2112                                  |
|   \\  /    A nd           | Website:  www.openfoam.com                      |
|    \\/     M anipulation  |                                                 |
\*---------------------------------------------------------------------------*/
FoamFile
{
    version     2.0;
    format      ascii;
    arch        "LSB;label=32;scalar=64";
    class       volScalarField;
    location    "4.3";
    object      p;
}
// * * * * * * * * * * * * * * * * * * * * * * * * * * * * * * * * * * * * * //

dimensions      [0 2 -2 0 0 0 0];

internalField   nonuniform List<scalar> 
64906
(
-4.72647e-06
-4.71166e-06
-4.69753e-06
-4.69762e-06
-4.72138e-06
-4.76288e-06
-4.82722e-06
-4.91513e-06
-5.0253e-06
-5.15503e-06
-5.29809e-06
-5.44984e-06
-5.61083e-06
-5.74516e-06
-5.85998e-06
-5.95343e-06
-6.02274e-06
-6.06654e-06
-6.08418e-06
-6.07578e-06
-6.04232e-06
-5.98522e-06
-5.90664e-06
-5.805e-06
-5.69052e-06
-5.58213e-06
-5.48376e-06
-5.40009e-06
-5.33689e-06
-5.29547e-06
-5.27128e-06
-5.27349e-06
-5.28874e-06
-5.30528e-06
-4.67311e-06
-4.60944e-06
-4.56011e-06
-4.52286e-06
-4.50909e-06
-4.51753e-06
-4.5471e-06
-4.59595e-06
-4.66082e-06
-4.73826e-06
-4.82152e-06
-4.90606e-06
-4.97612e-06
-5.05546e-06
-5.12502e-06
-5.18273e-06
-5.22682e-06
-5.25711e-06
-5.27338e-06
-5.27577e-06
-5.26481e-06
-5.24105e-06
-5.20736e-06
-5.16977e-06
-5.13367e-06
-5.08864e-06
-5.04748e-06
-5.01474e-06
-4.99794e-06
-5.00132e-06
-5.02889e-06
-5.08363e-06
-5.15362e-06
-5.23283e-06
-4.64508e-06
-4.54823e-06
-4.4531e-06
-4.37064e-06
-4.31868e-06
-4.29628e-06
-4.30138e-06
-4.33166e-06
-4.38335e-06
-4.45373e-06
-4.53312e-06
-4.61761e-06
-4.69076e-06
-4.75852e-06
-4.81357e-06
-4.85825e-06
-4.89209e-06
-4.9165e-06
-4.93173e-06
-4.93793e-06
-4.93514e-06
-4.92229e-06
-4.90051e-06
-4.86804e-06
-4.83048e-06
-4.78454e-06
-4.74803e-06
-4.72586e-06
-4.7301e-06
-4.7658e-06
-4.83845e-06
-4.9524e-06
-5.08025e-06
-5.20563e-06
-4.64345e-06
-4.51463e-06
-4.3772e-06
-4.25148e-06
-4.16641e-06
-4.12201e-06
-4.11767e-06
-4.15306e-06
-4.22575e-06
-4.33566e-06
-4.46725e-06
-4.61458e-06
-4.73757e-06
-4.84027e-06
-4.91426e-06
-4.96975e-06
-5.00829e-06
-5.03416e-06
-5.04837e-06
-5.05103e-06
-5.04139e-06
-5.01542e-06
-4.97216e-06
-4.90183e-06
-4.81371e-06
-4.70497e-06
-4.61901e-06
-4.56331e-06
-4.55754e-06
-4.60519e-06
-4.71015e-06
-4.87736e-06
-5.05789e-06
-5.22558e-06
-4.68254e-06
-4.52619e-06
-4.35463e-06
-4.19635e-06
-4.0911e-06
-4.04214e-06
-4.05268e-06
-4.12758e-06
-4.26909e-06
-4.48468e-06
-4.75044e-06
-5.05905e-06
-5.30675e-06
-5.50355e-06
-5.63742e-06
-5.73343e-06
-5.79557e-06
-5.83246e-06
-5.84598e-06
-5.83615e-06
-5.80132e-06
-5.73297e-06
-5.62785e-06
-5.46142e-06
-5.24789e-06
-4.97831e-06
-4.76252e-06
-4.60867e-06
-4.54653e-06
-4.57307e-06
-4.68769e-06
-4.88716e-06
-5.10891e-06
-5.31356e-06
-4.76465e-06
-4.58211e-06
-4.38188e-06
-4.20104e-06
-4.08858e-06
-4.05284e-06
-4.10239e-06
-4.25045e-06
-4.50821e-06
-4.89924e-06
-5.39455e-06
-6.00514e-06
-6.46497e-06
-6.81745e-06
-7.04949e-06
-7.21447e-06
-7.31822e-06
-7.37546e-06
-7.38867e-06
-7.35778e-06
-7.28041e-06
-7.14169e-06
-6.93669e-06
-6.61257e-06
-6.18614e-06
-5.61445e-06
-5.17533e-06
-4.85418e-06
-4.68875e-06
-4.66115e-06
-4.76265e-06
-4.9778e-06
-5.23257e-06
-5.47246e-06
-4.88895e-06
-4.67826e-06
-4.45147e-06
-4.25539e-06
-4.14691e-06
-4.13972e-06
-4.24812e-06
-4.49526e-06
-4.90562e-06
-5.53712e-06
-6.34467e-06
-7.48812e-06
-8.24321e-06
-8.80185e-06
-9.15708e-06
-9.41089e-06
-9.56842e-06
-9.65263e-06
-9.66598e-06
-9.60824e-06
-9.47688e-06
-9.24838e-06
-8.91856e-06
-8.38556e-06
-7.66303e-06
-6.55557e-06
-5.8147e-06
-5.2607e-06
-4.9551e-06
-4.8475e-06
-4.91782e-06
-5.13776e-06
-5.42195e-06
-5.70093e-06
-5.05989e-06
-4.80985e-06
-4.55414e-06
-4.34922e-06
-4.25559e-06
-4.29162e-06
-4.47557e-06
-4.8356e-06
-5.4119e-06
-6.29668e-06
-7.4262e-06
-9.54374e-06
-1.0615e-05
-1.14195e-05
-1.19175e-05
-1.2281e-05
-1.25059e-05
-1.26242e-05
-1.26381e-05
-1.25472e-05
-1.23491e-05
-1.20106e-05
-1.15365e-05
-1.07534e-05
-9.71345e-06
-7.62095e-06
-6.58013e-06
-5.77732e-06
-5.31613e-06
-5.11393e-06
-5.13854e-06
-5.35538e-06
-5.66755e-06
-5.99537e-06
-5.25678e-06
-4.96132e-06
-4.68349e-06
-4.47039e-06
-4.3998e-06
-4.49056e-06
-4.75968e-06
-5.23093e-06
-5.90373e-06
-6.93436e-06
-8.41186e-06
-1.23074e-05
-1.34028e-05
-1.44306e-05
-1.50573e-05
-1.55162e-05
-1.57998e-05
-1.59488e-05
-1.59634e-05
-1.58434e-05
-1.55879e-05
-1.51545e-05
-1.45511e-05
-1.3537e-05
-1.24716e-05
-8.58935e-06
-7.25977e-06
-6.28746e-06
-5.7307e-06
-5.43219e-06
-5.40249e-06
-5.61194e-06
-5.95472e-06
-6.35561e-06
-5.47653e-06
-5.12981e-06
-4.82889e-06
-4.61543e-06
-4.58461e-06
-4.75671e-06
-5.15046e-06
-5.77007e-06
-6.63822e-06
-8.84414e-06
-7.00067e-06
-1.50764e-05
-1.61383e-05
-1.76111e-05
-1.84262e-05
-1.90343e-05
-1.9409e-05
-1.96023e-05
-1.96178e-05
-1.94551e-05
-1.91104e-05
-1.85297e-05
-1.77397e-05
-1.62763e-05
-1.52675e-05
-7.08963e-06
-9.13479e-06
-6.98685e-06
-6.2708e-06
-5.84192e-06
-5.72146e-06
-5.90542e-06
-6.26817e-06
-6.75303e-06
-5.7086e-06
-5.30413e-06
-4.9769e-06
-4.76546e-06
-4.78332e-06
-5.05093e-06
-5.54608e-06
-6.11478e-06
-6.66474e-06
-4.63903e-06
-2.21391e-05
-1.97422e-05
-2.06181e-05
-2.13326e-05
-2.19604e-05
-2.23748e-05
-2.25854e-05
-2.26013e-05
-2.24221e-05
-2.20386e-05
-2.14388e-05
-2.07458e-05
-1.98734e-05
-2.21986e-05
-5.23189e-06
-7.13897e-06
-6.64962e-06
-6.2526e-06
-6.05569e-06
-6.20206e-06
-6.58628e-06
-7.17738e-06
-5.9439e-06
-5.47895e-06
-5.12715e-06
-4.9276e-06
-5.02658e-06
-5.48914e-06
-6.41107e-06
-7.92062e-06
-1.03806e-05
-1.34504e-05
-2.00592e-05
-1.87853e-05
-2.12065e-05
-2.28729e-05
-2.40994e-05
-2.5019e-05
-2.5585e-05
-2.58554e-05
-2.58715e-05
-2.56335e-05
-2.51006e-05
-2.42145e-05
-2.30224e-05
-2.1395e-05
-1.90095e-05
-2.03689e-05
-1.37294e-05
-1.07143e-05
-8.36962e-06
-7.07553e-06
-6.50204e-06
-6.52522e-06
-6.90124e-06
-7.62186e-06
-6.16825e-06
-5.64414e-06
-5.26213e-06
-5.06136e-06
-5.20845e-06
-5.78018e-06
-6.87554e-06
-8.56857e-06
-1.09358e-05
-1.36352e-05
-1.81026e-05
-2.04692e-05
-2.25138e-05
-2.42813e-05
-2.5676e-05
-2.66713e-05
-2.72883e-05
-2.7584e-05
-2.75999e-05
-2.7336e-05
-2.67514e-05
-2.57886e-05
-2.44271e-05
-2.26875e-05
-2.06585e-05
-1.83408e-05
-1.39099e-05
-1.12376e-05
-8.98016e-06
-7.51974e-06
-6.81244e-06
-6.79189e-06
-7.19614e-06
-8.03467e-06
-6.37353e-06
-5.79698e-06
-5.38408e-06
-5.1753e-06
-5.35138e-06
-5.99393e-06
-7.20188e-06
-9.04446e-06
-1.15851e-05
-1.46428e-05
-1.83132e-05
-2.10466e-05
-2.34408e-05
-2.53554e-05
-2.68339e-05
-2.78407e-05
-2.84562e-05
-2.87472e-05
-2.87625e-05
-2.85021e-05
-2.79179e-05
-2.69429e-05
-2.54971e-05
-2.36104e-05
-2.12439e-05
-1.85264e-05
-1.48638e-05
-1.18433e-05
-9.42431e-06
-7.83554e-06
-7.05416e-06
-7.02293e-06
-7.46831e-06
-8.40339e-06
-6.55148e-06
-5.9306e-06
-5.48638e-06
-5.26052e-06
-5.44218e-06
-6.11216e-06
-7.36278e-06
-9.25577e-06
-1.18255e-05
-1.49128e-05
-1.83439e-05
-2.13589e-05
-2.3984e-05
-2.59638e-05
-2.7463e-05
-2.84507e-05
-2.90456e-05
-2.9323e-05
-2.93375e-05
-2.90895e-05
-2.85244e-05
-2.7567e-05
-2.6099e-05
-2.41447e-05
-2.15447e-05
-1.85343e-05
-1.51086e-05
-1.206e-05
-9.62014e-06
-8.0002e-06
-7.20995e-06
-7.20184e-06
-7.69667e-06
-8.71582e-06
-6.69827e-06
-6.04237e-06
-5.57089e-06
-5.32643e-06
-5.50397e-06
-6.18288e-06
-7.44983e-06
-9.363e-06
-1.19436e-05
-1.50514e-05
-1.84491e-05
-2.16063e-05
-2.43469e-05
-2.63703e-05
-2.78765e-05
-2.88431e-05
-2.94158e-05
-2.96788e-05
-2.96928e-05
-2.94582e-05
-2.89143e-05
-2.79767e-05
-2.65003e-05
-2.45006e-05
-2.17837e-05
-1.86249e-05
-1.5231e-05
-1.2164e-05
-9.72176e-06
-8.09852e-06
-7.31991e-06
-7.34279e-06
-7.88198e-06
-8.96815e-06
-6.81082e-06
-6.12915e-06
-5.63626e-06
-5.37498e-06
-5.54438e-06
-6.22273e-06
-7.49353e-06
-9.41475e-06
-1.20033e-05
-1.51348e-05
-1.85526e-05
-2.17779e-05
-2.46039e-05
-2.66581e-05
-2.81686e-05
-2.91224e-05
-2.96812e-05
-2.99353e-05
-2.99492e-05
-2.97231e-05
-2.91924e-05
-2.82665e-05
-2.67842e-05
-2.47524e-05
-2.19607e-05
-1.87195e-05
-1.53045e-05
-1.22167e-05
-9.77381e-06
-8.15597e-06
-7.3946e-06
-7.4468e-06
-8.02115e-06
-9.15728e-06
-6.88775e-06
-6.19007e-06
-5.68339e-06
-5.41083e-06
-5.57435e-06
-6.25214e-06
-7.52679e-06
-9.45727e-06
-1.20598e-05
-1.52182e-05
-1.86697e-05
-2.19521e-05
-2.48215e-05
-2.68984e-05
-2.84171e-05
-2.93692e-05
-2.99239e-05
-3.0175e-05
-3.01893e-05
-2.99666e-05
-2.94401e-05
-2.85151e-05
-2.70222e-05
-2.49604e-05
-2.20979e-05
-1.88243e-05
-1.53813e-05
-1.22701e-05
-9.81866e-06
-8.2006e-06
-7.44903e-06
-7.5198e-06
-8.1161e-06
-9.28391e-06
-6.92875e-06
-6.22466e-06
-5.71237e-06
-5.43538e-06
-5.59735e-06
-6.27725e-06
-7.55861e-06
-9.50168e-06
-1.21236e-05
-1.53089e-05
-1.87919e-05
-2.21074e-05
-2.50032e-05
-2.70989e-05
-2.86297e-05
-2.95899e-05
-3.01495e-05
-3.04034e-05
-3.04185e-05
-3.01947e-05
-2.96643e-05
-2.87316e-05
-2.72258e-05
-2.51435e-05
-2.2254e-05
-1.89455e-05
-1.54715e-05
-1.23345e-05
-9.86633e-06
-8.23971e-06
-7.48729e-06
-7.56343e-06
-8.16789e-06
-9.34892e-06
-6.93429e-06
-6.23334e-06
-5.72355e-06
-5.44886e-06
-5.61359e-06
-6.2982e-06
-7.58863e-06
-9.54662e-06
-1.21918e-05
-1.54039e-05
-1.8918e-05
-2.22471e-05
-2.51502e-05
-2.72586e-05
-2.88038e-05
-2.97806e-05
-3.03532e-05
-3.06151e-05
-3.06316e-05
-3.04026e-05
-2.98617e-05
-2.89144e-05
-2.73956e-05
-2.53019e-05
-2.24046e-05
-1.90804e-05
-1.5573e-05
-1.24081e-05
-9.91576e-06
-8.27309e-06
-7.50974e-06
-7.57851e-06
-8.17771e-06
-9.35352e-06
-6.90603e-06
-6.21772e-06
-5.71779e-06
-5.4506e-06
-5.6197e-06
-6.30773e-06
-7.60528e-06
-9.57705e-06
-1.22494e-05
-1.54905e-05
-1.90489e-05
-2.23681e-05
-2.52595e-05
-2.73737e-05
-2.89346e-05
-2.99364e-05
-3.05301e-05
-3.08054e-05
-3.08243e-05
-3.05864e-05
-3.00287e-05
-2.90606e-05
-2.75305e-05
-2.54395e-05
-2.25843e-05
-1.92364e-05
-1.56769e-05
-1.24795e-05
-9.95664e-06
-8.2942e-06
-7.51398e-06
-7.5657e-06
-8.1474e-06
-9.30012e-06
-6.84632e-06
-6.17979e-06
-5.69516e-06
-5.43697e-06
-5.6058e-06
-6.28619e-06
-7.57493e-06
-9.54261e-06
-1.22322e-05
-1.5504e-05
-1.91751e-05
-2.2487e-05
-2.52983e-05
-2.73908e-05
-2.89553e-05
-2.99846e-05
-3.06047e-05
-3.08979e-05
-3.092e-05
-3.0671e-05
-3.00934e-05
-2.91045e-05
-2.75765e-05
-2.55107e-05
-2.2718e-05
-1.93872e-05
-1.57172e-05
-1.24884e-05
-9.9442e-06
-8.27576e-06
-7.48702e-06
-7.5214e-06
-8.07743e-06
-9.19124e-06
-6.75974e-06
-6.12411e-06
-5.65883e-06
-5.4088e-06
-5.56877e-06
-6.22352e-06
-7.4757e-06
-9.40472e-06
-1.20958e-05
-1.5401e-05
-1.93594e-05
-2.25755e-05
-2.52271e-05
-2.72771e-05
-2.88303e-05
-2.98848e-05
-3.05303e-05
-3.08418e-05
-3.08691e-05
-3.06125e-05
-3.00203e-05
-2.90181e-05
-2.75115e-05
-2.54966e-05
-2.28543e-05
-1.9613e-05
-1.56711e-05
-1.24043e-05
-9.85001e-06
-8.20478e-06
-7.42705e-06
-7.45036e-06
-7.97497e-06
-9.03428e-06
-6.65158e-06
-6.05413e-06
-5.60818e-06
-5.35884e-06
-5.48906e-06
-6.07729e-06
-7.22121e-06
-8.99117e-06
-1.14547e-05
-1.4344e-05
-1.93614e-05
-2.29008e-05
-2.49767e-05
-2.68441e-05
-2.83135e-05
-2.93616e-05
-3.00171e-05
-3.03421e-05
-3.03771e-05
-3.01228e-05
-2.9537e-05
-2.85602e-05
-2.7155e-05
-2.53458e-05
-2.32998e-05
-1.96612e-05
-1.46654e-05
-1.18279e-05
-9.50737e-06
-8.00446e-06
-7.301e-06
-7.34275e-06
-7.84231e-06
-8.83439e-06
-6.5322e-06
-5.97849e-06
-5.55336e-06
-5.30269e-06
-5.39284e-06
-5.89238e-06
-6.9061e-06
-8.57645e-06
-1.13002e-05
-1.49135e-05
-2.07576e-05
-2.1323e-05
-2.41983e-05
-2.62716e-05
-2.76729e-05
-2.87098e-05
-2.93576e-05
-2.96838e-05
-2.97321e-05
-2.95052e-05
-2.89567e-05
-2.80234e-05
-2.67074e-05
-2.47105e-05
-2.18566e-05
-2.10238e-05
-1.54898e-05
-1.18731e-05
-9.23927e-06
-7.78241e-06
-7.15669e-06
-7.23027e-06
-7.72437e-06
-8.59086e-06
-6.40967e-06
-5.9003e-06
-5.49257e-06
-5.23134e-06
-5.25199e-06
-5.56865e-06
-6.12486e-06
-6.66578e-06
-7.09531e-06
-3.96264e-06
-2.78809e-05
-2.43845e-05
-2.53236e-05
-2.61648e-05
-2.69283e-05
-2.74581e-05
-2.77514e-05
-2.78152e-05
-2.76548e-05
-2.72627e-05
-2.6653e-05
-2.59394e-05
-2.51453e-05
-2.85908e-05
-4.49275e-06
-7.76873e-06
-7.44011e-06
-7.10331e-06
-6.88639e-06
-7.07447e-06
-7.57592e-06
-8.35989e-06
-6.29928e-06
-5.83235e-06
-5.44955e-06
-5.19843e-06
-5.20998e-06
-5.52849e-06
-6.22545e-06
-7.39921e-06
-9.32787e-06
-1.24634e-05
-1.32688e-05
-1.96249e-05
-2.16638e-05
-2.36264e-05
-2.49048e-05
-2.5883e-05
-2.6521e-05
-2.68773e-05
-2.69638e-05
-2.67908e-05
-2.63471e-05
-2.55904e-05
-2.44908e-05
-2.27657e-05
-2.07829e-05
-1.50075e-05
-1.39215e-05
-1.05689e-05
-8.48817e-06
-7.34892e-06
-6.8903e-06
-7.00266e-06
-7.45087e-06
-8.16355e-06
-6.2083e-06
-5.77966e-06
-5.42296e-06
-5.18477e-06
-5.18381e-06
-5.46135e-06
-6.06595e-06
-7.03845e-06
-8.399e-06
-1.01532e-05
-1.3729e-05
-1.81051e-05
-2.00504e-05
-2.18739e-05
-2.32021e-05
-2.42262e-05
-2.48921e-05
-2.52688e-05
-2.53712e-05
-2.52148e-05
-2.4788e-05
-2.40487e-05
-2.29432e-05
-2.14085e-05
-1.95251e-05
-1.53555e-05
-1.143e-05
-9.61184e-06
-8.18184e-06
-7.24386e-06
-6.83371e-06
-6.92862e-06
-7.33845e-06
-7.98506e-06
-6.14746e-06
-5.75588e-06
-5.43335e-06
-5.221e-06
-5.22454e-06
-5.48429e-06
-6.05477e-06
-7.00497e-06
-8.44016e-06
-1.0417e-05
-1.29661e-05
-1.60124e-05
-1.82158e-05
-2.01186e-05
-2.1509e-05
-2.25795e-05
-2.32674e-05
-2.36533e-05
-2.3761e-05
-2.36108e-05
-2.31849e-05
-2.24411e-05
-2.13173e-05
-1.97664e-05
-1.76895e-05
-1.47427e-05
-1.20491e-05
-9.85723e-06
-8.25606e-06
-7.27557e-06
-6.84781e-06
-6.90877e-06
-7.27298e-06
-7.87159e-06
-6.11324e-06
-5.76819e-06
-5.49074e-06
-5.31562e-06
-5.33279e-06
-5.57577e-06
-6.09041e-06
-6.93499e-06
-8.17709e-06
-9.86663e-06
-1.1981e-05
-1.43541e-05
-1.64136e-05
-1.8227e-05
-1.95798e-05
-2.0608e-05
-2.1265e-05
-2.16326e-05
-2.17387e-05
-2.1605e-05
-2.12126e-05
-2.05217e-05
-1.94614e-05
-1.80108e-05
-1.60815e-05
-1.37516e-05
-1.14846e-05
-9.59724e-06
-8.19816e-06
-7.3108e-06
-6.90961e-06
-6.9459e-06
-7.26231e-06
-7.81116e-06
-6.12366e-06
-5.82792e-06
-5.61097e-06
-5.49173e-06
-5.54178e-06
-5.78561e-06
-6.25558e-06
-6.99222e-06
-8.03976e-06
-9.4214e-06
-1.11031e-05
-1.29695e-05
-1.47255e-05
-1.63248e-05
-1.75512e-05
-1.84778e-05
-1.90761e-05
-1.94126e-05
-1.95134e-05
-1.93983e-05
-1.90497e-05
-1.84353e-05
-1.74951e-05
-1.62246e-05
-1.45841e-05
-1.27397e-05
-1.09364e-05
-9.3943e-06
-8.21992e-06
-7.45082e-06
-7.07958e-06
-7.07809e-06
-7.32677e-06
-7.80781e-06
-6.16831e-06
-5.93678e-06
-5.8007e-06
-5.76071e-06
-5.86748e-06
-6.13722e-06
-6.59212e-06
-7.25722e-06
-8.15893e-06
-9.29854e-06
-1.06413e-05
-1.21128e-05
-1.35467e-05
-1.48673e-05
-1.59075e-05
-1.66984e-05
-1.72198e-05
-1.75173e-05
-1.761e-05
-1.75121e-05
-1.72112e-05
-1.66856e-05
-1.5895e-05
-1.48444e-05
-1.35236e-05
-1.20804e-05
-1.06653e-05
-9.42318e-06
-8.44269e-06
-7.76425e-06
-7.39618e-06
-7.32655e-06
-7.47325e-06
-7.86064e-06
-6.22781e-06
-6.07324e-06
-6.0219e-06
-6.06633e-06
-6.24304e-06
-6.56575e-06
-7.0497e-06
-7.70923e-06
-8.54646e-06
-9.5577e-06
-1.07173e-05
-1.19651e-05
-1.31858e-05
-1.43101e-05
-1.52217e-05
-1.59244e-05
-1.64021e-05
-1.66795e-05
-1.67677e-05
-1.66754e-05
-1.63954e-05
-1.59159e-05
-1.52163e-05
-1.43077e-05
-1.31992e-05
-1.19992e-05
-1.08081e-05
-9.74704e-06
-8.87237e-06
-8.22335e-06
-7.81731e-06
-7.65411e-06
-7.68701e-06
-7.9345e-06
-6.27999e-06
-6.21914e-06
-6.24431e-06
-6.36277e-06
-6.60815e-06
-7.00012e-06
-7.55709e-06
-8.29248e-06
-9.20933e-06
-1.02941e-05
-1.14974e-05
-1.27567e-05
-1.39845e-05
-1.51151e-05
-1.60568e-05
-1.67958e-05
-1.73121e-05
-1.76146e-05
-1.77087e-05
-1.7599e-05
-1.7282e-05
-1.67523e-05
-1.60042e-05
-1.50572e-05
-1.39367e-05
-1.27358e-05
-1.15439e-05
-1.04397e-05
-9.50572e-06
-8.78517e-06
-8.29221e-06
-8.02096e-06
-7.93034e-06
-8.01407e-06
-4.77435e-06
-4.77759e-06
-4.78785e-06
-4.80832e-06
-4.84207e-06
-4.89937e-06
-4.98175e-06
-5.09088e-06
-5.22571e-06
-5.38356e-06
-5.55663e-06
-5.73848e-06
-5.91729e-06
-6.08014e-06
-6.21962e-06
-6.33227e-06
-6.41455e-06
-6.4651e-06
-6.48318e-06
-6.46893e-06
-6.42341e-06
-6.34818e-06
-6.24688e-06
-6.12296e-06
-5.98755e-06
-5.85033e-06
-5.72348e-06
-5.61305e-06
-5.52592e-06
-5.463e-06
-5.4248e-06
-5.39811e-06
-5.38051e-06
-5.36844e-06
-4.73368e-06
-4.71039e-06
-4.70031e-06
-4.69573e-06
-4.70852e-06
-4.74295e-06
-4.80091e-06
-4.88234e-06
-4.98362e-06
-5.10147e-06
-5.22583e-06
-5.35381e-06
-5.47379e-06
-5.58945e-06
-5.68958e-06
-5.77227e-06
-5.83371e-06
-5.87347e-06
-5.89085e-06
-5.88598e-06
-5.8599e-06
-5.81336e-06
-5.75079e-06
-5.6748e-06
-5.59442e-06
-5.50844e-06
-5.42837e-06
-5.35688e-06
-5.30395e-06
-5.27215e-06
-5.26312e-06
-5.27277e-06
-5.28722e-06
-5.31026e-06
-4.72075e-06
-4.69158e-06
-4.67057e-06
-4.64549e-06
-4.64166e-06
-4.66552e-06
-4.72065e-06
-4.80833e-06
-4.9243e-06
-5.06816e-06
-5.22258e-06
-5.3897e-06
-5.53914e-06
-5.67897e-06
-5.79293e-06
-5.8851e-06
-5.95102e-06
-5.99268e-06
-6.00957e-06
-6.00178e-06
-5.97019e-06
-5.91309e-06
-5.83553e-06
-5.73367e-06
-5.62373e-06
-5.49863e-06
-5.39019e-06
-5.29644e-06
-5.23576e-06
-5.20829e-06
-5.21518e-06
-5.24921e-06
-5.27539e-06
-5.30333e-06
-4.734e-06
-4.69141e-06
-4.65386e-06
-4.60672e-06
-4.58834e-06
-4.60905e-06
-4.67573e-06
-4.79348e-06
-4.95856e-06
-5.17744e-06
-5.41927e-06
-5.69598e-06
-5.9307e-06
-6.14434e-06
-6.30692e-06
-6.43393e-06
-6.51975e-06
-6.57091e-06
-6.5872e-06
-6.56869e-06
-6.51588e-06
-6.42243e-06
-6.29467e-06
-6.11734e-06
-5.92187e-06
-5.68785e-06
-5.49551e-06
-5.333e-06
-5.23375e-06
-5.19116e-06
-5.20442e-06
-5.25997e-06
-5.30303e-06
-5.34251e-06
-4.78825e-06
-4.7283e-06
-4.67628e-06
-4.61428e-06
-4.59223e-06
-4.62538e-06
-4.72538e-06
-4.90411e-06
-5.15986e-06
-5.51449e-06
-5.91448e-06
-6.39901e-06
-6.78573e-06
-7.1308e-06
-7.37926e-06
-7.56873e-06
-7.69085e-06
-7.75991e-06
-7.7758e-06
-7.73847e-06
-7.64831e-06
-7.491e-06
-7.27588e-06
-6.96551e-06
-6.61779e-06
-6.17675e-06
-5.83126e-06
-5.54046e-06
-5.36268e-06
-5.27576e-06
-5.27554e-06
-5.33836e-06
-5.39222e-06
-5.45197e-06
-4.88714e-06
-4.80442e-06
-4.74005e-06
-4.67107e-06
-4.65722e-06
-4.71895e-06
-4.87317e-06
-5.14063e-06
-5.52295e-06
-6.07148e-06
-6.70475e-06
-7.53628e-06
-8.14481e-06
-8.68172e-06
-9.05059e-06
-9.32908e-06
-9.50297e-06
-9.59824e-06
-9.61398e-06
-9.55e-06
-9.40738e-06
-9.15978e-06
-8.82265e-06
-8.31825e-06
-7.74807e-06
-6.96007e-06
-6.38816e-06
-5.91129e-06
-5.62003e-06
-5.46223e-06
-5.42983e-06
-5.4873e-06
-5.54922e-06
-5.63312e-06
-5.03089e-06
-4.91905e-06
-4.84413e-06
-4.77506e-06
-4.77989e-06
-4.88305e-06
-5.10556e-06
-5.47708e-06
-6.00205e-06
-6.79487e-06
-7.72703e-06
-9.13096e-06
-1.00088e-05
-1.07722e-05
-1.12696e-05
-1.16453e-05
-1.18738e-05
-1.19978e-05
-1.20137e-05
-1.19211e-05
-1.17237e-05
-1.13777e-05
-1.09103e-05
-1.0176e-05
-9.33538e-06
-7.9731e-06
-7.11349e-06
-6.39967e-06
-5.9789e-06
-5.73541e-06
-5.65889e-06
-5.70283e-06
-5.77056e-06
-5.88781e-06
-5.20837e-06
-5.06693e-06
-4.98414e-06
-4.9231e-06
-4.95975e-06
-5.12013e-06
-5.42588e-06
-5.90563e-06
-6.564e-06
-7.55374e-06
-8.82607e-06
-1.12006e-05
-1.23163e-05
-1.33261e-05
-1.3962e-05
-1.44557e-05
-1.47528e-05
-1.49133e-05
-1.49297e-05
-1.48013e-05
-1.45357e-05
-1.40711e-05
-1.34634e-05
-1.2477e-05
-1.13948e-05
-9.05362e-06
-7.87532e-06
-6.96777e-06
-6.42639e-06
-6.09319e-06
-5.96014e-06
-5.98083e-06
-6.05078e-06
-6.2126e-06
-5.42358e-06
-5.23913e-06
-5.14949e-06
-5.10025e-06
-5.17566e-06
-5.39806e-06
-5.78045e-06
-6.33565e-06
-6.98915e-06
-8.02733e-06
-9.53185e-06
-1.40314e-05
-1.49057e-05
-1.59572e-05
-1.66374e-05
-1.71803e-05
-1.75032e-05
-1.76819e-05
-1.76987e-05
-1.75529e-05
-1.7262e-05
-1.67482e-05
-1.60947e-05
-1.50558e-05
-1.42097e-05
-9.72954e-06
-8.38449e-06
-7.40742e-06
-6.87602e-06
-6.48237e-06
-6.29932e-06
-6.29676e-06
-6.37147e-06
-6.59115e-06
-5.66634e-06
-5.43018e-06
-5.33867e-06
-5.3168e-06
-5.46092e-06
-5.79168e-06
-6.32325e-06
-6.98711e-06
-7.73133e-06
-9.69042e-06
-6.58329e-06
-1.61513e-05
-1.69538e-05
-1.83354e-05
-1.91498e-05
-1.98481e-05
-2.02476e-05
-2.04622e-05
-2.04791e-05
-2.02979e-05
-1.99316e-05
-1.92639e-05
-1.84773e-05
-1.70998e-05
-1.63514e-05
-6.65328e-06
-9.98999e-06
-8.1059e-06
-7.51758e-06
-7.03459e-06
-6.73364e-06
-6.66821e-06
-6.72901e-06
-7.02907e-06
-5.92337e-06
-5.62557e-06
-5.52906e-06
-5.53408e-06
-5.74666e-06
-6.18122e-06
-6.8199e-06
-7.47372e-06
-7.69653e-06
-3.88056e-06
-2.3087e-05
-1.94341e-05
-2.0062e-05
-2.07452e-05
-2.1311e-05
-2.16803e-05
-2.18796e-05
-2.1896e-05
-2.17287e-05
-2.13908e-05
-2.08539e-05
-2.01942e-05
-1.95658e-05
-2.31146e-05
-4.55848e-06
-8.18388e-06
-8.02714e-06
-7.54206e-06
-7.15418e-06
-7.02931e-06
-7.08385e-06
-7.49403e-06
-6.18521e-06
-5.82306e-06
-5.73145e-06
-5.78974e-06
-6.13567e-06
-6.83218e-06
-7.98136e-06
-9.63238e-06
-1.22767e-05
-1.4892e-05
-2.11276e-05
-1.81154e-05
-1.99095e-05
-2.13896e-05
-2.24832e-05
-2.31925e-05
-2.36589e-05
-2.38966e-05
-2.39125e-05
-2.37065e-05
-2.3272e-05
-2.25943e-05
-2.15324e-05
-2.00868e-05
-1.83239e-05
-2.14233e-05
-1.51318e-05
-1.25839e-05
-1.00798e-05
-8.63898e-06
-7.78622e-06
-7.45645e-06
-7.4475e-06
-7.97692e-06
-6.43541e-06
-6.00943e-06
-5.91219e-06
-5.99967e-06
-6.42388e-06
-7.25511e-06
-8.59371e-06
-1.0428e-05
-1.29011e-05
-1.51578e-05
-1.89408e-05
-1.9795e-05
-2.07676e-05
-2.17767e-05
-2.26901e-05
-2.33681e-05
-2.38436e-05
-2.40877e-05
-2.41027e-05
-2.38884e-05
-2.34422e-05
-2.27909e-05
-2.19016e-05
-2.09067e-05
-1.99359e-05
-1.91304e-05
-1.53884e-05
-1.31757e-05
-1.08362e-05
-9.22791e-06
-8.21665e-06
-7.80189e-06
-7.78069e-06
-8.43051e-06
-6.6652e-06
-6.18457e-06
-6.08244e-06
-6.19594e-06
-6.69037e-06
-7.64375e-06
-9.15436e-06
-1.12002e-05
-1.38205e-05
-1.64624e-05
-1.93508e-05
-2.06891e-05
-2.17344e-05
-2.26646e-05
-2.35438e-05
-2.41986e-05
-2.46623e-05
-2.48978e-05
-2.49121e-05
-2.47051e-05
-2.42692e-05
-2.3639e-05
-2.27818e-05
-2.18622e-05
-2.08264e-05
-1.95012e-05
-1.66358e-05
-1.40498e-05
-1.15716e-05
-9.77141e-06
-8.61992e-06
-8.13088e-06
-8.09828e-06
-8.84229e-06
-6.86388e-06
-6.33794e-06
-6.22493e-06
-6.34635e-06
-6.87427e-06
-7.88631e-06
-9.46895e-06
-1.15948e-05
-1.42304e-05
-1.69597e-05
-1.96258e-05
-2.12332e-05
-2.24185e-05
-2.3329e-05
-2.41928e-05
-2.48267e-05
-2.52786e-05
-2.55061e-05
-2.55199e-05
-2.53198e-05
-2.48942e-05
-2.4283e-05
-2.34389e-05
-2.25345e-05
-2.1356e-05
-1.97502e-05
-1.71063e-05
-1.44383e-05
-1.19524e-05
-1.00901e-05
-8.89433e-06
-8.38759e-06
-8.36819e-06
-9.18891e-06
-7.0271e-06
-6.46727e-06
-6.34406e-06
-6.46761e-06
-7.0154e-06
-8.06461e-06
-9.69329e-06
-1.18731e-05
-1.45303e-05
-1.73113e-05
-1.99265e-05
-2.16816e-05
-2.29445e-05
-2.38773e-05
-2.47495e-05
-2.53751e-05
-2.58188e-05
-2.60396e-05
-2.60531e-05
-2.5859e-05
-2.54409e-05
-2.48369e-05
-2.39828e-05
-2.30528e-05
-2.17899e-05
-2.00351e-05
-1.7442e-05
-1.47257e-05
-1.22265e-05
-1.03262e-05
-9.10815e-06
-8.59752e-06
-8.59254e-06
-9.46725e-06
-7.15128e-06
-6.56761e-06
-6.43492e-06
-6.55553e-06
-7.11055e-06
-8.17663e-06
-9.82668e-06
-1.20341e-05
-1.47067e-05
-1.75294e-05
-2.01577e-05
-2.20251e-05
-2.33192e-05
-2.427e-05
-2.51503e-05
-2.57724e-05
-2.62123e-05
-2.64297e-05
-2.64433e-05
-2.62524e-05
-2.58377e-05
-2.52361e-05
-2.43722e-05
-2.3419e-05
-2.21033e-05
-2.02534e-05
-1.76512e-05
-1.48974e-05
-1.23904e-05
-1.04754e-05
-9.2542e-06
-8.75088e-06
-8.76159e-06
-9.67369e-06
-7.23547e-06
-6.6379e-06
-6.49914e-06
-6.61708e-06
-7.17555e-06
-8.25144e-06
-9.91587e-06
-1.21441e-05
-1.48364e-05
-1.76949e-05
-2.03539e-05
-2.22995e-05
-2.36052e-05
-2.45709e-05
-2.54601e-05
-2.60847e-05
-2.65252e-05
-2.67424e-05
-2.67563e-05
-2.65664e-05
-2.61514e-05
-2.55467e-05
-2.46721e-05
-2.37003e-05
-2.23712e-05
-2.04428e-05
-1.78133e-05
-1.50272e-05
-1.25061e-05
-1.05789e-05
-9.35503e-06
-8.85674e-06
-8.87706e-06
-9.81075e-06
-7.27946e-06
-6.67734e-06
-6.53636e-06
-6.65309e-06
-7.21303e-06
-8.29397e-06
-9.96796e-06
-1.22117e-05
-1.49254e-05
-1.78129e-05
-2.05024e-05
-2.24703e-05
-2.38053e-05
-2.47851e-05
-2.56831e-05
-2.63146e-05
-2.67595e-05
-2.69794e-05
-2.69943e-05
-2.68034e-05
-2.63851e-05
-2.57742e-05
-2.48901e-05
-2.39039e-05
-2.25547e-05
-2.05942e-05
-1.79346e-05
-1.51212e-05
-1.25814e-05
-1.06424e-05
-9.41369e-06
-8.9157e-06
-8.93877e-06
-9.88023e-06
-7.28381e-06
-6.68646e-06
-6.54707e-06
-6.66397e-06
-7.22327e-06
-8.30426e-06
-9.9824e-06
-1.22353e-05
-1.49711e-05
-1.78821e-05
-2.06091e-05
-2.2603e-05
-2.39294e-05
-2.49162e-05
-2.58212e-05
-2.64628e-05
-2.69155e-05
-2.71409e-05
-2.71575e-05
-2.69642e-05
-2.65409e-05
-2.5922e-05
-2.50321e-05
-2.4039e-05
-2.26872e-05
-2.07113e-05
-1.80153e-05
-1.5178e-05
-1.26158e-05
-1.06662e-05
-9.43091e-06
-8.92895e-06
-8.94814e-06
-9.88357e-06
-7.25017e-06
-6.6675e-06
-6.53309e-06
-6.65039e-06
-7.20499e-06
-8.2781e-06
-9.95161e-06
-1.22043e-05
-1.49637e-05
-1.78919e-05
-2.06737e-05
-2.26442e-05
-2.39734e-05
-2.4967e-05
-2.58789e-05
-2.65356e-05
-2.69997e-05
-2.72338e-05
-2.7253e-05
-2.70563e-05
-2.66263e-05
-2.59971e-05
-2.51045e-05
-2.41092e-05
-2.27513e-05
-2.08013e-05
-1.80491e-05
-1.51919e-05
-1.26033e-05
-1.06475e-05
-9.40733e-06
-8.89961e-06
-8.90904e-06
-9.8227e-06
-7.1807e-06
-6.62262e-06
-6.49391e-06
-6.6065e-06
-7.14341e-06
-8.18675e-06
-9.82727e-06
-1.20471e-05
-1.48155e-05
-1.77526e-05
-2.06611e-05
-2.25784e-05
-2.39007e-05
-2.4892e-05
-2.5802e-05
-2.64743e-05
-2.6952e-05
-2.71975e-05
-2.72204e-05
-2.702e-05
-2.65837e-05
-2.59467e-05
-2.50629e-05
-2.40805e-05
-2.27586e-05
-2.08285e-05
-1.79477e-05
-1.50791e-05
-1.24783e-05
-1.05453e-05
-9.32223e-06
-8.82107e-06
-8.82252e-06
-9.69866e-06
-7.08077e-06
-6.55856e-06
-6.43705e-06
-6.54087e-06
-7.04886e-06
-8.04295e-06
-9.62449e-06
-1.178e-05
-1.45548e-05
-1.74503e-05
-2.066e-05
-2.25253e-05
-2.37322e-05
-2.47578e-05
-2.56902e-05
-2.63924e-05
-2.68886e-05
-2.71485e-05
-2.7177e-05
-2.69741e-05
-2.65306e-05
-2.58768e-05
-2.49816e-05
-2.39788e-05
-2.27772e-05
-2.08817e-05
-1.7709e-05
-1.48782e-05
-1.22667e-05
-1.03833e-05
-9.19621e-06
-8.71158e-06
-8.70374e-06
-9.52012e-06
-6.95609e-06
-6.47812e-06
-6.35848e-06
-6.43705e-06
-6.88121e-06
-7.76257e-06
-9.17888e-06
-1.11151e-05
-1.36831e-05
-1.6117e-05
-2.04431e-05
-2.25927e-05
-2.34435e-05
-2.44771e-05
-2.54141e-05
-2.61329e-05
-2.66427e-05
-2.69171e-05
-2.69526e-05
-2.67495e-05
-2.63059e-05
-2.56532e-05
-2.47697e-05
-2.37865e-05
-2.2964e-05
-2.07071e-05
-1.64367e-05
-1.40849e-05
-1.16907e-05
-1.00102e-05
-8.95836e-06
-8.54484e-06
-8.5511e-06
-9.29229e-06
-6.81938e-06
-6.39414e-06
-6.28075e-06
-6.33856e-06
-6.72436e-06
-7.50277e-06
-8.77839e-06
-1.05856e-05
-1.34327e-05
-1.65716e-05
-2.17071e-05
-2.0845e-05
-2.3001e-05
-2.4749e-05
-2.59399e-05
-2.67359e-05
-2.72715e-05
-2.75613e-05
-2.76091e-05
-2.74171e-05
-2.69722e-05
-2.62691e-05
-2.51475e-05
-2.34816e-05
-2.13573e-05
-2.19357e-05
-1.71175e-05
-1.40103e-05
-1.13062e-05
-9.71514e-06
-8.75939e-06
-8.39868e-06
-8.40732e-06
-9.04224e-06
-6.67897e-06
-6.30565e-06
-6.1892e-06
-6.20438e-06
-6.47728e-06
-7.01635e-06
-7.77849e-06
-8.463e-06
-8.4259e-06
-2.86217e-06
-2.91319e-05
-2.38058e-05
-2.43238e-05
-2.49973e-05
-2.56075e-05
-2.60452e-05
-2.63065e-05
-2.63656e-05
-2.62267e-05
-2.59021e-05
-2.54171e-05
-2.48278e-05
-2.44323e-05
-2.96993e-05
-3.44004e-06
-9.17031e-06
-9.34838e-06
-8.8548e-06
-8.36012e-06
-8.17892e-06
-8.23907e-06
-8.78526e-06
-6.55217e-06
-6.22897e-06
-6.12665e-06
-6.14114e-06
-6.40131e-06
-6.94833e-06
-7.84091e-06
-9.06421e-06
-1.0871e-05
-1.37587e-05
-1.33216e-05
-2.02996e-05
-2.17506e-05
-2.33704e-05
-2.43756e-05
-2.5266e-05
-2.5839e-05
-2.61758e-05
-2.62537e-05
-2.60794e-05
-2.56522e-05
-2.49198e-05
-2.39779e-05
-2.2532e-05
-2.11785e-05
-1.50288e-05
-1.51054e-05
-1.21324e-05
-1.02192e-05
-9.0513e-06
-8.34368e-06
-8.08908e-06
-8.10361e-06
-8.56713e-06
-6.44556e-06
-6.16417e-06
-6.07297e-06
-6.08153e-06
-6.30844e-06
-6.79607e-06
-7.59065e-06
-8.70208e-06
-1.01119e-05
-1.17369e-05
-1.5084e-05
-1.94065e-05
-2.05295e-05
-2.17081e-05
-2.25821e-05
-2.34067e-05
-2.39579e-05
-2.42981e-05
-2.43876e-05
-2.42357e-05
-2.38453e-05
-2.31932e-05
-2.23339e-05
-2.12479e-05
-2.02584e-05
-1.64108e-05
-1.29119e-05
-1.13357e-05
-9.91654e-06
-8.86139e-06
-8.21258e-06
-7.96683e-06
-7.96962e-06
-8.38705e-06
-6.36995e-06
-6.12738e-06
-6.05756e-06
-6.08032e-06
-6.30586e-06
-6.78192e-06
-7.56432e-06
-8.68755e-06
-1.02061e-05
-1.21045e-05
-1.45032e-05
-1.72152e-05
-1.86763e-05
-1.98477e-05
-2.07519e-05
-2.16075e-05
-2.21765e-05
-2.2523e-05
-2.2616e-05
-2.24677e-05
-2.207e-05
-2.14143e-05
-2.05199e-05
-1.94007e-05
-1.81101e-05
-1.5788e-05
-1.34446e-05
-1.15338e-05
-9.97498e-06
-8.87143e-06
-8.19471e-06
-7.91619e-06
-7.88444e-06
-8.24785e-06
-6.33178e-06
-6.1214e-06
-6.07628e-06
-6.11779e-06
-6.34083e-06
-6.78886e-06
-7.51086e-06
-8.54093e-06
-9.90405e-06
-1.16047e-05
-1.35349e-05
-1.55696e-05
-1.69499e-05
-1.81172e-05
-1.90454e-05
-1.98758e-05
-2.04303e-05
-2.07676e-05
-2.08623e-05
-2.07279e-05
-2.03543e-05
-1.97426e-05
-1.88722e-05
-1.78066e-05
-1.65699e-05
-1.47905e-05
-1.29313e-05
-1.1235e-05
-9.84105e-06
-8.82017e-06
-8.17973e-06
-7.89595e-06
-7.84137e-06
-8.15659e-06
-6.31925e-06
-6.14874e-06
-6.1368e-06
-6.20906e-06
-6.44257e-06
-6.8733e-06
-7.53951e-06
-8.46522e-06
-9.65727e-06
-1.10919e-05
-1.26613e-05
-1.42716e-05
-1.55381e-05
-1.66747e-05
-1.75988e-05
-1.83919e-05
-1.89369e-05
-1.92689e-05
-1.93661e-05
-1.92425e-05
-1.88866e-05
-1.83054e-05
-1.74838e-05
-1.64878e-05
-1.53102e-05
-1.39027e-05
-1.23944e-05
-1.09673e-05
-9.75169e-06
-8.83273e-06
-8.23268e-06
-7.93974e-06
-7.85573e-06
-8.11601e-06
-6.33196e-06
-6.20484e-06
-6.23115e-06
-6.34222e-06
-6.59547e-06
-7.01824e-06
-7.63839e-06
-8.47078e-06
-9.51209e-06
-1.07331e-05
-1.20446e-05
-1.33773e-05
-1.45354e-05
-1.55841e-05
-1.64513e-05
-1.71861e-05
-1.76992e-05
-1.80121e-05
-1.81084e-05
-1.79978e-05
-1.76726e-05
-1.71419e-05
-1.63969e-05
-1.54988e-05
-1.44472e-05
-1.32588e-05
-1.19976e-05
-1.07862e-05
-9.73209e-06
-8.9099e-06
-8.34649e-06
-8.03917e-06
-7.92001e-06
-8.11626e-06
-6.35217e-06
-6.26175e-06
-6.30708e-06
-6.44343e-06
-6.71278e-06
-7.13504e-06
-7.72914e-06
-8.50418e-06
-9.45178e-06
-1.05445e-05
-1.17174e-05
-1.29096e-05
-1.40109e-05
-1.50124e-05
-1.58483e-05
-1.65367e-05
-1.70249e-05
-1.73214e-05
-1.74153e-05
-1.7312e-05