/*--------------------------------*- C++ -*----------------------------------*\
| =========                 |                                                 |
| \\      /  F ield         | OpenFOAM: The Open Source CFD Toolbox           |
|  \\    /   O peration     | Version:  2112                                  |
|   \\  /    A nd           | Website:  www.openfoam.com                      |
|    \\/     M anipulation  |                                                 |
\*---------------------------------------------------------------------------*/
FoamFile
{
    version     2.0;
    format      ascii;
    arch        "LSB;label=32;scalar=64";
    class       surfaceScalarField;
    location    "4.3";
    object      phi;
}
// * * * * * * * * * * * * * * * * * * * * * * * * * * * * * * * * * * * * * //

dimensions      [0 3 -1 0 0 0 0];

oriented        oriented;

internalField   nonuniform List<scalar> 
188215
(
5.2509e-10
1.03957e-09
-1.56466e-09
2.51326e-09
5.38545e-11
-2.04202e-09
5.44018e-09
-1.52128e-09
-1.40564e-09
8.81586e-09
-2.94102e-09
-4.34663e-10
1.23522e-08
-3.9684e-09
4.32039e-10
1.58722e-08
-4.6403e-09
1.12029e-09
1.93314e-08
-5.0076e-09
1.54848e-09
2.25851e-08
-5.07336e-09
1.81962e-09
2.54162e-08
-4.81144e-09
1.9803e-09
2.74193e-08
-4.0542e-09
2.05116e-09
2.82901e-08
-2.90014e-09
2.02935e-09
2.74947e-08
-1.14099e-09
1.93642e-09
2.52732e-08
2.87391e-10
1.93402e-09
2.19914e-08
1.12423e-09
2.15759e-09
1.78755e-08
1.69633e-09
2.41962e-09
1.31356e-08
2.08333e-09
2.65657e-09
8.01624e-09
2.28892e-09
2.83041e-09
2.72042e-09
2.37341e-09
2.92241e-09
-2.55313e-09
2.34752e-09
2.92603e-09
-7.60661e-09
2.21123e-09
2.84225e-09
-1.22389e-08
1.95425e-09
2.67802e-09
-1.62104e-08
1.51861e-09
2.45286e-09
-1.93285e-08
9.10932e-10
2.20724e-09
-2.13577e-08
1.07238e-11
2.01849e-09
-2.18897e-08
-1.52371e-09
2.05571e-09
-2.07782e-08
-3.25106e-09
2.13955e-09
-1.85505e-08
-4.33431e-09
2.10654e-09
-1.55122e-08
-4.93688e-09
1.89857e-09
-1.20873e-08
-4.87508e-09
1.45025e-09
-8.49105e-09
-4.22198e-09
6.25703e-10
-5.05509e-09
-2.9299e-09
-5.06059e-10
-2.21807e-09
-1.01284e-09
-1.82417e-09
-3.17723e-10
8.54809e-10
-2.75516e-09
2.01551e-09
-2.33324e-09
-1.86602e-09
5.95136e-09
-3.04576e-09
4.69453e-10
5.88893e-09
-8.17055e-09
4.16052e-09
4.77965e-09
-9.99199e-09
8.07694e-09
3.69282e-09
-1.05503e-08
1.19108e-08
3.21035e-09
-1.10126e-08
1.56203e-08
3.43609e-09
-1.17859e-08
1.92024e-08
4.42981e-09
-1.30195e-08
2.25641e-08
6.34034e-09
-1.47754e-08
2.54932e-08
9.34082e-09
-1.70814e-08
2.7576e-08
1.38025e-08
-1.99395e-08
2.84532e-08
1.94587e-08
-2.3236e-08
2.77127e-08
2.63569e-08
-2.67574e-08
2.56612e-08
3.23946e-08
-3.00557e-08
2.22864e-08
3.75267e-08
-3.30275e-08
1.80786e-08
4.13381e-08
-3.5434e-08
1.32753e-08
4.41387e-08
-3.7252e-08
8.1148e-09
4.59185e-08
-3.84691e-08
2.78966e-09
4.67988e-08
-3.91003e-08
-2.51185e-09
4.67952e-08
-3.91461e-08
-7.60164e-09
4.59075e-08
-3.86065e-08
-1.22891e-08
4.41221e-08
-3.74804e-08
-1.63357e-08
4.13196e-08
-3.57544e-08
-1.9499e-08
3.75196e-08
-3.34454e-08
-2.13024e-08
3.2411e-08
-3.05968e-08
-2.18185e-08
2.64373e-08
-2.74449e-08
-2.06666e-08
1.96905e-08
-2.40935e-08
-1.82906e-08
1.43223e-08
-2.10326e-08
-1.50257e-08
1.02943e-08
-1.8496e-08
-1.12587e-08
7.97309e-09
-1.66152e-08
-7.17516e-09
7.0622e-09
-1.53677e-08
-2.94197e-09
7.41674e-09
-1.45798e-08
1.02607e-09
8.74612e-09
-1.3727e-08
3.19899e-09
1.00283e-08
-1.13464e-08
9.80948e-09
-4.59497e-09
-3.76015e-09
1.28893e-08
-3.17781e-09
-1.50266e-09
1.40353e-08
-1.04038e-08
2.70859e-09
1.37623e-08
-1.31939e-08
7.23523e-09
1.35891e-08
-1.44229e-08
1.16586e-08
1.426e-08
-1.5473e-08
1.59591e-08
1.60034e-08
-1.68679e-08
2.02049e-08
1.90397e-08
-1.88556e-08
2.43657e-08
2.37467e-08
-2.15671e-08
2.82236e-08
3.05497e-08
-2.50668e-08
3.11663e-08
4.02385e-08
-2.93788e-08
3.2584e-08
5.23824e-08
-3.43414e-08
3.152e-08
6.71069e-08
-3.9686e-08
2.87558e-08
7.98951e-08
-4.47362e-08
2.46202e-08
9.0847e-08
-4.91848e-08
1.97305e-08
9.90387e-08
-5.28109e-08
1.43162e-08
1.05117e-07
-5.55636e-08
8.60565e-09
1.09039e-07
-5.74096e-08
2.75973e-09
1.11013e-07
-5.83679e-08
-3.06164e-09
1.11053e-07
-5.84366e-08
-8.69823e-09
1.0916e-07
-5.76156e-08
-1.399e-08
1.05321e-07
-5.59067e-08
-1.87061e-08
9.93288e-08
-5.32932e-08
-2.2618e-08
9.12447e-08
-4.98132e-08
-2.51092e-08
8.04314e-08
-4.55292e-08
-2.58651e-08
6.78684e-08
-4.06752e-08
-2.40747e-08
5.34745e-08
-3.55745e-08
-2.07001e-08
4.18788e-08
-3.09312e-08
-1.62887e-08
3.29076e-08
-2.70247e-08
-1.14049e-08
2.71026e-08
-2.40132e-08
-6.24597e-09
2.37141e-08
-2.18109e-08
-9.99483e-10
2.22975e-08
-2.01272e-08
3.74706e-09
2.23026e-08
-1.8303e-08
5.83452e-09
2.24786e-08
-1.45378e-08
2.06237e-08
-4.9797e-09
-5.12382e-09
2.05525e-08
-2.53933e-09
-2.79005e-09
2.26107e-08
-1.09092e-08
2.07065e-09
2.3083e-08
-1.41815e-08
7.44548e-09
2.39085e-08
-1.56942e-08
1.28338e-08
2.58864e-08
-1.70147e-08
1.82463e-08
2.93184e-08
-1.87275e-08
2.38588e-08
3.45558e-08
-2.11287e-08
2.97433e-08
4.22468e-08
-2.43846e-08
3.56432e-08
5.32149e-08
-2.85652e-08
4.05328e-08
6.90678e-08
-3.37189e-08
4.31291e-08
8.94217e-08
-3.96356e-08
4.13048e-08
1.15062e-07
-4.61311e-08
3.69574e-08
1.36474e-07
-5.22312e-08
3.09506e-08
1.54448e-07
-5.75942e-08
2.43356e-08
1.67615e-07
-6.19615e-08
1.73121e-08
1.77401e-07
-6.52605e-08
1.00838e-08
1.83721e-07
-6.74537e-08
2.76055e-09
1.86924e-07
-6.85885e-08
-4.53792e-09
1.87017e-07
-6.86654e-08
-1.16904e-08
1.83996e-07
-6.76839e-08
-1.85858e-08
1.77859e-07
-6.56428e-08
-2.50122e-08
1.68253e-07
-6.24976e-08
-3.07658e-08
1.55288e-07
-5.82896e-08
-3.47814e-08
1.37551e-07
-5.31041e-08
-3.61975e-08
1.16502e-07
-4.72179e-08
-3.30823e-08
9.13519e-08
-4.09926e-08
-2.75866e-08
7.18137e-08
-3.54306e-08
-2.08869e-08
5.69244e-08
-3.07164e-08
-1.39536e-08
4.72182e-08
-2.7049e-08
-7.05361e-09
4.11177e-08
-2.43036e-08
-4.00825e-10
3.77982e-08
-2.21535e-08
5.38825e-09
3.64096e-08
-1.98961e-08
7.66149e-09
3.56543e-08
-1.54489e-08
3.26131e-08
-4.32793e-09
-5.91161e-09
2.81772e-08
-1.71309e-09
-3.16348e-09
3.09263e-08
-1.10637e-08
2.64577e-09
3.20166e-08
-1.47428e-08
9.20838e-09
3.38052e-08
-1.64594e-08
1.59794e-08
3.71098e-08
-1.79944e-08
2.30627e-08
4.22408e-08
-2.00056e-08
3.08313e-08
4.96121e-08
-2.28249e-08
3.95935e-08
6.01268e-08
-2.66422e-08
4.91129e-08
7.51901e-08
-3.14945e-08
5.77352e-08
9.79071e-08
-3.74617e-08
6.27469e-08
1.28642e-07
-4.4232e-08
5.92322e-08
1.70592e-07
-5.20151e-08
5.17542e-08
2.03172e-07
-5.92207e-08
4.2299e-08
2.29541e-07
-6.56381e-08
3.26323e-08
2.48168e-07
-7.08862e-08
2.27643e-08
2.62054e-07
-7.47856e-08
1.28173e-08
2.71001e-07
-7.73335e-08
2.82105e-09
2.75564e-07
-7.86435e-08
-7.15157e-09
2.75715e-07
-7.87249e-08
-1.7025e-08
2.71446e-07
-7.7577e-08
-2.67648e-08
2.62787e-07
-7.51881e-08
-3.62316e-08
2.49168e-07
-7.14485e-08
-4.54002e-08
2.3082e-07
-6.63635e-08
-5.24706e-08
2.0475e-07
-6.01288e-08
-5.54534e-08
1.72634e-07
-5.31485e-08
-4.97335e-08
1.31285e-07
-4.56531e-08
-4.03303e-08
1.01683e-07
-3.92724e-08
-2.97667e-08
8.01419e-08
-3.37811e-08
-1.96316e-08
6.65658e-08
-2.94827e-08
-1.01932e-08
5.78955e-08
-2.62162e-08
-1.5215e-09
5.27937e-08
-2.36672e-08
5.7576e-09
5.01778e-08
-2.10473e-08
8.71225e-09
4.87008e-08
-1.60012e-08
4.47627e-08
-3.43729e-09
-6.29829e-09
3.53632e-08
-8.877e-10
-2.72163e-09
3.86561e-08
-1.13066e-08
4.44787e-09
4.02947e-08
-1.54476e-08
1.26146e-08
4.3028e-08
-1.73895e-08
2.11985e-08
4.76921e-08
-1.91662e-08
3.04613e-08
5.45106e-08
-2.15326e-08
4.10983e-08
6.38196e-08
-2.48446e-08
5.39442e-08
7.65775e-08
-2.92966e-08
6.90908e-08
9.48397e-08
-3.47963e-08
8.44073e-08
1.24013e-07
-4.14224e-08
9.44737e-08
1.66986e-07
-4.84104e-08
8.74461e-08
2.35087e-07
-5.74672e-08
7.43702e-08
2.82052e-07
-6.58036e-08
5.93977e-08
3.18169e-07
-7.36556e-08
4.51768e-08
3.42584e-07
-8.01953e-08
3.10771e-08
3.61001e-07
-8.48471e-08
1.70236e-08
3.72853e-07
-8.77983e-08
2.94876e-09
3.78942e-07
-8.93025e-08
-1.11067e-08
3.79158e-07
-8.93884e-08
-2.50987e-08
3.73493e-07
-8.80546e-08
-3.90868e-08
3.62043e-07
-8.52687e-08
-5.31161e-08
3.4398e-07
-8.07826e-08
-6.77854e-08
3.19899e-07
-7.44093e-08
-8.03754e-08
2.84087e-07
-6.67469e-08
-8.67208e-08
2.37633e-07
-5.86535e-08
-7.56825e-08
1.70145e-07
-4.98982e-08
-5.94442e-08
1.2879e-07
-4.33449e-08
-4.30159e-08
1.00956e-07
-3.72426e-08
-2.84413e-08
8.43543e-08
-3.23632e-08
-1.5677e-08
7.367e-08
-2.85388e-08
-4.34335e-09
6.70196e-08
-2.55595e-08
5.0381e-09
6.33228e-08
-2.25264e-08
9.2592e-09
6.12455e-08
-1.67657e-08
5.65855e-08
-2.56358e-09
-6.42232e-09
4.1903e-08
-1.17553e-10
-1.54552e-09
4.55589e-08
-1.17795e-08
7.47407e-09
4.77755e-08
-1.65004e-08
1.77147e-08
5.15133e-08
-1.8726e-08
2.85203e-08
5.76826e-08
-2.0796e-08
4.03175e-08
6.6293e-08
-2.35796e-08
5.42272e-08
7.73475e-08
-2.74375e-08
7.20893e-08
9.12543e-08
-3.25388e-08
9.51517e-08
1.10301e-07
-3.85238e-08
1.21585e-07
1.42849e-07
-4.52694e-08
1.42879e-07
1.96565e-07
-5.08739e-08
1.28286e-07
3.1037e-07
-6.06899e-08
1.05529e-07
3.74461e-07
-6.96514e-08
8.248e-08
4.20741e-07
-7.95235e-08
6.22141e-08
4.50936e-07
-8.80861e-08
4.24777e-08
4.74258e-07
-9.35206e-08
2.28398e-08
4.89354e-07
-9.68631e-08
3.15611e-09
4.97179e-07
-9.85532e-08
-1.65178e-08
4.97476e-07
-9.86434e-08
-3.61226e-08
4.9023e-07
-9.71319e-08
-5.57937e-08
4.75675e-07
-9.39605e-08
-7.59191e-08
4.52804e-07
-8.86988e-08
-9.86952e-08
4.22981e-07
-8.03067e-08
-1.20903e-07
3.76935e-07
-7.06394e-08
-1.34635e-07
3.13323e-07
-6.19579e-08
-1.11952e-07
1.99917e-07
-5.24556e-08
-8.45583e-08
1.48743e-07
-4.73471e-08
-6.00065e-08
1.17579e-07
-4.11743e-08
-3.99965e-08
1.00247e-07
-3.59024e-08
-2.33558e-08
8.85665e-08
-3.15372e-08
-8.78503e-09
8.05498e-08
-2.8101e-08
3.37733e-09
7.57375e-08
-2.45771e-08
9.50862e-09
7.30272e-08
-1.7913e-08
6.777e-08
-1.67589e-09
-6.36818e-09
4.73697e-08
9.01484e-10
3.69619e-10
5.13503e-08
-1.25292e-08
1.19109e-08
5.42155e-08
-1.79814e-08
2.48518e-08
5.9133e-08
-2.05606e-08
3.83689e-08
6.71554e-08
-2.29899e-08
5.28768e-08
7.80525e-08
-2.62675e-08
6.97008e-08
9.1274e-08
-3.07505e-08
9.19235e-08
1.05628e-07
-3.65968e-08
1.23296e-07
1.21838e-07
-4.29089e-08
1.67773e-07
1.48082e-07
-4.97097e-08
2.14459e-07
1.98295e-07
-4.84156e-08
1.8432e-07
3.96674e-07
-5.61649e-08
1.46884e-07
4.77357e-07
-6.54611e-08
1.13378e-07
5.33465e-07
-7.92177e-08
8.57184e-08
5.69873e-07
-9.12769e-08
5.85234e-08
5.98953e-07
-9.75001e-08
3.10943e-08
6.17992e-07
-1.01209e-07
3.46757e-09
6.27886e-07
-1.03081e-07
-2.41646e-08
6.28283e-07
-1.03175e-07
-5.161e-08
6.19164e-07
-1.01489e-07
-7.88311e-08
6.00852e-07
-9.79563e-08
-1.0648e-07
5.7237e-07
-9.19165e-08
-1.39866e-07
5.36404e-07
-8.00363e-08
-1.76804e-07
4.80387e-07
-6.65144e-08
-2.05836e-07
3.99949e-07
-5.75942e-08
-1.57037e-07
2.01225e-07
-5.01075e-08
-1.11813e-07
1.5542e-07
-5.19016e-08
-7.87606e-08
1.30282e-07
-4.57559e-08
-5.3854e-08
1.15644e-07
-4.03038e-08
-3.3485e-08
1.03551e-07
-3.5354e-08
-1.52087e-08
9.36937e-08
-3.14202e-08
4.94564e-10
8.73424e-08
-2.73082e-08
9.44813e-09
8.35688e-08
-1.94951e-08
7.79145e-08
-6.9642e-10
-6.11999e-09
5.15061e-08
1.98367e-09
3.01436e-09
5.57549e-08
-1.3539e-08
1.78783e-08
5.92968e-08
-1.99451e-08
3.42909e-08
6.56591e-08
-2.29387e-08
5.11347e-08
7.60907e-08
-2.57791e-08
6.84402e-08
9.03295e-08
-2.95825e-08
8.70281e-08
1.07404e-07
-3.4718e-08
1.10421e-07
1.23548e-07
-4.13123e-08
1.45577e-07
1.35192e-07
-4.85107e-08
2.17943e-07
1.29605e-07
-5.38886e-08
3.16118e-07
1.52772e-07
-5.26519e-08
2.54121e-07
5.03168e-07
-4.44981e-08
1.95132e-07
5.8628e-07
-4.99336e-08
1.50432e-07
6.47446e-07
-6.92804e-08
1.14757e-07
6.9151e-07
-8.59616e-08
7.86892e-08
7.27283e-07
-9.22623e-08
4.15777e-08
7.51673e-07
-9.65693e-08
3.91373e-09
7.6427e-07
-9.87203e-08
-3.37757e-08
7.64784e-07
-9.8812e-08
-7.0971e-08
7.532e-07
-9.68404e-08
-1.07201e-07
7.2978e-07
-9.26975e-08
-1.43098e-07
6.94843e-07
-8.65753e-08
-1.88024e-07
6.51388e-07
-7.00588e-08
-2.46825e-07
5.90165e-07
-5.09766e-08
-3.07213e-07
5.06359e-07
-4.60211e-08
-2.05739e-07
1.54575e-07
-5.48242e-08
-1.33935e-07
1.39971e-07
-5.63544e-08
-9.66525e-08
1.44613e-07
-5.16135e-08
-6.98233e-08
1.34287e-07
-4.54725e-08
-4.65803e-08
1.20298e-07
-3.99895e-08
-2.4082e-08
1.06791e-07
-3.55958e-08
-3.52488e-09
9.76893e-08
-3.0904e-08
9.10018e-09
9.24865e-08
-2.15428e-08
8.65368e-08
4.779e-10
-5.4835e-09
5.38497e-08
3.13983e-09
6.88955e-09
5.82442e-08
-1.48624e-08
2.62093e-08
6.23887e-08
-2.24117e-08
4.76479e-08
7.01555e-08
-2.5935e-08
6.97965e-08
8.32496e-08
-2.93075e-08
9.18473e-08
1.02063e-07
-3.37842e-08
1.12933e-07
1.26082e-07
-3.9763e-08
1.32994e-07
1.51816e-07
-4.83291e-08
1.49547e-07
1.75598e-07
-5.69581e-08
2.04171e-07
1.4747e-07
-7.24899e-08
4.38129e-07
-8.11853e-08
3.46841e-07
6.06043e-07
-1.15873e-08
2.6372e-07
6.73439e-07
-4.03809e-09
2.07781e-07
7.25619e-07
-2.2233e-08
1.6185e-07
7.78542e-07
-4.11021e-08
1.11386e-07
8.20483e-07
-4.27366e-08
5.82855e-08
8.49992e-07
-4.52186e-08
4.55142e-09
8.64821e-07
-4.68168e-08
-4.92189e-08
8.65434e-07
-4.68789e-08
-1.02451e-07
8.51836e-07
-4.5405e-08
-1.53212e-07
8.23557e-07
-4.3016e-08
-1.99652e-07
7.82824e-07
-4.15414e-08
-2.56408e-07
7.30937e-07
-2.27923e-08
-3.40869e-07
6.79391e-07
-4.76537e-09
-4.31647e-07
6.10167e-07
-1.30304e-08
-1.9277e-07
-8.43015e-08
-1.36434e-07
1.57873e-07
-7.42373e-08
-1.18776e-07
1.8674e-07
-5.97855e-08
-9.46769e-08
1.63079e-07
-5.28911e-08
-6.76383e-08
1.39154e-07
-4.58945e-08
-3.86025e-08
1.18742e-07
-4.0987e-08
-1.07609e-08
1.05465e-07
-3.56175e-08
7.67972e-09
9.83836e-08
-2.43377e-08
9.21187e-08
2.09783e-09
-4.62825e-09
5.41606e-08
4.31743e-09
1.15699e-08
5.8522e-08
-1.64759e-08
3.62288e-08
6.30712e-08
-2.53415e-08
6.40433e-08
7.1851e-08
-2.951e-08
9.35674e-08
8.72279e-08
-3.35024e-08
1.22881e-07
1.1116e-07
-3.84113e-08
1.46096e-07
1.47127e-07
-4.42602e-08
1.47866e-07
1.99818e-07
-4.97722e-08
1.13868e-07
2.76546e-07
-6.69499e-08
3.75233e-07
-1.13894e-07
1.95866e-07
3.2775e-07
8.24277e-08
2.61874e-07
5.5706e-07
5.03714e-08
2.58393e-07
6.86213e-07
4.28865e-08
2.11268e-07
7.81404e-07
4.42639e-08
1.46453e-07
8.44713e-07
4.05844e-08
7.66517e-08
8.84329e-07
3.54657e-08
5.36604e-09
9.03258e-07
3.28485e-08
-6.59625e-08
9.03911e-07
3.2851e-08
-1.35915e-07
8.86323e-07
3.54654e-08
-2.01094e-07
8.48144e-07
4.05921e-08
-2.49072e-07
7.86491e-07
4.43113e-08
-2.54517e-07
6.9333e-07
4.30522e-08
-1.91739e-07
5.66353e-07
5.02598e-08
3.37375e-07
8.10521e-08
-1.10019e-07
3.7852e-07
-1.10628e-07
-1.37923e-07
2.83975e-07
-6.93314e-08
-1.28991e-07
2.09236e-07
-5.50875e-08
-9.73455e-08
1.59189e-07
-5.16808e-08
-5.85553e-08
1.27257e-07
-4.73044e-08
-2.08165e-08
1.0924e-07
-4.15133e-08
5.36367e-09
1.00207e-07
-2.80035e-08
9.39351e-08
3.5473e-09
-3.27833e-09
5.19679e-08
5.47094e-09
1.74599e-08
5.6083e-08
-1.82992e-08
4.89457e-08
6.0209e-08
-2.86236e-08
8.63164e-08
6.81367e-08
-3.36564e-08
1.305e-07
8.1797e-08
-3.87529e-08
1.84543e-07
1.02301e-07
-4.51835e-08
2.53676e-07
1.30804e-07
-5.28101e-08
3.44479e-07
1.67492e-07
-5.84769e-08
4.70022e-07
2.10851e-07
-5.98484e-08
6.24996e-07
2.61747e-07
-4.14891e-08
4.88943e-07
8.6839e-08
4.92136e-08
4.92753e-07
2.3168e-07
9.22604e-08
4.70678e-07
4.18627e-07
1.60508e-07
4.01024e-07
5.37523e-07
2.18344e-07
3.05381e-07
6.26084e-07
2.50962e-07
2.03106e-07
6.84575e-07
2.62413e-07
1.03447e-07
7.20914e-07
2.63074e-07
6.19665e-09
7.38347e-07
2.62161e-07
-9.10314e-08
7.38926e-07
2.62213e-07
-1.90618e-07
7.22674e-07
2.63236e-07
-2.92779e-07
6.87577e-07
2.62728e-07
-3.88321e-07
6.30421e-07
2.51612e-07
-4.57945e-07
5.43261e-07
2.19693e-07
-4.79729e-07
4.25386e-07
1.62751e-07
-4.78126e-07
2.39612e-07
9.61608e-08
-6.19459e-07
8.84199e-08
5.29127e-08
-4.64389e-07
2.64365e-07
-4.09143e-08
-3.34323e-07
2.16848e-07
-6.29391e-08
-2.36387e-07
1.75911e-07
-6.46117e-08
-1.57561e-07
1.42123e-07
-6.17598e-08
-9.19154e-08
1.17737e-07
-5.61265e-08
-3.68022e-08
1.03079e-07
-4.89521e-08
1.64286e-10
9.57991e-08
-3.25586e-08
8.93892e-08
4.71016e-09
-2.33747e-09
4.77059e-08
6.59949e-09
2.23253e-08
5.14191e-08
-1.99988e-08
5.94709e-08
5.47988e-08
-3.17354e-08
1.04043e-07
6.11627e-08
-3.7598e-08
1.57663e-07
7.18593e-08
-4.36824e-08
2.24208e-07
8.71636e-08
-5.14076e-08
3.08689e-07
1.06643e-07
-6.03209e-08
4.14387e-07
1.2885e-07
-6.7055e-08
5.43515e-07
1.489e-07
-6.71774e-08
6.90261e-07
1.64892e-07
-4.98905e-08
6.85766e-07
1.0615e-07
-1.48161e-08
6.67545e-07
1.9374e-07
5.61617e-08
6.06397e-07
3.07132e-07
1.72644e-07
5.00068e-07
3.92221e-07
2.51631e-07
3.74987e-07
4.5722e-07
2.93945e-07
2.47333e-07
4.99557e-07
3.12672e-07
1.2498e-07
5.25941e-07
3.17325e-07
6.86424e-09
5.38569e-07
3.17894e-07
-1.11209e-07
5.39044e-07
3.17955e-07
-2.33426e-07
5.27372e-07
3.17519e-07
-3.60872e-07
5.01957e-07
3.13066e-07
-4.85786e-07
4.60587e-07
2.94748e-07
-5.92329e-07
3.96502e-07
2.53302e-07
-6.54472e-07
3.12038e-07
1.75491e-07
-6.74609e-07
1.9883e-07
6.09187e-08
-6.8316e-07
1.08735e-07
-1.17633e-08
-5.37536e-07
1.687e-07
-4.99595e-08
-4.04404e-07
1.54554e-07
-7.08377e-08
-2.91006e-07
1.3663e-07
-7.41177e-08
-1.95416e-07
1.17209e-07
-7.06755e-08
-1.15143e-07
1.01646e-07
-6.41822e-08
-4.8009e-08
9.17189e-08
-5.57746e-08
-2.06523e-09
8.66578e-08
-3.68024e-08
8.10501e-08
6.27383e-09
-1.64011e-09
4.16774e-08
7.66863e-09
2.62962e-08
4.49119e-08
-2.14292e-08
6.81144e-08
4.74023e-08
-3.44217e-08
1.18315e-07
5.19881e-08
-4.1026e-08
1.7864e-07
5.95582e-08
-4.80239e-08
2.52949e-07
6.99786e-08
-5.71244e-08
3.45236e-07
8.23695e-08
-6.80122e-08
4.56627e-07
9.55234e-08
-7.80646e-08
5.82586e-07
1.05716e-07
-8.27754e-08
7.06499e-07
1.14868e-07
-7.389e-08
7.54468e-07
1.03309e-07
-4.51266e-08
7.59548e-07
1.5392e-07
3.47393e-08
6.8789e-07
2.21563e-07
1.57227e-07
5.65302e-07
2.77122e-07
2.37687e-07
4.20527e-07
3.20291e-07
2.81705e-07
2.75894e-07
3.48309e-07
2.95881e-07
1.38889e-07
3.65965e-07
2.96981e-07
7.3776e-09
3.74448e-07
2.95633e-07
-1.24083e-07
3.74845e-07
2.9566e-07
-2.60933e-07
3.67149e-07
2.97072e-07
-4.05346e-07
3.50259e-07
2.96111e-07
-5.5001e-07
3.22956e-07
2.82294e-07
-6.73069e-07
2.80424e-07
2.39137e-07
-7.46179e-07
2.2528e-07
1.59868e-07
-7.44513e-07
1.57855e-07
3.93091e-08
-6.99892e-07
1.06465e-07
-4.23517e-08
-5.76108e-07
1.18888e-07
-7.39714e-08
-4.45985e-07
1.11082e-07
-8.66517e-08
-3.2636e-07
1.02707e-07
-8.57011e-08
-2.21817e-07
9.20355e-08
-7.93698e-08
-1.3202e-07
8.3101e-08
-7.12522e-08
-5.60937e-08
7.72678e-08
-6.14748e-08
-3.48699e-09
7.42404e-08
-4.01894e-08
6.96208e-08
7.94234e-09
-1.39934e-09
3.44777e-08
8.59908e-09
2.89015e-08
3.71579e-08
-2.25467e-08
7.39936e-08
3.8875e-08
-3.65649e-08
1.27793e-07
4.19571e-08
-4.37679e-08
1.91832e-07
4.70039e-08
-5.14848e-08
2.6969e-07
5.37844e-08
-6.16641e-08
3.64611e-07
6.15315e-08
-7.40825e-08
4.76914e-07
6.96068e-08
-8.63866e-08
6.00232e-07
7.60942e-08
-9.36963e-08
7.18867e-07
8.40317e-08
-8.77983e-08
7.93645e-07
8.81934e-08
-5.96623e-08
8.11279e-07
1.19989e-07
1.62975e-08
7.34499e-07
1.61863e-07
1.36479e-07
6.03169e-07
1.97499e-07
2.10953e-07
4.47765e-07
2.25474e-07
2.50221e-07
2.93451e-07
2.43995e-07
2.58627e-07
1.4762e-07
2.55816e-07
2.5598e-07
7.7805e-09
2.61578e-07
2.5271e-07
-1.32018e-07
2.61945e-07
2.52699e-07
-2.77727e-07
2.56901e-07
2.55957e-07
-4.31883e-07
2.45753e-07
2.58662e-07
-5.87286e-07
2.27827e-07
2.50532e-07
-7.19284e-07
2.00351e-07
2.12072e-07
-7.97844e-07
1.65055e-07
1.38785e-07
-7.84073e-07
1.23483e-07
2.06003e-08
-7.12087e-07
9.15474e-08
-5.70682e-08
-5.93173e-07
8.80385e-08
-8.80642e-08
-4.65367e-07
8.10941e-08
-9.78175e-08
-3.44256e-07
7.60658e-08
-9.447e-08
-2.36099e-07
7.003e-08
-8.61517e-08
-1.41374e-07
6.50945e-08
-7.67188e-08
-6.02515e-08
6.19363e-08
-6.57907e-08
-3.65386e-09
6.027e-08
-4.26272e-08
5.6617e-08
9.34993e-09
-1.38935e-09
2.65163e-08
9.35072e-09
3.05619e-08
2.85904e-08
-2.33838e-08
7.79217e-08
2.96938e-08
-3.81786e-08
1.34079e-07
3.16302e-08
-4.58301e-08
2.00333e-07
3.48268e-08
-5.40766e-08
2.80036e-07
3.91268e-08
-6.50456e-08
3.7607e-07
4.40754e-08
-7.85776e-08
4.88612e-07
4.94839e-08
-9.24194e-08
6.11522e-07
5.46071e-08
-1.01423e-07
7.31037e-07
6.18327e-08
-9.7316e-08
8.18633e-07
6.97724e-08
-6.91749e-08
8.42819e-07
9.06899e-08
5.11237e-09
7.63992e-07
1.17108e-07
1.23582e-07
6.27477e-07
1.4015e-07
1.93864e-07
4.65356e-07
1.58402e-07
2.29194e-07
3.0484e-07
1.70835e-07
2.33676e-07
1.53338e-07
1.78896e-07
2.2842e-07
8.14566e-09
1.82932e-07
2.23839e-07
-1.37023e-07
1.83305e-07
2.23808e-07
-2.8845e-07
1.79996e-07
2.28332e-07
-4.48891e-07
1.72597e-07
2.33597e-07
-6.11128e-07
1.60725e-07
2.29339e-07
-7.48467e-07
1.42909e-07
1.94781e-07
-8.29234e-07
1.20149e-07
1.25673e-07
-8.09136e-07
9.39651e-08
9.42081e-09
-7.23988e-07
7.31088e-08
-6.67096e-08
-6.03871e-07
6.56186e-08
-9.76975e-08
-4.76122e-07
5.90761e-08
-1.0573e-07
-3.54248e-07
5.50105e-08
-1.00819e-07
-2.44197e-07
5.1107e-08
-9.11281e-08
-1.46618e-07
4.82193e-08
-8.07038e-08
-6.2306e-08
4.65134e-08
-6.8889e-08
-3.3302e-09
4.56072e-08
-4.4313e-08
4.28596e-08
1.04272e-08
-1.51889e-09
1.8154e-08
9.88116e-09
3.14872e-08
1.95748e-08
-2.39904e-08
8.02943e-08
2.0209e-08
-3.93223e-08
1.37901e-07
2.12999e-08
-4.72762e-08
2.0544e-07
2.31545e-08
-5.58664e-08
2.86161e-07
2.5738e-08
-6.73331e-08
3.82887e-07
2.88959e-08
-8.15457e-08
4.95955e-07
3.26786e-08
-9.6263e-08
6.19793e-07
3.69446e-08
-1.06176e-07
7.41443e-07
4.30537e-08
-1.02871e-07
8.35372e-07
5.0668e-08
-7.48248e-08
8.63415e-07
6.41445e-08
-1.49761e-09
7.83193e-07
8.00059e-08
1.17324e-07
6.43335e-07
9.41568e-08
1.85852e-07
4.77012e-07
1.0548e-07
2.19244e-07
3.12527e-07
1.135e-07
2.2182e-07
1.57294e-07
1.18815e-07
2.15315e-07
8.51146e-09
1.21601e-07
2.10113e-07
-1.40269e-07
1.2201e-07
2.10076e-07
-2.95495e-07
1.20016e-07
2.15206e-07
-4.6001e-07
1.1541e-07
2.21702e-07
-6.26583e-07
1.0797e-07
2.19328e-07
-7.6742e-07
9.70566e-08
1.86688e-07
-8.4971e-07
8.31253e-08
1.19314e-07
-8.25807e-07
6.72817e-08
2.7806e-09
-7.34131e-07
5.39119e-08
-7.24794e-08
-6.11654e-07
4.65211e-08
-1.0338e-07
-4.82686e-07
4.07738e-08
-1.10665e-07
-3.59878e-07
3.71252e-08
-1.04924e-07
-2.48572e-07
3.42531e-08
-9.44513e-08
-1.49296e-07
3.23511e-08
-8.3408e-08
-6.31096e-08
3.13308e-08
-7.1004e-08
-2.83071e-09
3.0791e-08
-4.54627e-08
2.89202e-08
1.11088e-08
-1.6521e-09
9.62828e-09
1.01778e-08
3.19553e-08
1.03719e-08
-2.44045e-08
8.16119e-08
1.061e-08
-4.00576e-08
1.40087e-07
1.10096e-08
-4.81849e-08
2.08435e-07
1.17711e-08
-5.6965e-08
2.89889e-07
1.29844e-08
-6.86999e-08
3.87298e-07
1.47589e-08
-8.32723e-08
5.01138e-07
1.72692e-08
-9.84303e-08
6.26161e-07
2.07022e-08
-1.0878e-07
7.49623e-07
2.53867e-08
-1.05795e-07
8.4674e-07
3.12973e-08
-7.77458e-08
8.76463e-07
3.85586e-08
-4.13734e-09
7.95406e-07
4.59564e-08
1.15107e-07
6.53486e-07
5.26788e-08
1.83398e-07
4.84612e-07
5.81227e-08
2.16232e-07
3.17637e-07
6.22938e-08
2.18181e-07
1.60018e-07
6.51936e-08
2.11241e-07
8.90979e-09
6.68849e-08
2.05824e-07
-1.42224e-07
6.73558e-08
2.05788e-07
-2.99918e-07
6.65745e-08
2.11136e-07
-4.67052e-07
6.44781e-08
2.18066e-07
-6.36347e-07
6.095e-08
2.16315e-07
-7.79431e-07
5.59209e-08
1.84219e-07
-8.62784e-07
4.93809e-08
1.17097e-07
-8.37042e-07
4.19503e-08
-4.10792e-10
-7.42172e-07
3.45083e-08
-7.54662e-08
-6.17749e-07
2.85329e-08
-1.06434e-07
-4.87396e-07
2.38668e-08
-1.13446e-07
-3.63545e-07
2.05927e-08
-1.07318e-07
-2.51206e-07
1.83715e-08
-9.64576e-08
-1.50797e-07
1.70269e-08
-8.50845e-08
-6.34744e-08
1.6357e-08
-7.23487e-08
-2.46697e-09
1.60142e-08
-4.62307e-08
1.50105e-08
1.14427e-08
-1.74451e-09
1.14003e-09
1.02328e-08
3.20758e-08
1.20044e-09
-2.46489e-08
8.2071e-08
1.03708e-09
-4.04223e-08
1.40946e-07
7.38823e-10
-4.86042e-08
2.09761e-07
3.91404e-10
-5.74353e-08
2.91786e-07
1.95447e-10
-6.9236e-08
3.89912e-07
5.27143e-10
-8.38941e-08
5.0464e-07
1.6865e-09
-9.9146e-08
6.3071e-07
4.21713e-09
-1.09584e-07
7.55232e-07
7.5211e-09
-1.06656e-07
8.53212e-07
1.1952e-08
-7.86345e-08
8.83105e-07
1.35855e-08
-4.92027e-09
8.015e-07
1.276e-08
1.14801e-07
6.58604e-07
1.21302e-08
1.83444e-07
4.88607e-07
1.16808e-08
2.1644e-07
3.20462e-07
1.19846e-08
2.18454e-07
1.61666e-07
1.24665e-08
2.11523e-07
9.36542e-09
1.30793e-08
2.06106e-07
-1.42996e-07
1.36431e-08
2.06074e-07
-3.01967e-07
1.41217e-08
2.11424e-07
-4.70434e-07
1.45988e-08
2.18346e-07
-6.41064e-07
1.50556e-08
2.16525e-07
-7.85347e-07
1.59536e-08
1.8425e-07
-8.69436e-07
1.67096e-08
1.1676e-07
-8.43625e-07
1.72748e-08
-1.13567e-09
-7.4785e-07
1.5209e-08
-7.64751e-08
-6.22293e-07
1.04386e-08
-1.07463e-07
-4.90792e-07
6.81555e-09
-1.1445e-07
-3.65935e-07
3.99377e-09
-1.08258e-07
-2.5274e-07
2.50059e-09
-9.73232e-08
-1.51606e-07
1.76675e-09
-8.58742e-08
-6.36859e-08
1.47904e-09
-7.30423e-08
-2.32644e-09
1.35511e-09
-4.67003e-08
1.23306e-09
1.1451e-08
-1.79999e-09
-7.10579e-09
1.00458e-08
3.18443e-08
-7.71531e-09
-2.47285e-08
8.16645e-08
-8.35974e-09
-4.04235e-08
1.40467e-07
-9.51934e-09
-4.85438e-08
2.09395e-07
-1.12443e-08
-5.72932e-08
2.91796e-07
-1.32371e-08
-6.89683e-08
3.90632e-07
-1.48653e-08
-8.34429e-08
5.06362e-07
-1.55903e-08
-9.84532e-08
6.33404e-07
-1.41848e-08
-1.08641e-07
7.58375e-07
-1.19266e-08
-1.05524e-07
8.5503e-07
-7.11524e-09
-7.75876e-08
8.83448e-07
-1.09615e-08
-3.87098e-09
8.01468e-07
-2.13248e-08
1.16065e-07
6.58644e-07
-3.0539e-08
1.85494e-07
4.88961e-07
-3.79157e-08
2.19279e-07
3.20987e-07
-4.20361e-08
2.21995e-07
1.62246e-07
-4.42724e-08
2.1548e-07
9.9042e-09
-4.48397e-08
2.1026e-07
-1.42538e-07
-4.41395e-08
2.10225e-07
-3.01578e-07
-4.221e-08
2.15372e-07
-4.70072e-07
-3.87696e-08
2.21862e-07
-6.40656e-07
-3.36763e-08
2.19316e-07
-7.85162e-07
-2.57513e-08
1.86211e-07
-8.6991e-07
-1.64215e-08
1.17879e-07
-8.4572e-07
-6.4842e-09
-4.31105e-10
-7.51271e-07
-3.58338e-09
-7.56571e-08
-6.25249e-07
-9.01083e-09
-1.06572e-07
-4.92783e-07
-1.18995e-08
-1.13751e-07
-3.66963e-07
-1.40244e-08
-1.07801e-07
-2.53123e-07
-1.42501e-08
-9.70901e-08
-1.51691e-07
-1.38576e-08
-8.58071e-08
-6.37225e-08
-1.33833e-08
-7.31063e-08
-2.3929e-09
-1.30878e-08
-4.68867e-08
-1.2291e-08
1.11312e-08
-1.86856e-09
-1.48575e-08
9.62031e-09
3.11475e-08
-1.61011e-08
-2.46303e-08
8.01873e-08
-1.73617e-08
-4.00379e-08
1.38305e-07
-1.96615e-08
-4.79752e-08
2.0681e-07
-2.32509e-08
-5.64991e-08
2.89222e-07
-2.78144e-08
-6.78347e-08
3.88676e-07
-3.24792e-08
-8.18393e-08
5.05623e-07
-3.63153e-08
-9.62229e-08
6.34019e-07
-3.68332e-08
-1.05747e-07
7.59538e-07
-3.54101e-08
-1.02035e-07
8.52127e-07
-2.55663e-08
-7.41384e-08
8.76727e-07
-3.50652e-08
-4.96259e-10
7.94465e-07
-5.92539e-08
1.20191e-07
6.52904e-07
-8.04186e-08
1.9144e-07
4.85224e-07
-9.73431e-08
2.27108e-07
3.18956e-07
-1.07399e-07
2.3163e-07
1.61661e-07
-1.13209e-07
2.26233e-07
1.05741e-08
-1.15293e-07
2.2154e-07
-1.40659e-07
-1.14382e-07
2.21476e-07
-2.98398e-07
-1.1051e-07
2.26038e-07
-4.65424e-07
-1.03088e-07
2.31345e-07
-6.34352e-07
-9.1673e-08
2.26925e-07
-7.77979e-07
-7.39885e-08
1.91864e-07
-8.63314e-07
-5.27041e-08
1.21618e-07
-8.43406e-07
-2.95901e-08
3.19789e-09
-7.52882e-07
-2.15022e-08
-7.2606e-08
-6.2633e-07
-3.21007e-08
-1.03462e-07
-4.9262e-07
-3.44085e-08
-1.112e-07
-3.65786e-07
-3.50066e-08
-1.05852e-07
-2.51622e-07
-3.27271e-08
-9.56877e-08
-1.50528e-07
-3.01355e-08
-8.48153e-08
-6.32775e-08
-2.81611e-08
-7.24732e-08
-2.55834e-09
-2.70673e-08
-4.67397e-08
-2.53031e-08
1.04538e-08
-2.07966e-09
-2.17405e-08
8.96263e-09
2.97195e-08
-2.35742e-08
-2.43261e-08
7.71563e-08
-2.55755e-08
-3.92229e-08
1.33646e-07
-2.93065e-08
-4.68444e-08
2.00708e-07
-3.53389e-08
-5.49747e-08
2.82139e-07
-4.35381e-08
-6.57071e-08
3.81565e-07
-5.30538e-08
-7.88512e-08
4.99877e-07
-6.26109e-08
-9.20161e-08
6.31162e-07
-6.79308e-08
-1.00187e-07
7.59468e-07
-6.8725e-08
-9.49914e-08
8.43312e-07
-4.19742e-08
-6.74364e-08
8.59685e-07
-5.90161e-08
7.57876e-09
7.77048e-07
-1.05233e-07
1.28616e-07
6.38472e-07
-1.45142e-07
2.033e-07
4.75459e-07
-1.76581e-07
2.42251e-07
3.13285e-07
-1.95468e-07
2.50243e-07
1.59458e-07
-2.0647e-07
2.47088e-07
1.14318e-08
-2.10741e-07
2.43475e-07
-1.36789e-07
-2.09501e-07
2.43339e-07
-2.91211e-07
-2.02758e-07
2.46671e-07
-4.54411e-07
-1.89466e-07
2.49578e-07
-6.19105e-07
-1.68515e-07
2.41535e-07
-7.60285e-07
-1.35877e-07
2.03069e-07
-8.46695e-07
-9.56714e-08
1.29377e-07
-8.35253e-07
-5.13082e-08
1.02762e-08
-7.53287e-07
-3.70527e-08
-6.64155e-08
-6.2402e-07
-6.43774e-08
-9.6991e-08
-4.87658e-07
-6.46403e-08
-1.06129e-07
-3.59833e-07
-6.08471e-08
-1.01985e-07
-2.46217e-07
-5.34805e-08
-9.28625e-08
-1.46748e-07
-4.68908e-08
-8.27138e-08
-6.15609e-08
-4.23611e-08
-7.09867e-08
-2.51607e-09
-3.99708e-08
-4.61413e-08
-3.71851e-08
9.36588e-09
-2.49291e-09
-2.73583e-08
8.11069e-09
2.74157e-08
-2.96992e-08
-2.37835e-08
7.22892e-08
-3.24997e-08
-3.79494e-08
1.25928e-07
-3.78173e-08
-4.51284e-08
1.89991e-07
-4.66912e-08
-5.27105e-08
2.68529e-07
-5.94661e-08
-6.26097e-08
3.65971e-07
-7.59163e-08
-7.45796e-08
4.84486e-07
-9.51077e-08
-8.60181e-08
6.20702e-07
-1.11847e-07
-9.22999e-08
7.58789e-07
-1.2173e-07
-8.50823e-08
8.23658e-07
-5.07453e-08
-5.60974e-08
8.24003e-07
-8.08244e-08
2.14631e-08
7.43002e-07
-1.66641e-07
1.42408e-07
6.11213e-07
-2.34199e-07
2.20847e-07
4.56859e-07
-2.85423e-07
2.63196e-07
3.02189e-07
-3.16738e-07
2.7594e-07
1.54816e-07
-3.34853e-07
2.75756e-07
1.26124e-08
-3.42138e-07
2.736e-07
-1.29818e-07
-3.40402e-07
2.73332e-07
-2.77917e-07
-3.29596e-07
2.74936e-07
-4.33885e-07
-3.08091e-07
2.74593e-07
-5.90482e-07
-2.7348e-07
2.61562e-07
-7.25653e-07
-2.20221e-07
2.19514e-07
-8.11705e-07
-1.51709e-07
1.4209e-07
-8.16635e-07
-6.95045e-08
2.31258e-08
-7.52882e-07
-4.49721e-08
-5.58336e-08
-6.1418e-07
-1.15027e-07
-8.80522e-08
-4.73265e-07
-1.06585e-07
-9.89704e-08
-3.45727e-07
-9.19957e-08
-9.63899e-08
-2.34801e-07
-7.57409e-08
-8.86652e-08
-1.39134e-07
-6.31202e-08
-7.94381e-08
-5.79313e-08
-5.50497e-08
-6.85139e-08
-2.04497e-09
-5.09171e-08
-4.49399e-08
-4.71686e-08
7.93861e-09
-3.31889e-09
-3.11387e-08
7.0993e-09
2.38646e-08
-3.38865e-08
-2.29963e-08
6.48662e-08
-3.72639e-08
-3.62374e-08
1.13697e-07
-4.37913e-08
-4.28569e-08
1.71774e-07
-5.50438e-08
-4.97246e-08
2.43e-07
-7.21703e-08
-5.85214e-08
3.32516e-07
-9.65354e-08
-6.88968e-08
4.44581e-07
-1.29677e-07
-7.74963e-08
5.84161e-07
-1.71525e-07
-7.99017e-08
7.57947e-07
-2.30605e-07
-6.49106e-08
7.88873e-07
-4.98906e-08
-3.17813e-08
7.45471e-07
-7.37372e-08
3.63151e-08
6.74287e-07
-2.45551e-07
1.50093e-07
5.57771e-07
-3.42466e-07