/*--------------------------------*- C++ -*----------------------------------*\
| =========                 |                                                 |
| \\      /  F ield         | OpenFOAM: The Open Source CFD Toolbox           |
|  \\    /   O peration     | Version:  2112                                  |
|   \\  /    A nd           | Website:  www.openfoam.com                      |
|    \\/     M anipulation  |                                                 |
\*---------------------------------------------------------------------------*/
FoamFile
{
    version     2.0;
    format      ascii;
    arch        "LSB;label=32;scalar=64";
    class       volVectorField;
    location    "4.3";
    object      U;
}
// * * * * * * * * * * * * * * * * * * * * * * * * * * * * * * * * * * * * * //

dimensions      [0 1 -1 0 0 0 0];

internalField   nonuniform List<vector> 
64906
(
(-1.16792e-07 -3.44205e-07 -3.1598e-07)
(1.76865e-06 -2.11887e-06 -3.48963e-07)
(5.62217e-06 -3.94615e-06 5.33553e-07)
(1.01954e-05 -5.59802e-06 1.68719e-06)
(1.52051e-05 -6.87609e-06 2.65602e-06)
(2.02844e-05 -7.89857e-06 3.36909e-06)
(2.53232e-05 -8.76847e-06 3.98845e-06)
(3.01766e-05 -9.54633e-06 4.60248e-06)
(3.46385e-05 -1.02676e-05 5.24455e-06)
(3.81925e-05 -1.08322e-05 5.93448e-06)
(4.04011e-05 -1.13289e-05 6.62273e-06)
(4.04897e-05 -1.1571e-05 7.3163e-06)
(3.82441e-05 -1.19434e-05 8.05157e-06)
(3.42419e-05 -1.216e-05 8.88772e-06)
(2.88389e-05 -1.25223e-05 9.6202e-06)
(2.24234e-05 -1.28629e-05 1.02091e-05)
(1.52734e-05 -1.31589e-05 1.06131e-05)
(7.73761e-06 -1.33363e-05 1.08244e-05)
(8.41904e-08 -1.33825e-05 1.08363e-05)
(-7.38874e-06 -1.32979e-05 1.06496e-05)
(-1.4414e-05 -1.30966e-05 1.02713e-05)
(-2.06474e-05 -1.28528e-05 9.70969e-06)
(-2.58288e-05 -1.25842e-05 9.00842e-06)
(-2.95731e-05 -1.24363e-05 8.21826e-06)
(-3.14921e-05 -1.209e-05 7.54732e-06)
(-3.10376e-05 -1.1906e-05 6.88609e-06)
(-2.84899e-05 -1.14297e-05 6.20816e-06)
(-2.46246e-05 -1.08154e-05 5.48208e-06)
(-1.9882e-05 -9.89186e-06 4.70685e-06)
(-1.47957e-05 -8.65119e-06 3.77477e-06)
(-9.66748e-06 -6.96169e-06 2.48508e-06)
(-5.1061e-06 -4.73138e-06 8.77237e-07)
(-1.4158e-06 -2.19127e-06 -3.92096e-07)
(3.85303e-07 -9.43514e-08 -5.58934e-07)
(-2.89361e-06 3.7679e-06 -1.24084e-06)
(-1.94504e-06 2.42433e-06 -6.20663e-06)
(3.30603e-06 2.82568e-07 -7.81963e-06)
(8.79532e-06 -1.80103e-06 -8.16198e-06)
(1.43869e-05 -3.21042e-06 -8.40595e-06)
(1.97903e-05 -3.90606e-06 -8.91354e-06)
(2.50477e-05 -3.89939e-06 -9.78846e-06)
(3.00604e-05 -3.13093e-06 -1.10656e-05)
(3.47077e-05 -1.50624e-06 -1.27667e-05)
(3.84065e-05 1.28234e-06 -1.48976e-05)
(4.07584e-05 4.97009e-06 -1.73871e-05)
(4.08965e-05 9.64574e-06 -2.00626e-05)
(3.8754e-05 1.36332e-05 -2.26091e-05)
(3.47984e-05 1.71149e-05 -2.48887e-05)
(2.92218e-05 1.95649e-05 -2.67217e-05)
(2.26932e-05 2.13003e-05 -2.80982e-05)
(1.54518e-05 2.23424e-05 -2.90181e-05)
(7.86175e-06 2.2831e-05 -2.94949e-05)
(1.57285e-07 2.2791e-05 -2.95295e-05)
(-7.36465e-06 2.2222e-05 -2.91213e-05)
(-1.44718e-05 2.10996e-05 -2.82694e-05)
(-2.07997e-05 1.92854e-05 -2.69609e-05)
(-2.61081e-05 1.677e-05 -2.51992e-05)
(-2.97299e-05 1.32554e-05 -2.30088e-05)
(-3.15319e-05 9.29469e-06 -2.05826e-05)
(-3.10305e-05 4.68156e-06 -1.80353e-05)
(-2.82711e-05 1.19305e-06 -1.57241e-05)
(-2.41292e-05 -1.21942e-06 -1.38439e-05)
(-1.8952e-05 -2.1544e-06 -1.24885e-05)
(-1.32974e-05 -1.7887e-06 -1.16502e-05)
(-7.26896e-06 -1.58504e-07 -1.11977e-05)
(-1.30256e-06 2.52945e-06 -1.06603e-05)
(4.16451e-06 5.27874e-06 -8.58899e-06)
(4.30704e-06 6.61894e-06 -2.03936e-06)
(-4.94474e-06 1.3381e-05 -1.0484e-06)
(-5.04521e-06 1.42854e-05 -8.19208e-06)
(8.47656e-07 1.33795e-05 -1.07052e-05)
(7.14549e-06 1.24984e-05 -1.16105e-05)
(1.3609e-05 1.2627e-05 -1.23458e-05)
(1.9834e-05 1.40312e-05 -1.33778e-05)
(2.59763e-05 1.6928e-05 -1.49081e-05)
(3.20151e-05 2.16862e-05 -1.70377e-05)
(3.79591e-05 2.87015e-05 -1.98232e-05)
(4.29735e-05 3.87209e-05 -2.3295e-05)
(4.65305e-05 5.12143e-05 -2.73351e-05)
(4.68295e-05 6.62018e-05 -3.17101e-05)
(4.37782e-05 7.94014e-05 -3.5852e-05)
(3.87401e-05 9.07418e-05 -3.94752e-05)
(3.20653e-05 9.92738e-05 -4.24153e-05)
(2.46259e-05 0.000105594 -4.46393e-05)
(1.65415e-05 0.000109661 -4.61286e-05)
(8.19258e-06 0.000111696 -4.6902e-05)
(-2.60062e-07 0.000111722 -4.69572e-05)
(-8.53779e-06 0.000109739 -4.62937e-05)
(-1.64816e-05 0.000105727 -4.49138e-05)
(-2.37068e-05 9.94697e-05 -4.28005e-05)
(-3.00977e-05 9.10261e-05 -3.99758e-05)
(-3.47742e-05 7.98067e-05 -3.6482e-05)
(-3.74114e-05 6.68206e-05 -3.24961e-05)
(-3.66182e-05 5.21864e-05 -2.83145e-05)
(-3.24867e-05 4.02972e-05 -2.45304e-05)
(-2.67841e-05 3.11191e-05 -2.13919e-05)
(-1.99288e-05 2.53283e-05 -1.90227e-05)
(-1.27277e-05 2.22521e-05 -1.73528e-05)
(-5.15403e-06 2.14761e-05 -1.61341e-05)
(2.06518e-06 2.23822e-05 -1.47728e-05)
(8.46734e-06 2.32801e-05 -1.14003e-05)
(7.1793e-06 2.16102e-05 -1.94015e-06)
(-6.46755e-06 2.39868e-05 -3.0314e-07)
(-7.21936e-06 2.63279e-05 -8.48472e-06)
(-5.70592e-07 2.65025e-05 -1.13623e-05)
(6.79783e-06 2.69787e-05 -1.24423e-05)
(1.45807e-05 2.88713e-05 -1.33523e-05)
(2.22609e-05 3.25774e-05 -1.4607e-05)
(3.0157e-05 3.85207e-05 -1.64502e-05)
(3.83642e-05 4.74319e-05 -1.9017e-05)
(4.71186e-05 6.01573e-05 -2.23671e-05)
(5.50532e-05 7.82643e-05 -2.65555e-05)
(6.1338e-05 0.000101053 -3.1412e-05)
(6.19491e-05 0.000128914 -3.67756e-05)
(5.6809e-05 0.000152826 -4.1809e-05)
(4.92472e-05 0.000173181 -4.61938e-05)
(3.98721e-05 0.000188325 -4.97451e-05)
(3.00844e-05 0.000199574 -5.24148e-05)
(1.97371e-05 0.000206844 -5.4185e-05)
(9.25613e-06 0.000210518 -5.51015e-05)
(-1.32182e-06 0.000210613 -5.51629e-05)
(-1.17301e-05 0.000207126 -5.43685e-05)
(-2.19331e-05 0.000200045 -5.27186e-05)
(-3.14924e-05 0.000188988 -5.01701e-05)
(-4.05551e-05 0.000174071 -4.67431e-05)
(-4.76914e-05 0.000153994 -4.24957e-05)
(-5.23117e-05 0.000130511 -3.76273e-05)
(-5.10229e-05 0.000103247 -3.24739e-05)
(-4.39327e-05 8.14315e-05 -2.78993e-05)
(-3.50219e-05 6.45388e-05 -2.40718e-05)
(-2.49398e-05 5.34435e-05 -2.11614e-05)
(-1.50653e-05 4.66224e-05 -1.90643e-05)
(-5.16528e-06 4.32002e-05 -1.75032e-05)
(3.78563e-06 4.21693e-05 -1.58574e-05)
(1.13397e-05 4.16962e-05 -1.19658e-05)
(9.25083e-06 3.81373e-05 -1.08338e-06)
(-7.45164e-06 3.50951e-05 5.78962e-07)
(-8.33413e-06 3.85911e-05 -8.49245e-06)
(-4.62881e-07 3.9734e-05 -1.16784e-05)
(8.43294e-06 4.16201e-05 -1.28718e-05)
(1.80621e-05 4.5414e-05 -1.39187e-05)
(2.78765e-05 5.15759e-05 -1.5398e-05)
(3.84683e-05 6.0682e-05 -1.75877e-05)
(5.01728e-05 7.38642e-05 -2.06527e-05)
(6.375e-05 9.26642e-05 -2.46182e-05)
(7.70092e-05 0.000120203 -2.95758e-05)
(8.88038e-05 0.000156178 -3.52378e-05)
(8.99681e-05 0.000202727 -4.18117e-05)
(8.0423e-05 0.000240578 -4.78671e-05)
(6.80932e-05 0.00027196 -5.3202e-05)
(5.38673e-05 0.000294649 -5.75382e-05)
(3.99653e-05 0.000311526 -6.07336e-05)
(2.55907e-05 0.000322419 -6.28135e-05)
(1.12686e-05 0.000327957 -6.38835e-05)
(-3.1613e-06 0.000328129 -6.39486e-05)
(-1.74131e-05 0.000322932 -6.30078e-05)
(-3.16474e-05 0.000312375 -6.10536e-05)
(-4.53135e-05 0.000295821 -5.79834e-05)
(-5.92017e-05 0.000273484 -5.37729e-05)
(-7.10256e-05 0.000242501 -4.85765e-05)
(-7.99249e-05 0.000205254 -4.2691e-05)
(-7.7839e-05 0.000159499 -3.63355e-05)
(-6.4969e-05 0.0001249 -3.09806e-05)
(-5.04614e-05 9.89016e-05 -2.6412e-05)
(-3.51386e-05 8.20823e-05 -2.29207e-05)
(-2.12609e-05 7.13677e-05 -2.03676e-05)
(-8.10879e-06 6.52528e-05 -1.84937e-05)
(3.31764e-06 6.23297e-05 -1.66013e-05)
(1.27606e-05 6.06886e-05 -1.22392e-05)
(1.06059e-05 5.56323e-05 -4.47413e-08)
(-8.13403e-06 4.57913e-05 1.48339e-06)
(-8.62016e-06 5.01618e-05 -8.60129e-06)
(1.12175e-06 5.21158e-05 -1.21595e-05)
(1.21434e-05 5.53364e-05 -1.3494e-05)
(2.42103e-05 6.1016e-05 -1.47138e-05)
(3.68086e-05 6.95671e-05 -1.64923e-05)
(5.09291e-05 8.15853e-05 -1.91353e-05)
(6.73682e-05 9.85128e-05 -2.28302e-05)
(8.80618e-05 0.000122848 -2.74701e-05)
(0.000110039 0.000160536 -3.3159e-05)
(0.000132728 0.000212756 -3.9059e-05)
(0.000135126 0.000288319 -4.69525e-05)
(0.000116872 0.00034412 -5.4163e-05)
(9.66095e-05 0.000388398 -6.08947e-05)
(7.49198e-05 0.000419068 -6.64676e-05)
(5.49859e-05 0.000441986 -7.0368e-05)
(3.45549e-05 0.000456727 -7.28291e-05)
(1.43978e-05 0.000464269 -7.40825e-05)
(-5.9249e-06 0.000464529 -7.41523e-05)
(-2.60228e-05 0.000457496 -7.30367e-05)
(-4.63375e-05 0.000443245 -7.07081e-05)
(-6.60537e-05 0.000420771 -6.6939e-05)
(-8.74119e-05 0.000390548 -6.14943e-05)
(-0.000107097 0.000346724 -5.49053e-05)
(-0.000124582 0.000291649 -4.78757e-05)
(-0.000120919 0.000216982 -4.02017e-05)
(-9.68384e-05 0.000166681 -3.46419e-05)
(-7.34035e-05 0.000130812 -2.93797e-05)
(-5.05242e-05 0.000108753 -2.52696e-05)
(-3.13348e-05 9.46473e-05 -2.21598e-05)
(-1.39607e-05 8.61618e-05 -1.99052e-05)
(8.27757e-07 8.16351e-05 -1.76914e-05)
(1.31088e-05 7.90948e-05 -1.27261e-05)
(1.16042e-05 7.29048e-05 1.0117e-06)
(-8.6865e-06 5.57246e-05 2.44882e-06)
(-8.28025e-06 6.0767e-05 -8.91186e-06)
(4.11411e-06 6.35283e-05 -1.29629e-05)
(1.79704e-05 6.81407e-05 -1.44949e-05)
(3.31107e-05 7.58655e-05 -1.59425e-05)
(4.90361e-05 8.69071e-05 -1.80972e-05)
(6.71821e-05 0.000101602 -2.12802e-05)
(8.90649e-05 0.000121161 -2.5692e-05)
(0.000119042 0.000148959 -3.09641e-05)
(0.000153757 0.000194298 -3.69956e-05)
(0.000198032 0.000264552 -4.16598e-05)
(0.000203682 0.000388171 -5.0687e-05)
(0.00016783 0.00046648 -5.86651e-05)
(0.000135301 0.000525863 -6.74529e-05)
(0.000103308 0.000565317 -7.50392e-05)
(7.55435e-05 0.000595374 -7.96991e-05)
(4.68997e-05 0.000614739 -8.25588e-05)
(1.87601e-05 0.000624719 -8.39974e-05)
(-9.69353e-06 0.000625082 -8.40728e-05)
(-3.77997e-05 0.000615811 -8.27826e-05)
(-6.63849e-05 0.000597113 -8.00636e-05)
(-9.40002e-05 0.000567629 -7.55446e-05)
(-0.000125741 0.000528686 -6.80914e-05)
(-0.000157657 0.000469717 -5.9459e-05)
(-0.000192678 0.000392146 -5.16913e-05)
(-0.000185216 0.000269307 -4.28763e-05)
(-0.000139143 0.000201899 -3.86051e-05)
(-0.000102955 0.000158546 -3.30345e-05)
(-7.03073e-05 0.000133219 -2.8367e-05)
(-4.49534e-05 0.000116783 -2.46384e-05)
(-2.25899e-05 0.000106196 -2.19386e-05)
(-3.52521e-06 0.00010012 -1.9309e-05)
(1.26913e-05 9.67069e-05 -1.3542e-05)
(1.25004e-05 8.95338e-05 2.17587e-06)
(-9.24413e-06 6.44167e-05 3.39828e-06)
(-7.37372e-06 6.99564e-05 -9.43878e-06)
(8.68857e-06 7.35699e-05 -1.41454e-05)
(2.62908e-05 7.96812e-05 -1.5929e-05)
(4.53485e-05 8.96666e-05 -1.7668e-05)
(6.516e-05 0.000103337 -2.02915e-05)
(8.72411e-05 0.000120321 -2.41397e-05)
(0.000113732 0.000140514 -2.94865e-05)
(0.000151899 0.000166348 -3.54211e-05)
(0.000201729 0.000213165 -4.22509e-05)
(0.000289818 0.000296775 -3.92183e-05)
(0.000304877 0.000506451 -4.69764e-05)
(0.000234933 0.00060734 -5.59294e-05)
(0.000186623 0.000679929 -6.898e-05)
(0.000141892 0.000726737 -8.02618e-05)
(0.00010435 0.000763152 -8.57178e-05)
(6.43799e-05 0.000786823 -8.89732e-05)
(2.49793e-05 0.000799161 -9.05916e-05)
(-1.50205e-05 0.000799649 -9.06733e-05)
(-5.44303e-05 0.000788263 -8.9215e-05)
(-9.4445e-05 0.000765476 -8.61109e-05)
(-0.000131989 0.000729789 -8.08124e-05)
(-0.000176697 0.000683545 -6.96773e-05)
(-0.000224506 0.000611184 -5.68135e-05)
(-0.000293793 0.000510955 -4.81706e-05)
(-0.00027587 0.000301688 -4.0517e-05)
(-0.000185401 0.000222897 -4.39376e-05)
(-0.000134556 0.000177727 -3.76389e-05)
(-9.30999e-05 0.000154277 -3.24279e-05)
(-6.21956e-05 0.000137324 -2.79078e-05)
(-3.45654e-05 0.00012495 -2.46732e-05)
(-1.01871e-05 0.000117269 -2.15187e-05)
(1.14099e-05 0.000112787 -1.46929e-05)
(1.33623e-05 0.00010494 3.59697e-06)
(-9.82785e-06 7.14413e-05 4.42291e-06)
(-5.87339e-06 7.74614e-05 -1.01816e-05)
(1.49595e-05 8.20907e-05 -1.57374e-05)
(3.73735e-05 9.0197e-05 -1.78186e-05)
(6.14023e-05 0.000103408 -1.98877e-05)
(8.57795e-05 0.0001213 -2.30052e-05)
(0.000111309 0.00014276 -2.75661e-05)
(0.000138988 0.000164291 -3.39321e-05)
(0.000180866 0.000187079 -4.15836e-05)
(0.000238174 0.000226463 -4.76083e-05)
(0.000410363 0.000249428 -4.68523e-05)
(0.000450054 0.000622866 -3.82824e-05)
(0.00030899 0.000756661 -4.4207e-05)
(0.000246816 0.000848977 -6.42134e-05)
(0.000189273 0.000908085 -8.06295e-05)
(0.000140379 0.00095648 -8.65686e-05)
(8.64932e-05 0.000988304 -9.06937e-05)
(3.29405e-05 0.00100473 -9.26697e-05)
(-2.17025e-05 0.00100538 -9.27534e-05)
(-7.53212e-05 0.000990224 -9.09411e-05)
(-0.000129395 0.000959608 -8.69652e-05)
(-0.000178534 0.000912216 -8.11893e-05)
(-0.000236539 0.000853838 -6.49186e-05)
(-0.000298513 0.000761634 -4.51467e-05)
(-0.000439553 0.00062819 -3.96315e-05)
(-0.00039487 0.000252317 -4.86802e-05)
(-0.000219831 0.000237151 -4.96076e-05)
(-0.000163283 0.000199289 -4.40095e-05)
(-0.000117016 0.000179124 -3.72423e-05)
(-8.36301e-05 0.00016092 -3.18877e-05)
(-5.06995e-05 0.000144507 -2.81341e-05)
(-1.98421e-05 0.000133615 -2.44816e-05)
(9.03822e-06 0.000127224 -1.61882e-05)
(1.43563e-05 0.000118742 5.24155e-06)
(-1.02813e-05 7.61847e-05 5.57457e-06)
(-3.45486e-06 8.25113e-05 -1.11726e-05)
(2.36775e-05 8.80539e-05 -1.77448e-05)
(5.28301e-05 9.81628e-05 -2.02103e-05)
(8.43549e-05 0.000114819 -2.27005e-05)
(0.000116472 0.000137693 -2.64278e-05)
(0.000147498 0.000164553 -3.18395e-05)
(0.000177694 0.000186778 -4.06882e-05)
(0.000216177 0.000191062 -5.02012e-05)
(0.000177264 0.000104663 -7.33068e-05)
(0.000484378 0.000221044 -7.24515e-05)
(0.000656384 0.000874382 -8.51131e-06)
(0.0004043 0.000944197 -4.97748e-06)
(0.000338607 0.00100547 -2.75508e-05)
(0.000265619 0.00106707 -4.76966e-05)
(0.000199019 0.00111857 -4.92052e-05)
(0.000122061 0.00115549 -5.19542e-05)
(4.54376e-05 0.00117458 -5.35062e-05)
(-3.23677e-05 0.0011754 -5.35672e-05)
(-0.000109087 0.00115793 -5.21394e-05)
(-0.00018635 0.00112257 -4.94827e-05)
(-0.000253461 0.00107244 -4.81362e-05)
(-0.000327507 0.00101179 -2.81242e-05)
(-0.000393823 0.000950219 -5.80209e-06)
(-0.000650304 0.000876819 -1.01204e-05)
(-0.0004708 0.000224284 -7.49535e-05)
(-0.000157467 0.000123751 -7.44334e-05)
(-0.000198636 0.000207724 -5.22423e-05)
(-0.00015452 0.000203337 -4.4276e-05)
(-0.000117485 0.000183543 -3.68713e-05)
(-7.68665e-05 0.000161738 -3.25885e-05)
(-3.57123e-05 0.000146551 -2.83711e-05)
(4.13959e-06 0.000138002 -1.82806e-05)
(1.49312e-05 0.000129147 7.02738e-06)
(-1.0738e-05 7.82341e-05 6.76918e-06)
(-4.82315e-07 8.47296e-05 -1.24091e-05)
(3.40761e-05 9.12031e-05 -2.01551e-05)
(7.14872e-05 0.000103542 -2.30961e-05)
(0.000112853 0.000124863 -2.60708e-05)
(0.000155745 0.000157208 -3.00827e-05)
(0.000195266 0.000203437 -3.52014e-05)
(0.000222932 0.000265632 -3.98067e-05)
(0.000179573 0.000347373 -5.91747e-05)
(0.000178352 0.000395747 -9.6383e-05)
(0.000289026 0.00074048 7.416e-05)
(0.000318836 0.000944899 3.92375e-05)
(0.000397577 0.00106657 2.57977e-05)
(0.000344592 0.0011749 2.55467e-05)
(0.000259861 0.00125161 2.05783e-05)
(0.000161146 0.00130237 1.50843e-05)
(5.93188e-05 0.00132712 1.24487e-05)
(-4.39067e-05 0.00132807 1.24513e-05)
(-0.000145852 0.00130524 1.50819e-05)
(-0.000244916 0.0012565 2.05752e-05)
(-0.000330373 0.00118199 2.55647e-05)
(-0.000385249 0.001076 2.59038e-05)
(-0.000310805 0.000956633 3.89474e-05)
(-0.000284118 0.000751796 7.25352e-05)
(-0.000174267 0.000406926 -9.297e-05)
(-0.000171069 0.00036151 -6.0741e-05)
(-0.000203649 0.000280823 -4.41476e-05)
(-0.00016512 0.000221677 -4.1387e-05)
(-0.000112578 0.00018094 -3.77766e-05)
(-5.72211e-05 0.000156901 -3.33283e-05)
(-2.8602e-06 0.000144589 -2.11557e-05)
(1.53464e-05 0.000135101 8.78326e-06)
(-1.09375e-05 7.68956e-05 7.99159e-06)
(3.45165e-06 8.32038e-05 -1.38036e-05)
(4.69623e-05 8.96985e-05 -2.28438e-05)
(9.55956e-05 0.000102241 -2.64284e-05)
(0.000153443 0.000124185 -3.02931e-05)
(0.0002231 0.000158302 -3.5623e-05)
(0.000309355 0.000209376 -4.24618e-05)
(0.000425265 0.000284095 -4.75029e-05)
(0.000559931 0.000394233 -4.97365e-05)
(0.000828842 0.000557143 -3.05021e-05)
(0.000857788 0.000152231 5.28552e-05)
(0.000647828 0.000301131 8.22685e-05)
(0.000714589 0.000688124 0.000135785)
(0.000642631 0.00090031 0.00018691)
(0.000511298 0.00104843 0.000215598)
(0.000365312 0.001146 0.00022446)
(0.000219678 0.00120571 0.000224351)
(7.85577e-05 0.00123402 0.000223319)
(-6.07458e-05 0.00123494 0.000223372)
(-0.000201795 0.00120851 0.000224505)
(-0.000347299 0.00115084 0.000224741)
(-0.00049307 0.00105563 0.000216152)
(-0.000624281 0.000910297 0.000188069)
(-0.00069648 0.000701477 0.000137675)
(-0.0006285 0.000316971 8.5503e-05)
(-0.000845983 0.000154874 5.5469e-05)
(-0.000823822 0.000557797 -2.96019e-05)
(-0.000549088 0.00040252 -5.20494e-05)
(-0.000406169 0.000296462 -5.24361e-05)
(-0.000278378 0.000226091 -4.99355e-05)
(-0.000176512 0.000181044 -4.51306e-05)
(-9.10275e-05 0.000155523 -3.9587e-05)
(-1.47168e-05 0.000142883 -2.47546e-05)
(1.43219e-05 0.000133221 1.05527e-05)
(-1.14298e-05 7.2122e-05 9.16163e-06)
(6.4707e-06 7.78811e-05 -1.50968e-05)
(5.77528e-05 8.33416e-05 -2.53889e-05)
(0.000115344 9.36861e-05 -2.95969e-05)
(0.000184831 0.000111213 -3.425e-05)
(0.000269881 0.000136707 -4.06859e-05)
(0.000375884 0.000170046 -4.86113e-05)
(0.000512969 0.0002085 -5.46707e-05)
(0.000672958 0.000240984 -5.49759e-05)
(0.000909899 0.000259193 -3.83966e-05)
(0.0010225 0.000123361 -1.03671e-05)
(0.000978416 0.000315684 4.04994e-05)
(0.000937103 0.000510539 0.000142531)
(0.000803177 0.000653862 0.000210796)
(0.000632191 0.000764428 0.000246188)
(0.00044616 0.000837431 0.00026067)
(0.000266097 0.000883028 0.000263637)
(9.41315e-05 0.000904981 0.000263781)
(-7.43995e-05 0.000905739 0.00026384)
(-0.000246232 0.000885316 0.000263809)
(-0.000426052 0.000841287 0.000260997)
(-0.000611717 0.000769873 0.000246825)
(-0.000782731 0.000660821 0.000212151)
(-0.000917278 0.00051832 0.000144869)
(-0.000959781 0.000323155 4.46169e-05)
(-0.00100976 0.00012592 -7.71991e-06)
(-0.000902166 0.000264978 -3.83503e-05)
(-0.000662532 0.000249638 -5.78823e-05)
(-0.000493986 0.000220223 -6.04512e-05)
(-0.000343521 0.000185853 -5.73396e-05)
(-0.000219389 0.000158344 -5.18508e-05)
(-0.000115228 0.000141 -4.53257e-05)
(-2.27135e-05 0.000132187 -2.81571e-05)
(1.42653e-05 0.000123379 1.25318e-05)
(-1.19694e-05 6.46238e-05 1.02712e-05)
(8.8011e-06 6.97293e-05 -1.61566e-05)
(6.66547e-05 7.39907e-05 -2.75486e-05)
(0.000131492 8.19003e-05 -3.22995e-05)
(0.000209779 9.50463e-05 -3.76645e-05)
(0.000305229 0.000113461 -4.52781e-05)
(0.000423046 0.000136018 -5.49901e-05)
(0.000570569 0.00016062 -6.44402e-05)
(0.000739112 0.000180729 -6.98062e-05)
(0.000937422 0.000198426 -6.39476e-05)
(0.00106841 0.000162184 -4.31735e-05)
(0.00111084 0.000251932 2.0912e-05)
(0.00106636 0.0003718 0.000127786)
(0.000910465 0.000470709 0.000195061)
(0.000712103 0.000547276 0.000230384)
(0.000498436 0.00059649 0.000239518)
(0.000296173 0.000627281 0.000238698)
(0.000104254 0.000642008 0.000236857)
(-8.30439e-05 0.000642621 0.000236881)
(-0.000274807 0.000629121 0.000238765)
(-0.000476797 0.000599548 0.00023967)
(-0.000690093 0.000551512 0.00023078)
(-0.000888659 0.000476028 0.000196146)
(-0.00104549 0.000377839 0.000129846)
(-0.00109352 0.000258401 2.47818e-05)
(-0.00105721 0.000166604 -4.08675e-05)
(-0.000929134 0.000204039 -6.38614e-05)
(-0.000727887 0.000188598 -7.2874e-05)
(-0.000550375 0.000171381 -7.06821e-05)
(-0.000388326 0.000150618 -6.45714e-05)
(-0.000250289 0.000133424 -5.76335e-05)
(-0.000133026 0.000122234 -4.99925e-05)
(-2.81049e-05 0.000116441 -3.07507e-05)
(1.46748e-05 0.000108914 1.45402e-05)
(-1.26366e-05 5.49715e-05 1.12208e-05)
(1.00881e-05 5.92698e-05 -1.69753e-05)
(7.27179e-05 6.22512e-05 -2.92539e-05)
(0.000142447 6.76426e-05 -3.4435e-05)
(0.000226051 7.64641e-05 -4.03464e-05)
(0.000326775 8.83686e-05 -4.88624e-05)
(0.000449499 0.000102056 -5.99273e-05)
(0.00059937 0.00011621 -7.1557e-05)
(0.000768979 0.000126966 -7.95714e-05)
(0.000953614 0.000139012 -7.68662e-05)
(0.001099 0.000138125 -5.62464e-05)
(0.00118264 0.000194133 4.2454e-06)
(0.00114093 0.000269217 0.000108722)
(0.000972172 0.000331477 0.000169375)
(0.00075932 0.000380227 0.000199469)
(0.000530298 0.000412287 0.000202829)
(0.000314969 0.00043271 0.00019839)
(0.000110709 0.000442614 0.000194713)
(-8.83424e-05 0.000443151 0.000194701)
(-0.000292474 0.000434303 0.000198347)
(-0.000507596 0.000414881 0.000202792)
(-0.000736354 0.000383723 0.000199591)
(-0.00094964 0.000335749 0.000170124)
(-0.00111963 0.000274004 0.000110433)
(-0.00116575 0.000199333 7.88457e-06)
(-0.00108807 0.000142872 -5.41113e-05)
(-0.000944605 0.000144865 -7.69581e-05)
(-0.000756726 0.000134476 -8.28458e-05)
(-0.00057755 0.000126077 -7.81675e-05)
(-0.000412076 0.000115198 -7.01113e-05)
(-0.000267426 0.000106047 -6.20284e-05)
(-0.000142856 0.000100061 -5.34583e-05)
(-3.00808e-05 9.69137e-05 -3.25522e-05)
(1.59433e-05 9.09731e-05 1.61482e-05)
(-1.32455e-05 4.39871e-05 1.19883e-05)
(1.07555e-05 4.74359e-05 -1.7578e-05)
(7.67447e-05 4.94309e-05 -3.05222e-05)
(0.000149788 5.2954e-05 -3.60201e-05)
(0.000236749 5.87268e-05 -4.23281e-05)
(0.000340425 6.64513e-05 -5.14991e-05)
(0.000465529 7.52457e-05 -6.35461e-05)
(0.000616071 8.45861e-05 -7.66351e-05)
(0.000786207 9.27601e-05 -8.6308e-05)
(0.000967846 0.000103831 -8.53847e-05)
(0.0011233 0.000114169 -6.44411e-05)
(0.00122638 0.000150976 -5.24007e-06)
(0.00118686 0.000197847 9.76332e-05)
(0.00101171 0.00023846 0.000154113)
(0.000789781 0.000270532 0.000180428)
(0.000550966 0.000292063 0.000180066)
(0.000327222 0.000305907 0.000173223)
(0.000115026 0.000312741 0.000168345)
(-9.16107e-05 0.000313264 0.000168314)
(-0.000303725 0.00030745 0.000173122)
(-0.000527356 0.000294547 0.000179926)
(-0.000766045 0.000273831 0.000180397)
(-0.000988608 0.000242421 0.000154676)
(-0.0011652 0.00020226 9.91263e-05)
(-0.00120956 0.000155795 -1.90464e-06)
(-0.00111228 0.000119014 -6.24339e-05)
(-0.000958173 0.000109475 -8.55664e-05)
(-0.000772894 9.96007e-05 -8.97261e-05)
(-0.000592569 9.32439e-05 -8.34938e-05)
(-0.000425518 8.64694e-05 -7.41247e-05)
(-0.000277185 8.1195e-05 -6.51807e-05)
(-0.000148244 7.79409e-05 -5.58952e-05)
(-3.04564e-05 7.62123e-05 -3.37459e-05)
(1.72946e-05 7.16071e-05 1.7379e-05)
(-1.37563e-05 3.21747e-05 1.25327e-05)
(1.0992e-05 3.46946e-05 -1.80139e-05)
(7.91382e-05 3.59112e-05 -3.14161e-05)
(0.000154265 3.80149e-05 -3.71236e-05)
(0.000243237 4.15245e-05 -4.36818e-05)
(0.000348566 4.62966e-05 -5.32535e-05)
(0.000474991 5.19066e-05 -6.58819e-05)
(0.00062614 5.83095e-05 -7.97641e-05)
(0.000797504 6.50044e-05 -9.02784e-05)
(0.000980049 7.47241e-05 -9.00826e-05)
(0.00114192 8.65424e-05 -6.91225e-05)
(0.00125484 0.000110692 -9.97004e-06)
(0.00121673 0.000140132 9.26065e-05)
(0.00103744 0.000166094 0.000147445)
(0.000809763 0.000186764 0.000172013)
(0.000564819 0.000201132 0.000169937)
(0.00033559 0.000210557 0.000162005)
(0.000118112 0.000215378 0.00015659)
(-9.3647e-05 0.000215933 0.000156555)
(-0.000311107 0.000212187 0.000161888)
(-0.000540349 0.00020373 0.000169765)
(-0.000785343 0.000190168 0.000171933)
(-0.00101388 0.000170098 0.000147941)
(-0.0011948 0.0001445 9.40484e-05)
(-0.00123798 0.000115262 -6.70599e-06)
(-0.0011307 9.12752e-05 -6.71933e-05)
(-0.00096983 7.99478e-05 -9.03638e-05)
(-0.000783309 7.09842e-05 -9.38389e-05)
(-0.000601258 6.54998e-05 -8.68294e-05)
(-0.000432919 6.08427e-05 -7.67506e-05)
(-0.000282353 5.7623e-05 -6.72887e-05)
(-0.000150846 5.58325e-05 -5.7539e-05)
(-3.00478e-05 5.48854e-05 -3.45472e-05)
(1.85122e-05 5.15941e-05 1.81757e-05)
(-1.41007e-05 1.99836e-05 1.28525e-05)
(1.10417e-05 2.15427e-05 -1.83132e-05)
(8.04329e-05 2.21619e-05 -3.19901e-05)
(0.000156792 2.3215e-05 -3.78171e-05)
(0.000246989 2.50669e-05 -4.45119e-05)
(0.000353411 2.77596e-05 -5.42975e-05)
(0.000480876 3.12697e-05 -6.72315e-05)
(0.000632927 3.57744e-05 -8.15068e-05)
(0.000805748 4.1339e-05 -9.24168e-05)
(0.000990007 4.91437e-05 -9.24943e-05)
(0.00115571 5.89977e-05 -7.14923e-05)
(0.0012732 7.36512e-05 -1.22062e-05)
(0.00123559 9.00617e-05 9.10211e-05)
(0.00105383 0.000104847 0.000145693)
(0.000822636 0.000116753 0.000169795)
(0.000573949 0.000125438 0.00016718)
(0.000341224 0.000131293 0.00015889)
(0.000120354 0.000134483 0.000153301)
(-9.47469e-05 0.000135107 0.000153268)
(-0.00031568 0.000133122 0.000158779)
(-0.000548571 0.000128337 0.000167016)
(-0.000797529 0.000120518 0.000169721)
(-0.00102985 0.000109198 0.000146188)
(-0.00121353 9.47068e-05 9.25054e-05)
(-0.00125631 7.83043e-05 -8.62773e-06)
(-0.00114432 6.36207e-05 -6.95839e-05)
(-0.000979496 5.38825e-05 -9.28731e-05)
(-0.000791035 4.63519e-05 -9.61139e-05)
(-0.000607186 4.13462e-05 -8.87505e-05)
(-0.00043751 3.7707e-05 -7.83258e-05)
(-0.000285351 3.54114e-05 -6.85917e-05)
(-0.000152227 3.42306e-05 -5.85832e-05)
(-2.96454e-05 3.36146e-05 -3.50866e-05)
(1.93241e-05 3.15544e-05 1.86141e-05)
(-1.4264e-05 7.69673e-06 1.29437e-05)
(1.09949e-05 8.27e-06 -1.84958e-05)
(8.0842e-05 8.33296e-06 -3.22779e-05)
(0.000157723 8.42664e-06 -3.81426e-05)
(0.000248537 8.76518e-06 -4.48735e-05)
(0.00035569 9.56454e-06 -5.47101e-05)
(0.000484071 1.11486e-05 -6.77166e-05)
(0.000637257 1.38382e-05 -8.20742e-05)
(0.000811498 1.8115e-05 -9.30612e-05)
(0.000997282 2.37658e-05 -9.31827e-05)
(0.00116449 3.09205e-05 -7.21998e-05)
(0.00128287 3.71938e-05 -1.28723e-05)
(0.00124495 4.20404e-05 9.08653e-05)
(0.00106199 4.65483e-05 0.000145874)
(0.000829217 5.02575e-05 0.00017012)
(0.000578873 5.35343e-05 0.000167561)
(0.000344446 5.59972e-05 0.000159278)
(0.000121878 5.7658e-05 0.000153691)
(-9.49645e-05 5.83872e-05 0.000153662)
(-0.000317694 5.81355e-05 0.000159177)
(-0.000552478 5.69121e-05 0.00016741)
(-0.000803371 5.46209e-05 0.000170059)
(-0.0010376 5.15213e-05 0.00014637)
(-0.00122279 4.72378e-05 9.23476e-05)
(-0.00126612 4.22057e-05 -9.23529e-06)
(-0.00115326 3.55184e-05 -7.03707e-05)
(-0.000986818 2.80683e-05 -9.36895e-05)
(-0.00079671 2.21938e-05 -9.69135e-05)
(-0.000611283 1.78099e-05 -8.94952e-05)
(-0.000440293 1.5081e-05 -7.90075e-05)
(-0.000287004 1.35223e-05 -6.92138e-05)
(-0.000152945 1.27863e-05 -5.91326e-05)
(-2.95162e-05 1.24261e-05 -3.5435e-05)
(1.9668e-05 1.16201e-05 1.87203e-05)
(-1.42496e-05 -4.38683e-06 1.28081e-05)
(1.08465e-05 -4.79031e-06 -1.85643e-05)
(8.03585e-05 -5.33877e-06 -3.22836e-05)
(0.000157048 -6.31477e-06 -3.81066e-05)
(0.00024786 -7.67404e-06 -4.47801e-05)
(0.000355348 -9.04067e-06 -5.45199e-05)
(0.000484465 -9.7138e-06 -6.73704e-05)
(0.000638978 -9.14005e-06 -8.15066e-05)
(0.000814643 -6.19336e-06 -9.22578e-05)
(0.00100189 -2.34774e-06 -9.22072e-05)
(0.00116857 3.44012e-06 -7.13232e-05)
(0.00128417 1.85506e-06 -1.19588e-05)
(0.00124486 -5.49028e-06 9.18432e-05)
(0.00106189 -1.18669e-05 0.000147548)
(0.000829439 -1.69041e-05 0.000172464)
(0.000579551 -1.93214e-05 0.000170498)
(0.000345251 -2.04105e-05 0.000162554)
(0.000122708 -2.03207e-05 0.000157129)
(-9.42481e-05 -1.9431e-05 0.000157101)
(-0.000317071 -1.77956e-05 0.000162457)
(-0.000551957 -1.51891e-05 0.000170344)
(-0.000802741 -1.1563e-05 0.000172384)
(-0.00103706 -5.8314e-06 0.000147992)
(-0.00122272 7.11948e-07 9.32178e-05)
(-0.00126777 7.59978e-06 -8.59581e-06)
(-0.00115775 8.24751e-06 -6.96785e-05)
(-0.000991806 1.76245e-06 -9.29029e-05)
(-0.000800232 -2.78477e-06 -9.63021e-05)
(-0.000613409 -6.4781e-06 -8.91115e-05)
(-0.00044117 -7.98623e-06 -7.88283e-05)
(-0.000287252 -8.48463e-06 -6.91766e-05)
(-0.000152966 -8.52914e-06 -5.92014e-05)
(-2.96349e-05 -8.49987e-06 -3.56012e-05)
(1.95593e-05 -8.03173e-06 1.84977e-05)
(-1.40786e-05 -1.59679e-05 1.24491e-05)
(1.04988e-05 -1.73368e-05 -1.85059e-05)
(7.87634e-05 -1.86816e-05 -3.19843e-05)
(0.000154385 -2.1098e-05 -3.76809e-05)
(0.000244344 -2.47835e-05 -4.41904e-05)
(0.000351506 -2.92695e-05 -5.36569e-05)
(0.000480954 -3.34529e-05 -6.61081e-05)
(0.000636972 -3.63138e-05 -7.96759e-05)
(0.000814344 -3.53681e-05 -8.98075e-05)
(0.00100417 -3.27266e-05 -8.92006e-05)
(0.00116858 -2.41011e-05 -6.83723e-05)
(0.00127638 -3.36208e-05 -8.7825e-06)
(0.00123401 -5.65749e-05 9.5284e-05)
(0.00105236 -7.70532e-05 0.000152695)
(0.00082246 -9.35118e-05 0.000179309)
(0.000575495 -0.000103101 0.000178964)
(0.000343387 -0.000108532 0.000171987)
(0.000122814 -0.000110294 0.000167017)
(-9.24301e-05 -0.000109164 0.000166969)
(-0.000313422 -0.000105198 0.000171823)
(-0.000546383 -9.78073e-05 0.000178692)
(-0.000794679 -8.66131e-05 0.000179058)
(-0.00102698 -6.92631e-05 0.000152904)
(-0.00121188 -4.86407e-05 9.63214e-05)
(-0.00126059 -2.66951e-05 -6.14591e-06)
(-0.00115852 -1.87767e-05 -6.70721e-05)
(-0.000994707 -2.83998e-05 -9.0209e-05)
(-0.000800664 -3.21494e-05 -9.41322e-05)
(-0.000612354 -3.44185e-05 -8.75079e-05)
(-0.00043897 -3.33563e-05 -7.77225e-05)
(-0.000285189 -3.15442e-05 -6.84152e-05)
(-0.000151696 -2.99974e-05 -5.8724e-05)
(-2.97043e-05 -2.90973e-05 -3.55368e-05)
(1.90815e-05 -2.72266e-05 1.7924e-05)
(-1.38245e-05 -2.6574e-05 1.18676e-05)
(9.71078e-06 -2.88373e-05 -1.82982e-05)
(7.5546e-05 -3.11495e-05 -3.13404e-05)
(0.000148846 -3.53841e-05 -3.68132e-05)
(0.000236524 -4.20816e-05 -4.30263e-05)
(0.000341883 -5.08244e-05 -5.19897e-05)
(0.000470313 -6.02337e-05 -6.36783e-05)
(0.000627442 -6.86646e-05 -7.60792e-05)
(0.000807237 -7.12808e-05 -8.48704e-05)
(0.0010041 -6.99661e-05 -8.27496e-05)
(0.00116515 -4.84913e-05 -6.24499e-05)
(0.00125599 -6.70058e-05 -2.91454e-06)
(0.00120718 -0.000114694 0.000102675)
(0.00102865 -0.0001553 0.000163612)
(0.000804732 -0.000187736 0.000193427)
(0.000564623 -0.000207273 0.000196393)
(0.000337802 -0.000218735 0.000191487)
(0.000121933 -0.000223071 0.000187512)
(-8.90847e-05 -0.000221567 0.000187405)
(-0.000305516 -0.000214254 0.00019114)
(-0.000533472 -0.000200081 0.000195802)
(-0.000775433 -0.000178193 0.000192726)
(-0.00100244 -0.000144427 0.00016326)
(-0.00118522 -0.00010358 0.000103114)
(-0.00124114 -5.79105e-05 -7.43733e-07)
(-0.0011559 -4.20544e-05 -6.16011e-05)
(-0.000995279 -6.45652e-05 -8.4258e-05)
(-0.00079449 -6.73701e-05 -8.96126e-05)
(-0.000604184 -6.66723e-05 -8.41954e-05)
(-0.000430327 -6.09224e-05 -7.54158e-05)
(-0.000278402 -5.50964e-05 -6.67428e-05)
(-0.000147612 -5.0847e-05 -5.75509e-05)
(-2.89439e-05 -4.85355e-05 -3.51373e-05)
(1.85214e-05 -4.52493e-05 1.69268e-05)
(-1.35171e-05 -3.57078e-05 1.11058e-05)
(8.34586e-06 -3.8829e-05 -1.79035e-05)