/*--------------------------------*- C++ -*----------------------------------*\
| =========                 |                                                 |
| \\      /  F ield         | OpenFOAM: The Open Source CFD Toolbox           |
|  \\    /   O peration     | Version:  2112                                  |
|   \\  /    A nd           | Website:  www.openfoam.com                      |
|    \\/     M anipulation  |                                                 |
\*---------------------------------------------------------------------------*/
FoamFile
{
    version     2.0;
    format      ascii;
    arch        "LSB;label=32;scalar=64";
    class       volScalarField;
    location    "0.2";
    object      epsilon;
}
// * * * * * * * * * * * * * * * * * * * * * * * * * * * * * * * * * * * * * //

dimensions      [0 2 -3 0 0 0 0];

internalField   nonuniform List<scalar> 
64906
(
0.376107
0.374907
0.37464
0.374613
0.374612
0.374612
0.374613
0.374614
0.374614
0.374615
0.374616
0.374617
0.374617
0.374618
0.374618
0.374618
0.374618
0.374618
0.374618
0.374618
0.374618
0.374618
0.374618
0.374617
0.374617
0.374616
0.374615
0.374614
0.374614
0.374613
0.374614
0.374641
0.374908
0.376108
0.374907
0.372032
0.370271
0.370057
0.370042
0.370042
0.370042
0.370043
0.370044
0.370045
0.370047
0.370048
0.370049
0.37005
0.37005
0.370051
0.370051
0.370052
0.370052
0.370051
0.370051
0.37005
0.37005
0.370049
0.370048
0.370047
0.370045
0.370044
0.370044
0.370044
0.370059
0.370273
0.372033
0.374909
0.374641
0.370272
0.368176
0.367928
0.367911
0.367911
0.367911
0.367913
0.367914
0.367915
0.367917
0.367919
0.36792
0.367922
0.367923
0.367924
0.367925
0.367925
0.367925
0.367925
0.367924
0.367923
0.367922
0.367921
0.367919
0.367917
0.367916
0.367914
0.367913
0.367913
0.36793
0.368178
0.370274
0.374644
0.374615
0.370058
0.367929
0.367677
0.36766
0.36766
0.367661
0.367663
0.367665
0.367667
0.367669
0.367672
0.367674
0.367677
0.367678
0.36768
0.367681
0.367682
0.367682
0.367681
0.36768
0.367679
0.367677
0.367675
0.367672
0.367669
0.367667
0.367665
0.367663
0.367663
0.36768
0.367931
0.370061
0.374618
0.374614
0.370044
0.367912
0.36766
0.367643
0.367644
0.367646
0.367648
0.36765
0.367653
0.367657
0.367661
0.367665
0.367668
0.367671
0.367673
0.367675
0.367675
0.367675
0.367675
0.367673
0.367671
0.367668
0.367665
0.367661
0.367657
0.367654
0.367651
0.367648
0.367647
0.367664
0.367915
0.370047
0.374617
0.374615
0.370044
0.367912
0.367661
0.367644
0.367645
0.367648
0.36765
0.367654
0.367658
0.367664
0.36767
0.367675
0.36768
0.367684
0.367688
0.36769
0.367691
0.367691
0.36769
0.367688
0.367685
0.367681
0.367676
0.36767
0.367664
0.367659
0.367654
0.367651
0.367649
0.367666
0.367916
0.370048
0.374619
0.374616
0.370045
0.367914
0.367663
0.367646
0.367648
0.367651
0.367655
0.36766
0.367668
0.367686
0.367687
0.367692
0.367698
0.367704
0.367708
0.367711
0.367713
0.367713
0.367711
0.367708
0.367704
0.367698
0.367692
0.367687
0.367686
0.367669
0.36766
0.367655
0.367653
0.367668
0.367919
0.37005
0.374621
0.374617
0.370046
0.367915
0.367665
0.367649
0.367651
0.367655
0.36766
0.367673
0.367726
0.367881
0.367757
0.36772
0.367723
0.36773
0.367736
0.36774
0.367743
0.367743
0.367741
0.367736
0.367731
0.367723
0.367721
0.367757
0.367881
0.367727
0.367673
0.367661
0.367657
0.367671
0.367921
0.370052
0.374623
0.374618
0.370047
0.367916
0.367667
0.367651
0.367655
0.36766
0.367672
0.367753
0.368258
0.369453
0.368312
0.367828
0.367766
0.36777
0.367777
0.367782
0.367785
0.367785
0.367782
0.367777
0.36777
0.367767
0.367828
0.368312
0.369452
0.368259
0.367753
0.367673
0.367662
0.367675
0.367924
0.370054
0.374625
0.374619
0.370049
0.367918
0.367668
0.367654
0.367658
0.367668
0.367725
0.368258
0.371109
0.372211
0.371205
0.368389
0.367879
0.367841
0.367846
0.367852
0.367855
0.367855
0.367852
0.367846
0.367841
0.36788
0.36839
0.371205
0.37221
0.37111
0.368258
0.367726
0.36767
0.367679
0.367926
0.370056
0.374626
0.374619
0.370049
0.367919
0.36767
0.367657
0.367663
0.367684
0.367878
0.369448
0.372203
0.372132
0.369468
0.367956
0.367788
0.367784
0.367789
0.367792
0.367792
0.36779
0.367784
0.367788
0.367956
0.369468
0.372132
0.372204
0.369449
0.367879
0.367686
0.367683
0.367929
0.370058
0.374627
0.37462
0.37005
0.36792
0.367672
0.36766
0.367667
0.367681
0.367747
0.368294
0.371182
0.372228
0.37118
0.368379
0.367867
0.367826
0.367827
0.36783
0.367832
0.367832
0.36783
0.367827
0.367826
0.367867
0.368379
0.371179
0.372227
0.371182
0.368294
0.367747
0.367682
0.367686
0.367931
0.370059
0.374628
0.37462
0.37005
0.367921
0.367674
0.367662
0.36767
0.367682
0.367705
0.367797
0.368324
0.369506
0.368339
0.367849
0.367775
0.367768
0.367765
0.367763
0.367762
0.367762
0.367763
0.367765
0.367767
0.367775
0.367848
0.368337
0.369505
0.368323
0.367797
0.367704
0.367683
0.367689
0.367932
0.37006
0.374628
0.374619
0.370051
0.367922
0.367675
0.367664
0.367673
0.367685
0.367702
0.367727
0.367796
0.367952
0.367815
0.36777
0.367757
0.367748
0.367737
0.367729
0.367725
0.367725
0.367729
0.367737
0.367747
0.367756
0.367769
0.367814
0.367951
0.367795
0.367726
0.367701
0.367685
0.367691
0.367934
0.37006
0.374627
0.374619
0.370051
0.367922
0.367676
0.367666
0.367675
0.367688
0.367704
0.367724
0.367748
0.367773
0.367772
0.367767
0.367756
0.367741
0.367724
0.367709
0.367701
0.3677
0.367709
0.367723
0.367739
0.367754
0.367765
0.36777
0.367771
0.367747
0.367722
0.367703
0.367687
0.367692
0.367934
0.37006
0.374627
0.374618
0.37005
0.367922
0.367677
0.367667
0.367676
0.36769
0.367707
0.367726
0.367748
0.367764
0.367774
0.36777
0.367757
0.367738
0.367716
0.367695
0.367682
0.367681
0.367694
0.367714
0.367736
0.367755
0.367768
0.367773
0.367763
0.367746
0.367724
0.367705
0.367689
0.367693
0.367935
0.37006
0.374626
0.374618
0.37005
0.367923
0.367677
0.367667
0.367678
0.367691
0.367708
0.367728
0.36775
0.367767
0.367778
0.367772
0.367758
0.367736
0.367711
0.367686
0.367667
0.367667
0.367685
0.367709
0.367735
0.367756
0.367771
0.367776
0.367765
0.367748
0.367726
0.367706
0.36769
0.367694
0.367935
0.37006
0.374625
0.374617
0.37005
0.367923
0.367677
0.367668
0.367678
0.367692
0.367709
0.367729
0.367751
0.367768
0.36778
0.367774
0.367758
0.367736
0.367709
0.36768
0.367657
0.367656
0.367679
0.367707
0.367734
0.367756
0.367772
0.367778
0.367767
0.367749
0.367727
0.367707
0.36769
0.367694
0.367935
0.37006
0.374624
0.374617
0.37005
0.367923
0.367677
0.367668
0.367678
0.367692
0.367709
0.367729
0.367751
0.367769
0.367781
0.367774
0.367758
0.367736
0.367708
0.367679
0.367654
0.367653
0.367677
0.367706
0.367734
0.367756
0.367772
0.367779
0.367767
0.36775
0.367728
0.367707
0.367691
0.367694
0.367935
0.370059
0.374623
0.374617
0.37005
0.367922
0.367677
0.367668
0.367678
0.367692
0.367709
0.367729
0.367751
0.367768
0.36778
0.367773
0.367758
0.367736
0.367709
0.367681
0.367659
0.367658
0.36768
0.367707
0.367734
0.367756
0.367771
0.367778
0.367766
0.367749
0.367727
0.367707
0.36769
0.367694
0.367935
0.370059
0.374624
0.374617
0.37005
0.367922
0.367677
0.367667
0.367677
0.367691
0.367708
0.367728
0.36775
0.367767
0.367777
0.367771
0.367757
0.367736
0.367712
0.367688
0.367671
0.36767
0.367686
0.36771
0.367734
0.367755
0.367769
0.367775
0.367765
0.367748
0.367726
0.367706
0.367689
0.367693
0.367935
0.370059
0.374624
0.374618
0.37005
0.367922
0.367676
0.367666
0.367676
0.367689
0.367706
0.367726
0.367751
0.367777
0.367776
0.367768
0.367755
0.367738
0.367718
0.367699
0.367687
0.367687
0.367698
0.367715
0.367736
0.367753
0.367767
0.367774
0.367775
0.36775
0.367724
0.367704
0.367688
0.367693
0.367934
0.370059
0.374625
0.374618
0.37005
0.367921
0.367675
0.367665
0.367674
0.367687
0.367704
0.36773
0.3678
0.367957
0.36782
0.367772
0.367756
0.367743
0.367728
0.367717
0.367709
0.367709
0.367715
0.367726
0.36774
0.367754
0.36777
0.367818
0.367956
0.367799
0.367729
0.367703
0.367686
0.367691
0.367933
0.370059
0.374626
0.374618
0.37005
0.367921
0.367674
0.367663
0.367671
0.367684
0.367707
0.3678
0.368328
0.369513
0.368344
0.367849
0.367772
0.36776
0.367752
0.367747
0.367743
0.367743
0.367745
0.36775
0.367757
0.367769
0.367847
0.368342
0.369512
0.368327
0.367799
0.367706
0.367684
0.367689
0.367932
0.370059
0.374626
0.374618
0.370049
0.36792
0.367672
0.367661
0.367668
0.367683
0.367749
0.368297
0.371185
0.372237
0.371183
0.368376
0.367859
0.367814
0.36781
0.36781
0.367809
0.367809
0.367808
0.367808
0.367811
0.367856
0.368374
0.371182
0.372237
0.371184
0.368296
0.367748
0.367683
0.367687
0.367931
0.370058
0.374626
0.374618
0.370049
0.367919
0.367671
0.367658
0.367664
0.367685
0.367879
0.369447
0.372201
0.372124
0.36946
0.367944
0.367772
0.367763
0.367765
0.367766
0.367766
0.367764
0.367761
0.367769
0.367941
0.369456
0.372122
0.372201
0.369447
0.367879
0.367686
0.367683
0.367928
0.370057
0.374626
0.374618
0.370048
0.367918
0.367669
0.367655
0.36766
0.36767
0.367728
0.368261
0.371115
0.372223
0.371211
0.368387
0.367867
0.367822
0.36782
0.367822
0.367823
0.367822
0.36782
0.367817
0.367817
0.367862
0.368381
0.371208
0.372223
0.371116
0.368262
0.367729
0.367671
0.367679
0.367926
0.370055
0.374625
0.374617
0.370047
0.367916
0.367667
0.367653
0.367657
0.367663
0.367677
0.367759
0.368267
0.369466
0.368319
0.367828
0.367755
0.36775
0.36775
0.36775
0.367751
0.36775
0.367748
0.367746
0.367745
0.367749
0.36782
0.368316
0.369466
0.368268
0.36776
0.367677
0.367664
0.367676
0.367924
0.370054
0.374624
0.374616
0.370046
0.367915
0.367665
0.36765
0.367654
0.367659
0.367665
0.36768
0.367736
0.367893
0.367765
0.367722
0.367709
0.367706
0.367705
0.367704
0.367704
0.367704
0.367703
0.367702
0.367702
0.367702
0.367709
0.367762
0.367893
0.367737
0.367681
0.367667
0.367661
0.367674
0.367922
0.370052
0.374622
0.374616
0.370046
0.367915
0.367665
0.367649
0.367652
0.367656
0.367662
0.367669
0.36768
0.3677
0.367699
0.367701
0.367696
0.367697
0.367697
0.367698
0.367698
0.367698
0.367697
0.367696
0.367695
0.367693
0.367692
0.367698
0.3677
0.367682
0.367671
0.367663
0.367658
0.367672
0.367921
0.370051
0.374621
0.374617
0.37006
0.367932
0.367682
0.367666
0.367668
0.367672
0.367676
0.367682
0.367688
0.367697
0.367703
0.367709
0.36771
0.367712
0.367713
0.367714
0.367715
0.367715
0.367714
0.367713
0.367711
0.367709
0.367707
0.367705
0.367698
0.367691
0.367684
0.367678
0.367674
0.367688
0.367937
0.370065
0.374621
0.374643
0.370274
0.36818
0.367932
0.367917
0.367918
0.367921
0.367925
0.36793
0.367935
0.367941
0.367947
0.367951
0.367954
0.367955
0.367957
0.367957
0.367958
0.367958
0.367957
0.367956
0.367955
0.367953
0.367951
0.367948
0.367943
0.367937
0.367932
0.367927
0.367923
0.367938
0.368184
0.370278
0.374647
0.374909
0.372034
0.370275
0.370062
0.370048
0.37005
0.370053
0.370056
0.37006
0.370065
0.37007
0.370074
0.370078
0.37008
0.370081
0.370082
0.370082
0.370082
0.370082
0.370081
0.370081
0.370081
0.37008
0.370078
0.370076
0.370071
0.370067
0.370062
0.370058
0.370055
0.370067
0.370279
0.372038
0.374913
0.376109
0.37491
0.374644
0.374618
0.374619
0.374621
0.374624
0.374627
0.374631
0.374635
0.374639
0.374642
0.374644
0.374645
0.374645
0.374644
0.374642
0.374641
0.37464
0.374641
0.374642
0.374643
0.374644
0.374644
0.374643
0.37464
0.374636
0.374632
0.374628
0.374625
0.374624
0.374648
0.374913
0.376112
0.420956
0.417235
0.415932
0.415771
0.415759
0.415758
0.415759
0.415759
0.41576
0.41576
0.415761
0.415761
0.415762
0.415762
0.415762
0.415762
0.415762
0.415762
0.415762
0.415762
0.415762
0.415762
0.415762
0.415761
0.415761
0.415761
0.41576
0.41576
0.415759
0.41576
0.415772
0.415933
0.417236
0.420957
0.417235
0.295964
0.286785
0.285992
0.285937
0.285934
0.285934
0.285935
0.285935
0.285936
0.285936
0.285937
0.285938
0.285939
0.285939
0.28594
0.28594
0.28594
0.28594
0.28594
0.28594
0.285939
0.285939
0.285938
0.285937
0.285937
0.285936
0.285935
0.285935
0.285938
0.285993
0.286786
0.295965
0.417237
0.415933
0.286784
0.276363
0.275452
0.275389
0.275385
0.275385
0.275385
0.275386
0.275386
0.275386
0.275386
0.275387
0.275387
0.275387
0.275387
0.275387
0.275387
0.275387
0.275387
0.275387
0.275387
0.275387
0.275387
0.275386
0.275386
0.275386
0.275386
0.275386
0.275389
0.275453
0.276363
0.286785
0.415934
0.415772
0.285991
0.275452
0.274531
0.274467
0.274463
0.274463
0.274463
0.274463
0.274463
0.274463
0.274463
0.274464
0.274464
0.274464
0.274464
0.274464
0.274464
0.274464
0.274464
0.274464
0.274464
0.274464
0.274464
0.274463
0.274463
0.274463
0.274463
0.274463
0.274467
0.274531
0.275452
0.285992
0.415774
0.415761
0.285936
0.275389
0.274467
0.274402
0.274399
0.274399
0.274399
0.274399
0.274399
0.274399
0.274399
0.2744
0.2744
0.2744
0.2744
0.2744
0.2744
0.2744
0.2744
0.2744
0.2744
0.2744
0.2744
0.274399
0.274399
0.274399
0.274399
0.274399
0.274403
0.274467
0.275389
0.285937
0.415763
0.415761
0.285933
0.275385
0.274463
0.274399
0.274395
0.274395
0.274395
0.274396
0.274396
0.274399
0.274397
0.274397
0.274397
0.274397
0.274397
0.274397
0.274397
0.274397
0.274397
0.274397
0.274397
0.274397
0.274397
0.274397
0.274399
0.274396
0.274396
0.274396
0.274399
0.274463
0.275386
0.285934
0.415764
0.415762
0.285934
0.275385
0.274463
0.274399
0.274395
0.274395
0.274396
0.274397
0.274409
0.274444
0.27441
0.274399
0.274398
0.274398
0.274398
0.274398
0.274398
0.274398
0.274398
0.274398
0.274398
0.274398
0.274399
0.27441
0.274444
0.274409
0.274397
0.274396
0.274399
0.274463
0.275386
0.285935
0.415765
0.415762
0.285934
0.275386
0.274463
0.274399
0.274395
0.274396
0.274398
0.274421
0.274583
0.275128
0.274589
0.27443
0.274408
0.274406
0.274406
0.274406
0.274406
0.274406
0.274406
0.274406
0.274406
0.274408
0.27443
0.274589
0.275128
0.274583
0.274421
0.274398
0.274399
0.274463
0.275386
0.285936
0.415767
0.415763
0.285935
0.275386
0.274463
0.274399
0.274396
0.274397
0.274421
0.274676
0.276535
0.283634
0.27657
0.274735
0.274486
0.274465
0.274462
0.274462
0.274462
0.274462
0.274462
0.274462
0.274465
0.274486
0.274735
0.27657
0.283634
0.276534
0.274676
0.274421
0.274401
0.274464
0.275386
0.285937
0.415768
0.415763
0.285936
0.275386
0.274463
0.274399
0.274397
0.274409
0.274583
0.276534
0.29255
0.408006
0.292656
0.276832
0.274922
0.274758
0.274742
0.27474
0.27474
0.27474
0.27474
0.274742
0.274758
0.274922
0.276832
0.292655
0.408005
0.29255
0.276534
0.274584
0.274413
0.274465
0.275387
0.285938
0.415769
0.415764
0.285937
0.275386
0.274464
0.2744
0.274399
0.274445
0.275128
0.283629
0.407989
0.406907
0.284048
0.275763
0.275105
0.275061
0.275059
0.275059
0.275059
0.275059
0.275061
0.275105
0.275763
0.284047
0.406907
0.40799
0.283628
0.275128
0.274448
0.274467
0.275387
0.28594
0.41577
0.415764
0.285937
0.275386
0.274464
0.2744
0.274397
0.27441
0.274586
0.276546
0.292636
0.408037
0.292781
0.27688
0.274957
0.274799
0.274783
0.274782
0.274783
0.274783
0.274782
0.274783
0.274799
0.274957
0.27688
0.292781
0.408037
0.292637
0.276546
0.274586
0.274413
0.274465
0.275388
0.285942
0.41577
0.415764
0.285938
0.275387
0.274464
0.2744
0.274397
0.274399
0.274424
0.274681
0.276555
0.283673
0.276604
0.274772
0.274529
0.274514
0.274515
0.274516
0.274517
0.274517
0.274516
0.274515
0.274514
0.274529
0.274772
0.276604
0.283674
0.276556
0.274681
0.274424
0.274403
0.274465
0.275388
0.285943
0.41577
0.415763
0.285939
0.275387
0.274464
0.2744
0.274397
0.274397
0.274401
0.274425
0.27459
0.275139
0.274601
0.274463
0.27445
0.274455
0.274458
0.27446
0.27446
0.27446
0.27446
0.274458
0.274455
0.27445
0.274463
0.274601
0.275139
0.27459
0.274425
0.274401
0.274401
0.274465
0.275389
0.285944
0.415769
0.415763
0.285939
0.275387
0.274464
0.2744
0.274397
0.274397
0.274398
0.274401
0.274414
0.274451
0.27442
0.274431
0.27444
0.274446
0.274449
0.27445
0.27445
0.27445
0.27445
0.274449
0.274446
0.27444
0.274431
0.27442
0.274451
0.274414
0.274401
0.274398
0.274401
0.274465
0.275389
0.285945
0.415768
0.415762
0.28594
0.275387
0.274464
0.2744
0.274397
0.274397
0.274398
0.2744
0.274402
0.274405
0.274407
0.274428
0.274438
0.274444
0.274446
0.274447
0.274447
0.274447
0.274447
0.274446
0.274444
0.274438
0.274428
0.274407
0.274405
0.274402
0.274399
0.274398
0.274401
0.274465
0.275389
0.285946
0.415768
0.415762
0.28594
0.275387
0.274464
0.2744
0.274397
0.274397
0.274398
0.2744
0.274401
0.274403
0.274407
0.274428
0.274438
0.274443
0.274445
0.274445
0.274445
0.274445
0.274445
0.274445
0.274443
0.274437
0.274428
0.274406
0.274403
0.274401
0.274399
0.274398
0.274401
0.274465
0.275389
0.285946
0.415767
0.415762
0.28594
0.275387
0.274464
0.2744
0.274397
0.274397
0.274398
0.2744
0.274401
0.274403
0.274407
0.274427
0.274437
0.274443
0.274445
0.274445
0.274444
0.274444
0.274444
0.274445
0.274443
0.274437
0.274427
0.274406
0.274403
0.274401
0.274399
0.274398
0.274401
0.274465
0.275389
0.285947
0.415766
0.415761
0.28594
0.275387
0.274464
0.2744
0.274397
0.274397
0.274398
0.2744
0.274401
0.274403
0.274407
0.274427
0.274437
0.274443
0.274445
0.274444
0.274443
0.274443
0.274444
0.274444
0.274443
0.274437
0.274427
0.274406
0.274403
0.274401
0.274399
0.274398
0.274401
0.274465
0.275389
0.285947
0.415766
0.415761
0.28594
0.275387
0.274464
0.2744
0.274397
0.274397
0.274398
0.2744
0.274401
0.274403
0.274407
0.274428
0.274437
0.274443
0.274445
0.274445
0.274444
0.274444
0.274445
0.274445
0.274443
0.274437
0.274427
0.274406
0.274403
0.274401
0.274399
0.274398
0.274401
0.274465
0.275389
0.285946
0.415766
0.415762
0.28594
0.275387
0.274464
0.2744
0.274397
0.274397
0.274398
0.2744
0.274402
0.274406
0.274407
0.274428
0.274438
0.274444
0.274446
0.274446
0.274446
0.274446
0.274446
0.274446
0.274444
0.274438
0.274428
0.274407
0.274405
0.274402
0.274399
0.274398
0.274401
0.274465
0.275389
0.285946
0.415766
0.415762
0.28594
0.275387
0.274464
0.2744
0.274397
0.274397
0.274398
0.274401
0.274414
0.274451
0.27442
0.274431
0.274439
0.274445
0.274448
0.274449
0.274449
0.274449
0.274449
0.274448
0.274445
0.274439
0.274431
0.27442
0.274451
0.274414
0.274401
0.274398
0.274401
0.274465
0.275389
0.285946
0.415767
0.415762
0.285939
0.275387
0.274464
0.2744
0.274397
0.274397
0.274401
0.274425
0.27459
0.275139
0.274601
0.274462
0.274449
0.274454
0.274456
0.274458
0.274458
0.274458
0.274458
0.274456
0.274453
0.274449
0.274461
0.2746
0.275138
0.27459
0.274425
0.274401
0.274401
0.274465
0.275389
0.285945
0.415768
0.415763
0.285939
0.275387
0.274464
0.2744
0.274397
0.274399
0.274424
0.274681
0.276554
0.283667
0.276602
0.274771
0.274527
0.274512
0.274512
0.274513
0.274514
0.274514
0.274513
0.274512
0.274512
0.274527
0.274771
0.276601
0.283666
0.276553
0.27468
0.274423
0.274402
0.274465
0.275388
0.285944
0.415768
0.415763
0.285938
0.275387
0.274464
0.2744
0.274397
0.27441
0.274585
0.276545
0.292629
0.408042
0.292777
0.27688
0.274955
0.274797
0.27478
0.274779
0.27478
0.27478
0.274779
0.27478
0.274797
0.274955
0.276879
0.292774
0.408042
0.292628
0.276545
0.274585
0.274413
0.274465
0.275388
0.285942
0.415768
0.415763
0.285937
0.275386
0.274463
0.274399
0.274399
0.274444
0.275128
0.283629
0.407986
0.406902
0.284059
0.275765
0.275104
0.27506
0.275058
0.275058
0.275058
0.275058
0.27506
0.275104
0.275764
0.284058
0.406901
0.407986
0.283628
0.275128
0.274448
0.274467
0.275388
0.285941
0.415768
0.415762
0.285936
0.275386
0.274463
0.274399
0.274397
0.274409
0.274583
0.276534
0.29255
0.408014
0.292675
0.276837
0.274922
0.274757
0.27474
0.274738
0.274738
0.274738
0.274738
0.27474
0.274756
0.274922
0.276837
0.292676
0.408015
0.292549
0.276534
0.274583
0.274412
0.274465
0.275387
0.28594
0.415767
0.415762
0.285936
0.275386
0.274463
0.274399
0.274396
0.274397
0.274421
0.274676
0.276534
0.283634
0.276573
0.274736
0.274487
0.274466
0.274463
0.274462
0.274462
0.274462
0.274462
0.274462
0.274465
0.274487
0.274737
0.276573
0.283634
0.276535
0.274676
0.274422
0.274401
0.274464
0.275387
0.285939
0.415766
0.415761
0.285935
0.275386
0.274463
0.274399
0.274396
0.274396
0.274398
0.274422
0.274584
0.275129
0.27459
0.274432
0.274416
0.274415
0.274415
0.274416
0.274416
0.274416
0.274416
0.274416
0.274416
0.274417
0.274438
0.274591
0.275129
0.274584
0.274422
0.274398
0.2744
0.274464
0.275387
0.285938
0.415765
0.415761
0.285938
0.275389
0.274467
0.274403
0.274399
0.274399
0.2744
0.274401
0.274413
0.274449
0.274415
0.274405
0.27441
0.274413
0.274414
0.274414
0.274414
0.274414
0.274414
0.274414
0.274414
0.274413
0.274412
0.274416
0.274449
0.274413
0.274402
0.2744
0.274403
0.274467
0.27539
0.28594
0.415765
0.415773
0.285993
0.275453
0.274531
0.274467
0.274463
0.274463
0.274464
0.274464
0.274465
0.274467
0.274466
0.274466
0.274468
0.274468
0.274468
0.274469
0.274469
0.274469
0.274469
0.274468
0.274468
0.274468
0.274467
0.274466
0.274468
0.274465
0.274464
0.274464
0.274467
0.274531
0.275453
0.285995
0.415776
0.415934
0.286786
0.276363
0.275453
0.275389
0.275386
0.275386
0.275386
0.275387
0.275388
0.275388
0.275389
0.275391
0.275392
0.275393
0.275394
0.275394
0.275394
0.275394
0.275394
0.275394
0.275393
0.275393
0.275392
0.27539
0.275389
0.275388
0.275387
0.275387
0.27539
0.275453
0.276364
0.286788
0.415937
0.417237
0.295966
0.286786
0.285993
0.285938
0.285935
0.285936
0.285937
0.285939
0.285941
0.285944
0.285947
0.285951
0.285955
0.285959
0.285962
0.285963
0.285964
0.285964
0.285964
0.285962
0.28596
0.285958
0.285954
0.285949
0.285946
0.285942
0.28594
0.285938
0.28594
0.285995
0.286788
0.295968
0.417239
0.420958
0.417237
0.415935
0.415775
0.415764
0.415764
0.415766
0.415769
0.415771
0.415774
0.415777
0.415779
0.415781
0.415781
0.415781
0.41578
0.415779
0.415778
0.415777
0.415778
0.415778
0.415779
0.41578
0.41578
0.415779
0.415777
0.415775
0.415772
0.415769
0.415768
0.415778
0.415937
0.417239
0.42096
0.436496
0.43202
0.430422
0.43022
0.430204
0.430203
0.430204
0.430204
0.430205
0.430205
0.430206
0.430206
0.430207
0.430207
0.430208
0.430208
0.430208
0.430208
0.430208
0.430208
0.430208
0.430208
0.430207
0.430207
0.430207
0.430206
0.430205
0.430205
0.430204
0.430205
0.430221
0.430423
0.432021
0.436497
0.432021
0.294088
0.283045
0.282069
0.281999
0.281995
0.281996
0.281996
0.281997
0.281997
0.281998
0.281999
0.282
0.282
0.282001
0.282001
0.282002
0.282002
0.282002
0.282002
0.282002
0.282001
0.282
0.282
0.281999
0.281998
0.281998
0.281997
0.281997
0.282
0.28207
0.283046
0.29409
0.432022
0.430423
0.283044
0.270483
0.269362
0.269283
0.269279
0.269278
0.269278
0.269279
0.269279
0.269279
0.269279
0.269279
0.269279
0.26928
0.26928
0.26928
0.26928
0.26928
0.26928
0.26928
0.26928
0.269279
0.269279
0.269279
0.269279
0.269279
0.269279
0.269279
0.269283
0.269363
0.270484
0.283045
0.430424
0.430221
0.282067
0.269362
0.268228
0.268148
0.268143
0.268143
0.268143
0.268143
0.268143
0.268143
0.268143
0.268143
0.268143
0.268143
0.268143
0.268143
0.268143
0.268143
0.268143
0.268143
0.268143
0.268143
0.268143
0.268143
0.268143
0.268143
0.268143
0.268143
0.268148
0.268228
0.269362
0.282068
0.430223
0.430205
0.281998
0.269283
0.268148
0.268068
0.268063
0.268063
0.268063
0.268063
0.268063
0.268063
0.268063
0.268063
0.268063
0.268063
0.268063
0.268063
0.268063
0.268063
0.268063
0.268063
0.268063
0.268063
0.268063
0.268063
0.268063
0.268063
0.268063
0.268063
0.268068
0.268148
0.269283
0.281999
0.430208
0.430205
0.281994
0.269278
0.268143
0.268063
0.268058
0.268058
0.268058
0.268058
0.268059
0.268061
0.268059
0.268058
0.268058
0.268058
0.268058
0.268058
0.268058
0.268058
0.268058
0.268058
0.268058
0.268058
0.268058
0.268059
0.268061
0.268059
0.268058
0.268058
0.268063
0.268143
0.269278
0.281995
0.430208
0.430206
0.281995
0.269278
0.268143
0.268063
0.268058
0.268058
0.268058
0.26806
0.268074
0.268118
0.268077
0.268064
0.268062
0.268062
0.268062
0.268062
0.268062
0.268062
0.268062
0.268062
0.268062
0.268062
0.268064
0.268077
0.268118
0.268074
0.26806
0.268058
0.268063
0.268143
0.269278
0.281996
0.43021
0.430207
0.281995
0.269278
0.268143
0.268063
0.268058
0.268058
0.268061
0.26809
0.268291
0.26896
0.268321
0.268135
0.26811
0.268109
0.268107
0.268107
0.268107
0.268107
0.268107
0.268107
0.268109
0.26811
0.268135
0.268321
0.26896
0.268291
0.26809
0.268061
0.268063
0.268143
0.269279
0.281997
0.430211
0.430208
0.281996
0.269278
0.268143
0.268063
0.268058
0.26806
0.26809
0.268405
0.270682
0.279206
0.270915
0.268835
0.268561
0.268549
0.268534
0.26853
0.26853
0.26853
0.26853
0.268534
0.268549
0.268561
0.268836
0.270916
0.279206
0.270682
0.268405
0.26809
0.268065
0.268143
0.269279
0.281998
0.430212
0.430208
0.281997
0.269279
0.268143
0.268063
0.268059
0.268074
0.26829
0.270679
0.289902
0.420985
0.290468
0.27315
0.27112
0.270989
0.270933
0.270918
0.270917
0.270917
0.270918
0.270933
0.270989
0.27112
0.27315
0.290467
0.420985
0.289901
0.270678
0.268291
0.268079
0.268144
0.269279
0.282
0.430213
0.430208
0.281998
0.269279
0.268143
0.268063
0.268061
0.268118
0.268954
0.279162
0.420848
0.40866
0.284311
0.275973
0.275325
0.275267
0.275261
0.275261
0.275261
0.275261
0.275267
0.275325
0.275973
0.284311
0.40866
0.420849
0.279161
0.268954
0.268123
0.268147
0.26928
0.282001
0.430214
0.430209
0.281999
0.269279
0.268143
0.268063
0.268059
0.268074
0.268291
0.27069
0.289995
0.421021
0.290628
0.27325
0.271203
0.271128
0.27101
0.270985
0.270983
0.270983
0.270985
0.27101
0.271128
0.271203
0.27325
0.290628
0.421021
0.289997
0.27069
0.268292
0.268079
0.268144
0.26928
0.282003
0.430215
0.430209
0.282
0.269279
0.268143
0.268063
0.268058
0.26806
0.26809
0.268408
0.270702
0.279245
0.270972
0.268994
0.268729
0.268728
0.268706
0.268701
0.268701
0.268701
0.268701
0.268706
0.268728
0.268729
0.268994
0.270972
0.279246
0.270702
0.268408
0.268091
0.268065
0.268144
0.269281
0.282005
0.430215
0.430208
0.282001
0.26928
0.268143
0.268063
0.268058
0.268058
0.268061
0.268091
0.268294
0.268968
0.268348
0.268292
0.268282
0.268285
0.268283
0.268283
0.268283
0.268283
0.268283
0.268283
0.268285
0.268282
0.268292
0.268348
0.268968
0.268294
0.268091
0.268061
0.268063
0.268144
0.269281
0.282006
0.430214
0.430208
0.282001
0.26928
0.268143
0.268063
0.268058
0.268058
0.268058
0.26806
0.268075
0.268121
0.2681
0.268219
0.268233
0.268236
0.268236
0.268237
0.268237
0.268237
0.268237
0.268236
0.268236
0.268233
0.268219
0.2681
0.268121
0.268075
0.26806
0.268058
0.268063
0.268144
0.269281
0.282007
0.430214
0.430208
0.282002
0.26928
0.268143
0.268063
0.268058
0.268058
0.268058
0.268058
0.268059
0.268064
0.268082
0.268213
0.268229
0.268231
0.268232
0.268233
0.268233
0.268233
0.268233
0.268232
0.268231
0.268229
0.268213
0.268082
0.268064
0.268059
0.268058
0.268058
0.268063
0.268144
0.269281
0.282008
0.430213
0.430207
0.282002
0.26928
0.268143
0.268063
0.268058
0.268058
0.268058
0.268058
0.268058
0.26806
0.268081
0.268212
0.268228
0.268231
0.268232
0.268232
0.268232
0.268232
0.268232
0.268232
0.268231
0.268228
0.268212
0.268081
0.26806
0.268058
0.268058
0.268058
0.268063
0.268144
0.269281
0.282009
0.430213
0.430207
0.282002
0.26928
0.268143
0.268063
0.268058
0.268058
0.268058
0.268058
0.268058
0.26806
0.268081
0.268212
0.268228
0.268231
0.268232
0.268232
0.268232
0.268232
0.268232
0.268232
0.268231
0.268228
0.268212
0.268081
0.26806
0.268058
0.268058
0.268058
0.268063
0.268144
0.269282
0.282009
0.430212
0.430207
0.282002
0.26928
0.268143
0.268063
0.268058
0.268058
0.268058
0.268058
0.268058
0.26806
0.268081
0.268212
0.268228
0.268231
0.268232
0.268232
0.268232
0.268232
0.268232
0.268232
0.268231
0.268228
0.268212
0.268081
0.26806
0.268058
0.268058
0.268058
0.268063
0.268144
0.269282
0.282009
0.430212
0.430207
0.282002
0.26928
0.268143
0.268063
0.268058
0.268058
0.268058
0.268058
0.268058
0.26806
0.268081
0.268212
0.268228
0.268231
0.268232
0.268232
0.268232
0.268232
0.268232
0.268232
0.268231
0.268228
0.268212
0.268081
0.26806
0.268058
0.268058
0.268058
0.268063
0.268144
0.269282
0.282009
0.430212
0.430207
0.282002
0.26928
0.268143
0.268063
0.268058
0.268058
0.268058
0.268058
0.268059
0.268064
0.268082
0.268213
0.268229
0.268231
0.268232
0.268232
0.268233
0.268233
0.268232
0.268232
0.268231
0.268229
0.268213
0.268082
0.268064
0.268059
0.268058
0.268058
0.268063
0.268144
0.269281
0.282009
0.430213
0.430207
0.282002
0.26928
0.268143
0.268063
0.268058
0.268058
0.268058
0.26806
0.268075
0.268121
0.2681
0.268219
0.268233
0.268235
0.268236
0.268236
0.268237
0.268237
0.268236
0.268236
0.268235
0.268233
0.268219
0.2681
0.268121
0.268075
0.26806
0.268058
0.268063
0.268144
0.269281
0.282008
0.430213
0.430208
0.282001
0.26928
0.268143
0.268063
0.268058
0.268058
0.268061
0.26809
0.268293
0.268967
0.268348
0.268292
0.268282
0.268284
0.268283
0.268282
0.268283
0.268282
0.268282
0.268282
0.268284
0.268281
0.268292
0.268348
0.268967
0.268293
0.26809
0.268061
0.268063
0.268144
0.269281
0.282007
0.430213
0.430208
0.282
0.269279
0.268143
0.268063
0.268058
0.26806
0.26809
0.268408
0.2707
0.279238
0.270969
0.268993
0.268728
0.268727
0.268704
0.2687
0.268699
0.268699
0.2687
0.268704
0.268727
0.268728
0.268993
0.270969
0.279238
0.270699
0.268408
0.26809
0.268065
0.268144
0.269281
0.282006
0.430213
0.430208
0.281999
0.269279
0.268143
0.268063
0.268059
0.268074
0.268291
0.270689
0.289988
0.421026
0.290627
0.27325
0.271202
0.271127
0.271008
0.270983
0.270981
0.270981
0.270983
0.271008
0.271127
0.271202
0.27325
0.290624
0.421025
0.289986
0.270689
0.268292
0.268079
0.268144
0.26928
0.282004
0.430213
0.430208
0.281999
0.269279
0.268143
0.268063
0.268061
0.268118
0.268954
0.279162
0.420846
0.408653
0.284322
0.275974
0.275323
0.275264
0.275258
0.275258
0.275258
0.275258
0.275264
0.275323
0.275973
0.284321
0.408652
0.420846
0.279162
0.268954
0.268123
0.268147
0.26928
0.282003
0.430213
0.430207
0.281998
0.269279
0.268143
0.268063
0.268059
0.268074
0.26829
0.270678
0.289901
0.420994
0.290493
0.273157
0.271121
0.270989
0.270932
0.270916
0.270915
0.270915
0.270916
0.270932
0.270988
0.27112
0.273157
0.290495
0.420995
0.2899
0.270678
0.268291
0.268079
0.268144
0.26928
0.282001
0.430212
0.430207
0.281997
0.269279
0.268143
0.268063
0.268058
0.26806
0.26809
0.268405
0.270682
0.279205
0.27092
0.26884
0.26858
0.26857
0.268555
0.268551
0.268551
0.268551
0.268551
0.268555
0.26857
0.268582
0.268856
0.270923
0.279205
0.270682
0.268405
0.26809
0.268065
0.268143
0.269279
0.282
0.430211
0.430206
0.281997
0.269279
0.268143
0.268063
0.268058
0.268058
0.268061
0.26809
0.268291
0.26896
0.268323
0.268155
0.268247
0.268259
0.268258
0.268257
0.268257
0.268257
0.268257
0.268258
0.26826
0.268259
0.268273
0.268341
0.268962
0.268291