/*--------------------------------*- C++ -*----------------------------------*\
| =========                 |                                                 |
| \\      /  F ield         | OpenFOAM: The Open Source CFD Toolbox           |
|  \\    /   O peration     | Version:  2112                                  |
|   \\  /    A nd           | Website:  www.openfoam.com                      |
|    \\/     M anipulation  |                                                 |
\*---------------------------------------------------------------------------*/
FoamFile
{
    version     2.0;
    format      ascii;
    arch        "LSB;label=32;scalar=64";
    class       volScalarField;
    location    "0.2";
    object      k;
}
// * * * * * * * * * * * * * * * * * * * * * * * * * * * * * * * * * * * * * //

dimensions      [0 2 -2 0 0 0 0];

internalField   nonuniform List<scalar> 
64906
(
0.0420518
0.0419699
0.0419483
0.0419458
0.0419457
0.0419457
0.0419458
0.0419458
0.0419459
0.041946
0.041946
0.0419461
0.0419462
0.0419462
0.0419462
0.0419463
0.0419463
0.0419463
0.0419463
0.0419463
0.0419462
0.0419462
0.0419462
0.0419462
0.0419461
0.041946
0.041946
0.0419459
0.0419458
0.0419458
0.0419459
0.0419484
0.0419701
0.0420519
0.04197
0.042017
0.0418961
0.0418775
0.0418759
0.0418759
0.041876
0.041876
0.0418761
0.0418762
0.0418763
0.0418764
0.0418765
0.0418766
0.0418767
0.0418768
0.0418768
0.0418768
0.0418768
0.0418768
0.0418768
0.0418767
0.0418766
0.0418765
0.0418765
0.0418763
0.0418762
0.0418761
0.0418761
0.0418761
0.0418776
0.0418963
0.0420171
0.0419701
0.0419484
0.0418962
0.0417467
0.0417245
0.0417227
0.0417226
0.0417227
0.0417228
0.0417229
0.0417231
0.0417232
0.0417234
0.0417235
0.0417237
0.0417238
0.0417239
0.041724
0.041724
0.041724
0.041724
0.0417239
0.0417238
0.0417237
0.0417236
0.0417234
0.0417233
0.0417231
0.041723
0.0417229
0.0417229
0.0417247
0.0417468
0.0418964
0.0419486
0.041946
0.0418776
0.0417245
0.041702
0.0417002
0.0417002
0.0417003
0.0417004
0.0417006
0.0417008
0.041701
0.0417012
0.0417015
0.0417017
0.0417019
0.041702
0.0417021
0.0417021
0.0417021
0.0417021
0.041702
0.0417019
0.0417017
0.0417015
0.0417013
0.041701
0.0417008
0.0417006
0.0417005
0.0417005
0.0417023
0.0417248
0.0418778
0.0419462
0.0419459
0.0418761
0.0417228
0.0417002
0.0416984
0.0416984
0.0416986
0.0416988
0.041699
0.0416993
0.0416996
0.0417
0.0417003
0.0417006
0.0417009
0.0417011
0.0417012
0.0417013
0.0417013
0.0417012
0.0417011
0.0417009
0.0417007
0.0417004
0.0417
0.0416996
0.0416993
0.0416991
0.0416988
0.0416988
0.0417005
0.0417231
0.0418764
0.0419462
0.041946
0.0418761
0.0417228
0.0417002
0.0416985
0.0416985
0.0416987
0.041699
0.0416993
0.0416997
0.0417002
0.0417008
0.0417013
0.0417017
0.0417021
0.0417024
0.0417026
0.0417027
0.0417027
0.0417026
0.0417024
0.0417021
0.0417017
0.0417013
0.0417008
0.0417003
0.0416998
0.0416994
0.0416991
0.0416989
0.0417007
0.0417231
0.0418765
0.0419463
0.041946
0.0418762
0.0417229
0.0417004
0.0416987
0.0416988
0.041699
0.0416994
0.0416998
0.0417007
0.0417024
0.0417024
0.0417027
0.0417033
0.0417038
0.0417042
0.0417045
0.0417047
0.0417047
0.0417045
0.0417043
0.0417039
0.0417033
0.0417028
0.0417024
0.0417024
0.0417007
0.0416999
0.0416994
0.0416992
0.0417009
0.0417233
0.0418766
0.0419465
0.0419461
0.0418763
0.041723
0.0417005
0.0416989
0.041699
0.0416994
0.0416999
0.0417012
0.0417064
0.0417193
0.0417092
0.0417055
0.0417056
0.0417063
0.0417068
0.0417072
0.0417074
0.0417074
0.0417072
0.0417068
0.0417063
0.0417057
0.0417055
0.0417092
0.0417193
0.0417065
0.0417012
0.0417
0.0416996
0.0417012
0.0417236
0.0418768
0.0419466
0.0419462
0.0418764
0.0417231
0.0417007
0.0416991
0.0416993
0.0416998
0.0417011
0.0417091
0.0417517
0.0418261
0.0417565
0.0417159
0.0417098
0.04171
0.0417106
0.0417111
0.0417113
0.0417113
0.0417111
0.0417106
0.04171
0.0417098
0.041716
0.0417566
0.0418261
0.0417518
0.0417091
0.0417012
0.0417
0.0417015
0.0417238
0.041877
0.0419468
0.0419463
0.0418765
0.0417233
0.0417009
0.0416993
0.0416997
0.0417006
0.0417063
0.0417516
0.0419388
0.0417812
0.0419464
0.0417628
0.0417197
0.0417158
0.0417161
0.0417166
0.0417169
0.0417169
0.0417166
0.0417161
0.0417158
0.0417197
0.0417628
0.0419464
0.0417811
0.0419389
0.0417517
0.0417063
0.0417008
0.0417018
0.041724
0.0418772
0.0419469
0.0419463
0.0418766
0.0417234
0.0417011
0.0416996
0.0417001
0.0417022
0.0417189
0.0418256
0.0417805
0.0417737
0.0418208
0.0417192
0.0417048
0.0417042
0.0417047
0.0417049
0.0417049
0.0417047
0.0417043
0.0417048
0.0417192
0.0418209
0.0417738
0.0417806
0.0418257
0.041719
0.0417023
0.0417022
0.0417243
0.0418773
0.041947
0.0419463
0.0418766
0.0417235
0.0417012
0.0416999
0.0417005
0.0417018
0.0417081
0.0417548
0.0419446
0.0417826
0.0419434
0.0417612
0.0417178
0.0417136
0.0417135
0.0417137
0.0417138
0.0417138
0.0417137
0.0417135
0.0417136
0.0417178
0.0417612
0.0419434
0.0417825
0.0419446
0.0417548
0.0417082
0.0417019
0.0417025
0.0417245
0.0418774
0.041947
0.0419463
0.0418767
0.0417236
0.0417014
0.0417001
0.0417007
0.0417018
0.0417039
0.0417129
0.0417573
0.0418303
0.0417582
0.0417169
0.0417096
0.0417087
0.0417083
0.0417082
0.0417081
0.041708
0.0417081
0.0417083
0.0417086
0.0417095
0.0417169
0.0417581
0.0418302
0.0417573
0.0417129
0.0417039
0.0417019
0.0417027
0.0417246
0.0418775
0.0419471
0.0419463
0.0418767
0.0417236
0.0417015
0.0417002
0.041701
0.0417021
0.0417036
0.0417059
0.0417125
0.0417252
0.0417137
0.041709
0.0417076
0.0417067
0.0417058
0.0417051
0.0417047
0.0417047
0.0417051
0.0417057
0.0417066
0.0417075
0.0417089
0.0417136
0.0417251
0.0417124
0.0417059
0.0417035
0.0417021
0.0417029
0.0417247
0.0418775
0.041947
0.0419463
0.0418767
0.0417237
0.0417016
0.0417004
0.0417012
0.0417023
0.0417038
0.0417055
0.0417077
0.0417098
0.0417094
0.0417085
0.0417074
0.0417061
0.0417046
0.0417034
0.0417026
0.0417026
0.0417033
0.0417045
0.0417059
0.0417073
0.0417084
0.0417092
0.0417097
0.0417076
0.0417054
0.0417037
0.0417023
0.041703
0.0417248
0.0418776
0.041947
0.0419462
0.0418767
0.0417237
0.0417016
0.0417005
0.0417013
0.0417025
0.041704
0.0417057
0.0417075
0.0417089
0.0417095
0.0417087
0.0417075
0.0417058
0.0417039
0.0417022
0.0417011
0.041701
0.0417021
0.0417038
0.0417057
0.0417073
0.0417086
0.0417093
0.0417087
0.0417074
0.0417055
0.0417038
0.0417025
0.0417031
0.0417248
0.0418775
0.0419469
0.0419462
0.0418767
0.0417237
0.0417017
0.0417005
0.0417014
0.0417026
0.0417041
0.0417059
0.0417077
0.0417091
0.0417098
0.0417089
0.0417076
0.0417057
0.0417035
0.0417014
0.0416999
0.0416998
0.0417013
0.0417034
0.0417056
0.0417074
0.0417088
0.0417097
0.0417089
0.0417076
0.0417057
0.041704
0.0417026
0.0417032
0.0417249
0.0418775
0.0419468
0.0419461
0.0418766
0.0417237
0.0417017
0.0417006
0.0417014
0.0417027
0.0417042
0.041706
0.0417079
0.0417092
0.04171
0.0417091
0.0417076
0.0417057
0.0417033
0.041701
0.041699
0.0416989
0.0417008
0.0417032
0.0417055
0.0417075
0.0417089
0.0417098
0.0417091
0.0417077
0.0417058
0.0417041
0.0417026
0.0417032
0.0417249
0.0418775
0.0419467
0.0419461
0.0418766
0.0417237
0.0417017
0.0417006
0.0417015
0.0417027
0.0417042
0.041706
0.0417079
0.0417093
0.0417101
0.0417091
0.0417077
0.0417057
0.0417033
0.0417008
0.0416988
0.0416987
0.0417007
0.0417031
0.0417055
0.0417075
0.0417089
0.0417099
0.0417091
0.0417078
0.0417058
0.0417041
0.0417026
0.0417033
0.0417249
0.0418775
0.0419467
0.0419461
0.0418766
0.0417237
0.0417017
0.0417006
0.0417014
0.0417027
0.0417042
0.0417059
0.0417079
0.0417092
0.04171
0.041709
0.0417076
0.0417057
0.0417034
0.0417011
0.0416992
0.0416991
0.0417009
0.0417032
0.0417055
0.0417074
0.0417089
0.0417098
0.0417091
0.0417077
0.0417058
0.041704
0.0417026
0.0417032
0.0417249
0.0418775
0.0419467
0.0419461
0.0418766
0.0417237
0.0417016
0.0417005
0.0417014
0.0417026
0.0417041
0.0417058
0.0417077
0.0417091
0.0417097
0.0417089
0.0417075
0.0417057
0.0417036
0.0417016
0.0417001
0.0417001
0.0417014
0.0417034
0.0417055
0.0417073
0.0417087
0.0417096
0.041709
0.0417076
0.0417057
0.0417039
0.0417025
0.0417032
0.0417248
0.0418775
0.0419468
0.0419462
0.0418766
0.0417237
0.0417016
0.0417004
0.0417012
0.0417024
0.0417039
0.0417057
0.0417079
0.0417101
0.0417097
0.0417086
0.0417074
0.0417058
0.0417041
0.0417025
0.0417015
0.0417014
0.0417024
0.0417039
0.0417056
0.0417072
0.0417085
0.0417095
0.04171
0.0417078
0.0417056
0.0417038
0.0417024
0.0417031
0.0417248
0.0418775
0.0419468
0.0419462
0.0418766
0.0417236
0.0417015
0.0417003
0.0417011
0.0417022
0.0417037
0.0417062
0.0417128
0.0417257
0.0417142
0.0417091
0.0417075
0.0417063
0.041705
0.041704
0.0417034
0.0417033
0.0417039
0.0417048
0.0417061
0.0417073
0.041709
0.0417141
0.0417256
0.0417127
0.0417061
0.0417037
0.0417022
0.041703
0.0417247
0.0418775
0.0419469
0.0419462
0.0418766
0.0417236
0.0417014
0.0417001
0.0417009
0.041702
0.0417041
0.0417132
0.0417577
0.041831
0.0417588
0.041717
0.0417093
0.041708
0.0417073
0.0417068
0.0417065
0.0417064
0.0417066
0.0417071
0.0417078
0.041709
0.0417168
0.0417586
0.0418309
0.0417576
0.0417131
0.0417041
0.041702
0.0417028
0.0417246
0.0418774
0.0419469
0.0419463
0.0418766
0.0417235
0.0417013
0.0416999
0.0417006
0.041702
0.0417083
0.041755
0.0419449
0.0417834
0.0419438
0.041761
0.0417171
0.0417125
0.041712
0.0417119
0.0417119
0.0417119
0.0417118
0.0417118
0.0417123
0.0417169
0.0417607
0.0419436
0.0417834
0.0419449
0.041755
0.0417083
0.0417021
0.0417026
0.0417245
0.0418774
0.0419469
0.0419462
0.0418765
0.0417234
0.0417011
0.0416997
0.0417003
0.0417023
0.041719
0.0418255
0.0417803
0.0417731
0.0418201
0.0417182
0.0417034
0.0417024
0.0417026
0.0417027
0.0417026
0.0417025
0.0417022
0.0417031
0.0417178
0.0418198
0.0417729
0.0417803
0.0418255
0.041719
0.0417024
0.0417023
0.0417243
0.0418773
0.0419469
0.0419462
0.0418764
0.0417233
0.0417009
0.0416994
0.0416999
0.0417009
0.0417066
0.041752
0.0419394
0.0417823
0.0419469
0.0417626
0.0417186
0.041714
0.0417137
0.0417139
0.041714
0.0417139
0.0417137
0.0417135
0.0417136
0.0417181
0.041762
0.0419466
0.0417823
0.0419395
0.041752
0.0417066
0.041701
0.0417019
0.0417241
0.0418771
0.0419468
0.0419461
0.0418764
0.0417232
0.0417008
0.0416992
0.0416996
0.0417001
0.0417015
0.0417096
0.0417526
0.0418273
0.0417572
0.0417159
0.0417086
0.041708
0.041708
0.041708
0.041708
0.041708
0.0417078
0.0417077
0.0417075
0.041708
0.0417151
0.0417569
0.0418273
0.0417527
0.0417097
0.0417016
0.0417003
0.0417016
0.0417239
0.041877
0.0419467
0.0419461
0.0418763
0.041723
0.0417006
0.041699
0.0416993
0.0416998
0.0417004
0.0417018
0.0417073
0.0417204
0.0417099
0.0417056
0.041704
0.0417036
0.0417035
0.0417034
0.0417034
0.0417033
0.0417033
0.0417032
0.0417032
0.0417033
0.0417041
0.0417095
0.0417203
0.0417074
0.041702
0.0417005
0.0417
0.0417014
0.0417237
0.0418768
0.0419466
0.041946
0.0418763
0.041723
0.0417006
0.041699
0.0416992
0.0416996
0.0417001
0.0417007
0.0417018
0.0417037
0.0417035
0.0417035
0.0417028
0.0417028
0.0417028
0.0417029
0.0417029
0.0417029
0.0417028
0.0417027
0.0417026
0.0417025
0.0417024
0.0417033
0.0417037
0.041702
0.0417009
0.0417002
0.0416998
0.0417013
0.0417236
0.0418768
0.0419465
0.0419461
0.0418778
0.0417248
0.0417024
0.0417007
0.0417009
0.0417012
0.0417016
0.0417022
0.0417028
0.0417035
0.0417041
0.0417046
0.0417046
0.0417047
0.0417048
0.0417049
0.0417049
0.0417049
0.0417048
0.0417047
0.0417046
0.0417044
0.0417042
0.0417042
0.0417037
0.041703
0.0417023
0.0417018
0.0417015
0.041703
0.0417253
0.0418782
0.0419465
0.0419486
0.0418964
0.041747
0.0417249
0.0417232
0.0417234
0.0417236
0.041724
0.0417244
0.0417249
0.0417255
0.041726
0.0417264
0.0417265
0.0417267
0.0417268
0.0417269
0.0417269
0.0417269
0.0417268
0.0417268
0.0417266
0.0417265
0.0417263
0.0417261
0.0417256
0.0417251
0.0417246
0.0417242
0.0417239
0.0417254
0.0417474
0.0418968
0.0419489
0.0419702
0.0420172
0.0418965
0.0418779
0.0418765
0.0418766
0.0418769
0.0418772
0.0418776
0.041878
0.0418785
0.0418789
0.0418792
0.0418794
0.0418795
0.0418795
0.0418795
0.0418795
0.0418795
0.0418795
0.0418795
0.0418794
0.0418793
0.0418792
0.041879
0.0418786
0.0418782
0.0418778
0.0418774
0.0418771
0.0418784
0.0418969
0.0420176
0.0419705
0.042052
0.0419702
0.0419487
0.0419463
0.0419463
0.0419465
0.0419467
0.041947
0.0419473
0.0419477
0.041948
0.0419483
0.0419485
0.0419486
0.0419486
0.0419485
0.0419483
0.0419482
0.0419482
0.0419482
0.0419483
0.0419484
0.0419485
0.0419485
0.0419484
0.0419481
0.0419478
0.0419475
0.0419471
0.0419468
0.0419467
0.041949
0.0419705
0.0420522
0.0542779
0.054093
0.0539848
0.0539689
0.0539675
0.0539674
0.0539675
0.0539675
0.0539676
0.0539676
0.0539677
0.0539677
0.0539678
0.0539678
0.0539678
0.0539678
0.0539678
0.0539678
0.0539678
0.0539678
0.0539678
0.0539678
0.0539678
0.0539678
0.0539677
0.0539677
0.0539676
0.0539676
0.0539675
0.0539676
0.053969
0.0539849
0.0540931
0.054278
0.054093
0.0595604
0.0591983
0.0590876
0.0590756
0.0590747
0.0590747
0.0590747
0.0590747
0.0590747
0.0590748
0.0590748
0.0590748
0.0590748
0.0590749
0.0590749
0.0590749
0.0590749
0.0590749
0.0590749
0.0590749
0.0590749
0.0590748
0.0590748
0.0590748
0.0590748
0.0590747
0.0590747
0.0590747
0.0590756
0.0590876
0.0591983
0.0595604
0.0540931
0.0539849
0.0591983
0.0586755
0.0585383
0.0585238
0.0585227
0.0585227
0.0585227
0.0585228
0.0585228
0.0585228
0.0585229
0.0585229
0.058523
0.058523
0.058523
0.0585231
0.0585231
0.0585231
0.0585231
0.058523
0.058523
0.058523
0.0585229
0.0585229
0.0585228
0.0585228
0.0585228
0.0585228
0.0585239
0.0585384
0.0586755
0.0591984
0.0539851
0.053969
0.0590876
0.0585383
0.0583976
0.0583827
0.0583816
0.0583816
0.0583816
0.0583816
0.0583817
0.0583817
0.0583818
0.0583818
0.0583819
0.0583819
0.0583819
0.0583819
0.0583819
0.0583819
0.0583819
0.0583819
0.0583819
0.0583819
0.0583818
0.0583818
0.0583817
0.0583817
0.0583817
0.0583817
0.0583828
0.0583976
0.0585384
0.0590876
0.0539692
0.0539677
0.0590756
0.0585238
0.0583827
0.0583678
0.0583667
0.0583667
0.0583667
0.0583668
0.0583668
0.0583669
0.058367
0.058367
0.058367
0.0583671
0.0583671
0.0583671
0.0583672
0.0583672
0.0583671
0.0583671
0.0583671
0.0583671
0.058367
0.058367
0.0583669
0.0583668
0.0583668
0.0583668
0.0583679
0.0583828
0.0585238
0.0590756
0.0539679
0.0539677
0.0590747
0.0585227
0.0583816
0.0583667
0.0583657
0.0583656
0.0583657
0.0583658
0.058366
0.0583666
0.0583662
0.0583661
0.0583662
0.0583662
0.0583663
0.0583663
0.0583663
0.0583663
0.0583663
0.0583663
0.0583662
0.0583662
0.0583661
0.0583662
0.0583666
0.0583661
0.0583658
0.0583658
0.0583668
0.0583817
0.0585228
0.0590748
0.053968
0.0539678
0.0590747
0.0585227
0.0583816
0.0583667
0.0583656
0.0583656
0.0583657
0.0583664
0.0583694
0.0583766
0.0583698
0.058367
0.0583666
0.0583666
0.0583667
0.0583667
0.0583668
0.0583668
0.0583667
0.0583667
0.0583666
0.0583666
0.058367
0.0583698
0.0583766
0.0583694
0.0583664
0.0583658
0.0583668
0.0583817
0.0585228
0.0590748
0.0539681
0.0539678
0.0590747
0.0585227
0.0583816
0.0583667
0.0583657
0.0583657
0.0583666
0.0583729
0.0584064
0.0584699
0.058408
0.0583755
0.0583695
0.058369
0.058369
0.058369
0.058369
0.058369
0.058369
0.058369
0.058369
0.0583696
0.0583755
0.058408
0.05847
0.0584064
0.058373
0.0583666
0.0583669
0.0583817
0.0585228
0.0590748
0.0539683
0.0539679
0.0590747
0.0585228
0.0583816
0.0583668
0.0583658
0.0583663
0.0583729
0.058426
0.0586608
0.0587742
0.0586672
0.0584388
0.0583877
0.058382
0.0583812
0.0583811
0.0583811
0.0583811
0.0583811
0.0583812
0.0583821
0.0583877
0.0584388
0.0586672
0.0587742
0.0586609
0.058426
0.058373
0.0583675
0.0583818
0.0585229
0.0590749
0.0539684
0.0539679
0.0590748
0.0585228
0.0583817
0.0583668
0.058366
0.0583694
0.0584063
0.0586606
0.0591143
0.0535624
0.0591098
0.0586824
0.0584386
0.0584046
0.0584005
0.0584
0.0584
0.0584
0.0584
0.0584005
0.0584046
0.0584386
0.0586824
0.0591098
0.0535623
0.0591143
0.0586607
0.0584064
0.0583706
0.0583821
0.058523
0.0590749
0.0539685
0.053968
0.0590748
0.0585228
0.0583817
0.0583669
0.0583666
0.0583765
0.0584696
0.0587728
0.053561
0.0534521
0.0585812
0.0583001
0.0582124
0.0582026
0.0582017
0.0582016
0.0582016
0.0582017
0.0582026
0.0582124
0.0583001
0.0585811
0.0534522
0.0535611
0.0587728
0.0584697
0.0583777
0.0583826
0.0585231
0.059075
0.0539685
0.053968
0.0590748
0.0585229
0.0583817
0.0583669
0.0583661
0.0583696
0.0584067
0.0586618
0.059114
0.0535661
0.0591085
0.0586791
0.0584305
0.0583946
0.0583882
0.0583868
0.0583864
0.0583864
0.0583868
0.0583882
0.0583946
0.0584304
0.0586791
0.0591084
0.053566
0.059114
0.0586619
0.0584068
0.0583707
0.0583822
0.0585231
0.059075
0.0539686
0.053968
0.0590748
0.0585229
0.0583818
0.0583669
0.058366
0.0583666
0.0583734
0.0584269
0.0586629
0.0587748
0.0586692
0.0584332
0.0583778
0.0583697
0.0583673
0.0583663
0.058366
0.058366
0.0583663
0.0583672
0.0583697
0.0583778
0.0584331
0.0586692
0.0587748
0.058663
0.0584269
0.0583734
0.0583678
0.058382
0.0585232
0.059075
0.0539686
0.0539679
0.0590748
0.0585229
0.0583818
0.058367
0.058366
0.0583661
0.0583671
0.0583737
0.0584075
0.0584711
0.0584084
0.0583695
0.0583598
0.0583568
0.0583553
0.0583545
0.0583541
0.0583541
0.0583545
0.0583553
0.0583568
0.0583598
0.0583694
0.0584084
0.0584711
0.0584075
0.0583737
0.0583672
0.0583673
0.0583821
0.0585232
0.059075
0.0539685
0.0539679
0.0590748
0.058523
0.0583818
0.058367
0.058366
0.0583661
0.0583664
0.0583672
0.0583704
0.0583776
0.0583701
0.0583615
0.0583576
0.0583551
0.0583538
0.0583529
0.0583526
0.0583526
0.0583529
0.0583537
0.0583551
0.0583576
0.0583615
0.0583701
0.0583775
0.0583704
0.0583672
0.0583665
0.0583673
0.0583821
0.0585233
0.0590751
0.0539684
0.0539678
0.0590749
0.058523
0.0583818
0.058367
0.058366
0.0583661
0.0583664
0.0583666
0.0583671
0.0583677
0.0583667
0.0583611
0.0583577
0.0583553
0.0583539
0.058353
0.0583526
0.0583526
0.058353
0.0583539
0.0583553
0.0583577
0.0583611
0.0583667
0.0583677
0.0583671
0.0583666
0.0583664
0.0583673
0.0583821
0.0585233
0.0590751
0.0539683
0.0539678
0.0590749
0.058523
0.0583818
0.058367
0.058366
0.0583662
0.0583664
0.0583666
0.0583669
0.058367
0.0583665
0.0583613
0.0583579
0.0583555
0.0583541
0.0583532
0.0583528
0.0583527
0.0583532
0.058354
0.0583555
0.0583579
0.0583612
0.0583665
0.058367
0.0583669
0.0583666
0.0583664
0.0583673
0.0583821
0.0585233
0.0590751
0.0539683
0.0539678
0.0590749
0.058523
0.0583818
0.058367
0.0583661
0.0583662
0.0583664
0.0583666
0.0583669
0.058367
0.0583665
0.0583614
0.058358
0.0583556
0.0583542
0.0583533
0.0583528
0.0583528
0.0583532
0.0583541
0.0583556
0.058358
0.0583613
0.0583665
0.058367
0.0583669
0.0583666
0.0583665
0.0583673
0.0583821
0.0585233
0.0590751
0.0539682
0.0539677
0.0590749
0.058523
0.0583818
0.058367
0.0583661
0.0583662
0.0583664
0.0583667
0.0583669
0.058367
0.0583665
0.0583614
0.0583581
0.0583556
0.0583542
0.0583533
0.0583528
0.0583528
0.0583532
0.0583541
0.0583556
0.058358
0.0583614
0.0583665
0.058367
0.0583669
0.0583666
0.0583665
0.0583673
0.0583821
0.0585233
0.0590751
0.0539682
0.0539677
0.0590748
0.058523
0.0583818
0.058367
0.0583661
0.0583662
0.0583664
0.0583666
0.0583669
0.058367
0.0583665
0.0583613
0.058358
0.0583555
0.0583541
0.0583532
0.0583527
0.0583527
0.0583532
0.0583541
0.0583555
0.058358
0.0583613
0.0583665
0.058367
0.0583669
0.0583666
0.0583665
0.0583673
0.0583821
0.0585233
0.0590751
0.0539682
0.0539678
0.0590748
0.058523
0.0583818
0.058367
0.058366
0.0583662
0.0583664
0.0583667
0.0583671
0.0583677
0.0583667
0.0583612
0.0583578
0.0583554
0.0583539
0.0583531
0.0583526
0.0583526
0.0583531
0.0583539
0.0583553
0.0583578
0.0583612
0.0583667
0.0583677
0.0583671
0.0583667
0.0583664
0.0583673
0.0583821
0.0585233
0.0590751
0.0539682
0.0539678
0.0590748
0.058523
0.0583818
0.058367
0.058366
0.0583661
0.0583664
0.0583672
0.0583705
0.0583776
0.0583702
0.0583617
0.0583578
0.0583553
0.0583539
0.058353
0.0583526
0.0583526
0.058353
0.0583539
0.0583553
0.0583578
0.0583617
0.0583702
0.0583776
0.0583705
0.0583672
0.0583665
0.0583673
0.0583821
0.0585233
0.059075
0.0539683
0.0539678
0.0590748
0.058523
0.0583818
0.058367
0.058366
0.0583662
0.0583671
0.0583737
0.0584075
0.0584711
0.0584084
0.0583697
0.0583601
0.058357
0.0583555
0.0583546
0.0583543
0.0583543
0.0583546
0.0583555
0.058357
0.0583601
0.0583697
0.0584084
0.0584711
0.0584075
0.0583737
0.0583672
0.0583673
0.0583821
0.0585233
0.059075
0.0539683
0.0539679
0.0590748
0.0585229
0.0583818
0.0583669
0.058366
0.0583667
0.0583734
0.0584269
0.0586628
0.0587749
0.0586692
0.0584335
0.0583781
0.05837
0.0583675
0.0583666
0.0583662
0.0583662
0.0583666
0.0583675
0.05837
0.0583781
0.0584335
0.0586691
0.0587749
0.0586628
0.0584269
0.0583735
0.0583678
0.0583821
0.0585232
0.059075
0.0539684
0.0539679
0.0590748
0.0585229
0.0583818
0.0583669
0.0583662
0.0583696
0.0584067
0.0586618
0.059114
0.0535667
0.059109
0.0586797
0.0584309
0.058395
0.0583886
0.0583871
0.0583867
0.0583867
0.0583871
0.0583886
0.058395
0.0584309
0.0586796
0.0591091
0.0535667
0.0591141
0.0586618
0.0584068
0.0583708
0.0583822
0.0585232
0.059075
0.0539684
0.0539679
0.0590748
0.0585229
0.0583817
0.0583669
0.0583666
0.0583765
0.0584696
0.0587728
0.0535606
0.0534514
0.0585811
0.0583
0.058212
0.058202
0.0582011
0.058201
0.058201
0.0582011
0.058202
0.0582119
0.0582999
0.0585809
0.0534512
0.0535605
0.0587729
0.0584697
0.0583777
0.0583827
0.0585231
0.059075
0.0539684
0.0539678
0.0590748
0.0585228
0.0583817
0.0583669
0.0583661
0.0583694
0.0584064
0.0586607
0.0591144
0.0535635
0.0591098
0.0586829
0.0584385
0.0584043
0.0584001
0.0583995
0.0583995
0.0583995
0.0583995
0.0584
0.0584043
0.0584384
0.0586827
0.0591097
0.0535635
0.0591145
0.0586608
0.0584065
0.0583706
0.0583821
0.058523
0.0590749
0.0539683
0.0539678
0.0590747
0.0585228
0.0583817
0.0583668
0.0583658
0.0583664
0.058373
0.0584261
0.058661
0.0587744
0.0586676
0.0584389
0.0583874
0.0583815
0.0583805
0.0583804
0.0583803
0.0583803
0.0583803
0.0583805
0.0583814
0.0583872
0.0584386
0.0586675
0.0587744
0.058661
0.0584262
0.0583731
0.0583676
0.0583819
0.058523
0.0590749
0.0539682
0.0539677
0.0590748
0.0585228
0.0583817
0.0583668
0.0583658
0.0583659
0.0583667
0.0583731
0.0584066
0.0584702
0.0584081
0.0583754
0.0583684
0.0583676
0.0583672
0.058367
0.058367
0.058367
0.0583669
0.0583669
0.0583671
0.058368
0.0583744
0.0584079
0.0584701
0.0584066
0.0583732
0.0583668
0.0583671
0.0583819
0.058523
0.0590749
0.0539681
0.0539678
0.0590756
0.0585239
0.0583828
0.0583679
0.0583669
0.0583669
0.058367
0.0583677
0.0583708
0.0583779
0.0583711
0.058368
0.0583667
0.0583662
0.0583658
0.0583656
0.0583656
0.0583656
0.0583655
0.0583655
0.0583656
0.058366
0.0583671
0.0583708
0.0583779
0.0583708
0.0583677
0.0583671
0.0583681
0.0583829
0.058524
0.0590757
0.0539681
0.0539691
0.0590877
0.0585384
0.0583977
0.0583828
0.0583818
0.0583818
0.0583818
0.058382
0.0583823
0.0583829
0.0583825
0.0583823
0.0583821
0.0583821
0.0583821
0.0583821
0.0583821
0.0583821
0.0583821
0.0583821
0.058382
0.058382
0.0583821
0.0583825
0.0583829
0.0583823
0.058382
0.0583819
0.0583829
0.0583978
0.0585385
0.0590877
0.0539694
0.053985
0.0591984
0.0586756
0.0585384
0.0585239
0.0585229
0.0585229
0.0585229
0.0585231
0.0585232
0.0585234
0.0585235
0.0585236
0.0585237
0.0585238
0.0585239
0.058524
0.058524
0.058524
0.058524
0.058524
0.0585239
0.0585238
0.0585236
0.0585236
0.0585234
0.0585233
0.0585231
0.0585231
0.0585241
0.0585386
0.0586757
0.0591985
0.0539853
0.0540932
0.0595605
0.0591984
0.0590877
0.0590757
0.0590748
0.0590748
0.0590749
0.059075
0.0590751
0.0590752
0.0590753
0.0590754
0.0590755
0.0590755
0.0590755
0.0590756
0.0590756
0.0590756
0.0590756
0.0590756
0.0590755
0.0590755
0.0590754
0.0590754
0.0590753
0.0590752
0.0590751
0.059075
0.0590758
0.0590878
0.0591985
0.0595605
0.0540934
0.054278
0.0540932
0.0539851
0.0539693
0.053968
0.0539681
0.0539682
0.0539685
0.0539687
0.053969
0.0539693
0.0539695
0.0539697
0.0539697
0.0539696
0.0539695
0.0539694
0.0539693
0.0539693
0.0539693
0.0539694
0.0539695
0.0539696
0.0539696
0.0539695
0.0539693
0.0539691
0.0539688
0.0539685
0.0539684
0.0539696
0.0539854
0.0540934
0.0542782
0.0557079
0.055492
0.0553603
0.0553403
0.0553384
0.0553384
0.0553384
0.0553384
0.0553385
0.0553385
0.0553386
0.0553387
0.0553387
0.0553387
0.0553388
0.0553388
0.0553388
0.0553388
0.0553388
0.0553388
0.0553388
0.0553388
0.0553387
0.0553387
0.0553387
0.0553386
0.0553386
0.0553385
0.0553385
0.0553385
0.0553404
0.0553604
0.0554921
0.055708
0.055492
0.0618846
0.0614542
0.0613157
0.0613
0.0612988
0.0612988
0.0612988
0.0612988
0.0612988
0.0612988
0.0612988
0.0612988
0.0612989
0.0612989
0.0612989
0.0612989
0.0612989
0.0612989
0.0612989
0.0612989
0.0612989
0.0612989
0.0612988
0.0612988
0.0612988
0.0612988
0.0612988
0.0612989
0.0613001
0.0613157
0.0614542
0.0618845
0.0554922
0.0553604
0.0614542
0.0608278
0.0606555
0.0606365
0.060635
0.0606349
0.060635
0.060635
0.060635
0.060635
0.060635
0.0606351
0.0606351
0.0606351
0.0606351
0.0606351
0.0606352
0.0606352
0.0606351
0.0606351
0.0606351
0.0606351
0.0606351
0.0606351
0.060635
0.060635
0.060635
0.0606351
0.0606365
0.0606555
0.0608278
0.0614542
0.0553605
0.0553404
0.0613157
0.0606555
0.0604784
0.0604589
0.0604575
0.0604574
0.0604574
0.0604574
0.0604574
0.0604574
0.0604574
0.0604574
0.0604574
0.0604574
0.0604574
0.0604574
0.0604575
0.0604575
0.0604574
0.0604574
0.0604574
0.0604574
0.0604574
0.0604574
0.0604574
0.0604574
0.0604574
0.0604575
0.060459
0.0604784
0.0606555
0.0613157
0.0553406
0.0553386
0.0613
0.0606364
0.0604589
0.0604394
0.0604379
0.0604379
0.0604379
0.0604379
0.0604379
0.0604379
0.0604379
0.0604379
0.0604379
0.0604379
0.0604379
0.0604379
0.0604379
0.0604379
0.0604379
0.0604379
0.0604379
0.0604379
0.0604379
0.0604379
0.0604379
0.0604379
0.0604379
0.060438
0.0604394
0.0604589
0.0606364
0.0613
0.0553388
0.0553385
0.0612988
0.060635
0.0604575
0.0604379
0.0604365
0.0604364
0.0604364
0.0604364
0.0604367
0.0604374
0.0604368
0.0604366
0.0604365
0.0604365
0.0604365
0.0604365
0.0604365
0.0604365
0.0604365
0.0604365
0.0604365
0.0604365
0.0604366
0.0604368
0.0604374
0.0604367
0.0604364
0.0604365
0.060438
0.0604575
0.060635
0.0612988
0.0553388
0.0553386
0.0612988
0.0606349
0.0604574
0.0604379
0.0604364
0.0604363
0.0604364
0.0604371
0.0604412
0.0604503
0.060442
0.0604384
0.0604377
0.0604377
0.0604377
0.0604377
0.0604377
0.0604377
0.0604377
0.0604377
0.0604377
0.0604377
0.0604384
0.060442
0.0604503
0.0604412
0.0604372
0.0604365
0.0604379
0.0604574
0.0606349
0.0612988
0.055339
0.0553387
0.0612988
0.0606349
0.0604574
0.0604379
0.0604364
0.0604364
0.0604374
0.0604459
0.0604888
0.0605675
0.0604961
0.0604573
0.06045
0.0604498
0.0604491
0.0604489
0.0604489
0.0604489
0.0604489
0.0604491
0.0604498
0.06045
0.0604573
0.060496
0.0605676
0.0604888
0.0604459
0.0604375
0.060438
0.0604574
0.060635
0.0612988
0.0553391
0.0553388
0.0612988
0.060635
0.0604574
0.0604379
0.0604364
0.0604371
0.0604458
0.0605141
0.0608046
0.0609335
0.0608359
0.0605785
0.0605209
0.0605174
0.0605131
0.0605119
0.0605117
0.0605117
0.0605119
0.0605131
0.0605174
0.0605209
0.0605785
0.0608359
0.0609335
0.0608046
0.0605142
0.0604459
0.0604387
0.0604575
0.060635
0.0612989
0.0553392
0.0553388
0.0612988
0.060635
0.0604574
0.0604379
0.0604367
0.0604411
0.0604886
0.0608036
0.0613337
0.0548686
0.061237
0.0607986
0.0605417
0.0605113
0.0605008
0.0604976
0.0604972
0.0604972
0.0604976
0.0605008
0.0605114
0.0605417
0.0607986
0.061237
0.0548686
0.0613337
0.0608036
0.0604887
0.0604427
0.0604578
0.0606351
0.0612989
0.0553393
0.0553388
0.0612988
0.060635
0.0604574
0.0604379
0.0604374
0.0604501
0.0605658
0.0609246
0.0548597
0.0537002
0.0588885
0.0586102
0.0585251
0.0585135
0.0585123
0.0585123
0.0585123
0.0585123
0.0585136
0.0585251
0.0586102
0.0588885
0.0537003
0.0548598
0.0609246
0.0605659
0.0604517
0.0604585
0.0606352
0.0612989
0.0553394
0.0553389
0.0612989
0.060635
0.0604574
0.0604379
0.0604367
0.0604412
0.0604888
0.0608046
0.0613326
0.0548731
0.0612354
0.0608059
0.0605469
0.0605254
0.0605019
0.0604961
0.0604951
0.0604951
0.0604961
0.0605019
0.0605253
0.0605468
0.0608058
0.0612353
0.054873
0.0613327
0.0608046
0.0604889
0.0604428
0.0604578
0.0606352
0.0612989
0.0553394
0.0553389
0.0612989
0.0606351
0.0604574
0.0604379
0.0604365
0.0604372
0.060446
0.0605147
0.0608064
0.0609336
0.0608374
0.0605723
0.0605123
0.0605097
0.0605032
0.0605015
0.0605012
0.0605012
0.0605015
0.0605032
0.0605097
0.0605123
0.0605723
0.0608374
0.0609336
0.0608064
0.0605147
0.0604461
0.0604388
0.0604575
0.0606352
0.0612989
0.0553394
0.0553388
0.0612989
0.0606351
0.0604574
0.0604379
0.0604364
0.0604364
0.0604375
0.060446
0.0604893
0.060568
0.0604947
0.0604474
0.0604383
0.0604376
0.0604364
0.060436
0.0604359
0.0604359
0.060436
0.0604364
0.0604375
0.0604383
0.0604474
0.0604947
0.060568
0.0604893
0.060446
0.0604376
0.060438
0.0604575
0.0606353
0.061299
0.0553394
0.0553388
0.0612989
0.0606351
0.0604574
0.0604379
0.0604364
0.0604364
0.0604365
0.0604373
0.0604413
0.0604503
0.0604399
0.0604281
0.0604258
0.0604251
0.0604248
0.0604246
0.0604245
0.0604245
0.0604246
0.0604248
0.0604251
0.0604257
0.0604281
0.0604399
0.0604503
0.0604413
0.0604373
0.0604366
0.0604379
0.0604575
0.0606353
0.061299
0.0553394
0.0553388
0.0612989
0.0606351
0.0604574
0.0604379
0.0604364
0.0604363
0.0604364
0.0604365
0.0604368
0.0604372
0.0604346
0.0604263
0.0604245
0.060424
0.0604237
0.0604235
0.0604234
0.0604234
0.0604235
0.0604237
0.0604239
0.0604245
0.0604263
0.0604346
0.0604372
0.0604368
0.0604365
0.0604365
0.0604379
0.0604575
0.0606353
0.061299
0.0553393
0.0553387
0.0612989
0.0606351
0.0604574
0.0604379
0.0604364
0.0604363
0.0604364
0.0604364
0.0604364
0.0604363
0.0604342
0.0604262
0.0604245
0.0604239
0.0604236
0.0604234
0.0604234
0.0604234
0.0604234
0.0604236
0.0604239
0.0604245
0.0604262
0.0604342
0.0604363
0.0604364
0.0604364
0.0604365
0.0604379
0.0604575
0.0606353
0.061299
0.0553393
0.0553387
0.0612989
0.0606352
0.0604574
0.0604379
0.0604364
0.0604364
0.0604364
0.0604364
0.0604364
0.0604362
0.0604342
0.0604262
0.0604245
0.0604239
0.0604236
0.0604235
0.0604234
0.0604234
0.0604235
0.0604236
0.0604239
0.0604245
0.0604262
0.0604342
0.0604362
0.0604364
0.0604364
0.0604365
0.0604379
0.0604575
0.0606353
0.061299
0.0553392
0.0553387
0.0612989
0.0606352
0.0604574
0.0604379
0.0604364
0.0604364
0.0604364
0.0604364
0.0604364
0.0604362
0.0604342
0.0604262
0.0604245
0.0604239
0.0604236
0.0604235
0.0604234
0.0604234
0.0604235
0.0604236
0.0604239
0.0604245
0.0604262
0.0604342
0.0604362
0.0604364
0.0604364
0.0604365
0.0604379
0.0604575