/*--------------------------------*- C++ -*----------------------------------*\
| =========                 |                                                 |
| \\      /  F ield         | OpenFOAM: The Open Source CFD Toolbox           |
|  \\    /   O peration     | Version:  2112                                  |
|   \\  /    A nd           | Website:  www.openfoam.com                      |
|    \\/     M anipulation  |                                                 |
\*---------------------------------------------------------------------------*/
FoamFile
{
    version     2.0;
    format      ascii;
    arch        "LSB;label=32;scalar=64";
    class       volScalarField;
    location    "0.2";
    object      nut;
}
// * * * * * * * * * * * * * * * * * * * * * * * * * * * * * * * * * * * * * //

dimensions      [0 2 -1 0 0 0 0];

internalField   nonuniform List<scalar> 
64906
(
0.000423155
0.00042286
0.000422724
0.000422705
0.000422703
0.000422704
0.000422704
0.000422704
0.000422705
0.000422705
0.000422706
0.000422706
0.000422707
0.000422707
0.000422707
0.000422707
0.000422707
0.000422708
0.000422707
0.000422707
0.000422707
0.000422707
0.000422707
0.000422707
0.000422706
0.000422706
0.000422705
0.000422705
0.000422704
0.000422704
0.000422706
0.000422725
0.000422861
0.000423156
0.00042286
0.000427083
0.000426648
0.000426515
0.000426502
0.000426501
0.000426501
0.000426502
0.000426503
0.000426504
0.000426504
0.000426505
0.000426506
0.000426507
0.000426507
0.000426508
0.000426508
0.000426508
0.000426508
0.000426508
0.000426508
0.000426507
0.000426507
0.000426506
0.000426505
0.000426505
0.000426504
0.000426503
0.000426502
0.000426503
0.000426517
0.000426649
0.000427084
0.000422861
0.000422725
0.000426649
0.00042602
0.000425855
0.000425838
0.000425837
0.000425838
0.000425839
0.00042584
0.000425841
0.000425842
0.000425843
0.000425844
0.000425846
0.000425847
0.000425847
0.000425848
0.000425848
0.000425848
0.000425848
0.000425847
0.000425847
0.000425846
0.000425845
0.000425843
0.000425842
0.000425841
0.00042584
0.000425839
0.00042584
0.000425856
0.000426021
0.00042665
0.000422726
0.000422706
0.000426516
0.000425855
0.000425686
0.000425669
0.000425668
0.000425669
0.00042567
0.000425672
0.000425673
0.000425675
0.000425677
0.000425679
0.00042568
0.000425682
0.000425683
0.000425684
0.000425684
0.000425684
0.000425684
0.000425683
0.000425682
0.00042568
0.000425679
0.000425677
0.000425675
0.000425674
0.000425672
0.000425671
0.000425671
0.000425688
0.000425857
0.000426518
0.000422707
0.000422705
0.000426503
0.000425838
0.000425669
0.000425652
0.000425652
0.000425653
0.000425655
0.000425656
0.000425659
0.000425661
0.000425664
0.000425667
0.000425669
0.000425671
0.000425673
0.000425674
0.000425674
0.000425674
0.000425674
0.000425673
0.000425671
0.000425669
0.000425667
0.000425664
0.000425661
0.000425659
0.000425657
0.000425655
0.000425655
0.000425672
0.000425841
0.000426505
0.000422707
0.000422705
0.000426502
0.000425838
0.000425669
0.000425652
0.000425652
0.000425654
0.000425656
0.000425658
0.000425661
0.000425666
0.00042567
0.000425673
0.000425677
0.00042568
0.000425682
0.000425683
0.000425684
0.000425684
0.000425684
0.000425682
0.00042568
0.000425677
0.000425674
0.00042567
0.000425666
0.000425662
0.000425659
0.000425656
0.000425656
0.000425672
0.000425841
0.000426505
0.000422708
0.000422706
0.000426503
0.000425839
0.00042567
0.000425653
0.000425654
0.000425656
0.000425659
0.000425662
0.00042567
0.000425684
0.000425683
0.000425685
0.000425689
0.000425693
0.000425696
0.000425698
0.000425699
0.000425699
0.000425698
0.000425696
0.000425693
0.000425689
0.000425685
0.000425683
0.000425684
0.00042567
0.000425663
0.000425659
0.000425658
0.000425674
0.000425842
0.000426506
0.000422709
0.000422706
0.000426504
0.00042584
0.000425671
0.000425655
0.000425656
0.000425659
0.000425663
0.000425674
0.000425719
0.000425803
0.00042574
0.000425708
0.000425707
0.000425712
0.000425716
0.000425719
0.00042572
0.00042572
0.000425719
0.000425716
0.000425712
0.000425707
0.000425708
0.000425741
0.000425803
0.00042572
0.000425675
0.000425663
0.000425661
0.000425676
0.000425844
0.000426508
0.00042271
0.000422707
0.000426504
0.000425841
0.000425672
0.000425657
0.000425658
0.000425662
0.000425674
0.000425743
0.000426029
0.000426165
0.000426065
0.000425797
0.000425742
0.000425742
0.000425746
0.00042575
0.000425752
0.000425752
0.00042575
0.000425746
0.000425742
0.000425742
0.000425797
0.000426065
0.000426165
0.000426029
0.000425743
0.000425674
0.000425664
0.000425678
0.000425846
0.000426509
0.000422711
0.000422707
0.000426505
0.000425842
0.000425674
0.000425659
0.000425661
0.000425669
0.000425718
0.000426028
0.000426553
0.0004221
0.000426598
0.000426103
0.000425813
0.000425778
0.000425779
0.000425783
0.000425785
0.000425785
0.000425783
0.000425779
0.000425779
0.000425814
0.000426103
0.000426598
0.0004221
0.000426553
0.000426028
0.000425719
0.000425671
0.000425681
0.000425848
0.00042651
0.000422712
0.000422708
0.000426506
0.000425843
0.000425675
0.00042566
0.000425664
0.000425681
0.000425799
0.00042616
0.000422095
0.000422039
0.000426041
0.000425714
0.000425615
0.000425608
0.000425611
0.000425612
0.000425612
0.000425611
0.000425608
0.000425615
0.000425714
0.000426041
0.00042204
0.000422095
0.000426161
0.0004258
0.000425683
0.000425684
0.000425849
0.000426511
0.000422712
0.000422708
0.000426506
0.000425843
0.000425676
0.000425662
0.000425667
0.000425677
0.000425731
0.000426049
0.000426586
0.000422108
0.000426566
0.000426082
0.000425789
0.00042575
0.000425747
0.000425748
0.000425748
0.000425748
0.000425748
0.000425747
0.00042575
0.000425789
0.000426082
0.000426565
0.000422108
0.000426586
0.000426049
0.000425731
0.000425679
0.000425686
0.000425851
0.000426512
0.000422713
0.000422708
0.000426507
0.000425844
0.000425677
0.000425664
0.000425669
0.000425677
0.000425694
0.00042577
0.000426067
0.00042619
0.000426069
0.000425792
0.000425727
0.000425718
0.000425714
0.000425713
0.000425712
0.000425712
0.000425712
0.000425714
0.000425717
0.000425726
0.000425792
0.000426068
0.000426189
0.000426067
0.00042577
0.000425694
0.000425678
0.000425688
0.000425852
0.000426513
0.000422713
0.000422708
0.000426507
0.000425845
0.000425678
0.000425665
0.00042567
0.000425678
0.000425689
0.000425709
0.000425762
0.000425842
0.000425766
0.000425722
0.000425708
0.0004257
0.000425694
0.000425689
0.000425686
0.000425686
0.000425689
0.000425693
0.0004257
0.000425707
0.000425721
0.000425765
0.000425841
0.000425762
0.000425708
0.000425689
0.000425679
0.000425689
0.000425853
0.000426513
0.000422713
0.000422708
0.000426507
0.000425845
0.000425679
0.000425666
0.000425672
0.00042568
0.000425691
0.000425703
0.00042572
0.000425734
0.000425727
0.000425715
0.000425706
0.000425696
0.000425685
0.000425677
0.000425672
0.000425672
0.000425676
0.000425685
0.000425695
0.000425705
0.000425714
0.000425725
0.000425733
0.000425719
0.000425703
0.00042569
0.000425681
0.00042569
0.000425854
0.000426513
0.000422712
0.000422707
0.000426507
0.000425845
0.000425679
0.000425667
0.000425673
0.000425682
0.000425692
0.000425705
0.000425718
0.000425726
0.000425727
0.000425717
0.000425706
0.000425694
0.000425681
0.000425669
0.000425662
0.000425661
0.000425669
0.00042568
0.000425693
0.000425705
0.000425716
0.000425725
0.000425725
0.000425717
0.000425704
0.000425692
0.000425682
0.000425691
0.000425854
0.000426513
0.000422712
0.000422707
0.000426507
0.000425846
0.00042568
0.000425668
0.000425674
0.000425682
0.000425694
0.000425706
0.000425719
0.000425727
0.000425729
0.000425718
0.000425707
0.000425694
0.000425679
0.000425664
0.000425654
0.000425654
0.000425664
0.000425678
0.000425693
0.000425706
0.000425717
0.000425728
0.000425726
0.000425719
0.000425705
0.000425693
0.000425683
0.000425692
0.000425855
0.000426513
0.000422711
0.000422707
0.000426507
0.000425846
0.00042568
0.000425668
0.000425674
0.000425683
0.000425694
0.000425707
0.00042572
0.000425728
0.000425731
0.000425719
0.000425708
0.000425693
0.000425677
0.000425662
0.000425649
0.000425648
0.00042566
0.000425676
0.000425692
0.000425706
0.000425718
0.000425729
0.000425727
0.00042572
0.000425706
0.000425693
0.000425683
0.000425692
0.000425855
0.000426513
0.000422711
0.000422706
0.000426507
0.000425846
0.00042568
0.000425668
0.000425674
0.000425683
0.000425694
0.000425707
0.000425721
0.000425729
0.000425731
0.000425719
0.000425708
0.000425693
0.000425677
0.000425661
0.000425647
0.000425646
0.00042566
0.000425676
0.000425692
0.000425706
0.000425718
0.00042573
0.000425728
0.00042572
0.000425706
0.000425694
0.000425684
0.000425692
0.000425855
0.000426513
0.00042271
0.000422706
0.000426507
0.000425846
0.00042568
0.000425668
0.000425674
0.000425683
0.000425694
0.000425707
0.00042572
0.000425728
0.00042573
0.000425719
0.000425707
0.000425693
0.000425677
0.000425662
0.000425649
0.000425649
0.000425661
0.000425676
0.000425692
0.000425706
0.000425717
0.000425729
0.000425727
0.00042572
0.000425706
0.000425693
0.000425683
0.000425692
0.000425855
0.000426513
0.000422711
0.000422707
0.000426507
0.000425845
0.00042568
0.000425667
0.000425673
0.000425682
0.000425693
0.000425706
0.00042572
0.000425728
0.000425729
0.000425717
0.000425707
0.000425693
0.000425679
0.000425665
0.000425655
0.000425655
0.000425664
0.000425678
0.000425692
0.000425705
0.000425716
0.000425727
0.000425727
0.000425719
0.000425705
0.000425693
0.000425683
0.000425691
0.000425854
0.000426513
0.000422711
0.000422707
0.000426506
0.000425845
0.000425679
0.000425667
0.000425672
0.000425681
0.000425692
0.000425705
0.000425722
0.000425737
0.000425729
0.000425716
0.000425706
0.000425694
0.000425682
0.000425671
0.000425664
0.000425664
0.00042567
0.000425681
0.000425693
0.000425705
0.000425715
0.000425728
0.000425736
0.000425721
0.000425705
0.000425692
0.000425682
0.000425691
0.000425854
0.000426513
0.000422711
0.000422707
0.000426506
0.000425845
0.000425679
0.000425666
0.000425671
0.00042568
0.000425691
0.000425711
0.000425765
0.000425846
0.00042577
0.000425723
0.000425707
0.000425698
0.000425689
0.000425681
0.000425677
0.000425677
0.00042568
0.000425687
0.000425696
0.000425706
0.000425722
0.000425769
0.000425845
0.000425764
0.00042571
0.000425691
0.000425681
0.00042569
0.000425853
0.000426513
0.000422712
0.000422707
0.000426506
0.000425844
0.000425678
0.000425665
0.00042567
0.000425678
0.000425696
0.000425772
0.00042607
0.000426196
0.000426073
0.000425793
0.000425725
0.000425713
0.000425707
0.000425703
0.000425701
0.000425701
0.000425702
0.000425706
0.000425711
0.000425724
0.000425792
0.000426073
0.000426195
0.00042607
0.000425772
0.000425696
0.000425679
0.000425688
0.000425853
0.000426513
0.000422712
0.000422707
0.000426506
0.000425844
0.000425677
0.000425663
0.000425668
0.000425679
0.000425733
0.000426051
0.000426589
0.000422115
0.000426569
0.000426081
0.000425784
0.000425743
0.000425737
0.000425736
0.000425735
0.000425735
0.000425735
0.000425736
0.000425741
0.000425783
0.000426079
0.000426568
0.000422115
0.000426589
0.000426051
0.000425733
0.00042568
0.000425687
0.000425851
0.000426512
0.000422712
0.000422707
0.000426506
0.000425843
0.000425676
0.000425661
0.000425665
0.000425683
0.0004258
0.00042616
0.000422094
0.000422035
0.000426035
0.000425707
0.000425605
0.000425595
0.000425596
0.000425596
0.000425596
0.000425595
0.000425594
0.000425603
0.000425705
0.000426033
0.000422033
0.000422094
0.000426161
0.000425801
0.000425684
0.000425685
0.00042585
0.000426511
0.000422712
0.000422707
0.000426505
0.000425842
0.000425674
0.00042566
0.000425662
0.000425671
0.00042572
0.000426031
0.000426558
0.000422108
0.0004266
0.000426101
0.000425804
0.000425764
0.000425761
0.000425761
0.000425762
0.000425762
0.00042576
0.000425759
0.000425761
0.000425801
0.000426096
0.000426598
0.000422108
0.000426559
0.000426032
0.000425721
0.000425673
0.000425682
0.000425848
0.00042651
0.000422711
0.000422706
0.000426504
0.000425841
0.000425673
0.000425658
0.00042566
0.000425665
0.000425677
0.000425747
0.000426036
0.000426175
0.000426069
0.000425796
0.000425732
0.000425725
0.000425724
0.000425724
0.000425724
0.000425724
0.000425723
0.000425722
0.000425721
0.000425727
0.000425788
0.000426067
0.000426175
0.000426036
0.000425748
0.000425678
0.000425667
0.00042568
0.000425847
0.000426509
0.00042271
0.000422706
0.000426504
0.00042584
0.000425672
0.000425657
0.000425658
0.000425662
0.000425667
0.00042568
0.000425727
0.000425811
0.000425745
0.000425707
0.000425689
0.000425685
0.000425684
0.000425684
0.000425683
0.000425683
0.000425683
0.000425682
0.000425682
0.000425683
0.000425692
0.000425741
0.00042581
0.000425727
0.000425681
0.000425668
0.000425664
0.000425678
0.000425846
0.000426508
0.00042271
0.000422706
0.000426504
0.000425841
0.000425672
0.000425657
0.000425658
0.000425661
0.000425665
0.00042567
0.000425679
0.000425694
0.000425691
0.000425689
0.00042568
0.00042568
0.00042568
0.00042568
0.00042568
0.00042568
0.000425679
0.000425679
0.000425678
0.000425678
0.000425678
0.000425688
0.000425693
0.00042568
0.000425671
0.000425666
0.000425663
0.000425678
0.000425846
0.000426508
0.000422709
0.000422707
0.000426518
0.000425858
0.000425689
0.000425673
0.000425674
0.000425677
0.00042568
0.000425684
0.000425689
0.000425695
0.000425699
0.000425702
0.0004257
0.000425701
0.000425701
0.000425702
0.000425702
0.000425702
0.000425702
0.000425701
0.0004257
0.000425699
0.000425698
0.000425699
0.000425696
0.000425691
0.000425686
0.000425682
0.000425679
0.000425694
0.000425862
0.000426522
0.00042271
0.000422726
0.000426651
0.000426022
0.000425858
0.000425842
0.000425843
0.000425845
0.000425848
0.000425852
0.000425855
0.00042586
0.000425863
0.000425866
0.000425867
0.000425868
0.000425869
0.000425869
0.00042587
0.00042587
0.000425869
0.000425869
0.000425868
0.000425866
0.000425865
0.000425864
0.000425861
0.000425857
0.000425853
0.00042585
0.000425848
0.000425863
0.000426026
0.000426654
0.000422729
0.000422861
0.000427085
0.000426651
0.000426519
0.000426506
0.000426507
0.000426509
0.000426511
0.000426514
0.000426518
0.000426521
0.000426524
0.000426526
0.000426528
0.000426528
0.000426529
0.000426529
0.000426529
0.000426529
0.000426529
0.000426529
0.000426528
0.000426527
0.000426526
0.000426525
0.000426522
0.000426519
0.000426516
0.000426513
0.000426511
0.000426523
0.000426654
0.000427088
0.000422864
0.000423157
0.000422862
0.000422727
0.000422708
0.000422708
0.000422709
0.000422711
0.000422713
0.000422715
0.000422717
0.00042272
0.000422722
0.000422724
0.000422724
0.000422724
0.000422723
0.000422722
0.000422722
0.000422721
0.000422722
0.000422722
0.000422723
0.000422723
0.000422723
0.000422723
0.000422721
0.000422719
0.000422716
0.000422714
0.000422712
0.000422711
0.00042273
0.000422864
0.000423159
0.00062987
0.000631166
0.000630615
0.000630486
0.000630472
0.000630471
0.000630471
0.000630472
0.000630472
0.000630473
0.000630473
0.000630473
0.000630474
0.000630474
0.000630474
0.000630474
0.000630474
0.000630474
0.000630474
0.000630474
0.000630474
0.000630474
0.000630474
0.000630474
0.000630473
0.000630473
0.000630473
0.000630472
0.000630472
0.000630473
0.000630486
0.000630615
0.000631167
0.00062987
0.000631167
0.00107875
0.00109978
0.0010987
0.00109847
0.00109845
0.00109845
0.00109845
0.00109844
0.00109844
0.00109844
0.00109844
0.00109844
0.00109844
0.00109843
0.00109843
0.00109843
0.00109843
0.00109843
0.00109843
0.00109843
0.00109843
0.00109844
0.00109844
0.00109844
0.00109844
0.00109844
0.00109844
0.00109845
0.00109847
0.0010987
0.00109977
0.00107874
0.000631168
0.000630615
0.00109978
0.00112118
0.00111964
0.00111934
0.00111931
0.00111931
0.00111931
0.00111931
0.00111931
0.00111931
0.00111931
0.00111931
0.00111931
0.00111932
0.00111932
0.00111932
0.00111932
0.00111932
0.00111932
0.00111932
0.00111932
0.00111932
0.00111931
0.00111931
0.00111931
0.00111931
0.00111931
0.00111931
0.00111934
0.00111964
0.00112118
0.00109978
0.000630616
0.000630487
0.00109871
0.00111964
0.001118
0.00111769
0.00111766
0.00111766
0.00111766
0.00111766
0.00111766
0.00111767
0.00111767
0.00111767
0.00111767
0.00111767
0.00111767
0.00111767
0.00111767
0.00111767
0.00111767
0.00111767
0.00111767
0.00111767
0.00111767
0.00111767
0.00111767
0.00111767
0.00111766
0.00111767
0.00111769
0.001118
0.00111964
0.00109871
0.000630488
0.000630473
0.00109847
0.00111934
0.00111769
0.00111738
0.00111736
0.00111735
0.00111735
0.00111736
0.00111736
0.00111736
0.00111736
0.00111736
0.00111736
0.00111736
0.00111737
0.00111737
0.00111737
0.00111737
0.00111737
0.00111737
0.00111736
0.00111736
0.00111736
0.00111736
0.00111736
0.00111736
0.00111736
0.00111736
0.00111738
0.00111769
0.00111934
0.00109847
0.000630475
0.000630473
0.00109845
0.00111931
0.00111766
0.00111735
0.00111733
0.00111733
0.00111733
0.00111733
0.00111734
0.00111735
0.00111734
0.00111734
0.00111734
0.00111734
0.00111734
0.00111734
0.00111735
0.00111735
0.00111735
0.00111734
0.00111734
0.00111734
0.00111734
0.00111734
0.00111735
0.00111734
0.00111733
0.00111733
0.00111736
0.00111767
0.00111931
0.00109845
0.000630475
0.000630474
0.00109845
0.00111931
0.00111766
0.00111735
0.00111733
0.00111733
0.00111733
0.00111735
0.00111742
0.00111755
0.00111743
0.00111736
0.00111735
0.00111735
0.00111736
0.00111736
0.00111736
0.00111736
0.00111736
0.00111736
0.00111735
0.00111735
0.00111736
0.00111743
0.00111755
0.00111742
0.00111735
0.00111733
0.00111736
0.00111766
0.00111931
0.00109845
0.000630476
0.000630474
0.00109845
0.00111931
0.00111766
0.00111735
0.00111733
0.00111733
0.00111735
0.0011175
0.00111812
0.00111834
0.00111816
0.00111757
0.00111743
0.00111741
0.00111741
0.00111741
0.00111741
0.00111741
0.00111741
0.00111741
0.00111741
0.00111743
0.00111757
0.00111816
0.00111834
0.00111812
0.0011175
0.00111735
0.00111736
0.00111767
0.00111931
0.00109845
0.000630477
0.000630475
0.00109845
0.00111931
0.00111766
0.00111736
0.00111733
0.00111735
0.0011175
0.0011185
0.00111993
0.00109612
0.00112003
0.00111875
0.0011178
0.00111767
0.00111765
0.00111765
0.00111765
0.00111765
0.00111765
0.00111765
0.00111767
0.0011178
0.00111875
0.00112003
0.00109612
0.00111993
0.0011185
0.0011175
0.00111737
0.00111767
0.00111931
0.00109844
0.000630478
0.000630475
0.00109844
0.00111931
0.00111766
0.00111736
0.00111734
0.00111742
0.00111812
0.00111992
0.00107505
0.000632842
0.0010745
0.00111955
0.00111798
0.00111735
0.00111725
0.00111724
0.00111724
0.00111724
0.00111724
0.00111725
0.00111735
0.00111798
0.00111955
0.0010745
0.000632842
0.00107505
0.00111992
0.00111812
0.00111745
0.00111767
0.00111931
0.00109844
0.000630479
0.000630475
0.00109844
0.00111931
0.00111766
0.00111736
0.00111735
0.00111754
0.00111832
0.00109609
0.000632836
0.000631942
0.00108734
0.00110929
0.0011086
0.0011084
0.00110838
0.00110838
0.00110838
0.00110838
0.00110841
0.0011086
0.00110929
0.00108734
0.000631943
0.000632837
0.00109609
0.00111833
0.00111757
0.00111769
0.00111932
0.00109844
0.00063048
0.000630475
0.00109844
0.00111931
0.00111767
0.00111736
0.00111734
0.00111742
0.00111812
0.00111992
0.00107472
0.000632881
0.00107399
0.00111923
0.00111752
0.00111679
0.00111662
0.00111656
0.00111654
0.00111654
0.00111656
0.00111662
0.00111679
0.00111752
0.00111922
0.00107398
0.00063288
0.00107472
0.00111992
0.00111813
0.00111745
0.00111768
0.00111932
0.00109843
0.00063048
0.000630475
0.00109844
0.00111931
0.00111767
0.00111736
0.00111733
0.00111735
0.00111751
0.00111851
0.00111992
0.00109599
0.00111997
0.00111838
0.00111725
0.001117
0.0011169
0.00111686
0.00111684
0.00111684
0.00111686
0.0011169
0.001117
0.00111725
0.00111838
0.00111996
0.00109599
0.00111992
0.00111851
0.00111751
0.00111738
0.00111767
0.00111932
0.00109843
0.00063048
0.000630475
0.00109844
0.00111931
0.00111767
0.00111736
0.00111733
0.00111734
0.00111736
0.00111751
0.00111814
0.00111834
0.00111813
0.0011172
0.00111688
0.00111675
0.00111668
0.00111664
0.00111662
0.00111662
0.00111664
0.00111668
0.00111674
0.00111688
0.0011172
0.00111813
0.00111834
0.00111814
0.00111751
0.00111736
0.00111737
0.00111767
0.00111932
0.00109842
0.000630479
0.000630475
0.00109843
0.00111931
0.00111767
0.00111736
0.00111734
0.00111734
0.00111734
0.00111736
0.00111744
0.00111756
0.0011174
0.00111702
0.00111684
0.00111672
0.00111665
0.00111662
0.0011166
0.0011166
0.00111662
0.00111665
0.00111672
0.00111684
0.00111702
0.0011174
0.00111756
0.00111744
0.00111736
0.00111735
0.00111737
0.00111767
0.00111932
0.00109842
0.000630479
0.000630474
0.00109843
0.00111931
0.00111767
0.00111736
0.00111734
0.00111734
0.00111734
0.00111735
0.00111736
0.00111736
0.00111732
0.00111702
0.00111685
0.00111673
0.00111667
0.00111663
0.00111662
0.00111662
0.00111663
0.00111667
0.00111673
0.00111685
0.00111702
0.00111732
0.00111736
0.00111736
0.00111735
0.00111735
0.00111737
0.00111767
0.00111932
0.00109842
0.000630478
0.000630474
0.00109843
0.00111931
0.00111767
0.00111736
0.00111734
0.00111734
0.00111734
0.00111735
0.00111735
0.00111735
0.00111731
0.00111703
0.00111686
0.00111674
0.00111668
0.00111665
0.00111663
0.00111663
0.00111665
0.00111668
0.00111674
0.00111686
0.00111703
0.00111731
0.00111735
0.00111735
0.00111735
0.00111735
0.00111737
0.00111768
0.00111932
0.00109841
0.000630478
0.000630474
0.00109843
0.00111931
0.00111767
0.00111736
0.00111734
0.00111734
0.00111734
0.00111735
0.00111735
0.00111735
0.00111732
0.00111703
0.00111687
0.00111675
0.00111669
0.00111665
0.00111664
0.00111664
0.00111665
0.00111669
0.00111675
0.00111686
0.00111703
0.00111731
0.00111735
0.00111735
0.00111735
0.00111735
0.00111737
0.00111768
0.00111932
0.00109841
0.000630477
0.000630473
0.00109843
0.00111931
0.00111767
0.00111736
0.00111734
0.00111734
0.00111734
0.00111735
0.00111735
0.00111735
0.00111732
0.00111703
0.00111687
0.00111675
0.00111669
0.00111665
0.00111664
0.00111664
0.00111665
0.00111669
0.00111675
0.00111687
0.00111703
0.00111732
0.00111735
0.00111735
0.00111735
0.00111735
0.00111737
0.00111768
0.00111932
0.00109841
0.000630477
0.000630473
0.00109843
0.00111931
0.00111767
0.00111736
0.00111734
0.00111734
0.00111734
0.00111735
0.00111735
0.00111735
0.00111732
0.00111703
0.00111686
0.00111675
0.00111668
0.00111665
0.00111663
0.00111663
0.00111665
0.00111668
0.00111675
0.00111686
0.00111703
0.00111731
0.00111735
0.00111735
0.00111735
0.00111735
0.00111737
0.00111768
0.00111932
0.00109841
0.000630477
0.000630474
0.00109843
0.00111931
0.00111767
0.00111736
0.00111734
0.00111734
0.00111734
0.00111735
0.00111736
0.00111736
0.00111732
0.00111703
0.00111685
0.00111674
0.00111667
0.00111664
0.00111662
0.00111662
0.00111664
0.00111667
0.00111674
0.00111685
0.00111702
0.00111732
0.00111736
0.00111736
0.00111735
0.00111735
0.00111737
0.00111768
0.00111932
0.00109842
0.000630477
0.000630474
0.00109843
0.00111931
0.00111767
0.00111736
0.00111734
0.00111734
0.00111734
0.00111736
0.00111744
0.00111756
0.0011174
0.00111703
0.00111685
0.00111673
0.00111666
0.00111663
0.00111661
0.00111661
0.00111663
0.00111666
0.00111673
0.00111685
0.00111703
0.0011174
0.00111756
0.00111744
0.00111736
0.00111735
0.00111737
0.00111767
0.00111932
0.00109842
0.000630478
0.000630474
0.00109843
0.00111931
0.00111767
0.00111736
0.00111734
0.00111734
0.00111736
0.00111752
0.00111814
0.00111834
0.00111813
0.00111721
0.0011169
0.00111676
0.00111669
0.00111665
0.00111664
0.00111664
0.00111665
0.00111669
0.00111676
0.0011169
0.00111721
0.00111813
0.00111834
0.00111814
0.00111752
0.00111737
0.00111737
0.00111767
0.00111932
0.00109842
0.000630478
0.000630474
0.00109844
0.00111931
0.00111767
0.00111736
0.00111734
0.00111735
0.00111751
0.00111851
0.00111992
0.00109602
0.00111997
0.0011184
0.00111727
0.00111702
0.00111692
0.00111688
0.00111686
0.00111686
0.00111688
0.00111692
0.00111702
0.00111727
0.0011184
0.00111997
0.00109602
0.00111993
0.00111851
0.00111751
0.00111738
0.00111767
0.00111932
0.00109842
0.000630478
0.000630474
0.00109844
0.00111931
0.00111767
0.00111736
0.00111734
0.00111742
0.00111812
0.00111992
0.00107475
0.000632889
0.00107402
0.00111925
0.00111755
0.00111682
0.00111664
0.00111659
0.00111657
0.00111657
0.00111659
0.00111664
0.00111682
0.00111755
0.00111925
0.00107404
0.000632888
0.00107475
0.00111992
0.00111813
0.00111745
0.00111768
0.00111932
0.00109843
0.000630479
0.000630474
0.00109844
0.00111931
0.00111767
0.00111736
0.00111735
0.00111754
0.00111833
0.00109609
0.000632831
0.000631933
0.0010873
0.00110928
0.00110859
0.00110839
0.00110836
0.00110836
0.00110836
0.00110836
0.00110839
0.00110858
0.00110928
0.00108729
0.00063193
0.00063283
0.00109609
0.00111833
0.00111757
0.00111769
0.00111932
0.00109843
0.000630478
0.000630474
0.00109844
0.00111931
0.00111767
0.00111736
0.00111734
0.00111742
0.00111812
0.00111993
0.00107505
0.000632855
0.00107442
0.00111954
0.00111797
0.00111734
0.00111724
0.00111723
0.00111723
0.00111723
0.00111723
0.00111724
0.00111734
0.00111797
0.00111954
0.00107442
0.000632856
0.00107506
0.00111993
0.00111812
0.00111745
0.00111768
0.00111932
0.00109843
0.000630478
0.000630474
0.00109844
0.00111931
0.00111766
0.00111736
0.00111733
0.00111735
0.0011175
0.0011185
0.00111993
0.00109613
0.00112003
0.00111875
0.00111778
0.00111765
0.00111762
0.00111762
0.00111762
0.00111762
0.00111762
0.00111762
0.00111765
0.00111778
0.00111873
0.00112003
0.00109613
0.00111993
0.0011185
0.00111751
0.00111738
0.00111767
0.00111931
0.00109844
0.000630477
0.000630473
0.00109845
0.00111931
0.00111767
0.00111736
0.00111733
0.00111733
0.00111736
0.00111751
0.00111813
0.00111834
0.00111816
0.00111755
0.00111735
0.00111732
0.0011173
0.0011173
0.0011173
0.00111729
0.00111729
0.00111729
0.0011173
0.00111733
0.00111749
0.00111814
0.00111834
0.00111813
0.00111751
0.00111736
0.00111736
0.00111767
0.00111932
0.00109844
0.000630477
0.000630474
0.00109847
0.00111934
0.00111769
0.00111738
0.00111736
0.00111736
0.00111736
0.00111738
0.00111745
0.00111758
0.00111746
0.00111738
0.00111731
0.00111728
0.00111726
0.00111725
0.00111725
0.00111725
0.00111725
0.00111725
0.00111725
0.00111727
0.00111731
0.00111744
0.00111758
0.00111745
0.00111738
0.00111737
0.00111739
0.0011177
0.00111934
0.00109846
0.000630477
0.000630488
0.0010987
0.00111964
0.001118
0.00111769
0.00111767
0.00111767
0.00111767
0.00111767
0.00111768
0.00111769
0.00111768
0.00111768
0.00111766
0.00111766
0.00111766
0.00111766
0.00111766
0.00111766
0.00111766
0.00111766
0.00111766
0.00111766
0.00111766
0.00111768
0.00111769
0.00111768
0.00111767
0.00111767
0.0011177
0.001118
0.00111964
0.0010987
0.00063049
0.000630616
0.00109978
0.00112118
0.00111964
0.00111934
0.00111931
0.00111931
0.00111932
0.00111932
0.00111932
0.00111932
0.00111932
0.00111932
0.00111932
0.00111932
0.00111932
0.00111932
0.00111932
0.00111932
0.00111932
0.00111932
0.00111932
0.00111932
0.00111932
0.00111932
0.00111932
0.00111932
0.00111932
0.00111932
0.00111934
0.00111964
0.00112119
0.00109977
0.000630618
0.000631168
0.00107874
0.00109978
0.0010987
0.00109847
0.00109845
0.00109845
0.00109844
0.00109844
0.00109844
0.00109843
0.00109842
0.00109841
0.00109839
0.00109838
0.00109837
0.00109837
0.00109837
0.00109837
0.00109837
0.00109837
0.00109838
0.00109839
0.0010984
0.00109841
0.00109843
0.00109843
0.00109844
0.00109844
0.00109847
0.0010987
0.00109977
0.00107874
0.000631169
0.000629871
0.000631168
0.000630617
0.000630489
0.000630476
0.000630476
0.000630478
0.000630479
0.000630481
0.000630484
0.000630486
0.000630488
0.000630489
0.000630489
0.000630489
0.000630488
0.000630487
0.000630486
0.000630486
0.000630486
0.000630487
0.000630488
0.000630488
0.000630489
0.000630488
0.000630486
0.000630484
0.000630482
0.00063048
0.000630479
0.000630491
0.000630619
0.00063117
0.000629873
0.000639876
0.000641504
0.000640834
0.00064067
0.000640652
0.000640651
0.000640651
0.000640651
0.000640652
0.000640652
0.000640652
0.000640653
0.000640653
0.000640654
0.000640654
0.000640654
0.000640654
0.000640654
0.000640654
0.000640654
0.000640654
0.000640654
0.000640654
0.000640653
0.000640653
0.000640652
0.000640652
0.000640652
0.000640651
0.000640653
0.000640671
0.000640834
0.000641504
0.000639877
0.000641504
0.001172
0.00120085
0.00119958
0.00119927
0.00119924
0.00119923
0.00119923
0.00119923
0.00119923
0.00119923
0.00119922
0.00119922
0.00119922
0.00119921
0.00119921
0.00119921
0.00119921
0.00119921
0.00119921
0.00119921
0.00119921
0.00119922
0.00119922
0.00119922
0.00119922
0.00119923
0.00119923
0.00119923
0.00119926
0.00119958
0.00120085
0.001172
0.000641505
0.000640834
0.00120086
0.00123114
0.00122927
0.00122886
0.00122882
0.00122882
0.00122882
0.00122882
0.00122882
0.00122882
0.00122882
0.00122882
0.00122882
0.00122882
0.00122882
0.00122882
0.00122882
0.00122882
0.00122882
0.00122882
0.00122882
0.00122882
0.00122882
0.00122882
0.00122882
0.00122882
0.00122882
0.00122882
0.00122886
0.00122927
0.00123114
0.00120086
0.000640835
0.000640671
0.00119959
0.00122927
0.00122727
0.00122684
0.0012268
0.0012268
0.0012268
0.0012268
0.0012268
0.0012268
0.0012268
0.0012268
0.0012268
0.0012268
0.0012268
0.0012268
0.0012268
0.0012268
0.0012268
0.0012268
0.0012268
0.0012268
0.0012268
0.0012268
0.0012268
0.0012268
0.0012268
0.0012268
0.00122684
0.00122727
0.00122927
0.00119959
0.000640672
0.000640653
0.00119927
0.00122886
0.00122684
0.00122642
0.00122638
0.00122638
0.00122638
0.00122638
0.00122638
0.00122638
0.00122638
0.00122638
0.00122638
0.00122638
0.00122638
0.00122638
0.00122638
0.00122638
0.00122638
0.00122638
0.00122638
0.00122638
0.00122638
0.00122638
0.00122638
0.00122638
0.00122638
0.00122638
0.00122642
0.00122684
0.00122886
0.00119927
0.000640655
0.000640652
0.00119924
0.00122882
0.0012268
0.00122638
0.00122634
0.00122634
0.00122634
0.00122634
0.00122635
0.00122637
0.00122635
0.00122634
0.00122634
0.00122634
0.00122634
0.00122634
0.00122634
0.00122634
0.00122634
0.00122634
0.00122634
0.00122634
0.00122634
0.00122635
0.00122637
0.00122635
0.00122634
0.00122634
0.00122638
0.0012268
0.00122882
0.00119924
0.000640654
0.000640653
0.00119924
0.00122882
0.0012268
0.00122638
0.00122634
0.00122634
0.00122634
0.00122636
0.00122646
0.00122663
0.00122648
0.00122639
0.00122638
0.00122638
0.00122637
0.00122637
0.00122637
0.00122637
0.00122637
0.00122638
0.00122638
0.00122638
0.00122639
0.00122648
0.00122663
0.00122646
0.00122636
0.00122634
0.00122638
0.0012268
0.00122882
0.00119923
0.000640655