/*--------------------------------*- C++ -*----------------------------------*\
| =========                 |                                                 |
| \\      /  F ield         | OpenFOAM: The Open Source CFD Toolbox           |
|  \\    /   O peration     | Version:  2112                                  |
|   \\  /    A nd           | Website:  www.openfoam.com                      |
|    \\/     M anipulation  |                                                 |
\*---------------------------------------------------------------------------*/
FoamFile
{
    version     2.0;
    format      ascii;
    arch        "LSB;label=32;scalar=64";
    class       volScalarField;
    location    "0.2";
    object      p;
}
// * * * * * * * * * * * * * * * * * * * * * * * * * * * * * * * * * * * * * //

dimensions      [0 2 -2 0 0 0 0];

internalField   nonuniform List<scalar> 
64906
(
-2.9121e-05
-2.91723e-05
-2.93107e-05
-2.95411e-05
-2.98597e-05
-3.02623e-05
-3.07446e-05
-3.13016e-05
-3.19246e-05
-3.26036e-05
-3.33171e-05
-3.4046e-05
-3.47506e-05
-3.54029e-05
-3.59716e-05
-3.64347e-05
-3.67737e-05
-3.69772e-05
-3.70397e-05
-3.69614e-05
-3.67489e-05
-3.64145e-05
-3.59772e-05
-3.54598e-05
-3.48944e-05
-3.43091e-05
-3.37441e-05
-3.32184e-05
-3.27535e-05
-3.23597e-05
-3.20464e-05
-3.18201e-05
-3.16865e-05
-3.16348e-05
-2.91638e-05
-2.9155e-05
-2.92731e-05
-2.94962e-05
-2.98106e-05
-3.021e-05
-3.069e-05
-3.12465e-05
-3.18712e-05
-3.25558e-05
-3.32764e-05
-3.40168e-05
-3.47296e-05
-3.53888e-05
-3.5961e-05
-3.64258e-05
-3.67652e-05
-3.69687e-05
-3.70311e-05
-3.69527e-05
-3.67397e-05
-3.64034e-05
-3.59626e-05
-3.54383e-05
-3.48648e-05
-3.42681e-05
-3.36963e-05
-3.31651e-05
-3.26988e-05
-3.23059e-05
-3.19964e-05
-3.1779e-05
-3.16722e-05
-3.17005e-05
-2.93783e-05
-2.93505e-05
-2.94679e-05
-2.97026e-05
-3.00379e-05
-3.04669e-05
-3.09862e-05
-3.15946e-05
-3.22854e-05
-3.3056e-05
-3.38758e-05
-3.47363e-05
-3.55595e-05
-3.63193e-05
-3.69723e-05
-3.74992e-05
-3.78801e-05
-3.81051e-05
-3.81688e-05
-3.80715e-05
-3.78197e-05
-3.74241e-05
-3.69055e-05
-3.62839e-05
-3.56037e-05
-3.4891e-05
-3.42252e-05
-3.36135e-05
-3.30873e-05
-3.26497e-05
-3.23099e-05
-3.2076e-05
-3.19698e-05
-3.20232e-05
-2.97442e-05
-2.97112e-05
-2.98411e-05
-3.01029e-05
-3.04789e-05
-3.09629e-05
-3.15536e-05
-3.22554e-05
-3.30652e-05
-3.39934e-05
-3.49977e-05
-3.60905e-05
-3.71216e-05
-3.80688e-05
-3.88705e-05
-3.95113e-05
-3.99683e-05
-4.02329e-05
-4.02991e-05
-4.01673e-05
-3.98443e-05
-3.93399e-05
-3.86781e-05
-3.78748e-05
-3.69935e-05
-3.6056e-05
-3.52153e-05
-3.44558e-05
-3.38215e-05
-3.33027e-05
-3.29057e-05
-3.26347e-05
-3.25118e-05
-3.25726e-05
-3.02549e-05
-3.0218e-05
-3.03691e-05
-3.06716e-05
-3.11063e-05
-3.16684e-05
-3.23595e-05
-3.31926e-05
-3.41726e-05
-3.53381e-05
-3.66276e-05
-3.81153e-05
-3.94793e-05
-4.07196e-05
-4.17461e-05
-4.2558e-05
-4.31287e-05
-4.34521e-05
-4.3522e-05
-4.33386e-05
-4.29093e-05
-4.22411e-05
-4.13619e-05
-4.02735e-05
-3.90689e-05
-3.77464e-05
-3.66349e-05
-3.56522e-05
-3.48628e-05
-3.42288e-05
-3.37504e-05
-3.34248e-05
-3.32744e-05
-3.33421e-05
-3.09002e-05
-3.08586e-05
-3.10386e-05
-3.13952e-05
-3.19072e-05
-3.257e-05
-3.33881e-05
-3.43864e-05
-3.55829e-05
-3.70734e-05
-3.87726e-05
-4.09312e-05
-4.28027e-05
-4.44738e-05
-4.58173e-05
-4.68699e-05
-4.75995e-05
-4.80053e-05
-4.80802e-05
-4.78243e-05
-4.72459e-05
-4.63464e-05
-4.51597e-05
-4.36499e-05
-4.19495e-05
-3.99673e-05
-3.84678e-05
-3.71779e-05
-3.61909e-05
-3.54116e-05
-3.48292e-05
-3.44324e-05
-3.42455e-05
-3.43227e-05
-3.16704e-05
-3.16232e-05
-3.18405e-05
-3.22664e-05
-3.28762e-05
-3.36637e-05
-3.46344e-05
-3.58246e-05
-3.72711e-05
-3.91826e-05
-4.14212e-05
-4.48044e-05
-4.74386e-05
-4.97202e-05
-5.14912e-05
-5.28704e-05
-5.38158e-05
-5.43338e-05
-5.44153e-05
-5.40605e-05
-5.32791e-05
-5.20649e-05
-5.0462e-05
-4.83518e-05
-4.5902e-05
-4.27036e-05
-4.07007e-05
-3.90107e-05
-3.77955e-05
-3.68463e-05
-3.61379e-05
-3.56515e-05
-3.54173e-05
-3.55067e-05
-3.25528e-05
-3.24998e-05
-3.27651e-05
-3.32795e-05
-3.40138e-05
-3.4957e-05
-3.61092e-05
-3.75022e-05
-3.91869e-05
-4.15198e-05
-4.43355e-05
-5.01162e-05
-5.3806e-05
-5.69092e-05
-5.92442e-05
-6.10653e-05
-6.2306e-05
-6.29781e-05
-6.30687e-05
-6.25777e-05
-6.15181e-05
-5.98774e-05
-5.77233e-05
-5.48001e-05
-5.13076e-05
-4.57077e-05
-4.31955e-05
-4.11035e-05
-3.96732e-05
-3.85435e-05
-3.76822e-05
-3.70802e-05
-3.67822e-05
-3.68847e-05
-3.353e-05
-3.34714e-05
-3.37969e-05
-3.44224e-05
-3.53148e-05
-3.64562e-05
-3.78336e-05
-3.9446e-05
-4.12947e-05
-4.40648e-05
-4.71468e-05
-5.80609e-05
-6.2933e-05
-6.70541e-05
-7.01007e-05
-7.24956e-05
-7.4131e-05
-7.50103e-05
-7.51135e-05
-7.44401e-05
-7.30095e-05
-7.08157e-05
-6.79658e-05
-6.40284e-05
-5.93644e-05
-4.8592e-05
-4.59599e-05
-4.34298e-05
-4.18563e-05
-4.05252e-05
-3.94659e-05
-3.87092e-05
-3.83235e-05
-3.84384e-05
-3.45802e-05
-3.4518e-05
-3.49201e-05
-3.56893e-05
-3.67948e-05
-3.82192e-05
-3.99452e-05
-4.18646e-05
-4.3932e-05
-4.70353e-05
-4.35964e-05
-6.83663e-05
-7.4431e-05
-7.99751e-05
-8.40897e-05
-8.73014e-05
-8.95006e-05
-9.06681e-05
-9.07883e-05
-8.98605e-05
-8.7899e-05
-8.49188e-05
-8.10247e-05
-7.56721e-05
-6.98365e-05
-4.49529e-05
-4.91927e-05
-4.63211e-05
-4.45481e-05
-4.29224e-05
-4.15392e-05
-4.05454e-05
-4.00261e-05
-4.01451e-05
-3.56702e-05
-3.56049e-05
-3.60945e-05
-3.70295e-05
-3.83898e-05
-4.01754e-05
-4.23732e-05
-4.47979e-05
-4.70213e-05
-4.42105e-05
-9.55294e-05
-9.34719e-05
-9.78642e-05
-0.000102718
-0.000106693
-0.000109516
-0.00011101
-0.000111152
-0.000109942
-0.000107402
-0.0001037
-9.91022e-05
-9.49117e-05
-9.69728e-05
-4.71398e-05
-4.98839e-05
-4.78272e-05
-4.56672e-05
-4.38248e-05
-4.2514e-05
-4.18252e-05
-4.1945e-05
-3.67676e-05
-3.67027e-05
-3.72954e-05
-3.84337e-05
-4.01371e-05
-4.24988e-05
-4.57405e-05
-5.02215e-05
-5.70294e-05
-6.66744e-05
-9.10291e-05
-9.33692e-05
-0.000105061
-0.000114105
-0.000122026
-0.000127844
-0.00013176
-0.000133759
-0.000133925
-0.000132258
-0.000128675
-0.00012319
-0.000115607
-0.00010691
-9.55927e-05
-9.39271e-05
-6.95319e-05
-6.00937e-05
-5.35103e-05
-4.93235e-05
-4.64689e-05
-4.46336e-05
-4.36918e-05
-4.37931e-05
-3.78221e-05
-3.77545e-05
-3.84362e-05
-3.97448e-05
-4.17152e-05
-4.44691e-05
-4.82731e-05
-5.34704e-05
-6.08742e-05
-7.059e-05
-8.73815e-05
-9.88623e-05
-0.000113466
-0.000124906
-0.000134645
-0.000141589
-0.000146201
-0.000148528
-0.000148713
-0.000146757
-0.000142518
-0.000135948
-0.000126592
-0.000115533
-0.000101305
-9.02646e-05
-7.36813e-05
-6.41777e-05
-5.70164e-05
-5.21339e-05
-4.87473e-05
-4.65704e-05
-4.5449e-05
-4.55502e-05
-3.88003e-05
-3.87298e-05
-3.94897e-05
-4.09461e-05
-4.31417e-05
-4.62118e-05
-5.04357e-05
-5.61406e-05
-6.4039e-05
-7.42231e-05
-8.87292e-05
-0.000102426
-0.000119261
-0.00013249
-0.000143609
-0.000151442
-0.000156609
-0.000159201
-0.000159403
-0.000157215
-0.000152454
-0.000145029
-0.000134326
-0.000121503
-0.000105077
-9.17313e-05
-7.74813e-05
-6.75374e-05
-5.9911e-05
-5.45472e-05
-5.07736e-05
-4.83293e-05
-4.7063e-05
-4.71665e-05
-3.96681e-05
-3.95933e-05
-4.04129e-05
-4.19803e-05
-4.43369e-05
-4.76175e-05
-5.20919e-05
-5.80661e-05
-6.61679e-05
-7.65203e-05
-9.04569e-05
-0.000105117
-0.00012319
-0.000137413
-0.000149361
-0.000157756
-0.000163286
-0.000166056
-0.000166272
-0.000163933
-0.000158837
-0.000150876
-0.000139367
-0.000125569
-0.000107919
-9.35903e-05
-7.9935e-05
-6.98435e-05
-6.20358e-05
-5.64265e-05
-5.24324e-05
-4.98212e-05
-4.84624e-05
-4.85769e-05
-4.04042e-05
-4.03256e-05
-4.11905e-05
-4.28409e-05
-4.5315e-05
-4.87436e-05
-5.33865e-05
-5.95361e-05
-6.7772e-05
-7.82491e-05
-9.21284e-05
-0.000107315
-0.000126077
-0.000140934
-0.000153434
-0.000162223
-0.000168014
-0.000170915
-0.000171144
-0.000168699
-0.000163365
-0.000155033
-0.000142991
-0.000128573
-0.000110244
-9.53896e-05
-8.18067e-05
-7.16044e-05
-6.36796e-05
-5.79145e-05
-5.3777e-05
-5.10535e-05
-4.96321e-05
-4.97576e-05
-4.09921e-05
-4.09111e-05
-4.1808e-05
-4.35168e-05
-4.60719e-05
-4.96011e-05
-5.43571e-05
-6.06268e-05
-6.89699e-05
-7.95722e-05
-9.3542e-05
-0.000109055
-0.000128252
-0.000143519
-0.000156386
-0.000165446
-0.000171423
-0.000174421
-0.000174662
-0.000172144
-0.000166647
-0.000158063
-0.000145671
-0.000130854
-0.000112099
-9.69217e-05
-8.32573e-05
-7.2939e-05
-6.49188e-05
-5.90476e-05
-5.48158e-05
-5.20183e-05
-5.05559e-05
-5.06897e-05
-4.14225e-05
-4.13414e-05
-4.226e-05
-4.40075e-05
-4.66167e-05
-5.02142e-05
-5.50504e-05
-6.14122e-05
-6.98534e-05
-8.05779e-05
-9.46802e-05
-0.000110425
-0.000129911
-0.000145454
-0.000158569
-0.000167821
-0.000173932
-0.000177003
-0.000177257
-0.00017469
-0.000169082
-0.000160325
-0.000147699
-0.000132616
-0.000113577
-9.81698e-05
-8.43767e-05
-7.39404e-05
-6.58279e-05
-5.98727e-05
-5.55718e-05
-5.27225e-05
-5.1231e-05
-5.13673e-05
-4.16903e-05
-4.16121e-05
-4.2543e-05
-4.43116e-05
-4.69513e-05
-5.05901e-05
-5.54809e-05
-6.19138e-05
-7.04468e-05
-8.12889e-05
-9.55362e-05
-0.000111453
-0.000131124
-0.000146843
-0.000160113
-0.000169491
-0.000175692
-0.000178817
-0.000179084
-0.000176491
-0.000170815
-0.000161953
-0.000149186
-0.000133934
-0.000114711
-9.91302e-05
-8.51902e-05
-7.46346e-05
-6.64298e-05
-6.04046e-05
-5.60524e-05
-5.31676e-05
-5.16557e-05
-5.17872e-05
-4.17946e-05
-4.17222e-05
-4.26561e-05
-4.44282e-05
-4.70746e-05
-5.07275e-05
-5.56465e-05
-6.21292e-05
-7.0748e-05
-8.17058e-05
-9.61163e-05
-0.000112156
-0.000131918
-0.00014772
-0.000161058
-0.000170499
-0.000176751
-0.000179912
-0.000180195
-0.000177597
-0.000171898
-0.000162993
-0.000150172
-0.000134844
-0.000115526
-9.98138e-05
-8.57018e-05
-7.50224e-05
-6.67248e-05
-6.06435e-05
-5.62577e-05
-5.33538e-05
-5.18296e-05
-5.19492e-05
-4.17394e-05
-4.16752e-05
-4.26016e-05
-4.43575e-05
-4.69835e-05
-5.06173e-05
-5.55301e-05
-6.20323e-05
-7.07269e-05
-8.18035e-05
-9.64368e-05
-0.000112549
-0.000132283
-0.000148056
-0.000161358
-0.000170794
-0.000177056
-0.000180234
-0.000180537
-0.000177958
-0.000172284
-0.000163411
-0.000150641
-0.000135346
-0.000116045
-0.000100243
-8.58919e-05
-7.5078e-05
-6.669e-05
-6.05753e-05
-5.61813e-05
-5.32802e-05
-5.17554e-05
-5.18571e-05
-4.15325e-05
-4.14779e-05
-4.23839e-05
-4.40991e-05
-4.66681e-05
-5.02342e-05
-5.50824e-05
-6.15436e-05
-7.02815e-05
-8.14855e-05
-9.65174e-05
-0.000112608
-0.00013211
-0.00014767
-0.000160778
-0.00017011
-0.00017632
-0.000179493
-0.00017982
-0.000177296
-0.000171717
-0.000162984
-0.00015043
-0.000135353
-0.000116263
-0.000100446
-8.56699e-05
-7.47048e-05
-6.62511e-05
-6.01551e-05
-5.5802e-05
-5.29409e-05
-5.14361e-05
-5.15171e-05
-4.11892e-05
-4.11449e-05
-4.20168e-05
-4.36645e-05
-4.61341e-05
-4.95708e-05
-5.42698e-05
-6.0586e-05
-6.92798e-05
-8.05519e-05
-9.6514e-05
-0.0001124
-0.000131187
-0.000146235
-0.000158912
-0.000168007
-0.000174091
-0.000177231
-0.000177591
-0.000175166
-0.000169772
-0.00016133
-0.000149237
-0.000134683
-0.00011627
-0.000100586
-8.48445e-05
-7.37793e-05
-6.53386e-05
-5.93561e-05
-5.51188e-05
-5.2348e-05
-5.08895e-05
-5.09486e-05
-4.07292e-05
-4.0694e-05
-4.15144e-05
-4.30597e-05
-4.53686e-05
-4.85723e-05
-5.29519e-05
-5.88703e-05
-6.71747e-05
-7.81523e-05
-9.67374e-05
-0.000111826
-0.00012894
-0.00014275
-0.000154495
-0.000163076
-0.000168883
-0.00017193
-0.000172334
-0.000170089
-0.000165059
-0.000157214
-0.000146106
-0.00013282
-0.000116022
-0.000100968
-8.25777e-05
-7.17675e-05
-6.36742e-05
-5.80465e-05
-5.4084e-05
-5.14957e-05
-5.01304e-05
-5.01746e-05
-4.01851e-05
-4.01595e-05
-4.09199e-05
-4.23452e-05
-4.44608e-05
-4.73715e-05
-5.13155e-05
-5.66608e-05
-6.45319e-05
-7.56709e-05
-0.000100652
-0.000109491
-0.00012464
-0.000136746
-0.000147216
-0.000155145
-0.000160605
-0.00016354
-0.000164
-0.000161986
-0.000157421
-0.000150355
-0.000140615
-0.000129114
-0.000114162
-0.000104942
-8.02821e-05
-6.92645e-05
-6.15399e-05
-5.64251e-05
-5.28399e-05
-5.04836e-05
-4.92325e-05
-4.92596e-05
-3.95868e-05
-3.95679e-05
-4.02549e-05
-4.15295e-05
-4.33799e-05
-4.582e-05
-4.88397e-05
-5.21973e-05
-5.5308e-05
-5.21584e-05
-0.000120718
-0.000119197
-0.000126505
-0.00013434
-0.000140954
-0.000145727
-0.000148413
-0.000148942
-0.000147323
-0.000143599
-0.000138035
-0.000131074
-0.000124623
-0.00012647
-5.7106e-05
-6.02829e-05
-5.7193e-05
-5.39783e-05
-5.12437e-05
-4.92873e-05
-4.82156e-05
-4.82421e-05
-3.89821e-05
-3.89739e-05
-3.9606e-05
-4.07744e-05
-4.24685e-05
-4.47125e-05
-4.75661e-05
-5.10592e-05
-5.54967e-05
-6.17856e-05
-6.6025e-05
-9.26172e-05
-0.000103427
-0.000113696
-0.000121937
-0.000128632
-0.000133311
-0.000135968
-0.000136565
-0.000135126
-0.000131671
-0.000126264
-0.000119086
-0.000109923
-9.90097e-05
-7.29517e-05
-6.76149e-05
-6.09153e-05
-5.62479e-05
-5.27543e-05
-5.00931e-05
-4.82568e-05
-4.72561e-05
-4.7256e-05
-3.83976e-05
-3.83994e-05
-3.89829e-05
-4.00587e-05
-4.16191e-05
-4.36991e-05
-4.63761e-05
-4.97823e-05
-5.41435e-05
-6.02448e-05
-6.9028e-05
-8.44485e-05
-9.47701e-05
-0.000104798
-0.00011279
-0.00011929
-0.00012378
-0.000126355
-0.000126997
-0.000125742
-0.0001226
-0.000117589
-0.000110773
-0.00010208
-9.14117e-05
-7.59251e-05
-6.62916e-05
-5.97231e-05
-5.50523e-05
-5.15684e-05
-4.90162e-05
-4.72801e-05
-4.63381e-05
-4.6315e-05
-3.7864e-05
-3.78766e-05
-3.8424e-05
-3.94309e-05
-4.08966e-05
-4.2867e-05
-4.54356e-05
-4.8765e-05
-5.31057e-05
-5.89856e-05
-6.6761e-05
-7.78912e-05
-8.77984e-05
-9.7998e-05
-0.000105987
-0.000112555
-0.000116979
-0.000119517
-0.00012019
-0.000119052
-0.000116088
-0.000111276
-0.000104534
-9.59272e-05
-8.54096e-05
-7.39423e-05
-6.52521e-05
-5.87925e-05
-5.40638e-05
-5.05988e-05
-4.81052e-05
-4.64287e-05
-4.552e-05
-4.54711e-05
-3.74013e-05
-3.74232e-05
-3.79411e-05
-3.88904e-05
-4.02733e-05
-4.21377e-05
-4.45748e-05
-4.77375e-05
-5.18255e-05
-5.72109e-05
-6.39823e-05
-7.27682e-05
-8.15678e-05
-9.08863e-05
-9.83828e-05
-0.000104387
-0.000108477
-0.000110843
-0.000111503
-0.000110509
-0.000107838
-0.000103472
-9.72987e-05
-8.95578e-05
-8.0121e-05
-7.09479e-05
-6.33503e-05
-5.74153e-05
-5.29538e-05
-4.96519e-05
-4.72738e-05
-4.56748e-05
-4.48046e-05
-4.47377e-05
-3.70284e-05
-3.70592e-05
-3.75551e-05
-3.84584e-05
-3.97714e-05
-4.1537e-05
-4.38331e-05
-4.67797e-05
-5.05157e-05
-5.52587e-05
-6.10335e-05
-6.80863e-05
-7.54141e-05
-8.31284e-05
-8.95006e-05
-9.46568e-05
-9.82347e-05
-0.00010033
-0.000100939
-0.000100098
-9.77942e-05
-9.40384e-05
-8.87824e-05
-8.23122e-05
-7.46601e-05
-6.7359e-05
-6.10079e-05
-5.58555e-05
-5.18336e-05
-4.87875e-05
-4.65616e-05
-4.50512e-05
-4.42214e-05
-4.41418e-05
-3.67626e-05
-3.68057e-05
-3.72897e-05
-3.81608e-05
-3.94202e-05
-4.1105e-05
-4.32783e-05
-4.60297e-05
-4.94525e-05
-5.36715e-05
-5.86774e-05
-6.45475e-05
-7.07165e-05
-7.7111e-05
-8.25497e-05
-8.6989e-05
-9.01289e-05
-9.19902e-05
-9.25514e-05
-9.18338e-05
-8.98369e-05
-8.65934e-05
-8.2116e-05
-7.66784e-05
-7.04166e-05
-6.44203e-05
-5.90428e-05
-5.45424e-05
-5.09229e-05
-4.81186e-05
-4.60354e-05
-4.4604e-05
-4.38057e-05
-4.3711e-05
-3.66171e-05
-3.66945e-05
-3.71848e-05
-3.80433e-05
-3.92754e-05
-4.09143e-05
-4.3012e-05
-4.56356e-05
-4.88481e-05
-5.27168e-05
-5.72139e-05
-6.23247e-05
-6.76749e-05
-7.30997e-05
-7.78324e-05
-8.17316e-05
-8.45417e-05
-8.6226e-05
-8.67471e-05
-8.61135e-05
-8.43359e-05
-8.14659e-05
-7.75657e-05
-7.28865e-05
-6.7622e-05
-6.24967e-05
-5.77916e-05
-5.37475e-05
-5.0414e-05
-4.77794e-05
-4.57922e-05
-4.44076e-05
-4.36129e-05
-4.347e-05
-3.66006e-05
-3.6779e-05
-3.7305e-05
-3.81792e-05
-3.94249e-05
-4.10771e-05
-4.31842e-05
-4.5805e-05
-4.89934e-05
-5.27969e-05
-5.71866e-05
-6.21145e-05
-6.72724e-05
-7.24467e-05
-7.70199e-05
-8.07956e-05
-8.35407e-05
-8.51905e-05
-8.57028e-05
-8.50803e-05
-8.33398e-05
-8.05397e-05
-7.67675e-05
-7.22606e-05
-6.72523e-05
-6.23373e-05
-5.77978e-05
-5.3855e-05
-5.05749e-05
-4.79604e-05
-4.59749e-05
-4.45781e-05
-4.37347e-05
-4.34392e-05
-2.91921e-05
-2.92677e-05
-2.94249e-05
-2.96701e-05
-3.00041e-05
-3.04243e-05
-3.09273e-05
-3.15086e-05
-3.21593e-05
-3.28702e-05
-3.36176e-05
-3.43841e-05
-3.51245e-05
-3.58112e-05
-3.64094e-05
-3.68964e-05
-3.7252e-05
-3.74645e-05
-3.75275e-05
-3.74414e-05
-3.72134e-05
-3.68563e-05
-3.63908e-05
-3.58405e-05
-3.52408e-05
-3.46195e-05
-3.40226e-05
-3.3467e-05
-3.29767e-05
-3.25607e-05
-3.22279e-05
-3.19823e-05
-3.18234e-05
-3.17351e-05
-2.92377e-05
-2.92695e-05
-2.94128e-05
-2.96552e-05
-2.99871e-05
-3.04063e-05
-3.09097e-05
-3.1494e-05
-3.215e-05
-3.2871e-05
-3.36284e-05
-3.44106e-05
-3.5161e-05
-3.58568e-05
-3.64597e-05
-3.69495e-05
-3.73061e-05
-3.7519e-05
-3.7582e-05
-3.74958e-05
-3.7267e-05
-3.69073e-05
-3.64374e-05
-3.58783e-05
-3.52689e-05
-3.46324e-05
-3.4026e-05
-3.34607e-05
-3.29656e-05
-3.25473e-05
-3.22151e-05
-3.19729e-05
-3.18324e-05
-3.18014e-05
-2.94694e-05
-2.94911e-05
-2.96398e-05
-2.9899e-05
-3.02572e-05
-3.07126e-05
-3.12634e-05
-3.19101e-05
-3.2644e-05
-3.34672e-05
-3.43389e-05
-3.52634e-05
-3.61415e-05
-3.6956e-05
-3.76541e-05
-3.82179e-05
-3.86241e-05
-3.88626e-05
-3.89272e-05
-3.88182e-05
-3.85429e-05
-3.81122e-05
-3.75505e-05
-3.68762e-05
-3.61435e-05
-3.53691e-05
-3.46542e-05
-3.39928e-05
-3.34267e-05
-3.29537e-05
-3.25835e-05
-3.23173e-05
-3.21684e-05
-3.21485e-05
-2.98507e-05
-2.98745e-05
-3.00416e-05
-3.03337e-05
-3.0739e-05
-3.12575e-05
-3.189e-05
-3.26436e-05
-3.35119e-05
-3.45155e-05
-3.5591e-05
-3.67826e-05
-3.78923e-05
-3.8921e-05
-3.97881e-05
-4.0483e-05
-4.09768e-05
-4.12608e-05
-4.1328e-05
-4.11787e-05
-4.08211e-05
-4.02647e-05
-3.95397e-05
-3.86573e-05
-3.77003e-05
-3.66665e-05
-3.57581e-05
-3.49265e-05
-3.42376e-05
-3.36704e-05
-3.32332e-05
-3.29208e-05
-3.27462e-05
-3.2721e-05
-3.03777e-05
-3.03993e-05
-3.05927e-05
-3.09316e-05
-3.14026e-05
-3.20082e-05
-3.27525e-05
-3.36538e-05
-3.47101e-05
-3.59821e-05
-3.73637e-05
-3.90031e-05
-4.0473e-05
-4.18299e-05
-4.29465e-05
-4.38342e-05
-4.44557e-05
-4.48061e-05
-4.4877e-05
-4.46688e-05
-4.41909e-05
-4.34492e-05
-4.24825e-05
-4.12799e-05
-3.99726e-05
-3.85011e-05
-3.73019e-05
-3.62161e-05
-3.5355e-05
-3.46569e-05
-3.41269e-05
-3.37498e-05
-3.35392e-05
-3.3516e-05
-3.10418e-05
-3.10581e-05
-3.12859e-05
-3.16863e-05
-3.22429e-05
-3.29601e-05
-3.38454e-05
-3.4932e-05
-3.62255e-05
-3.78656e-05
-3.96775e-05
-4.20724e-05
-4.40784e-05
-4.59142e-05
-4.73778e-05
-4.85354e-05
-4.93344e-05
-4.97771e-05
-4.9853e-05
-4.95624e-05
-4.89169e-05
-4.79149e-05
-4.66108e-05
-4.49389e-05
-4.31077e-05
-4.0892e-05
-3.92852e-05
-3.78491e-05
-3.67706e-05
-3.59074e-05
-3.52598e-05
-3.47991e-05
-3.45423e-05
-3.45263e-05
-3.18337e-05
-3.18428e-05
-3.21141e-05
-3.25924e-05
-3.32564e-05
-3.41108e-05
-3.51647e-05
-3.64674e-05
-3.80334e-05
-4.01592e-05
-4.25426e-05
-4.62985e-05
-4.90857e-05
-5.15883e-05
-5.35062e-05
-5.50246e-05
-5.6061e-05
-5.66279e-05
-5.67105e-05
-5.63089e-05
-5.54389e-05
-5.40879e-05
-5.2341e-05
-5.0012e-05
-4.74138e-05
-4.38461e-05
-4.17047e-05
-3.98036e-05
-3.84758e-05
-3.74191e-05
-3.66295e-05
-3.60647e-05
-3.57498e-05
-3.57454e-05
-3.27414e-05
-3.27417e-05
-3.30682e-05
-3.36452e-05
-3.44448e-05
-3.54692e-05
-3.67221e-05
-3.82492e-05
-4.00604e-05
-4.2636e-05
-4.56941e-05
-5.19971e-05
-5.5784e-05
-5.9146e-05
-6.16324e-05
-6.3628e-05
-6.49822e-05
-6.57155e-05
-6.5807e-05
-6.52567e-05
-6.40858e-05
-6.22728e-05
-5.99705e-05
-5.67904e-05
-5.3205e-05
-4.70889e-05
-4.43395e-05
-4.20089e-05
-4.04608e-05
-3.92027e-05
-3.82429e-05
-3.75459e-05
-3.71546e-05
-3.71651e-05
-3.37468e-05
-3.37364e-05
-3.41304e-05
-3.48286e-05
-3.5796e-05
-3.70282e-05
-3.85156e-05
-4.0264e-05
-4.21788e-05
-4.51628e-05
-4.85142e-05
-6.06711e-05
-6.52913e-05
-6.95219e-05
-7.26044e-05
-7.5159e-05
-7.68992e-05
-7.78374e-05
-7.79413e-05
-7.72105e-05
-7.56768e-05
-7.33248e-05
-7.04421e-05
-6.63958e-05
-6.19877e-05
-4.99742e-05
-4.70882e-05
-4.43511e-05
-4.27201e-05
-4.12586e-05
-4.00911e-05
-3.92258e-05
-3.87357e-05
-3.87655e-05
-3.48285e-05
-3.48079e-05
-3.52879e-05
-3.61431e-05
-3.73386e-05
-3.88713e-05
-4.0733e-05
-4.27675e-05
-4.48016e-05
-4.79061e-05
-4.15925e-05
-7.0678e-05
-7.58215e-05
-8.10745e-05
-8.50156e-05
-8.82989e-05
-9.05398e-05
-9.17314e-05
-9.18516e-05
-9.08999e-05
-8.88975e-05
-8.58457e-05
-8.21274e-05
-7.70655e-05
-7.21572e-05
-4.28858e-05
-5.00938e-05
-4.72239e-05
-4.54965e-05
-4.37641e-05
-4.22477e-05
-4.11238e-05
-4.04835e-05
-4.05269e-05
-3.59512e-05
-3.59181e-05
-3.64923e-05
-3.75213e-05
-3.8973e-05
-4.08549e-05
-4.31616e-05
-4.56932e-05
-4.77595e-05
-4.22687e-05
-0.000100857
-9.38392e-05
-9.71346e-05
-0.000101637
-0.000105235
-0.000107863
-0.000109271
-0.000109413
-0.00010829
-0.000105945
-0.000102619
-9.83763e-05
-9.52787e-05
-0.000102253
-4.52883e-05
-5.06603e-05
-4.87698e-05
-4.65159e-05
-4.45658e-05
-4.31302e-05
-4.2317e-05
-4.23823e-05
-3.70834e-05
-3.70421e-05
-3.77318e-05
-3.89844e-05
-4.08077e-05
-4.33106e-05
-4.67403e-05
-5.14124e-05
-5.86619e-05
-6.83147e-05
-9.50601e-05
-9.24616e-05
-0.000103634
-0.000112018
-0.000119361
-0.00012458
-0.00012815
-0.000129975
-0.000130142
-0.000128649
-0.000125413
-0.000120529
-0.000113529
-0.0001055
-9.47287e-05
-9.80742e-05
-7.12083e-05
-6.17702e-05
-5.47565e-05
-5.03882e-05
-4.73454e-05
-4.5333e-05
-4.42352e-05
-4.42962e-05
-3.81696e-05
-3.81157e-05
-3.89015e-05
-4.03333e-05
-4.24271e-05
-4.53146e-05
-4.92777e-05
-5.45822e-05
-6.21874e-05
-7.15861e-05
-8.8534e-05
-9.7744e-05
-0.000111532
-0.000121135
-0.000129698
-0.000135673
-0.000139735
-0.00014179
-0.000141974
-0.000140289
-0.000136599
-0.000130997
-0.000122817
-0.000113597
-0.000100213
-9.14479e-05
-7.4711e-05
-6.55376e-05
-5.81872e-05
-5.32082e-05
-4.96611e-05
-4.73081e-05
-4.60254e-05
-4.61082e-05
-3.91771e-05
-3.91128e-05
-3.99857e-05
-4.15788e-05
-4.39131e-05
-4.71376e-05
-5.15482e-05
-5.73962e-05
-6.54785e-05
-7.53492e-05
-8.97083e-05
-0.000101636
-0.000117204
-0.000128304
-0.000138126
-0.00014488
-0.000149448
-0.000151743
-0.000151944
-0.000150051
-0.000145888
-0.00013954
-0.000130135
-0.000119443
-0.000104303
-9.27318e-05
-7.86436e-05
-6.90256e-05
-6.12286e-05
-5.57332e-05
-5.17708e-05
-4.91249e-05
-4.76802e-05
-4.77772e-05
-4.00692e-05
-3.99942e-05
-4.09331e-05
-4.26463e-05
-4.51499e-05
-4.85933e-05
-5.32607e-05
-5.93867e-05
-6.76509e-05
-7.77488e-05
-9.15184e-05
-0.000104436
-0.000121132
-0.000133081
-0.000143652
-0.000150899
-0.000155798
-0.000158255
-0.00015847
-0.000156442
-0.000151975
-0.000145159
-0.000135029
-0.000123504
-0.000107251
-9.46722e-05
-8.12014e-05
-7.13773e-05
-6.34216e-05
-5.76725e-05
-5.34828e-05
-5.06575e-05
-4.9111e-05
-4.9229e-05
-4.08244e-05
-4.07414e-05
-4.17311e-05
-4.35356e-05
-4.61653e-05
-4.97679e-05
-5.46167e-05
-6.09379e-05
-6.93439e-05
-7.96127e-05
-9.32821e-05
-0.00010676
-0.000124113
-0.000136657
-0.000147764
-0.000155384
-0.000160536
-0.000163121
-0.000163349
-0.000161218
-0.000156522
-0.000149356
-0.000138709
-0.000126603
-0.000109705
-9.65637e-05
-8.321e-05
-7.32289e-05
-6.51492e-05
-5.92249e-05
-5.48788e-05
-5.19273e-05
-5.03083e-05
-5.04424e-05
-4.14257e-05
-4.13374e-05
-4.23631e-05
-4.42313e-05
-4.69476e-05
-5.06576e-05
-5.56273e-05
-6.20808e-05
-7.06009e-05
-8.10222e-05
-9.47658e-05
-0.000108592
-0.000126374
-0.000139313
-0.00015078
-0.000158663
-0.000163997
-0.000166678
-0.000166917
-0.000164716
-0.00015986
-0.00015245
-0.000141461
-0.00012897
-0.000111653
-9.81665e-05
-8.47485e-05
-7.46243e-05
-6.64427e-05
-6.04005e-05
-5.5952e-05
-5.29177e-05
-5.12512e-05
-5.13968e-05
-4.18633e-05
-4.17739e-05
-4.28235e-05
-4.47337e-05
-4.75072e-05
-5.12897e-05
-5.63445e-05
-6.28971e-05
-7.15205e-05
-8.20767e-05
-9.59489e-05
-0.000110018
-0.000128089
-0.000141301
-0.000153015
-0.000161087
-0.000166555
-0.000169309
-0.000169561
-0.000167312
-0.000162345
-0.000154765
-0.000143542
-0.000130789
-0.000113187
-9.94606e-05
-8.59182e-05
-7.56632e-05
-6.73844e-05
-6.12511e-05
-5.67285e-05
-5.36371e-05
-5.19376e-05
-5.20864e-05
-4.21322e-05
-4.20459e-05
-4.31085e-05
-4.50403e-05
-4.78448e-05
-5.16691e-05
-5.6779e-05
-6.34033e-05
-7.21189e-05
-8.27934e-05
-9.68109e-05
-0.000111053
-0.000129311
-0.000142698
-0.000154568
-0.000162766
-0.000168325
-0.000171132
-0.000171398
-0.000169122
-0.000164088
-0.000156402
-0.000145038
-0.000132117
-0.00011433
-0.000100428
-8.67385e-05
-7.63635e-05
-6.79921e-05
-6.17881e-05
-5.72135e-05
-5.40856e-05
-5.23645e-05
-5.25079e-05
-4.22315e-05
-4.21527e-05
-4.32171e-05
-4.51505e-05
-4.79595e-05
-5.17947e-05
-5.69289e-05
-6.35971e-05
-7.23941e-05
-8.31732e-05
-9.73578e-05
-0.000111716
-0.000130067
-0.000143541
-0.000155478
-0.000163742
-0.000169352
-0.000172195
-0.000172477
-0.000170196
-0.000165138
-0.00015741
-0.000145991
-0.00013299
-0.000115105
-0.000101079
-8.7214e-05
-7.6726e-05
-6.82658e-05
-6.20115e-05
-5.74069e-05
-5.42633e-05
-5.25318e-05
-5.26611e-05
-4.21653e-05
-4.2098e-05
-4.31524e-05
-4.50654e-05
-4.78494e-05
-5.16597e-05
-5.67809e-05
-6.34576e-05
-7.23239e-05
-8.31963e-05
-9.76173e-05
-0.000112032
-0.00013036
-0.000143821
-0.000155729
-0.000163997
-0.000169619
-0.000172481
-0.000172783
-0.00017052
-0.000165484
-0.000157778
-0.000146404
-0.000133422
-0.000115549
-0.000101448
-8.73301e-05
-7.67327e-05
-6.81884e-05
-6.19111e-05
-5.73051e-05
-5.41709e-05
-5.2443e-05
-5.25501e-05
-4.19416e-05
-4.18886e-05
-4.29183e-05
-4.47836e-05
-4.75028e-05
-5.12351e-05
-5.62798e-05
-6.28967e-05
-7.17985e-05
-8.27555e-05
-9.76137e-05
-0.000111986
-0.000130108
-0.000143394
-0.00015512
-0.000163303
-0.000168881
-0.000171742
-0.000172069
-0.000169856
-0.000164908
-0.000157323
-0.000146151
-0.000133349
-0.000115661
-0.000101566
-8.69854e-05
-7.62791e-05
-6.76765e-05
-6.14363e-05
-5.68832e-05
-5.38009e-05
-5.21004e-05
-5.21806e-05
-4.15764e-05
-4.15406e-05
-4.25312e-05
-4.43213e-05
-4.69341e-05
-5.05296e-05
-5.54198e-05
-6.18843e-05
-7.07615e-05
-8.17233e-05
-9.75359e-05
-0.000111704
-0.000129186
-0.000142099
-0.000153469
-0.000161483
-0.000166966
-0.000169809
-0.000170168
-0.000168039
-0.000163244
-0.000155882
-0.000145095
-0.000132679
-0.000115591
-0.000101629
-8.60591e-05
-7.53169e-05
-6.67078e-05
-6.05882e-05
-5.61562e-05
-5.31745e-05
-5.15273e-05
-5.15744e-05
-4.10896e-05
-4.10707e-05
-4.20021e-05
-4.36773e-05
-4.61144e-05
-4.9456e-05
-5.39977e-05
-6.00249e-05
-6.85182e-05
-7.91677e-05
-9.79045e-05
-0.000111028
-0.000127114
-0.000139044
-0.000149583
-0.000157184
-0.000162432
-0.000165204
-0.000165607
-0.000163636
-0.000159159
-0.000152292
-0.000142385
-0.000130986
-0.000115234
-0.000102141
-8.3624e-05
-7.3161e-05
-6.48962e-05
-5.91715e-05
-5.50441e-05
-5.22698e-05
-5.07312e-05
-5.07511e-05
-4.05165e-05
-4.05175e-05
-4.13835e-05
-4.29315e-05
-4.51735e-05
-4.82316e-05
-5.23693e-05
-5.78973e-05
-6.61659e-05
-7.72405e-05
-0.000103993
-0.00010864
-0.000123212
-0.000134619
-0.000144482
-0.000151799
-0.000156898
-0.000159654
-0.000160112
-0.000158273
-0.00015406
-0.000147605
-0.000138455
-0.000127673
-0.000113273
-0.000108203
-8.1856e-05
-7.09355e-05
-6.28386e-05
-5.7555e-05
-5.37744e-05
-5.12278e-05
-4.98053e-05
-4.97859e-05
-3.98861e-05
-3.99025e-05
-4.06837e-05
-4.2061e-05
-4.40085e-05
-4.65484e-05
-4.96821e-05
-5.31547e-05
-5.60595e-05
-4.97027e-05
-0.000127176
-0.000119737
-0.000125892
-0.000133332
-0.000139556
-0.000144111
-0.000146704
-0.00014723
-0.000145702
-0.000142183
-0.000137017
-0.000130413
-0.000125136
-0.000132536
-5.46304e-05
-6.10742e-05
-5.82064e-05
-5.4892e-05
-5.20429e-05
-4.99505e-05
-4.87392e-05
-4.87065e-05
-3.92519e-05
-3.92889e-05
-4.00104e-05
-4.12764e-05
-4.30704e-05
-4.54331e-05
-4.84358e-05
-5.20465e-05
-5.64763e-05
-6.28009e-05
-6.45298e-05
-9.50122e-05
-0.000104884
-0.000115009
-0.000123042
-0.000129828
-0.000134532
-0.000137211
-0.000137803
-0.000136341
-0.00013284
-0.000127364
-0.00012034
-0.00011143
-0.000101295
-7.16219e-05
-6.86768e-05
-6.19605e-05
-5.72959e-05
-5.36948e-05
-5.0883e-05
-4.88955e-05
-4.77519e-05
-4.76715e-05
-3.86387e-05
-3.86924e-05
-3.93571e-05
-4.05177e-05
-4.21618e-05
-4.43395e-05
-4.71333e-05
-5.06716e-05
-5.51197e-05
-6.14299e-05
-7.04551e-05
-8.70824e-05
-9.69998e-05
-0.000107116
-0.000114927
-0.000121473
-0.00012596
-0.000128551
-0.000129176
-0.000127881
-0.000124679
-0.000119606
-0.000112853
-0.000104266
-9.38634e-05
-7.73732e-05
-6.74793e-05
-6.07427e-05
-5.59899e-05
-5.23889e-05
-4.97208e-05
-4.7859e-05
-4.67911e-05
-4.66798e-05
-3.80797e-05
-3.81498e-05
-3.87725e-05
-3.98559e-05
-4.13974e-05
-4.34585e-05
-4.61387e-05
-4.96079e-05
-5.40909e-05
-6.01922e-05
-6.81548e-05
-7.98177e-05
-8.96073e-05
-0.000100164
-0.000108059
-0.000114463
-0.00011883
-0.000121363
-0.000122015
-0.000120843
-0.000117833
-0.000112992
-0.000106259
-9.78176e-05
-8.71236e-05
-7.53533e-05
-6.64504e-05
-5.98182e-05
-5.4954e-05
-5.13633e-05
-4.87583e-05
-4.69652e-05
-4.59386e-05
-4.57936e-05
-3.75938e-05
-3.76768e-05
-3.82636e-05
-3.928e-05
-4.07278e-05
-4.2669e-05
-4.51995e-05
-4.84809e-05
-5.26953e-05
-5.82801e-05
-6.51662e-05
-7.43154e-05
-8.30596e-05
-9.26686e-05
-9.99239e-05
-0.000105891
-0.000109919
-0.000112268
-0.000112904
-0.000111888
-0.000109195
-0.000104837
-9.86683e-05
-9.10369e-05
-8.14562e-05
-7.21435e-05
-6.44051e-05
-5.83194e-05
-5.37401e-05
-5.03338e-05
-4.78628e-05
-4.61635e-05
-4.51868e-05
-4.50208e-05
-3.71997e-05
-3.72925e-05
-3.78512e-05
-3.88133e-05
-4.01817e-05
-4.20119e-05
-4.43855e-05
-4.7428e-05
-5.12653e-05
-5.61486e-05
-6.20079e-05
-6.92713e-05
-7.65646e-05
-8.43763e-05
-9.06269e-05
-9.57773e-05
-9.93148e-05
-0.000101399
-0.000101991
-0.000101133
-9.88102e-05
-9.50591e-05
-8.97927e-05
-8.33941e-05
-7.56865e-05
-6.83344e-05
-6.18861e-05
-5.66351e-05
-5.25216e-05
-4.93927e-05
-4.70901e-05
-4.54935e-05
-4.45678e-05
-4.43893e-05
-3.69122e-05
-3.70112e-05
-3.75505e-05
-3.84713e-05
-3.97761e-05
-4.15125e-05
-4.37469e-05
-4.65725e-05
-5.00742e-05
-5.43953e-05
-5.9474e-05
-6.54793e-05
-7.16591e-05
-7.81398e-05
-8.35406e-05
-8.79989e-05
-9.11273e-05
-9.29888e-05
-9.35401e-05
-9.28094e-05
-9.07917e-05
-8.75369e-05
-8.30294e-05
-7.7605e-05
-7.12716e-05
-6.52283e-05
-5.97701e-05
-5.51947e-05
-5.15034e-05
-4.86347e-05
-4.64903e-05
-4.49871e-05
-4.41057e-05
-4.39226e-05
-3.67382e-05
-3.68608e-05
-3.7396e-05
-3.82937e-05
-3.956e-05
-4.12369e-05
-4.33787e-05
-4.60544e-05
-4.93213e-05
-5.3255e-05
-5.77988e-05
-6.29771e-05
-6.83257e-05
-7.37794e-05
-7.84823e-05
-8.23882e-05
-8.51905e-05
-8.68747e-05
-8.73893e-05
-8.67473e-05
-8.49564e-05