/*--------------------------------*- C++ -*----------------------------------*\
| =========                 |                                                 |
| \\      /  F ield         | OpenFOAM: The Open Source CFD Toolbox           |
|  \\    /   O peration     | Version:  2112                                  |
|   \\  /    A nd           | Website:  www.openfoam.com                      |
|    \\/     M anipulation  |                                                 |
\*---------------------------------------------------------------------------*/
FoamFile
{
    version     2.0;
    format      ascii;
    arch        "LSB;label=32;scalar=64";
    class       surfaceScalarField;
    location    "0.2";
    object      phi;
}
// * * * * * * * * * * * * * * * * * * * * * * * * * * * * * * * * * * * * * //

dimensions      [0 3 -1 0 0 0 0];

oriented        oriented;

internalField   nonuniform List<scalar> 
188215
(
1.29733e-09
3.19962e-09
-4.49695e-09
2.73604e-09
3.38803e-09
-4.82675e-09
4.14199e-09
3.60482e-09
-5.01077e-09
5.50104e-09
3.92732e-09
-5.28637e-09
6.80323e-09
4.36506e-09
-5.66725e-09
8.03516e-09
4.92308e-09
-6.15501e-09
9.17763e-09
5.60894e-09
-6.75141e-09
1.01954e-08
6.43709e-09
-7.45489e-09
1.10415e-08
7.41504e-09
-8.2611e-09
1.16208e-08
8.57284e-09
-9.15213e-09
1.1853e-08
9.87529e-09
-1.01075e-08
1.15753e-08
1.13583e-08
-1.10806e-08
1.0782e-08
1.28226e-08
-1.20293e-08
9.47073e-09
1.4211e-08
-1.28997e-08
7.70844e-09
1.54149e-08
-1.36527e-08
5.57952e-09
1.63809e-08
-1.4252e-08
3.19726e-09
1.7056e-08
-1.46738e-08
6.8772e-10
1.74109e-08
-1.49014e-08
-1.8143e-09
1.74293e-08
-1.49273e-08
-4.17404e-09
1.71112e-08
-1.47515e-08
-6.26502e-09
1.64734e-08
-1.43824e-08
-7.97342e-09
1.55456e-08
-1.38372e-08
-9.21469e-09
1.43817e-08
-1.31404e-08
-9.92184e-09
1.30361e-08
-1.2329e-08
-1.0099e-08
1.16198e-08
-1.14427e-08
-9.75268e-09
1.01906e-08
-1.05369e-08
-9.05037e-09
8.95219e-09
-9.6545e-09
-8.07287e-09
7.86657e-09
-8.84407e-09
-6.91787e-09
6.97256e-09
-8.12757e-09
-5.63452e-09
6.2421e-09
-7.52545e-09
-4.26055e-09
5.67129e-09
-7.04526e-09
-2.8168e-09
5.2498e-09
-6.69355e-09
-1.32673e-09
4.96542e-09
-6.45548e-09
4.69973e-09
-6.02646e-09
1.40727e-09
6.66262e-09
-4.87027e-09
3.04293e-09
7.14807e-09
-5.3957e-09
4.61942e-09
7.62461e-09
-5.59628e-09
6.1421e-09
8.31717e-09
-5.91254e-09
7.6106e-09
9.25626e-09
-6.35969e-09
9.01392e-09
1.04554e-08
-6.93566e-09
1.03351e-08
1.19321e-08
-7.6444e-09
1.15392e-08
1.37201e-08
-8.48701e-09
1.25754e-08
1.58414e-08
-9.4626e-09
1.33256e-08
1.8375e-08
-1.05523e-08
1.36878e-08
2.12485e-08
-1.17354e-08
1.34079e-08
2.45891e-08
-1.29509e-08
1.2502e-08
2.78687e-08
-1.41401e-08
1.09753e-08
3.09685e-08
-1.52308e-08
8.91835e-09
3.36448e-08
-1.61729e-08
6.43418e-09
3.57858e-08
-1.69208e-08
3.65644e-09
3.72793e-08
-1.74455e-08
7.31311e-10
3.80629e-08
-1.77269e-08
-2.18589e-09
3.81022e-08
-1.77557e-08
-4.9397e-09
3.73972e-08
-1.75322e-08
-7.38334e-09
3.59832e-08
-1.70662e-08
-9.38223e-09
3.39232e-08
-1.63786e-08
-1.08329e-08
3.13315e-08
-1.54991e-08
-1.16445e-08
2.83219e-08
-1.44742e-08
-1.18132e-08
2.51433e-08
-1.33547e-08
-1.13238e-08
2.19156e-08
-1.22144e-08
-1.04365e-08
1.91781e-08
-1.11132e-08
-9.25235e-09
1.67966e-08
-1.01142e-08
-7.89209e-09
1.48521e-08
-9.23983e-09
-6.40787e-09
1.32699e-08
-8.51199e-09
-4.83663e-09
1.20362e-08
-7.9361e-09
-3.18755e-09
1.11244e-08
-7.52369e-09
-1.45532e-09
1.0493e-08
-7.25982e-09
9.81067e-09
-6.56627e-09
1.62244e-09
1.00708e-08
-5.03064e-09
3.50349e-09
1.08371e-08
-5.57008e-09
5.32511e-09
1.15877e-08
-5.78471e-09
7.09916e-09
1.26807e-08
-6.13758e-09
8.83114e-09
1.41656e-08
-6.64129e-09
1.05164e-08
1.60666e-08
-7.29639e-09
1.2147e-08
1.84144e-08
-8.11296e-09
1.36927e-08
2.12723e-08
-9.09787e-09
1.51075e-08
2.46865e-08
-1.02599e-08
1.62224e-08
2.88387e-08
-1.15786e-08
1.69071e-08
3.3606e-08
-1.30422e-08
1.66408e-08
3.9413e-08
-1.45576e-08
1.5535e-08
4.50239e-08
-1.60495e-08
1.36141e-08
5.03015e-08
-1.74121e-08
1.10273e-08
5.48176e-08
-1.85861e-08
7.90962e-09
5.84159e-08
-1.95123e-08
4.43167e-09
6.09163e-08
-2.01591e-08
7.7268e-10
6.22243e-08
-2.05024e-08
-2.87813e-09
6.2285e-08
-2.0532e-08
-6.33121e-09
6.10987e-08
-2.02483e-08
-9.40633e-09
5.87204e-08
-1.96621e-08
-1.19312e-08
5.5246e-08
-1.8798e-08
-1.37696e-08
5.08584e-08
-1.76884e-08
-1.47704e-08
4.57164e-08
-1.63937e-08
-1.49115e-08
4.02581e-08
-1.49736e-08
-1.40797e-08
3.462e-08
-1.35363e-08
-1.28082e-08
3.00638e-08
-1.21572e-08
-1.12211e-08
2.6143e-08
-1.09334e-08
-9.48903e-09
2.29975e-08
-9.87741e-09
-7.65749e-09
2.0452e-08
-9.01367e-09
-5.75829e-09
1.84754e-08
-8.33841e-09
-3.78978e-09
1.70164e-08
-7.86047e-09
-1.73671e-09
1.60074e-08
-7.56746e-09
1.49207e-08
-6.84669e-09
1.95678e-09
1.33885e-08
-5.27447e-09
4.21052e-09
1.44302e-08
-5.84685e-09
6.4111e-09
1.5483e-08
-6.09591e-09
8.57669e-09
1.70241e-08
-6.50898e-09
1.07217e-08
1.91234e-08
-7.10288e-09
1.28534e-08
2.18193e-08
-7.88451e-09
1.49832e-08
2.51596e-08
-8.87489e-09
1.70986e-08
2.92483e-08
-1.00914e-08
1.91786e-08
3.41692e-08
-1.15627e-08
2.09798e-08
4.03034e-08
-1.32659e-08
2.23419e-08
4.74607e-08
-1.52167e-08
2.2086e-08
5.69253e-08
-1.72564e-08
2.06101e-08
6.57769e-08
-1.92771e-08
1.79992e-08
7.40222e-08
-2.11098e-08
1.45148e-08
8.09858e-08
-2.26838e-08
1.03401e-08
8.65051e-08
-2.39146e-08
5.70318e-09
9.03227e-08
-2.47694e-08
8.33435e-10
9.23121e-08
-2.52181e-08
-4.02794e-09
9.23957e-08
-2.52493e-08
-8.63919e-09
9.05732e-08
-2.48633e-08
-1.27691e-08
8.69224e-08
-2.4072e-08
-1.61869e-08
8.15704e-08
-2.29066e-08
-1.87064e-08
7.4778e-08
-2.14002e-08
-2.00621e-08
6.67108e-08
-1.96387e-08
-2.01716e-08
5.80604e-08
-1.76929e-08
-1.86301e-08
4.88141e-08
-1.57356e-08
-1.66448e-08
4.19521e-08
-1.38737e-08
-1.43572e-08
3.61275e-08
-1.22721e-08
-1.201e-08
3.15649e-08
-1.09146e-08
-9.62054e-09
2.7892e-08
-9.82954e-09
-7.20156e-09
2.50503e-08
-8.99387e-09
-4.73102e-09
2.29544e-08
-8.40854e-09
-2.18148e-09
2.15107e-08
-8.0529e-09
2.00139e-08
-7.27474e-09
2.42962e-09
1.65613e-08
-5.60238e-09
5.20639e-09
1.78887e-08
-6.23525e-09
7.94306e-09
1.92809e-08
-6.53457e-09
1.06664e-08
2.13325e-08
-7.03178e-09
1.34036e-08
2.41385e-08
-7.75225e-09
1.61813e-08
2.77541e-08
-8.71248e-09
1.9046e-08
3.22456e-08
-9.95066e-09
2.2034e-08
3.77618e-08
-1.15016e-08
2.52023e-08
4.44317e-08
-1.34308e-08
2.82367e-08
5.29813e-08
-1.57123e-08
3.10179e-08
6.31131e-08
-1.84337e-08
3.07033e-08
7.8546e-08
-2.1306e-08
2.85363e-08
9.21097e-08
-2.41659e-08
2.47748e-08
1.04517e-07
-2.67337e-08
1.98681e-08
1.14825e-07
-2.89327e-08
1.40544e-08
1.2295e-07
-3.06316e-08
7.63807e-09
1.28545e-07
-3.18064e-08
9.16779e-10
1.3145e-07
-3.24166e-08
-5.79622e-09
1.31559e-07
-3.24501e-08
-1.21867e-08
1.28871e-07
-3.19073e-08
-1.79546e-08
1.23491e-07
-3.08008e-08
-2.27903e-08
1.15578e-07
-2.91718e-08
-2.64507e-08
1.05483e-07
-2.70448e-08
-2.84776e-08
9.32907e-08
-2.4553e-08
-2.86166e-08
7.99712e-08
-2.17719e-08
-2.56031e-08
6.47886e-08
-1.89879e-08
-2.23531e-08
5.50622e-08
-1.63601e-08
-1.89328e-08
4.68974e-08
-1.41902e-08
-1.56526e-08
4.067e-08
-1.23853e-08
-1.2446e-08
3.56659e-08
-1.09805e-08
-9.27633e-09
3.17963e-08
-9.91573e-09
-6.08456e-09
2.89411e-08
-9.17851e-09
-2.82454e-09
2.69824e-08
-8.73167e-09
2.50414e-08
-7.85204e-09
3.05639e-09
1.95141e-08
-6.00926e-09
6.52981e-09
2.11357e-08
-6.72042e-09
9.98559e-09
2.29092e-08
-7.08407e-09
1.34627e-08
2.55443e-08
-7.68892e-09
1.70039e-08
2.91693e-08
-8.57199e-09
2.0661e-08
3.38601e-08
-9.76315e-09
2.4534e-08
3.96979e-08
-1.13253e-08
2.87655e-08
4.68497e-08
-1.33194e-08
3.36044e-08
5.54689e-08
-1.58761e-08
3.88247e-08
6.67236e-08
-1.89626e-08
4.46789e-08
8.00961e-08
-2.28372e-08
4.39824e-08
1.06202e-07
-2.69597e-08
4.04789e-08
1.26682e-07
-3.10686e-08
3.48419e-08
1.44862e-07
-3.47081e-08
2.77652e-08
1.59725e-07
-3.78232e-08
1.95092e-08
1.71393e-07
-4.01868e-08
1.04676e-08
1.79404e-07
-4.18175e-08
1.02511e-09
1.8355e-07
-4.26576e-08
-8.40981e-09
1.83688e-07
-4.26944e-08
-1.74273e-08
1.79817e-07
-4.19283e-08
-2.56391e-08
1.72075e-07
-4.03722e-08
-3.26439e-08
1.60668e-07
-3.8085e-08
-3.81721e-08
1.46059e-07
-3.50473e-08
-4.15133e-08
1.28121e-07
-3.14895e-08
-4.19956e-08
1.07916e-07
-2.74629e-08
-3.5817e-08
8.20458e-08
-2.34359e-08
-3.03584e-08
6.9262e-08
-1.96585e-08
-2.52192e-08
5.8455e-08
-1.66967e-08
-2.06205e-08
5.03486e-08
-1.42774e-08
-1.62972e-08
4.37905e-08
-1.24479e-08
-1.21056e-08
3.86876e-08
-1.10829e-08
-7.93068e-09
3.4915e-08
-1.01488e-08
-3.70147e-09
3.23373e-08
-9.58411e-09
2.99122e-08
-8.5722e-09
3.85745e-09
2.21436e-08
-6.48689e-09
8.22483e-09
2.40614e-08
-7.29306e-09
1.26131e-08
2.62558e-08
-7.73486e-09
1.70777e-08
2.95506e-08
-8.4708e-09
2.16766e-08
3.41227e-08
-9.55234e-09
2.64852e-08
4.00775e-08
-1.10261e-08
3.16672e-08
4.75024e-08
-1.29865e-08
3.75633e-08
5.64825e-08
-1.5529e-08
4.48215e-08
6.70979e-08
-1.88872e-08
5.37863e-08
8.07568e-08
-2.29981e-08
6.66257e-08
9.57459e-08
-2.84891e-08
6.43547e-08
1.42811e-07
-3.43375e-08
5.81115e-08
1.73082e-07
-4.01573e-08
4.94333e-08
1.98787e-07
-4.52464e-08
3.91298e-08
2.19658e-07
-4.96289e-08
2.73308e-08
2.36048e-07
-5.28559e-08
1.45105e-08
2.47314e-07
-5.50888e-08
1.16226e-09
2.53131e-07
-5.62329e-08
-1.218e-08
2.53305e-07
-5.62744e-08
-2.49811e-08
2.47831e-07
-5.52135e-08
-3.67434e-08
2.36901e-07
-5.30639e-08
-4.69822e-08
2.20828e-07
-4.99216e-08
-5.55525e-08
2.00252e-07
-4.56229e-08
-6.16118e-08
1.74803e-07
-4.06219e-08
-6.36227e-08
1.44813e-07
-3.48858e-08
-5.02867e-08
9.78498e-08
-2.914e-08
-4.11005e-08
8.38215e-08
-2.37457e-08
-3.34992e-08
7.0631e-08
-1.97773e-08
-2.71476e-08
6.0568e-08
-1.6571e-08
-2.13768e-08
5.22357e-08
-1.42161e-08
-1.58455e-08
4.56382e-08
-1.24819e-08
-1.0372e-08
4.07483e-08
-1.13068e-08
-4.86184e-09
3.74252e-08
-1.05981e-08
3.44743e-08
-9.42403e-09
4.85285e-09
2.43167e-08
-7.02593e-09
1.03385e-08
2.6519e-08
-7.94332e-09
1.59121e-08
2.91581e-08
-8.47599e-09
2.16519e-08
3.31751e-08
-9.36424e-09
2.76221e-08
3.88278e-08
-1.06753e-08
3.38868e-08
4.62869e-08
-1.24741e-08
4.06076e-08
5.56699e-08
-1.48883e-08
4.83546e-08
6.67933e-08
-1.80577e-08
5.845e-08
7.93657e-08
-2.23632e-08
7.40616e-08
9.28764e-08
-2.77312e-08
1.02711e-07
1.02255e-07
-3.51589e-08
9.50209e-08
1.93776e-07
-4.32749e-08
8.34072e-08
2.35865e-07
-5.11692e-08
7.00991e-08
2.70096e-07
-5.80011e-08
5.51987e-08
2.9854e-07
-6.39818e-08
3.83829e-08
3.21018e-07
-6.81541e-08
2.02096e-08
3.36567e-07
-7.10806e-08
1.33436e-09
3.44587e-07
-7.25808e-08
-1.75379e-08
3.44805e-07
-7.26282e-08
-3.57011e-08
3.37217e-07
-7.1223e-08
-5.2497e-08
3.22088e-07
-6.83908e-08
-6.73564e-08
3.00001e-07
-6.43139e-08
-8.05829e-08
2.71902e-07
-5.84232e-08
-9.20133e-08
2.37918e-07
-5.16853e-08
-9.93714e-08
1.96045e-07
-4.38742e-08
-6.99205e-08
1.04265e-07
-3.58658e-08
-5.42018e-08
9.6637e-08
-2.85342e-08
-4.37259e-08
8.34846e-08
-2.33296e-08
-3.54196e-08
7.14523e-08
-1.91906e-08
-2.79351e-08
6.09874e-08
-1.62361e-08
-2.07047e-08
5.249e-08
-1.40823e-08
-1.35452e-08
4.62202e-08
-1.26314e-08
-6.37057e-09
4.20081e-08
-1.17574e-08
3.84955e-08
-1.03917e-08
6.04976e-09
2.58825e-08
-7.61565e-09
1.28935e-08
2.83351e-08
-8.6598e-09
1.99369e-08
3.1411e-08
-9.29633e-09
2.72955e-08
3.6175e-08
-1.03585e-08
3.50319e-08
4.30209e-08
-1.19295e-08
4.3134e-08
5.22758e-08
-1.4091e-08
5.15925e-08
6.42051e-08
-1.69937e-08
6.10303e-08
7.81745e-08
-2.0819e-08
7.36318e-08
9.29378e-08
-2.61737e-08
9.96439e-08
9.96486e-08
-3.27843e-08
1.62077e-07
8.17872e-08
-4.19646e-08
1.40149e-07
2.65777e-07
-5.00744e-08
1.18229e-07
3.17342e-07
-5.95567e-08
9.81907e-08
3.58063e-07
-6.79279e-08
7.71757e-08
3.9501e-07
-7.54548e-08
5.35834e-08
4.24775e-07
-8.01646e-08
2.80592e-08
4.45701e-07
-8.36095e-08
1.55067e-09
4.56491e-07
-8.53952e-08
-2.49591e-08
4.56763e-07
-8.5448e-08
-5.04873e-08
4.46514e-07
-8.37683e-08
-7.40894e-08
4.26117e-07
-8.0427e-08
-9.51149e-08
3.9685e-07
-7.5823e-08
-1.15155e-07
3.60331e-07
-6.83893e-08
-1.36987e-07
3.19866e-07
-6.01157e-08
-1.5845e-07
2.6822e-07
-5.0711e-08
-9.46424e-08
8.31931e-08
-4.27357e-08
-6.87977e-08
1.04422e-07
-3.36294e-08
-5.58337e-08
9.77226e-08
-2.72019e-08
-4.57272e-08
8.33816e-08
-2.20358e-08
-3.62814e-08
7.00039e-08
-1.84624e-08
-2.69018e-08
5.89724e-08
-1.5862e-08
-1.75741e-08
5.09989e-08
-1.41064e-08
-8.27776e-09
4.57582e-08
-1.30464e-08
4.16776e-08
-1.14599e-08
7.45454e-09
2.66676e-08
-8.23955e-09
1.5917e-08
2.9296e-08
-9.42343e-09
2.47791e-08
3.27209e-08
-1.0172e-08
3.42438e-08
3.81303e-08
-1.14201e-08
4.44003e-08
4.61255e-08
-1.32611e-08
5.5029e-08
5.74278e-08
-1.57806e-08
6.54248e-08
7.29103e-08
-1.9101e-08
7.38791e-08
9.32121e-08
-2.34919e-08
7.87475e-08
1.17702e-07
-2.96321e-08
1.00118e-07
1.16354e-07
-3.80762e-08
2.34856e-07
-5.29511e-08
1.9216e-07
3.59304e-07
-5.08301e-08
1.61181e-07
4.06455e-07
-5.81343e-08
1.35263e-07
4.49164e-07
-6.51836e-08
1.07017e-07
4.95049e-07
-7.1793e-08
7.43654e-08
5.32848e-07
-7.54218e-08
3.87772e-08
5.5967e-07
-7.83808e-08
1.82012e-09
5.73455e-07
-8.00072e-08
-3.51413e-08
5.73783e-07
-8.00587e-08
-7.07459e-08
5.60653e-07
-7.85348e-08
-1.0344e-07
5.34484e-07
-7.56731e-08
-1.31767e-07
4.97324e-07
-7.21463e-08
-1.57865e-07
4.52045e-07
-6.56162e-08
-1.89172e-07
4.09825e-07
-5.86521e-08
-2.31732e-07
3.62209e-07
-5.14293e-08
-9.46491e-08
-5.38895e-08
-7.31887e-08
1.21872e-07
-3.8911e-08
-6.82042e-08
1.23438e-07
-3.06996e-08
-5.89281e-08
9.88937e-08
-2.47882e-08
-4.72458e-08
7.90133e-08
-2.06917e-08
-3.49526e-08
6.44006e-08
-1.77214e-08
-2.27137e-08
5.44331e-08
-1.56732e-08
-1.06882e-08
4.81592e-08
-1.44265e-08
4.3584e-08
-1.25946e-08
9.00512e-09
2.65464e-08
-8.88399e-09
1.928e-08
2.92401e-08
-1.02189e-08
3.02352e-08
3.2859e-08
-1.10933e-08
4.22285e-08
3.86904e-08
-1.25533e-08
5.5456e-08
4.76047e-08
-1.47068e-08
6.95352e-08
6.09869e-08
-1.76383e-08
8.23377e-08
8.14848e-08
-2.1377e-08
8.74626e-08
1.1391e-07
-2.5823e-08
6.99749e-08
1.65935e-07
-3.07459e-08
2.25806e-07
-3.94764e-08
1.32235e-07
2.23519e-07
3.5503e-09
1.7569e-07
3.52327e-07
1.06724e-08
1.71635e-07
4.37234e-07
1.5986e-08
1.42078e-07
5.02839e-07
2.17664e-08
1.0031e-07
5.50214e-07
2.44024e-08
5.24557e-08
5.81585e-07
2.5939e-08
2.15535e-09
5.97198e-07
2.65579e-08
-4.81522e-08
5.97537e-07
2.65534e-08
-9.60354e-08
5.82611e-07
2.59259e-08
-1.37887e-07
5.5195e-07
2.43852e-08
-1.67645e-07
5.0534e-07
2.1743e-08
-1.72217e-07
4.40639e-07
1.59782e-08
-1.29981e-07
3.56938e-07
1.06503e-08
2.28784e-07
3.44403e-09
-6.72683e-08
2.29227e-07
-4.00867e-08
-8.26063e-08
1.706e-07
-3.18241e-08
-7.56356e-08
1.19106e-07
-2.71832e-08
-6.09312e-08
8.73813e-08
-2.30723e-08
-4.46647e-08
6.78773e-08
-1.97432e-08
-2.87703e-08
5.58979e-08
-1.73592e-08
-1.34841e-08
4.87654e-08
-1.58924e-08
4.38854e-08
-1.37855e-08
1.06749e-08
2.53938e-08
-9.52229e-09
2.29569e-08
2.79693e-08
-1.10112e-08
3.64135e-08
3.14113e-08
-1.2009e-08
5.18757e-08
3.69037e-08
-1.36755e-08
7.04644e-08
4.51413e-08
-1.61252e-08
9.38101e-08
5.70718e-08
-1.94307e-08
1.24607e-07
7.41764e-08
-2.34886e-08
1.6847e-07
9.81804e-08
-2.81331e-08
2.34486e-07
1.30982e-07
-3.10623e-08
3.28783e-07
1.63108e-07
-3.15993e-08
2.58832e-07
8.11577e-08
-1.12073e-08
2.88761e-07
1.87283e-07
6.30718e-09
2.81054e-07
2.79742e-07
8.02919e-08
2.47784e-07
3.49503e-07
1.21e-07
1.95568e-07
4.05676e-07
1.4938e-07
1.34725e-07
4.46312e-07
1.64745e-07
6.94442e-08
4.73207e-07
1.73659e-07
2.50756e-09
4.866e-07
1.77534e-07
-6.44252e-08
4.86899e-07
1.77571e-07
-1.29695e-07
4.74108e-07
1.73772e-07
-1.90522e-07
4.47829e-07
1.64948e-07
-2.42701e-07
4.07834e-07
1.49685e-07
-2.7587e-07
3.52345e-07
1.21461e-07
-2.83079e-07
2.83251e-07
8.08952e-08
-2.52877e-07
1.91361e-07
7.22191e-09
-3.24971e-07
8.28036e-08
-1.07098e-08
-2.30074e-07
1.66219e-07
-3.18892e-08
-1.62611e-07
1.35061e-07
-3.19236e-08
-1.17026e-07
1.02976e-07
-2.94546e-08
-8.4129e-08
7.97431e-08
-2.52588e-08
-5.82079e-08
6.36455e-08
-2.16893e-08
-3.63855e-08
5.30922e-08
-1.90167e-08
-1.68503e-08
4.65851e-08
-1.73549e-08
4.19991e-08
-1.49641e-08
1.22372e-08
2.32962e-08
-1.01396e-08
2.63637e-08
2.5623e-08
-1.17802e-08
4.20044e-08
2.86823e-08
-1.29116e-08
6.02236e-08
3.34958e-08
-1.48113e-08
8.2445e-08
4.05491e-08
-1.76292e-08
1.10615e-07
5.03891e-08
-2.1487e-08
1.47467e-07
6.36556e-08
-2.63318e-08
1.96993e-07
8.07371e-08
-3.20819e-08
2.63444e-07
1.01115e-07
-3.65847e-08
3.45056e-07
1.20516e-07
-3.90204e-08
3.47484e-07
1.03727e-07
-2.49971e-08
3.75878e-07
1.5886e-07
2.85685e-11
3.50985e-07
2.18065e-07
8.6571e-08
3.02035e-07
2.68808e-07
1.29645e-07
2.35632e-07
3.11477e-07
1.60602e-07
1.61166e-07
3.43221e-07
1.77557e-07
8.26835e-08
3.64502e-07
1.87188e-07
2.80383e-09
3.75189e-07
1.91291e-07
-7.70687e-08
3.75446e-07
1.91326e-07
-1.55529e-07
3.65275e-07
1.87294e-07
-2.29962e-07
3.44512e-07
1.77749e-07
-2.96307e-07
3.13284e-07
1.60895e-07
-3.45184e-07
2.71122e-07
1.301e-07
-3.69923e-07
2.20824e-07
8.71669e-08
-3.41395e-07
1.61962e-07
8.71424e-10
-3.4001e-07
1.06025e-07
-2.46068e-08
-2.58126e-07
1.23594e-07
-3.92587e-08
-1.90451e-07
1.04811e-07
-3.74251e-08
-1.39107e-07
8.50744e-08
-3.34426e-08
-9.98992e-08
6.8734e-08
-2.81988e-08
-6.87729e-08
5.64216e-08
-2.39023e-08
-4.27843e-08
4.78567e-08
-2.07532e-08
-1.97668e-08
4.23841e-08
-1.88165e-08
3.83635e-08
-1.61311e-08
1.3638e-08
2.03624e-08
-1.07041e-08
2.93991e-08
2.23422e-08
-1.24804e-08
4.69303e-08
2.48782e-08
-1.37271e-08
6.74406e-08
2.88089e-08
-1.58235e-08
9.24855e-08
3.44458e-08
-1.89416e-08
1.24019e-07
4.20794e-08
-2.32236e-08
1.64357e-07
5.19512e-08
-2.86337e-08
2.16057e-07
6.41275e-08
-3.50909e-08
2.79924e-07
7.7795e-08
-4.05467e-08
3.52572e-07
9.18522e-08
-4.39841e-08
3.92051e-07
9.62845e-08
-3.20364e-08
4.30527e-07
1.28663e-07
-8.27776e-09
4.01498e-07
1.66437e-07
8.06565e-08
3.44367e-07
2.01767e-07
1.24171e-07
2.67595e-07
2.32424e-07
1.55825e-07
1.82516e-07
2.55874e-07
1.72425e-07
9.34422e-08
2.71831e-07
1.81744e-07
3.0613e-09
2.79928e-07
1.85641e-07
-8.73118e-08
2.80152e-07
1.85668e-07
-1.76362e-07
2.72499e-07
1.81826e-07
-2.6141e-07
2.5698e-07
1.72579e-07
-3.38143e-07
2.3395e-07
1.56068e-07
-3.95277e-07
2.03686e-07
1.24571e-07
-4.24323e-07
1.68681e-07
8.11884e-08
-3.86177e-07
1.31152e-07
-7.33612e-09
-3.47108e-07
9.86517e-08
-3.16952e-08
-2.73993e-07
9.46832e-08
-4.4205e-08
-2.08859e-07
8.10785e-08
-4.1402e-08
-1.55228e-07
6.79501e-08
-3.65061e-08
-1.12318e-07
5.64244e-08
-3.06007e-08
-7.74979e-08
4.73898e-08
-2.57883e-08
-4.82211e-08
4.08609e-08
-2.22809e-08
-2.22863e-08
3.6576e-08
-2.01267e-08
3.32655e-08
-1.71884e-08
1.4793e-08
1.67687e-08
-1.11993e-08
3.18818e-08
1.8345e-08
-1.30917e-08
5.0893e-08
2.03056e-08
-1.44386e-08
7.31009e-08
2.3307e-08
-1.6706e-08
1.00092e-07
2.75426e-08
-2.00877e-08
1.33757e-07
3.31625e-08
-2.47484e-08
1.76141e-07
4.0252e-08
-3.06849e-08
2.29269e-07
4.88284e-08
-3.78292e-08
2.9288e-07
5.84065e-08
-4.42218e-08
3.64141e-07
6.91306e-08
-4.854e-08
4.20264e-07
7.79824e-08
-3.78209e-08
4.65996e-07
9.85546e-08
-1.56239e-08
4.3571e-07
1.23103e-07
7.36194e-08
3.7406e-07
1.46967e-07
1.1645e-07
2.90667e-07
1.68145e-07
1.47672e-07
1.98221e-07
1.8472e-07
1.63601e-07
1.01451e-07
1.96147e-07
1.72454e-07
3.28294e-09
2.02011e-07
1.76086e-07
-9.48801e-08
2.0221e-07
1.76105e-07
-1.91636e-07
1.96741e-07
1.72514e-07
-2.84069e-07
1.85694e-07
1.63719e-07
-3.67456e-07
1.69472e-07
1.47865e-07
-4.29171e-07
1.48611e-07
1.1679e-07
-4.59576e-07
1.25005e-07
7.40807e-08
-4.14345e-07
1.00663e-07
-1.47415e-08
-3.58331e-07
8.01708e-08
-3.75329e-08
-2.86485e-07
7.16276e-08
-4.87904e-08
-2.21525e-07
6.1241e-08
-4.51226e-08
-1.66346e-07
5.20835e-08
-3.93129e-08
-1.21198e-07
4.40288e-08
-3.27523e-08
-8.39698e-08
3.76133e-08
-2.74515e-08
-5.23673e-08
3.28772e-08
-2.36188e-08
-2.42334e-08
2.97117e-08
-2.12695e-08
2.71488e-08
-1.81167e-08
1.56879e-08
1.26865e-08
-1.16057e-08
3.37946e-08
1.38281e-08
-1.35897e-08
5.39151e-08
1.51983e-08
-1.50133e-08
7.73558e-08
1.72765e-08
-1.74101e-08
1.05707e-07
2.01793e-08
-2.09881e-08
1.40808e-07
2.39862e-08
-2.59246e-08
1.84561e-07
2.87355e-08
-3.22363e-08
2.3879e-07
3.44576e-08
-3.98583e-08
3.03129e-07
4.09496e-08
-4.68823e-08
3.75573e-07
4.85425e-08
-5.1856e-08
4.39272e-07
5.63593e-08
-4.20759e-08
4.89221e-07
6.93972e-08
-2.07913e-08
4.58864e-07
8.4828e-08
6.86319e-08
3.94664e-07
1.00081e-07
1.11087e-07
3.06998e-07
1.13787e-07
1.42024e-07
2.09489e-07
1.24683e-07
1.57545e-07
1.07258e-07
1.32275e-07
1.66102e-07
3.48076e-09
1.36221e-07
1.69567e-07
-1.00297e-07
1.36406e-07
1.69582e-07
-2.02528e-07
1.32824e-07
1.66148e-07
-3.00049e-07
1.25575e-07
1.5764e-07
-3.87748e-07
1.14987e-07
1.42185e-07
-4.52066e-07
1.01543e-07
1.11386e-07
-4.82602e-07
8.64967e-08
6.90451e-08
-4.33206e-07
7.12254e-08
-1.99586e-08
-3.69491e-07
5.82949e-08
-4.18389e-08
-2.9639e-07
5.06769e-08
-5.21504e-08
-2.30621e-07
4.33101e-08
-4.78383e-08
-1.74232e-07
3.71072e-08
-4.14123e-08
-1.27559e-07
3.17521e-08
-3.43963e-08
-8.86791e-08
2.74817e-08
-2.87486e-08
-5.54246e-08
2.43035e-08
-2.46808e-08
-2.56818e-08
2.21572e-08
-2.21884e-08
2.03382e-08
-1.88712e-08
1.63116e-08
8.28789e-09
-1.19129e-08
3.51226e-08
8.98004e-09
-1.3963e-08
5.59978e-08
9.7639e-09
-1.54408e-08
8.02586e-08
1.09444e-08
-1.79287e-08
1.09496e-07
1.25859e-08
-2.16441e-08
1.45524e-07
1.47309e-08
-2.67722e-08
1.90195e-07
1.74065e-08
-3.33426e-08
2.45295e-07
2.06501e-08
-4.12922e-08
3.10565e-07
2.4416e-08
-4.87365e-08
3.84334e-07
2.89267e-08
-5.41536e-08
4.51648e-07
3.39609e-08
-4.49151e-08
5.03961e-07
4.11823e-08
-2.4098e-08
4.73652e-07
4.95924e-08
6.55448e-08
4.07968e-07
5.79131e-08
1.07851e-07
3.17682e-07
6.54268e-08
1.38647e-07
2.16944e-07
7.14636e-08
1.53957e-07
1.11147e-07
7.57155e-08
1.62357e-07
3.66361e-09
7.79729e-08
1.65732e-07
-1.03827e-07
7.81539e-08
1.65743e-07
-2.09646e-07
7.62493e-08
1.62393e-07
-3.10428e-07
7.23225e-08
1.54035e-07
-4.00792e-07
6.65664e-08
1.38784e-07
-4.66645e-07
5.92751e-08
1.0812e-07
-4.97181e-07
5.11128e-08
6.59201e-08
-4.45445e-07
4.28027e-08
-2.33133e-08
-3.78065e-07
3.56444e-08
-4.47294e-08
-3.03592e-07
3.07036e-08
-5.44992e-08
-2.36832e-07
2.63008e-08
-4.97506e-08
-1.79492e-07
2.268e-08
-4.29136e-08
-1.31786e-07
1.963e-08
-3.55838e-08
-9.18246e-08
1.72166e-08
-2.96961e-08
-5.74802e-08
1.54237e-08
-2.54647e-08
-2.66587e-08
1.42078e-08
-2.28721e-08
1.31175e-08
-1.9438e-08
1.66673e-08
3.7337e-09
-1.21131e-08
3.58791e-08
3.97094e-09
-1.42027e-08
5.71805e-08
4.17402e-09
-1.57115e-08
8.19014e-08
4.47457e-09
-1.82511e-08
1.11636e-07
4.89534e-09
-2.20439e-08
1.48191e-07
5.4549e-09
-2.72789e-08
1.93411e-07
6.17851e-09
-3.39921e-08
2.49082e-07
7.10112e-09
-4.21218e-08
3.15026e-07
8.2638e-09
-4.97919e-08
3.89682e-07
9.72145e-09
-5.54507e-08
4.58619e-07
1.14948e-08
-4.64716e-08
5.12046e-07
1.36075e-08
-2.58522e-08
4.81752e-07
1.58892e-08
6.39979e-08
4.15287e-07
1.80787e-08
1.06299e-07
3.2361e-07
2.00356e-08
1.37069e-07
2.21125e-07
2.16412e-08
1.52307e-07
1.13374e-07
2.28196e-08
1.60648e-07
3.84175e-09
2.35185e-08
1.63986e-07
-1.05706e-07
2.3707e-08
1.63995e-07
-2.13507e-07
2.33735e-08
1.60676e-07
-3.1608e-07
2.25243e-08
1.52371e-07
-4.07891e-07
2.11905e-08
1.37187e-07
-4.74585e-07
1.94275e-08
1.06541e-07
-5.05161e-07
1.73494e-08
6.43392e-08
-4.52338e-07
1.50954e-08
-2.51152e-08
-3.83321e-07
1.29655e-08
-4.63387e-08
-3.0794e-07
1.11736e-08
-5.58509e-08
-2.40471e-07
9.69477e-09
-5.08634e-08
-1.82509e-07
8.52239e-09
-4.38043e-08
-1.34185e-07
7.60683e-09
-3.63008e-08
-9.36037e-08
6.91525e-09
-3.02796e-08
-5.86424e-08
6.41887e-09
-2.59565e-08
-2.72109e-08
6.08383e-09
-2.33075e-08
5.71061e-09
-1.9804e-08
1.67569e-08
-8.19862e-10
-1.22034e-08
3.6071e-08
-1.03707e-09
-1.43061e-08
5.74818e-08
-1.41352e-09
-1.58232e-08
8.23241e-08
-1.99108e-09
-1.83767e-08
1.12198e-07
-2.78886e-09
-2.21899e-08
1.48918e-07
-3.81237e-09
-2.74528e-08
1.94338e-07
-5.03832e-09
-3.42026e-08
2.5025e-07
-6.43266e-09
-4.23785e-08
3.16481e-07
-7.86439e-09
-5.01033e-08
3.91453e-07
-9.42905e-09
-5.58206e-08
4.6069e-07
-1.0859e-08
-4.68834e-08
5.14276e-07
-1.37035e-08
-2.6275e-08
4.8391e-07
-1.74384e-08
6.36929e-08
4.17218e-07
-2.1279e-08
1.0605e-07
3.25197e-07
-2.47999e-08
1.36857e-07
2.2229e-07
-2.75612e-08
1.52109e-07
1.14064e-07
-2.94084e-08
1.60454e-07
4.02667e-09
-3.02363e-08
1.63792e-07
-1.06039e-07
-3.00254e-08
1.63798e-07
-2.1435e-07
-2.87903e-08
1.60474e-07
-3.17402e-07
-2.65825e-08
1.52159e-07
-4.09631e-07
-2.35346e-08
1.36954e-07
-4.76633e-07
-1.98337e-08
1.06264e-07
-5.07354e-07
-1.59257e-08
6.39962e-08
-4.54416e-07
-1.22503e-08
-2.5593e-08
-3.85109e-07
-9.53107e-09
-4.68095e-08
-3.09413e-07
-8.24218e-09
-5.62805e-08
-2.41647e-07
-6.83916e-09
-5.12327e-08
-1.83426e-07
-5.58163e-09
-4.41167e-08
-1.34878e-07
-4.37575e-09
-3.65653e-08
-9.41001e-08
-3.35533e-09
-3.05073e-08
-5.89596e-08
-2.563e-09
-2.61586e-08
-2.73593e-08
-2.0226e-09
-2.34939e-08
-1.68177e-09
-1.99669e-08
1.65816e-08
-5.21793e-09
-1.21835e-08
3.57003e-08
-5.8824e-09
-1.42733e-08
5.69042e-08
-6.84094e-09
-1.57766e-08
8.15297e-08
-8.31005e-09
-1.83065e-08
1.11186e-07
-1.03615e-08
-2.20838e-08
1.47709e-07
-1.30391e-08
-2.72966e-08
1.92981e-07
-1.63317e-08
-3.3978e-08
2.48813e-07
-2.01963e-08
-4.20683e-08
3.14965e-07
-2.43366e-08
-4.968e-08
3.89717e-07
-2.89034e-08
-5.52779e-08
4.57984e-07
-3.29504e-08
-4.61749e-08
5.10765e-07
-4.10838e-08
-2.54011e-08
4.80227e-07
-5.14843e-08
6.45838e-08
4.1384e-07
-6.19432e-08
1.07051e-07
3.22507e-07
-7.14143e-08
1.37948e-07
2.20487e-07
-7.88358e-08
1.53294e-07
1.13251e-07
-8.38749e-08
1.61703e-07
4.23276e-09
-8.62926e-08
1.65074e-07
-1.04828e-07
-8.60402e-08
1.65076e-07
-2.12195e-07
-8.31348e-08
1.61711e-07
-3.14435e-07
-7.76664e-08
1.53324e-07
-4.06077e-07
-6.9909e-08
1.38016e-07
-4.72885e-07
-6.02499e-08
1.07225e-07
-5.03889e-07
-4.97593e-08
6.48376e-08
-4.51823e-07
-3.95277e-08
-2.47891e-08
-3.83515e-07
-3.16655e-08
-4.61732e-08
-3.08056e-07
-2.78937e-08
-5.58075e-08
-2.40383e-07
-2.36407e-08
-5.08717e-08
-1.82257e-07
-1.98477e-08
-4.38594e-08
-1.33877e-07
-1.63727e-08
-3.63835e-08
-9.33227e-08
-1.35257e-08
-3.03836e-08
-5.84385e-08
-1.13731e-08
-2.60741e-08
-2.71071e-08
-9.92049e-09
-2.34335e-08
-8.86102e-09
-1.99279e-08
1.614e-08
-9.29941e-09
-1.20585e-08
3.47617e-08
-1.03948e-08
-1.41093e-08
5.54324e-08
-1.19358e-08
-1.55758e-08
7.94825e-08
-1.43163e-08
-1.80438e-08
1.08533e-07
-1.76852e-08
-2.17268e-08
1.4446e-07
-2.21595e-08
-2.68067e-08
1.89216e-07
-2.77802e-08
-3.33071e-08
2.44684e-07
-3.44958e-08
-4.1169e-08
3.10556e-07
-4.17254e-08
-4.84829e-08
3.8478e-07
-4.93514e-08
-5.3776e-08
4.50292e-07
-5.42047e-08
-4.42578e-08
5.00966e-07
-6.86735e-08
-2.30846e-08
4.7016e-07
-8.75402e-08
6.68627e-08
4.04722e-07
-1.0606e-07
1.09555e-07
3.15256e-07
-1.2258e-07
1.40631e-07
2.15556e-07
-1.35328e-07
1.56192e-07
1.1087e-07
-1.43937e-07
1.64749e-07
4.47902e-09
-1.48099e-07
1.68197e-07
-1.01974e-07
-1.47779e-07
1.68192e-07
-2.06848e-07
-1.42998e-07
1.64737e-07
-3.06865e-07
-1.33838e-07
1.56189e-07
-3.96776e-07
-1.20652e-07
1.40655e-07
-4.62795e-07
-1.039e-07
1.09668e-07
-4.94237e-07
-8.5364e-08
6.70466e-08
-4.4438e-07
-6.68175e-08
-2.2567e-08
-3.78857e-07
-5.28386e-08
-4.43499e-08
-3.03958e-07
-4.83994e-08
-5.43933e-08
-2.36601e-07
-4.12499e-08
-4.97476e-08
-1.78883e-07
-3.45502e-08
-4.30159e-08
-1.31078e-07
-2.84291e-08
-3.57485e-08
-9.12035e-08
-2.34918e-08
-2.99086e-08
-5.7041e-08
-1.98284e-08
-2.57072e-08
-2.64388e-08
-1.73902e-08
-2.31326e-08
-1.56053e-08
-1.96945e-08
1.54305e-08
-1.28932e-08
-1.18367e-08
3.32457e-08
-1.43863e-08
-1.38237e-08
5.30321e-08
-1.649e-08
-1.52323e-08
7.6097e-08
-1.97794e-08
-1.76018e-08
1.04067e-07
-2.45213e-08
-2.11342e-08
1.38886e-07
-3.09771e-08
-2.60008e-08
1.8267e-07
-3.93555e-08
-3.2209e-08
2.37559e-07
-4.96844e-08
-3.97004e-08
3.0344e-07
-6.10858e-08
-4.65203e-08
3.77536e-07
-7.21279e-08
-5.13204e-08
4.36897e-07
-7.25232e-08
-4.10424e-08
4.83394e-07
-9.60722e-08
-1.90982e-08
4.52264e-07
-1.2719e-07
7.07801e-08
3.88729e-07
-1.56399e-07
1.13874e-07
3.02701e-07
-1.8178e-07
1.45228e-07
2.0707e-07
-2.00862e-07
1.61164e-07
1.06743e-07
-2.13591e-07
1.69981e-07
4.79086e-09
-2.19713e-07
1.73567e-07
-9.72444e-08
-2.19295e-07
1.73551e-07
-1.97828e-07
-2.12351e-07
1.69937e-07
-2.93897e-07
-1.98876e-07
1.61107e-07
-3.8056e-07
-1.79168e-07
1.4518e-07
-4.44907e-07
-1.53449e-07
1.13897e-07
-4.76945e-07
-1.24191e-07
7.08652e-08
-4.31427e-07
-9.36211e-08
-1.87142e-08
-3.72046e-07
-7.09577e-08
-4.12619e-08
-2.97314e-07
-7.10757e-08
-5.2056e-08
-2.30005e-07
-6.06799e-08
-4.78793e-08
-1.72935e-07
-5.0006e-08
-4.16142e-08
-1.26196e-07
-4.04815e-08
-3.4686e-08
-8.75647e-08
-3.30182e-08
-2.91052e-08
-5.46731e-08
-2.76421e-08
-2.5078e-08
-2.53142e-08
-2.41402e-08
-2.26089e-08
-2.16364e-08
-1.92831e-08
1.44671e-08
-1.58314e-08
-1.1529e-08
3.11729e-08
-1.76635e-08
-1.34285e-08
4.97126e-08
-2.02728e-08
-1.47569e-08
7.13356e-08
-2.44141e-08
-1.69883e-08
9.76442e-08
-3.05245e-08
-2.03054e-08
1.30649e-07
-3.91223e-08
-2.48592e-08
1.72747e-07
-5.08263e-08
-3.06276e-08
2.26668e-07
-6.60621e-08
-3.75437e-08
2.93554e-07
-8.4396e-08
-4.35752e-08
3.70627e-07
-1.01507e-07
-4.7694e-08
4.16262e-07
-8.17447e-08
-3.64134e-08
4.54675e-07
-1.21388e-07
-1.30975e-08
4.24105e-07
-1.72975e-07
7.63553e-08
3.64293e-07
-2.16684e-07
1.20097e-07
2.83941e-07
-2.5324e-07
1.51813e-07
1.94559e-07
-2.79826e-07
1.68347e-07
1.00684e-07
-2.97275e-07
1.77558e-07
5.20072e-09
-3.0559e-07
1.8136e-07
-9.03864e-08
-3.05035e-07
1.81327e-07
-1.84592e-07
-2.9561e-07
1.77464e-07
-2.74556e-07
-2.7712e-07
1.68208e-07
-3.55799e-07
-2.49589e-07
1.51664e-07
-4.16759e-07
-2.12483e-07
1.19993e-07
-4.48702e-07
-1.6857e-07
7.63214e-08
-4.11555e-07
-1.17889e-07
-1.28796e-08
-3.65723e-07
-7.99961e-08
-3.67933e-08
-2.88063e-07
-1.00146e-07
-4.85902e-08
-2.19834e-07
-8.38508e-08
-4.50578e-08
-1.6382e-07
-6.64777e-08
-3.95424e-08
-1.18888e-07
-5.22686e-08
-3.31453e-08
-8.22444e-08
-4.17025e-08
-2.79588e-08
-5.12725e-08
-3.44233e-08
-2.41908e-08
-2.37183e-08
-2.98187e-08
-2.18757e-08
-2.66458e-08
-1.87089e-08
1.3265e-08
-1.79413e-08
-1.1155e-08
2.85634e-08
-2.00131e-08
-1.29488e-08
4.54565e-08
-2.29821e-08
-1.41838e-08
6.50555e-08
-2.77584e-08
-1.62547e-08
8.88316e-08
-3.49756e-08
-1.9325e-08
1.18777e-07
-4.55402e-08
-2.35275e-08
1.57676e-07
-6.0898e-08
-2.8827e-08
2.09682e-07
-8.29087e-08
-3.51592e-08
2.79679e-07
-1.1399e-07
-4.04031e-08
3.68306e-07
-1.46388e-07
-4.37472e-08
3.82699e-07
-6.55733e-08
-3.05635e-08
4.08217e-07
-1.4038e-07