/*--------------------------------*- C++ -*----------------------------------*\
| =========                 |                                                 |
| \\      /  F ield         | OpenFOAM: The Open Source CFD Toolbox           |
|  \\    /   O peration     | Version:  2112                                  |
|   \\  /    A nd           | Website:  www.openfoam.com                      |
|    \\/     M anipulation  |                                                 |
\*---------------------------------------------------------------------------*/
FoamFile
{
    version     2.0;
    format      ascii;
    arch        "LSB;label=32;scalar=64";
    class       volVectorField;
    location    "0.2";
    object      U;
}
// * * * * * * * * * * * * * * * * * * * * * * * * * * * * * * * * * * * * * //

dimensions      [0 1 -1 0 0 0 0];

internalField   nonuniform List<vector> 
64906
(
(8.75187e-07 2.43684e-06 -3.17549e-06)
(2.90873e-06 2.58533e-06 -3.36483e-06)
(4.95071e-06 2.75585e-06 -3.49391e-06)
(6.93574e-06 3.00544e-06 -3.69112e-06)
(8.85063e-06 3.34335e-06 -3.962e-06)
(1.06734e-05 3.77314e-06 -4.3082e-06)
(1.23838e-05 4.3005e-06 -4.73125e-06)
(1.39413e-05 4.93669e-06 -5.22981e-06)
(1.52945e-05 5.68589e-06 -5.80193e-06)
(1.63325e-05 6.57177e-06 -6.43342e-06)
(1.69448e-05 7.56386e-06 -7.11306e-06)
(1.69329e-05 8.68873e-06 -7.80388e-06)
(1.6162e-05 9.79963e-06 -8.48039e-06)
(1.46467e-05 1.0856e-05 -9.10043e-06)
(1.2423e-05 1.1773e-05 -9.63802e-06)
(9.60872e-06 1.25101e-05 -1.00658e-05)
(6.3435e-06 1.30257e-05 -1.0367e-05)
(2.80313e-06 1.32969e-05 -1.05294e-05)
(-8.25136e-07 1.33108e-05 -1.05474e-05)
(-4.34498e-06 1.30677e-05 -1.0421e-05)
(-7.56682e-06 1.25806e-05 -1.01564e-05)
(-1.03153e-05 1.18726e-05 -9.76626e-06)
(-1.24501e-05 1.09861e-05 -9.26773e-06)
(-1.3853e-05 9.96251e-06 -8.68878e-06)
(-1.44894e-05 8.88838e-06 -8.05584e-06)
(-1.43462e-05 7.8047e-06 -7.41208e-06)
(-1.35627e-05 6.86167e-06 -6.7835e-06)
(-1.23414e-05 6.03125e-06 -6.20855e-06)
(-1.07943e-05 5.34666e-06 -5.69934e-06)
(-9.03649e-06 4.78572e-06 -5.27177e-06)
(-7.12102e-06 4.34668e-06 -4.92985e-06)
(-5.0973e-06 4.02119e-06 -4.67812e-06)
(-3.00663e-06 3.79917e-06 -4.51004e-06)
(-8.39755e-07 3.59491e-06 -4.2612e-06)
(9.89025e-07 7.01893e-06 -3.37175e-06)
(3.19391e-06 7.48635e-06 -3.72586e-06)
(5.51705e-06 7.97425e-06 -3.85366e-06)
(7.73918e-06 8.68857e-06 -4.07462e-06)
(9.89178e-06 9.65649e-06 -4.38624e-06)
(1.19566e-05 1.08909e-05 -4.78685e-06)
(1.39197e-05 1.2409e-05 -5.2796e-06)
(1.5738e-05 1.42431e-05 -5.86469e-06)
(1.73689e-05 1.64131e-05 -6.54301e-06)
(1.86663e-05 1.89874e-05 -7.29822e-06)
(1.95175e-05 2.1893e-05 -8.12136e-06)
(1.9611e-05 2.52138e-05 -8.96147e-06)
(1.87465e-05 2.84889e-05 -9.78797e-06)
(1.69958e-05 3.15873e-05 -1.0544e-05)
(1.43969e-05 3.42701e-05 -1.11987e-05)
(1.11106e-05 3.64195e-05 -1.1718e-05)
(7.29821e-06 3.79209e-05 -1.20827e-05)
(3.16801e-06 3.87098e-05 -1.2278e-05)
(-1.06484e-06 3.87507e-05 -1.22978e-05)
(-5.17318e-06 3.80438e-05 -1.21421e-05)
(-8.93937e-06 3.66252e-05 -1.18177e-05)
(-1.21551e-05 3.45605e-05 -1.13399e-05)
(-1.46581e-05 3.19664e-05 -1.07282e-05)
(-1.62861e-05 2.89627e-05 -1.00174e-05)
(-1.7003e-05 2.57936e-05 -9.2389e-06)
(-1.67368e-05 2.25914e-05 -8.45077e-06)
(-1.56945e-05 1.98273e-05 -7.68397e-06)
(-1.41923e-05 1.74121e-05 -6.99145e-06)
(-1.23418e-05 1.54269e-05 -6.38293e-06)
(-1.02936e-05 1.38077e-05 -5.87684e-06)
(-8.09043e-06 1.25429e-05 -5.47515e-06)
(-5.78091e-06 1.16076e-05 -5.18718e-06)
(-3.34779e-06 1.09648e-05 -5.01838e-06)
(-9.8265e-07 1.03085e-05 -4.54734e-06)
(1.16503e-06 1.20386e-05 -3.47888e-06)
(3.67072e-06 1.29438e-05 -3.83054e-06)
(6.35483e-06 1.38209e-05 -3.96521e-06)
(8.9312e-06 1.50955e-05 -4.21104e-06)
(1.14535e-05 1.68248e-05 -4.56075e-06)
(1.39082e-05 1.9035e-05 -5.01456e-06)
(1.62961e-05 2.17598e-05 -5.58025e-06)
(1.85768e-05 2.5066e-05 -6.26125e-06)
(2.07352e-05 2.90007e-05 -7.06704e-06)
(2.25596e-05 3.3734e-05 -7.97578e-06)
(2.39539e-05 3.91314e-05 -8.99278e-06)
(2.43164e-05 4.55033e-05 -1.00314e-05)
(2.32882e-05 5.17251e-05 -1.10653e-05)
(2.11117e-05 5.75926e-05 -1.20046e-05)
(1.78345e-05 6.264e-05 -1.28173e-05)
(1.37068e-05 6.66709e-05 -1.34575e-05)
(8.92695e-06 6.94783e-05 -1.39052e-05)
(3.75886e-06 7.09497e-05 -1.41425e-05)
(-1.53675e-06 7.10214e-05 -1.41628e-05)
(-6.68221e-06 6.96939e-05 -1.39661e-05)
(-1.14139e-05 6.70314e-05 -1.35598e-05)
(-1.5467e-05 6.31479e-05 -1.29621e-05)
(-1.86412e-05 5.82539e-05 -1.21933e-05)
(-2.06827e-05 5.25493e-05 -1.13006e-05)
(-2.15465e-05 4.65102e-05 -1.03158e-05)
(-2.0986e-05 4.03416e-05 -9.33087e-06)
(-1.93717e-05 3.51924e-05 -8.37172e-06)
(-1.7312e-05 3.07351e-05 -7.52828e-06)
(-1.48946e-05 2.71207e-05 -6.79522e-06)
(-1.23356e-05 2.41871e-05 -6.19715e-06)
(-9.64657e-06 2.19037e-05 -5.72766e-06)
(-6.87612e-06 2.0217e-05 -5.39487e-06)
(-3.97209e-06 1.90482e-05 -5.20968e-06)
(-1.21226e-06 1.77727e-05 -4.73564e-06)
(1.42415e-06 1.68715e-05 -3.65548e-06)
(4.40733e-06 1.81684e-05 -4.02615e-06)
(7.64195e-06 1.94557e-05 -4.18447e-06)
(1.0769e-05 2.13351e-05 -4.47331e-06)
(1.38686e-05 2.38911e-05 -4.88662e-06)
(1.69369e-05 2.71673e-05 -5.42918e-06)
(2.00036e-05 3.12188e-05 -6.11703e-06)
(2.30389e-05 3.61637e-05 -6.95923e-06)
(2.61032e-05 4.20937e-05 -7.98313e-06)
(2.88685e-05 4.93863e-05 -9.15551e-06)
(3.13617e-05 5.78228e-05 -1.05198e-05)
(3.22799e-05 6.84091e-05 -1.19099e-05)
(3.09079e-05 7.85159e-05 -1.33159e-05)
(2.79759e-05 8.79823e-05 -1.4578e-05)
(2.35304e-05 9.60362e-05 -1.56698e-05)
(1.79913e-05 0.000102438 -1.65212e-05)
(1.16045e-05 0.000106877 -1.7114e-05)
(4.72252e-06 0.000109196 -1.74247e-05)
(-2.3258e-06 0.000109299 -1.7446e-05)
(-9.18453e-06 0.000107187 -1.71781e-05)
(-1.55214e-05 0.000102955 -1.66287e-05)
(-2.09811e-05 9.67628e-05 -1.5822e-05)
(-2.53148e-05 8.89246e-05 -1.47764e-05)
(-2.80944e-05 7.96846e-05 -1.35632e-05)
(-2.92779e-05 6.98328e-05 -1.22085e-05)
(-2.81208e-05 5.95263e-05 -1.08754e-05)
(-2.53631e-05 5.14502e-05 -9.57164e-06)
(-2.23201e-05 4.45466e-05 -8.46954e-06)
(-1.89385e-05 3.90673e-05 -7.52371e-06)
(-1.55509e-05 3.46462e-05 -6.77163e-06)
(-1.20876e-05 3.12194e-05 -6.18916e-06)
(-8.589e-06 2.86908e-05 -5.78027e-06)
(-4.9539e-06 2.69456e-05 -5.55201e-06)
(-1.554e-06 2.50984e-05 -5.04324e-06)
(1.79373e-06 2.15485e-05 -3.8901e-06)
(5.44451e-06 2.32519e-05 -4.29734e-06)
(9.45566e-06 2.49995e-05 -4.48939e-06)
(1.33645e-05 2.75655e-05 -4.83765e-06)
(1.7289e-05 3.10672e-05 -5.33964e-06)
(2.12403e-05 3.55699e-05 -6.00674e-06)
(2.52978e-05 4.11541e-05 -6.86813e-06)
(2.94577e-05 4.80015e-05 -7.94126e-06)
(3.39647e-05 5.62657e-05 -9.28792e-06)
(3.82963e-05 6.67047e-05 -1.08497e-05)
(4.2985e-05 7.89974e-05 -1.27659e-05)
(4.50177e-05 9.6146e-05 -1.46963e-05)
(4.28693e-05 0.000111796 -1.66925e-05)
(3.86391e-05 0.000126271 -1.84534e-05)
(3.2296e-05 0.000138406 -1.99787e-05)
(2.45523e-05 0.000148 -2.11522e-05)
(1.56876e-05 0.000154622 -2.19666e-05)
(6.18181e-06 0.000158067 -2.23888e-05)
(-3.54566e-06 0.000158204 -2.24117e-05)
(-1.30283e-05 0.000155034 -2.20354e-05)
(-2.18425e-05 0.000148686 -2.12675e-05)
(-2.95032e-05 0.000139365 -2.01419e-05)
(-3.5726e-05 0.000127506 -1.86658e-05)
(-3.97819e-05 0.000113316 -1.69573e-05)
(-4.17124e-05 9.79876e-05 -1.50146e-05)
(-3.93762e-05 8.11795e-05 -1.31461e-05)
(-3.43582e-05 6.93825e-05 -1.12929e-05)
(-2.9701e-05 5.94434e-05 -9.80883e-06)
(-2.48002e-05 5.17558e-05 -8.54741e-06)
(-2.01872e-05 4.5577e-05 -7.57455e-06)
(-1.55977e-05 4.07986e-05 -6.83133e-06)
(-1.10511e-05 3.72728e-05 -6.31583e-06)
(-6.36615e-06 3.48485e-05 -6.02588e-06)
(-2.05381e-06 3.23848e-05 -5.45412e-06)
(2.28343e-06 2.59665e-05 -4.18164e-06)
(6.82076e-06 2.80883e-05 -4.63535e-06)
(1.1869e-05 3.03529e-05 -4.87018e-06)
(1.68304e-05 3.37026e-05 -5.29414e-06)
(2.18729e-05 3.82956e-05 -5.90971e-06)
(2.70242e-05 4.42242e-05 -6.73715e-06)
(3.24357e-05 5.1593e-05 -7.82489e-06)
(3.81511e-05 6.06419e-05 -9.20151e-06)
(4.48071e-05 7.15837e-05 -1.09932e-05)
(5.16009e-05 8.58176e-05 -1.30848e-05)
(6.08045e-05 0.000102674 -1.58559e-05)
(6.50785e-05 0.0001311 -1.85668e-05)
(6.10333e-05 0.000154907 -2.14483e-05)
(5.45868e-05 0.000176424 -2.39213e-05)
(4.52601e-05 0.000194146 -2.60754e-05)
(3.42072e-05 0.000208085 -2.77002e-05)
(2.16712e-05 0.000217666 -2.88275e-05)
(8.30516e-06 0.000222633 -2.94067e-05)
(-5.35801e-06 0.00022281 -2.94317e-05)
(-1.87027e-05 0.000218194 -2.89029e-05)
(-3.11912e-05 0.000208959 -2.78264e-05)
(-4.21617e-05 0.00019536 -2.62538e-05)
(-5.13646e-05 0.000177973 -2.41523e-05)
(-5.76136e-05 0.000156788 -2.1736e-05)
(-6.1414e-05 0.00013336 -1.89096e-05)
(-5.67273e-05 0.00010529 -1.62674e-05)
(-4.70998e-05 8.9132e-05 -1.35601e-05)
(-3.99474e-05 7.54987e-05 -1.15566e-05)
(-3.28054e-05 6.52469e-05 -9.85858e-06)
(-2.65078e-05 5.6996e-05 -8.59517e-06)
(-2.03822e-05 5.06042e-05 -7.64177e-06)
(-1.44084e-05 4.58821e-05 -6.98879e-06)
(-8.2917e-06 4.26487e-05 -6.61979e-06)
(-2.73667e-06 3.95183e-05 -5.96744e-06)
(2.91005e-06 3.00011e-05 -4.52413e-06)
(8.58007e-06 3.25523e-05 -5.03366e-06)
(1.49654e-05 3.5396e-05 -5.32036e-06)
(2.12991e-05 3.96418e-05 -5.83665e-06)
(2.781e-05 4.55054e-05 -6.5912e-06)
(3.45378e-05 5.31141e-05 -7.61519e-06)
(4.17155e-05 6.25865e-05 -8.98229e-06)
(4.94484e-05 7.41206e-05 -1.07318e-05)
(5.91406e-05 8.79171e-05 -1.30951e-05)
(6.93859e-05 0.000105891 -1.58257e-05)
(8.82643e-05 0.000126726 -1.98023e-05)
(9.72384e-05 0.000176331 -2.34612e-05)
(8.81909e-05 0.000211778 -2.75737e-05)
(7.78774e-05 0.000242876 -3.09831e-05)
(6.39564e-05 0.00026817 -3.39995e-05)
(4.80717e-05 0.000288014 -3.62023e-05)
(3.02356e-05 0.000301632 -3.77379e-05)
(1.13252e-05 0.00030867 -3.85216e-05)
(-7.98453e-06 0.000308892 -3.85497e-05)
(-2.68782e-05 0.000302296 -3.78223e-05)
(-4.46761e-05 0.00028911 -3.63432e-05)
(-6.04888e-05 0.00026968 -3.41982e-05)
(-7.42962e-05 0.00024478 -3.12383e-05)
(-8.43925e-05 0.000214045 -2.78908e-05)
(-9.31982e-05 0.000179006 -2.38331e-05)
(-8.36016e-05 0.000129665 -2.02506e-05)
(-6.41494e-05 0.000109908 -1.63333e-05)
(-5.35863e-05 9.25914e-05 -1.37063e-05)
(-4.33029e-05 7.95699e-05 -1.14458e-05)
(-3.48289e-05 6.89351e-05 -9.82588e-06)
(-2.66992e-05 6.05907e-05 -8.61284e-06)
(-1.88463e-05 5.44101e-05 -7.79127e-06)
(-1.0837e-05 5.01972e-05 -7.32568e-06)
(-3.64287e-06 4.6334e-05 -6.5756e-06)
(3.68883e-06 3.34798e-05 -4.91134e-06)
(1.07676e-05 3.64536e-05 -5.48537e-06)
(1.88374e-05 3.99215e-05 -5.83176e-06)
(2.69304e-05 4.51596e-05 -6.45439e-06)
(3.53444e-05 5.24701e-05 -7.36765e-06)
(4.41052e-05 6.20383e-05 -8.6137e-06)
(5.34422e-05 7.39931e-05 -1.02932e-05)
(6.34818e-05 8.83318e-05 -1.245e-05)
(7.65781e-05 0.000104906 -1.54952e-05)
(9.03807e-05 0.000126345 -1.89021e-05)
(0.00013104 0.000145922 -2.4596e-05)
(0.000149876 0.000238837 -2.94476e-05)
(0.000127533 0.000290087 -3.50573e-05)
(0.000110972 0.00033318 -3.94672e-05)
(9.03956e-05 0.00036816 -4.35103e-05)
(6.76675e-05 0.000395682 -4.63055e-05)
(4.23265e-05 0.000414642 -4.8291e-05)
(1.55656e-05 0.000424431 -4.9304e-05)
(-1.17315e-05 0.000424711 -4.93359e-05)
(-3.84839e-05 0.000415476 -4.83867e-05)
(-6.38055e-05 0.000397054 -4.64645e-05)
(-8.64898e-05 0.000370038 -4.37339e-05)
(-0.000106993 0.000335512 -3.97503e-05)
(-0.000123343 0.000292777 -3.54077e-05)
(-0.000145541 0.000241936 -2.9848e-05)
(-0.000125625 0.000148956 -2.50859e-05)
(-8.41488e-05 0.000131235 -1.9447e-05)
(-7.02863e-05 0.000110394 -1.61624e-05)
(-5.64617e-05 9.4626e-05 -1.32266e-05)
(-4.54858e-05 8.12332e-05 -1.12185e-05)
(-3.48924e-05 7.05151e-05 -9.71581e-06)
(-2.46134e-05 6.25712e-05 -8.70486e-06)
(-1.41426e-05 5.71959e-05 -8.13057e-06)
(-4.82496e-06 5.25501e-05 -7.26722e-06)
(4.62382e-06 3.62016e-05 -5.33647e-06)
(1.34021e-05 3.95728e-05 -5.98347e-06)
(2.3536e-05 4.36914e-05 -6.39877e-06)
(3.3837e-05 5.00147e-05 -7.14472e-06)
(4.46877e-05 5.90056e-05 -8.24157e-06)
(5.60606e-05 7.10057e-05 -9.74436e-06)
(6.80093e-05 8.62817e-05 -1.17744e-05)
(8.03652e-05 0.000104158 -1.43845e-05)
(9.71555e-05 0.000124006 -1.82086e-05)
(0.000109782 0.00014207 -2.23449e-05)
(0.000196029 0.000133731 -2.91992e-05)
(0.000236929 0.00031923 -3.28128e-05)
(0.000181771 0.000389015 -3.98343e-05)
(0.000155871 0.000445248 -4.50727e-05)
(0.000126449 0.000492697 -5.00945e-05)
(9.45498e-05 0.000530228 -5.31865e-05)
(5.89835e-05 0.000556273 -5.54812e-05)
(2.1394e-05 0.000569682 -5.66602e-05)
(-1.69398e-05 0.000570031 -5.66951e-05)
(-5.45332e-05 0.000557316 -5.55863e-05)
(-9.01109e-05 0.000531948 -5.33599e-05)
(-0.000122022 0.000495052 -5.03389e-05)
(-0.000151476 0.000448151 -4.53778e-05)
(-0.000177206 0.000392303 -4.02113e-05)
(-0.000232559 0.000322804 -3.32377e-05)
(-0.000189651 0.000136181 -2.97288e-05)
(-0.000102181 0.000147858 -2.29052e-05)
(-9.02117e-05 0.000130312 -1.89144e-05)
(-7.2468e-05 0.000111231 -1.52141e-05)
(-5.89387e-05 9.42855e-05 -1.27812e-05)
(-4.5344e-05 8.03068e-05 -1.09569e-05)
(-3.19508e-05 7.00926e-05 -9.72812e-06)
(-1.83286e-05 6.32993e-05 -9.02849e-06)
(-6.31652e-06 5.7808e-05 -8.03547e-06)
(5.71961e-06 3.7921e-05 -5.78659e-06)
(1.65002e-05 4.16053e-05 -6.51232e-06)
(2.91326e-05 4.6294e-05 -6.99932e-06)
(4.22328e-05 5.36145e-05 -7.87199e-06)
(5.63343e-05 6.42435e-05 -9.14728e-06)
(7.13813e-05 7.88228e-05 -1.08771e-05)
(8.65985e-05 9.78672e-05 -1.31525e-05)
(0.000101278 0.000120319 -1.59964e-05)
(0.000114879 0.000141188 -2.03838e-05)
(9.31562e-05 0.000127209 -2.5224e-05)
(0.000244792 0.000119085 -3.58755e-05)
(0.000348054 0.000483013 -3.47773e-05)
(0.000244449 0.000543709 -4.0656e-05)
(0.000213844 0.000594134 -4.40889e-05)
(0.000175319 0.000650121 -4.81911e-05)
(0.000131234 0.000697506 -5.03473e-05)
(8.17761e-05 0.000731562 -5.22553e-05)
(2.93231e-05 0.000749207 -5.33042e-05)
(-2.40957e-05 0.000749641 -5.33385e-05)
(-7.65626e-05 0.000732862 -5.23582e-05)
(-0.00012606 0.000699657 -5.05144e-05)
(-0.00017023 0.000653073 -4.84266e-05)
(-0.00020893 0.000597769 -4.43714e-05)
(-0.000239588 0.000547689 -4.10043e-05)
(-0.000344725 0.000486062 -3.51548e-05)
(-0.000238176 0.000121043 -3.64925e-05)
(-8.4225e-05 0.000135675 -2.57935e-05)
(-0.000107477 0.000149336 -2.11322e-05)
(-9.25748e-05 0.000128341 -1.68859e-05)
(-7.64135e-05 0.000106504 -1.42463e-05)
(-5.90659e-05 8.87093e-05 -1.22065e-05)
(-4.13837e-05 7.60102e-05 -1.0793e-05)
(-2.36301e-05 6.77796e-05 -9.98012e-06)
(-8.20282e-06 6.15305e-05 -8.84967e-06)
(6.92467e-06 3.84301e-05 -6.25406e-06)
(1.99297e-05 4.23114e-05 -7.06554e-06)
(3.53912e-05 4.74404e-05 -7.63702e-06)
(5.1774e-05 5.56484e-05 -8.66432e-06)
(6.98948e-05 6.80544e-05 -1.01697e-05)
(8.96857e-05 8.63249e-05 -1.22318e-05)
(0.000109558 0.000113405 -1.48673e-05)
(0.000124683 0.000154354 -1.81045e-05)
(0.000115417 0.000215083 -2.15368e-05)
(9.95729e-05 0.000256761 -2.66448e-05)
(0.000163674 0.000455023 4.32246e-06)
(0.000230069 0.000576744 7.69195e-06)
(0.000257496 0.000666883 1.12585e-05)
(0.000229602 0.000749719 1.52438e-05)
(0.000176012 0.000813423 1.70398e-05)
(0.000110709 0.000857006 1.81645e-05)
(3.94835e-05 0.000879012 1.86182e-05)
(-3.32935e-05 0.000879505 1.86151e-05)
(-0.000104543 0.000858491 1.81552e-05)
(-0.000169921 0.00081592 1.70271e-05)
(-0.00022369 0.000753263 1.52249e-05)
(-0.000252055 0.00067156 1.12462e-05)
(-0.000225891 0.00058264 7.66582e-06)
(-0.00016104 0.000461382 4.24575e-06)
(-9.66352e-05 0.00026365 -2.71139e-05)
(-0.000110108 0.000222791 -2.22777e-05)
(-0.00011639 0.000162254 -1.90304e-05)
(-9.86263e-05 0.00012208 -1.60261e-05)
(-7.58187e-05 9.63467e-05 -1.36707e-05)
(-5.26272e-05 8.00561e-05 -1.19762e-05)
(-2.98234e-05 7.01878e-05 -1.10067e-05)
(-1.03705e-05 6.32432e-05 -9.7162e-06)
(8.21766e-06 3.75206e-05 -6.71569e-06)
(2.3634e-05 4.13677e-05 -7.61135e-06)
(4.23135e-05 4.65177e-05 -8.25823e-06)
(6.28337e-05 5.48055e-05 -9.41793e-06)
(8.70088e-05 6.74353e-05 -1.10968e-05)
(0.000116733 8.6274e-05 -1.33479e-05)
(0.000154818 0.000114837 -1.60119e-05)
(0.000207508 0.00015935 -1.91047e-05)
(0.000279597 0.000230447 -2.02471e-05)
(0.000425538 0.000314944 -2.12006e-05)
(0.000441983 0.000109224 -6.6382e-06)
(0.000367983 0.00025798 1.33676e-06)
(0.000425027 0.000450645 5.41815e-05)
(0.000385069 0.000572513 8.10279e-05)
(0.000321936 0.000666254 0.000101072)
(0.00023862 0.000732827 0.000111791)
(0.000147431 0.000776421 0.000118154)
(5.18449e-05 0.000798003 0.000120896)
(-4.46392e-05 0.000798467 0.000120921)
(-0.000140214 0.000777826 0.00011823)
(-0.000231388 0.000735207 0.000111929)
(-0.000314664 0.000669684 0.000101279)
(-0.00037773 0.000577163 8.13426e-05)
(-0.000417431 0.000456806 5.45972e-05)
(-0.000358858 0.000265722 1.96786e-06)
(-0.000434854 0.000111358 -6.29121e-06)
(-0.000420628 0.000318769 -2.1424e-05)
(-0.000272126 0.000236379 -2.08406e-05)
(-0.000197907 0.000166418 -2.00158e-05)
(-0.000142512 0.000123069 -1.72253e-05)
(-0.000101069 9.5987e-05 -1.48932e-05)
(-6.72808e-05 7.91731e-05 -1.30638e-05)
(-3.735e-05 6.9095e-05 -1.2e-05)
(-1.29555e-05 6.21252e-05 -1.05631e-05)
(9.42945e-06 3.51611e-05 -7.16386e-06)
(2.70929e-05 3.87245e-05 -8.14539e-06)
(4.86767e-05 4.34281e-05 -8.88166e-06)
(7.26789e-05 5.08747e-05 -1.02088e-05)
(0.000101362 6.18929e-05 -1.2154e-05)
(0.000137097 7.74877e-05 -1.48176e-05)
(0.000182862 9.89886e-05 -1.81038e-05)
(0.000244401 0.00012734 -2.21085e-05)
(0.000323954 0.00016171 -2.48042e-05)
(0.000449681 0.000191748 -2.72701e-05)
(0.000505262 0.000138493 -1.54933e-05)
(0.000520568 0.000252784 -5.20055e-07)
(0.000535829 0.000355211 5.82062e-05)
(0.000472363 0.000439637 8.60548e-05)
(0.000389933 0.000509759 0.000107544)
(0.000286224 0.000561266 0.000119159)
(0.000175906 0.000595619 0.000125925)
(6.15357e-05 0.000612811 0.00012879)
(-5.34772e-05 0.000613208 0.000128813)
(-0.000167826 0.000596815 0.000125995)
(-0.000278109 0.000563269 0.000119286)
(-0.000381748 0.00051258 0.000107737)
(-0.000464114 0.000443286 8.63538e-05)
(-0.000527441 0.000359602 5.85856e-05)
(-0.000511655 0.000257618 1.26083e-07)
(-0.00049737 0.000141375 -1.52524e-05)
(-0.000442688 0.000196542 -2.74469e-05)
(-0.000315547 0.000167404 -2.53833e-05)
(-0.000233818 0.000133937 -2.30423e-05)
(-0.000169284 0.000106672 -1.93818e-05)
(-0.000119702 8.65908e-05 -1.64686e-05)
(-7.9263e-05 7.29164e-05 -1.42769e-05)
(-4.38269e-05 6.42953e-05 -1.30203e-05)
(-1.52061e-05 5.80546e-05 -1.14126e-05)
(1.05196e-05 3.15181e-05 -7.57184e-06)
(3.01862e-05 3.46459e-05 -8.62929e-06)
(5.43214e-05 3.86899e-05 -9.43951e-06)
(8.12866e-05 4.50056e-05 -1.09002e-05)
(0.00011362 5.41602e-05 -1.30451e-05)
(0.00015383 6.67385e-05 -1.59812e-05)
(0.00020471 8.33217e-05 -1.96206e-05)
(0.000270915 0.00010414 -2.39871e-05)
(0.000352207 0.000127878 -2.72665e-05)
(0.000459045 0.000151493 -2.96924e-05)
(0.000537357 0.000147731 -2.00975e-05)
(0.000599822 0.000207792 -5.30235e-06)
(0.000612619 0.000274349 5.49387e-05)
(0.000539735 0.0003357 8.35262e-05)
(0.000443624 0.000388066 0.000105894)
(0.000324518 0.000427586 0.000117467)
(0.00019899 0.00045427 0.000124174)
(6.94368e-05 0.000467737 0.000126958)
(-6.06382e-05 0.000468082 0.000126976)
(-0.000190168 0.000455302 0.00012423)
(-0.000315661 0.0004293 0.000117572)
(-0.000434706 0.00039045 0.000106059)
(-0.000530812 0.000338723 8.37977e-05)
(-0.00060367 0.000277912 5.52858e-05)
(-0.000591089 0.000211775 -4.68902e-06)
(-0.000529357 0.000151163 -1.98869e-05)
(-0.000451091 0.000155779 -2.98607e-05)
(-0.000342926 0.000132895 -2.78598e-05)
(-0.000259324 0.000110013 -2.49602e-05)
(-0.000189897 9.02051e-05 -2.09679e-05)
(-0.000134806 7.49217e-05 -1.77341e-05)
(-8.93379e-05 6.4067e-05 -1.53128e-05)
(-4.9383e-05 5.70343e-05 -1.39214e-05)
(-1.71698e-05 5.17152e-05 -1.21725e-05)
(1.14202e-05 2.6791e-05 -7.92967e-06)
(3.27315e-05 2.93657e-05 -9.05319e-06)
(5.89095e-05 3.26014e-05 -9.92974e-06)
(8.81388e-05 3.75814e-05 -1.1511e-05)
(0.000123094 4.46558e-05 -1.38412e-05)
(0.000166259 5.412e-05 -1.70427e-05)
(0.000220267 6.61724e-05 -2.10598e-05)
(0.00028902 8.08485e-05 -2.58992e-05)
(0.00037201 9.71872e-05 -2.99019e-05)
(0.000473855 0.000115092 -3.27699e-05)
(0.000564075 0.000126246 -2.41662e-05)
(0.000648658 0.000162927 -1.0006e-05)
(0.000663968 0.00020661 5.04231e-05)
(0.000586196 0.000248262 7.86242e-05)
(0.000481889 0.000284896 0.00010076)
(0.000352481 0.000313297 0.000111917)
(0.000216088 0.000332766 0.000118336)
(7.53576e-05 0.000342706 0.000120951)
(-6.59229e-05 0.000343008 0.000120964)
(-0.000206639 0.000333667 0.000118378)
(-0.000343014 0.000314779 0.000111999)
(-0.000472395 0.000286929 0.000100891)
(-0.000576767 0.000250798 7.88569e-05)
(-0.000654607 0.00020956 5.07221e-05)
(-0.000639793 0.000166209 -9.43477e-06)
(-0.000555806 0.000129542 -2.39955e-05)
(-0.000465252 0.000118929 -3.29535e-05)
(-0.000362013 0.000101593 -3.05259e-05)
(-0.000276571 8.59457e-05 -2.69182e-05)
(-0.000204377 7.21171e-05 -2.24753e-05)
(-0.000145822 6.11584e-05 -1.88897e-05)
(-9.69399e-05 5.31317e-05 -1.62382e-05)
(-5.36639e-05 4.78058e-05 -1.47153e-05)
(-1.86908e-05 4.3572e-05 -1.28419e-05)
(1.21195e-05 2.12418e-05 -8.22216e-06)
(3.47001e-05 2.32077e-05 -9.39785e-06)
(6.24302e-05 2.56022e-05 -1.03245e-05)
(9.33323e-05 2.92493e-05 -1.19955e-05)
(0.000130158 3.43658e-05 -1.44608e-05)
(0.000175346 4.11082e-05 -1.78495e-05)
(0.000231438 4.95547e-05 -2.21231e-05)
(0.000301934 5.97343e-05 -2.72714e-05)
(0.000386493 7.11682e-05 -3.17168e-05)
(0.00048835 8.42956e-05 -3.49302e-05)
(0.000585351 9.68673e-05 -2.70945e-05)
(0.000680325 0.000120518 -1.34208e-05)
(0.00069806 0.000148586 4.71464e-05)
(0.000618117 0.00017622 7.51467e-05)
(0.000508724 0.000200932 9.71501e-05)
(0.000372433 0.000220451 0.00010806)
(0.000228424 0.000233986 0.000114302)
(7.96869e-05 0.000240975 0.000116812)
(-6.96854e-05 0.000241249 0.000116822)
(-0.000218422 0.000234801 0.000114334)
(-0.000362444 0.000221781 0.000108127)
(-0.000498751 0.000202734 9.72603e-05)
(-0.000608278 0.000178436 7.53533e-05)
(-0.000688365 0.000151135 4.7414e-05)
(-0.00067124 0.000123333 -1.28801e-05)
(-0.000576791 9.98357e-05 -2.69594e-05)
(-0.000479285 8.76267e-05 -3.51432e-05)
(-0.000375952 7.4904e-05 -3.2379e-05)
(-0.000288804 6.39827e-05 -2.83385e-05)
(-0.000214683 5.44456e-05 -2.36018e-05)
(-0.000153777 4.68332e-05 -1.97788e-05)
(-0.000102515 4.11834e-05 -1.69669e-05)
(-5.68378e-05 3.73845e-05 -1.53506e-05)
(-1.98273e-05 3.42263e-05 -1.33821e-05)
(1.26068e-05 1.51148e-05 -8.44247e-06)
(3.6071e-05 1.64388e-05 -9.65618e-06)
(6.48675e-05 1.7985e-05 -1.06185e-05)
(9.68956e-05 2.03209e-05 -1.23535e-05)
(0.000134952 2.35733e-05 -1.49146e-05)
(0.000181447 2.78254e-05 -1.84361e-05)
(0.000238893 3.31205e-05 -2.28908e-05)
(0.000310634 3.95081e-05 -2.82615e-05)
(0.000396573 4.68312e-05 -3.30072e-05)
(0.000499565 5.5516e-05 -3.64925e-05)
(0.000600309 6.49427e-05 -2.90657e-05)
(0.000700407 7.92526e-05 -1.56698e-05)
(0.000719733 9.60836e-05 4.50543e-05)
(0.000638607 0.000112746 7.29566e-05)
(0.000526165 0.000127772 9.48769e-05)
(0.000385568 0.000139791 0.000105649)
(0.000236631 0.000148209 0.000111789)
(8.26275e-05 0.000152623 0.000114239)
(-7.2103e-05 0.000152884 0.000114247)
(-0.000226125 0.00014898 0.000111815)
(-0.000375115 0.000141037 0.000105704)
(-0.000515786 0.000129438 9.49712e-05)
(-0.000628432 0.000114758 7.31425e-05)
(-0.000709774 9.83578e-05 4.52962e-05)
(-0.000691124 8.17162e-05 -1.51596e-05)
(-0.000591523 6.75384e-05 -2.89657e-05)
(-0.000490194 5.83222e-05 -3.67398e-05)
(-0.000385658 4.98796e-05 -3.3709e-05)
(-0.000297029 4.2871e-05 -2.93744e-05)
(-0.000221525 3.68892e-05 -2.4425e-05)
(-0.000159073 3.213e-05 -2.04334e-05)
(-0.000106253 2.85861e-05 -1.75072e-05)
(-5.89781e-05 2.61856e-05 -1.58243e-05)
(-2.05932e-05 2.40936e-05 -1.3787e-05)
(1.28842e-05 8.65138e-06 -8.58482e-06)
(3.68532e-05 9.32124e-06 -9.8216e-06)
(6.62542e-05 1.00297e-05 -1.08042e-05)
(9.8916e-05 1.10918e-05 -1.25752e-05)
(0.000137662 1.25695e-05 -1.51898e-05)
(0.000184893 1.45054e-05 -1.87847e-05)
(0.000243121 1.69367e-05 -2.3338e-05)
(0.000315644 1.99151e-05 -2.88299e-05)
(0.000402501 2.34437e-05 -3.37333e-05)
(0.000506461 2.77216e-05 -3.73725e-05)
(0.000609089 3.26527e-05 -3.01389e-05)
(0.000711479 3.92731e-05 -1.68738e-05)
(0.000731589 4.68518e-05 4.39976e-05)
(0.000649846 5.43088e-05 7.18956e-05)
(0.000535796 6.10368e-05 9.38058e-05)
(0.000392891 6.64744e-05 0.000104532)
(0.000241268 7.03416e-05 0.000110635)
(8.43655e-05 7.24481e-05 0.000113061)
(-7.33322e-05 7.27109e-05 0.000113068)
(-0.00023028 7.11151e-05 0.000110655)
(-0.000382007 6.77129e-05 0.000104578)
(-0.000525058 6.26681e-05 9.3887e-05)
(-0.000639399 5.62365e-05 7.20635e-05)
(-0.000721444 4.89732e-05 4.42163e-05)
(-0.000702073 4.14891e-05 -1.63958e-05)
(-0.000600187 3.4908e-05 -3.00748e-05)
(-0.000496943 3.00324e-05 -3.76567e-05)
(-0.000391403 2.5819e-05 -3.44743e-05)
(-0.000301794 2.23897e-05 -2.99845e-05)
(-0.000225423 1.95577e-05 -2.49182e-05)
(-0.000162073 1.73399e-05 -2.08343e-05)
(-0.000108366 1.57042e-05 -1.78447e-05)
(-6.01892e-05 1.4595e-05 -1.61248e-05)
(-2.10251e-05 1.35432e-05 -1.40463e-05)
(1.29525e-05 2.07425e-06 -8.64733e-06)
(3.70521e-05 2.08679e-06 -9.8922e-06)
(6.66068e-05 1.96269e-06 -1.08802e-05)
(9.9433e-05 1.76514e-06 -1.26606e-05)
(0.000138365 1.49757e-06 -1.52892e-05)
(0.000185814 1.17033e-06 -1.8903e-05)
(0.000244302 8.18804e-07 -2.34812e-05)
(0.00031714 4.92326e-07 -2.90043e-05)
(0.000404379 3.07594e-07 -3.39447e-05)
(0.000508773 2.29191e-07 -3.76228e-05)
(0.000611861 4.16624e-07 -3.04172e-05)
(0.000714611 -8.85454e-08 -1.71609e-05)
(0.000734783 -1.07394e-06 4.3789e-05)
(0.000652811 -2.20743e-06 7.17232e-05)
(0.000538343 -3.28754e-06 9.36582e-05)
(0.000394882 -4.09172e-06 0.000104394)
(0.00024261 -4.5582e-06 0.000110501)
(8.49989e-05 -4.64678e-06 0.000112927)
(-7.34381e-05 -4.36335e-06 0.000112931)
(-0.000231129 -3.72677e-06 0.000110515)
(-0.000383571 -2.77142e-06 0.00010443)
(-0.000527275 -1.57206e-06 9.3725e-05)
(-0.000642146 -2.26958e-07 7.18707e-05)
(-0.000724537 1.03429e-06 4.39816e-05)
(-0.000705194 2.00125e-06 -1.67205e-05)
(-0.00060298 2.41037e-06 -3.03934e-05)
(-0.000499282 2.11014e-06 -3.79475e-05)
(-0.000393301 2.05935e-06 -3.47251e-05)
(-0.00030329 2.11387e-06 -3.01968e-05)
(-0.000226574 2.31157e-06 -2.50981e-05)
(-0.000162923 2.53895e-06 -2.09892e-05)
(-0.000108949 2.74547e-06 -1.79821e-05)
(-6.05185e-05 2.88954e-06 -1.62521e-05)
(-2.1138e-05 2.86789e-06 -1.41589e-05)
(1.28127e-05 -4.39034e-06 -8.62972e-06)
(3.66697e-05 -5.02981e-06 -9.86807e-06)
(6.59286e-05 -5.98761e-06 -1.08468e-05)
(9.84508e-05 -7.45296e-06 -1.26105e-05)
(0.000137067 -9.48782e-06 -1.5214e-05)
(0.000184215 -1.21232e-05 -1.8793e-05)
(0.000242443 -1.53313e-05 -2.33232e-05)
(0.000315133 -1.90567e-05 -2.87889e-05)
(0.000402238 -2.30141e-05 -3.36478e-05)
(0.00050657 -2.74174e-05 -3.72528e-05)
(0.000608771 -3.15609e-05 -2.99168e-05)
(0.000709988 -3.92986e-05 -1.65518e-05)
(0.000729468 -4.92101e-05 4.43989e-05)
(0.00064763 -5.92544e-05 7.24036e-05)
(0.00053391 -6.84025e-05 9.43928e-05)
(0.000391619 -7.56003e-05 0.00010519)
(0.000240712 -8.04789e-05 0.000111337)
(8.45603e-05 -8.27826e-05 0.000113785)
(-7.24121e-05 -8.24546e-05 0.000113787)
(-0.000228688 -7.95176e-05 0.000111344)
(-0.000379851 -7.40809e-05 0.000105212)
(-0.000522512 -6.64451e-05 9.44399e-05)
(-0.00063679 -5.70381e-05 7.25239e-05)
(-0.000719215 -4.69244e-05 4.45581e-05)
(-0.000700697 -3.71686e-05 -1.61594e-05)
(-0.000600077 -2.97064e-05 -2.99423e-05)
(-0.000497294 -2.58609e-05 -3.76248e-05)
(-0.000391399 -2.17971e-05 -3.44706e-05)
(-0.000301542 -1.82124e-05 -3.00173e-05)
(-0.000224998 -1.4901e-05 -2.49691e-05)
(-0.000161639 -1.21617e-05 -2.09012e-05)
(-0.000108011 -1.00713e-05 -1.79215e-05)
(-5.9973e-05 -8.65322e-06 -1.62076e-05)
(-2.09347e-05 -7.64462e-06 -1.41255e-05)
(1.24642e-05 -1.05152e-05 -8.53548e-06)
(3.57024e-05 -1.17927e-05 -9.75252e-06)
(6.42065e-05 -1.35908e-05 -1.07068e-05)
(9.5935e-05 -1.63552e-05 -1.24266e-05)
(0.000133695 -2.02389e-05 -1.49635e-05)
(0.000179971 -2.53486e-05 -1.84496e-05)
(0.000237369 -3.1695e-05 -2.28512e-05)
(0.000309458 -3.92027e-05 -2.81611e-05)
(0.000396018 -4.72524e-05 -3.28031e-05)
(0.000500227 -5.59618e-05 -3.62258e-05)
(0.000599978 -6.29569e-05 -2.85696e-05)
(0.000696956 -7.88701e-05 -1.49623e-05)
(0.000714807 -9.93076e-05 4.59414e-05)
(0.000633593 -0.00011971 7.40919e-05)
(0.000521981 -0.000138072 9.61912e-05)
(0.000382793 -0.000152383 0.00010713)
(0.000235421 -0.000162087 0.000113373)
(8.30211e-05 -0.000166773 0.000115873)
(-7.01709e-05 -0.000166368 0.00011587)
(-0.000222749 -0.000160899 0.000113366)
(-0.000370486 -0.000150505 0.000107129)
(-0.000510216 -0.000135652 9.6208e-05)
(-0.000622601 -0.000116997 7.41717e-05)
(-0.000704649 -9.65657e-05 4.60541e-05)
(-0.00068797 -7.64638e-05 -1.46342e-05)
(-0.000591671 -6.10804e-05 -2.8659e-05)
(-0.000491373 -5.45821e-05 -3.66568e-05)
(-0.000385652 -4.64388e-05 -3.36753e-05)
(-0.000296394 -3.90161e-05 -2.94272e-05)
(-0.000220524 -3.22142e-05 -2.45213e-05)
(-0.000158097 -2.6681e-05 -2.05675e-05)
(-0.000105479 -2.25347e-05 -1.76644e-05)
(-5.85165e-05 -1.97538e-05 -1.5995e-05)
(-2.0404e-05 -1.76987e-05 -1.39509e-05)
(1.19064e-05 -1.60638e-05 -8.37082e-06)
(3.41451e-05 -1.79431e-05 -9.55288e-06)
(6.14143e-05 -2.05676e-05 -1.04692e-05)
(9.18071e-05 -2.46418e-05 -1.21205e-05)
(0.000128074 -3.0452e-05 -1.45535e-05)
(0.000172759 -3.82481e-05 -1.78951e-05)
(0.000228589 -4.81722e-05 -2.20971e-05)
(0.000299576 -6.01798e-05 -2.71701e-05)
(0.000385477 -7.31824e-05 -3.14641e-05)
(0.000490854 -8.66639e-05 -3.46438e-05)
(0.00058585 -9.19845e-05 -2.63422e-05)
(0.000673615 -0.000118308 -1.22962e-05)
(0.000688585 -0.000153257 4.85091e-05)
(0.000608816 -0.000186708 7.68769e-05)
(0.000501204 -0.000216241 9.91021e-05)
(0.000367581 -0.000238793 0.000110268)
(0.000226309 -0.000253952 0.000116665)
(8.02745e-05 -0.000261271 0.000119251)
(-6.65343e-05 -0.000260749 0.000119241)
(-0.000212811 -0.000252411 0.000116637)
(-0.00035458 -0.00023634 0.000110232)
(-0.000488973 -0.000213046 9.9073e-05)
(-0.000597656 -0.000183119 7.68969e-05)
(-0.000678639 -0.000149635 4.85589e-05)
(-0.00066519 -0.000115279 -1.20542e-05)
(-0.000578183 -8.99044e-05 -2.65176e-05)
(-0.000482641 -8.52645e-05 -3.51534e-05)
(-0.000375831 -7.25881e-05 -3.23999e-05)
(-0.000287317 -6.04818e-05 -2.84811e-05)
(-0.000212664 -4.94776e-05 -2.3791e-05)
(-0.000151967 -4.07053e-05 -2.00145e-05)
(-0.000101165 -3.42735e-05 -1.72299e-05)