/*--------------------------------*- C++ -*----------------------------------*\
| =========                 |                                                 |
| \\      /  F ield         | OpenFOAM: The Open Source CFD Toolbox           |
|  \\    /   O peration     | Version:  2112                                  |
|   \\  /    A nd           | Website:  www.openfoam.com                      |
|    \\/     M anipulation  |                                                 |
\*---------------------------------------------------------------------------*/
FoamFile
{
    version     2.0;
    format      ascii;
    arch        "LSB;label=32;scalar=64";
    class       volScalarField;
    location    "4.7";
    object      epsilon;
}
// * * * * * * * * * * * * * * * * * * * * * * * * * * * * * * * * * * * * * //

dimensions      [0 2 -3 0 0 0 0];

internalField   nonuniform List<scalar> 
64906
(
8.6678e-05
0.000104829
0.000117269
0.000124014
0.000127431
0.000129076
0.000129819
0.000130122
0.000130217
0.000130218
0.00013018
0.00013013
0.00013009
0.000130063
0.000130043
0.000130027
0.000130015
0.000130007
0.000130004
0.000130009
0.000130019
0.000130033
0.00013005
0.000130072
0.000130096
0.0001301
0.000130023
0.000129747
0.00012903
0.000127407
0.000124004
0.000117268
0.000104837
8.66853e-05
0.000104847
0.000200958
0.000263318
0.000299698
0.000320253
0.000331311
0.000336828
0.000339251
0.000340034
0.000340011
0.000339657
0.000339235
0.00033888
0.000338633
0.000338483
0.000338395
0.000338345
0.000338321
0.000338321
0.000338344
0.000338392
0.000338472
0.000338596
0.000338772
0.000338941
0.000338906
0.000338215
0.000335999
0.000330734
0.000319913
0.000299539
0.000263273
0.000200966
0.00010487
0.000117312
0.00026336
0.000361935
0.000422059
0.000457578
0.00047748
0.000487696
0.000492129
0.000493281
0.000492735
0.000491495
0.000490184
0.000489131
0.000488433
0.000488027
0.000487797
0.00048767
0.000487613
0.000487615
0.000487674
0.000487799
0.00048801
0.000488355
0.000488884
0.000489513
0.00048983
0.000488907
0.000485064
0.000475598
0.000456413
0.00042146
0.000361704
0.000263331
0.000117352
0.000124078
0.00029979
0.000422113
0.000499058
0.000545779
0.000572456
0.000586065
0.000591414
0.000591801
0.000589528
0.00058625
0.000583109
0.000580694
0.000579154
0.000578284
0.000577784
0.000577496
0.000577363
0.000577366
0.000577502
0.000577785
0.000578253
0.000579024
0.000580293
0.000582042
0.000583665
0.000583739
0.000579726
0.000567852
0.000542852
0.000497469
0.000421426
0.000299625
0.000124124
0.000127507
0.00032039
0.000457705
0.000545883
0.000600228
0.000631241
0.000646292
0.000650655
0.00064821
0.000642041
0.000634735
0.000628274
0.000623551
0.000620713
0.000619194
0.00061829
0.000617739
0.000617477
0.000617481
0.000617747
0.000618292
0.000619155
0.000620544
0.000623031
0.000626892
0.000631406
0.000634659
0.000633033
0.000621568
0.000594008
0.000542418
0.000456121
0.000319923
0.000127542
0.000129158
0.000331491
0.00047772
0.000572767
0.000631539
0.000664312
0.000678341
0.000678952
0.000670429
0.000656863
0.000642461
0.000630783
0.00062279
0.000618413
0.000616297
0.00061491
0.000613984
0.000613534
0.000613539
0.000613997
0.000614917
0.000616262
0.000618238
0.000622227
0.000629243
0.000638689
0.000648435
0.000653111
0.000645999
0.000619771
0.000566143
0.000474605
0.00033048
0.000129156
0.000129905
0.000337072
0.000488147
0.000586812
0.000647328
0.000679348
0.000689526
0.000682729
0.000663344
0.000636906
0.000610959
0.000592765
0.000581536
0.000576295
0.000574274
0.000572483
0.000571125
0.000570459
0.000570465
0.000571142
0.000572498
0.000574257
0.000576152
0.000581022
0.000591271
0.000607126
0.000628064
0.000644876
0.000647459
0.000627065
0.000575425
0.000482718
0.000335214
0.000129831
0.000130217
0.000339609
0.000492968
0.000593012
0.000653233
0.000682334
0.000685786
0.000667145
0.000629999
0.000581615
0.000537025
0.000515341
0.000504806
0.000501586
0.000501427
0.000499624
0.000498001
0.000497221
0.000497228
0.00049802
0.000499649
0.000501435
0.000501506
0.000504433
0.000514119
0.000533578
0.00057303
0.000611288
0.000630826
0.000621262
0.000575251
0.000484478
0.000336611
0.000130031
0.000130328
0.000340594
0.000494775
0.000594879
0.000653575
0.000678365
0.000672868
0.000637817
0.000573208
0.00048532
0.000405783
0.000400109
0.000404437
0.000409568
0.00041366
0.000412827
0.000411645
0.00041109
0.000411097
0.000411666
0.000412858
0.000413693
0.000409559
0.000404264
0.000399376
0.000403315
0.000477775
0.000555032
0.000601352
0.000607496
0.000569787
0.000482839
0.000336314
0.000130009
0.000130353
0.000340882
0.00049522
0.000594874
0.000651793
0.000672263
0.000657618
0.000603867
0.000500796
0.000338921
0.000187008
0.000252955
0.000301291
0.000322151
0.000331018
0.000332509
0.000332641
0.000332615
0.000332621
0.00033266
0.000332541
0.000331062
0.000322197
0.000301308
0.000252855
0.000186306
0.000333489
0.000483757
0.000567739
0.000592033
0.000563079
0.000480217
0.00033547
0.000129907
0.000130349
0.000340944
0.000495297
0.00059464
0.000650507
0.000668471
0.00064835
0.000581871
0.00044466
0.00019862
0.000150109
0.000231894
0.000262597
0.000272415
0.000275931
0.00027703
0.000277307
0.000277311
0.000277042
0.000275953
0.000272449
0.000262649
0.000231962
0.000150136
0.00019626
0.000428908
0.000546105
0.000582743
0.000559045
0.000478571
0.000334899
0.000129825
0.000130337
0.000341001
0.000495491
0.000595002
0.000651098
0.000669632
0.000651538
0.000592635
0.000483429
0.000317166
0.000172539
0.000207918
0.000243644
0.000258413
0.00026211
0.000265825
0.000267086
0.000267342
0.000267342
0.000267086
0.000265826
0.000262106
0.000258406
0.000243611
0.000207728
0.000171775
0.000311813
0.000466512
0.000556515
0.000585736
0.000559988
0.000478892
0.000334988
0.0001298
0.00013033
0.000341114
0.000495906
0.000595996
0.000653229
0.000674142
0.000661325
0.00061465
0.000533956
0.000426734
0.000327838
0.000290851
0.000272109
0.000265223
0.000262537
0.000262824
0.000263041
0.000263057
0.000263054
0.000263032
0.000262806
0.000262501
0.000265149
0.000271913
0.000290202
0.0003256
0.000419585
0.000516084
0.000578082
0.000595259
0.000564255
0.000480736
0.000335625
0.000129857
0.000130326
0.00034126
0.000496437
0.000597281
0.000655955
0.000679609
0.000671975
0.000634921
0.000571014
0.000488046
0.000403881
0.00033943
0.000294435
0.000274039
0.000266394
0.000264078
0.000263369
0.000263141
0.000263135
0.000263352
0.000264047
0.000266337
0.000273926
0.000294154
0.000338557
0.00040101
0.000480078
0.00055251
0.000597924
0.000605586
0.000569419
0.000483116
0.000336477
0.000129933
0.000130321
0.000341399
0.000496947
0.000598498
0.000658457
0.000684361
0.000680487
0.000649328
0.000593635
0.00051942
0.000438169
0.000363849
0.000307591
0.000280366
0.000269715
0.000266016
0.00026478
0.000264386
0.000264377
0.000264755
0.000265974
0.000269647
0.000280236
0.000307275
0.000362878
0.000435034
0.00051106
0.000574734
0.00061198
0.000613782
0.000573853
0.000485262
0.00033726
0.000129992
0.000130314
0.000341504
0.000497348
0.000599441
0.000660343
0.000687785
0.00068624
0.000658264
0.000606262
0.00053504
0.000453865
0.000375392
0.000314293
0.000283911
0.000271735
0.000267366
0.000265861
0.000265359
0.000265346
0.000265828
0.000267318
0.00027166
0.000283773
0.000313961
0.00037437
0.000450606
0.00052647
0.000587107
0.000620649
0.000619263
0.000576993
0.000486833
0.000337833
0.000130025
0.000130304
0.000341566
0.00049761
0.000600054
0.00066154
0.000689883
0.000689598
0.000663169
0.000612704
0.000542412
0.000460851
0.000380525
0.000317341
0.000285587
0.00027272
0.000268046
0.000266404
0.000265825
0.000265808
0.000266365
0.000267993
0.000272641
0.000285444
0.000317
0.00037946
0.000457529
0.00053373
0.000593396
0.000625377
0.000622429
0.000578883
0.0004878
0.000338178
0.000130033
0.000130292
0.000341589
0.00049774
0.000600357
0.000662119
0.000690872
0.00069113
0.000665319
0.000615399
0.000545351
0.00046353
0.000382491
0.000318502
0.000286231
0.000273096
0.000268299
0.00026659
0.000265956
0.000265934
0.000266545
0.000268241
0.000273014
0.000286085
0.000318156
0.000381388
0.000460182
0.00053662
0.000596021
0.000627439
0.000623861
0.000579761
0.000488255
0.000338331
0.000130024
0.000130281
0.000341581
0.000497749
0.000600376
0.00066215
0.000690916
0.00069119
0.000665396
0.000615493
0.000545457
0.00046364
0.000382591
0.000318574
0.000286272
0.000273112
0.000268295
0.000266565
0.000265899
0.000265871
0.000266515
0.000268234
0.000273028
0.000286125
0.000318228
0.000381484
0.000460295
0.00053673
0.000596117
0.000627517
0.00062392
0.000579802
0.000488278
0.000338327
0.000130007
0.000130278
0.000341547
0.000497635
0.00060011
0.000661628
0.00069001
0.000689771
0.000663396
0.000612984
0.000542735
0.000461192
0.000380837
0.000317564
0.000285717
0.000272774
0.000268042
0.000266338
0.000265675
0.000265644
0.000266285
0.000267979
0.000272689
0.000285572
0.000317226
0.000379756
0.000457885
0.000534067
0.000593686
0.000625608
0.000622601
0.000579001
0.000487865
0.000338172
0.00012999
0.000130282
0.000341483
0.000497385
0.000599523
0.000660473
0.000687977
0.000686511
0.000658631
0.000606734
0.000535604
0.00045448
0.000375915
0.000314695
0.000284148
0.00027184
0.000267373
0.000265769
0.000265159
0.000265131
0.000265716
0.000267309
0.000271757
0.00028401
0.000314374
0.000374904
0.000451255
0.000527063
0.000587596
0.000621022
0.000619534
0.000577176
0.000486936
0.000337835
0.000129972
0.000130287
0.000341377
0.000496981
0.000598576
0.000658588
0.000684569
0.000680807
0.000649799
0.000594291
0.000520262
0.00043914
0.000364667
0.000308207
0.000280714
0.000269866
0.000266022
0.000264661
0.000264162
0.00026414
0.000264612
0.000265961
0.000269788
0.000280589
0.00030792
0.000363746
0.000436074
0.000511951
0.000575407
0.000612448
0.000614097
0.000574059
0.000485379
0.00033727
0.000129935
0.000130289
0.00034122
0.000496423
0.00059728
0.000655982
0.000679705
0.000672207
0.00063538
0.000571798
0.000489208
0.000405308
0.000340651
0.000295211
0.000274372
0.00026644
0.000263918
0.000263067
0.000262752
0.000262735
0.000263025
0.000263859
0.000266362
0.000274256
0.000294974
0.000339882
0.000402564
0.000481318
0.000553281
0.00059833
0.00060579
0.000569533
0.000483181
0.000336471
0.000129871
0.000130288
0.00034101
0.000495731
0.000595729
0.000652895
0.000673811
0.000661117
0.000614747
0.000534606
0.000428109
0.000329745
0.000292439
0.00027252
0.000264856
0.000261735
0.000261717
0.000261774
0.000261714
0.000261699
0.00026173
0.000261641
0.000261616
0.000264687
0.000272294
0.00029195
0.000327703
0.000421045
0.000516565
0.000577948
0.000594941
0.000563988
0.000480582
0.000335536
0.000129786
0.000130278
0.000340715
0.000494892
0.00059405
0.000649841
0.000668185
0.0006501
0.000591553
0.000483258
0.000318455
0.000173381
0.000208113
0.000241392
0.000254731
0.000257571
0.000260811
0.000261889
0.000262073
0.000262051
0.000261813
0.000260641
0.000257228
0.000254183
0.000240772
0.000207831
0.000172609
0.000313075
0.000465654
0.000554714
0.000583985
0.000558716
0.000478158
0.000334659
0.000129712
0.000130244
0.000340204
0.000493692
0.000592122
0.000647165
0.00066447
0.000643916
0.000577398
0.000441101
0.000197497
0.000145464
0.000220447
0.000247254
0.000254607
0.00025729
0.000258162
0.00025836
0.000258306
0.000257956
0.000256773
0.000253464
0.000245152
0.00021752
0.000143575
0.000193978
0.000422897
0.000539679
0.000577575
0.000555499
0.000476517
0.00033401
0.000129677
0.00013013
0.000339095
0.000491435
0.000589088
0.000644219
0.000663173
0.000647245
0.000592438
0.000488909
0.000328322
0.000180023
0.000228908
0.000265454
0.000276169
0.000278106
0.00027813
0.000278126
0.000278101
0.000277997
0.000277694
0.000276925
0.000275146
0.000269967
0.000255169
0.000218324
0.000174358
0.00031528
0.000464948
0.000552066
0.000580376
0.000555168
0.000475518
0.000333387
0.000129615
0.000129828
0.000336566
0.000486581
0.000582732
0.000637985
0.000659803
0.000651469
0.000613142
0.000544171
0.000450177
0.000361474
0.000336063
0.000319207
0.000302807
0.0002938
0.000290102
0.000288859
0.000288469
0.000288313
0.000288171
0.000288022
0.000288201
0.00028967
0.000294556
0.000307269
0.00033459
0.000422538
0.000512264
0.000569538
0.000584624
0.000554116
0.000473191
0.00033183
0.000129424
0.000129094
0.000331098
0.000476451
0.000569336
0.00062358
0.000647674
0.000646361
0.000621942
0.000576271
0.00051446
0.000449322
0.000397867
0.000351945
0.000314155
0.000296044
0.000289174
0.000286891
0.0002862
0.000286012
0.000286035
0.000286453
0.000288255
0.000294398
0.000311879
0.000351352
0.00040552
0.000475317
0.00053839
0.000576859
0.000581576
0.000546938
0.000466122
0.000327541
0.000128818
0.000127464
0.000320162
0.000456895
0.000543507
0.000594487
0.00061898
0.000622479
0.000608019
0.000577504
0.00053356
0.000481199
0.000426863
0.000373292
0.000328765
0.000307139
0.000298738
0.000295866
0.000294983
0.000294772
0.000294899
0.000295657
0.000298343
0.000306573
0.000328409
0.000374494
0.000432083
0.000491212
0.000539146
0.000565411
0.000563312
0.000527258
0.000449627
0.000317769
0.000127305
0.000124056
0.000299727
0.000421766
0.000497782
0.000542367
0.00056475
0.000570552
0.000562879
0.000543275
0.000512882
0.000473644
0.000429004
0.000383794
0.00034609
0.000325975
0.000317504
0.00031438
0.000313361
0.000313126
0.000313326
0.000314299
0.000317366
0.000325836
0.000346119
0.000384694
0.000431367
0.000476437
0.000510764
0.000527395
0.000521284
0.000487191
0.000417256
0.000298348
0.000123988
0.000117308
0.000263421
0.000361933
0.000421652
0.000456089
0.000473654
0.000479417
0.000476117
0.000464902
0.000446254
0.000420911
0.000390849
0.000359971
0.000334194
0.000319266
0.000312397
0.000309728
0.000308835
0.000308631
0.00030882
0.000309695
0.000312345
0.000319228
0.000334288
0.000360411
0.00039164
0.000421
0.000442397
0.000451304
0.000443988
0.000415896
0.000359673
0.000262822
0.000117309
0.000104865
0.000201058
0.000263485
0.000299813
0.000320043
0.000330244
0.000333958
0.000333041
0.000328251
0.000319704
0.000307509
0.000292521
0.000276824
0.000263517
0.000255371
0.000251394
0.000249765
0.000249191
0.000249058
0.000249194
0.000249769
0.0002514
0.000255389
0.000263591
0.000277006
0.00029274
0.000307171
0.00031719
0.000320552
0.00031511
0.000297683
0.000262782
0.00020094
0.000104899
8.67011e-05
0.000104905
0.000117413
0.000124219
0.000127673
0.000129306
0.000129943
0.000129964
0.000129489
0.000128492
0.000127006
0.00012506
0.000122879
0.000120929
0.000119684
0.000119044
0.000118751
0.000118616
0.00011857
0.000118621
0.000118757
0.000119048
0.000119684
0.000120929
0.000122884
0.000125062
0.000126941
0.000128188
0.000128462
0.000127368
0.00012418
0.000117469
0.000104964
8.67335e-05
0.000116706
0.000177389
0.000220293
0.000245525
0.000259569
0.000266978
0.000270608
0.000272177
0.000272676
0.000272656
0.000272421
0.000272137
0.000271892
0.000271713
0.000271595
0.000271519
0.000271472
0.000271448
0.000271447
0.000271467
0.000271511
0.00027158
0.000271681
0.000271814
0.000271943
0.000271937
0.000271502
0.000270065
0.000266592
0.000259327
0.000245396
0.000220238
0.000177374
0.000116712
0.000177394
0.000224915
0.000272786
0.000303671
0.000321812
0.000331746
0.00033675
0.000338954
0.000339656
0.000339612
0.000339257
0.000338836
0.000338477
0.000338222
0.000338059
0.000337961
0.000337904
0.000337877
0.000337877
0.000337903
0.000337958
0.000338048
0.000338186
0.000338372
0.000338554
0.000338545
0.000337928
0.000335916
0.000331149
0.000321442
0.000303485
0.000272726
0.000224931
0.000177382
0.000220326
0.000272803
0.000331421
0.000371138
0.000395475
0.000409285
0.000416396
0.000419474
0.00042026
0.000419859
0.000418973
0.000418033
0.000417264
0.000416734
0.000416408
0.000416214
0.000416103
0.000416052
0.000416052
0.000416103
0.00041621
0.000416388
0.000416669
0.000417077
0.000417544
0.000417783
0.000417149
0.000414474
0.000407883
0.000394582
0.000370659
0.000331232
0.000272782
0.000220282
0.000245591
0.000303713
0.000371167
0.000418121
0.000447618
0.000464642
0.000473345
0.000476763
0.000477018
0.000475592
0.000473539
0.000471566
0.000470035
0.000469024
0.000468423
0.000468072
0.000467869
0.000467774
0.000467775
0.000467869
0.000468065
0.000468393
0.000468927
0.000469759
0.000470857
0.000471852
0.000471843
0.00046923
0.000461604
0.00044564
0.000417008
0.000370661
0.000303562
0.000245465
0.000259669
0.000321884
0.000395549
0.000447679
0.000480841
0.000499952
0.000509258
0.000511994
0.000510589
0.000506961
0.000502689
0.000498913
0.000496153
0.000494427
0.000493448
0.000492885
0.000492551
0.00049239
0.000492391
0.000492551
0.000492877
0.000493412
0.000494305
0.000495805
0.00049802
0.000500578
0.000502331
0.000501124
0.000493913
0.000476866
0.000445381
0.000394422
0.000321448
0.000259362
0.000267118
0.000331859
0.000409438
0.000464836
0.000500135
0.000520014
0.0005286
0.000529143
0.00052431
0.000516621
0.000508553
0.000502
0.000497583
0.000495022
0.000493655
0.000492888
0.000492406
0.000492162
0.000492163
0.000492407
0.000492882
0.000493618
0.000494891
0.000497198
0.000500993
0.000506152
0.000511352
0.000513607
0.00050891
0.000492818
0.000460551
0.000407252
0.000330916
0.000266483
0.000270798
0.000336931
0.000416698
0.000473816
0.000509886
0.000529193
0.000535517
0.000531876
0.000521077
0.000506538
0.000492512
0.000482267
0.000476318
0.000473261
0.000471741
0.000470981
0.000470421
0.000470106
0.000470107
0.000470424
0.000470979
0.000471712
0.000473142
0.000475942
0.000481237
0.000489977
0.000500891
0.000509568
0.000510208
0.000497483
0.000466548
0.00041292
0.00033521
0.000269652
0.000272441
0.000339255
0.000420049
0.000477771
0.000513539
0.000531106
0.00053362
0.000523484
0.000503325
0.000477894
0.000455351
0.000440812
0.000435283
0.00043323
0.000432142
0.000432126
0.000431802
0.000431511
0.000431513
0.000431808
0.000432131
0.00043213
0.000433147
0.00043497
0.000439863
0.000452834
0.000472089
0.000491351
0.000500928
0.000494192
0.000466529
0.000414173
0.000336501
0.000270609
0.000273062
0.000340158
0.000421295
0.000478947
0.000513769
0.00052887
0.000526482
0.000507816
0.000474536
0.000433159
0.000403073
0.000379641
0.000380672
0.000383297
0.000383153
0.000385862
0.000386609
0.000386595
0.000386598
0.000386618
0.000385875
0.000383161
0.000383267
0.000380478
0.000378899
0.000400623
0.00042727
0.000462263
0.000484702
0.000486211
0.000463174
0.000413067
0.000336248
0.000270451
0.000273225
0.000340417
0.000421582
0.000478917
0.000512689
0.000525392
0.000518263
0.000490976
0.000443711
0.000388647
0.000443985
0.000306904
0.000323443
0.000336004
0.000335939
0.000344588
0.000347366
0.00034786
0.000347864
0.000347379
0.000344609
0.000335962
0.000336027
0.000323408
0.000306472
0.000440098
0.00038221
0.000431031
0.000467434
0.000477466
0.000459059
0.000411271
0.000335483
0.000269915
0.000273236
0.000340462
0.000421601
0.00047872
0.000511873
0.000523218
0.000513485
0.000481973
0.000433591
0.000490889
0.000297816
0.000267289
0.000285444
0.00029575
0.000296646
0.00029662
0.000296613
0.000296615
0.000296627
0.000296659
0.000295773
0.000285479
0.000267329
0.00029775
0.0004785
0.000420158
0.000458113
0.000472397
0.000456556
0.000410098
0.000334937
0.000269519
0.000273233
0.000340497
0.000421692
0.000478878
0.000512117
0.000523645
0.000514405
0.000483724
0.000431161
0.000366313
0.000380523
0.000267685
0.000299264
0.000322536
0.000346916
0.000330898
0.000325344
0.000324248
0.000324245
0.000325334
0.000330879
0.000346907
0.000322511
0.000299181
0.000267235
0.000376759
0.000359884
0.000418436
0.000459999
0.000473289
0.000456874
0.000410195
0.000334956
0.000269507
0.000273262
0.000340587
0.000421936
0.00047944
0.000513308
0.000526095
0.000519384
0.000493632
0.000449537
0.000392096
0.00033948
0.000299848
0.000290205
0.000287368
0.000289962
0.000285757
0.000283984
0.000283547
0.000283546
0.000283979
0.000285748
0.000289948
0.000287311
0.000290002
0.000299127
0.000337111
0.00038623
0.000437083
0.000470052
0.000478326
0.000459315
0.000411339
0.000335476
0.000269827
0.000273313
0.000340713
0.000422269
0.000480201
0.000514898
0.000529238
0.000525352
0.000504505
0.000468174
0.000420243
0.000369703
0.000327102
0.000299226
0.000282332
0.000275939
0.000273083
0.000272077
0.000271792
0.00027179
0.00027207
0.000273068
0.000275905
0.000282237
0.000298945
0.000326249
0.000367276
0.000414353
0.000455745
0.000480959
0.000484306
0.000462442
0.000412892
0.00033621
0.000270282
0.000273363
0.00034084
0.000422597
0.000480935
0.000516387
0.000532054
0.000530369
0.000512926
0.000481271
0.00043833
0.000389879
0.000344104
0.000308938
0.000285716
0.000275748
0.000272174
0.000271034
0.000270717
0.000270714
0.000271025
0.000272154
0.000275704
0.000285603
0.000308621
0.00034318
0.000387358
0.000432352
0.000468779
0.000489335
0.00048928
0.000465206
0.000414323
0.000336902
0.000270703
0.000273399
0.000340941
0.000422858
0.000481508
0.000517519
0.000534111
0.000533845
0.000518379
0.000489109
0.000448335
0.000400572
0.000353082
0.000314757
0.00028871
0.000277174
0.000273038
0.00027173
0.000271368
0.000271364
0.000271719
0.000273017
0.000277126
0.00028859
0.000314424
0.00035212
0.000397987
0.000442278
0.000476539
0.000494715
0.000492684
0.000467189
0.000415383
0.000337419
0.000271005
0.000273416
0.000341006
0.000423029
0.00048188
0.000518237
0.000535375
0.000535895
0.000521434
0.000493244
0.000453297
0.000405637
0.000357272
0.000317556
0.000290286
0.000278068
0.000273654
0.000272251
0.000271861
0.000271856
0.000272239
0.000273632
0.000278018
0.000290163
0.000317215
0.000356288
0.000403013
0.000447186
0.000480612
0.000497705
0.000494668
0.000468387
0.000416038
0.000337739
0.000271181
0.000273416
0.000341036
0.000423112
0.000482061
0.00051858
0.000535967
0.000536828
0.000522777
0.00049499
0.000455306
0.000407618
0.000358886
0.000318636
0.000290908
0.000278433
0.000273908
0.000272465
0.000272059
0.000272054
0.000272452
0.000273885
0.000278382
0.000290783
0.000318291
0.000357889
0.000404976
0.00044917
0.000482325
0.00049901
0.000495561
0.000468939
0.000416343
0.000337887
0.000271251
0.000273405
0.000341035
0.000423115
0.000482067
0.000518591
0.000535983
0.000536852
0.00052281
0.000495033
0.000455358
0.000407676
0.000358943
0.000318683
0.000290939
0.000278448
0.000273914
0.000272465
0.000272054
0.000272049
0.000272452
0.00027389
0.000278397
0.000290814
0.000318339
0.000357945
0.000405035
0.000449222
0.000482367
0.000499041
0.000495583
0.000468953
0.000416351
0.000337888
0.000271238
0.000273387
0.000341003
0.000423036
0.000481897
0.000518266
0.000535422
0.000535965
0.000521532
0.000493373
0.000453456
0.000405816
0.00035745
0.000317706
0.000290385
0.000278119
0.000273678
0.000272258
0.000271855
0.000271849
0.000272245
0.000273654
0.000278069
0.000290263
0.000317368
0.000356467
0.000403198
0.000447348
0.00048074
0.000497797
0.000494731
0.000468427
0.00041606
0.000337744
0.000271147
0.00027336
0.000340937
0.000422866
0.00048153
0.000517559
0.000534179
0.000533953
0.000518538
0.000489328
0.000448615
0.000400898
0.000353403
0.00031503
0.000288889
0.00027727
0.000273088
0.000271754
0.000271375
0.00027137
0.000271742
0.000273066
0.000277224
0.000288775
0.000314709
0.000352454
0.000398325
0.000442563
0.000476752
0.000494861
0.000492778
0.000467246
0.000415414
0.000337428
0.000270959
0.000273314
0.000340829
0.000422594
0.000480942
0.000516413
0.000532114
0.000530484
0.000513121
0.000481572
0.000438749
0.000390391
0.000344609
0.000309345
0.000285957
0.000275853
0.000272214
0.000271044
0.00027071
0.000270705
0.000271033
0.000272196
0.000275812
0.000285855
0.000309054
0.000343718
0.000387895
0.000432773
0.000469059
0.000489499
0.000489369
0.000465251
0.000414346
0.000336906
0.000270645
0.000273245
0.000340679
0.000422223
0.000480144
0.000514843
0.000529209
0.000525386
0.000504654
0.0004685
0.00042079
0.000370429
0.000327799
0.000299648
0.00028242
0.000275783
0.000272851
0.000271811
0.000271511
0.000271507
0.0002718
0.000272828
0.000275737
0.000282321
0.000299391
0.000326999
0.000368038
0.000414877
0.000455994
0.000481022
0.000484282
0.000462397
0.000412855
0.000336184
0.0002702
0.000273147
0.000340483
0.000421767
0.000479198
0.000513011
0.00052578
0.000519111
0.000493492
0.000449665
0.000392629
0.000340386
0.000300528
0.000290031
0.000286471
0.000288563
0.000284291
0.000282479
0.000282022
0.000282015
0.000282454
0.000284233
0.000288456
0.000286293
0.000289736
0.000299828
0.000338032
0.000386605
0.000436949
0.000469673
0.000477916
0.000458986
0.000411123
0.000335354
0.000269678
0.000272997
0.000340212
0.00042121
0.00047818
0.000511226
0.000522611
0.000513304
0.000482678
0.00043038
0.000366081
0.000382159
0.000266789
0.00029662
0.000318641
0.000342228
0.00032596
0.000320287
0.000319169
0.000319162
0.000320249
0.000325835
0.000341976
0.000318103
0.000295844
0.000265761
0.00037829
0.000358952
0.000416815
0.00045832
0.000471877
0.000455843
0.000409535
0.000334589
0.000269194
0.000272704
0.000339739
0.000420398
0.000476999
0.000509668
0.000520585
0.000510477
0.000478613
0.000429767
0.000483654
0.000280726
0.00025362
0.00026884
0.000276947
0.000277023
0.000276806
0.000276763
0.000276719
0.000276625
0.000276532
0.000275804
0.000266584
0.000249978
0.000274131
0.000466267
0.000413883
0.000453252
0.000468755
0.000454009
0.000408473
0.00033402
0.000268837
0.000272016
0.00033871
0.000418832
0.000475074
0.000507824
0.000519583
0.000511491
0.00048302
0.000433915
0.000374678
0.000408456
0.000278019
0.000287256
0.000292161
0.000287349
0.000293441
0.000295711
0.000296168
0.000296078
0.000295322
0.000292313
0.000284499
0.000286127
0.000277169
0.000264852
0.000384537
0.000359475
0.000415949
0.000456545
0.000469643
0.000453624
0.000407738
0.000333422
0.000268453
0.000270387
0.000336383
0.000415442
0.000470999
0.00050391
0.000517246
0.000512988
0.000491853
0.000454664
0.000406408
0.000364128
0.000327667
0.000312713
0.000300701
0.000291355
0.000289832
0.00028959
0.000289467
0.000289325
0.000288956
0.000287907
0.000286255
0.000289461
0.000294526
0.000305717
0.000341785
0.000386519
0.000433666
0.000464234
0.000471472
0.000452718
0.000406022
0.000331944
0.000267414
0.000266787
0.000331407
0.000408374
0.000462406
0.000494941
0.000509636
0.000509206
0.00049525
0.000469182
0.000434096
0.000396593
0.000362475
0.000334759
0.000313787
0.000298778
0.000292664
0.000290617
0.000289986
0.000289801
0.000289776
0.000290023
0.000291518
0.000297583
0.000312068
0.000334733
0.000369713
0.000410336
0.000446059
0.000467377
0.000469089
0.000447914
0.000400993
0.000328001
0.000264523
0.000259444
0.000321578
0.000394799
0.000445904
0.000476952
0.000492066
0.000494407
0.000485948
0.000468039
0.00044237
0.000411763
0.000379633
0.000349216
0.00032522
0.000307868
0.000300118
0.000297321
0.000296433
0.000296218
0.000296353
0.000297114
0.000299742
0.000307444
0.000325048
0.0003504
0.000383692
0.000417815
0.000445104
0.000459634
0.000457419
0.000435149
0.000389447
0.000319192
0.000257885
0.000245468
0.000303558
0.000370748
0.000417042
0.000445117
0.000459374
0.000463149
0.000458484
0.000446503
0.000428051
0.00040434
0.000377351
0.000350152
0.000327367
0.000312097
0.000304817
0.00030197
0.000301006
0.000300778
0.000300981
0.000301909
0.000304716
0.00031202
0.000327516
0.000351004
0.00037921
0.000406176
0.000426413
0.000435838
0.000431313
0.000409661
0.000367205
0.000302061
0.000244527
0.000220285
0.00027277
0.000331275
0.000370645
0.000394157
0.000406271
0.000410244
0.000407988
0.000400408
0.000387912
0.000371013
0.000350948
0.000330207
0.000312535
0.000300934
0.000295121
0.000292709
0.00029185
0.000291646
0.000291849
0.000292705
0.000295116
0.000300962
0.000312696
0.000330659
0.000351642
0.000371085
0.000385054
0.000390628
0.000385297
0.000366097
0.000329201
0.000271962
0.000219827
0.000177404
0.000224957
0.000272814
0.000303568
0.000321315
0.000330357
0.000333602
0.000332671
0.000328243
0.000320492
0.000309587
0.000296265
0.000282279
0.000270281
0.000262491
0.00025851
0.000256809
0.000256185
0.000256037
0.000256194
0.000256826
0.000258537
0.000262543
0.0002704
0.000282509
0.000296509
0.000309258
0.000318115
0.000321099
0.000316311
0.000301144
0.000271788
0.000224602
0.000177268
0.000116729
0.000177402
0.00022032
0.000245506
0.000259341
0.000266211
0.0002687
0.000268141
0.000265035
0.000259447
0.00025144
0.000241532
0.00023108
0.000222187
0.000216683
0.000213959
0.000212803
0.000212371
0.000212267
0.000212381
0.000212819
0.000213982
0.00021672
0.000222261
0.000231218
0.000241675
0.000251197
0.000257778
0.000259914
0.000256105
0.00024405
0.000219771
0.000177256
0.000116749
0.000136732
0.000233728
0.000304266
0.000347263
0.000372185
0.000385884
0.000392851
0.000395949
0.000396932
0.000396839
0.000396281
0.000395616
0.000395039
0.000394619
0.000394345
0.000394174
0.000394074
0.000394026
0.000394025
0.00039407
0.000394165
0.00039432
0.000394552
0.000394864
0.000395173
0.000395206
0.000394364
0.000391557
0.000384942
0.000371576
0.000346916
0.000304096
0.000233667
0.000136737
0.000233731
0.000269633
0.000320656
0.00035586
0.000377467
0.000389721
0.000396085
0.000398965
0.000399904
0.000399848
0.00039936
0.000398774
0.000398264
0.000397894
0.000397654
0.000397508
0.000397424
0.000397385
0.000397385
0.000397422
0.000397502
0.000397634
0.000397834
0.000398099
0.000398349
0.000398331
0.000397502
0.000394879
0.00038884
0.000376903
0.000355559
0.000320542
0.000269626
0.000233667
0.000304302
0.000320668
0.000372436
0.000411023
0.000435903
0.000450525
0.000458267
0.000461704
0.000462616
0.000462185
0.000461185
0.0004601
0.000459192
0.000458547
0.000458136
0.00045789
0.00045775
0.000457686
0.000457685
0.000457748
0.00045788
0.000458104
0.000458453
0.000458941
0.000459473
0.00045972
0.000458966
0.00045597
0.000448812
0.000434778
0.000410393
0.000372164
0.000320597
0.000304126
0.000347348
0.000355896
0.00041105
0.0004537
0.000481927
0.000498781
0.000507626
0.000511199
0.000511534
0.000510113
0.000508011
0.000505951
0.000504311
0.000503182
0.000502482
0.000502074
0.000501844
0.000501738
0.000501737
0.000501841
0.00050206
0.000502436
0.00050305
0.000503964
0.000505101
0.000506068
0.000505948
0.000503162
0.000495405
0.000479657
0.000452365
0.000410393
0.000355625
0.000346941
0.000372328
0.00037754
0.00043598
0.000481993
0.000512783
0.000531109