/*--------------------------------*- C++ -*----------------------------------*\
| =========                 |                                                 |
| \\      /  F ield         | OpenFOAM: The Open Source CFD Toolbox           |
|  \\    /   O peration     | Version:  2112                                  |
|   \\  /    A nd           | Website:  www.openfoam.com                      |
|    \\/     M anipulation  |                                                 |
\*---------------------------------------------------------------------------*/
FoamFile
{
    version     2.0;
    format      ascii;
    arch        "LSB;label=32;scalar=64";
    class       volScalarField;
    location    "4.7";
    object      k;
}
// * * * * * * * * * * * * * * * * * * * * * * * * * * * * * * * * * * * * * //

dimensions      [0 2 -2 0 0 0 0];

internalField   nonuniform List<scalar> 
64906
(
0.000180918
0.000205518
0.000221592
0.000230096
0.000234363
0.000236412
0.00023734
0.000237719
0.000237838
0.000237839
0.000237791
0.000237728
0.000237676
0.000237641
0.000237616
0.000237596
0.000237581
0.000237571
0.000237568
0.000237574
0.000237586
0.000237604
0.000237626
0.000237653
0.000237684
0.00023769
0.000237593
0.000237248
0.000236353
0.000234331
0.000230083
0.000221591
0.000205528
0.000180928
0.000205542
0.000317443
0.00038034
0.000414802
0.000433715
0.000443758
0.000448748
0.000450938
0.000451646
0.000451624
0.000451299
0.000450911
0.000450584
0.000450355
0.000450217
0.000450135
0.000450088
0.000450066
0.000450066
0.000450087
0.000450132
0.000450206
0.000450321
0.000450483
0.000450639
0.000450609
0.000449984
0.00044798
0.00044322
0.000433391
0.000414645
0.000380292
0.00031745
0.000205572
0.000221648
0.000380382
0.000470453
0.000521438
0.000550496
0.000566498
0.000574653
0.000578184
0.000579101
0.00057866
0.000577662
0.000576605
0.000575752
0.000575184
0.000574852
0.000574664
0.000574559
0.000574512
0.000574514
0.000574563
0.000574665
0.000574837
0.000575119
0.000575549
0.000576057
0.000576314
0.000575579
0.000572515
0.000564954
0.000549521
0.000520919
0.000470238
0.000380349
0.000221698
0.000230177
0.000414889
0.000521484
0.00058332
0.000619396
0.000639588
0.000649796
0.000653796
0.000654083
0.000652374
0.000649902
0.000647524
0.000645688
0.000644511
0.000643843
0.000643458
0.000643237
0.000643135
0.000643137
0.000643242
0.000643458
0.000643818
0.000644409
0.000645377
0.000646704
0.000647931
0.000647989
0.000644979
0.000636054
0.000617105
0.000582031
0.000520888
0.000414723
0.000230233
0.000234458
0.00043384
0.000550599
0.000619477
0.00066016
0.000682879
0.000693796
0.000696952
0.000695183
0.0006907
0.000685364
0.000680616
0.000677126
0.000675017
0.000673882
0.000673206
0.000672794
0.0006726
0.000672602
0.000672801
0.000673207
0.000673851
0.000674888
0.000676733
0.000679581
0.000682893
0.000685266
0.00068408
0.000675723
0.000655468
0.000616767
0.000549277
0.000433394
0.000234498
0.000236514
0.000443923
0.000566694
0.000639827
0.000683101
0.000706696
0.000716699
0.000717142
0.000711072
0.000701341
0.000690919
0.000682388
0.000676501
0.000673251
0.00067167
0.000670635
0.000669947
0.000669613
0.000669616
0.000669955
0.000670639
0.000671641
0.000673117
0.000676074
0.000681237
0.000688131
0.000695182
0.000698538
0.000693411
0.000674402
0.000634752
0.000564144
0.000442979
0.000236507
0.000237447
0.000448972
0.00057502
0.000650367
0.00069456
0.000717428
0.000724642
0.000719853
0.000706068
0.00068703
0.000668055
0.000654535
0.000646086
0.000642099
0.000640543
0.000639177
0.000638147
0.000637642
0.000637647
0.000638159
0.000639188
0.000640528
0.000641986
0.000645687
0.000653394
0.000665172
0.000680497
0.000692645
0.000694479
0.000679731
0.000641736
0.000570626
0.000447258
0.000237348
0.000237837
0.000451267
0.000578865
0.000655012
0.000698844
0.000719578
0.000722044
0.00070885
0.000682159
0.000646577
0.000612851
0.000595982
0.000587621
0.000585002
0.000584827
0.000583384
0.000582096
0.000581479
0.000581484
0.000582112
0.000583403
0.000584832
0.000584935
0.000587317
0.000595002
0.000610142
0.000640035
0.000668313
0.000682495
0.000675519
0.000641616
0.000572033
0.000448521
0.000237598
0.000237978
0.000452162
0.000580311
0.000656418
0.000699111
0.00071679
0.00071293
0.000687876
0.000640448
0.000572967
0.000508238
0.000503165
0.000506535
0.000510697
0.000514065
0.00051333
0.000512325
0.000511855
0.000511861
0.000512342
0.000513356
0.000514091
0.000510687
0.000506381
0.000502523
0.000506107
0.000566856
0.000626556
0.000660991
0.000665451
0.000637517
0.000570731
0.000448254
0.000237571
0.00023801
0.000452425
0.000580671
0.000656423
0.000697837
0.000712466
0.000702076
0.000663183
0.000585227
0.000450892
0.000303069
0.000370333
0.000415905
0.00043482
0.00044277
0.000444058
0.000444156
0.000444127
0.000444133
0.000444173
0.000444086
0.00044281
0.00043486
0.000415917
0.000370226
0.000302282
0.000445928
0.000571593
0.000636036
0.000654043
0.000632459
0.000568636
0.00044749
0.000237444
0.000238005
0.000452482
0.000580734
0.000656249
0.000696908
0.000709757
0.000695415
0.000646907
0.000540535
0.000315619
0.000261327
0.000349001
0.000379129
0.000388517
0.000391857
0.000392899
0.000393163
0.000393166
0.000392911
0.000391878
0.00038855
0.000379179
0.000349069
0.000261358
0.000313039
0.000527418
0.000619686
0.000647121
0.000629394
0.000567312
0.000446971
0.000237342
0.00023799
0.000452534
0.000580888
0.000656515
0.000697322
0.000710556
0.000697649
0.000654784
0.000571397
0.00043109
0.00028698
0.000324398
0.000360362
0.000374725
0.000378251
0.000381849
0.000383071
0.00038332
0.00038332
0.000383071
0.00038185
0.000378247
0.000374717
0.000360328
0.000324193
0.000286103
0.000426093
0.000557697
0.000627463
0.000649291
0.000630077
0.000567555
0.000447046
0.00023731
0.000237981
0.000452636
0.000581215
0.000657249
0.000698842
0.000713733
0.000704588
0.000670837
0.000610444
0.000525286
0.000440127
0.000405826
0.000387823
0.000381085
0.000378436
0.000378714
0.00037893
0.000378948
0.000378945
0.000378921
0.000378696
0.000378401
0.000381013
0.000387631
0.000405202
0.000438057
0.000519243
0.000596449
0.00064352
0.000656287
0.000633269
0.000569013
0.000447617
0.00023738
0.000237976
0.000452769
0.000581637
0.000658202
0.000700793
0.000717589
0.000712122
0.000685478
0.000638323
0.000574429
0.000505798
0.000449907
0.000408776
0.000389441
0.000382065
0.00037982
0.000379133
0.000378912
0.000378907
0.000379116
0.000379789
0.00038201
0.000389332
0.000408508
0.000449108
0.000503321
0.000567989
0.000624158
0.000658147
0.000663857
0.000637137
0.000570903
0.000448384
0.000237474
0.000237971
0.000452896
0.000582043
0.000659107
0.000702587
0.000720942
0.000718131
0.000695806
0.000655063
0.000598789
0.000534057
0.000471282
0.000420899
0.000395418
0.000385221
0.000381647
0.000380449
0.000380066
0.000380058
0.000380424
0.000381606
0.000385155
0.000395293
0.000420601
0.000470413
0.000531425
0.000592173
0.000640785
0.000668428
0.000669848
0.000640459
0.000572609
0.000449091
0.000237549
0.000237963
0.000452992
0.000582363
0.00065981
0.000703942
0.000723361
0.000722187
0.000702188
0.000664332
0.000610752
0.000546766
0.000481233
0.000427021
0.00039876
0.000387145
0.000382933
0.000381475
0.000380987
0.000380975
0.000381443
0.000382886
0.000387073
0.000398628
0.000426711
0.000480329
0.000544061
0.000604037
0.000649965
0.000674744
0.000673851
0.000642814
0.000573861
0.00044961
0.000237591
0.00023795
0.000453049
0.000582573
0.000660269
0.000704804
0.000724845
0.000724557
0.000705688
0.000669047
0.000616369
0.000552386
0.000485634
0.000429798
0.00040034
0.000388086
0.000383584
0.000381993
0.000381432
0.000381415
0.000381956
0.000383532
0.00038801
0.000400203
0.00042948
0.000484698
0.000549644
0.000609599
0.000654617
0.000678184
0.000676163
0.000644232
0.000574633
0.000449923
0.000237602
0.000237936
0.00045307
0.000582677
0.000660495
0.000705221
0.000725546
0.000725638
0.000707222
0.000671019
0.000618607
0.000554539
0.000487318
0.000430857
0.000400947
0.000388446
0.000383826
0.000382171
0.000381557
0.000381535
0.000382128
0.00038377
0.000388367
0.000400808
0.000430535
0.000486351
0.000551781
0.00061181
0.000656558
0.000679686
0.00067721
0.000644893
0.000574998
0.000450063
0.000237591
0.000237923
0.000453063
0.000582684
0.000660509
0.000705243
0.000725577
0.00072568
0.000707277
0.000671087
0.000618688
0.000554628
0.000487404
0.000430922
0.000400986
0.000388461
0.000383822
0.000382147
0.000381502
0.000381475
0.000382099
0.000383763
0.00038838
0.000400846
0.0004306
0.000486433
0.000551872
0.000611894
0.000656629
0.000679742
0.000677253
0.000644923
0.000575015
0.000450059
0.00023757
0.000237918
0.000453032
0.000582592
0.000660309
0.000704866
0.000724934
0.000724679
0.00070585
0.000669253
0.000616617
0.000552663
0.000485903
0.000430004
0.000400463
0.000388138
0.000383579
0.000381929
0.000381286
0.000381256
0.000381878
0.000383518
0.000388056
0.000400324
0.000429688
0.000484953
0.000549933
0.000609858
0.000654833
0.000678353
0.000676288
0.000644321
0.000574685
0.000449918
0.000237549
0.000237923
0.000452973
0.000582391
0.00065987
0.000704034
0.000723496
0.000722378
0.000702451
0.00066468
0.000611186
0.000547266
0.000481686
0.000427392
0.000398985
0.000387247
0.000382939
0.000381385
0.000380793
0.000380765
0.000381334
0.000382877
0.000387167
0.000398853
0.000427092
0.000480792
0.00054459
0.000604495
0.000650329
0.000675016
0.000674048
0.00064295
0.000573942
0.000449612
0.000237526
0.000237929
0.000452875
0.000582068
0.000659163
0.000702678
0.000721087
0.000718354
0.000696143
0.000655549
0.000599442
0.000534856
0.000471998
0.00042147
0.000395751
0.000385366
0.000381651
0.000380331
0.000379846
0.000379825
0.000380284
0.000381591
0.00038529
0.00039563
0.000421199
0.000471174
0.000532283
0.000592867
0.000641288
0.000668769
0.000670076
0.000640611
0.0005727
0.000449099
0.000237479
0.000237932
0.000452732
0.000581622
0.000658196
0.000700805
0.000717649
0.000712279
0.000685803
0.000638908
0.000575348
0.000507003
0.000451001
0.000409505
0.000389759
0.000382106
0.000379659
0.000378833
0.000378527
0.000378511
0.000378792
0.000379602
0.000382031
0.000389647
0.000409277
0.000450296
0.000504636
0.000568974
0.000624738
0.000658438
0.000663998
0.000637216
0.00057095
0.000448377
0.000237398
0.00023793
0.000452539
0.000581069
0.000657039
0.000698585
0.000713478
0.000704419
0.00067089
0.000610931
0.000526421
0.000441851
0.000407323
0.000388215
0.00038072
0.000377643
0.00037762
0.000377678
0.000377622
0.000377607
0.000377635
0.000377546
0.000377525
0.000380553
0.000387994
0.000406849
0.000439962
0.000520452
0.000596807
0.000643399
0.000656031
0.000633051
0.00056888
0.000447531
0.000237292
0.000237916
0.00045227
0.000580397
0.000655783
0.000696383
0.000709485
0.000696572
0.00065394
0.00057123
0.000432258
0.000287922
0.000324596
0.000358089
0.000371081
0.000373781
0.000376933
0.000377983
0.000378163
0.000378142
0.000377909
0.000376767
0.000373443
0.000370538
0.000357463
0.000324291
0.000287037
0.000427238
0.00055697
0.000626051
0.000647941
0.000629079
0.000566945
0.000446738
0.0002372
0.000237872
0.000451803
0.000579434
0.000654332
0.000694439
0.000706827
0.000692136
0.000643478
0.000537552
0.000314387
0.000255799
0.000337222
0.000363973
0.000371127
0.000373731
0.000374577
0.000374769
0.000374717
0.000374374
0.000373221
0.000369998
0.000361878
0.000334187
0.000253543
0.000310542
0.000522349
0.000614679
0.000643172
0.00062664
0.000565627
0.000446148
0.000237155
0.000237729
0.000450794
0.000577625
0.000652045
0.000692279
0.000705861
0.000694482
0.000654577
0.000575704
0.000441226
0.000295312
0.000346112
0.000381786
0.000391874
0.000393659
0.000393643
0.000393625
0.000393598
0.000393499
0.000393212
0.000392489
0.000390826
0.000385917
0.000371749
0.000335233
0.000288979
0.000429239
0.000556379
0.000624013
0.000645216
0.00062636
0.000564811
0.000445575
0.000237076
0.00023735
0.000448502
0.000573746
0.000647268
0.000687724
0.000703389
0.000697426
0.000669663
0.000618223
0.000544491
0.000469987
0.000447242
0.000431797
0.00041664
0.000408217
0.000404728
0.00040355
0.00040318
0.000403032
0.0004029
0.000402767
0.000402955
0.000404376
0.000409057
0.000421056
0.000446114
0.000521644
0.00059341
0.000637035
0.000648301
0.000625517
0.000562922
0.000444155
0.000236835
0.000236433
0.000443555
0.000565649
0.00063719
0.000677212
0.000694627
0.000693666
0.000675952
0.000642206
0.00059509
0.000543325
0.000500567
0.000460855
0.000426913
0.00041017
0.000403727
0.000401572
0.000400918
0.00040074
0.000400763
0.000401161
0.000402868
0.000408649
0.000424869
0.000460401
0.000507054
0.000564125
0.000613316
0.000642391
0.000645962
0.000620023
0.000557229
0.000440265
0.000236079
0.000234402
0.000433621
0.000549917
0.000617611
0.000655822
0.000673804
0.000676331
0.000665698
0.000643012
0.000609651
0.0005687
0.000524624
0.00047935
0.000440088
0.000420383
0.000412602
0.000409921
0.000409095
0.000408897
0.000409016
0.000409727
0.000412236
0.000419868
0.000439783
0.000480413
0.000528928
0.000576556
0.000613793
0.000633759
0.000632258
0.000604948
0.000543895
0.000431375
0.000234195
0.000230147
0.000414822
0.000521175
0.000582275
0.000616717
0.00063367
0.000638009
0.000632182
0.000617225
0.00059371
0.000562694
0.000526397
0.00048838
0.00045555
0.000437551
0.000429854
0.000426996
0.00042606
0.000425843
0.000426028
0.000426921
0.00042973
0.000437428
0.000455584
0.000489158
0.000528337
0.000564876
0.000591966
0.000604912
0.000600279
0.000573761
0.000517325
0.000413491
0.000230057
0.000221642
0.000380436
0.000470439
0.000521073
0.000549239
0.000563354
0.000567936
0.000565263
0.000556203
0.00054101
0.000520059
0.000494701
0.000468009
0.00044516
0.000431657
0.000425369
0.00042291
0.000422084
0.000421895
0.000422071
0.00042288
0.000425322
0.000431624
0.000445247
0.000468397
0.000495367
0.000520102
0.000537795
0.000545113
0.000539228
0.000516166
0.000468397
0.000379827
0.00022164
0.000205566
0.000317547
0.000380498
0.000414897
0.000433498
0.000442749
0.00044609
0.000445239
0.000440868
0.000433039
0.000421777
0.00040776
0.00039285
0.00038
0.000372026
0.0003681
0.000366483
0.000365911
0.000365779
0.000365915
0.000366487
0.000368106
0.000372045
0.000380074
0.000393024
0.000407962
0.000421448
0.000430706
0.000433817
0.00042889
0.00041285
0.000379784
0.000317411
0.000205609
0.00018095
0.000205619
0.000221777
0.000230352
0.00023466
0.000236691
0.000237481
0.000237504
0.000236905
0.000235655
0.00023379
0.000231344
0.000228595
0.000226126
0.000224542
0.000223726
0.000223351
0.000223177
0.000223119
0.000223184
0.000223358
0.000223731
0.000224543
0.000226126
0.000228602
0.000231346
0.000233706
0.000235271
0.00023562
0.000234266
0.000230295
0.000221844
0.000205695
0.000180996
0.0002619
0.000346561
0.000400657
0.000430894
0.000447327
0.000455911
0.000460104
0.000461918
0.000462495
0.00046247
0.000462195
0.000461863
0.000461574
0.000461364
0.000461225
0.000461135
0.00046108
0.000461052
0.000461051
0.000461075
0.000461126
0.000461207
0.000461326
0.000461483
0.000461633
0.000461627
0.000461124
0.000459463
0.000455451
0.000447036
0.000430735
0.000400585
0.00034654
0.00026191
0.000346569
0.000673002
0.000829124
0.000917839
0.000968533
0.000996523
0.00101093
0.0010174
0.00101941
0.0010191
0.00101777
0.00101621
0.00101487
0.00101389
0.00101325
0.00101285
0.00101262
0.00101251
0.00101251
0.00101262
0.00101284
0.0010132
0.00101375
0.00101448
0.00101521
0.00101535
0.00101364
0.00100782
0.000994219
0.000966996
0.000916918
0.000828633
0.00067278
0.000346551
0.000400697
0.000829204
0.00103573
0.00115661
0.00122779
0.00126815
0.00128922
0.00129846
0.0013007
0.00129916
0.00129598
0.00129256
0.00128971
0.0012877
0.00128643
0.00128567
0.00128523
0.00128502
0.00128502
0.00128522
0.00128565
0.00128635
0.00128744
0.00128899
0.00129077
0.00129181
0.00129011
0.00128223
0.00126289
0.00122424
0.00115445
0.00103458
0.000828702
0.000400639
0.000430972
0.000917999
0.00115671
0.0012994
0.00138502
0.00143407
0.00145932
0.00146926
0.00146971
0.00146487
0.00145789
0.00145101
0.00144554
0.00144185
0.00143961
0.00143826
0.00143748
0.00143711
0.00143711
0.00143747
0.00143823
0.00143948
0.00144146
0.0014445
0.00144848
0.00145211
0.0014526
0.00144529
0.00142344
0.00137776
0.00129493
0.00115428
0.000916914
0.000430815
0.000447445
0.000968785
0.00122805
0.00138523
0.0014804
0.00153458
0.00156098
0.00156857
0.0015639
0.00155226
0.00153823
0.00152538
0.00151566
0.00150946
0.0015059
0.00150374
0.00150245
0.00150183
0.00150183
0.00150244
0.0015037
0.00150574
0.00150899
0.00151438
0.00152225
0.00153114
0.00153736
0.00153466
0.00151466
0.00146675
0.00137676
0.00122337
0.000966631
0.000447072
0.000456074
0.000996914
0.00126869
0.00143476
0.00153522
0.00159091
0.00161479
0.0016158
0.00160095
0.00157693
0.00155078
0.00152853
0.00151269
0.00150338
0.00149845
0.00149532
0.00149332
0.00149236
0.00149236
0.00149332
0.00149528
0.0014983
0.00150288
0.0015113
0.00152504
0.00154278
0.00156009
0.00156809
0.00155585
0.00151132
0.00141991
0.00126039
0.000993002
0.000455318
0.000460326
0.00101157
0.00129032
0.00146101
0.00156317
0.00161682
0.00163402
0.00162287
0.00159032
0.00154504
0.00149905
0.00146396
0.00144119
0.0014294
0.00142402
0.00141999
0.00141715
0.00141576
0.00141577
0.00141716
0.00141997
0.00142389
0.00142894
0.00143985
0.00146043
0.00149065
0.001527
0.00155495
0.00155862
0.00152408
0.0014369
0.0012768
0.00100508
0.000458975
0.000462227
0.00101849
0.00130059
0.00147286
0.00157391
0.00162241
0.00162863
0.00159848
0.00153724
0.00145555
0.00137678
0.00132976
0.00130474
0.00129472
0.00129176
0.00128752
0.00128408
0.00128239
0.0012824
0.00128409
0.00128753
0.00129169
0.00129438
0.00130362
0.00132656
0.00136857
0.00143702
0.00150025
0.00153125
0.00151428
0.00143663
0.00128034
0.00100867
0.000460081
0.000462947
0.00102125
0.00130453
0.00147654
0.00157476
0.00161611
0.00160802
0.00155177
0.00144612
0.00129785
0.00115406
0.00111889
0.00111525
0.00111902
0.00112324
0.00112118
0.00111855
0.00111721
0.00111721
0.00111857
0.0011212
0.00112323
0.00111885
0.00111455
0.00111651
0.00114689
0.00127955
0.0014081
0.00148243
0.00149064
0.00142654
0.00127684
0.00100776
0.000459899
0.000463139
0.00102205
0.00130548
0.00147653
0.00157163
0.00160589
0.00158326
0.00149752
0.00132982
0.00104433
0.000640409
0.000811648
0.000902076
0.000939397
0.000952806
0.000957872
0.00095862
0.000958488
0.000958495
0.000958643
0.00095791
0.000952846
0.000939399
0.000901906
0.000810854
0.000636554
0.00102723
0.00129111
0.0014266
0.00146381
0.00141394
0.00127116
0.0010053
0.000459279
0.000463152
0.00102216
0.00130553
0.00147588
0.00156903
0.00159903
0.00156754
0.00146222
0.00124068
0.000685057
0.000489654
0.000724362
0.000789815
0.000811553
0.000817873
0.000819572
0.000819955
0.000819961
0.000819591
0.000817906
0.000811602
0.000789878
0.000724419
0.000489575
0.000673205
0.0012017
0.00139038
0.00144697
0.00140582
0.00126725
0.00100344
0.00045882
0.00046315
0.00102223
0.00130577
0.00147621
0.0015694
0.0015997
0.00157018
0.00147366
0.0012903
0.000982833
0.000577124
0.000680016
0.000759467
0.000793634
0.000807847
0.000809256
0.000809207
0.000809131
0.000809129
0.000809202
0.000809249
0.000807829
0.000793585
0.000759285
0.000679195
0.000573198
0.000965651
0.00125118
0.00140195
0.00144953
0.00140619
0.00126717
0.00100325
0.000458801
0.000463184
0.00102247
0.00130647
0.00147771
0.00157244
0.001606
0.00158384
0.00150494
0.00136531
0.00116876
0.000963508
0.000857739
0.000798683
0.000776244
0.00076916
0.000767896
0.000767678
0.000767588
0.000767586
0.00076767
0.000767878
0.000769105
0.000776077
0.000798108
0.00085566
0.000956631
0.00115034
0.00132639
0.00143373
0.0014636
0.00141271
0.00127024
0.00100459
0.000459168
0.000463243
0.00102285
0.00130747
0.00147985
0.00157667
0.00161419
0.0015996
0.00153515
0.00142218
0.0012683
0.00109891
0.000953047
0.000840267
0.00078579
0.000765515
0.000759388
0.000757705
0.000757272
0.000757269
0.000757694
0.000759359
0.000765434
0.000785548
0.000839479
0.000950443
0.0010912
0.00124942
0.00138336
0.00146432
0.00147977
0.0014212
0.00127461
0.00100664
0.000459692
0.000463303
0.00102325
0.00130849
0.00148197
0.00158073
0.0016216
0.00161266
0.00155735
0.00145794
0.00132042
0.00116025
0.0010016
0.000867828
0.000798146
0.000770659
0.000761524
0.000758829
0.000758143
0.00075814
0.000758818
0.000761492
0.000770568
0.000797873
0.000866956
0.000998787
0.0011522
0.00130129
0.00141912
0.00148668
0.00149304
0.00142879
0.00127875
0.00100866
0.000460178
0.000463345
0.00102358
0.00130932
0.00148367
0.00158389
0.0016271
0.00162173
0.00157148
0.00147841
0.00134701
0.00118905
0.00102519
0.000882689
0.000806115
0.000775053
0.000764412
0.000761205
0.000760387
0.000760384
0.000761194
0.00076438
0.000774959
0.00080583
0.000881784
0.00102229
0.00118084
0.00132772
0.00143951
0.00150081
0.00150216
0.00143433
0.00128189
0.00101021
0.000460529
0.000463365
0.0010238
0.00130989
0.0014848
0.00158594
0.00163054
0.00162714
0.00157941
0.00148909
0.00135986
0.00120217
0.00103591
0.000889689
0.000810115
0.000777433
0.000766108
0.000762669
0.000761787
0.000761784
0.000762657
0.000766075
0.000777337
0.000809826
0.000888772
0.00103298
0.00119387
0.00134047
0.0014501
0.00150868
0.00150754
0.00143774
0.00128387
0.0010112
0.000460733
0.000463366
0.00102391
0.00131017
0.00148536
0.00158693
0.00163217
0.00162963
0.00158292
0.00149362
0.00136505
0.00120726
0.00103999
0.000892396
0.00081169
0.000778382
0.000766792
0.000763259
0.00076235
0.000762346
0.000763247
0.000766758
0.000778285
0.000811398
0.000891473
0.00103707
0.00119893
0.0013456
0.00145457
0.00151215
0.00150999
0.00143934
0.00128481
0.00101167
0.000460815
0.000463354
0.00102391
0.00131017
0.00148538
0.00158696
0.00163221
0.00162968
0.00158299
0.00149371
0.00136517
0.00120739
0.00104012
0.000892517
0.000811767
0.000778421
0.000766809
0.000763268
0.000762353
0.000762348
0.000763255
0.000766775
0.000778323
0.000811475
0.000891596
0.0010372
0.00119905
0.00134572
0.00145467
0.00151222
0.00151004
0.00143937
0.00128483
0.00101167
0.0004608
0.000463333
0.0010238
0.0013099
0.00148484
0.001586
0.00163064
0.00162729
0.00157962
0.00148938
0.00136021
0.00120256
0.0010363
0.000890073
0.000810366
0.000777568
0.000766183
0.000762716
0.00076182
0.000761815
0.000762704
0.000766151
0.000777474
0.000810083
0.00088917
0.00103341
0.00119427
0.00134082
0.00145038
0.00150889
0.00150768
0.00143783
0.00128392
0.00101121
0.000460694
0.0004633
0.00102356
0.00130933
0.0014837
0.00158396
0.00162722
0.00162193
0.0015718
0.00147887
0.00134762
0.00118976
0.00102597
0.00088341
0.000806594
0.000775335
0.000764594
0.000761346
0.000760509
0.000760506
0.000761338
0.000764569
0.000775254
0.000806332
0.000882543
0.00102311
0.00118157
0.00132833
0.00143995
0.0015011
0.00150234
0.00143444
0.00128195
0.00101022
0.000460476
0.000463246
0.0010232
0.00130844
0.00148192
0.0015807
0.00162163
0.0016128
0.00155768
0.00145853
0.00132131
0.00116139
0.00100288
0.000868963
0.000798873
0.00077109
0.000761809
0.000759061
0.000758357
0.000758357
0.00075906
0.000761798
0.000771029
0.000798646
0.000868166
0.00100016
0.00115339
0.00130217
0.00141965
0.00148692
0.00149313
0.00142881
0.00127874
0.00100863
0.000460111
0.000463164
0.0010227
0.00130724
0.00147953
0.0015763
0.00161383
0.00159937
0.0015352
0.0014227
0.00126947
0.00110063
0.000954951
0.000841639
0.000786413
0.000765683
0.000759326
0.000757567
0.00075712
0.000757123
0.000757574
0.000759321
0.000765628
0.000786208
0.000840944
0.000952506
0.00109301
0.00125054
0.00138369
0.00146413
0.00147938
0.00142084
0.00127435
0.00100648
0.000459596
0.000463049
0.00102206
0.00130576
0.00147671
0.00157118
0.0016046
0.00158248
0.00150394
0.00136515
0.00116998
0.00096591
0.000860001
0.000798935
0.000774886
0.000766975
0.00076528
0.000764933
0.000764823
0.000764823
0.000764924
0.000765228
0.000766808
0.000774519
0.000798213
0.000858065
0.000959157
0.00115135
0.00132557
0.00143204
0.00146185
0.00141129
0.00126928
0.00100405
0.000458992
0.000462872
0.00102118
0.00130394
0.0014736
0.00156609
0.00159585
0.00156604
0.00146974
0.00128758
0.000983233
0.000578787
0.000679113
0.000752619
0.000783358
0.000795638
0.000796258
0.000796034
0.000795947
0.000795931
0.000795946
0.000795967
0.000794899
0.000781945
0.00075072
0.000677645
0.000574754
0.000965221
0.00124639
0.00139616
0.00144441
0.00140232
0.00126461
0.00100183
0.000458432
0.000462529
0.00101965
0.00130125
0.00146987
0.00156142
0.00159
0.0015573
0.00145115
0.00122982
0.000678144
0.000470425
0.000689223
0.000746185
0.000762095
0.000767072
0.000768727
0.000769177
0.000769073
0.000768283
0.000765824
0.000759109
0.000740342
0.000680259
0.000462928
0.00066145
0.00118453
0.00137474
0.00143459
0.00139685
0.00126136
0.00100015
0.000458017
0.000461728
0.00101644
0.00129621
0.00146381
0.00155572
0.00158699
0.00156126
0.00147196
0.00129994
0.0010093
0.000605245
0.000734526
0.000803058
0.000818927
0.000817589
0.00081981
0.000820862
0.000821099
0.000820865
0.000819838
0.000816797
0.000809935
0.000802463
0.000774525
0.000700908
0.000581067
0.000970414
0.00124539
0.00139159
0.00143795
0.00139557
0.00125896
0.000998306
0.000457566
0.000459842
0.00100947
0.00128573
0.00145143
0.00154397
0.00157991
0.00156585
0.00150173
0.0013842
0.00121671
0.00104201
0.00096334
0.000912624
0.000867706
0.000842419
0.000833542
0.000830825
0.00083
0.000829624
0.000829135
0.000828325
0.000828223
0.00083443
0.000851634
0.000893207
0.000975678
0.00115459
0.00131797
0.00141713
0.00144321
0.00139252
0.0012536
0.000993939
0.000456358
0.000455681
0.000995076
0.00126462
0.00142618
0.001518
0.00155798
0.00155494
0.0015124
0.00143206
0.00131963
0.00119344
0.00108145
0.000977894
0.000887224
0.000841109
0.000823528
0.000817743
0.000816005
0.000815532
0.000815573
0.000816595
0.000821272
0.000837767
0.000883364
0.000979448
0.00110127
0.00124038
0.00135727
0.00142616
0.00143591
0.00137831
0.00123874
0.00098275
0.00045301
0.000447174
0.000967389
0.00122494
0.00137856
0.0014668
0.0015084
0.00151331
0.00148649
0.00143046
0.00134831
0.00124679
0.00113584
0.00102177
0.000919743
0.000866336
0.000844972
0.000837569
0.000835263
0.000834713
0.00083507
0.000837091
0.000844118
0.000865308
0.000919687
0.00102592
0.00114783
0.00126489
0.00135535
0.00140429
0.00140278
0.0013418
0.00120546
0.000958331
0.000445312
0.00043082
0.000917076
0.00115466
0.00129487
0.00137554
0.00141539
0.00142474
0.00140889
0.00137025
0.00131029
0.00123161
0.00113958
0.00104326
0.000959524
0.000912005
0.000891052
0.000883143
0.000880502
0.000879882
0.000880437
0.000882989
0.000890817
0.00091189
0.000960251
0.00104606
0.00114501
0.00123646
0.00130417
0.00133742
0.0013286
0.00126861
0.00114116
0.000911011
0.000429671
0.000400644
0.00082869
0.00103462
0.00115403
0.0012221
0.00125647
0.0012669
0.00125845
0.00123324
0.00119207
0.00113611
0.00106902
0.000998713
0.000938371
0.000901842
0.000884401
0.000877294
0.000874761
0.00087416
0.00087477
0.000877309
0.000884444
0.000902032
0.000939027
0.00100022
0.00107104
0.00113587
0.00118262
0.00120315
0.0011909
0.00113717
0.00102632
0.000825136
0.00040006
0.000346579
0.000672794
0.000828713
0.00091677
0.000965907
0.000990702
0.000999155
0.000995367
0.000980977
0.000956378
0.00092209
0.000880348
0.000836489
0.000798876
0.000775222
0.000763359
0.000758299
0.000756428
0.000755983
0.000756469
0.000758382
0.000763496
0.000775469
0.000799367
0.000837318
0.000881139
0.000921
0.000949103
0.000959954
0.000948604
0.000907886
0.000824609
0.000671165
0.000346391
0.000261935
0.000346577
0.000400685
0.000430862
0.000447042
0.000454989
0.00045785
0.000457187
0.000453569
0.000447044
0.000437636
0.000425884
0.000413334
0.000402518
0.00039575
0.000392377
0.000390939
0.000390402
0.000390271
0.000390413
0.00039096
0.000392406
0.000395797
0.00040261
0.000413502
0.00042605
0.000437338
0.000445071
0.000447591
0.000443195
0.000429088
0.000399988
0.000346375
0.000261964
0.00029118
0.000416732
0.000497157
0.000543209
0.000569104
0.000583139
0.00059024
0.000593395
0.000594396
0.000594299
0.000593725
0.000593039
0.000592442
0.000592008
0.000591724
0.000591547
0.000591443
0.000591393
0.000591392
0.000591439
0.000591537
0.000591698
0.000591938
0.00059226
0.000592579
0.000592613
0.000591755
0.000588896
0.000582153
0.000568456
0.000542829
0.000496962
0.000416655
0.000291187
0.000416735
0.000849004
0.00105353
0.00117259
0.00124245
0.00128202
0.00130287
0.0013124
0.00131535
0.00131476
0.00131255
0.00130996
0.00130769
0.00130601
0.00130491
0.00130421
0.00130381
0.00130362
0.00130362
0.0013038
0.00130418
0.00130481
0.00130574
0.00130698
0.00130823
0.00130855
0.00130607
0.00129757
0.00127801
0.00123969
0.00117087
0.00105256
0.000848524
0.000416655
0.000497197
0.00105364
0.0013166
0.00147342
0.00156794
0.00162268
0.00165182
0.00166475
0.00166783
0.00166541
0.00166051
0.00165521
0.00165072
0.0016475
0.00164544
0.00164417
0.00164344
0.00164311
0.00164311
0.00164343
0.00164412
0.00164527
0.00164703
0.0016495
0.0016523
0.00165401
0.00165176
0.00164083
0.00161428
0.0015621
0.00146974
0.00131451
0.00105263
0.000496994
0.000543299
0.00117281
0.00147357
0.001656
0.00176768
0.00183285
0.00186691
0.00188042
0.00188087
0.00187384
0.00186361
0.00185339
0.00184512
0.00183943
0.00183592
0.00183379
0.00183255
0.00183198
0.00183198
0.00183253
0.00183371
0.00183568
0.00183876
0.00184342
0.0018494
0.00185483
0.00185579
0.00184599
0.00181676
0.00175642
0.00164881
0.00146944
0.00117078
0.000542852
0.000569252
0.00124282
0.00156833
0.00176801
0.00189106
0.00196223
0.00199734
0.00200747
0.00200095
0.00198468
0.00196473
0.00194607
0.00193165
0.00192228
0.00191679
0.00191345
0.00191147
0.00191054
0.00191053
0.00191144
0.00191336
0.00191651
0.00192147
0.00192958
0.0019412
0.00195408
0.00196297
0.0019596
0.00193325
0.00187074
0.00175496
0.00156073
0.00123899
0.000568346
0.000583364
0.00128263
0.00162355
0.00183392
0.00196322
0.00203588
0.00206741
0.00206876
0.00204878
0.00201604
0.00197955
0.00194738
0.00192381
0.00190963
0.00190199
0.00189712
0.00189408
0.00189263
0.00189263
0.00189406
0.00189704
0.0019017
0.00190878
0.00192156
0.00194195
0.00196755
0.00199155
0.00200242
0.00198642
0.00192873
0.00181178
0.00161054
0.00127597
0.000581685
0.000590586
0.00130394
0.0016536
0.00186955
0.00200067
0.0020704
0.00209311