/*--------------------------------*- C++ -*----------------------------------*\
| =========                 |                                                 |
| \\      /  F ield         | OpenFOAM: The Open Source CFD Toolbox           |
|  \\    /   O peration     | Version:  2112                                  |
|   \\  /    A nd           | Website:  www.openfoam.com                      |
|    \\/     M anipulation  |                                                 |
\*---------------------------------------------------------------------------*/
FoamFile
{
    version     2.0;
    format      ascii;
    arch        "LSB;label=32;scalar=64";
    class       volScalarField;
    location    "4.7";
    object      nut;
}
// * * * * * * * * * * * * * * * * * * * * * * * * * * * * * * * * * * * * * //

dimensions      [0 2 -1 0 0 0 0];

internalField   nonuniform List<scalar> 
64906
(
3.39856e-05
3.62628e-05
3.76851e-05
3.8423e-05
3.87922e-05
3.89706e-05
3.90521e-05
3.90858e-05
3.90965e-05
3.90965e-05
3.90921e-05
3.90863e-05
3.90814e-05
3.90781e-05
3.90758e-05
3.9074e-05
3.90726e-05
3.90717e-05
3.90715e-05
3.9072e-05
3.90731e-05
3.90747e-05
3.90767e-05
3.90794e-05
3.90823e-05
3.90828e-05
3.90741e-05
3.90435e-05
3.8965e-05
3.8789e-05
3.84216e-05
3.76849e-05
3.62636e-05
3.39866e-05
3.6265e-05
4.51304e-05
4.94433e-05
5.16703e-05
5.28636e-05
5.34934e-05
5.3807e-05
5.39455e-05
5.39905e-05
5.39886e-05
5.39672e-05
5.39415e-05
5.39198e-05
5.39044e-05
5.3895e-05
5.38895e-05
5.38863e-05
5.38848e-05
5.38848e-05
5.38862e-05
5.38892e-05
5.38943e-05
5.3902e-05
5.39129e-05
5.39232e-05
5.39216e-05
5.3882e-05
5.37554e-05
5.34566e-05
5.28409e-05
5.16586e-05
4.94392e-05
4.51304e-05
3.62677e-05
3.76901e-05
4.94462e-05
5.50356e-05
5.79795e-05
5.96053e-05
6.04901e-05
6.09404e-05
6.11359e-05
6.11866e-05
6.11613e-05
6.11043e-05
6.10435e-05
6.09941e-05
6.09609e-05
6.09412e-05
6.09299e-05
6.09237e-05
6.09209e-05
6.0921e-05
6.09238e-05
6.09299e-05
6.09402e-05
6.09568e-05
6.09819e-05
6.10112e-05
6.10261e-05
6.09855e-05
6.08159e-05
6.03988e-05
5.95461e-05
5.79464e-05
5.50205e-05
4.94428e-05
3.76944e-05
3.843e-05
5.16759e-05
5.79822e-05
6.13627e-05
6.32649e-05
6.43133e-05
6.48411e-05
6.50482e-05
6.50628e-05
6.49728e-05
6.48419e-05
6.47149e-05
6.4616e-05
6.45519e-05
6.45151e-05
6.44938e-05
6.44816e-05
6.4476e-05
6.44761e-05
6.44818e-05
6.44937e-05
6.45135e-05
6.45459e-05
6.45984e-05
6.46694e-05
6.47345e-05
6.47379e-05
6.45819e-05
6.41202e-05
6.31363e-05
6.1287e-05
5.79442e-05
5.16632e-05
3.84346e-05
3.88003e-05
5.28717e-05
5.96113e-05
6.32694e-05
6.53468e-05
6.64866e-05
6.70313e-05
6.71889e-05
6.71003e-05
6.68743e-05
6.66028e-05
6.63588e-05
6.61774e-05
6.60665e-05
6.6006e-05
6.59699e-05
6.59481e-05
6.59379e-05
6.5938e-05
6.59484e-05
6.59698e-05
6.60041e-05
6.60591e-05
6.61558e-05
6.63029e-05
6.6472e-05
6.65917e-05
6.65319e-05
6.61137e-05
6.50958e-05
6.31177e-05
5.95312e-05
5.28402e-05
3.88032e-05
3.89793e-05
5.3504e-05
6.05015e-05
6.43266e-05
6.64985e-05
6.76605e-05
6.81504e-05
6.81731e-05
6.7876e-05
6.73948e-05
6.6873e-05
6.64394e-05
6.61359e-05
6.59657e-05
6.58816e-05
6.58269e-05
6.57909e-05
6.57735e-05
6.57737e-05
6.57913e-05
6.58269e-05
6.58798e-05
6.59581e-05
6.61123e-05
6.63773e-05
6.6726e-05
6.7077e-05
6.72413e-05
6.69873e-05
6.60464e-05
6.40508e-05
6.03518e-05
5.34398e-05
3.89777e-05
3.90614e-05
5.38217e-05
6.09618e-05
6.48725e-05
6.70715e-05
6.81878e-05
6.85391e-05
6.83096e-05
6.76389e-05
6.66988e-05
6.57438e-05
6.50468e-05
6.4602e-05
6.43874e-05
6.43014e-05
6.42277e-05
6.4173e-05
6.41464e-05
6.41466e-05
6.41736e-05
6.42281e-05
6.43003e-05
6.43808e-05
6.45795e-05
6.49839e-05
6.5589e-05
6.63578e-05
6.69558e-05
6.70421e-05
6.63139e-05
6.4412e-05
6.07089e-05
5.37077e-05
3.90513e-05
3.90962e-05
5.39673e-05
6.11757e-05
6.51144e-05
6.72875e-05
6.82969e-05
6.84196e-05
6.77846e-05
6.64774e-05
6.46915e-05
6.29444e-05
6.20318e-05
6.1562e-05
6.14061e-05
6.13888e-05
6.13068e-05
6.12354e-05
6.12013e-05
6.12016e-05
6.12362e-05
6.13077e-05
6.13889e-05
6.14018e-05
6.15438e-05
6.1975e-05
6.27923e-05
6.43388e-05
6.57591e-05
6.64556e-05
6.61063e-05
6.44074e-05
6.07871e-05
5.37873e-05
3.90734e-05
3.91089e-05
5.40248e-05
6.12572e-05
6.51891e-05
6.73037e-05
6.81652e-05
6.79838e-05
6.67677e-05
6.44018e-05
6.08799e-05
5.72906e-05
5.69488e-05
5.70966e-05
5.73118e-05
5.74956e-05
5.7447e-05
5.73865e-05
5.73587e-05
5.7359e-05
5.73875e-05
5.74485e-05
5.7497e-05
5.73108e-05
5.70864e-05
5.6908e-05
5.71588e-05
6.05291e-05
6.36567e-05
6.53891e-05
6.56042e-05
6.41969e-05
6.07159e-05
5.37707e-05
3.90711e-05
3.9112e-05
5.4042e-05
6.1278e-05
6.51906e-05
6.7242e-05
6.79565e-05
6.74585e-05
6.55494e-05
6.15503e-05
5.39869e-05
4.42044e-05
4.87959e-05
5.16707e-05
5.28204e-05
5.33025e-05
5.33725e-05
5.3375e-05
5.33723e-05
5.33726e-05
5.3376e-05
5.33742e-05
5.33049e-05
5.28228e-05
5.16709e-05
4.87871e-05
4.41409e-05
5.3665e-05
6.07841e-05
6.41294e-05
6.50294e-05
6.39349e-05
6.06002e-05
5.37225e-05
3.906e-05
3.91116e-05
5.40459e-05
6.12817e-05
6.51817e-05
6.71956e-05
6.78234e-05
6.71308e-05
6.47291e-05
5.91374e-05
4.51384e-05
4.09454e-05
4.72723e-05
4.92635e-05
4.98692e-05
5.00838e-05
5.01509e-05
5.0168e-05
5.01682e-05
5.01517e-05
5.00852e-05
4.98714e-05
4.92668e-05
4.72769e-05
4.09476e-05
4.49374e-05
5.83697e-05
6.32863e-05
6.46749e-05
6.37736e-05
6.05258e-05
5.36891e-05
3.90509e-05
3.91103e-05
5.40492e-05
6.12901e-05
6.51948e-05
6.72144e-05
6.78584e-05
6.72322e-05
6.51105e-05
6.07834e-05
5.27342e-05
4.29593e-05
4.55519e-05
4.79695e-05
4.89048e-05
4.91268e-05
4.93663e-05
4.94481e-05
4.9465e-05
4.9465e-05
4.94481e-05
4.93663e-05
4.91266e-05
4.89043e-05
4.79669e-05
4.5536e-05
4.28872e-05
5.2403e-05
6.00036e-05
6.3671e-05
6.47767e-05
6.38045e-05
6.05369e-05
5.3693e-05
3.9048e-05
3.91097e-05
5.40558e-05
6.1308e-05
6.52318e-05
6.72876e-05
6.80084e-05
6.75613e-05
6.58945e-05
6.281e-05
5.81939e-05
5.31788e-05
5.09626e-05
4.97471e-05
4.92806e-05
4.9095e-05
4.91134e-05
4.91288e-05
4.91304e-05
4.91302e-05
4.91282e-05
4.91122e-05
4.90926e-05
4.92756e-05
4.97336e-05
5.09195e-05
5.3042e-05
5.78314e-05
6.20395e-05
6.4473e-05
6.51215e-05
6.39651e-05
6.0615e-05
5.3728e-05
3.9054e-05
3.91093e-05
5.40643e-05
6.13313e-05
6.52804e-05
6.73826e-05
6.81923e-05
6.79201e-05
6.66053e-05
6.4221e-05
6.08492e-05
5.7009e-05
5.36708e-05
5.10769e-05
4.98098e-05
4.93167e-05
4.91661e-05
4.91203e-05
4.91056e-05
4.91053e-05
4.91192e-05
4.9164e-05
4.9313e-05
4.98023e-05
5.10586e-05
5.36182e-05
5.68562e-05
6.04799e-05
6.34589e-05
6.51991e-05
6.54961e-05
6.41617e-05
6.07176e-05
5.37759e-05
3.90623e-05
3.9109e-05
5.40725e-05
6.13539e-05
6.53269e-05
6.74707e-05
6.83532e-05
6.8207e-05
6.71049e-05
6.50564e-05
6.21257e-05
5.85837e-05
5.49392e-05
5.18352e-05
5.01916e-05
4.95174e-05
4.92786e-05
4.91982e-05
4.91726e-05
4.9172e-05
4.91966e-05
4.92759e-05
4.95129e-05
5.01831e-05
5.18151e-05
5.48833e-05
5.84256e-05
6.17543e-05
6.42984e-05
6.57074e-05
6.57932e-05
6.43316e-05
6.08111e-05
5.38204e-05
3.9069e-05
3.91083e-05
5.40788e-05
6.13719e-05
6.53633e-05
6.75378e-05
6.847e-05
6.84016e-05
6.74139e-05
6.55168e-05
6.2746e-05
5.92813e-05
5.55226e-05
5.22164e-05
5.04061e-05
4.96416e-05
4.93607e-05
4.92629e-05
4.92301e-05
4.92293e-05
4.92608e-05
4.93575e-05
4.96367e-05
5.03971e-05
5.21956e-05
5.54651e-05
5.91209e-05
6.23729e-05
6.47598e-05
6.60198e-05
6.59925e-05
6.44528e-05
6.08802e-05
5.38533e-05
3.90729e-05
3.91073e-05
5.40826e-05
6.13837e-05
6.53873e-05
6.75807e-05
6.85421e-05
6.85158e-05
6.75839e-05
6.57514e-05
6.3037e-05
5.95892e-05
5.57799e-05
5.23897e-05
5.05081e-05
4.97029e-05
4.94029e-05
4.92962e-05
4.92585e-05
4.92573e-05
4.92937e-05
4.93994e-05
4.96977e-05
5.04989e-05
5.23685e-05
5.5721e-05
5.94274e-05
6.26626e-05
6.49939e-05
6.61906e-05
6.61082e-05
6.45263e-05
6.09231e-05
5.38734e-05
3.9074e-05
3.91061e-05
5.40841e-05
6.13897e-05
6.53991e-05
6.76017e-05
6.85764e-05
6.85683e-05
6.76588e-05
6.58499e-05
6.31532e-05
5.97075e-05
5.58787e-05
5.24561e-05
5.05476e-05
4.97265e-05
4.94187e-05
4.93078e-05
4.92664e-05
4.92649e-05
4.93048e-05
4.9415e-05
4.97212e-05
5.05382e-05
5.24346e-05
5.58181e-05
5.95451e-05
6.27781e-05
6.50919e-05
6.62654e-05
6.61609e-05
6.45607e-05
6.09435e-05
5.38824e-05
3.90732e-05
3.9105e-05
5.40837e-05
6.139e-05
6.53999e-05
6.76027e-05
6.85779e-05
6.85703e-05
6.76615e-05
6.58533e-05
6.31575e-05
5.97125e-05
5.58839e-05
5.24603e-05
5.05502e-05
4.97276e-05
4.94185e-05
4.93061e-05
4.92627e-05
4.92609e-05
4.93029e-05
4.94145e-05
4.97221e-05
5.05407e-05
5.24388e-05
5.58229e-05
5.95502e-05
6.27826e-05
6.50955e-05
6.62683e-05
6.6163e-05
6.45623e-05
6.09445e-05
5.38822e-05
3.90714e-05
3.91046e-05
5.40816e-05
6.13848e-05
6.53893e-05
6.75838e-05
6.85464e-05
6.85217e-05
6.75919e-05
6.57618e-05
6.30501e-05
5.96048e-05
5.57959e-05
5.24029e-05
5.05163e-05
4.97064e-05
4.94026e-05
4.92918e-05
4.92485e-05
4.92465e-05
4.92884e-05
4.93985e-05
4.97008e-05
5.0507e-05
5.23818e-05
5.57362e-05
5.94437e-05
6.26764e-05
6.50049e-05
6.6199e-05
6.61145e-05
6.45309e-05
6.0926e-05
5.38731e-05
3.90695e-05
3.9105e-05
5.40776e-05
6.13733e-05
6.53663e-05
6.75422e-05
6.84764e-05
6.84107e-05
6.74267e-05
6.55345e-05
6.2769e-05
5.93095e-05
5.55497e-05
5.22402e-05
5.04211e-05
4.96484e-05
4.9361e-05
4.92567e-05
4.92168e-05
4.9215e-05
4.92532e-05
4.93568e-05
4.96429e-05
5.04121e-05
5.22201e-05
5.5493e-05
5.91508e-05
6.23973e-05
6.47784e-05
6.60334e-05
6.60022e-05
6.44598e-05
6.08846e-05
5.38534e-05
3.90673e-05
3.91054e-05
5.40711e-05
6.13551e-05
6.53294e-05
6.74748e-05
6.83597e-05
6.82175e-05
6.71212e-05
6.50809e-05
6.21607e-05
5.86292e-05
5.49829e-05
5.1872e-05
5.02137e-05
4.9527e-05
4.92786e-05
4.91899e-05
4.91573e-05
4.91558e-05
4.91867e-05
4.92745e-05
4.95218e-05
5.02054e-05
5.18537e-05
5.49297e-05
5.84745e-05
6.17916e-05
6.4324e-05
6.57242e-05
6.58042e-05
6.43391e-05
6.08158e-05
5.38207e-05
3.90629e-05
3.91055e-05
5.40617e-05
6.133e-05
6.52792e-05
6.73821e-05
6.8194e-05
6.79266e-05
6.66205e-05
6.42505e-05
6.0899e-05
5.70793e-05
5.37388e-05
5.11243e-05
4.98306e-05
4.93188e-05
4.91543e-05
4.90989e-05
4.90784e-05
4.90773e-05
4.9096e-05
4.91503e-05
4.93136e-05
4.98229e-05
5.11086e-05
5.36921e-05
5.69329e-05
6.05335e-05
6.34882e-05
6.52127e-05
6.5502e-05
6.41648e-05
6.07195e-05
5.3775e-05
3.90556e-05
3.91052e-05
5.40491e-05
6.12988e-05
6.52192e-05
6.72726e-05
6.79933e-05
6.75501e-05
6.58945e-05
6.28337e-05
5.82578e-05
5.32864e-05
5.10604e-05
4.97725e-05
4.92542e-05
4.90391e-05
4.90367e-05
4.90411e-05
4.90377e-05
4.90366e-05
4.90381e-05
4.90315e-05
4.90309e-05
4.92427e-05
4.97569e-05
5.1027e-05
5.31608e-05
5.78995e-05
6.20561e-05
6.44637e-05
6.51054e-05
6.39513e-05
6.0606e-05
5.37218e-05
3.90462e-05
3.91038e-05
5.40314e-05
6.12608e-05
6.51537e-05
6.71633e-05
6.78005e-05
6.7173e-05
6.50616e-05
6.07696e-05
5.28058e-05
4.30321e-05
4.55648e-05
4.7808e-05
4.86517e-05
4.8818e-05
4.90282e-05
4.90988e-05
4.9111e-05
4.91096e-05
4.90937e-05
4.90167e-05
4.87946e-05
4.86141e-05
4.77638e-05
4.55411e-05
4.2959e-05
5.24728e-05
5.99574e-05
6.35905e-05
6.47011e-05
6.37474e-05
6.04998e-05
5.36717e-05
3.90381e-05
3.90996e-05
5.40008e-05
6.12061e-05
6.5077e-05
6.70649e-05
6.76697e-05
6.6957e-05
6.45409e-05
5.89584e-05
4.50412e-05
4.0484e-05
4.6427e-05
4.82212e-05
4.86875e-05
4.8858e-05
4.89139e-05
4.89267e-05
4.89231e-05
4.89e-05
4.88231e-05
4.861e-05
4.80762e-05
4.62088e-05
4.02962e-05
4.47436e-05
5.80669e-05
6.30093e-05
6.44597e-05
6.36203e-05
6.04262e-05
5.36339e-05
3.9034e-05
3.90865e-05
5.39358e-05
6.11039e-05
6.49559e-05
6.69532e-05
6.76168e-05
6.7065e-05
6.50909e-05
6.10117e-05
5.33661e-05
4.35991e-05
4.70994e-05
4.9419e-05
5.0045e-05
5.01502e-05
5.01418e-05
5.0138e-05
5.01356e-05
5.01289e-05
5.01105e-05
5.00652e-05
4.99627e-05
4.965e-05
4.87432e-05
4.63271e-05
4.31055e-05
5.2595e-05
5.99209e-05
6.34802e-05
6.45571e-05
6.36013e-05
6.03783e-05
5.35964e-05
3.90267e-05
3.90527e-05
5.379e-05
6.08874e-05
6.47055e-05
6.67207e-05
6.7487e-05
6.71961e-05
6.58255e-05
6.32117e-05
5.92707e-05
5.49968e-05
5.3568e-05
5.25688e-05
5.15939e-05
5.10473e-05
5.08181e-05
5.07401e-05
5.07155e-05
5.07058e-05
5.06975e-05
5.06902e-05
5.07062e-05
5.08053e-05
5.11261e-05
5.19283e-05
5.3533e-05
5.79595e-05
6.18668e-05
6.41278e-05
6.47022e-05
6.35506e-05
6.02702e-05
5.35053e-05
3.90049e-05
3.8972e-05
5.34787e-05
6.04392e-05
6.41819e-05
6.61911e-05
6.70485e-05
6.69989e-05
6.61187e-05
6.44116e-05
6.19521e-05
5.91295e-05
5.66799e-05
5.43121e-05
5.22129e-05
5.11464e-05
5.07293e-05
5.05887e-05
5.05458e-05
5.05341e-05
5.05358e-05
5.05623e-05
5.06748e-05
5.10515e-05
5.20915e-05
5.42967e-05
5.7061e-05
6.02573e-05
6.28803e-05
6.4383e-05
6.45728e-05
6.32587e-05
5.99528e-05
5.32604e-05
3.89386e-05
3.87951e-05
5.28559e-05
5.9569e-05
6.31637e-05
6.51136e-05
6.60135e-05
6.61358e-05
6.55965e-05
6.44357e-05
6.26934e-05
6.049e-05
5.80297e-05
5.53987e-05
5.30194e-05
5.17843e-05
5.12877e-05
5.11151e-05
5.10616e-05
5.10487e-05
5.10565e-05
5.11027e-05
5.12647e-05
5.1753e-05
5.30035e-05
5.54659e-05
5.82732e-05
6.09054e-05
6.28898e-05
6.39333e-05
6.38678e-05
6.24677e-05
5.92135e-05
5.27036e-05
3.87751e-05
3.84272e-05
5.16701e-05
5.79613e-05
6.13e-05
6.31134e-05
6.399e-05
6.42097e-05
6.39016e-05
6.31118e-05
6.18549e-05
6.01638e-05
5.81309e-05
5.5932e-05
5.39668e-05
5.28585e-05
5.23764e-05
5.21957e-05
5.21362e-05
5.21223e-05
5.21342e-05
5.21911e-05
5.23688e-05
5.28514e-05
5.39701e-05
5.59791e-05
5.82395e-05
6.02759e-05
6.17471e-05
6.2444e-05
6.2212e-05
6.08143e-05
5.77254e-05
5.15765e-05
3.84178e-05
3.76894e-05
4.94489e-05
5.50325e-05
5.79542e-05
5.95272e-05
6.03037e-05
6.05519e-05
6.0399e-05
5.98891e-05
5.90297e-05
5.78305e-05
5.63531e-05
5.47625e-05
5.33674e-05
5.25252e-05
5.21275e-05
5.19706e-05
5.19176e-05
5.19054e-05
5.19167e-05
5.19687e-05
5.21246e-05
5.25234e-05
5.33733e-05
5.47863e-05
5.63909e-05
5.78279e-05
5.88388e-05
5.9258e-05
5.89408e-05
5.76551e-05
5.48988e-05
4.94029e-05
3.76882e-05
3.6267e-05
4.51376e-05
4.94528e-05
5.16741e-05
5.28455e-05
5.34223e-05
5.36286e-05
5.35713e-05
5.3291e-05
5.27897e-05
5.20655e-05
5.11559e-05
5.01754e-05
4.93176e-05
4.87774e-05
4.85086e-05
4.8397e-05
4.83574e-05
4.83481e-05
4.83576e-05
4.83974e-05
4.85091e-05
4.87788e-05
4.93228e-05
5.01871e-05
5.11683e-05
5.20415e-05
5.26361e-05
5.28394e-05
5.25378e-05
5.15317e-05
4.93991e-05
4.51251e-05
3.62706e-05
3.39888e-05
3.6272e-05
3.77014e-05
3.8445e-05
3.88172e-05
3.89931e-05
3.90614e-05
3.90625e-05
3.90085e-05
3.88972e-05
3.87319e-05
3.8516e-05
3.82735e-05
3.80551e-05
3.79143e-05
3.78413e-05
3.78076e-05
3.77919e-05
3.77867e-05
3.77926e-05
3.78083e-05
3.78418e-05
3.79145e-05
3.80553e-05
3.82741e-05
3.85161e-05
3.8724e-05
3.88624e-05
3.88947e-05
3.87793e-05
3.8438e-05
3.77065e-05
3.62787e-05
3.39932e-05
5.28957e-05
6.09363e-05
6.55823e-05
6.80593e-05
6.93809e-05
7.0069e-05
7.04067e-05
7.05538e-05
7.06008e-05
7.05985e-05
7.05753e-05
7.05473e-05
7.05228e-05
7.05049e-05
7.0493e-05
7.04854e-05
7.04808e-05
7.04784e-05
7.04783e-05
7.04803e-05
7.04846e-05
7.04915e-05
7.05016e-05
7.05149e-05
7.05276e-05
7.05273e-05
7.04863e-05
7.03518e-05
7.00292e-05
6.93552e-05
6.80447e-05
6.55753e-05
6.0934e-05
5.28967e-05
6.09371e-05
0.000181241
0.000226809
0.000249673
0.000262343
0.000269409
0.000273134
0.000274841
0.000275359
0.000275228
0.000274799
0.000274299
0.000273861
0.000273539
0.000273325
0.000273191
0.000273113
0.000273077
0.000273077
0.000273113
0.000273187
0.00027331
0.000273492
0.000273736
0.000273985
0.00027407
0.000273644
0.000272133
0.000268647
0.000261811
0.000249325
0.00022659
0.000181109
6.0935e-05
6.55858e-05
0.000226838
0.000291312
0.000324399
0.000343063
0.000353635
0.000359245
0.000361737
0.000362311
0.000361797
0.000360787
0.000359693
0.000358768
0.000358107
0.000357684
0.000357424
0.000357273
0.000357204
0.000357204
0.000357272
0.000357415
0.000357652
0.000358015
0.000358529
0.000359116
0.000359494
0.000359094
0.00035701
0.000351916
0.000341851
0.000323608
0.000290832
0.000226581
6.55798e-05
6.80657e-05
0.000249726
0.00032443
0.000363434
0.000385699
0.000398349
0.000404918
0.000407506
0.000407538
0.000406074
0.000403956
0.00040183
0.000400103
0.000398919
0.000398191
0.000397745
0.000397484
0.000397363
0.000397363
0.000397481
0.000397731
0.000398145
0.000398788
0.000399765
0.000401029
0.000402195
0.000402474
0.000400649
0.000395052
0.00038336
0.000361903
0.000323512
0.00024926
6.80509e-05
6.93906e-05
0.000262421
0.000343141
0.000385764
0.000410204
0.000423928
0.000430623
0.000432497
0.00043111
0.000427759
0.000423629
0.000419736
0.000416706
0.000414748
0.000413611
0.000412898
0.000412467
0.000412265
0.000412265
0.000412464
0.000412883
0.000413557
0.000414591
0.000416297
0.000418763
0.000421501
0.000423451
0.000422981
0.000418043
0.00040603
0.000383028
0.000341504
0.00026161
6.93572e-05
7.00824e-05
0.000269528
0.000353805
0.000398565
0.00042413
0.000438043
0.000443966
0.000444065
0.000439955
0.000433208
0.000425602
0.000418876
0.000413883
0.000410918
0.000409358
0.000408282
0.000407591
0.000407268
0.000407268
0.00040759
0.000408269
0.000409304
0.000410753
0.000413442
0.000417805
0.000423226
0.000428374
0.000430877
0.000428091
0.000417129
0.000393991
0.000351069
0.000268179
7.00168e-05
7.04251e-05
0.000273335
0.000359599
0.000405454
0.000431305
0.000444582
0.000448727
0.000445654
0.000436828
0.000424142
0.000410635
0.00039996
0.000392456
0.000388549
0.000386875
0.000385307
0.000384227
0.000383733
0.000383734
0.000384228
0.000385298
0.00038683
0.0003884
0.000392034
0.000398882
0.00040815
0.000418966
0.000427045
0.000428524
0.000420224
0.000398287
0.000355325
0.000271224
7.03102e-05
7.05797e-05
0.000275189
0.000362426
0.000408645
0.000434138
0.000446049
0.000447356
0.000439291
0.00042255
0.000398991
0.000374649
0.000361025
0.000351979
0.000348236
0.00034752
0.000345257
0.000343668
0.000342999
0.000343
0.00034367
0.000345254
0.000347491
0.000348123
0.000351632
0.000360061
0.000372254
0.00039368
0.000412265
0.000421271
0.000417598
0.000398154
0.000356217
0.000272117
7.03995e-05
7.06391e-05
0.000275949
0.000363549
0.000409681
0.000434413
0.000444466
0.000442018
0.000426768
0.000396625
0.000349981
0.000297383
0.000296786
0.000294062
0.000294022
0.000296357
0.000293196
0.000291259
0.000290572
0.000290573
0.000291262
0.000293197
0.000296346
0.000293959
0.000293843
0.000296105
0.000295495
0.00034487
0.00038603
0.000408053
0.000411303
0.000395428
0.000355219
0.000271831
7.03849e-05
7.06553e-05
0.000276169
0.000363832
0.0004097
0.000433597
0.000441767
0.000435307
0.000411081
0.000358697
0.000252556
8.31359e-05
0.000193186
0.000226429
0.000236372
0.000243216
0.000239639
0.000238094
0.00023769
0.000237691
0.000238096
0.000239643
0.000243219
0.000236357
0.000226368
0.00019308
8.28635e-05
0.00024847
0.000348063
0.000391855
0.000403898
0.000391955
0.000353604
0.00027112
7.03347e-05
7.06567e-05
0.000276194
0.000363845
0.00040951
0.000432855
0.000439817
0.000430678
0.000399251
0.000319508
8.60424e-05
7.24559e-05
0.000176674
0.000196686
0.000200425
0.000202944
0.000203806
0.000204002
0.000204003
0.00020381
0.000202952
0.000200433
0.000196693
0.000176675
7.24485e-05
8.52423e-05
0.000309331
0.000379783
0.000398893
0.000389588
0.000352437
0.000270559
7.02971e-05
7.06566e-05
0.000276201
0.000363896
0.000409556
0.000432851
0.000439829
0.000431354
0.000404055
0.000347525
0.000237328
7.87772e-05
0.000155474
0.000173463
0.000175754
0.000169307
0.000178123
0.000181142
0.00018172
0.000181721
0.000181145
0.00017813
0.000169304
0.000175746
0.000173427
0.00015536
7.84854e-05
0.000233196
0.000336708
0.000384546
0.000399547
0.000389524
0.000352305
0.000270439
7.02947e-05
7.06594e-05
0.00027626
0.000364077
0.000409911
0.000433525
0.000441233
0.000434686
0.000412929
0.000373198
0.000313546
0.000246115
0.000220827
0.000197828
0.000188712
0.000183627
0.000185717
0.00018677
0.000187014
0.000187014
0.000186769
0.000185714
0.000183609
0.000188669
0.00019768
0.000220287
0.00024432
0.000308355
0.000362262
0.000393577
0.000403056
0.000391054
0.000353032
0.000270744
7.03234e-05
7.06644e-05
0.00027636
0.000364347
0.000410444
0.000434516
0.000443099
0.000438345
0.000420418
0.000388815
0.0003445
0.000293977
0.000249913
0.000212362
0.000196832
0.000191134
0.000190053
0.000189912
0.000189893
0.000189894
0.000189911
0.000190049
0.000191117
0.000196777
0.000212164
0.000249199
0.000291782
0.000339068
0.000377915
0.000401242
0.00040692
0.000393094
0.00035413
0.000271258
7.03654e-05
7.06695e-05
0.000276473
0.000364633
0.000410993
0.000435497
0.000444811
0.000441317
0.000425561
0.000397497
0.000357983
0.000310751
0.000262385
0.000219401
0.000200665
0.000193845
0.000191762
0.000191208
0.000191086
0.000191087
0.000191209
0.00019176
0.00019383
0.000200607
0.000219185
0.000261618
0.000308451
0.000352494
0.000386644
0.000406508
0.000410043
0.000394945
0.000355201
0.000271785
7.04047e-05
7.06732e-05
0.00027657
0.000364873
0.000411448
0.000436282
0.000446106
0.000443386
0.000428757
0.000402188
0.000364237
0.000317658
0.000267902
0.000222783
0.00020257
0.000195053
0.000192608
0.000191915
0.000191758
0.000191759
0.000191917
0.000192606
0.000195039
0.000202511
0.000222562
0.000267118
0.000315322
0.000358727
0.000391357
0.000409768
0.000412197
0.000396323
0.000356035
0.000272205
7.04334e-05
7.06751e-05
0.000276638
0.000365039
0.000411757
0.000436805
0.000446938
0.000444642
0.000430557
0.0004046
0.000367157
0.000320655
0.000270325
0.000224336
0.000203474
0.000195622
0.000193028
0.000192285
0.000192116
0.000192118
0.000192287
0.000193028
0.000195609
0.000203416
0.000224114
0.000269542
0.000318303
0.000361634
0.000393774
0.000411592
0.00041349
0.000397191
0.000356576
0.000272481
7.04503e-05
7.06753e-05
0.000276672
0.000365123
0.000411913
0.000437063
0.000447339
0.000445229
0.000431363
0.000405624
0.000368329
0.000321805
0.000271236
0.000224938
0.000203829
0.000195843
0.000193193
0.000192432
0.00019226
0.000192261
0.000192434
0.000193193
0.00019583
0.00020377
0.000224717
0.000270465
0.000319446
0.000362799
0.000394796
0.000412404
0.000414089
0.000397604
0.000356837
0.000272614
7.04572e-05
7.06743e-05
0.000276672
0.000365125
0.000411916
0.000437068
0.000447345
0.000445238
0.000431375
0.000405641
0.000368349
0.000321826
0.000271258
0.000224966
0.000203846
0.000195852
0.000193198
0.000192436
0.000192264
0.000192266
0.000192438
0.000193198
0.000195839
0.000203788
0.000224745
0.000270489
0.000319467
0.000362818
0.000394813
0.000412417
0.000414098
0.000397611
0.000356841
0.000272616
7.0456e-05
7.06725e-05
0.000276638
0.000365043
0.000411764
0.000436815
0.000446953
0.000444665
0.000430592
0.000404647
0.000367216
0.000320722
0.000270395
0.000224424
0.000203531
0.000195654
0.000193049
0.000192303
0.000192137
0.000192139
0.000192307
0.00019305
0.000195642
0.000203474
0.000224207
0.000269628
0.00031837
0.000361692
0.00039382
0.000411626
0.000413514
0.000397207
0.000356586
0.000272484
7.04472e-05
7.06696e-05
0.000276566
0.000364871
0.000411447
0.000436284
0.000446115
0.000443408
0.0004288
0.000402258
0.000364337
0.000317783
0.000268064
0.000222954
0.000202685
0.000195128
0.000192664
0.000191969
0.000191814
0.000191817
0.000191973
0.000192667
0.000195119
0.000202633
0.000222744
0.000267294
0.000315447
0.000358824
0.000391423
0.000409806
0.000412218
0.000396335
0.000356041
0.000272205
7.04291e-05
7.06649e-05
0.000276456
0.000364608
0.00041096
0.000435458
0.000444775
0.000441297
0.000425577
0.00039757
0.000358126
0.000310958
0.000262672
0.000219686
0.000200862
0.000193988
0.000191878
0.000191318
0.000191199
0.000191202
0.000191325
0.000191885
0.000193986
0.000200819
0.00021949
0.000261926
0.000308662
0.000352631
0.000386702
0.000406507
0.000410015
0.000394915
0.000355178
0.000271768
7.03992e-05
7.06578e-05
0.000276308
0.000364259
0.000410318
0.000434359
0.000442928
0.000438188
0.000420319
0.000388832
0.000344684
0.000294321
0.000250378
0.000212757
0.000197083
0.000191326
0.000190184
0.000190028
0.000190014
0.000190018
0.000190039
0.000190198
0.00019133
0.000197049
0.000212588
0.000249707
0.000292144
0.000339247
0.000377885
0.000401086
0.00040673
0.00039293
0.000354015
0.000271192
7.03573e-05
7.0648e-05
0.000276122
0.00036383
0.000409559
0.000433081
0.000440726
0.00043417
0.000412498
0.000373006
0.000313772
0.000246686
0.000221491
0.000198071
0.000188642
0.00018347
0.000185405
0.000186424
0.000186673
0.000186678
0.000186437
0.000185417
0.000183458
0.00018858
0.000197915
0.00022101
0.000244942
0.000308596
0.000361927
0.000392969
0.000402435
0.00039055
0.000352686
0.000270554
7.03084e-05
7.0633e-05
0.000275864
0.000363293
0.000408706
0.000431779
0.00043858
0.000430006
0.000402778
0.000346689
0.000237672
7.88926e-05
0.000155582
0.000171867
0.000173325
0.000166478
0.00017506
0.00017806
0.000178645
0.000178642
0.000178042
0.000174998
0.000166292
0.000172992
0.000171449
0.000155509
7.85928e-05
0.000233593
0.000335436
0.000382777
0.000397917
0.00038826
0.000351448
0.000269972
7.02631e-05
7.06041e-05
0.000275424
0.000362498
0.000407647
0.000430524
0.000437065
0.000427575
0.000395987
0.000316734
8.55759e-05
7.0948e-05
0.00016857
0.000186398
0.00018874
0.000191161
0.000192137
0.000192392
0.000192371
0.000192041
0.000190878
0.00018804
0.000185043
0.000166605
7.03576e-05
8.44503e-05
0.00030511
0.000375271
0.000395142
0.000386793
0.000350554
0.000269524
7.02289e-05
7.05378e-05
0.000274525
0.00036104
0.000405928
0.000428937
0.00043625
0.000428898
0.000403712
0.000350498
0.000244693
8.0716e-05
0.000174655
0.000202054
0.000206591
0.000209365
0.000206133
0.000205076
0.000204878
0.000204824
0.000204834
0.00020541
0.000207521
0.00020255
0.000194791
0.00016694
7.90237e-05
0.00023577
0.000335593
0.000381752
0.000396245
0.000386412
0.00034985
0.000269015
7.01911e-05
7.0384e-05
0.000272642
0.000358123
0.000402544
0.00042576
0.000434319
0.000430164
0.000412659
0.000379271
0.000327834
0.000268369
0.0002549
0.000239707
0.000225348
0.000219218
0.00021575
0.000214526
0.00021419
0.000214101
0.000214122
0.000214483
0.000215667
0.000216487
0.000221628
0.00023487
0.000250671
0.000310407
0.000360496
0.000389336
0.000397601
0.000385493
0.000348343
0.000267854
7.00922e-05
7.00487e-05
0.000268901
0.000352457
0.000395885
0.000419016
0.000428654
0.000427343
0.000415671
0.000393389
0.000361043
0.000323222
0.000290387
0.000257095
0.000225774
0.000213108
0.000208559
0.000207088
0.000206658
0.00020655
0.000206588
0.00020693
0.000208233
0.000212266
0.000225047
0.000257933
0.000295234
0.000337453
0.000371694
0.000391662
0.000395589
0.000381717
0.000344405
0.000265005
6.98225e-05
6.93669e-05
0.000261914
0.000342053
0.000383577
0.000405987
0.00041615
0.000416884
0.000409241
0.00039347
0.00036986
0.000339765
0.000305856
0.000269062
0.000234098
0.000219407
0.000214109
0.000212352
0.000211817
0.000211692
0.000211777
0.000212258
0.000213945
0.000219189
0.000234194
0.000270334
0.000309041
0.000344637
0.000371436
0.000386137
0.000387174
0.000372377
0.000335816
0.000258953
6.92063e-05
6.80519e-05
0.000249351
0.000323646
0.000361839
0.000382571
0.000392491
0.00039445
0.000389649
0.000378461
0.000360979
0.000337628
0.000309733
0.000279751
0.000253116
0.000239854
0.000234428
0.000232455
0.000231808
0.000231657
0.000231793
0.000232421
0.000234382
0.000239853
0.000253384
0.000280572
0.000311157
0.000338754
0.000358987
0.00036936
0.000368334
0.000353569
0.000319175
0.000247284
6.79499e-05
6.55803e-05
0.000226584
0.000290814
0.000323382
0.000341027
0.00034973
0.000352115
0.000349353
0.000341852
0.000329694
0.00031311
0.000293071
0.000271855
0.000253567
0.000243238
0.000238529
0.000236645
0.000235973
0.000235813
0.000235978
0.000236656
0.000238556
0.000243318
0.000253791
0.000272304
0.0002936
0.000312915
0.000326899
0.000333519
0.000331282
0.000317906
0.00028797
0.000225313
6.55258e-05
6.09376e-05
0.000181096
0.00022656
0.000249177
0.000261326
0.00026739
0.000269327
0.000268037
0.000263854
0.000256853
0.000247176
0.000235435
0.000223092
0.000212513
0.000206054
0.000202872
0.000201518
0.000201013
0.000200893
0.000201028
0.000201549
0.000202924
0.000206144
0.000212681
0.000223353
0.000235664
0.000246854
0.00025485
0.000258288
0.000256034
0.000246337
0.000225169
0.000180504
6.09181e-05
5.28994e-05
6.09374e-05
6.55835e-05
6.80543e-05
6.93534e-05
6.99872e-05
7.02137e-05
7.01564e-05
6.98595e-05
6.93257e-05
6.85544e-05
6.7585e-05
6.65399e-05
6.56289e-05
6.5052e-05
6.47619e-05
6.46374e-05
6.45906e-05
6.45792e-05
6.45917e-05
6.46392e-05
6.47645e-05
6.50561e-05
6.56369e-05
6.65541e-05
6.75979e-05
6.8527e-05
6.91601e-05
6.93704e-05
6.90261e-05
6.78982e-05
6.55186e-05
6.09165e-05
5.29021e-05
5.58078e-05
6.6872e-05
7.31099e-05
7.64746e-05
7.83189e-05
7.93104e-05
7.98127e-05
8.0037e-05
8.01084e-05
8.01009e-05
8.00588e-05
8.00083e-05
7.99641e-05
7.99318e-05
7.99106e-05
7.98974e-05
7.98896e-05
7.98859e-05
7.98859e-05
7.98893e-05
7.98966e-05
7.99086e-05
7.99265e-05
7.99503e-05
7.99736e-05
7.99764e-05
7.99152e-05
7.97121e-05
7.92357e-05
7.82688e-05
7.64443e-05
7.30934e-05
6.68648e-05
5.58083e-05
6.68723e-05
0.000240597
0.00031153
0.000347741
0.000368062
0.000379555
0.000385704
0.000388543
0.000389378
0.000389081
0.00038825
0.000387287
0.00038644
0.000385808
0.000385385
0.000385118
0.000384961
0.000384888
0.000384888
0.000384958
0.000385106
0.000385348
0.000385706
0.000386183
0.000386675
0.000386885
0.000386222
0.000383744
0.000378041
0.000366979
0.000347013
0.000311065
0.000240331
6.68649e-05
7.3113e-05
0.000311581
0.000418886
0.00047537
0.00050759
0.000526007
0.000535856
0.000540229
0.000541161
0.000540094
0.000538088
0.000535915
0.000534066
0.000532735
0.000531877
0.000531346
0.000531037
0.000530894
0.000530893
0.00053103
0.000531321
0.000531804
0.000532537
0.00053357
0.000534762
0.000535584
0.000535
0.000531415
0.000522557
0.000505116
0.00047372
0.000417863
0.000311053
7.30956e-05
7.64813e-05
0.000347835
0.000475432
0.000543991
0.000583541
0.000606157
0.00061794
0.000622535
0.000622425
0.000619497
0.00061529
0.000611037
0.000607563
0.000605179
0.00060371
0.000602799
0.000602263
0.000602016
0.000602014
0.000602254
0.000602765
0.000603606
0.000604898
0.000606865
0.000609431
0.000611849
0.000612621
0.000609529
0.000599622
0.000578851
0.00054087
0.000473528
0.000346895
7.64452e-05
7.83297e-05
0.000368208
0.000507752
0.000583677
0.000627655
0.000652466
0.000664561
0.000667814
0.000664974