/*--------------------------------*- C++ -*----------------------------------*\
| =========                 |                                                 |
| \\      /  F ield         | OpenFOAM: The Open Source CFD Toolbox           |
|  \\    /   O peration     | Version:  2112                                  |
|   \\  /    A nd           | Website:  www.openfoam.com                      |
|    \\/     M anipulation  |                                                 |
\*---------------------------------------------------------------------------*/
FoamFile
{
    version     2.0;
    format      ascii;
    arch        "LSB;label=32;scalar=64";
    class       volScalarField;
    location    "4.7";
    object      p;
}
// * * * * * * * * * * * * * * * * * * * * * * * * * * * * * * * * * * * * * //

dimensions      [0 2 -2 0 0 0 0];

internalField   nonuniform List<scalar> 
64906
(
-4.4762e-06
-4.4587e-06
-4.44826e-06
-4.44805e-06
-4.47107e-06
-4.51151e-06
-4.57362e-06
-4.65847e-06
-4.76488e-06
-4.89018e-06
-5.02814e-06
-5.17305e-06
-5.31654e-06
-5.45864e-06
-5.57267e-06
-5.66395e-06
-5.73137e-06
-5.7739e-06
-5.79099e-06
-5.78277e-06
-5.75014e-06
-5.69429e-06
-5.61609e-06
-5.50851e-06
-5.4063e-06
-5.30338e-06
-5.20884e-06
-5.12818e-06
-5.06706e-06
-5.02646e-06
-5.00284e-06
-5.0068e-06
-5.02187e-06
-5.03707e-06
-4.42663e-06
-4.36912e-06
-4.3191e-06
-4.28214e-06
-4.2683e-06
-4.27605e-06
-4.30416e-06
-4.3509e-06
-4.41316e-06
-4.48762e-06
-4.56787e-06
-4.65025e-06
-4.72706e-06
-4.79328e-06
-4.85919e-06
-4.91511e-06
-4.958e-06
-4.98744e-06
-5.00318e-06
-5.00535e-06
-4.99453e-06
-4.97146e-06
-4.94011e-06
-4.91262e-06
-4.87149e-06
-4.82745e-06
-4.78805e-06
-4.75696e-06
-4.74116e-06
-4.74471e-06
-4.77159e-06
-4.82509e-06
-4.89178e-06
-4.96679e-06
-4.39858e-06
-4.30724e-06
-4.21515e-06
-4.13419e-06
-4.08284e-06
-4.06011e-06
-4.06421e-06
-4.093e-06
-4.14276e-06
-4.21082e-06
-4.28791e-06
-4.37046e-06
-4.44318e-06
-4.50697e-06
-4.55977e-06
-4.60317e-06
-4.63619e-06
-4.65999e-06
-4.67474e-06
-4.68059e-06
-4.67765e-06
-4.66513e-06
-4.64457e-06
-4.6149e-06
-4.57735e-06
-4.53255e-06
-4.49737e-06
-4.47637e-06
-4.48104e-06
-4.51618e-06
-4.5868e-06
-4.69848e-06
-4.82091e-06
-4.93935e-06
-4.39519e-06
-4.27262e-06
-4.13981e-06
-4.01622e-06
-3.9324e-06
-3.88806e-06
-3.88301e-06
-3.91699e-06
-3.9876e-06
-4.09455e-06
-4.22278e-06
-4.36637e-06
-4.48677e-06
-4.58674e-06
-4.6591e-06
-4.71352e-06
-4.75141e-06
-4.77675e-06
-4.7905e-06
-4.79277e-06
-4.78287e-06
-4.75707e-06
-4.71458e-06
-4.64617e-06
-4.56e-06
-4.45432e-06
-4.37091e-06
-4.31712e-06
-4.31186e-06
-4.35851e-06
-4.46049e-06
-4.62454e-06
-4.79775e-06
-4.95695e-06
-4.43111e-06
-4.28166e-06
-4.11551e-06
-3.95972e-06
-3.85611e-06
-3.8074e-06
-3.81718e-06
-3.89019e-06
-4.02837e-06
-4.23844e-06
-4.49715e-06
-4.79714e-06
-5.03875e-06
-5.23089e-06
-5.36215e-06
-5.4564e-06
-5.5175e-06
-5.55365e-06
-5.56669e-06
-5.55665e-06
-5.52192e-06
-5.45442e-06
-5.35106e-06
-5.18859e-06
-4.98056e-06
-4.71909e-06
-4.50968e-06
-4.36038e-06
-4.29994e-06
-4.32566e-06
-4.43665e-06
-4.63238e-06
-4.84554e-06
-5.03951e-06
-4.50939e-06
-4.33362e-06
-4.13911e-06
-3.96104e-06
-3.85028e-06
-3.81468e-06
-3.86302e-06
-4.00789e-06
-4.25961e-06
-4.63989e-06
-5.12034e-06
-5.71139e-06
-6.15767e-06
-6.50031e-06
-6.72672e-06
-6.88781e-06
-6.98924e-06
-7.04505e-06
-7.05772e-06
-7.02716e-06
-6.95101e-06
-6.81514e-06
-6.61485e-06
-6.29991e-06
-5.88656e-06
-5.33415e-06
-4.90936e-06
-4.59811e-06
-4.43708e-06
-4.40975e-06
-4.50776e-06
-4.71756e-06
-4.96266e-06
-5.19125e-06
-4.6326e-06
-4.42458e-06
-4.20374e-06
-4.01052e-06
-3.90351e-06
-3.89604e-06
-4.00228e-06
-4.2441e-06
-4.64413e-06
-5.25665e-06
-6.03623e-06
-7.13786e-06
-7.86616e-06
-8.40624e-06
-8.75071e-06
-8.99697e-06
-9.14999e-06
-9.23156e-06
-9.24421e-06
-9.18771e-06
-9.05947e-06
-8.83719e-06
-8.51703e-06
-8.00201e-06
-7.30594e-06
-6.24055e-06
-5.52716e-06
-4.99148e-06
-4.6946e-06
-4.5892e-06
-4.65643e-06
-4.87e-06
-5.14328e-06
-5.40949e-06
-4.78853e-06
-4.5467e-06
-4.30118e-06
-4.09825e-06
-4.00548e-06
-4.04043e-06
-4.22069e-06
-4.57252e-06
-5.13331e-06
-5.99051e-06
-7.07337e-06
-9.1044e-06
-1.01298e-05
-1.09036e-05
-1.1383e-05
-1.17333e-05
-1.19501e-05
-1.20639e-05
-1.20768e-05
-1.19886e-05
-1.17966e-05
-1.14695e-05
-1.10126e-05
-1.02598e-05
-9.26563e-06
-7.26089e-06
-6.2657e-06
-5.49028e-06
-5.04322e-06
-4.84588e-06
-4.86822e-06
-5.07782e-06
-5.37808e-06
-5.69013e-06
-4.97569e-06
-4.69199e-06
-4.42091e-06
-4.2114e-06
-4.1414e-06
-4.22985e-06
-4.49307e-06
-4.95216e-06
-5.60172e-06
-6.58708e-06
-8.01121e-06
-1.1734e-05
-1.27661e-05
-1.37512e-05
-1.43495e-05
-1.47884e-05
-1.50595e-05
-1.52013e-05
-1.52147e-05
-1.50992e-05
-1.48535e-05
-1.44375e-05
-1.38605e-05
-1.28893e-05
-1.1887e-05
-8.18151e-06
-6.90244e-06
-5.97668e-06
-5.44157e-06
-5.1516e-06
-5.12116e-06
-5.32305e-06
-5.65271e-06
-6.03335e-06
-5.18568e-06
-4.85189e-06
-4.55792e-06
-4.34761e-06
-4.3161e-06
-4.48338e-06
-4.86782e-06
-5.47351e-06
-6.31427e-06
-8.46051e-06
-6.66552e-06
-1.43358e-05
-1.53155e-05
-1.67364e-05
-1.75098e-05
-1.80869e-05
-1.84419e-05
-1.86243e-05
-1.86381e-05
-1.84829e-05
-1.81544e-05
-1.76009e-05
-1.68498e-05
-1.54388e-05
-1.4512e-05
-6.75149e-06
-8.73822e-06
-6.65272e-06
-5.96267e-06
-5.54432e-06
-5.42599e-06
-5.60357e-06
-5.95286e-06
-6.41485e-06
-5.40766e-06
-5.01718e-06
-4.69745e-06
-4.48848e-06
-4.50357e-06
-4.76179e-06
-5.23914e-06
-5.78098e-06
-6.30236e-06
-4.32798e-06
-2.10174e-05
-1.87014e-05
-1.95312e-05
-2.01918e-05
-2.07748e-05
-2.11596e-05
-2.13549e-05
-2.13688e-05
-2.12008e-05
-2.08426e-05
-2.02834e-05
-1.96412e-05
-1.88151e-05
-2.10644e-05
-4.90468e-06
-6.76366e-06
-6.30352e-06
-5.93023e-06
-5.74327e-06
-5.88658e-06
-6.25764e-06
-6.81851e-06
-5.63298e-06
-5.18288e-06
-4.83902e-06
-4.64091e-06
-4.73418e-06
-5.18082e-06
-6.07102e-06
-7.52379e-06
-9.8822e-06
-1.28029e-05
-1.90564e-05
-1.77661e-05
-2.00528e-05
-2.15993e-05
-2.27286e-05
-2.35767e-05
-2.40981e-05
-2.43469e-05
-2.43608e-05
-2.414e-05
-2.36468e-05
-2.28273e-05
-2.17278e-05
-2.02168e-05
-1.79636e-05
-1.93311e-05
-1.30624e-05
-1.02e-05
-7.95917e-06
-6.71932e-06
-6.16921e-06
-6.1953e-06
-6.5643e-06
-7.23511e-06
-5.84808e-06
-5.33928e-06
-4.96591e-06
-4.76611e-06
-4.90574e-06
-5.45757e-06
-6.51335e-06
-8.13743e-06
-1.03945e-05
-1.2944e-05
-1.71774e-05
-1.93936e-05
-2.12574e-05
-2.28661e-05
-2.41314e-05
-2.50373e-05
-2.55995e-05
-2.58691e-05
-2.58827e-05
-2.56405e-05
-2.51058e-05
-2.42273e-05
-2.29901e-05
-2.1405e-05
-1.95548e-05
-1.73876e-05
-1.31982e-05
-1.0681e-05
-8.53599e-06
-7.14113e-06
-6.4633e-06
-6.44615e-06
-6.8356e-06
-7.63878e-06
-6.04522e-06
-5.4838e-06
-5.08035e-06
-4.87236e-06
-5.03998e-06
-5.66046e-06
-6.82521e-06
-8.59447e-06
-1.10211e-05
-1.39233e-05
-1.73831e-05
-1.9923e-05
-2.211e-05
-2.38427e-05
-2.51734e-05
-2.60796e-05
-2.66342e-05
-2.68965e-05
-2.69097e-05
-2.66739e-05
-2.61462e-05
-2.5267e-05
-2.39643e-05
-2.22561e-05
-2.00955e-05
-1.75738e-05
-1.41272e-05
-1.12668e-05
-8.9627e-06
-7.4424e-06
-6.69218e-06
-6.66389e-06
-7.09223e-06
-7.9937e-06
-6.21604e-06
-5.6101e-06
-5.17608e-06
-4.95122e-06
-5.12427e-06
-5.77164e-06
-6.97806e-06
-8.79621e-06
-1.12497e-05
-1.41779e-05
-1.74049e-05
-2.02115e-05
-2.26118e-05
-2.43994e-05
-2.57442e-05
-2.66278e-05
-2.71599e-05
-2.74083e-05
-2.74212e-05
-2.7199e-05
-2.66933e-05
-2.58362e-05
-2.45192e-05
-2.27551e-05
-2.03796e-05
-1.75804e-05
-1.43626e-05
-1.14758e-05
-9.15118e-06
-7.59935e-06
-6.83924e-06
-6.83249e-06
-7.30821e-06
-8.29336e-06
-6.35649e-06
-5.71575e-06
-5.25499e-06
-5.01179e-06
-5.18084e-06
-5.83706e-06
-7.05958e-06
-8.89725e-06
-1.13606e-05
-1.43077e-05
-1.75001e-05
-2.04404e-05
-2.29482e-05
-2.47757e-05
-2.6126e-05
-2.69886e-05
-2.74991e-05
-2.77338e-05
-2.7747e-05
-2.75388e-05
-2.70551e-05
-2.62196e-05
-2.48977e-05
-2.30936e-05
-2.06092e-05
-1.767e-05
-1.44833e-05
-1.15776e-05
-9.24921e-06
-7.69268e-06
-6.94256e-06
-6.96503e-06
-7.48306e-06
-8.53516e-06
-6.46355e-06
-5.79771e-06
-5.31581e-06
-5.05596e-06
-5.21697e-06
-5.87264e-06
-7.09881e-06
-8.94384e-06
-1.14138e-05
-1.43818e-05
-1.75915e-05
-2.0605e-05
-2.31845e-05
-2.5042e-05
-2.63976e-05
-2.72491e-05
-2.77471e-05
-2.79741e-05
-2.7988e-05
-2.77889e-05
-2.7319e-05
-2.6496e-05
-2.51702e-05
-2.33378e-05
-2.07846e-05
-1.77646e-05
-1.4556e-05
-1.16289e-05
-9.29876e-06
-7.74628e-06
-7.01188e-06
-7.06214e-06
-7.6134e-06
-8.71636e-06
-6.53618e-06
-5.85494e-06
-5.35936e-06
-5.08823e-06
-5.24328e-06
-5.89813e-06
-7.12761e-06
-8.98079e-06
-1.14627e-05
-1.44537e-05
-1.76897e-05
-2.07379e-05
-2.33772e-05
-2.52614e-05
-2.6627e-05
-2.74783e-05
-2.79735e-05
-2.81986e-05
-2.82136e-05
-2.80186e-05
-2.75537e-05
-2.67329e-05
-2.53991e-05
-2.35435e-05
-2.09473e-05
-1.78717e-05
-1.46309e-05
-1.16795e-05
-9.34024e-06
-7.78689e-06
-7.06149e-06
-7.12938e-06
-7.70113e-06
-8.83727e-06
-6.57418e-06
-5.88691e-06
-5.38569e-06
-5.10995e-06
-5.26313e-06
-5.91954e-06
-7.15482e-06
-9.01918e-06
-1.15183e-05
-1.45333e-05
-1.7797e-05
-2.0873e-05
-2.35394e-05
-2.54424e-05
-2.68206e-05
-2.76805e-05
-2.81811e-05
-2.84095e-05
-2.84259e-05
-2.82306e-05
-2.7763e-05
-2.69359e-05
-2.55911e-05
-2.37176e-05
-2.10976e-05
-1.7987e-05
-1.47152e-05
-1.17385e-05
-9.38293e-06
-7.82137e-06
-7.09524e-06
-7.1684e-06
-7.74775e-06
-8.89805e-06
-6.57802e-06
-5.89404e-06
-5.39515e-06
-5.1214e-06
-5.27681e-06
-5.93712e-06
-7.18028e-06
-9.05792e-06
-1.15783e-05
-1.46179e-05
-1.79114e-05
-2.1003e-05
-2.36713e-05
-2.55848e-05
-2.69762e-05
-2.7852e-05
-2.83652e-05
-2.86015e-05
-2.86197e-05
-2.84198e-05
-2.79427e-05
-2.71024e-05
-2.57459e-05
-2.38617e-05
-2.12332e-05
-1.81093e-05
-1.48063e-05
-1.18036e-05
-9.42563e-06
-7.84947e-06
-7.11356e-06
-7.18011e-06
-7.75474e-06
-8.89947e-06
-6.5493e-06
-5.878e-06
-5.38864e-06
-5.12196e-06
-5.28111e-06
-5.94395e-06
-7.19303e-06
-9.08294e-06
-1.16288e-05
-1.46965e-05
-1.80369e-05
-2.11426e-05
-2.37742e-05
-2.56874e-05
-2.70921e-05
-2.79912e-05
-2.85243e-05
-2.87733e-05
-2.87937e-05
-2.85854e-05
-2.80921e-05
-2.72317e-05
-2.58633e-05
-2.39773e-05
-2.13656e-05
-1.82431e-05
-1.48957e-05
-1.18643e-05
-9.45881e-06
-7.86524e-06
-7.11437e-06
-7.16535e-06
-7.72374e-06
-8.84431e-06
-6.49018e-06
-5.84082e-06
-5.36627e-06
-5.10815e-06
-5.26654e-06
-5.92113e-06
-7.16059e-06
-9.04546e-06
-1.16069e-05
-1.47027e-05
-1.81505e-05
-2.12349e-05
-2.3807e-05
-2.57013e-05
-2.71098e-05
-2.80352e-05
-2.85935e-05
-2.88594e-05
-2.88825e-05
-2.86629e-05
-2.81495e-05
-2.72673e-05
-2.58981e-05
-2.40322e-05
-2.14759e-05
-1.83709e-05
-1.49204e-05
-1.18627e-05
-9.43971e-06
-7.84272e-06
-7.0855e-06
-7.121e-06
-7.65518e-06
-8.73522e-06
-6.40527e-06
-5.78693e-06
-5.33109e-06
-5.08082e-06
-5.23022e-06
-5.8593e-06
-7.06263e-06
-8.90995e-06
-1.1475e-05
-1.4606e-05
-1.83276e-05
-2.13152e-05
-2.37446e-05
-2.56046e-05
-2.70059e-05
-2.79577e-05
-2.85415e-05
-2.8825e-05
-2.88524e-05
-2.8624e-05
-2.80938e-05
-2.71944e-05
-2.58395e-05
-2.40137e-05
-2.15915e-05
-1.8578e-05
-1.48719e-05
-1.1777e-05
-9.34358e-06
-7.77052e-06
-7.02586e-06
-7.05255e-06
-7.55809e-06
-8.57722e-06
-6.29979e-06
-5.71963e-06
-5.28247e-06
-5.033e-06
-5.15342e-06
-5.71777e-06
-6.81563e-06
-8.5065e-06
-1.08458e-05
-1.35667e-05
-1.8324e-05
-2.16537e-05
-2.35307e-05
-2.52252e-05
-2.65555e-05
-2.75073e-05
-2.8104e-05
-2.84014e-05
-2.84352e-05
-2.8206e-05
-2.76765e-05
-2.67931e-05
-2.55241e-05
-2.38847e-05
-2.20354e-05
-1.86097e-05
-1.38725e-05
-1.12032e-05
-9.00492e-06
-7.57437e-06
-6.9038e-06
-6.9515e-06
-7.4464e-06
-8.36406e-06
-6.18394e-06
-5.64709e-06
-5.23013e-06
-4.97967e-06
-5.06151e-06
-5.54101e-06
-6.51732e-06
-8.12305e-06
-1.07303e-05
-1.41683e-05
-1.96717e-05
-2.01262e-05
-2.28145e-05
-2.47391e-05
-2.60259e-05
-2.69788e-05
-2.75736e-05
-2.78736e-05
-2.79193e-05
-2.7713e-05
-2.72117e-05
-2.63558e-05
-2.51484e-05
-2.32963e-05
-2.06336e-05
-1.99164e-05
-1.47192e-05
-1.12815e-05
-8.76396e-06
-7.36561e-06
-6.76512e-06
-6.84062e-06
-7.31861e-06
-8.14756e-06
-6.06546e-06
-5.57224e-06
-5.1723e-06
-4.91202e-06
-4.92651e-06
-5.22788e-06
-5.75754e-06
-6.26197e-06
-6.65965e-06
-3.61048e-06
-2.63781e-05
-2.30194e-05
-2.38981e-05
-2.4662e-05
-2.53585e-05
-2.58428e-05
-2.61115e-05
-2.61708e-05
-2.60255e-05
-2.5669e-05
-2.51153e-05
-2.44703e-05
-2.37289e-05
-2.70369e-05
-4.12179e-06
-7.30415e-06
-7.00532e-06
-6.70137e-06
-6.50158e-06
-6.68863e-06
-7.17398e-06
-7.92693e-06
-5.95897e-06
-5.50733e-06
-5.13181e-06
-4.88192e-06
-4.88867e-06
-5.19529e-06
-5.87141e-06
-7.01048e-06
-8.87003e-06
-1.1883e-05
-1.26184e-05
-1.85841e-05
-2.04928e-05
-2.23335e-05
-2.35218e-05
-2.44278e-05
-2.5018e-05
-2.53473e-05
-2.54272e-05
-2.5267e-05
-2.4856e-05
-2.41544e-05
-2.31312e-05
-2.15163e-05
-1.96706e-05
-1.42628e-05
-1.32505e-05
-1.00518e-05
-8.05645e-06
-6.95421e-06
-6.50948e-06
-6.61962e-06
-7.05313e-06
-7.73719e-06
-5.87114e-06
-5.4571e-06
-5.10729e-06
-4.87034e-06
-4.86489e-06
-5.13069e-06
-5.71271e-06
-6.64523e-06
-7.94289e-06
-9.60103e-06
-1.30317e-05
-1.71799e-05
-1.89949e-05
-2.06983e-05
-2.19332e-05
-2.28819e-05
-2.34978e-05
-2.38457e-05
-2.39396e-05
-2.37941e-05
-2.33979e-05
-2.27119e-05
-2.16831e-05
-2.02528e-05
-1.84997e-05
-1.45669e-05
-1.08225e-05
-9.09911e-06
-7.73809e-06
-6.84381e-06
-6.45214e-06
-6.54685e-06
-6.94459e-06
-7.56901e-06
-5.8115e-06
-5.43464e-06
-5.11865e-06
-4.90714e-06
-4.90597e-06
-5.15429e-06
-5.70416e-06
-6.62027e-06
-8.00139e-06
-9.8935e-06
-1.23145e-05
-1.5196e-05
-1.72829e-05
-1.905e-05
-2.03423e-05
-2.13342e-05
-2.19701e-05
-2.23259e-05
-2.24242e-05
-2.22838e-05
-2.1888e-05
-2.11972e-05
-2.01517e-05
-1.87058e-05
-1.67622e-05
-1.39867e-05
-1.14408e-05
-9.35234e-06
-7.81717e-06
-6.87495e-06
-6.46456e-06
-6.52651e-06
-6.88022e-06
-7.45782e-06
-5.77998e-06
-5.44761e-06
-5.1756e-06
-5.0005e-06
-5.01229e-06
-5.24368e-06
-5.73842e-06
-6.55072e-06
-7.7425e-06
-9.35694e-06
-1.13716e-05
-1.36197e-05
-1.55632e-05
-1.72613e-05
-1.85205e-05
-1.94732e-05
-2.00801e-05
-2.04187e-05
-2.05154e-05
-2.03904e-05
-2.00258e-05
-1.93844e-05
-1.83981e-05
-1.70452e-05
-1.52406e-05
-1.30369e-05
-1.08868e-05
-9.09144e-06
-7.75559e-06
-6.90585e-06
-6.5223e-06
-6.56101e-06
-6.86873e-06
-7.39928e-06
-5.79203e-06
-5.50628e-06
-5.29329e-06
-5.17249e-06
-5.21583e-06
-5.44741e-06
-5.89778e-06
-6.60444e-06
-7.60844e-06
-8.92818e-06
-1.05293e-05
-1.22976e-05
-1.39547e-05
-1.54544e-05
-1.65971e-05
-1.74564e-05
-1.80095e-05
-1.83197e-05
-1.84119e-05
-1.83041e-05
-1.79801e-05
-1.74094e-05
-1.65343e-05
-1.53481e-05
-1.38085e-05
-1.20678e-05
-1.03596e-05
-8.89306e-06
-7.77285e-06
-7.03799e-06
-6.68436e-06
-6.68718e-06
-6.92963e-06
-7.39539e-06
-5.83615e-06
-5.61228e-06
-5.47859e-06
-5.43588e-06
-5.53402e-06
-5.78924e-06
-6.2228e-06
-6.85711e-06
-7.71967e-06
-8.80556e-06
-1.00809e-05
-1.14721e-05
-1.2822e-05
-1.40576e-05
-1.50254e-05
-1.57578e-05
-1.6239e-05
-1.65127e-05
-1.65973e-05
-1.6506e-05
-1.62272e-05
-1.57399e-05
-1.50054e-05
-1.40263e-05
-1.27895e-05
-1.14308e-05
-1.00936e-05
-8.91516e-06
-7.98267e-06
-7.33686e-06
-6.98783e-06
-6.92547e-06
-7.06925e-06
-7.44577e-06
-5.89405e-06
-5.74344e-06
-5.69155e-06
-5.73078e-06
-5.89594e-06
-6.20217e-06
-6.66342e-06
-7.29326e-06
-8.08854e-06
-9.04816e-06
-1.01459e-05
-1.13214e-05
-1.24662e-05
-1.35144e-05
-1.436e-05
-1.5009e-05
-1.54488e-05
-1.57035e-05
-1.57839e-05
-1.56982e-05
-1.54394e-05
-1.49963e-05
-1.43484e-05
-1.35043e-05
-1.24698e-05
-1.13444e-05
-1.02227e-05
-9.21905e-06
-8.39003e-06
-7.77441e-06
-7.39022e-06
-7.23856e-06
-7.27384e-06
-7.51541e-06
-5.94318e-06
-5.88243e-06
-5.90336e-06
-6.01282e-06
-6.24536e-06
-6.61788e-06
-7.14802e-06
-7.84777e-06
-8.71893e-06
-9.74688e-06
-1.08822e-05
-1.20664e-05
-1.32159e-05
-1.42695e-05
-1.51432e-05
-1.58267e-05
-1.63029e-05
-1.65812e-05
-1.66671e-05
-1.65651e-05
-1.62715e-05
-1.5781e-05
-1.50871e-05
-1.42066e-05
-1.31612e-05
-1.2036e-05
-1.09153e-05
-9.87428e-06
-8.99103e-06
-8.30881e-06
-7.84258e-06
-7.58802e-06
-7.50563e-06
-7.59029e-06
-4.52208e-06
-4.52456e-06
-4.53521e-06
-4.55569e-06
-4.58743e-06
-4.64215e-06
-4.7215e-06
-4.82684e-06
-4.95709e-06
-5.10957e-06
-5.27657e-06
-5.45137e-06
-5.62186e-06
-5.78209e-06
-5.91842e-06
-6.02799e-06
-6.10784e-06
-6.15683e-06
-6.1743e-06
-6.1604e-06
-6.11613e-06
-6.04289e-06
-5.94391e-06
-5.82232e-06
-5.69278e-06
-5.56099e-06
-5.43881e-06
-5.33233e-06
-5.24834e-06
-5.18813e-06
-5.15244e-06
-5.12576e-06
-5.10847e-06
-5.09662e-06
-4.48354e-06
-4.46236e-06
-4.45258e-06
-4.44803e-06
-4.46016e-06
-4.49321e-06
-4.54909e-06
-4.62768e-06
-4.72546e-06
-4.8392e-06
-4.95929e-06
-5.08316e-06
-5.20075e-06
-5.31061e-06
-5.40708e-06
-5.48722e-06
-5.54687e-06
-5.58546e-06
-5.60226e-06
-5.59742e-06
-5.572e-06
-5.52689e-06
-5.46677e-06
-5.39502e-06
-5.31652e-06
-5.23345e-06
-5.15632e-06
-5.08751e-06
-5.0365e-06
-5.00583e-06
-4.99704e-06
-5.00604e-06
-5.01913e-06
-5.04004e-06
-4.47021e-06
-4.44376e-06
-4.4242e-06
-4.39997e-06
-4.39623e-06
-4.4193e-06
-4.47277e-06
-4.55788e-06
-4.67045e-06
-4.80997e-06
-4.95985e-06
-5.12207e-06
-5.26768e-06
-5.40255e-06
-5.51287e-06
-5.60236e-06
-5.66648e-06
-5.70698e-06
-5.72331e-06
-5.71559e-06
-5.6847e-06
-5.62919e-06
-5.55413e-06
-5.45605e-06
-5.34912e-06
-5.22791e-06
-5.1228e-06
-5.03198e-06
-4.97298e-06
-4.94596e-06
-4.95197e-06
-4.98439e-06
-5.00853e-06
-5.03156e-06
-4.48122e-06
-4.44208e-06
-4.40693e-06
-4.36117e-06
-4.34324e-06
-4.36321e-06
-4.42793e-06
-4.54227e-06
-4.70248e-06
-4.91446e-06
-5.14865e-06
-5.41614e-06
-5.64352e-06
-5.85005e-06
-6.00751e-06
-6.13059e-06
-6.21384e-06
-6.26344e-06
-6.27918e-06
-6.26112e-06
-6.20977e-06
-6.11918e-06
-5.99548e-06
-5.82427e-06
-5.63522e-06
-5.40949e-06
-5.22369e-06
-5.06672e-06
-4.97051e-06
-4.92889e-06
-4.941e-06
-4.99423e-06
-5.03384e-06
-5.0682e-06
-4.53137e-06
-4.47577e-06
-4.42685e-06
-4.36649e-06
-4.34487e-06
-4.37683e-06
-4.4738e-06
-4.64705e-06
-4.89461e-06
-5.23687e-06
-5.62252e-06
-6.08875e-06
-6.46161e-06
-6.79415e-06
-7.03398e-06
-7.2168e-06
-7.33472e-06
-7.40134e-06
-7.41663e-06
-7.38054e-06
-7.29339e-06
-7.14158e-06
-6.93399e-06
-6.63521e-06
-6.30048e-06
-5.877e-06
-5.54483e-06
-5.26516e-06
-5.09365e-06
-5.00946e-06
-5.00858e-06
-5.06906e-06
-5.11931e-06
-5.17047e-06
-4.62373e-06
-4.54695e-06
-4.48628e-06
-4.41899e-06
-4.40515e-06
-4.46467e-06
-4.61402e-06
-4.87274e-06
-5.24173e-06
-5.76921e-06
-6.37712e-06
-7.17391e-06
-7.75794e-06
-8.27314e-06
-8.62759e-06
-8.89498e-06
-9.06198e-06
-9.15337e-06
-9.16841e-06
-9.10691e-06
-8.96976e-06
-8.73193e-06
-8.408e-06
-7.92438e-06
-7.37792e-06
-6.62422e-06
-6.07674e-06
-5.61986e-06
-5.33997e-06
-5.18791e-06
-5.15613e-06
-5.21109e-06
-5.26785e-06
-5.34466e-06
-4.75523e-06
-4.65468e-06
-4.58445e-06
-4.51692e-06
-4.52095e-06
-4.62041e-06
-4.83554e-06
-5.19419e-06
-5.69946e-06
-6.4596e-06
-7.35074e-06
-8.69172e-06
-9.53068e-06
-1.02604e-05
-1.07362e-05
-1.10954e-05
-1.13138e-05
-1.14322e-05
-1.14472e-05
-1.13585e-05
-1.11693e-05
-1.08382e-05
-1.03909e-05
-9.68938e-06
-8.88706e-06
-7.58787e-06
-6.76831e-06
-6.08638e-06
-5.68335e-06
-5.4495e-06
-5.37545e-06
-5.41718e-06
-5.4793e-06
-5.58855e-06
-4.92834e-06
-4.79499e-06
-4.71744e-06
-4.65735e-06
-4.69194e-06
-4.8466e-06
-5.14198e-06
-5.60468e-06
-6.23773e-06
-7.18562e-06
-8.39672e-06
-1.06595e-05
-1.17206e-05
-1.26822e-05
-1.32876e-05
-1.37578e-05
-1.40408e-05
-1.41933e-05
-1.42086e-05
-1.40859e-05
-1.3832e-05
-1.33886e-05
-1.28093e-05
-1.18707e-05
-1.08427e-05
-8.61447e-06
-7.49596e-06
-6.62995e-06
-6.11199e-06
-5.79239e-06
-5.66408e-06
-5.68322e-06
-5.74745e-06
-5.9003e-06
-5.13443e-06
-4.95905e-06
-4.87403e-06
-4.8254e-06
-4.89732e-06
-5.1115e-06
-5.48017e-06
-6.01461e-06
-6.64028e-06
-7.62615e-06
-9.06471e-06
-1.33473e-05
-1.4169e-05
-1.51636e-05
-1.58068e-05
-1.6322e-05
-1.66284e-05
-1.67972e-05
-1.68125e-05
-1.66736e-05
-1.63961e-05
-1.59064e-05
-1.52868e-05
-1.43057e-05
-1.35118e-05
-9.2532e-06
-7.97046e-06
-7.04638e-06
-6.54075e-06
-6.16415e-06
-5.9885e-06
-5.98549e-06
-6.05386e-06
-6.26176e-06
-5.36657e-06
-5.14076e-06
-5.05389e-06
-5.03151e-06
-5.16949e-06
-5.48774e-06
-5.99992e-06
-6.6412e-06
-7.35998e-06
-9.2718e-06
-6.27502e-06
-1.53689e-05
-1.61346e-05
-1.74273e-05
-1.81868e-05
-1.88476e-05
-1.92257e-05
-1.94275e-05
-1.94426e-05
-1.92703e-05
-1.89213e-05
-1.82861e-05
-1.75495e-05
-1.62648e-05
-1.55512e-05
-6.34314e-06
-9.55646e-06
-7.72147e-06
-7.15638e-06
-6.69232e-06
-6.4039e-06
-6.34086e-06
-6.39514e-06
-6.67866e-06
-5.61233e-06
-5.32646e-06
-5.23493e-06
-5.23821e-06
-5.44144e-06
-5.85758e-06
-6.46751e-06
-7.08632e-06
-7.28829e-06
-3.60746e-06
-2.18889e-05
-1.84214e-05
-1.90339e-05
-1.96732e-05
-2.0201e-05
-2.05455e-05
-2.07313e-05
-2.07456e-05
-2.05876e-05
-2.027e-05
-1.97661e-05
-1.91461e-05
-1.85349e-05
-2.19057e-05
-4.26769e-06
-7.76038e-06
-7.62414e-06
-7.17065e-06
-6.80393e-06
-6.6857e-06
-6.73375e-06
-7.122e-06
-5.86274e-06
-5.5141e-06
-5.42755e-06
-5.48203e-06
-5.81334e-06
-6.48067e-06
-7.58009e-06
-9.15638e-06
-1.16813e-05
-1.41761e-05
-2.00475e-05
-1.7165e-05
-1.89097e-05
-2.0311e-05
-2.134e-05
-2.19955e-05
-2.2427e-05
-2.26473e-05
-2.2661e-05
-2.24679e-05
-2.20635e-05
-2.14344e-05
-2.04321e-05
-1.90616e-05
-1.73452e-05
-2.03067e-05
-1.43948e-05
-1.19698e-05
-9.58771e-06
-8.21899e-06
-7.40783e-06
-7.0939e-06
-7.08101e-06
-7.58196e-06
-6.10213e-06
-5.69112e-06
-5.59941e-06
-5.682e-06
-6.08841e-06
-6.88423e-06
-8.16255e-06
-9.9083e-06
-1.22547e-05
-1.43828e-05
-1.79717e-05
-1.87912e-05
-1.96874e-05
-2.06169e-05
-2.14533e-05
-2.20712e-05
-2.25061e-05
-2.273e-05
-2.27429e-05
-2.25444e-05
-2.21339e-05
-2.15375e-05
-2.07198e-05
-1.98e-05
-1.89024e-05
-1.81321e-05
-1.45918e-05
-1.25125e-05
-1.03021e-05
-8.77874e-06
-7.81796e-06
-7.42261e-06
-7.39626e-06
-8.0169e-06
-6.32213e-06
-5.85747e-06
-5.76125e-06
-5.86896e-06
-6.34292e-06
-7.25575e-06
-8.69803e-06
-1.0645e-05
-1.31306e-05
-1.56305e-05
-1.83554e-05
-1.961e-05
-2.05724e-05
-2.14146e-05
-2.22025e-05
-2.27888e-05
-2.32058e-05
-2.34183e-05
-2.34307e-05
-2.32425e-05
-2.28487e-05
-2.22823e-05
-2.15114e-05
-2.06765e-05
-1.97227e-05
-1.84832e-05
-1.57863e-05
-1.33463e-05
-1.10036e-05
-9.29747e-06
-8.20278e-06
-7.73593e-06
-7.69778e-06
-8.41123e-06
-6.51232e-06
-6.0031e-06
-5.89652e-06
-6.01192e-06
-6.51814e-06
-7.48715e-06
-8.99774e-06
-1.10197e-05
-1.35169e-05
-1.60967e-05
-1.86029e-05
-2.01095e-05
-2.12028e-05
-2.20219e-05
-2.2789e-05
-2.33509e-05
-2.37536e-05
-2.39573e-05
-2.39695e-05
-2.37899e-05
-2.341e-05
-2.2867e-05
-2.21159e-05
-2.13017e-05
-2.02168e-05
-1.87131e-05
-1.62318e-05
-1.37155e-05
-1.13669e-05
-9.60181e-06
-8.46461e-06
-7.98042e-06
-7.95432e-06
-8.74277e-06
-6.66829e-06
-6.12589e-06
-6.00949e-06
-6.12692e-06
-6.65229e-06
-7.65694e-06
-9.21115e-06
-1.12837e-05
-1.3799e-05
-1.64251e-05
-1.88782e-05
-2.05195e-05
-2.1688e-05
-2.25279e-05
-2.33012e-05
-2.38539e-05
-2.42477e-05
-2.44449e-05
-2.44575e-05
-2.42852e-05
-2.39149e-05
-2.33817e-05
-2.2625e-05
-2.17885e-05
-2.06235e-05
-1.89819e-05
-1.65514e-05
-1.39899e-05
-1.1629e-05
-9.82739e-06
-8.66853e-06
-8.18021e-06
-8.16747e-06
-9.00868e-06
-6.78652e-06
-6.22099e-06
-6.0954e-06
-6.20986e-06
-6.7421e-06
-7.76272e-06
-9.3368e-06
-1.14345e-05
-1.39622e-05
-1.66247e-05
-1.90848e-05
-2.08214e-05
-2.20294e-05
-2.28896e-05
-2.36718e-05
-2.4222e-05
-2.46128e-05
-2.48074e-05
-2.48209e-05
-2.46528e-05
-2.42873e-05
-2.37581e-05
-2.2994e-05
-2.21358e-05
-2.09164e-05
-1.91886e-05
-1.67506e-05
-1.41534e-05
-1.17852e-05
-9.96929e-06
-8.80711e-06
-8.32555e-06
-8.32754e-06
-9.20549e-06
-6.86619e-06
-6.28729e-06
-6.15576e-06
-6.26744e-06
-6.80276e-06
-7.83246e-06
-9.41965e-06
-1.1536e-05
-1.40805e-05
-1.67742e-05
-1.92596e-05
-2.10641e-05
-2.22874e-05
-2.31644e-05
-2.39569e-05
-2.45109e-05
-2.49032e-05
-2.50985e-05
-2.51132e-05
-2.4947e-05
-2.45823e-05
-2.40518e-05
-2.3279e-05
-2.24029e-05
-2.1153e-05
-1.93676e-05
-1.69045e-05
-1.42763e-05
-1.18943e-05
-1.00666e-05
-8.90177e-06
-8.42495e-06
-8.43599e-06
-9.33541e-06
-6.90716e-06
-6.32396e-06
-6.1902e-06
-6.30045e-06
-6.83683e-06
-7.87086e-06
-9.46653e-06
-1.15966e-05
-1.41601e-05
-1.68797e-05
-1.93945e-05
-2.12444e-05
-2.24689e-05
-2.33577e-05
-2.41596e-05
-2.47211e-05
-2.51186e-05
-2.53172e-05
-2.53335e-05
-2.51671e-05
-2.48004e-05
-2.4265e-05
-2.34847e-05
-2.25959e-05
-2.13295e-05
-1.95104e-05
-1.70181e-05
-1.43634e-05
-1.19635e-05
-1.01247e-05
-8.95534e-06
-8.47899e-06
-8.4927e-06
-9.39996e-06
-6.90996e-06
-6.33153e-06
-6.1992e-06
-6.30932e-06
-6.84462e-06
-7.87811e-06
-9.47694e-06
-1.1615e-05
-1.41987e-05
-1.69393e-05
-1.94854e-05
-2.13292e-05
-2.25746e-05
-2.34731e-05
-2.42823e-05
-2.4854e-05
-2.52593e-05
-2.54635e-05
-2.54818e-05
-2.53136e-05
-2.49425e-05
-2.44002e-05
-2.36152e-05
-2.27212e-05
-2.14539e-05
-1.96187e-05
-1.70905e-05
-1.44128e-05
-1.19919e-05
-1.01435e-05
-8.96858e-06
-8.48891e-06
-8.49913e-06
-9.40041e-06
-6.87624e-06
-6.31225e-06
-6.18463e-06
-6.2948e-06
-6.82507e-06
-7.85035e-06
-9.44421e-06
-1.15817e-05
-1.41879e-05
-1.6945e-05
-1.95432e-05
-2.13587e-05
-2.26115e-05
-2.3516e-05
-2.43316e-05
-2.49177e-05
-2.53342e-05
-2.55468e-05
-2.55676e-05
-2.5396e-05
-2.50181e-05
-2.44654e-05
-2.36768e-05
-2.27814e-05
-2.15235e-05
-1.96984e-05
-1.71158e-05
-1.44197e-05
-1.19744e-05
-1.01211e-05
-8.94247e-06
-8.45799e-06
-8.45922e-06
-9.33882e-06
-6.80811e-06
-6.26833e-06
-6.14603e-06
-6.2513e-06
-6.76401e-06
-7.76008e-06
-9.3219e-06
-1.14278e-05
-1.40435e-05
-1.68104e-05
-1.95346e-05
-2.13217e-05
-2.2547e-05
-2.34462e-05
-2.42607e-05
-2.48623e-05
-2.52922e-05
-2.55157e-05
-2.55397e-05
-2.53636e-05
-2.49779e-05
-2.44152e-05
-2.36314e-05
-2.27461e-05
-2.15239e-05
-1.97146e-05
-1.70095e-05
-1.43043e-05
-1.18487e-05
-1.00186e-05
-8.85748e-06
-8.38024e-06
-8.37429e-06
-9.21628e-06
-6.71086e-06
-6.20634e-06
-6.09075e-06
-6.18729e-06
-6.67182e-06
-7.6204e-06
-9.12605e-06
-1.11715e-05
-1.37966e-05
-1.65283e-05
-1.95441e-05
-2.1284e-05
-2.23995e-05
-2.33322e-05
-2.41714e-05
-2.48036e-05
-2.52526e-05
-2.54901e-05
-2.55188e-05
-2.53385e-05
-2.49427e-05
-2.43596e-05
-2.35583e-05
-2.26486e-05
-2.15365e-05
-1.9763e-05
-1.67805e-05
-1.41095e-05
-1.16428e-05
-9.86027e-06
-8.73434e-06
-8.27395e-06
-8.25984e-06
-9.04066e-06
-6.59014e-06
-6.12895e-06
-6.0149e-06
-6.08689e-06
-6.50986e-06
-7.35023e-06
-8.69786e-06
-1.05333e-05
-1.29588e-05
-1.5242e-05
-1.93439e-05
-2.1389e-05
-2.21516e-05
-2.30948e-05
-2.39477e-05
-2.46004e-05
-2.50656e-05
-2.53181e-05
-2.53523e-05
-2.51686e-05
-2.47673e-05
-2.4178e-05
-2.33764e-05
-2.24807e-05
-2.17433e-05
-1.95925e-05
-1.55435e-05
-1.33408e-05
-1.10871e-05
-9.50049e-06
-8.5048e-06
-8.11384e-06
-8.11584e-06
-8.81623e-06
-6.45824e-06
-6.04847e-06
-5.94022e-06
-5.99227e-06
-6.35952e-06
-7.10252e-06
-8.31979e-06
-1.00421e-05
-1.27567e-05
-1.575e-05
-2.05522e-05
-1.96998e-05
-2.17607e-05
-2.34049e-05
-2.45176e-05
-2.52477e-05
-2.57398e-05
-2.60075e-05
-2.60528e-05
-2.58774e-05
-2.54706e-05
-2.48273e-05
-2.37792e-05
-2.22119e-05
-2.01838e-05
-2.07602e-05
-1.62693e-05
-1.33075e-05
-1.07341e-05
-9.22222e-06
-8.31419e-06
-7.97214e-06
-7.97523e-06
-8.57934e-06
-6.32311e-06
-5.96388e-06
-5.85252e-06
-5.86364e-06
-6.1224e-06
-6.6352e-06
-7.35742e-06
-7.99416e-06
-7.93555e-06
-2.56672e-06
-2.75271e-05
-2.24696e-05
-2.29709e-05
-2.35831e-05
-2.41373e-05
-2.4537e-05
-2.47767e-05
-2.48315e-05
-2.47053e-05
-2.44102e-05
-2.39713e-05
-2.34371e-05
-2.30501e-05
-2.80501e-05
-3.12793e-06
-8.64397e-06
-8.8404e-06
-8.3916e-06
-7.92894e-06
-7.75969e-06
-7.81308e-06
-8.33398e-06
-6.20135e-06
-5.89079e-06
-5.79303e-06
-5.80407e-06
-6.05196e-06
-6.57596e-06
-7.43252e-06
-8.60796e-06
-1.03466e-05
-1.31214e-05
-1.2671e-05
-1.92151e-05
-2.05659e-05
-2.20787e-05
-2.30049e-05
-2.38291e-05
-2.43581e-05
-2.46688e-05
-2.47406e-05
-2.45792e-05
-2.41834e-05
-2.35028e-05
-2.26323e-05
-2.12844e-05
-2.00169e-05
-1.42824e-05
-1.43882e-05
-1.15446e-05
-9.71074e-06
-8.59276e-06
-7.91659e-06
-7.67364e-06
-7.683e-06
-8.12583e-06
-6.09923e-06
-5.82918e-06
-5.74211e-06
-5.74778e-06
-5.9639e-06
-6.43045e-06
-7.19014e-06
-8.24843e-06
-9.58395e-06
-1.11063e-05
-1.43027e-05
-1.83797e-05
-1.94145e-05
-2.05094e-05
-2.1316e-05
-2.20778e-05
-2.2586e-05
-2.2899e-05
-2.29807e-05
-2.28397e-05
-2.24777e-05
-2.18732e-05
-2.10789e-05
-2.00744e-05
-1.91716e-05
-1.5546e-05
-1.22109e-05
-1.07394e-05
-9.40255e-06
-8.40456e-06
-7.78864e-06
-7.55503e-06
-7.55374e-06
-7.95196e-06
-6.02809e-06
-5.79467e-06
-5.7281e-06
-5.74789e-06
-5.96316e-06
-6.41924e-06
-7.16857e-06
-8.24148e-06
-9.68891e-06
-1.14902e-05
-1.37581e-05
-1.63073e-05
-1.76547e-05
-1.87794e-05
-1.96239e-05
-2.0417e-05
-2.09421e-05
-2.12605e-05
-2.1345e-05
-2.12068e-05
-2.08376e-05
-2.02289e-05
-1.93976e-05
-1.83524e-05
-1.71354e-05
-1.4958e-05
-1.27512e-05
-1.09428e-05
-9.46366e-06
-8.41519e-06
-7.77102e-06
-7.50548e-06
-7.47139e-06
-7.81962e-06
-5.99262e-06
-5.78967e-06
-5.74679e-06
-5.78495e-06
-5.99799e-06
-6.42721e-06
-7.11847e-06
-8.10179e-06
-9.39907e-06
-1.10108e-05
-1.28378e-05
-1.4755e-05
-1.60581e-05
-1.716e-05
-1.80273e-05
-1.87969e-05
-1.93086e-05
-1.96189e-05
-1.9705e-05
-1.95793e-05
-1.92322e-05
-1.8664e-05
-1.78529e-05
-1.68523e-05
-1.56585e-05
-1.40045e-05
-1.2254e-05
-1.06521e-05
-9.33291e-06
-8.36428e-06
-7.75504e-06
-7.48446e-06
-7.42894e-06
-7.73137e-06
-5.98062e-06
-5.81638e-06
-5.80534e-06
-5.87338e-06
-6.09655e-06
-6.50928e-06
-7.14717e-06
-8.03091e-06
-9.16526e-06
-1.05244e-05
-1.20079e-05
-1.35236e-05
-1.47157e-05
-1.57846e-05
-1.66458e-05
-1.73806e-05
-1.78844e-05
-1.81909e-05
-1.828e-05
-1.81639e-05
-1.78323e-05
-1.72918e-05
-1.65266e-05
-1.55959e-05
-1.44829e-05
-1.31615e-05
-1.17428e-05
-1.03965e-05
-9.24682e-06
-8.37502e-06
-7.80401e-06
-7.52446e-06
-7.44133e-06
-7.69171e-06
-5.99321e-06
-5.87051e-06
-5.89611e-06
-6.00203e-06
-6.24363e-06
-6.6483e-06
-7.24145e-06
-8.03541e-06
-9.02572e-06
-1.01815e-05
-1.14185e-05
-1.26696e-05
-1.37542e-05
-1.47322e-05
-1.55373e-05
-1.62169e-05
-1.66907e-05
-1.69792e-05
-1.70673e-05
-1.69638e-05
-1.66617e-05
-1.61692e-05
-1.54772e-05
-1.4641e-05
-1.36583e-05
-1.25457e-05
-1.13625e-05
-1.02217e-05
-9.22567e-06
-8.44607e-06
-7.91012e-06
-7.61701e-06
-7.50116e-06
-7.6911e-06
-6.01267e-06
-5.92427e-06
-5.96683e-06
-6.09827e-06
-6.35131e-06
-6.75552e-06
-7.32325e-06
-8.06222e-06
-8.96233e-06
-9.99605e-06
-1.11011e-05
-1.22185e-05
-1.32463e-05
-1.41762e-05
-1.49491e-05
-1.55841e-05
-1.60338e-05
-1.63066e-05
-1.63924e-05
-1.62962e-05
-1.60144e-05
-1.55545e-05
-1.49151e-05