/*--------------------------------*- C++ -*----------------------------------*\
| =========                 |                                                 |
| \\      /  F ield         | OpenFOAM: The Open Source CFD Toolbox           |
|  \\    /   O peration     | Version:  2112                                  |
|   \\  /    A nd           | Website:  www.openfoam.com                      |
|    \\/     M anipulation  |                                                 |
\*---------------------------------------------------------------------------*/
FoamFile
{
    version     2.0;
    format      ascii;
    arch        "LSB;label=32;scalar=64";
    class       surfaceScalarField;
    location    "4.7";
    object      phi;
}
// * * * * * * * * * * * * * * * * * * * * * * * * * * * * * * * * * * * * * //

dimensions      [0 3 -1 0 0 0 0];

oriented        oriented;

internalField   nonuniform List<scalar> 
188215
(
4.54173e-10
8.63191e-10
-1.31736e-09
2.43518e-09
-1.79609e-10
-1.8014e-09
5.40843e-09
-1.82687e-09
-1.14637e-09
8.91248e-09
-3.3548e-09
-1.49248e-10
1.25414e-08
-4.50758e-09
8.78684e-10
1.62051e-08
-5.27261e-09
1.60891e-09
1.98233e-08
-5.7138e-09
2.0956e-09
2.32346e-08
-5.83274e-09
2.42146e-09
2.62039e-08
-5.60014e-09
2.63077e-09
2.83075e-08
-4.84775e-09
2.74418e-09
2.92312e-08
-3.68499e-09
2.76126e-09
2.84864e-08
-1.95996e-09
2.70478e-09
2.61926e-08
-4.04107e-10
2.69794e-09
2.27395e-08
5.5913e-10
2.89395e-09
1.84698e-08
1.08794e-09
3.18182e-09
1.35708e-08
1.45022e-09
3.44874e-09
8.28698e-09
1.63815e-09
3.64567e-09
2.82477e-09
1.71181e-09
3.7504e-09
-2.61405e-09
1.68347e-09
3.75536e-09
-7.82896e-09
1.55326e-09
3.66164e-09
-1.26165e-08
1.31001e-09
3.47755e-09
-1.67422e-08
8.98526e-10
3.22712e-09
-2.00566e-08
3.4704e-10
2.9674e-09
-2.20579e-08
-8.48969e-10
2.8503e-09
-2.25593e-08
-2.35682e-09
2.85822e-09
-2.1388e-08
-4.07315e-09
2.90179e-09
-1.90512e-08
-5.16433e-09
2.82754e-09
-1.5872e-08
-5.74951e-09
2.57033e-09
-1.23025e-08
-5.63264e-09
2.06316e-09
-8.61247e-09
-4.88408e-09
1.19402e-09
-5.0197e-09
-3.44435e-09
-1.48414e-10
-2.1174e-09
-1.40194e-09
-1.50036e-09
-2.54187e-10
6.18002e-10
-2.48122e-09
1.7887e-09
-2.04289e-09
-2.01755e-09
5.74925e-09
-2.86851e-09
2.80625e-10
5.69235e-09
-8.17013e-09
4.02709e-09
4.50364e-09
-1.0077e-08
8.05676e-09
3.29178e-09
-1.06762e-08
1.20241e-08
2.69821e-09
-1.11732e-08
1.58865e-08
2.84748e-09
-1.19825e-08
1.96304e-08
3.81367e-09
-1.32713e-08
2.315e-08
5.75948e-09
-1.51118e-08
2.6216e-08
8.87066e-09
-1.75368e-08
2.83953e-08
1.35224e-08
-2.05495e-08
2.93105e-08
1.94285e-08
-2.40287e-08
2.84995e-08
2.65991e-08
-2.77479e-08
2.63881e-08
3.29174e-08
-3.12101e-08
2.29542e-08
3.82766e-08
-3.42836e-08
1.86243e-08
4.22195e-08
-3.68016e-08
1.36795e-08
4.5099e-08
-3.8704e-08
8.37142e-09
4.69213e-08
-3.99751e-08
2.89749e-09
4.78181e-08
-4.06323e-08
-2.55156e-09
4.78105e-08
-4.06779e-08
-7.78497e-09
4.68984e-08
-4.01117e-08
-1.26064e-08
4.50627e-08
-3.89312e-08
-1.67602e-08
4.21734e-08
-3.71211e-08
-1.99388e-08
3.82316e-08
-3.4706e-08
-2.18593e-08
3.28606e-08
-3.17891e-08
-2.24022e-08
2.66319e-08
-2.84458e-08
-2.11933e-08
1.962e-08
-2.49021e-08
-1.87059e-08
1.40187e-08
-2.16704e-08
-1.52924e-08
9.832e-09
-1.8995e-08
-1.13615e-08
7.44861e-09
-1.70121e-08
-7.12038e-09
6.5664e-09
-1.56916e-08
-2.74541e-09
7.01963e-09
-1.4839e-08
1.27534e-09
8.49778e-09
-1.39205e-08
3.41278e-09
9.87571e-09
-1.13951e-08
9.61247e-09
-4.41098e-09
-4.03465e-09
1.28094e-08
-3.02548e-09
-1.84975e-09
1.4017e-08
-1.05096e-08
2.41594e-09
1.36832e-08
-1.34452e-08
7.06397e-09
1.34071e-08
-1.47634e-08
1.16467e-08
1.40047e-08
-1.58892e-08
1.61299e-08
1.57282e-08
-1.73639e-08
2.057e-08
1.88261e-08
-1.94526e-08
2.49221e-08
2.37034e-08
-2.2296e-08
2.89465e-08
3.08093e-08
-2.5963e-08
3.20037e-08
4.09428e-08
-3.04776e-08
3.34605e-08
5.36397e-08
-3.56681e-08
3.23526e-08
6.89588e-08
-4.12518e-08
2.95041e-08
8.22847e-08
-4.65189e-08
2.52591e-08
9.3672e-08
-5.11504e-08
2.02381e-08
1.02168e-07
-5.49279e-08
1.46864e-08
1.08445e-07
-5.77943e-08
8.83938e-09
1.12483e-07
-5.97144e-08
2.8595e-09
1.14507e-07
-6.07096e-08
-3.09457e-09
1.14544e-07
-6.07791e-08
-8.86364e-09
1.1259e-07
-5.9923e-08
-1.42855e-08
1.08626e-07
-5.81419e-08
-1.91211e-08
1.02426e-07
-5.54175e-08
-2.31257e-08
9.40276e-08
-5.17914e-08
-2.5699e-08
8.27686e-08
-4.73347e-08
-2.64761e-08
6.96761e-08
-4.22672e-08
-2.46215e-08
5.4704e-08
-3.69386e-08
-2.11053e-08
4.25863e-08
-3.20838e-08
-1.64994e-08
3.3219e-08
-2.79929e-08
-1.13991e-08
2.71782e-08
-2.48299e-08
-6.03193e-09
2.36999e-08
-2.25006e-08
-6.15826e-10
2.22975e-08
-2.0694e-08
4.20906e-09
2.24167e-08
-1.87438e-08
6.20862e-09
2.26381e-08
-1.47619e-08
2.06652e-08
-4.84416e-09
-5.51853e-09
2.06863e-08
-2.35835e-09
-3.29069e-09
2.28474e-08
-1.10582e-08
1.63236e-09
2.32746e-08
-1.45145e-08
7.15512e-09
2.40258e-08
-1.61414e-08
1.27487e-08
2.5972e-08
-1.75609e-08
1.84027e-08
2.94452e-08
-1.9371e-08
2.4279e-08
3.48328e-08
-2.1883e-08
3.04298e-08
4.28229e-08
-2.52702e-08
3.65652e-08
5.42774e-08
-2.96036e-08
4.16148e-08
7.08241e-08
-3.49309e-08
4.42571e-08
9.20309e-08
-4.10336e-08
4.23624e-08
1.18579e-07
-4.77254e-08
3.78733e-08
1.40779e-07
-5.40049e-08
3.169e-08
1.59382e-07
-5.95271e-08
2.48947e-08
1.72989e-07
-6.40253e-08
1.77029e-08
1.8306e-07
-6.74235e-08
1.03198e-08
1.89547e-07
-6.96811e-08
2.8509e-09
1.92825e-07
-7.08481e-08
-4.59218e-09
1.92913e-07
-7.09259e-08
-1.18961e-08
1.89809e-07
-6.99143e-08
-1.89535e-08
1.83495e-07
-6.78112e-08
-2.55502e-08
1.73593e-07
-6.45702e-08
-3.14663e-08
1.6018e-07
-6.02365e-08
-3.56073e-08
1.4181e-07
-5.49003e-08
-3.70676e-08
1.19982e-07
-4.88454e-08
-3.38722e-08
9.39477e-08
-4.24391e-08
-2.81753e-08
7.35994e-08
-3.671e-08
-2.1194e-08
5.80783e-08
-3.18407e-08
-1.39503e-08
4.79684e-08
-2.80339e-08
-6.76192e-09
4.16678e-08
-2.51563e-08
8.73774e-11
3.83058e-08
-2.28576e-08
6.02605e-09
3.69436e-08
-2.04656e-08
8.1841e-09
3.62254e-08
-1.57454e-08
3.30189e-08
-4.16952e-09
-6.40723e-09
2.85702e-08
-1.47669e-09
-3.7857e-09
3.14482e-08
-1.12224e-08
2.11024e-09
3.2498e-08
-1.51193e-08
8.8692e-09
3.42353e-08
-1.69685e-08
1.59152e-08
3.754e-08
-1.8614e-08
2.33276e-08
4.27574e-08
-2.07245e-08
3.14632e-08
5.03411e-08
-2.3644e-08
4.06047e-08
6.12462e-08
-2.75648e-08
5.04663e-08
7.69349e-08
-3.2519e-08
5.93196e-08
1.00558e-07
-3.85867e-08
6.43834e-08
1.32416e-07
-4.54492e-08
6.07302e-08
1.75573e-07
-5.33405e-08
5.30077e-08
2.09142e-07
-6.06408e-08
4.32689e-08
2.36273e-07
-6.71516e-08
3.33342e-08
2.55404e-07
-7.24806e-08
2.32337e-08
2.69604e-07
-7.64437e-08
1.3084e-08
2.78728e-07
-7.90313e-08
2.90296e-09
2.83367e-07
-8.03612e-08
-7.25378e-09
2.83512e-07
-8.0443e-08
-1.73276e-08
2.79159e-07
-7.92762e-08
-2.72954e-08
2.70312e-07
-7.68492e-08
-3.70216e-08
2.56368e-07
-7.30488e-08
-4.64597e-08
2.37507e-07
-6.78883e-08
-5.37526e-08
2.10673e-07
-6.15697e-08
-5.6841e-08
1.77579e-07
-5.45091e-08
-5.10248e-08
1.35056e-07
-4.69242e-08
-4.13347e-08
1.04382e-07
-4.04731e-08
-3.03633e-08
8.20083e-08
-3.49013e-08
-1.97825e-08
6.7902e-08
-3.05144e-08
-9.92819e-09
5.89563e-08
-2.71428e-08
-9.33223e-10
5.37681e-08
-2.44573e-08
6.52229e-09
5.11644e-08
-2.16762e-08
9.35549e-09
4.97245e-08
-1.63323e-08
4.55861e-08
-3.21175e-09
-6.87778e-09
3.60424e-08
-5.94407e-10
-3.43096e-09
3.94639e-08
-1.14625e-08
3.86917e-09
4.1052e-08
-1.58542e-08
1.23048e-08
4.37445e-08
-1.79448e-08
2.12546e-08
4.84252e-08
-1.98351e-08
3.09546e-08
5.53486e-08
-2.22913e-08
4.20839e-08
6.48886e-08
-2.56768e-08
5.54479e-08
7.80641e-08
-3.01819e-08
7.1073e-08
9.70106e-08
-3.57008e-08
8.67168e-08
1.27227e-07
-4.23129e-08
9.68475e-08
1.71527e-07
-4.92416e-08
8.95644e-08
2.41132e-07
-5.82765e-08
7.60915e-08
2.892e-07
-6.65855e-08
6.06871e-08
3.26122e-07
-7.44448e-08
4.60814e-08
3.51013e-07
-8.10025e-08
3.16633e-08
3.69697e-07
-8.56742e-08
1.73399e-08
3.81684e-07
-8.86331e-08
3.0238e-09
3.87824e-07
-9.01414e-08
-1.12729e-08
3.88036e-07
-9.02264e-08
-2.55341e-08
3.82307e-07
-8.88874e-08
-3.98386e-08
3.7071e-07
-8.60933e-08
-5.42468e-08
3.52366e-07
-8.1589e-08
-6.93349e-08
3.27798e-07
-7.5203e-08
-8.22966e-08
2.91179e-07
-6.75447e-08
-8.88585e-08
2.43638e-07
-5.94971e-08
-7.77017e-08
1.74685e-07
-5.0786e-08
-6.10662e-08
1.32064e-07
-4.43172e-08
-4.40726e-08
1.03266e-07
-3.82512e-08
-2.88884e-08
8.60857e-08
-3.3368e-08
-1.55568e-08
7.51151e-08
-2.94904e-08
-3.7705e-09
6.83835e-08
-2.64017e-08
5.86922e-09
6.47219e-08
-2.31973e-08
9.99129e-09
6.27068e-08
-1.71044e-08
5.7834e-08
-2.25662e-09
-7.08949e-09
4.28243e-08
3.07614e-10
-2.32009e-09
4.66332e-08
-1.19387e-08
6.90904e-09
4.87623e-08
-1.69394e-08
1.7512e-08
5.24704e-08
-1.93288e-08
2.87886e-08
5.86582e-08
-2.15096e-08
4.11387e-08
6.73624e-08
-2.43639e-08
5.56683e-08
7.86134e-08
-2.82544e-08
7.41943e-08
9.28769e-08
-3.33388e-08
9.79011e-08
1.12536e-07
-3.92319e-08
1.24779e-07
1.46159e-07
-4.58102e-08
1.46195e-07
2.01246e-07
-5.1135e-08
1.3116e-07
3.16921e-07
-6.07535e-08
1.07796e-07
3.82093e-07
-6.95284e-08
8.41258e-08
4.29112e-07
-7.93204e-08
6.33428e-08
4.5964e-07
-8.7844e-08
4.31944e-08
4.83099e-07
-9.32543e-08
2.3213e-08
4.98235e-07
-9.65693e-08
3.22618e-09
5.06058e-07
-9.82473e-08
-1.67515e-08
5.06348e-07
-9.83349e-08
-3.67015e-08
4.99088e-07
-9.68309e-08
-5.67864e-08
4.84478e-07
-9.36833e-08
-7.74272e-08
4.61452e-07
-8.84457e-08
-1.00815e-07
4.31283e-07
-8.00976e-08
-1.23603e-07
3.84491e-07
-7.05245e-08
-1.37732e-07
3.1982e-07
-6.2053e-08
-1.14864e-07
2.04592e-07
-5.27744e-08
-8.69431e-08
1.52118e-07
-4.79747e-08
-6.16366e-08
1.19954e-07
-4.19943e-08
-4.0841e-08
1.02124e-07
-3.68334e-08
-2.34722e-08
9.02342e-08
-3.2488e-08
-8.30344e-09
8.21985e-08
-2.89838e-08
4.22999e-09
7.74808e-08
-2.52923e-08
1.03131e-08
7.48797e-08
-1.82559e-08
6.94264e-08
-1.27929e-09
-7.09552e-09
4.84786e-08
1.44119e-09
-3.63719e-10
5.26024e-08
-1.2701e-08
1.14315e-08
5.54253e-08
-1.84583e-08
2.48429e-08
6.02828e-08
-2.12237e-08
3.89488e-08
6.83104e-08
-2.37582e-08
5.41236e-08
7.92694e-08
-2.70817e-08
7.16736e-08
9.26134e-08
-3.155e-08
9.46761e-08
1.0718e-07
-3.73055e-08
1.26876e-07
1.23746e-07
-4.34103e-08
1.71968e-07
1.50965e-07
-4.98974e-08
2.18945e-07
2.02262e-07
-4.79938e-08
1.88088e-07
4.03096e-07
-5.53171e-08
1.49764e-07
4.8468e-07
-6.42627e-08
1.15393e-07
5.41412e-07
-7.79298e-08
8.70843e-08
5.77889e-07
-8.99404e-08
5.93812e-08
6.06925e-07
-9.6122e-08
3.15294e-08
6.25869e-07
-9.97822e-08
3.53425e-09
6.35689e-07
-1.01636e-07
-2.4468e-08
6.36076e-07
-1.01726e-07
-5.23404e-08
6.2701e-07
-1.00049e-07
-8.00764e-08
6.08771e-07
-9.65575e-08
-1.08379e-07
5.80311e-07
-9.05568e-08
-1.42625e-07
5.4426e-07
-7.87303e-08
-1.80425e-07
4.87609e-07
-6.53169e-08
-2.10124e-07
4.06297e-07
-5.67771e-08
-1.60973e-07
2.05183e-07
-4.97429e-08
-1.15026e-07
1.58345e-07
-5.21739e-08
-8.10139e-08
1.32316e-07
-4.63739e-08
-5.51713e-08
1.17437e-07
-4.11561e-08
-3.39242e-08
1.05294e-07
-3.63066e-08
-1.48853e-08
9.55152e-08
-3.23556e-08
1.36492e-09
8.93234e-08
-2.80929e-08
1.03268e-08
8.57662e-08
-1.98484e-08
7.99962e-08
-2.42988e-10
-6.9079e-09
5.27685e-08
2.61793e-09
2.25616e-09
5.71621e-08
-1.37238e-08
1.75313e-08
6.06451e-08
-2.04949e-08
3.45552e-08
6.69447e-08
-2.36858e-08
5.21141e-08
7.73725e-08
-2.6621e-08
7.01801e-08
9.16405e-08
-3.04371e-08
8.95311e-08
1.08761e-07
-3.5499e-08
1.13656e-07
1.24966e-07
-4.19112e-08
1.49562e-07
1.36588e-07
-4.87482e-08
2.23425e-07
1.30686e-07
-5.35848e-08
3.22044e-07
1.55266e-07
-5.1622e-08
2.58921e-07
5.0889e-07
-4.2671e-08
1.98574e-07
5.92471e-07
-4.74443e-08
1.52705e-07
6.54047e-07
-6.67653e-08
1.16274e-07
6.97732e-07
-8.34123e-08
7.96276e-08
7.33212e-07
-8.96408e-08
4.2045e-08
7.57336e-07
-9.38847e-08
3.97749e-09
7.69776e-07
-9.60195e-08
-3.4118e-08
7.70276e-07
-9.61048e-08
-7.17912e-08
7.5882e-07
-9.41374e-08
-1.08612e-07
7.35637e-07
-9.00456e-08
-1.45275e-07
7.00964e-07
-8.39899e-08
-1.91369e-07
6.57867e-07
-6.7513e-08
-2.51504e-07
5.96226e-07
-4.84812e-08
-3.12935e-07
5.11946e-07
-4.42192e-08
-2.10965e-07
1.57065e-07
-5.38522e-08
-1.37595e-07
1.41115e-07
-5.61402e-08
-9.93915e-08
1.46096e-07
-5.19837e-08
-7.1625e-08
1.35909e-07
-4.62384e-08
-4.74132e-08
1.22037e-07
-4.0955e-08
-2.40074e-08
1.08714e-07
-3.66048e-08
-2.77435e-09
9.98604e-08
-3.177e-08
1.0075e-08
9.48858e-08
-2.19689e-08
8.88256e-08
1.24552e-09
-6.32508e-09
5.52048e-08
3.88877e-09
6.1782e-09
5.97412e-08
-1.50823e-08
2.60801e-08
6.38097e-08
-2.30665e-08
4.83128e-08
7.15121e-08
-2.68001e-08
7.13441e-08
8.45987e-08
-3.02575e-08
9.42866e-08
1.03415e-07
-3.47174e-08
1.16249e-07
1.27385e-07
-4.05859e-08
1.37182e-07
1.52999e-07
-4.89661e-08
1.54167e-07
1.76837e-07
-5.72342e-08
2.09218e-07
1.48038e-07
-7.24027e-08
4.44409e-07
-7.99255e-08
3.53257e-07
6.08838e-07
-8.79642e-09
2.68015e-07
6.78014e-07
-3.00973e-10
2.10393e-07
7.29496e-07
-1.7827e-08
1.63582e-07
7.81282e-07
-3.67389e-08
1.1245e-07
8.22468e-07
-3.81242e-08
5.88016e-08
8.51439e-07
-4.04541e-08
4.61183e-09
8.65999e-07
-4.20328e-08
-4.96169e-08
8.66594e-07
-4.20893e-08
-1.03404e-07
8.53231e-07
-4.06238e-08
-1.54847e-07
8.25455e-07
-3.83749e-08
-2.0218e-07
7.85442e-07
-3.71448e-08
-2.60605e-07
7.34648e-07
-1.83566e-08
-3.47213e-07
6.83761e-07
-9.26887e-10
-4.37783e-07
6.12745e-07
-1.02283e-08
-1.97642e-07
-8.30764e-08
-1.40718e-07
1.58395e-07
-7.42042e-08
-1.22454e-07
1.88015e-07
-6.01826e-08
-9.72525e-08
1.64426e-07
-5.37179e-08
-6.90813e-08
1.40815e-07
-4.6949e-08
-3.89303e-08
1.20696e-07
-4.21329e-08
-1.01419e-08
1.07714e-07
-3.66418e-08
8.68735e-09
1.0091e-07
-2.48539e-08
9.45761e-08
2.93693e-09
-5.52107e-09
5.55378e-08
5.18808e-09
1.09365e-08
6.00392e-08
-1.67556e-08
3.6373e-08
6.45027e-08
-2.61295e-08
6.51835e-08
7.32228e-08
-3.05212e-08
9.57411e-08
8.86181e-08
-3.4577e-08
1.25923e-07
1.12635e-07
-3.94019e-08
1.49549e-07
1.4877e-07
-4.50104e-08
1.50886e-07
2.018e-07
-5.01375e-08
1.15757e-07
2.79195e-07
-6.72285e-08
3.78836e-07
-1.15041e-07
1.97486e-07
3.28328e-07
8.30236e-08
2.63459e-07
5.59333e-07
5.27082e-08
2.59956e-07
6.87701e-07
4.52978e-08
2.12434e-07
7.82181e-07
4.66229e-08
1.47167e-07
8.44839e-07
4.28962e-08
7.70032e-08
8.83969e-07
3.76337e-08
5.41762e-09
9.02664e-07
3.49209e-08
-6.62139e-08
9.03303e-07
3.49226e-08
-1.36538e-07
8.85924e-07
3.76306e-08
-2.02185e-07
8.48203e-07
4.28999e-08
-2.50585e-07
7.87175e-07
4.66672e-08
-2.56097e-07
6.947e-07
4.54597e-08
-1.93376e-07
5.68452e-07
5.25888e-08
3.37716e-07
8.16524e-08
-1.11739e-07
3.81777e-07
-1.11642e-07
-1.40549e-07
2.86557e-07
-6.97323e-08
-1.31766e-07
2.1134e-07
-5.56972e-08
-9.93689e-08
1.61157e-07
-5.27394e-08
-5.93719e-08
1.293e-07
-4.86007e-08
-2.04185e-08
1.11511e-07
-4.27503e-08
6.39493e-09
1.02765e-07
-2.86681e-08
9.64472e-08
4.52381e-09
-4.21941e-09
5.32911e-08
6.46613e-09
1.69366e-08
5.75435e-08
-1.86603e-08
4.94385e-08
6.15727e-08
-2.9572e-08
8.80849e-08
6.94285e-08
-3.4852e-08
1.33629e-07
8.30862e-08
-4.00127e-08
1.88965e-07
1.03637e-07
-4.63378e-08
2.59188e-07
1.32228e-07
-5.36806e-08
3.50728e-07
1.69141e-07
-5.88817e-08
4.76571e-07
2.13079e-07
-5.97266e-08
6.30736e-07
2.65655e-07
-4.09845e-08
4.93529e-07
8.75007e-08
4.97068e-08
4.95202e-07
2.31071e-07
9.5584e-08
4.72454e-07
4.19435e-07
1.62646e-07
4.02427e-07
5.38168e-07
2.19559e-07
3.06395e-07
6.26382e-07
2.51832e-07
2.03715e-07
6.84527e-07
2.62991e-07
1.03745e-07
7.20587e-07
2.63353e-07
6.24126e-09
7.37883e-07
2.62285e-07
-9.12432e-08
7.38454e-07
2.62333e-07
-1.91146e-07
7.22324e-07
2.63502e-07
-2.93722e-07
6.8749e-07
2.63289e-07
-3.89677e-07
6.30663e-07
2.52466e-07
-4.59705e-07
5.43828e-07
2.209e-07
-4.82215e-07
4.26082e-07
1.6488e-07
-4.82843e-07
2.38864e-07
9.94797e-08
-6.25208e-07
8.897e-08
5.33943e-08
-4.70966e-07
2.68e-07
-4.04649e-08
-3.40385e-07
2.18994e-07
-6.30179e-08
-2.41362e-07
1.77655e-07
-6.53379e-08
-1.6101e-07
1.43841e-07
-6.30361e-08
-9.36135e-08
1.19605e-07
-5.77017e-08
-3.6792e-08
1.05185e-07
-5.04958e-08
1.32986e-09
9.81216e-08
-3.34784e-08
9.19379e-08
5.83911e-09
-3.3437e-09
4.8912e-08
7.72282e-09
2.18842e-08
5.27584e-08
-2.04428e-08
6.02648e-08
5.60343e-08
-3.28422e-08
1.06358e-07
6.23097e-08
-3.89746e-08
1.6159e-07
7.29712e-08
-4.51168e-08
2.29645e-07
8.82742e-08
-5.26925e-08
3.1532e-07
1.07772e-07
-6.1219e-08
4.21701e-07
1.30062e-07
-6.73014e-08
5.51125e-07
1.50256e-07
-6.66011e-08
6.98579e-07
1.66631e-07
-4.84304e-08
6.92661e-07
1.06352e-07
-1.29331e-08
6.70717e-07
1.93826e-07
5.91886e-08
6.0851e-07
3.07891e-07
1.73752e-07
5.01808e-07
3.93337e-07
2.51534e-07
3.76434e-07
4.58389e-07
2.93367e-07
2.48311e-07
5.00576e-07
3.12074e-07
1.25481e-07
5.26766e-07
3.1665e-07
6.91304e-09
5.39286e-07
3.17166e-07
-1.11614e-07
5.39757e-07
3.17225e-07
-2.34314e-07
5.28186e-07
3.16838e-07
-3.62242e-07
5.02958e-07
3.1246e-07
-4.87477e-07
4.61729e-07
2.94168e-07
-5.94448e-07
3.97579e-07
2.53221e-07
-6.57736e-07
3.12743e-07
1.76627e-07
-6.81681e-07
1.98818e-07
6.39914e-08
-6.91676e-07
1.08844e-07
-9.8791e-09
-5.4535e-07
1.70299e-07
-4.86247e-08
-4.11695e-07
1.55873e-07
-7.05338e-08
-2.97212e-07
1.37939e-07
-7.47674e-08
-1.99904e-07
1.18612e-07
-7.2078e-08
-1.17556e-07
1.03255e-07
-6.59985e-08
-4.83909e-08
9.36037e-08
-5.75843e-08
-1.27165e-09
8.88273e-08
-3.78249e-08
8.32597e-08
7.4066e-09
-2.72996e-09
4.27217e-08
8.92021e-09
2.59e-08
4.60748e-08
-2.19463e-08
6.91392e-08
4.84639e-08
-3.56688e-08
1.21068e-07
5.29495e-08
-4.25686e-08
1.83212e-07
6.04552e-08
-4.96277e-08
2.59215e-07
7.08303e-08
-5.85597e-08
3.52828e-07
8.31752e-08
-6.90163e-08
4.64966e-07
9.62943e-08
-7.837e-08
5.91006e-07
1.06435e-07
-8.2219e-08
7.14433e-07
1.15664e-07
-7.24601e-08
7.60523e-07
1.03496e-07
-4.32343e-08
7.627e-07
1.54159e-07
3.74899e-08
6.89914e-07
2.22469e-07
1.58207e-07
5.67091e-07
2.78551e-07
2.37608e-07
4.22049e-07
3.21931e-07
2.815e-07
2.76946e-07
3.49906e-07
2.95773e-07
1.39432e-07
3.6743e-07
2.9685e-07
7.42958e-09
3.75827e-07
2.9546e-07
-1.24523e-07
3.76224e-07
2.95486e-07
-2.61889e-07
3.68615e-07
2.96938e-07
-4.06789e-07
3.51856e-07
2.96002e-07
-5.51757e-07
3.24596e-07
2.82101e-07
-6.75125e-07
2.81852e-07
2.39096e-07
-7.49465e-07
2.26179e-07
1.60904e-07
-7.50854e-07
1.58072e-07
4.21348e-08
-7.08193e-07
1.06618e-07
-4.04355e-08
-5.84846e-07
1.19633e-07
-7.26807e-08
-4.54378e-07
1.11812e-07
-8.64064e-08
-3.33563e-07
1.03592e-07
-8.64691e-08
-2.271e-07
9.31047e-08
-8.09559e-08
-1.34949e-07
8.4411e-08
-7.33062e-08
-5.66802e-08
7.88607e-08
-6.3526e-08
-2.60274e-09
7.60991e-08
-4.13493e-08
7.14758e-08
9.18112e-09
-2.57637e-09
3.53315e-08
9.96661e-09
2.85043e-08
3.81101e-08
-2.31159e-08
7.51516e-08
3.97385e-08
-3.79219e-08
1.30825e-07
4.27221e-08
-4.54459e-08
1.96819e-07
4.76926e-08
-5.32315e-08
2.76474e-07
5.44073e-08
-6.32318e-08
3.72754e-07
6.20838e-08
-7.5189e-08
4.85714e-07
7.00899e-08
-8.67553e-08
6.08823e-07
7.64915e-08
-9.31651e-08
7.26455e-07
8.44236e-08
-8.63917e-08
7.99433e-07
8.84156e-08
-5.78967e-08
8.14325e-07
1.20419e-07
1.88465e-08
7.36457e-07
1.62887e-07
1.3745e-07
6.04928e-07
1.99033e-07
2.11047e-07
4.49238e-07
2.27246e-07
2.50376e-07
2.94456e-07
2.45783e-07
2.58905e-07
1.48136e-07
2.57531e-07
2.56219e-07
7.83565e-09
2.63238e-07
2.52889e-07
-1.32427e-07
2.63608e-07
2.52878e-07
-2.78631e-07
2.58626e-07
2.56193e-07
-4.33275e-07
2.47558e-07
2.58942e-07
-5.89007e-07
2.29623e-07
2.50706e-07
-7.21291e-07
2.01916e-07
2.1222e-07
-8.01073e-07
1.66116e-07
1.39845e-07
-7.90218e-07
1.23945e-07
2.3273e-08
-7.20134e-07
9.17916e-08
-5.52581e-08
-6.02146e-07
8.84449e-08
-8.68e-08
-4.74257e-07
8.15431e-08
-9.762e-08
-3.52e-07
7.66762e-08
-9.53413e-08
-2.41828e-07
7.08268e-08
-8.78942e-08
-1.4457e-07
6.6118e-08
-7.89647e-08
-6.08945e-08
6.32121e-08
-6.8027e-08
-2.67776e-09
6.17633e-08
-4.3881e-08
5.80933e-08
1.07048e-08
-2.64274e-09
2.71632e-08
1.0811e-08
3.01367e-08
2.93133e-08
-2.39826e-08
7.91405e-08
3.03484e-08
-3.96137e-08
1.3727e-07
3.22029e-08
-4.76097e-08
2.05566e-07
3.53313e-08
-5.59349e-08
2.87124e-07
3.95717e-08
-6.67227e-08
3.84525e-07
4.4461e-08
-7.97784e-08
4.97659e-07
4.98171e-08
-9.28614e-08
6.20211e-07
5.48891e-08
-1.0095e-07
7.38488e-07
6.21301e-08
-9.59828e-08
8.24328e-07
7.00802e-08
-6.7505e-08
8.45839e-07
9.11856e-08
7.72314e-09
7.65949e-07
1.18147e-07
1.2463e-07
6.2921e-07
1.41624e-07
1.94149e-07
4.66765e-07
1.60094e-07
2.29597e-07
3.05772e-07
1.72583e-07
2.34194e-07
1.53811e-07
1.80624e-07
2.28867e-07
8.20509e-09
1.84639e-07
2.24205e-07
-1.37379e-07
1.85019e-07
2.24173e-07
-2.89274e-07
1.81744e-07
2.28778e-07
-4.50213e-07
1.74376e-07
2.3412e-07
-6.12819e-07
1.6246e-07
2.2977e-07
-7.5048e-07
1.44438e-07
1.95138e-07
-8.32463e-07
1.21269e-07
1.26831e-07
-8.15241e-07
9.46494e-08
1.20729e-08
-7.3196e-07
7.34902e-08
-6.49794e-08
-6.12979e-07
6.59664e-08
-9.65021e-08
-4.85264e-07
5.94294e-08
-1.05602e-07
-3.62268e-07
5.54674e-08
-1.01787e-07
-2.50144e-07
5.17007e-08
-9.29981e-08
-1.49917e-07
4.89853e-08
-8.30938e-08
-6.29215e-08
4.74706e-08
-7.12542e-08
-2.26019e-09
4.6719e-08
-4.5617e-08
4.39527e-08
1.18804e-08
-2.82941e-09
1.85868e-08
1.14059e-08
3.10245e-08
2.00618e-08
-2.46024e-08
8.15275e-08
2.0653e-08
-4.08077e-08
1.41165e-07
2.16906e-08
-4.91248e-08
2.10797e-07
2.3502e-08
-5.78027e-08
2.93405e-07
2.60526e-08
-6.90891e-08
3.91498e-07
2.91862e-08
-8.28179e-08
5.0512e-07
3.29596e-08
-9.6765e-08
6.28529e-07
3.72346e-08
-1.05755e-07
7.48843e-07
4.34111e-08
-1.01594e-07
8.40993e-07
5.1137e-08
-7.32066e-08
8.66591e-07
6.48622e-08
7.25253e-10
7.85234e-07
8.10604e-08
1.18443e-07
6.45096e-07
9.55146e-08
1.86247e-07
4.78404e-07
1.07014e-07
2.19771e-07
3.13424e-07
1.15111e-07
2.22452e-07
1.57744e-07
1.20447e-07
2.15858e-07
8.57745e-09
1.2324e-07
2.10565e-07
-1.4059e-07
1.23659e-07
2.10527e-07
-2.96272e-07
1.21676e-07
2.1575e-07
-4.61304e-07
1.17063e-07
2.22344e-07
-6.28296e-07
1.0956e-07
2.19892e-07
-7.69504e-07
9.84768e-08
1.87169e-07
-8.52999e-07
8.42379e-08
1.20526e-07
-8.31985e-07
6.80522e-08
5.5826e-09
-7.42108e-07
5.4434e-08
-7.08205e-08
-6.20831e-07
4.69329e-08
-1.02243e-07
-4.91939e-07
4.11339e-08
-1.10597e-07
-3.68014e-07
3.75093e-08
-1.05967e-07
-2.54598e-07
3.46983e-08
-9.64137e-08
-1.52606e-07
3.28899e-08
-8.58964e-08
-6.36649e-08
3.19808e-08
-7.34515e-08
-1.68619e-09
3.15281e-08
-4.67877e-08
2.96373e-08
1.26292e-08
-2.99949e-09
9.84688e-09
1.17394e-08
3.14619e-08
1.06225e-08
-2.50221e-08
8.28415e-08
1.08452e-08
-4.15718e-08
1.4338e-07
1.1226e-08
-5.0074e-08
2.13851e-07
1.19778e-08
-5.89473e-08
2.97212e-07
1.31948e-08
-7.05028e-08
3.95996e-07
1.49895e-08
-8.45875e-08
5.10382e-07
1.75422e-08
-9.89686e-08
6.34959e-07
2.10476e-08
-1.08389e-07
7.57068e-07
2.58491e-08
-1.04547e-07
8.52425e-07
3.19239e-08
-7.61438e-08
8.79752e-07
3.94127e-08
-1.87761e-09
7.97546e-07
4.6998e-08
1.16268e-07
6.5531e-07
5.38948e-08
1.83856e-07
4.8603e-07
5.94632e-08
2.16831e-07
3.1854e-07
6.37171e-08
2.18884e-07
1.6047e-07
6.66677e-08
2.11849e-07
8.98454e-09
6.83883e-08
2.06338e-07
-1.4253e-07
6.88706e-08
2.06303e-07
-3.00685e-07
6.80821e-08
2.11748e-07
-4.68361e-07
6.59542e-08
2.18785e-07
-6.38119e-07
6.23575e-08
2.1696e-07
-7.81626e-07
5.72076e-08
1.84776e-07
-8.66208e-07
5.04738e-08
1.18347e-07
-8.43317e-07
4.27739e-08
2.38772e-09
-7.5021e-07
3.51725e-08
-7.38461e-08
-6.26996e-07
2.90478e-08
-1.05329e-07
-4.96719e-07
2.4273e-08
-1.13415e-07
-3.7174e-07
2.09398e-08
-1.0841e-07
-2.5726e-07
1.86958e-08
-9.84774e-08
-1.54095e-07
1.73569e-08
-8.76325e-08
-6.39809e-08
1.67118e-08
-7.48446e-08
-1.27884e-09
1.63903e-08
-4.75643e-08
1.536e-08
1.29985e-08
-3.10673e-09
1.14903e-09
1.18046e-08
3.15668e-08
1.21866e-09
-2.52697e-08
8.32933e-08
1.06679e-09
-4.19481e-08
1.44244e-07
7.8327e-10
-5.05082e-08
2.15197e-07
4.58073e-10
-5.94332e-08
2.99144e-07
3.01459e-10
-7.10536e-08
3.9866e-07
6.93518e-10
-8.52201e-08
5.13951e-07
1.94132e-09
-9.96905e-08
6.39593e-07
4.60077e-09
-1.09194e-07
7.62783e-07
8.06399e-09
-1.05405e-07
8.59028e-07
1.27002e-08
-7.70217e-08
8.86495e-07
1.45122e-08
-2.56608e-09
8.03737e-07
1.37795e-08
1.15976e-07
6.60508e-07
1.32102e-08
1.83914e-07
4.90084e-07
1.28321e-08
2.17055e-07
3.21404e-07
1.32193e-08
2.19177e-07
1.62143e-07
1.37764e-08
2.12153e-07
9.45108e-09
1.44378e-08
2.06642e-07
-1.43305e-07
1.50155e-08
2.06611e-07
-3.02756e-07
1.54722e-08
2.12061e-07
-4.71789e-07
1.58974e-08
2.19089e-07
-6.42913e-07
1.6289e-08
2.17192e-07
-7.87658e-07
1.71265e-08
1.84827e-07
-8.73047e-07
1.7831e-08
1.18031e-07
-8.49971e-07
1.83472e-08
1.35132e-09
-7.55987e-07
1.6036e-08
-7.48479e-08
-6.31624e-07
1.10456e-08
-1.0636e-07
-5.00178e-07
7.25635e-09
-1.14429e-07
-3.7417e-07
4.29876e-09
-1.09368e-07
-2.58812e-07
2.70434e-09
-9.93664e-08
-1.549e-07
1.89265e-09
-8.84479e-08
-6.41732e-08
1.54635e-09
-7.55609e-08
-1.12254e-09
1.38163e-09
-4.8042e-08
1.22347e-09
1.3014e-08
-3.15521e-09
-7.29701e-09
1.16013e-08
3.13341e-08
-7.92057e-09
-2.53501e-08
8.28749e-08
-8.52996e-09
-4.1944e-08
1.43744e-07
-9.64817e-09
-5.04376e-08
2.14808e-07
-1.13289e-08
-5.92766e-08
2.99139e-07
-1.32634e-08
-7.07669e-08
3.99388e-07
-1.48062e-08
-8.4749e-08
5.15719e-07
-1.54144e-08
-9.89749e-08
6.42382e-07
-1.38391e-08
-1.08224e-07
7.66073e-07
-1.13839e-08
-1.04243e-07
8.60997e-07
-6.25145e-09
-7.59724e-08
8.8696e-07
-9.7951e-09
-1.6556e-09
8.038e-07
-2.02437e-08
1.17184e-07
6.60632e-07
-2.9529e-08
1.85906e-07
4.9052e-07
-3.68936e-08
2.19838e-07
3.21998e-07
-4.09293e-08
2.22671e-07
1.62767e-07
-4.30623e-08
2.1607e-07
1.00034e-08
-4.35587e-08
2.1076e-07
-1.42866e-07
-4.28411e-08
2.10726e-07
-3.02413e-07
-4.09489e-08
2.15968e-07
-4.71491e-07
-3.75822e-08
2.22558e-07
-6.42578e-07
-3.2551e-08
2.19927e-07
-7.87556e-07
-2.46265e-08
1.86731e-07
-8.73591e-07
-1.52322e-08
1.19099e-07
-8.52269e-07
-5.30771e-09
2.33316e-09
-7.59561e-07
-2.64772e-09
-7.40247e-08
-6.34676e-07
-8.38944e-09
-1.05451e-07
-5.02216e-07
-1.14861e-08
-1.13717e-07
-3.75212e-07
-1.38047e-08
-1.08901e-07
-2.59194e-07
-1.41902e-08
-9.91239e-08
-1.54985e-07
-1.39426e-08
-8.83737e-08
-6.42171e-08
-1.35981e-08
-7.56235e-08
-1.195e-09
-1.34025e-08
-4.8238e-08
-1.26475e-08
1.2676e-08
-3.19745e-09
-1.52324e-08
1.11329e-08
3.06418e-08
-1.65133e-08
-2.52466e-08
8.13668e-08
-1.7721e-08
-4.15339e-08
1.41516e-07
-1.99645e-08
-4.9833e-08
2.12131e-07
-2.35042e-08
-5.84399e-08
2.96467e-07
-2.80101e-08
-6.9589e-08
3.97356e-07
-3.25913e-08
-8.31034e-08
5.14965e-07
-3.63161e-08
-9.67075e-08
6.43079e-07
-3.66591e-08
-1.05294e-07
7.6745e-07
-3.5041e-08
-1.00713e-07
8.58397e-07
-2.46777e-08
-7.25215e-08
8.80305e-07
-3.37688e-08
2.06605e-09
7.96889e-07
-5.80066e-08
1.21179e-07
6.54991e-07
-7.93287e-08
1.91697e-07
4.86891e-07
-9.62877e-08
2.27494e-07
3.20065e-07
-1.06248e-07
2.32144e-07
1.62245e-07
-1.11918e-07
2.26676e-07
1.06895e-08
-1.13904e-07
2.21901e-07
-1.41019e-07
-1.12971e-07
2.21839e-07
-2.99302e-07
-1.09152e-07
2.26485e-07
-4.66928e-07
-1.01831e-07
2.31875e-07
-6.36353e-07
-9.04812e-08
2.27356e-07
-7.80452e-07
-7.27486e-08
1.92221e-07
-8.67105e-07
-5.13211e-08
1.22743e-07
-8.50166e-07
-2.82102e-08
5.96302e-09
-7.61364e-07
-2.05163e-08
-7.09334e-08
-6.35827e-07
-3.16137e-08
-1.02313e-07
-5.0204e-07
-3.41295e-08
-1.11144e-07
-3.73979e-07
-3.4942e-08
-1.06923e-07
-2.57636e-07
-3.28478e-08
-9.76851e-08
-1.53796e-07
-3.04414e-08
-8.7342e-08
-6.37856e-08
-2.8648e-08
-7.49601e-08
-1.38672e-09
-2.77076e-08
-4.80938e-08
-2.59876e-08
1.19533e-08
-3.36753e-09
-2.22722e-08
1.04073e-08
2.92075e-08
-2.41629e-08
-2.49254e-08
7.82588e-08
-2.61011e-08
-4.06712e-08
1.36705e-07
-2.97727e-08
-4.86385e-08
2.05812e-07
-3.57655e-08
-5.68449e-08
2.89124e-07
-4.39294e-08
-6.73933e-08
3.89989e-07
-5.33966e-08
-8.00599e-08
5.09036e-07
-6.29011e-08
-9.24619e-08
6.40203e-07
-6.81211e-08
-9.97045e-08
7.67656e-07
-6.88744e-08
-9.36196e-08
8.49909e-07
-4.11714e-08
-6.5759e-08
8.63467e-07
-5.73589e-08
1.00319e-08
7.79585e-07
-1.03536e-07
1.29411e-07
6.40653e-07
-1.43615e-07
2.03218e-07
4.77242e-07
-1.75085e-07
2.42208e-07
3.14509e-07
-1.9384e-07
2.50326e-07
1.6012e-07
-2.04651e-07
2.47121e-07
1.15672e-08
-2.08793e-07
2.43442e-07
-1.37187e-07
-2.07521e-07
2.43304e-07
-2.92193e-07
-2.00845e-07
2.467e-07
-4.55998e-07
-1.87686e-07
2.4966e-07
-6.21173e-07
-1.6682e-07
2.41514e-07
-7.62851e-07
-1.34125e-07
2.03055e-07
-8.50696e-07
-9.37588e-08
1.30283e-07
-8.42277e-07
-4.94532e-08
1.28232e-08
-7.6198e-07
-3.61082e-08
-6.47042e-08
-6.33456e-07
-6.43266e-08
-9.58112e-08
-4.96884e-07
-6.46474e-08
-1.06055e-07
-3.6779e-07
-6.10157e-08
-1.0302e-07
-2.52028e-07
-5.381e-08
-9.47994e-08
-1.49893e-07
-4.74111e-08
-8.51653e-08
-6.20474e-08
-4.30873e-08
-7.34065e-08
-1.39004e-09
-4.08878e-08
-4.74771e-08
-3.81714e-08
1.07938e-08
-3.73455e-09
-2.8006e-08
9.46837e-09
2.68736e-08
-3.04192e-08
-2.43518e-08
7.32518e-08
-3.31533e-08
-3.9326e-08
1.28729e-07
-3.84158e-08
-4.68342e-08
1.94722e-07
-4.72681e-08
-5.44903e-08
2.75053e-07
-6.00406e-08
-6.42198e-08
3.73909e-07
-7.6505e-08
-7.57475e-08
4.93271e-07
-9.57886e-08
-8.64742e-08
6.29666e-07
-1.12624e-07
-9.18922e-08
7.67343e-07
-1.22741e-07
-8.38104e-08
8.30627e-07
-5.0076e-08
-5.43797e-08
8.2815e-07
-7.88779e-08
2.39963e-08
7.45718e-07
-1.64165e-07
1.43061e-07
6.13504e-07
-2.31763e-07
2.20363e-07
4.58761e-07
-2.82876e-07
2.62533e-07
3.03521e-07
-3.13963e-07
2.75363e-07
1.55552e-07
-3.31813e-07
2.75131e-07
1.27776e-08
-3.38934e-07
2.72916e-07
-1.30232e-07
-3.37154e-07
2.72642e-07
-2.7895e-07
-3.26422e-07
2.74295e-07
-4.35537e-07
-3.05094e-07
2.73994e-07
-5.92613e-07
-2.70633e-07
2.60889e-07
-7.28357e-07
-2.17434e-07
2.19052e-07
-8.1604e-07
-1.48875e-07
1.428e-07
-8.23938e-07
-6.72903e-08
2.57345e-08
-7.61819e-07
-4.41015e-08
-5.41255e-08
-6.23491e-07
-1.15645e-07
-8.70099e-08
-4.82101e-07
-1.07049e-07
-9.89875e-08
-3.53213e-07
-9.24759e-08
-9.74283e-08
-2.40211e-07
-7.62719e-08
-9.05401e-08
-1.42018e-07
-6.38155e-08
-8.17882e-08
-5.83242e-08
-5.59505e-08
-7.08307e-08
-9.89389e-10
-5.19889e-08
-4.62337e-08
-4.84488e-08
9.28796e-09
-4.51937e-09
-3.18453e-08
8.35871e-09
2.32556e-08
-3.46727e-08
-2.35215e-08
6.56091e-08
-3.79839e-08
-3.75228e-08
1.16106e-07
-4.44574e-08
-4.44558e-08
1.75935e-07
-5.56968e-08
-5.14001e-08
2.48778e-07
-7.28336e-08
-6.00493e-08
3.39533e-07
-9.72344e-08
-7.00258e-08
4.52289e-07
-1.30594e-07
-7.7951e-08
5.92249e-07
-1.73056e-07
-7.95275e-08
7.67375e-07
-2.34176e-07
-6.36926e-08
7.9758e-07
-5.00801e-08
-3.02001e-08
7.49647e-07
-6.98101e-08
3.88644e-08
6.77077e-07
-2.42187e-07
1.50592e-07
5.60089e-07
-3.38735e-07
2.2396e-07
4.23564e-07