/*--------------------------------*- C++ -*----------------------------------*\
| =========                 |                                                 |
| \\      /  F ield         | OpenFOAM: The Open Source CFD Toolbox           |
|  \\    /   O peration     | Version:  2112                                  |
|   \\  /    A nd           | Website:  www.openfoam.com                      |
|    \\/     M anipulation  |                                                 |
\*---------------------------------------------------------------------------*/
FoamFile
{
    version     2.0;
    format      ascii;
    arch        "LSB;label=32;scalar=64";
    class       volVectorField;
    location    "4.7";
    object      U;
}
// * * * * * * * * * * * * * * * * * * * * * * * * * * * * * * * * * * * * * //

dimensions      [0 1 -1 0 0 0 0];

internalField   nonuniform List<vector> 
64906
(
(-1.79859e-07 -5.59338e-07 -8.0769e-08)
(1.63538e-06 -2.38008e-06 -1.10036e-07)
(5.52353e-06 -4.2933e-06 8.20109e-07)
(1.02304e-05 -6.06988e-06 2.04587e-06)
(1.54048e-05 -7.49372e-06 3.02421e-06)
(2.06558e-05 -8.63052e-06 3.79684e-06)
(2.59145e-05 -9.60291e-06 4.48078e-06)
(3.09985e-05 -1.04758e-05 5.16027e-06)
(3.56785e-05 -1.12853e-05 5.86879e-06)
(3.94096e-05 -1.1929e-05 6.62594e-06)
(4.17348e-05 -1.25002e-05 7.38068e-06)
(4.18984e-05 -1.2827e-05 8.13559e-06)
(3.96319e-05 -1.33826e-05 8.88251e-06)
(3.54494e-05 -1.37654e-05 9.73622e-06)
(2.98082e-05 -1.42176e-05 1.05209e-05)
(2.31657e-05 -1.46257e-05 1.11565e-05)
(1.57816e-05 -1.49718e-05 1.15935e-05)
(8.0072e-06 -1.51778e-05 1.1822e-05)
(1.14629e-07 -1.52287e-05 1.18348e-05)
(-7.59387e-06 -1.51253e-05 1.16329e-05)
(-1.48483e-05 -1.48835e-05 1.12239e-05)
(-2.13063e-05 -1.45799e-05 1.06188e-05)
(-2.67442e-05 -1.42175e-05 9.87462e-06)
(-3.06151e-05 -1.38472e-05 9.10615e-06)
(-3.24969e-05 -1.33768e-05 8.39626e-06)
(-3.19758e-05 -1.31225e-05 7.67238e-06)
(-2.93e-05 -1.25742e-05 6.92795e-06)
(-2.5249e-05 -1.18733e-05 6.13086e-06)
(-2.02947e-05 -1.08401e-05 5.27999e-06)
(-1.50319e-05 -9.46142e-06 4.27494e-06)
(-9.71324e-06 -7.582e-06 2.97573e-06)
(-4.98375e-06 -5.1882e-06 1.26096e-06)
(-1.26984e-06 -2.55313e-06 -9.18664e-08)
(4.4054e-07 -3.86885e-07 -2.67078e-07)
(-3.05687e-06 3.42292e-06 -1.04721e-06)
(-2.22917e-06 2.06096e-06 -6.15871e-06)
(3.05964e-06 -2.0717e-07 -7.84889e-06)
(8.67388e-06 -2.48007e-06 -8.21965e-06)
(1.44485e-05 -4.09021e-06 -8.48696e-06)
(2.0059e-05 -4.93141e-06 -9.01705e-06)
(2.55452e-05 -5.02063e-06 -9.92965e-06)
(3.07916e-05 -4.28989e-06 -1.12693e-05)
(3.56577e-05 -2.63496e-06 -1.30633e-05)
(3.95304e-05 2.57372e-07 -1.53195e-05)
(4.19832e-05 4.10689e-06 -1.796e-05)
(4.20973e-05 8.96355e-06 -2.0795e-05)
(3.98569e-05 1.30485e-05 -2.34438e-05)
(3.58108e-05 1.65764e-05 -2.58077e-05)
(3.00988e-05 1.90686e-05 -2.77311e-05)
(2.33782e-05 2.08231e-05 -2.91743e-05)
(1.59272e-05 2.18671e-05 -3.01358e-05)
(8.12347e-06 2.23506e-05 -3.06324e-05)
(2.05519e-07 2.23041e-05 -3.06666e-05)
(-7.52627e-06 2.17272e-05 -3.02377e-05)
(-1.48348e-05 2.05902e-05 -2.9343e-05)
(-2.13385e-05 1.87462e-05 -2.79672e-05)
(-2.67402e-05 1.61861e-05 -2.61188e-05)
(-3.04617e-05 1.26507e-05 -2.38742e-05)
(-3.23709e-05 8.55253e-06 -2.13218e-05)
(-3.18488e-05 3.7523e-06 -1.86173e-05)
(-2.89637e-05 1.14318e-07 -1.61633e-05)
(-2.46283e-05 -2.37014e-06 -1.41695e-05)
(-1.92188e-05 -3.27928e-06 -1.27344e-05)
(-1.33282e-05 -2.79232e-06 -1.18423e-05)
(-7.07497e-06 -9.42275e-07 -1.13422e-05)
(-9.66295e-07 1.97932e-06 -1.07584e-05)
(4.54699e-06 4.86072e-06 -8.5615e-06)
(4.53339e-06 6.20707e-06 -1.81433e-06)
(-5.23451e-06 1.31525e-05 -8.60798e-07)
(-5.54517e-06 1.41121e-05 -8.23572e-06)
(3.66436e-07 1.31066e-05 -1.08727e-05)
(6.79514e-06 1.20616e-05 -1.18472e-05)
(1.34712e-05 1.20532e-05 -1.26398e-05)
(1.99429e-05 1.33855e-05 -1.37332e-05)
(2.63589e-05 1.63084e-05 -1.53448e-05)
(3.26797e-05 2.12196e-05 -1.75855e-05)
(3.88899e-05 2.85394e-05 -2.05167e-05)
(4.41151e-05 3.90221e-05 -2.41689e-05)
(4.7789e-05 5.20993e-05 -2.84143e-05)
(4.80801e-05 6.77166e-05 -3.30029e-05)
(4.49291e-05 8.15119e-05 -3.73335e-05)
(3.97459e-05 9.33405e-05 -4.1119e-05)
(3.28908e-05 0.000102198 -4.41924e-05)
(2.52563e-05 0.000108728 -4.65153e-05)
(1.69741e-05 0.000112916 -4.80684e-05)
(8.43144e-06 0.000115003 -4.88734e-05)
(-2.1211e-07 0.000115023 -4.89292e-05)
(-8.67982e-06 0.000112976 -4.82355e-05)
(-1.68133e-05 0.000108831 -4.6793e-05)
(-2.422e-05 0.000102351 -4.45828e-05)
(-3.07704e-05 9.35666e-05 -4.16285e-05)
(-3.55785e-05 8.18272e-05 -3.79806e-05)
(-3.82978e-05 6.82688e-05 -3.3808e-05)
(-3.74783e-05 5.3022e-05 -2.94205e-05)
(-3.31923e-05 4.05844e-05 -2.54433e-05)
(-2.72391e-05 3.1003e-05 -2.21388e-05)
(-2.00779e-05 2.49946e-05 -1.9637e-05)
(-1.25653e-05 2.18728e-05 -1.78601e-05)
(-4.68916e-06 2.11763e-05 -1.65403e-05)
(2.71742e-06 2.22671e-05 -1.50786e-05)
(9.14338e-06 2.32607e-05 -1.15204e-05)
(7.57762e-06 2.14624e-05 -1.73238e-06)
(-6.88399e-06 2.4009e-05 -7.70467e-08)
(-7.93251e-06 2.64711e-05 -8.55913e-06)
(-1.27971e-06 2.65721e-05 -1.15912e-05)
(6.24576e-06 2.69224e-05 -1.27596e-05)
(1.43018e-05 2.87412e-05 -1.37473e-05)
(2.23037e-05 3.24657e-05 -1.50801e-05)
(3.0566e-05 3.85666e-05 -1.70164e-05)
(3.91606e-05 4.78224e-05 -1.96984e-05)
(4.82897e-05 6.11226e-05 -2.31871e-05)
(5.65235e-05 8.00518e-05 -2.75365e-05)
(6.2968e-05 0.000103851 -3.25668e-05)
(6.35522e-05 0.000132791 -3.81131e-05)
(5.82442e-05 0.000157665 -4.33118e-05)
(5.04433e-05 0.000178797 -4.78413e-05)
(4.08013e-05 0.000194491 -5.15105e-05)
(3.07621e-05 0.000206101 -5.42684e-05)
(2.01832e-05 0.000213584 -5.60953e-05)
(9.48887e-06 0.000217353 -5.704e-05)
(-1.29489e-06 0.000217441 -5.71023e-05)
(-1.19134e-05 0.000213846 -5.62814e-05)
(-2.23412e-05 0.000206539 -5.45767e-05)
(-3.21405e-05 0.000195107 -5.19423e-05)
(-4.14531e-05 0.000179627 -4.8401e-05)
(-4.88069e-05 0.000158762 -4.40149e-05)
(-5.35651e-05 0.000134331 -3.89887e-05)
(-5.22602e-05 0.000106016 -3.36635e-05)
(-4.49562e-05 8.32435e-05 -2.89296e-05)
(-3.56831e-05 6.56088e-05 -2.49558e-05)
(-2.51592e-05 5.40472e-05 -2.19177e-05)
(-1.48454e-05 4.70104e-05 -1.97041e-05)
(-4.50557e-06 4.35607e-05 -1.80159e-05)
(4.70448e-06 4.26248e-05 -1.6264e-05)
(1.22713e-05 4.22041e-05 -1.21365e-05)
(9.81348e-06 3.84357e-05 -8.39375e-07)
(-7.97523e-06 3.54711e-05 8.68297e-07)
(-9.22368e-06 3.91358e-05 -8.56777e-06)
(-1.33827e-06 4.02206e-05 -1.19368e-05)
(7.76694e-06 4.20207e-05 -1.32335e-05)
(1.77593e-05 4.57973e-05 -1.43696e-05)
(2.80074e-05 5.20593e-05 -1.59321e-05)
(3.91027e-05 6.14384e-05 -1.82107e-05)
(5.13518e-05 7.51324e-05 -2.13727e-05)
(6.54698e-05 9.47491e-05 -2.54385e-05)
(7.91661e-05 0.000123449 -3.04975e-05)
(9.11872e-05 0.00016085 -3.62532e-05)
(9.22708e-05 0.00020892 -4.29356e-05)
(8.24208e-05 0.000248063 -4.90833e-05)
(6.96947e-05 0.000280463 -5.4505e-05)
(5.50566e-05 0.000303853 -5.89149e-05)
(4.07961e-05 0.000321179 -6.21678e-05)
(2.61115e-05 0.000332333 -6.42827e-05)
(1.1516e-05 0.000337985 -6.53701e-05)
(-3.17343e-06 0.000338151 -6.54357e-05)
(-1.76964e-05 0.000332826 -6.44784e-05)
(-3.22361e-05 0.000321994 -6.24903e-05)
(-4.62516e-05 0.000304976 -5.93647e-05)
(-6.05363e-05 0.000281926 -5.50839e-05)
(-7.27311e-05 0.00024992 -4.98074e-05)
(-8.18967e-05 0.000211397 -4.38398e-05)
(-7.98369e-05 0.000164161 -3.73894e-05)
(-6.66686e-05 0.000128204 -3.19574e-05)
(-5.16363e-05 0.000101142 -2.73032e-05)
(-3.56748e-05 8.3634e-05 -2.37225e-05)
(-2.11661e-05 7.25606e-05 -2.10707e-05)
(-7.42487e-06 6.63387e-05 -1.90756e-05)
(4.37119e-06 6.34321e-05 -1.70523e-05)
(1.38958e-05 6.18355e-05 -1.24332e-05)
(1.13058e-05 5.65115e-05 2.80416e-07)
(-8.74852e-06 4.65649e-05 1.84722e-06)
(-9.64939e-06 5.11222e-05 -8.66722e-06)
(1.49527e-07 5.30129e-05 -1.24372e-05)
(1.14637e-05 5.61709e-05 -1.38893e-05)
(2.40108e-05 6.18675e-05 -1.52032e-05)
(3.71845e-05 7.05646e-05 -1.70608e-05)
(5.19758e-05 8.29154e-05 -1.97749e-05)
(6.91497e-05 0.000100444 -2.35285e-05)
(9.05905e-05 0.000125747 -2.82001e-05)
(0.000113188 0.000164863 -3.38902e-05)
(0.000136209 0.00021885 -3.97431e-05)
(0.000138436 0.000296352 -4.76279e-05)
(0.000119655 0.000353668 -5.48176e-05)
(9.87712e-05 0.000399091 -6.1554e-05)
(7.64719e-05 0.000430489 -6.71403e-05)
(5.60388e-05 0.000453845 -7.10582e-05)
(3.51907e-05 0.000468823 -7.35245e-05)
(1.46744e-05 0.000476463 -7.47807e-05)
(-5.98614e-06 0.000476716 -7.485e-05)
(-2.64428e-05 0.00046957 -7.37308e-05)
(-4.71731e-05 0.000455065 -7.13964e-05)
(-6.73831e-05 0.000432138 -6.76109e-05)
(-8.93381e-05 0.000401172 -6.21561e-05)
(-0.000109617 0.000356199 -5.55701e-05)
(-0.000127585 0.000299631 -4.85747e-05)
(-0.000124027 0.000223074 -4.09254e-05)
(-9.95255e-05 0.000171089 -3.54322e-05)
(-7.53582e-05 0.000133903 -3.01865e-05)
(-5.15992e-05 0.00011102 -2.60574e-05)
(-3.15504e-05 9.64894e-05 -2.28889e-05)
(-1.33974e-05 8.7868e-05 -2.05322e-05)
(1.91227e-06 8.33642e-05 -1.81742e-05)
(1.43819e-05 8.08881e-05 -1.2918e-05)
(1.24127e-05 7.43956e-05 1.42703e-06)
(-9.39646e-06 5.68827e-05 2.85913e-06)
(-9.43506e-06 6.21301e-05 -8.9749e-06)
(3.10798e-06 6.47942e-05 -1.32628e-05)
(1.73772e-05 6.93586e-05 -1.49266e-05)
(3.31383e-05 7.71137e-05 -1.64682e-05)
(4.97962e-05 8.83081e-05 -1.86893e-05)
(6.87859e-05 0.000103328 -2.1912e-05)
(9.15942e-05 0.000123476 -2.63245e-05)
(0.00012255 0.000152261 -3.15307e-05)
(0.000158099 0.00019916 -3.7422e-05)
(0.000202911 0.000271401 -4.18209e-05)
(0.000208283 0.000397395 -5.06772e-05)
(0.000171541 0.000477274 -5.84764e-05)
(0.000138098 0.0005378 -6.71771e-05)
(0.000105258 0.000577871 -7.47155e-05)
(7.68428e-05 0.000608247 -7.93503e-05)
(4.76655e-05 0.000627757 -8.21807e-05)
(1.90722e-05 0.00063778 -8.36061e-05)
(-9.80478e-06 0.000638135 -8.36795e-05)
(-3.83662e-05 0.000628801 -8.23989e-05)
(-6.74881e-05 0.000609939 -7.97058e-05)
(-9.57546e-05 0.000580114 -7.52113e-05)
(-0.000128335 0.000540538 -6.78088e-05)
(-0.000161139 0.000480418 -5.92736e-05)
(-0.000197001 0.000401306 -5.17023e-05)
(-0.000189743 0.000276151 -4.3077e-05)
(-0.00014303 0.000206848 -3.90939e-05)
(-0.00010587 0.000162052 -3.36834e-05)
(-7.20701e-05 0.000135897 -2.90977e-05)
(-4.56196e-05 0.000119073 -2.53715e-05)
(-2.22637e-05 0.000108395 -2.26024e-05)
(-2.49337e-06 0.000102401 -1.98269e-05)
(1.40587e-05 9.91043e-05 -1.37316e-05)
(1.34076e-05 9.16296e-05 2.70102e-06)
(-1.00388e-05 6.58864e-05 3.85676e-06)
(-8.63054e-06 7.16424e-05 -9.51887e-06)
(7.70765e-06 7.51625e-05 -1.44685e-05)
(2.59017e-05 8.12084e-05 -1.64081e-05)
(4.57413e-05 9.12093e-05 -1.82395e-05)
(6.64513e-05 0.00010499 -2.09116e-05)
(8.95324e-05 0.000122202 -2.47619e-05)
(0.000117098 0.000142813 -3.00481e-05)
(0.000156436 0.000169338 -3.58146e-05)
(0.000207315 0.000217484 -4.23834e-05)
(0.000296428 0.000303297 -3.87244e-05)
(0.000311125 0.000515929 -4.60956e-05)
(0.000239653 0.000618144 -5.46927e-05)
(0.000190094 0.000691689 -6.76337e-05)
(0.00014425 0.000738806 -7.88487e-05)
(0.000105914 0.000775275 -8.42601e-05)
(6.52879e-05 0.0007989 -8.74612e-05)
(2.53315e-05 0.000811181 -8.90583e-05)
(-1.51818e-05 0.000811657 -8.91363e-05)
(-5.51513e-05 0.000800301 -8.76925e-05)
(-9.58313e-05 0.000777535 -8.4636e-05)
(-0.000134178 0.000741765 -7.93796e-05)
(-0.000180001 0.000695191 -6.83145e-05)
(-0.000229037 0.000621862 -5.55749e-05)
(-0.000299799 0.000520341 -4.73117e-05)
(-0.000282161 0.000308215 -4.00613e-05)
(-0.000190545 0.000227324 -4.41259e-05)
(-0.000138488 0.000180926 -3.81161e-05)
(-9.56424e-05 0.000156942 -3.30956e-05)
(-6.34356e-05 0.000139791 -2.86458e-05)
(-3.45934e-05 0.00012746 -2.53831e-05)
(-9.29533e-06 0.000119963 -2.20912e-05)
(1.28422e-05 0.000115715 -1.48903e-05)
(1.43775e-05 0.000107637 4.24359e-06)
(-1.07252e-05 7.31613e-05 4.9721e-06)
(-7.17979e-06 7.93923e-05 -1.02657e-05)
(1.40942e-05 8.3949e-05 -1.61249e-05)
(3.72766e-05 9.19675e-05 -1.83679e-05)
(6.22866e-05 0.000105181 -2.05218e-05)
(8.7724e-05 0.000123141 -2.36619e-05)
(0.000114352 0.000144736 -2.81771e-05)
(0.000143053 0.000166523 -3.44034e-05)
(0.000186047 0.000189829 -4.17482e-05)
(0.000244782 0.000231101 -4.72954e-05)
(0.000419258 0.000254481 -4.58965e-05)
(0.000458458 0.000631423 -3.65161e-05)
(0.00031453 0.000766643 -4.17276e-05)
(0.000250823 0.00085998 -6.17011e-05)
(0.000191892 0.000919003 -7.80713e-05)
(0.000142104 0.000967234 -8.39499e-05)
(8.74782e-05 0.000998843 -8.80111e-05)
(3.33122e-05 0.00101512 -8.99676e-05)
(-2.18918e-05 0.00101575 -9.00461e-05)
(-7.61298e-05 0.00100071 -8.82433e-05)
(-0.000130957 0.000970275 -8.43209e-05)
(-0.000181005 0.000923011 -7.86006e-05)
(-0.000240415 0.000864694 -6.23805e-05)
(-0.000303908 0.000771464 -4.26636e-05)
(-0.000447724 0.000636639 -3.78855e-05)
(-0.000403446 0.00025734 -4.77639e-05)
(-0.000226021 0.000241816 -4.93559e-05)
(-0.000167888 0.000202146 -4.42728e-05)
(-0.000120229 0.000181668 -3.78386e-05)
(-8.55228e-05 0.000163463 -3.26398e-05)
(-5.12051e-05 0.000147229 -2.89091e-05)
(-1.91575e-05 0.000136629 -2.51253e-05)
(1.05646e-05 0.000130558 -1.6444e-05)
(1.55379e-05 0.000121906 5.8982e-06)
(-1.1278e-05 7.8085e-05 6.23159e-06)
(-4.77809e-06 8.46204e-05 -1.12812e-05)
(2.3018e-05 9.00649e-05 -1.82226e-05)
(5.31785e-05 0.000100079 -2.08599e-05)
(8.5944e-05 0.000116718 -2.34282e-05)
(0.00011935 0.000139588 -2.71567e-05)
(0.000151641 0.000166345 -3.24986e-05)
(0.00018297 0.000188189 -4.12369e-05)
(0.000223226 0.000191779 -5.04843e-05)
(0.000183177 0.00010295 -7.35488e-05)
(0.000492552 0.000222828 -7.20402e-05)
(0.000667744 0.000881943 -5.7911e-06)
(0.000411102 0.000952311 -4.50908e-07)
(0.000343466 0.00101314 -2.32264e-05)
(0.000268569 0.0010736 -4.35499e-05)
(0.000201004 0.00112432 -4.48539e-05)
(0.000123164 0.00116064 -4.74796e-05)
(4.58371e-05 0.00117941 -4.90165e-05)
(-3.25942e-05 0.00118021 -4.90726e-05)
(-0.000110023 0.00116301 -4.76503e-05)
(-0.000188186 0.0011282 -4.51064e-05)
(-0.000256276 0.00107881 -4.39615e-05)
(-0.000332248 0.00101923 -2.37841e-05)
(-0.000400514 0.000958062 -1.31543e-06)
(-0.000661504 0.000884112 -7.42329e-06)
(-0.000478798 0.000226066 -7.45592e-05)
(-0.000163028 0.000122181 -7.46814e-05)
(-0.000205112 0.000208552 -5.26008e-05)
(-0.00015889 0.000205023 -4.49593e-05)
(-0.000120393 0.000185872 -3.77083e-05)
(-7.81298e-05 0.00016451 -3.34865e-05)
(-3.5459e-05 0.000149745 -2.91582e-05)
(5.60545e-06 0.000141573 -1.86076e-05)
(1.62462e-05 0.00013259 7.82124e-06)
(-1.18357e-05 8.02216e-05 7.54049e-06)
(-1.80365e-06 8.69219e-05 -1.25654e-05)
(3.36781e-05 9.32795e-05 -2.07486e-05)
(7.23769e-05 0.000105531 -2.38725e-05)
(0.000115251 0.000126864 -2.69089e-05)
(0.000159549 0.000159282 -3.08618e-05)
(0.000200076 0.000205618 -3.57795e-05)
(0.000228078 0.000268009 -4.00293e-05)
(0.000183036 0.000350383 -5.94878e-05)
(0.000180283 0.000398414 -9.80068e-05)
(0.000291831 0.000743094 7.43934e-05)
(0.000320325 0.000950426 4.11639e-05)
(0.000400675 0.00107034 2.78058e-05)
(0.000346556 0.00117696 2.74658e-05)
(0.000261199 0.00125241 2.24596e-05)
(0.000161876 0.00130228 1.68227e-05)
(5.96012e-05 0.00132661 1.4092e-05)
(-4.40418e-05 0.00132753 1.40937e-05)
(-0.000146442 0.00130509 1.68168e-05)
(-0.000246133 0.00125718 2.24509e-05)
(-0.000332241 0.00118388 2.74781e-05)
(-0.000388302 0.00107954 2.79039e-05)
(-0.000312314 0.000961869 4.08621e-05)
(-0.000286978 0.000754014 7.27543e-05)
(-0.000176067 0.000409262 -9.44116e-05)
(-0.00017417 0.000364515 -6.11193e-05)
(-0.000208046 0.000283415 -4.4559e-05)
(-0.000168731 0.000224352 -4.22114e-05)
(-0.000114667 0.000183859 -3.88106e-05)
(-5.75341e-05 0.000160192 -3.431e-05)
(-1.52704e-06 0.000148289 -2.16054e-05)
(1.67964e-05 0.000138729 9.72684e-06)
(-1.21271e-05 7.88605e-05 8.88073e-06)
(2.1627e-06 8.53703e-05 -1.40274e-05)
(4.68921e-05 9.17356e-05 -2.3577e-05)
(9.7175e-05 0.000104189 -2.7367e-05)
(0.000156967 0.000126159 -3.13015e-05)
(0.000228566 0.000160406 -3.65674e-05)
(0.00031656 0.000211772 -4.31925e-05)
(0.000433861 0.000287182 -4.78552e-05)
(0.000568894 0.000398848 -4.96776e-05)
(0.000838068 0.000565773 -3.02348e-05)
(0.000866722 0.000153794 5.29128e-05)
(0.000651224 0.000298656 8.50292e-05)
(0.000717677 0.000689176 0.00013698)
(0.000645404 0.000901492 0.000186711)
(0.000512998 0.00104896 0.000214644)
(0.00036646 0.00114588 0.000223317)
(0.000220294 0.00120508 0.000222929)
(7.87977e-05 0.00123314 0.000221744)
(-6.08586e-05 0.00123404 0.000221793)
(-0.000202289 0.00120784 0.000223072)
(-0.000348336 0.00115065 0.00022358)
(-0.00049468 0.00105606 0.000215178)
(-0.000626996 0.000911354 0.000187852)
(-0.000699586 0.000702385 0.000138853)
(-0.000632069 0.000314246 8.8247e-05)
(-0.000855009 0.000156222 5.55231e-05)
(-0.000833115 0.000565876 -2.93538e-05)
(-0.00055801 0.00040698 -5.21258e-05)
(-0.000414291 0.000299694 -5.30327e-05)
(-0.000284532 0.000228929 -5.09924e-05)
(-0.00018024 0.000183943 -4.64307e-05)
(-9.22499e-05 0.000158727 -4.0848e-05)
(-1.36725e-05 0.000146446 -2.53977e-05)
(1.58744e-05 0.00013692 1.16422e-05)
(-1.27183e-05 7.3958e-05 1.01691e-05)
(5.19119e-06 7.99134e-05 -1.53868e-05)
(5.79571e-05 8.52288e-05 -2.62577e-05)
(0.000117526 9.54572e-05 -3.06935e-05)
(0.000189321 0.000112956 -3.54175e-05)
(0.000276652 0.000138478 -4.17585e-05)
(0.000384637 0.000171867 -4.93776e-05)
(0.000523088 0.000210419 -5.48629e-05)
(0.000683522 0.000243003 -5.44024e-05)
(0.000921452 0.000261783 -3.69235e-05)
(0.00103499 0.000123408 -8.55139e-06)
(0.000985446 0.0003165 4.31323e-05)
(0.000940256 0.000511595 0.000142739)
(0.000806076 0.000655024 0.000209607)
(0.000634532 0.000765546 0.000244367)
(0.000447905 0.000838313 0.000258715)
(0.000267123 0.00088366 0.000261556)
(9.45166e-05 0.000905487 0.000261632)
(-7.46459e-05 0.000906238 0.000261688)
(-0.000247125 0.000885929 0.000261722)
(-0.000427675 0.000842133 0.000259032)
(-0.000613961 0.000770935 0.000244997)
(-0.000785591 0.000661899 0.000210969)
(-0.000920485 0.000519241 0.0001451)
(-0.000966971 0.000323777 4.72898e-05)
(-0.00102252 0.000125816 -5.88163e-06)
(-0.000914076 0.000267294 -3.69703e-05)
(-0.000673306 0.000251566 -5.75148e-05)
(-0.000503833 0.000222276 -6.09618e-05)
(-0.000351329 0.000188082 -5.85207e-05)
(-0.000224391 0.000160858 -5.33803e-05)
(-0.000117263 0.000143896 -4.68339e-05)
(-2.17306e-05 0.00013545 -2.88896e-05)
(1.61305e-05 0.000126834 1.36705e-05)
(-1.33558e-05 6.62539e-05 1.13928e-05)
(7.50164e-06 7.15425e-05 -1.64998e-05)
(6.70549e-05 7.56553e-05 -2.85336e-05)
(0.000134151 8.34275e-05 -3.35378e-05)
(0.000215049 9.64999e-05 -3.89834e-05)
(0.000313068 0.000114878 -4.64945e-05)
(0.000433114 0.000137406 -5.58679e-05)
(0.000582148 0.000162021 -6.47067e-05)
(0.000751265 0.000182185 -6.9272e-05)
(0.000949244 0.00020026 -6.25492e-05)
(0.00107932 0.000162811 -4.14203e-05)
(0.00111743 0.000252169 2.32523e-05)
(0.00106949 0.000372973 0.000127847)
(0.000913404 0.000472584 0.000193928)
(0.000714564 0.000549366 0.000228968)
(0.000500307 0.000598445 0.000238083)
(0.000297273 0.000628992 0.000237181)
(0.000104667 0.000643568 0.000235279)
(-8.3309e-05 0.000644178 0.000235301)
(-0.000275766 0.000630823 0.000237244)
(-0.000478539 0.000601489 0.00023823)
(-0.000692457 0.000553579 0.000229367)
(-0.000891573 0.00047787 0.000195035)
(-0.00104873 0.000378965 0.000129951)
(-0.00110039 0.000258569 2.71818e-05)
(-0.00106862 0.00016714 -3.90829e-05)
(-0.000941512 0.00020573 -6.2561e-05)
(-0.000740374 0.000190027 -7.25755e-05)
(-0.00056177 0.00017293 -7.13147e-05)
(-0.000397458 0.000152392 -6.59301e-05)
(-0.000256252 0.000135533 -5.93846e-05)
(-0.000135595 0.000124753 -5.17195e-05)
(-2.71349e-05 0.00011936 -3.15969e-05)
(1.67456e-05 0.000111855 1.58074e-05)
(-1.41212e-05 5.63418e-05 1.24414e-05)
(8.72823e-06 6.07975e-05 -1.73513e-05)
(7.32123e-05 6.364e-05 -3.03264e-05)
(0.000145402 6.88836e-05 -3.57861e-05)
(0.000231827 7.75964e-05 -4.17905e-05)
(0.000335297 8.94098e-05 -5.02029e-05)
(0.000460365 0.000102995 -6.09093e-05)
(0.000611706 0.000117048 -7.18953e-05)
(0.000781703 0.000127656 -7.907e-05)
(0.000965267 0.000139662 -7.54842e-05)
(0.00110915 0.000138301 -5.46046e-05)
(0.00118895 0.000194531 6.39133e-06)
(0.00114405 0.000270574 0.000108761)
(0.000975066 0.000333576 0.000168418)
(0.000761739 0.000382653 0.000198398)
(0.000532094 0.000414685 0.000201757)
(0.00031601 0.000434956 0.000197213)
(0.000111103 0.000444755 0.000193454)
(-8.85791e-05 0.000445295 0.000193441)
(-0.000293365 0.000436555 0.000197166)
(-0.000509257 0.000417289 0.000201716)
(-0.000738677 0.000386163 0.000198526)
(-0.000952522 0.000337865 0.0001692)
(-0.0011229 0.000275379 0.000110536)
(-0.00117243 0.000199739 1.01326e-05)
(-0.00109884 0.000143041 -5.24244e-05)
(-0.000956927 0.000145499 -7.56786e-05)
(-0.000769858 0.000135215 -8.25987e-05)
(-0.000589725 0.000127093 -7.89044e-05)
(-0.000421954 0.000116508 -7.162e-05)
(-0.000273919 0.000107711 -6.39553e-05)
(-0.000145672 0.000102123 -5.53477e-05)
(-2.90074e-05 9.93289e-05 -3.34678e-05)
(1.82289e-05 9.33703e-05 1.75373e-05)
(-1.48187e-05 4.5068e-05 1.32876e-05)
(9.31496e-06 4.86433e-05 -1.79698e-05)
(7.72624e-05 5.05236e-05 -3.16545e-05)
(0.000152903 5.39131e-05 -3.74533e-05)
(0.000242823 5.95765e-05 -4.38672e-05)
(0.000349352 6.72039e-05 -5.29391e-05)
(0.000476859 7.58965e-05 -6.46202e-05)
(0.000628829 8.51396e-05 -7.7049e-05)
(0.000799226 9.3205e-05 -8.58655e-05)
(0.000979451 0.000104271 -8.40673e-05)
(0.00113316 0.00011454 -6.28778e-05)
(0.00123261 0.000151665 -3.17385e-06)
(0.00119 0.000199331 9.77483e-05)
(0.0010146 0.000240611 0.000153342)
(0.000792138 0.000272998 0.000179587)
(0.000552655 0.000294572 0.000179211)
(0.000328171 0.000308343 0.000172231)
(0.000115388 0.000315118 0.000167249)
(-9.18032e-05 0.000315648 0.000167217)
(-0.000304511 0.000309906 0.000172126)
(-0.000528899 0.000297089 0.000179068)
(-0.000768298 0.000276343 0.000179566)
(-0.000991491 0.000244632 0.000153945)
(-0.00116852 0.000203829 9.93107e-05)
(-0.00121622 0.000156644 2.72363e-07)
(-0.00112286 0.000119456 -6.08167e-05)
(-0.000970521 0.000109968 -8.43474e-05)
(-0.000786352 0.000100139 -8.95443e-05)
(-0.000605146 9.39824e-05 -8.43233e-05)
(-0.000435775 8.74503e-05 -7.57515e-05)
(-0.00028392 8.24715e-05 -6.72352e-05)
(-0.000151122 7.95426e-05 -5.78925e-05)
(-2.9219e-05 7.80839e-05 -3.46901e-05)
(1.97844e-05 7.34504e-05 1.88648e-05)
(-1.54012e-05 3.29506e-05 1.38875e-05)
(9.47082e-06 3.55645e-05 -1.84113e-05)
(7.96389e-05 3.66999e-05 -3.25859e-05)
(0.000157443 3.87036e-05 -3.86111e-05)
(0.000249457 4.2129e-05 -4.52856e-05)
(0.000357701 4.68295e-05 -5.47632e-05)
(0.000486557 5.23736e-05 -6.70235e-05)
(0.000639103 5.87259e-05 -8.02371e-05)
(0.000810657 6.53861e-05 -8.98865e-05)
(0.000991636 7.51639e-05 -8.88138e-05)
(0.00115164 8.7086e-05 -6.75762e-05)
(0.00126114 0.00011156 -7.66404e-06)
(0.00122007 0.000141622 9.28219e-05)
(0.00104043 0.000168108 0.000146779)
(0.000812126 0.000189057 0.000171282)
(0.000566462 0.000203519 0.000169178)
(0.00033649 0.000212948 0.000161091)
(0.000118461 0.00021776 0.000155563)
(-9.38069e-05 0.000218325 0.000155527)
(-0.000311827 0.00021461 0.000160971)
(-0.000541829 0.00020617 0.000169006)
(-0.000787588 0.000192531 0.000171215)
(-0.00101684 0.000172196 0.000147322)
(-0.00119823 0.000146089 9.42906e-05)
(-0.00124475 0.000116302 -4.61182e-06)
(-0.00114128 9.19113e-05 -6.56361e-05)
(-0.000982221 8.04663e-05 -8.91954e-05)
(-0.000796914 7.14711e-05 -9.3713e-05)
(-0.000614008 6.60828e-05 -8.7729e-05)
(-0.000443331 6.1574e-05 -7.84605e-05)
(-0.000289159 5.85509e-05 -6.94276e-05)
(-0.000153693 5.69818e-05 -5.96019e-05)
(-2.86409e-05 5.62095e-05 -3.54967e-05)
(2.11751e-05 5.28893e-05 1.97248e-05)
(-1.57928e-05 2.0451e-05 1.42401e-05)
(9.46103e-06 2.20721e-05 -1.8713e-05)
(8.09085e-05 2.2649e-05 -3.31814e-05)
(0.000159989 2.36497e-05 -3.93359e-05)
(0.000253275 2.54626e-05 -4.61532e-05)
(0.000362649 2.81334e-05 -5.58477e-05)
(0.000492567 3.164e-05 -6.84125e-05)
(0.000646011 3.61689e-05 -8.20144e-05)
(0.000819006 4.17934e-05 -9.20532e-05)
(0.00100166 4.97323e-05 -9.12472e-05)
(0.00116549 5.97897e-05 -6.9937e-05)
(0.00127964 7.47856e-05 -9.70702e-06)
(0.00123909 9.15678e-05 9.13017e-05)
(0.00105694 0.000106693 0.000145094)
(0.000825061 0.000118815 0.000169134)
(0.000575609 0.000127615 0.000166489)
(0.000342125 0.000133523 0.000158037)
(0.00012071 0.00013674 0.000152333)
(-9.4888e-05 0.000137378 0.0001523)
(-0.000316376 0.000135395 0.000157926)
(-0.000550049 0.000130582 0.000166328)
(-0.000799825 0.000122667 0.00016908)
(-0.00103294 0.000111139 0.000145644)
(-0.00121716 9.62894e-05 9.28172e-05)
(-0.00126327 7.94566e-05 -6.44612e-06)
(-0.001155 6.4478e-05 -6.80294e-05)
(-0.000991974 5.45487e-05 -9.17273e-05)
(-0.000804746 4.69011e-05 -9.60206e-05)
(-0.000620033 4.18685e-05 -8.96927e-05)
(-0.00044799 3.82565e-05 -8.00854e-05)
(-0.000292171 3.60324e-05 -7.07801e-05)
(-0.000155031 3.49497e-05 -6.06833e-05)
(-2.81152e-05 3.44111e-05 -3.60349e-05)
(2.21052e-05 3.23171e-05 2.01963e-05)
(-1.59763e-05 7.85877e-06 1.43417e-05)
(9.3854e-06 8.46113e-06 -1.88983e-05)
(8.13003e-05 8.52199e-06 -3.34783e-05)
(0.000160918 8.61398e-06 -3.9673e-05)
(0.00025484 8.96278e-06 -4.65272e-05)
(0.000364967 9.79257e-06 -5.62726e-05)
(0.000495823 1.14371e-05 -6.89069e-05)
(0.000650425 1.4225e-05 -8.25866e-05)
(0.000824865 1.86494e-05 -9.26969e-05)
(0.00100907 2.4499e-05 -9.19298e-05)
(0.00117445 3.19118e-05 -7.06309e-05)
(0.00128948 3.84659e-05 -1.02701e-05)
(0.0012486 4.35084e-05 9.11619e-05)
(0.00106524 4.81846e-05 0.000145292)
(0.000831741 5.20346e-05 0.000169481)
(0.000580605 5.54312e-05 0.000166894)
(0.000345393 5.79846e-05 0.00015845)
(0.00012226 5.97019e-05 0.000152748)
(-9.50999e-05 6.04493e-05 0.00015272)
(-0.000318407 6.01765e-05 0.000158351)
(-0.000554004 5.88933e-05 0.00016675)
(-0.000805754 5.65051e-05 0.000169443)
(-0.00104084 5.32747e-05 0.000145849)
(-0.00122664 4.88152e-05 9.26909e-05)
(-0.00127327 4.35588e-05 -6.92241e-06)
(-0.00116406 3.65923e-05 -6.87968e-05)
(-0.000999427 2.88833e-05 -9.25412e-05)
(-0.000810528 2.28107e-05 -9.68263e-05)
(-0.000624203 1.82843e-05 -9.04507e-05)
(-0.000450814 1.54633e-05 -8.07855e-05)
(-0.000293832 1.38502e-05 -7.14226e-05)
(-0.000155732 1.3088e-05 -6.12503e-05)
(-2.7935e-05 1.27127e-05 -3.6387e-05)
(2.24984e-05 1.18621e-05 2.03104e-05)
(-1.59557e-05 -4.52033e-06 1.41944e-05)
(9.23809e-06 -4.92827e-06 -1.89696e-05)
(8.08064e-05 -5.44168e-06 -3.34812e-05)
(0.000160217 -6.37417e-06 -3.96291e-05)
(0.000254128 -7.68136e-06 -4.64207e-05)
(0.000364593 -8.97394e-06 -5.60629e-05)
(0.000496206 -9.53365e-06 -6.85381e-05)
(0.000652179 -8.79982e-06 -8.19937e-05)
(0.000828106 -5.62626e-06 -9.18644e-05)
(0.00101386 -1.5174e-06 -9.09228e-05)
(0.00117876 4.6244e-06 -6.97445e-05)
(0.00129098 3.35631e-06 -9.4827e-06)
(0.00124866 -3.98813e-06 9.20997e-05)
(0.00106526 -1.03665e-05 0.000146924)
(0.000832085 -1.53375e-05 0.000171785)
(0.000581394 -1.7631e-05 0.000169801)
(0.000346281 -1.85921e-05 0.000161703)
(0.000123132 -1.84168e-05 0.000156165)
(-9.43876e-05 -1.75045e-05 0.000156138)
(-0.000317832 -1.59113e-05 0.000161606)
(-0.000553566 -1.33947e-05 0.000169652)
(-0.000805224 -9.86352e-06 0.000171728)
(-0.0010404 -4.18237e-06 0.000147427)
(-0.00122668 2.36749e-06 9.3513e-05)
(-0.00127512 9.22763e-06 -6.41151e-06)
(-0.00116882 9.54481e-06 -6.81031e-05)
(-0.0010046 2.69393e-06 -9.17335e-05)
(-0.000814145 -2.13257e-06 -9.61966e-05)
(-0.000626368 -6.07541e-06 -9.0052e-05)
(-0.000451696 -7.78268e-06 -8.05939e-05)
(-0.000294077 -8.44961e-06 -7.1377e-05)
(-0.000155757 -8.63506e-06 -6.13179e-05)
(-2.80746e-05 -8.70929e-06 -3.65634e-05)
(2.23686e-05 -8.29575e-06 2.00728e-05)
(-1.57555e-05 -1.63802e-05 1.38017e-05)
(8.91073e-06 -1.77877e-05 -1.89114e-05)
(7.91916e-05 -1.90677e-05 -3.31642e-05)
(0.000157483 -2.14105e-05 -3.91743e-05)
(0.000250495 -2.50235e-05 -4.57935e-05)
(0.000360609 -2.94196e-05 -5.51574e-05)
(0.000492558 -3.34723e-05 -6.72321e-05)
(0.000650096 -3.61559e-05 -8.01217e-05)
(0.000827837 -3.49468e-05 -8.93741e-05)
(0.00101636 -3.20059e-05 -8.78733e-05)
(0.00117919 -2.28346e-05 -6.67975e-05)
(0.00128349 -3.19079e-05 -6.64804e-06)
(0.00123791 -5.49468e-05 9.54183e-05)
(0.00105585 -7.55876e-05 0.000151941)
(0.000825254 -9.20565e-05 0.000178491)
(0.000577494 -0.000101511 0.000178141)
(0.000344539 -0.000106764 0.000171024)
(0.000123297 -0.000108403 0.00016595)
(-9.25825e-05 -0.000107245 0.000165902)
(-0.000314261 -0.000103348 0.00017086)
(-0.000548109 -9.60883e-05 0.000177872)
(-0.00079728 -8.49922e-05 0.000178258)
(-0.00103042 -6.76144e-05 0.000152203)
(-0.00121596 -4.68419e-05 9.65056e-05)
(-0.00126819 -2.49016e-05 -4.06118e-06)
(-0.00116993 -1.73939e-05 -6.54828e-05)
(-0.00100769 -2.75456e-05 -8.90101e-05)
(-0.000814598 -3.16141e-05 -9.39993e-05)
(-0.00062525 -3.41926e-05 -8.84154e-05)
(-0.000449401 -3.33914e-05 -7.94488e-05)
(-0.000291948 -3.18254e-05 -7.05768e-05)
(-0.000154473 -3.05078e-05 -6.08144e-05)
(-2.82095e-05 -2.97922e-05 -3.65065e-05)
(2.18128e-05 -2.79796e-05 1.94584e-05)
(-1.54564e-05 -2.7235e-05 1.31645e-05)
(8.14294e-06 -2.95679e-05 -1.86954e-05)
(7.59142e-05 -3.17949e-05 -3.24828e-05)
(0.000151779 -3.59426e-05 -3.82528e-05)
(0.000242404 -4.25696e-05 -4.45651e-05)
(0.000350633 -5.12357e-05 -5.3422e-05)
(0.000481526 -6.05325e-05 -6.47398e-05)
(0.000640229 -6.88122e-05 -7.64751e-05)
(0.000820536 -7.11476e-05 -8.43976e-05)
(0.00101647 -6.9506e-05 -8.13705e-05)
(0.00117631 -4.71124e-05 -6.08421e-05)
(0.00126351 -6.49254e-05 -8.95687e-07)
(0.00121128 -0.000112643 0.000102611)
(0.00103226 -0.000153463 0.000162556)
(0.000807672 -0.000185943 0.000192235)
(0.000566798 -0.000205309 0.000195198)
(0.000339102 -0.000216532 0.000190174)
(0.000122491 -0.000220706 0.00018611)
(-8.92536e-05 -0.000219163 0.000186001)
(-0.000306449 -0.000211939 0.00018982)
(-0.000535324 -0.000197937 0.000194597)
(-0.000778138 -0.000176166 0.000191535)
(-0.00100597 -0.00014233 0.000162234)
(-0.00118949 -0.00010129 0.000103108)
(-0.00124913 -5.56658e-05 1.35977e-06)
(-0.00116776 -4.04998e-05 -5.9969e-05)
(-0.00100836 -6.3864e-05 -8.30231e-05)
(-0.000808194 -6.703e-05 -8.94518e-05)
(-0.000616747 -6.66934e-05 -8.50566e-05)
(-0.000440422 -6.12265e-05 -7.70754e-05)
(-0.000284917 -5.56888e-05 -6.88296e-05)
(-0.000150278 -5.17284e-05 -5.95799e-05)
(-2.75085e-05 -4.96699e-05 -3.60962e-05)
(2.11443e-05 -4.64611e-05 1.83919e-05)
(-1.50938e-05 -3.6572e-05 1.23291e-05)