/*--------------------------------*- C++ -*----------------------------------*\
| =========                 |                                                 |
| \\      /  F ield         | OpenFOAM: The Open Source CFD Toolbox           |
|  \\    /   O peration     | Version:  2112                                  |
|   \\  /    A nd           | Website:  www.openfoam.com                      |
|    \\/     M anipulation  |                                                 |
\*---------------------------------------------------------------------------*/
FoamFile
{
    version     2.0;
    format      ascii;
    arch        "LSB;label=32;scalar=64";
    class       volScalarField;
    location    "3.3";
    object      epsilon;
}
// * * * * * * * * * * * * * * * * * * * * * * * * * * * * * * * * * * * * * //

dimensions      [0 2 -3 0 0 0 0];

internalField   nonuniform List<scalar> 
64906
(
0.000240746
0.000280603
0.000305451
0.000317273
0.000322364
0.000324402
0.000325163
0.000325425
0.000325502
0.000325511
0.0003255
0.000325486
0.000325473
0.000325459
0.000325446
0.000325432
0.000325418
0.000325406
0.0003254
0.000325407
0.00032542
0.000325433
0.000325445
0.000325456
0.000325462
0.000325451
0.000325386
0.000325141
0.000324394
0.000322367
0.000317283
0.000305469
0.000280624
0.000240762
0.000280627
0.000510953
0.000648219
0.000719816
0.000755007
0.000771118
0.000777896
0.000780444
0.000781205
0.00078126
0.000781078
0.000780862
0.000780702
0.000780611
0.000780569
0.000780547
0.000780533
0.000780525
0.000780526
0.000780534
0.000780549
0.00078057
0.000780605
0.000780669
0.000780734
0.000780651
0.000779963
0.000777559
0.00077094
0.00075496
0.000719854
0.000648297
0.000511028
0.000280671
0.000305518
0.000648281
0.00086347
0.000982445
0.00104459
0.0010748
0.00108817
0.00109326
0.00109454
0.0010942
0.00109332
0.00109248
0.0010919
0.00109159
0.00109147
0.00109142
0.00109139
0.00109138
0.00109138
0.0010914
0.00109144
0.00109149
0.00109159
0.00109183
0.00109217
0.0010923
0.00109123
0.00108664
0.00107386
0.00104416
0.000982357
0.000863554
0.000648415
0.000305593
0.000317371
0.000719946
0.000982528
0.00113355
0.00121553
0.00125673
0.00127521
0.00128173
0.00128226
0.00128009
0.00127714
0.0012746
0.00127288
0.00127199
0.00127162
0.00127142
0.00127129
0.00127122
0.00127122
0.0012713
0.00127145
0.00127165
0.00127199
0.00127275
0.00127408
0.00127549
0.00127545
0.00127036
0.0012536
0.00121388
0.00113291
0.000982443
0.000720079
0.000317471
0.00032248
0.000755184
0.00104475
0.00121562
0.00131053
0.0013588
0.00137972
0.00138516
0.0013821
0.00137495
0.00136705
0.00136078
0.00135676
0.00135481
0.00135402
0.00135351
0.00135311
0.0013529
0.00135291
0.00135314
0.00135354
0.00135405
0.0013548
0.00135659
0.00136009
0.0013649
0.001369
0.0013671
0.0013505
0.00130594
0.00121358
0.00104414
0.000755203
0.000322594
0.000324528
0.00077132
0.00107501
0.00125694
0.00135897
0.00141022
0.00142994
0.00143009
0.00141809
0.00139992
0.0013818
0.00136889
0.00136131
0.00135809
0.00135702
0.00135606
0.00135519
0.00135472
0.00135473
0.00135522
0.0013561
0.00135707
0.00135809
0.00136114
0.00136813
0.00137937
0.00139318
0.00140115
0.00139128
0.00134837
0.00125199
0.00107326
0.000771028
0.000324638
0.000325292
0.000778117
0.00108847
0.00127564
0.00138035
0.00143065
0.00144463
0.00143303
0.00140293
0.00136275
0.00132545
0.00130383
0.00129326
0.00129013
0.00128994
0.00128857
0.00128706
0.00128624
0.00128625
0.00128709
0.00128862
0.00129
0.00129015
0.00129312
0.00130311
0.00132302
0.00135579
0.00138516
0.00139213
0.00135892
0.00126549
0.00108463
0.000777215
0.000325372
0.000325551
0.000780694
0.00109373
0.00128266
0.0013869
0.00143277
0.00143582
0.00140354
0.00134054
0.00125806
0.00118513
0.00116117
0.00115603
0.00115853
0.0011622
0.00116106
0.00115912
0.00115809
0.0011581
0.00115916
0.00116112
0.00116227
0.00115859
0.00115596
0.00116062
0.00118298
0.00125142
0.00132284
0.00136207
0.00134844
0.00126455
0.00108671
0.000778839
0.000325568
0.000325622
0.000781518
0.00109536
0.00128422
0.00138617
0.00142516
0.00141266
0.00134948
0.0012313
0.00106575
0.000917073
0.000932179
0.000962716
0.000983589
0.00099538
0.000996367
0.000995272
0.000994605
0.000994618
0.000995311
0.000996431
0.00099547
0.000983683
0.000962753
0.000931919
0.000915572
0.00106001
0.00121436
0.00130834
0.00132502
0.00125596
0.00108434
0.000778454
0.000325544
0.000325625
0.000781698
0.00109562
0.00128382
0.00138316
0.00141513
0.00138609
0.00128592
0.00108673
0.000758811
0.000440857
0.000618145
0.000750065
0.000805862
0.000827055
0.000832916
0.00083425
0.000834473
0.000834485
0.000834284
0.000832975
0.000827144
0.000805982
0.000750214
0.000618262
0.000440444
0.000754745
0.00107098
0.00124546
0.00129868
0.00124576
0.00108086
0.000777497
0.000325439
0.00032561
0.000781715
0.00109564
0.00128351
0.00138153
0.00140982
0.00137137
0.00124633
0.000974638
0.000458693
0.000382135
0.000602927
0.000684043
0.000709207
0.000717324
0.000719581
0.000720083
0.000720089
0.0007196
0.000717359
0.000709265
0.000684142
0.000603084
0.000382224
0.000457006
0.000960043
0.00120632
0.00128409
0.00124035
0.001079
0.00077694
0.000325357
0.000325594
0.000781747
0.00109589
0.00128419
0.00138311
0.00141356
0.00138117
0.0012751
0.00106779
0.000732462
0.000422561
0.000549295
0.000658063
0.000702135
0.000715148
0.000722143
0.000724023
0.000724281
0.000724279
0.000724016
0.000722133
0.000715134
0.000702122
0.000658045
0.000549141
0.000421998
0.000728185
0.00105197
0.00123457
0.00129354
0.00124374
0.00108017
0.000777207
0.00032536
0.000325583
0.000781829
0.00109638
0.00128567
0.0013869
0.00142273
0.00140282
0.00132575
0.00118537
0.000989
0.00080384
0.000758809
0.000740863
0.000735862
0.000734182
0.000734748
0.000734753
0.000734586
0.000734579
0.000734733
0.000734711
0.000734119
0.000735757
0.000740655
0.000758273
0.000802139
0.000983243
0.00116849
0.00128449
0.00131459
0.00125235
0.00108338
0.000778102
0.000325412
0.000325569
0.000781925
0.00109694
0.00128735
0.00139113
0.00143251
0.00142405
0.00136926
0.00126859
0.00113072
0.000986081
0.000877337
0.000798931
0.000763504
0.000750578
0.000746471
0.000745065
0.000744576
0.000744565
0.000745033
0.000746415
0.000750487
0.000763352
0.00079865
0.000876676
0.000983957
0.00112426
0.00125097
0.0013273
0.00133516
0.00126147
0.00108696
0.000779125
0.000325464
0.00032555
0.000782003
0.00109742
0.00128876
0.00139457
0.00144011
0.00143944
0.00139787
0.00131658
0.00120039
0.00106489
0.000934178
0.000830455
0.00078009
0.000760765
0.000754162
0.00075196
0.000751251
0.000751235
0.000751915
0.000754091
0.000760659
0.00077992
0.000830151
0.000933465
0.0010626
0.00119359
0.00129849
0.00135536
0.00134996
0.00126847
0.00108981
0.000779945
0.000325491
0.000325528
0.000782048
0.00109775
0.00128972
0.00139687
0.00144497
0.00144875
0.00141394
0.00134119
0.00123259
0.00109843
0.000959249
0.000845091
0.000788216
0.000765888
0.000758113
0.000755497
0.00075463
0.000754607
0.00075544
0.000758031
0.000765773
0.000788038
0.000844775
0.00095842
0.00109606
0.00122561
0.00132281
0.00137107
0.00135885
0.00127288
0.00109165
0.000780464
0.000325489
0.000325502
0.000782064
0.00109794
0.00129029
0.00139817
0.00144763
0.00145361
0.00142186
0.00135252
0.00124638
0.00111199
0.000969433
0.000851077
0.000791609
0.000768042
0.000759766
0.000756941
0.00075595
0.000755919
0.000756872
0.000759676
0.000767921
0.000791425
0.000850755
0.000968578
0.00110958
0.00123931
0.00133399
0.00137877
0.00136344
0.00127525
0.00109265
0.000780734
0.000325467
0.000325478
0.000782062
0.00109804
0.00129055
0.00139876
0.00144878
0.00145563
0.00142503
0.00135684
0.00125138
0.00111671
0.000972941
0.000853136
0.000792778
0.000768774
0.000760307
0.00075738
0.000756297
0.000756256
0.000757301
0.00076021
0.000768647
0.000792591
0.000852811
0.000972084
0.00111429
0.00124428
0.00133824
0.00138183
0.00136534
0.00127625
0.00109309
0.000780838
0.000325435
0.000325458
0.000782053
0.00109805
0.00129058
0.0013988
0.00144884
0.00145571
0.00142513
0.00135697
0.00125153
0.00111687
0.000973086
0.000853236
0.000792837
0.000768797
0.000760301
0.000757339
0.000756201
0.000756151
0.000757251
0.000760198
0.000768667
0.000792648
0.000852912
0.000972236
0.00111446
0.00124444
0.00133839
0.00138195
0.00136542
0.00127631
0.00109312
0.000780833
0.000325403
0.000325455
0.000782043
0.00109798
0.00129037
0.00139831
0.00144782
0.00145386
0.00142219
0.00135292
0.00124684
0.00111248
0.000969899
0.000851394
0.000791798
0.000768125
0.00075976
0.000756833
0.0007557
0.000755647
0.000756741
0.000759654
0.000767993
0.000791612
0.000851079
0.000969071
0.00111011
0.00123981
0.00133443
0.00137912
0.0013637
0.00127542
0.00109275
0.000780727
0.000325393
0.000325472
0.000782027
0.00109781
0.00128986
0.00139709
0.00144529
0.00144918
0.00141451
0.00134189
0.00123342
0.00109935
0.000960126
0.000845681
0.000788578
0.000766065
0.000758141
0.000755366
0.000754318
0.000754271
0.000755275
0.000758035
0.000765938
0.000788403
0.000845387
0.000959346
0.00109705
0.00122652
0.00132358
0.00137167
0.00135929
0.00127318
0.00109181
0.00078047
0.000325405
0.000325493
0.000781989
0.00109751
0.00128895
0.00139487
0.00144054
0.00144003
0.00139867
0.00131763
0.00120169
0.00106637
0.000935479
0.000831397
0.000780668
0.000761068
0.000754253
0.000751853
0.000750974
0.000750937
0.000751772
0.000754153
0.000760952
0.000780515
0.000831147
0.000934819
0.00106423
0.00119503
0.00129964
0.00135622
0.00135058
0.00126888
0.00109003
0.000779974
0.000325405
0.000325511
0.000781916
0.00109704
0.00128756
0.00139146
0.00143301
0.00142476
0.00137027
0.00126999
0.0011326
0.000988344
0.000879225
0.000800205
0.000764189
0.000750869
0.000746481
0.00074487
0.000744247
0.000744221
0.000744803
0.000746394
0.000750764
0.00076406
0.000800022
0.000878766
0.000986489
0.00112637
0.00125249
0.00132835
0.00133587
0.00126194
0.00108723
0.000779176
0.000325379
0.000325524
0.000781806
0.00109644
0.0012858
0.00138713
0.00142312
0.00140344
0.00132676
0.00118698
0.000991406
0.000806963
0.000761376
0.000741816
0.000735795
0.000733529
0.000733719
0.00073352
0.000733252
0.000733232
0.000733462
0.000733623
0.000733384
0.000735605
0.000741633
0.000761174
0.000805675
0.000985947
0.00117011
0.00128539
0.00131513
0.00125271
0.0010836
0.000778145
0.000325326
0.00032553
0.000781644
0.00109573
0.00128397
0.00138286
0.00141337
0.00138116
0.0012755
0.00106901
0.000734925
0.000423938
0.000550031
0.000655478
0.000697629
0.000709451
0.00071584
0.000717487
0.000717653
0.000717627
0.000717394
0.000715625
0.000709
0.000696886
0.000654665
0.00054987
0.000423432
0.000730886
0.00105265
0.00123433
0.00129319
0.00124354
0.0010801
0.000777152
0.000325268
0.000325523
0.000781326
0.00109479
0.00128218
0.0013798
0.00140781
0.00136919
0.00124409
0.000972829
0.000458121
0.000376539
0.000587274
0.00066227
0.000683562
0.000690232
0.000692055
0.000692411
0.000692337
0.000691767
0.000689487
0.000681855
0.000659023
0.000582726
0.000373923
0.000455199
0.00095554
0.00120194
0.00128098
0.00123849
0.00107804
0.000776547
0.000325241
0.000325459
0.000780453
0.00109284
0.00127951
0.00137759
0.00140859
0.00137869
0.00127754
0.00107739
0.000749615
0.000433951
0.000585735
0.000696956
0.000733889
0.000742815
0.000745324
0.00074608
0.00074622
0.000746069
0.000745431
0.00074342
0.000737895
0.000723269
0.00067914
0.00056861
0.000426791
0.000735525
0.00105289
0.00123186
0.0012895
0.00123999
0.00107765
0.000776167
0.000325227
0.00032522
0.000777936
0.00108766
0.00127264
0.00137145
0.001408
0.00139318
0.00132668
0.00120275
0.00102722
0.000861428
0.00084077
0.00082965
0.000807495
0.000793824
0.000788372
0.000786613
0.00078607
0.000785829
0.00078551
0.000784858
0.000783917
0.000783594
0.000784484
0.00079138
0.000820171
0.000991297
0.00116651
0.00127592
0.00130323
0.00124163
0.0010758
0.000774695
0.000325083
0.00032448
0.000771262
0.00107455
0.00125486
0.00135244
0.00139338
0.00139202
0.00135364
0.00127949
0.00117616
0.00106716
0.000986818
0.000910738
0.000842458
0.000809383
0.000797063
0.000793114
0.000791972
0.00079167
0.00079168
0.00079225
0.000794996
0.000805104
0.000834936
0.000903418
0.000995898
0.00112087
0.00123323
0.00129964
0.00130384
0.00123294
0.00106638
0.00076917
0.000324434
0.000322455
0.000755257
0.00104469
0.00121465
0.00130679
0.00134843
0.00135565
0.0013359
0.00129162
0.00122506
0.00114272
0.00105383
0.000959701
0.000876599
0.000836075
0.000820661
0.000815605
0.000814135
0.0008138
0.000813992
0.000815215
0.000819804
0.000834511
0.000874587
0.000959605
0.00106191
0.00116392
0.00124359
0.00128422
0.0012744
0.00120054
0.00103972
0.000754144
0.000322482
0.000317366
0.000720127
0.000982803
0.00113349
0.0012141
0.0012517
0.00126232
0.0012538
0.0012285
0.00118641
0.00112811
0.0010566
0.000978497
0.000909864
0.000873176
0.000858115
0.00085283
0.000851244
0.000850914
0.000851169
0.000852682
0.000857813
0.00087266
0.000909349
0.000979238
0.00106051
0.00113512
0.00118859
0.00121125
0.00119464
0.00112553
0.000980293
0.000719726
0.00031744
0.000305539
0.000648527
0.000863935
0.000982951
0.00104466
0.00107334
0.00108302
0.00108052
0.00106786
0.00104454
0.00100968
0.000964341
0.000913898
0.000869595
0.000843981
0.000832552
0.000828338
0.000827019
0.000826735
0.000826995
0.000828277
0.000832436
0.000843812
0.000869519
0.000914331
0.000965732
0.00101121
0.00104185
0.00105191
0.00103504
0.000979435
0.000863097
0.000648562
0.000305641
0.000280675
0.000511176
0.000648663
0.000720439
0.000755655
0.000771421
0.000777066
0.000776969
0.000772439
0.000763116
0.000748141
0.000727663
0.000704277
0.000683367
0.000670601
0.000664572
0.000662231
0.000661458
0.00066129
0.000661465
0.000662238
0.000664573
0.000670595
0.000683402
0.000704458
0.000728056
0.000748231
0.000760952
0.00076364
0.000752563
0.000719601
0.000648688
0.00051137
0.000280769
0.00024079
0.000280723
0.000305681
0.000317608
0.000322795
0.000324909
0.000325693
0.00032585
0.000325558
0.000324741
0.000323345
0.000321229
0.0003186
0.000316094
0.000314506
0.000313713
0.000313357
0.000313188
0.000313128
0.000313196
0.000313366
0.000313716
0.000314501
0.000316082
0.000318587
0.00032122
0.000323299
0.000324501
0.000324556
0.000322843
0.000317793
0.000305866
0.000280848
0.000240853
0.00031984
0.000461725
0.000554284
0.000602958
0.000626479
0.000637017
0.000641356
0.000642952
0.00064341
0.000643423
0.000643284
0.000643119
0.000642984
0.00064289
0.000642829
0.000642787
0.000642756
0.000642739
0.000642737
0.000642751
0.000642779
0.000642818
0.000642873
0.000642948
0.000643023
0.000643002
0.000642596
0.000641093
0.000636852
0.000626394
0.000602926
0.000554283
0.000461737
0.000319856
0.000461731
0.000569189
0.000673488
0.000734449
0.000765956
0.000780801
0.000787165
0.00078957
0.000790261
0.000790259
0.000790021
0.000789753
0.000789542
0.000789406
0.000789327
0.000789278
0.000789247
0.000789231
0.000789232
0.000789248
0.000789279
0.000789327
0.000789398
0.000789505
0.000789617
0.000789585
0.000788967
0.000786707
0.000780508
0.000765799
0.000734386
0.000673476
0.000569197
0.000461747
0.000554332
0.000673515
0.000800936
0.000879822
0.000922886
0.000944248
0.000953795
0.000957424
0.000958286
0.00095796
0.000957242
0.000956541
0.000956026
0.000955715
0.000955548
0.000955451
0.000955392
0.000955362
0.000955363
0.000955395
0.000955456
0.00095555
0.000955701
0.000955955
0.000956289
0.000956461
0.000955746
0.000952489
0.000943384
0.000922405
0.000879608
0.000800875
0.000673522
0.000554367
0.000603054
0.000734511
0.000879861
0.000972797
0.00102525
0.00105204
0.00106412
0.00106837
0.00106866
0.00106717
0.00106518
0.00106345
0.00106226
0.00106159
0.00106125
0.00106106
0.00106093
0.00106087
0.00106087
0.00106094
0.00106107
0.00106126
0.00106157
0.00106216
0.00106307
0.00106404
0.00106403
0.0010607
0.00104973
0.00102393
0.000972167
0.000879635
0.000734475
0.000603087
0.000626616
0.000766047
0.000922966
0.0010253
0.00108416
0.0011145
0.0011277
0.00113113
0.00112921
0.00112477
0.00111993
0.00111609
0.00111366
0.0011124
0.0011118
0.00111145
0.00111121
0.00111107
0.00111107
0.00111121
0.00111146
0.00111181
0.00111237
0.00111353
0.00111561
0.00111849
0.00112088
0.00111952
0.00110896
0.00108094
0.0010237
0.000922322
0.000765866
0.000626586
0.000637181
0.000780916
0.000944373
0.00105217
0.00111461
0.00114634
0.00115863
0.00115883
0.00115164
0.0011409
0.00113039
0.00112289
0.00111869
0.00111679
0.00111599
0.00111551
0.0011151
0.00111485
0.00111486
0.00111511
0.00111552
0.001116
0.00111676
0.00111855
0.00112236
0.00112877
0.00113651
0.00114081
0.00113429
0.00110759
0.00104863
0.000942864
0.000780402
0.000636973
0.000641541
0.000787304
0.00095399
0.00106441
0.00112811
0.00115908
0.00116785
0.00116113
0.0011436
0.00112074
0.00110009
0.00108726
0.00108175
0.00108
0.00107949
0.0010792
0.0010787
0.00107834
0.00107835
0.00107871
0.00107922
0.00107951
0.00107999
0.00108162
0.00108673
0.00109841
0.00111613
0.00113215
0.00113526
0.00111435
0.00105746
0.000950952
0.000786179
0.000640984
0.000643163
0.000789754
0.000957761
0.00106901
0.00113226
0.00116048
0.00116282
0.0011443
0.00110877
0.00106432
0.00102744
0.00100789
0.00100489
0.0010063
0.00100729
0.00100833
0.00100818
0.00100784
0.00100785
0.0010082
0.00100835
0.00100732
0.00100631
0.00100479
0.00100743
0.00102581
0.00105968
0.00109707
0.00111778
0.00110807
0.0010569
0.000952426
0.000787695
0.000642049
0.000643666
0.000790532
0.000958898
0.00106999
0.00113178
0.00115593
0.00114942
0.0011142
0.00105126
0.000972242
0.000920134
0.000883523
0.000894139
0.0009058
0.000909843
0.00091512
0.000916588
0.00091666
0.000916666
0.000916607
0.000915152
0.000909883
0.000905837
0.000894109
0.00088317
0.000918571
0.000967631
0.00103946
0.00108736
0.00109407
0.00105142
0.000950728
0.000787314
0.000641844
0.000643757
0.000790685
0.000959038
0.00106967
0.00112987
0.00114999
0.00113462
0.00108169
0.000987736
0.000875412
0.00101663
0.000731898
0.00076956
0.000801153
0.000808374
0.000821959
0.000826405
0.000827249
0.000827255
0.000826426
0.000821995
0.000808421
0.000801219
0.000769611
0.000731696
0.00101386
0.000870364
0.000975673
0.00105458
0.00107891
0.00104499
0.00094824
0.000786388
0.000641263
0.000643733
0.000790677
0.000958996
0.00106938
0.00112877
0.00114686
0.001127
0.00106587
0.000969061
0.00109757
0.000759585
0.000671643
0.000713094
0.000735293
0.000739127
0.000739606
0.000739638
0.000739642
0.000739617
0.000739146
0.000735329
0.000713151
0.000671711
0.000759691
0.00108686
0.0009563
0.00103848
0.00107105
0.00104159
0.000946845
0.000785811
0.000640884
0.00064371
0.000790687
0.000959106
0.0010697
0.00112956
0.00114866
0.00113112
0.0010742
0.000973296
0.000846989
0.000924581
0.000673211
0.000731118
0.000777253
0.000816372
0.000796393
0.000788458
0.000786676
0.000786671
0.000788442
0.000796365
0.000816357
0.000777232
0.000731062
0.000672856
0.000921592
0.000841832
0.000961119
0.00104691
0.00107512
0.00104327
0.00094746
0.000785992
0.000640965
0.00064371
0.000790754
0.000959398
0.00107056
0.00113175
0.00115385
0.00114277
0.00109893
0.00102118
0.00091781
0.000828672
0.000763411
0.000756439
0.000757776
0.000764287
0.000757919
0.000754703
0.000753768
0.000753765
0.000754693
0.000757901
0.000764266
0.000757722
0.000756293
0.00076293
0.000827012
0.000913093
0.00100919
0.00107171
0.00108676
0.00104837
0.000949535
0.000786765
0.000641397
0.00064372
0.000790844
0.000959753
0.00107158
0.00113428
0.00115964
0.00115507
0.00112324
0.00106509
0.000985877
0.000902132
0.000833203
0.000790633
0.000764741
0.000755007
0.000750247
0.000748378
0.000747798
0.000747794
0.000748368
0.000750227
0.000754969
0.000764658
0.000790441
0.000832664
0.000900457
0.000981122
0.00105306
0.00109596
0.00109896
0.00105403
0.000951934
0.000787689
0.000641906
0.000643724
0.000790925
0.000960062
0.00107245
0.00113638
0.00116424
0.00116434
0.00114034
0.00109348
0.0010266
0.000948299
0.000872795
0.000814764
0.000776111
0.000759471
0.000753473
0.000751534
0.000750985
0.000750981
0.000751522
0.000753449
0.000759425
0.000776016
0.000814556
0.000872226
0.000946568
0.00102176
0.00108134
0.00111294
0.00110809
0.00105848
0.000953884
0.000788451
0.000642307
0.000643716
0.000790979
0.000960277
0.00107305
0.00113779
0.00116722
0.00117006
0.00115028
0.00110889
0.00104723
0.000970846
0.000891822
0.000827201
0.000783025
0.000763458
0.000756538
0.000754389
0.000753804
0.0007538
0.000754376
0.000756513
0.00076341
0.000782927
0.000826987
0.000891228
0.000969075
0.00104232
0.00109665
0.00112276
0.00111368
0.00106132
0.000955158
0.000788949
0.000642547
0.000643697
0.000791007
0.000960402
0.00107339
0.00113858
0.00116884
0.00117306
0.00115526
0.00111619
0.00105647
0.000980519
0.000899854
0.000832522
0.000786127
0.000765386
0.000758034
0.000755762
0.000755145
0.00075514
0.000755747
0.000758008
0.000765337
0.000786026
0.000832304
0.00089924
0.000978726
0.00105151
0.00110389
0.00112766
0.00111658
0.00106284
0.000955855
0.000789219
0.000642657
0.000643676
0.000791018
0.000960459
0.00107355
0.00113893
0.00116954
0.00117431
0.00115725
0.001119
0.00105987
0.000983962
0.000902662
0.000834374
0.000787217
0.000766072
0.00075856
0.000756236
0.000755599
0.000755593
0.00075622
0.000758534
0.000766021
0.000787116
0.000834155
0.000902044
0.00098216
0.0010549
0.00110666
0.0011296
0.00111778
0.00106348
0.000956152
0.000789331
0.000642685
0.000643661
0.000791016
0.000960463
0.00107356
0.00113895
0.00116956
0.00117434
0.0011573
0.00111905
0.00105994
0.000984035
0.000902736
0.000834434
0.000787258
0.000766093
0.00075857
0.000756238
0.000755593
0.000755586
0.000756221
0.000758543
0.000766043
0.000787156
0.000834217
0.000902121
0.000982237
0.00105497
0.00110672
0.00112965
0.00111781
0.0010635
0.000956162
0.000789332
0.000642665
0.000643657
0.000791004
0.000960414
0.00107342
0.00113863
0.00116892
0.00117316
0.0011554
0.00111636
0.00105668
0.000980754
0.000900092
0.000832716
0.000786259
0.000765461
0.000758074
0.00075578
0.000755143
0.000755135
0.000755763
0.000758048
0.000765412
0.000786161
0.000832505
0.00089949
0.000978975
0.00105174
0.00110407
0.00112779
0.00111668
0.0010629
0.000955887
0.000789224
0.000642606
0.000643662
0.000790976
0.000960297
0.00107309
0.00113787
0.00116733
0.00117022
0.00115051
0.00110919
0.00104761
0.000971285
0.000892272
0.000827569
0.000783281
0.000763614
0.000756638
0.000754456
0.000753846
0.00075384
0.000754442
0.000756615
0.000763571
0.000783193
0.000827375
0.000891698
0.000969547
0.00104273
0.00109698
0.001123
0.00111384
0.00106142
0.000955211
0.000788962
0.000642481
0.000643665
0.000790923
0.000960086
0.00107251
0.00113648
0.0011644
0.00116457
0.00114067
0.00109393
0.0010272
0.000949019
0.000873514
0.000815353
0.000776506
0.000759709
0.000753639
0.000751665
0.000751093
0.000751089
0.000751654
0.000753622
0.000759677
0.000776436
0.000815189
0.000873
0.000947351
0.00102241
0.00108182
0.00111327
0.00110831
0.00105862
0.000953955
0.000788472
0.000642235
0.000643654
0.000790838
0.000959769
0.00107163
0.00113438
0.0011598
0.00115532
0.00112364
0.00106569
0.000986722
0.0009032
0.000834259
0.000791365
0.000765098
0.000755095
0.000750262
0.000748366
0.000747772
0.00074777
0.000748359
0.000750248
0.000755066
0.000765037
0.000791232
0.000833819
0.000901628
0.000982025
0.00105365
0.00109633
0.00109918
0.00105416
0.000952001
0.000787708
0.000641826
0.000643625
0.00079072
0.000959364
0.00107054
0.00113175
0.00115391
0.00114292
0.00109924
0.00102176
0.000918794
0.000830064
0.000764591
0.000756645
0.000757185
0.000763166
0.000756733
0.000753489
0.000752543
0.00075254
0.000753475
0.000756693
0.000763083
0.000757033
0.000756426
0.000764165
0.000828511
0.000914044
0.00100962
0.00107185
0.00108679
0.00104837
0.000949527
0.000786749
0.00064129
0.000643565
0.000790557
0.000958893
0.00106941
0.00112921
0.0011483
0.00113079
0.00107396
0.000973283
0.00084745
0.000927643
0.000672327
0.000728128
0.000772686
0.000810836
0.00079049
0.000782403
0.000780597
0.000780591
0.000782364
0.000790349
0.000810518
0.000771982
0.000727093
0.000671143
0.000924742
0.000841609
0.000960329
0.00104608
0.00107447
0.00104282
0.000947194
0.000785846
0.000640774
0.000643402
0.000790245
0.000958251
0.00106831
0.00112743
0.00114529
0.00112523
0.00106382
0.000966485
0.00109151
0.000736413
0.000653648
0.000690476
0.000709271
0.000711749
0.000711883
0.000711848
0.000711793
0.000711648
0.000711074
0.000707623
0.0006871
0.000648074
0.000725997
0.00107437
0.000950872
0.00103475
0.00106853
0.00103996
0.000945874
0.000785294
0.000640457
0.000642878
0.000789394
0.000956853
0.00106658
0.001126
0.00114545
0.00112935
0.00107532
0.000979243
0.000861452
0.000972644
0.000693799
0.00071898
0.000737401
0.000736152
0.000745721
0.000749298
0.000750052
0.000749928
0.000748743
0.000744033
0.000731722
0.000727847
0.00070302
0.000673378
0.000937982
0.000844109
0.000960287
0.00104458
0.0010723
0.00104067
0.000945547
0.000784901
0.000640223
0.000641293
0.000786974
0.000953118
0.00106204
0.00112202
0.00114464
0.0011365
0.00109874
0.00103096
0.000942141
0.00087091
0.00081154
0.000794187
0.00078011
0.000767518
0.000765355
0.000765047
0.000764896
0.000764687
0.000764079
0.000762273
0.00075911
0.000761495
0.000764515
0.000776356
0.000837575
0.000916561
0.00100695
0.00106592
0.00107946
0.00104136
0.000944104
0.000783438
0.000639242
0.000637004
0.000780681
0.000943727
0.00105037
0.00110992
0.00113522
0.00113472
0.00111209
0.00106903
0.00101043
0.000949312
0.000895769
0.000853074
0.000820476
0.000796201
0.0007861
0.000782756
0.000781763
0.000781482
0.000781421
0.000781714
0.000783854
0.000793006
0.000815064
0.000849923
0.000907739
0.000977924
0.00104104
0.00107819
0.00107904
0.00103542
0.000937287
0.000778215
0.000635618
0.000626519
0.000765922
0.0009226
0.00102421
0.00108117
0.00110722
0.00111184
0.00109987
0.00107337
0.00103435
0.000987034
0.000936443
0.000887023
0.000847316
0.000818142
0.00080505
0.000800429
0.000799022
0.000798696
0.000798894
0.000800062
0.000804276
0.00081694
0.000845951
0.000887704
0.000943204
0.00100011
0.00104499
0.00106752
0.00106011
0.00101422
0.000918413
0.000764385
0.000625701
0.000603027
0.000734478
0.000879734
0.000972306
0.0010237
0.00104798
0.00105485
0.00104942
0.0010336
0.00100791
0.000973191
0.000931532
0.000887388
0.000849352
0.000823635
0.000811514
0.00080693
0.000805453
0.000805121
0.000805416
0.000806824
0.000811292
0.000823311
0.000849178
0.000888309
0.000934735
0.000977958
0.00100909
0.00102182
0.00101032
0.000966198
0.000877284
0.000733636
0.000602627
0.000554356
0.000673542
0.000800967
0.000879739
0.00092233
0.000942422
0.000949152
0.000947267
0.000938404
0.000922538
0.000899396
0.000869847
0.000837392
0.000808762
0.000789899
0.000780637
0.000776944
0.000775695
0.000775413
0.000775696
0.000776936
0.000780608
0.000789867
0.000808859
0.00083795
0.000871129
0.000900609
0.000920518
0.000926761
0.000914692
0.000876443
0.000799735
0.000673164
0.000554225
0.000461783
0.000569238
0.000673589
0.00073457
0.000765939
0.000780267
0.00078533
0.000784981
0.000780473
0.000771631
0.000757918
0.000739597
0.000718937
0.000700466
0.00068847
0.000682497
0.000680054
0.000679205
0.000679013
0.000679221
0.000680082
0.000682533
0.000688521
0.000700584
0.000719226
0.000740081
0.000758049
0.000769557
0.000772102
0.000762219
0.000733104
0.000673109
0.000569122
0.00046179
0.000319884
0.000461781
0.000554437
0.000603206
0.000626733
0.000637048
0.000640677
0.00064061
0.000637731
0.000631792
0.000622232
0.000609067
0.00059393
0.000580364
0.000571992
0.000567976
0.000566347
0.000565767
0.000565631
0.000565783
0.000566375
0.000568009
0.00057203
0.000580433
0.000594087
0.000609327
0.000622257
0.000630366
0.000632012
0.000624635
0.000602505
0.000554281
0.000461781
0.000319942
0.000367387
0.000592136
0.00074448
0.000828451
0.000871239
0.000891474
0.000900245
0.000903604
0.000904569
0.000904542
0.000904159
0.000903717
0.000903352
0.000903101
0.000902944
0.000902842
0.000902777
0.000902744
0.000902743
0.000902774
0.000902837
0.000902933
0.000903075
0.000903276
0.000903491
0.000903492
0.000902651
0.000899516
0.000890988
0.000870957
0.00082831
0.000744421
0.000592124
0.000367404
0.000592137
0.000672217
0.000783062
0.000852902
0.000891038
0.00090989
0.000918334
0.00092165
0.000922626
0.000922613
0.000922246
0.000921827
0.000921487
0.00092126
0.000921122
0.000921038
0.000920987
0.000920962
0.000920962
0.000920988
0.000921039
0.000921119
0.000921242
0.000921419
0.000921601
0.000921564
0.000920691
0.000917587
0.000909386
0.000890743
0.000852754
0.000782999
0.000672192
0.00059212
0.000744532
0.000783079
0.000896044
0.000973341
0.00101817
0.00104148
0.00105233
0.0010566
0.00105763
0.00105722
0.0010563
0.00105539
0.00105468
0.00105423
0.00105397
0.00105381
0.00105372
0.00105368
0.00105368
0.00105372
0.00105382
0.00105396
0.0010542
0.00105457
0.00105503
0.00105526
0.0010544
0.00105058
0.00104028
0.00101745
0.000972973
0.000895888
0.000783025
0.000744502
0.00082857
0.000852951
0.000973374
0.00105903
0.00111038
0.00113782
0.00115066
0.0011553
0.00115565
0.00115399
0.00115174
0.00114972
0.00114827
0.00114738
0.00114688
0.00114661
0.00114644
0.00114636
0.00114636
0.00114644
0.00114661
0.00114688
0.00114734
0.00114811
0.00114921
0.00115031
0.00115025
0.00114657
0.00113497
0.00110865
0.00105812
0.00097297
0.000852801
0.000828474
0.00087142
0.000891122
0.00101824
0.00111043
0.00116661
0.00119681
0.0012104
0.00121409
0.00121219
0.00120762
0.00120258
0.00119846
0.00119573
0.00119414
0.00119328
0.00119284
0.00119257
0.00119243
0.00119243
0.00119258
0.00119285
0.00119327
0.00119409
0.00119553
0.00119783
0.00120082
0.0012031
0.00120143
0.0011905
0.00116275
0.00110836
0.00101728
0.000890724
0.00087111
0.000891708
0.00091001
0.00104162
0.00113797
0.00119694
0.00122811
0.00124063
0.00124112
0.00123425
0.0012239
0.00121369
0.00120608
0.00120165
0.00119921
0.00119787
0.00119739
0.00119705
0.00119682
0.00119683
0.00119705
0.0011974
0.00119786
0.00119916
0.00120143
0.00120538
0.00121171
0.00121881
0.00122229
0.00121523
0.00118904
0.00113369
0.00103956
0.000909099
0.000890921
0.000900533
0.000918501
0.00105257
0.00115102
0.0012109
0.00124115
0.00125024
0.00124436
0.00122833
0.00120766
0.00118896
0.00117608
0.00117057
0.00116772
0.00116575
0.00116598
0.00116584
0.00116558
0.00116558
0.00116585
0.00116599
0.00116576
0.00116768
0.00117036