/*--------------------------------*- C++ -*----------------------------------*\
| =========                 |                                                 |
| \\      /  F ield         | OpenFOAM: The Open Source CFD Toolbox           |
|  \\    /   O peration     | Version:  2112                                  |
|   \\  /    A nd           | Website:  www.openfoam.com                      |
|    \\/     M anipulation  |                                                 |
\*---------------------------------------------------------------------------*/
FoamFile
{
    version     2.0;
    format      ascii;
    arch        "LSB;label=32;scalar=64";
    class       volScalarField;
    location    "3.3";
    object      k;
}
// * * * * * * * * * * * * * * * * * * * * * * * * * * * * * * * * * * * * * //

dimensions      [0 2 -2 0 0 0 0];

internalField   nonuniform List<scalar> 
64906
(
0.000354393
0.00039291
0.000416092
0.000426965
0.000431641
0.000433522
0.00043423
0.000434476
0.000434548
0.000434556
0.000434544
0.00043453
0.000434517
0.000434504
0.000434491
0.000434478
0.000434465
0.000434454
0.000434449
0.000434456
0.000434467
0.000434479
0.000434491
0.000434501
0.000434508
0.000434498
0.000434437
0.000434208
0.000433514
0.000431643
0.000426974
0.000416108
0.00039293
0.000354409
0.000392933
0.000586828
0.000688388
0.000738731
0.000763019
0.000774099
0.000778777
0.000780545
0.000781075
0.000781111
0.00078098
0.000780824
0.000780707
0.00078064
0.000780608
0.000780591
0.00078058
0.000780575
0.000780575
0.000780581
0.000780592
0.000780609
0.000780635
0.000780683
0.000780731
0.000780675
0.000780196
0.000778529
0.000773965
0.000762979
0.000738753
0.000688443
0.000586886
0.000392974
0.000416154
0.000688433
0.000834213
0.000909871
0.000948395
0.000966972
0.000975201
0.000978348
0.000979139
0.000978919
0.000978367
0.000977831
0.000977454
0.000977254
0.000977171
0.000977134
0.000977112
0.000977102
0.000977105
0.000977119
0.000977144
0.000977181
0.000977253
0.000977406
0.00097763
0.000977718
0.000977054
0.000974222
0.000966365
0.000948106
0.000909802
0.000834262
0.000688528
0.000416224
0.000427055
0.000738821
0.000909922
0.0010017
0.00105007
0.00107412
0.00108489
0.0010887
0.00108901
0.00108772
0.00108598
0.00108446
0.00108342
0.00108288
0.00108264
0.00108252
0.00108243
0.00108239
0.00108239
0.00108244
0.00108253
0.00108266
0.00108287
0.00108334
0.00108414
0.00108498
0.00108496
0.00108199
0.00107222
0.00104904
0.00100128
0.000909853
0.000738908
0.000427146
0.000431748
0.000763142
0.00094849
0.00105012
0.00110478
0.00113224
0.0011441
0.0011472
0.00114546
0.00114138
0.00113685
0.00113322
0.00113087
0.00112971
0.00112923
0.00112893
0.00112869
0.00112857
0.00112858
0.00112871
0.00112895
0.00112925
0.00112971
0.00113077
0.00113281
0.00113558
0.00113792
0.00113683
0.0011274
0.00110206
0.00104886
0.000948082
0.000763142
0.00043185
0.000433637
0.000774238
0.000967108
0.00107424
0.00113234
0.00116112
0.00117217
0.00117227
0.00116556
0.00115535
0.00114508
0.00113768
0.00113329
0.00113138
0.00113073
0.00113016
0.00112965
0.00112938
0.00112939
0.00112967
0.00113018
0.00113075
0.00113138
0.00113318
0.00113723
0.00114366
0.00115145
0.00115589
0.00115032
0.00112618
0.00107126
0.000965975
0.000774015
0.000433735
0.000434348
0.000778929
0.000975392
0.00108515
0.00114447
0.00117258
0.00118039
0.00117398
0.00115721
0.00113463
0.00111341
0.00110087
0.00109462
0.00109268
0.0010925
0.00109168
0.00109079
0.00109032
0.00109033
0.00109081
0.00109171
0.00109253
0.00109269
0.00109453
0.00110043
0.00111196
0.00113056
0.00114702
0.00115084
0.00113217
0.00107912
0.00097296
0.000778275
0.000434416
0.000434591
0.00078072
0.000978649
0.00108926
0.00114822
0.00117381
0.00117557
0.00115768
0.00112235
0.0010753
0.00103275
0.00101822
0.00101481
0.00101607
0.00101814
0.00101742
0.00101626
0.00101564
0.00101565
0.00101628
0.00101746
0.00101819
0.0010161
0.00101476
0.00101787
0.00103142
0.00107131
0.00111204
0.00113403
0.00112628
0.00107859
0.000974242
0.000779397
0.000434598
0.000434658
0.000781297
0.000979661
0.00109019
0.00114783
0.00116961
0.00116276
0.0011275
0.00106013
0.000962164
0.000869743
0.000878568
0.000897195
0.000909947
0.00091718
0.000917738
0.000917034
0.000916611
0.000916619
0.000917058
0.000917778
0.000917235
0.000910004
0.000897214
0.000878386
0.000868729
0.00095852
0.00104996
0.00110372
0.00111301
0.00107361
0.00097279
0.000779132
0.000434575
0.000434662
0.000781425
0.000979826
0.00108996
0.00114614
0.00116404
0.00114797
0.00109156
0.000975063
0.000766616
0.00053289
0.00066709
0.000758663
0.000795791
0.000809723
0.000813526
0.000814384
0.000814527
0.000814534
0.000814407
0.000813565
0.000809782
0.000795871
0.000758763
0.00066717
0.000532534
0.00076372
0.0009652
0.00106778
0.00109802
0.00106767
0.000970649
0.000778469
0.000434478
0.000434649
0.000781438
0.000979842
0.00108978
0.00114522
0.00116106
0.00113972
0.00106886
0.00090653
0.000547474
0.000483499
0.000655081
0.000712612
0.000730018
0.000735624
0.00073719
0.00073754
0.000737544
0.000737203
0.000735648
0.000730059
0.000712683
0.000655197
0.000483575
0.000546051
0.000897053
0.00104509
0.00108966
0.00106451
0.000969498
0.000778082
0.000434401
0.000434633
0.000781462
0.000979996
0.00109017
0.00114609
0.0011631
0.00114511
0.00108516
0.000963281
0.000748197
0.000517572
0.000615387
0.000693846
0.000724409
0.000733273
0.000738135
0.000739459
0.000739647
0.000739646
0.000739455
0.000738129
0.000733263
0.0007244
0.000693832
0.000615266
0.000517087
0.000745127
0.000953324
0.00106127
0.00109496
0.00106644
0.0009702
0.000778263
0.000434403
0.000434623
0.000781519
0.0009803
0.00109103
0.00114821
0.00116817
0.00115707
0.00111372
0.00103273
0.000914113
0.000794878
0.00076367
0.000750791
0.000747073
0.000745802
0.000746192
0.000746211
0.000746102
0.000746098
0.000746197
0.000746167
0.000745758
0.000747
0.000750646
0.000763292
0.000793693
0.000910374
0.00102248
0.00108972
0.00110686
0.0010714
0.000972163
0.000778879
0.000434452
0.000434611
0.000781588
0.000980648
0.00109201
0.00115059
0.00117359
0.0011688
0.00113804
0.0010806
0.000999602
0.000911099
0.000841536
0.000789635
0.000765609
0.000756736
0.000753913
0.000752951
0.000752617
0.00075261
0.000752929
0.000753875
0.000756674
0.000765505
0.000789442
0.000841089
0.000909714
0.000995591
0.00107014
0.0011139
0.00111848
0.00107668
0.000974354
0.000779588
0.000434503
0.000434594
0.000781645
0.000980944
0.00109283
0.00115254
0.00117781
0.00117731
0.00115396
0.00110782
0.00104041
0.000959213
0.000877711
0.00081041
0.000776703
0.000763561
0.00075904
0.00075753
0.000757043
0.000757032
0.000757499
0.000758992
0.000763488
0.000776587
0.000810203
0.000877238
0.000957755
0.00103627
0.00109721
0.00112968
0.00112685
0.00108075
0.000976106
0.000780159
0.000434529
0.000434574
0.000781678
0.000981152
0.0010934
0.00115385
0.00118053
0.00118248
0.0011629
0.00112171
0.00105908
0.000979408
0.000893488
0.00082001
0.000782144
0.000767008
0.000761695
0.000759901
0.000759306
0.000759291
0.000759862
0.000761639
0.000766929
0.000782023
0.000819796
0.000892948
0.000977914
0.00105487
0.001111
0.00113851
0.00113188
0.00108332
0.000977246
0.000780523
0.000434529
0.000434551
0.000781691
0.000981274
0.00109373
0.0011546
0.00118202
0.00118518
0.00116732
0.00112811
0.00106706
0.00098755
0.000899891
0.000823942
0.000784424
0.000768466
0.000762813
0.000760876
0.000760197
0.000760176
0.000760829
0.000762751
0.000768383
0.000784299
0.000823724
0.000899333
0.000986039
0.00106281
0.00111734
0.00114284
0.00113449
0.0010847
0.000977872
0.000780713
0.00043451
0.000434529
0.00078169
0.000981331
0.00109389
0.00115493
0.00118266
0.00118631
0.00116909
0.00113056
0.00106997
0.000990394
0.000902102
0.000825298
0.000785213
0.000768963
0.000763181
0.000761174
0.000760432
0.000760404
0.00076112
0.000763114
0.000768877
0.000785085
0.000825079
0.000901544
0.000988877
0.0010657
0.00111977
0.00114458
0.00113557
0.0010853
0.000978146
0.000780788
0.000434482
0.000434511
0.000781684
0.000981339
0.00109391
0.00115495
0.0011827
0.00118635
0.00116915
0.00113063
0.00107005
0.000990489
0.000902195
0.000825365
0.000785253
0.000768979
0.000763177
0.000761146
0.000760366
0.000760332
0.000761086
0.000763106
0.00076889
0.000785124
0.000825146
0.00090164
0.000988977
0.0010658
0.00111985
0.00114464
0.00113562
0.00108533
0.000978165
0.000780784
0.000434453
0.000434508
0.000781676
0.000981297
0.00109378
0.00115467
0.00118212
0.00118532
0.0011675
0.00112834
0.00106733
0.000987849
0.000900187
0.000824152
0.000784552
0.000768522
0.000762809
0.000760802
0.000760025
0.000759989
0.00076074
0.000762736
0.000768432
0.000784426
0.000823939
0.000899645
0.000986358
0.00106311
0.00111759
0.00114304
0.00113464
0.00108481
0.00097793
0.000780709
0.000434444
0.000434523
0.000781663
0.000981191
0.00109348
0.00115397
0.0011807
0.00118271
0.00116321
0.00112211
0.00105957
0.000979961
0.000894045
0.000820402
0.00078239
0.00076713
0.000761714
0.000759811
0.000759092
0.00075906
0.000759749
0.000761641
0.000767042
0.00078227
0.000820203
0.000893533
0.000978513
0.0010554
0.00111144
0.00113885
0.00113213
0.00108349
0.000977344
0.000780527
0.000434453
0.000434542
0.000781635
0.000980998
0.00109294
0.00115271
0.00117805
0.00117764
0.0011544
0.00110842
0.00104118
0.000960122
0.000878538
0.000811037
0.000777096
0.000763767
0.0007591
0.000757454
0.000756851
0.000756825
0.000757398
0.000759032
0.000763687
0.000776991
0.000810867
0.000878103
0.000958755
0.00103712
0.00109787
0.00113016
0.00112719
0.00108098
0.000976244
0.000780179
0.000434451
0.000434558
0.000781582
0.000980706
0.00109212
0.00115078
0.00117386
0.0011692
0.00113861
0.00108141
0.00100073
0.00091252
0.00084277
0.000790493
0.000766073
0.00075693
0.000753913
0.000752808
0.000752382
0.000752364
0.000752762
0.000753852
0.000756857
0.000765984
0.000790365
0.000842455
0.000911304
0.000996858
0.00107102
0.00111449
0.00111888
0.00107695
0.000974514
0.000779622
0.000434425
0.000434569
0.000781502
0.000980328
0.0010911
0.00114833
0.00116837
0.00115741
0.00111428
0.00103367
0.000915619
0.000796974
0.000765428
0.000751441
0.00074701
0.000745328
0.000745455
0.00074533
0.000745151
0.000745137
0.000745289
0.000745388
0.000745226
0.000746876
0.00075131
0.000765277
0.000796066
0.000912066
0.00102342
0.00109021
0.00110716
0.0010716
0.000972289
0.000778906
0.000434373
0.000434574
0.000781385
0.000979887
0.00109002
0.00114592
0.00116297
0.00114507
0.00108536
0.000964001
0.000749896
0.000518717
0.000615935
0.00069195
0.000721185
0.000729225
0.000733672
0.000734835
0.000734959
0.00073494
0.000734769
0.000733519
0.000728905
0.000720656
0.000691358
0.000615804
0.000518278
0.000746986
0.000953703
0.00106108
0.00109472
0.00106629
0.00097014
0.000778218
0.000434318
0.000434567
0.000781159
0.000979298
0.00108897
0.00114418
0.00115987
0.00113841
0.00106747
0.000905309
0.000546978
0.000478598
0.000643336
0.000696956
0.000711796
0.000716447
0.000717728
0.00071798
0.000717927
0.000717523
0.000715916
0.000710577
0.000694615
0.000639923
0.000476311
0.00054453
0.000894079
0.00104239
0.00108777
0.00106335
0.000968872
0.000777795
0.000434292
0.000434506
0.000780545
0.000978076
0.00108739
0.00114289
0.00116024
0.00114364
0.00108654
0.000969162
0.000760094
0.000527057
0.00064285
0.000721453
0.000746527
0.000752477
0.000754132
0.000754633
0.000754724
0.00075462
0.000754183
0.000752815
0.000749076
0.000739155
0.000708859
0.000629966
0.000521057
0.000750176
0.00095382
0.0010596
0.00109256
0.00106418
0.000968606
0.000777523
0.000434278
0.000434281
0.000778794
0.000974867
0.00108335
0.00113935
0.0011598
0.00115157
0.0011142
0.00104299
0.000937979
0.000833097
0.000818659
0.000810634
0.000795619
0.000786357
0.000782648
0.000781448
0.000781077
0.000780913
0.000780698
0.000780267
0.000779666
0.000779552
0.000780436
0.000785669
0.000805688
0.000915356
0.00102121
0.00108467
0.00110025
0.00106506
0.000967435
0.000776494
0.000434142
0.000433592
0.000774188
0.000966795
0.00107297
0.00112852
0.00115151
0.00115074
0.00112914
0.00108687
0.00102667
0.000961193
0.000911241
0.00086281
0.000818369
0.00079641
0.000788144
0.00078548
0.000784707
0.000784503
0.00078451
0.000784899
0.000786764
0.000793586
0.000813512
0.000858312
0.000917093
0.000993456
0.00105971
0.00109796
0.00110045
0.00105992
0.000961623
0.000772684
0.00043354
0.000431723
0.000763184
0.000948434
0.0010495
0.00110254
0.00112619
0.00113024
0.00111897
0.00109355
0.00105488
0.00100613
0.000952238
0.000893678
0.000840503
0.000813952
0.000803725
0.000800348
0.000799362
0.000799136
0.000799266
0.000800088
0.000803157
0.000812932
0.000839236
0.000893694
0.000957234
0.00101866
0.00106546
0.00108902
0.00108353
0.00104096
0.000945233
0.000762364
0.00043174
0.000427049
0.000738943
0.000910083
0.00100163
0.00104916
0.00107105
0.00107719
0.00107216
0.00105727
0.00103235
0.000997456
0.000953981
0.000905523
0.000861962
0.000838214
0.000828355
0.000824871
0.000823818
0.000823599
0.000823769
0.000824773
0.000828157
0.000837887
0.000861648
0.000906019
0.000956396
0.00100162
0.00103352
0.00104698
0.00103739
0.00099666
0.000908408
0.000738628
0.000427113
0.000416173
0.000688609
0.000834511
0.00091017
0.000948391
0.000965993
0.000971905
0.000970311
0.000962434
0.000947918
0.000926121
0.000897513
0.000865275
0.000836532
0.000819683
0.000812095
0.00080928
0.000808395
0.000808204
0.00080838
0.00080924
0.000812018
0.000819574
0.000836489
0.000865566
0.0008984
0.000927049
0.000946184
0.000952505
0.000942233
0.000907837
0.000833907
0.000688615
0.000416265
0.000392978
0.000587002
0.000688707
0.000739159
0.000763447
0.000774268
0.000778133
0.000778036
0.000774862
0.00076836
0.000757923
0.000743612
0.000727172
0.000712354
0.000703229
0.00069889
0.000697197
0.000696637
0.000696514
0.000696641
0.000697203
0.000698891
0.000703225
0.000712382
0.000727304
0.000743889
0.000757975
0.000766834
0.000768755
0.00076121
0.000738519
0.000688702
0.000587146
0.000393066
0.000354437
0.000393024
0.000416306
0.000427272
0.000432034
0.000433981
0.000434704
0.000434844
0.000434564
0.000433793
0.000432484
0.000430513
0.000428071
0.000425744
0.000424265
0.000423526
0.000423193
0.000423036
0.000422981
0.000423044
0.000423201
0.000423529
0.000424261
0.000425733
0.000428059
0.000430506
0.000432442
0.000433568
0.000433631
0.000432063
0.000427436
0.000416476
0.000393143
0.000354499
0.000508542
0.000650566
0.00073558
0.000778586
0.000799089
0.000808263
0.000812058
0.000813463
0.000813869
0.000813879
0.000813753
0.000813604
0.000813482
0.000813397
0.000813342
0.000813303
0.000813277
0.000813262
0.00081326
0.000813272
0.000813297
0.000813332
0.000813381
0.000813449
0.000813517
0.000813499
0.00081314
0.000811818
0.00080811
0.000799009
0.000778555
0.000735578
0.000650578
0.000508559
0.000650572
0.00123408
0.0014926
0.00162712
0.00169593
0.00172926
0.00174414
0.00174997
0.00175164
0.00175151
0.00175073
0.00174985
0.00174914
0.00174865
0.00174835
0.00174816
0.00174805
0.00174799
0.00174799
0.00174805
0.00174817
0.00174835
0.00174862
0.00174901
0.00174944
0.00174949
0.00174804
0.00174263
0.00172823
0.00169532
0.00162679
0.00149246
0.00123403
0.000650587
0.000735624
0.0014927
0.00183402
0.00201881
0.00211751
0.00216742
0.00219051
0.00219958
0.0022017
0.00220064
0.00219844
0.00219622
0.00219452
0.00219344
0.00219282
0.00219245
0.00219223
0.00219212
0.00219212
0.00219223
0.00219246
0.00219282
0.00219338
0.00219428
0.00219543
0.00219613
0.00219448
0.00218648
0.00216466
0.00211586
0.00201796
0.00183367
0.00149261
0.000735654
0.000778671
0.00162729
0.0020189
0.00223695
0.00235675
0.00241876
0.00244753
0.00245785
0.00245838
0.00245421
0.00244851
0.0024433
0.0024395
0.00243721
0.00243598
0.00243524
0.00243477
0.00243454
0.00243454
0.00243478
0.00243525
0.00243597
0.00243712
0.00243912
0.00244212
0.00244518
0.00244558
0.00243773
0.00241198
0.00235265
0.00223481
0.00201798
0.00162701
0.000778696
0.000799208
0.00169616
0.0021177
0.00235687
0.00249042
0.00255988
0.00259077
0.00259884
0.00259379
0.00258213
0.0025689
0.00255773
0.00255005
0.00254574
0.00254357
0.00254221
0.00254128
0.00254081
0.00254081
0.0025413
0.00254222
0.00254356
0.00254562
0.00254958
0.00255625
0.00256475
0.00257154
0.0025689
0.00254469
0.00248118
0.00235195
0.00211547
0.0016954
0.000799172
0.000808405
0.00172954
0.00216773
0.00241911
0.00256022
0.00263231
0.00266065
0.00266087
0.00264318
0.00261607
0.00258822
0.00256672
0.00255306
0.00254617
0.0025431
0.00254089
0.00253922
0.00253834
0.00253835
0.00253924
0.00254091
0.0025431
0.00254605
0.00255255
0.00256507
0.00258357
0.00260418
0.00261539
0.00260107
0.00254126
0.00240895
0.00216301
0.00172779
0.000808208
0.000812219
0.0017445
0.00219106
0.00244838
0.00259201
0.00266196
0.00268194
0.00266603
0.00262401
0.00256734
0.00251289
0.00247664
0.00245662
0.00244842
0.00244575
0.00244276
0.0024401
0.00243869
0.0024387
0.00244012
0.00244279
0.00244576
0.00244833
0.00245615
0.00247499
0.00250807
0.00255477
0.00259449
0.00260276
0.00255656
0.00242944
0.00218214
0.00174103
0.000811708
0.000813648
0.0017505
0.0022006
0.0024598
0.00260219
0.00266564
0.00267073
0.00262752
0.00254254
0.00243032
0.00232737
0.00227896
0.00226114
0.00225837
0.00226006
0.00225728
0.00225393
0.00225213
0.00225214
0.00225395
0.00225732
0.0022601
0.00225833
0.00226077
0.00227752
0.00232275
0.00241763
0.00251215
0.00256225
0.00254191
0.00242804
0.00218561
0.00174451
0.000812642
0.000814095
0.00175246
0.00220361
0.00246242
0.00260131
0.00265528
0.00263989
0.0025569
0.00240102
0.00217984
0.00197143
0.00195183
0.00197521
0.00199644
0.00200911
0.00201004
0.00200802
0.0020067
0.00200671
0.00200805
0.00201008
0.00200917
0.00199646
0.00197504
0.00195084
0.00196747
0.00216749
0.00237021
0.0024904
0.00250904
0.00241488
0.00218133
0.00174344
0.000812463
0.000814177
0.00175285
0.00220402
0.0024617
0.00259678
0.00264125
0.00260457
0.00247512
0.00221651
0.00176181
0.00110522
0.00145403
0.00163886
0.00171512
0.00174193
0.00175352
0.0017563
0.0017566
0.00175661
0.00175633
0.00175357
0.00174201
0.00171522
0.00163895
0.00145388
0.0011031
0.00175032
0.00218535
0.00240764
0.00247236
0.00239924
0.00217502
0.00174102
0.000811953
0.000814158
0.0017528
0.00220391
0.00246093
0.00259395
0.00263327
0.00258449
0.00242516
0.0020781
0.00116395
0.000907369
0.00136692
0.00149186
0.00153218
0.00154444
0.00154766
0.00154831
0.00154832
0.00154768
0.00154448
0.00153225
0.00149196
0.00136709
0.000907451
0.001156
0.00204671
0.00235703
0.00245153
0.00239043
0.00217131
0.00173944
0.00081162
0.000814138
0.00175279
0.00220417
0.00246162
0.00259548
0.00263687
0.00259404
0.0024539
0.00217845
0.00169856
0.00103583
0.00129767
0.00146466
0.00153395
0.0015615
0.00156524
0.0015653
0.00156505
0.00156505
0.00156528
0.00156522
0.00156147
0.0015339
0.00146456
0.00129721
0.00103348
0.00168684
0.00214705
0.002386
0.00246114
0.00239388
0.00217253
0.0017397
0.000811688
0.00081414
0.00175295
0.0022049
0.00246364
0.00260034
0.00264811
0.0026198
0.00251344
0.00231899
0.00203819
0.00174709
0.00162913
0.00157299
0.00155486
0.00155081
0.00154918
0.00154825
0.00154779
0.00154778
0.00154823
0.00154914
0.00155074
0.00155472
0.00157261
0.00162796
0.00174305
0.0020257
0.00228776
0.00244595
0.00248724
0.00240528
0.00217734
0.00174147
0.000812065
0.000814151
0.00175318
0.00220583
0.00246611
0.00260613
0.00266079
0.00264636
0.0025669
0.00242163
0.00221812
0.00199221
0.00180325
0.00165753
0.00158804
0.0015628
0.00155475
0.00155226
0.00155153
0.00155152
0.00155224
0.00155471
0.00156272
0.00158785
0.00165705
0.00180183
0.00198771
0.00220529
0.00239038
0.0024996
0.00251401
0.00241807
0.00218308
0.00174369
0.000812514
0.000814157
0.0017534
0.00220667
0.00246829
0.00261106
0.00267108
0.00266641
0.00260342
0.0024829
0.00230905
0.00209991
0.00188835
0.0017072
0.00161327
0.00157671
0.00156466
0.0015611
0.00156017
0.00156017
0.00156108
0.00156463
0.00157663
0.00161307
0.0017067
0.00188686
0.00209523
0.00229601
0.00245154
0.0025361
0.00253408
0.00242832
0.00218787
0.0017456
0.000812869
0.000814151
0.00175356
0.00220728
0.00246983
0.00261447
0.00267792
0.00267902
0.00262473
0.00251548
0.00235265
0.00214762
0.00192707
0.00173165
0.00162703
0.00158518
0.00157116
0.00156704
0.00156601
0.00156601
0.00156703
0.00157113
0.0015851
0.00162683
0.00173114
0.00192561
0.00214284
0.00233947
0.00248398
0.00255729
0.00254657
0.00243503
0.00219111
0.00174689
0.000813085
0.000814136
0.00175365
0.00220764
0.00247075
0.00261645
0.00268177
0.00268582
0.00263561
0.00253105
0.00237206
0.00216767
0.00194325
0.00174213
0.00163317
0.0015891
0.00157423
0.00156987
0.00156879
0.00156878
0.00156985
0.0015742
0.00158901
0.00163296
0.00174162
0.00194175
0.00216284
0.00235879
0.00249944
0.00256806
0.00255325
0.00243875
0.00219293
0.00174762
0.000813185
0.000814119
0.00175369
0.00220781
0.00247117
0.00261735
0.00268346
0.00268871
0.00264005
0.00253713
0.00237929
0.00217485
0.00194896
0.00174584
0.00163536
0.0015905
0.00157532
0.00157087
0.00156976
0.00156976
0.00157085
0.00157529
0.00159041
0.00163515
0.00174532
0.00194744
0.00217
0.00236598
0.00250547
0.00257243
0.00255606
0.00244035
0.00219373
0.00174793
0.000813211
0.000814106
0.00175369
0.00220781
0.00247119
0.00261738
0.00268351
0.00268877
0.00264014
0.00253724
0.0023794
0.00217498
0.00194908
0.00174596
0.00163543
0.00159054
0.00157534
0.00157088
0.00156977
0.00156976
0.00157086
0.00157531
0.00159045
0.00163523
0.00174545
0.00194757
0.00217013
0.0023661
0.00250557
0.00257251
0.00255612
0.00244039
0.00219375
0.00174794
0.000813194
0.000814102
0.00175365
0.00220766
0.00247081
0.00261655
0.00268191
0.00268601
0.00263586
0.00253137
0.00237242
0.00216807
0.00194365
0.00174252
0.00163343
0.00158925
0.00157433
0.00156994
0.00156884
0.00156884
0.00156992
0.0015743
0.00158917
0.00163323
0.00174202
0.00194217
0.00216327
0.00235918
0.00249977
0.00256831
0.00255343
0.00243887
0.002193
0.00174763
0.000813141
0.000814105
0.00175356
0.00220732
0.00246992
0.00261462
0.00267814
0.00267933
0.00262516
0.00251603
0.00235333
0.00214838
0.00192784
0.0017324
0.00162756
0.00158553
0.00157142
0.00156727
0.00156622
0.00156622
0.00156726
0.0015714
0.00158547
0.00162739
0.00173194
0.00192641
0.00214365
0.00234019
0.00248456
0.00255772
0.00254687
0.00243523
0.00219121
0.00174691
0.000813028
0.000814105
0.00175339
0.00220671
0.00246839
0.00261123
0.00267135
0.00266682
0.00260401
0.00248372
0.00231013
0.00210121
0.00188972
0.00170846
0.00161416
0.00157733
0.00156517
0.00156157
0.00156064
0.00156064
0.00156158
0.00156517
0.0015773
0.00161403
0.00170807
0.0018884
0.00209663
0.00229717
0.00245238
0.00253667
0.00253445
0.00242856
0.002188
0.00174562
0.000812807
0.000814093
0.00175314
0.00220583
0.00246615
0.00260624
0.00266101
0.00264674
0.00256754
0.00242267
0.0022197
0.00199428
0.00180547
0.00165923
0.00158906
0.00156343
0.00155522
0.0015527
0.00155198
0.00155198
0.00155272
0.00155524
0.00156342
0.00158897
0.00165892
0.00180431
0.00198999
0.00220697
0.00239138
0.00250013
0.00251429
0.00241822
0.00218315
0.00174369
0.000812444
0.000814065
0.00175281
0.00220472
0.00246342
0.00260011
0.00264793
0.00261977
0.00251374
0.00231995
0.00204023
0.00175019
0.00163198
0.00157387
0.00155427
0.00154947
0.00154754
0.00154656
0.00154612
0.00154613
0.00154658
0.00154753
0.00154937
0.00155401
0.00157345
0.00163111
0.00174645
0.00202776
0.00228831
0.00244577
0.00248689
0.00240498
0.00217714
0.00174132
0.000811971
0.000814009
0.00175236
0.00220343
0.00246059
0.00259419
0.00263541
0.00259255
0.00245263
0.00217802
0.00170037
0.00103815
0.00129751
0.00145847
0.00152423
0.00154977
0.00155275
0.00155266
0.00155244
0.00155243
0.0015526
0.00155249
0.00154904
0.00152277
0.00145653
0.0012965
0.00103586
0.00168819
0.00214493
0.00238317
0.00245876
0.00239222
0.00217151
0.00173914
0.000811518
0.000813861
0.00175152
0.00220164
0.00245769
0.00258985
0.00262843
0.00257896
0.002419
0.00207175
0.00115945
0.000888242
0.00132959
0.00144406
0.00147732
0.00148748
0.00149039
0.00149105
0.00149095
0.00148993
0.00148612
0.00147391
0.00143713
0.00131884
0.00087964
0.00114676
0.00203429
0.0023466
0.00244396
0.00238538
0.00216822
0.0017378
0.000811237
0.000813394
0.00174932
0.00219788
0.00245307
0.00258598
0.00262849
0.00258966
0.00245727
0.00219425
0.00173316
0.00107208
0.00137036
0.00152471
0.00157088
0.00157761
0.00158419
0.00158675
0.00158734
0.00158708
0.00158557
0.00158057
0.00156802
0.00154968
0.00148793
0.00132842
0.00104583
0.00169728
0.0021462
0.00238015
0.0024536
0.00238675
0.00216717
0.00173678
0.000811024
0.000811996
0.00174337
0.00218836
0.00244165
0.00257587
0.00262569
0.00260565
0.00251561
0.00234724
0.00210307
0.00185388
0.00177393
0.00172902
0.00168026
0.00165067
0.00164071
0.00163785
0.001637
0.00163656
0.00163579
0.00163406
0.00163194
0.00163561
0.00164736
0.00168238
0.00177359
0.00203729
0.002284
0.00243255
0.00246943
0.0023876
0.00216331
0.00173323
0.000810156
0.000808245
0.00172864
0.00216559
0.00241371
0.0025472
0.00260321
0.00260047
0.00254571
0.00244018
0.00229066
0.00212482
0.00198489
0.0018529
0.00173315
0.00167156
0.00164829
0.00164084
0.00163868
0.00163811
0.00163809
0.00163912
0.00164451
0.00166495
0.00172296
0.00184773
0.00200854
0.00220115
0.00236465
0.00245917
0.00246724
0.00237319
0.00214701
0.00172125
0.00080699
0.000799118
0.00169555
0.00211631
0.00235327
0.00248151
0.00253963
0.00254859
0.00251798
0.00245095
0.00235009
0.00222292
0.002081
0.00192926
0.00178999
0.00171684
0.0016879
0.00167817
0.00167526
0.00167459
0.00167501
0.00167748
0.00168646
0.00171452
0.0017878
0.00193214
0.00209697
0.0022542
0.00237361
0.00243481
0.00242435
0.0023249
0.00210361
0.00169064
0.000798366
0.000778644
0.00162693
0.00201819
0.00223499
0.00235156
0.00240644
0.00242102
0.00240567
0.00236372
0.00229531
0.00220118
0.00208554
0.00195859
0.00184508
0.00178083
0.00175308
0.00174297
0.00173974
0.001739
0.00173966
0.00174275
0.00175264
0.00178027
0.00184514
0.00196132
0.00209329
0.00221208
0.00229676
0.00233422
0.00231339
0.00221668
0.0020103
0.00162399
0.000778266
0.000735645
0.00149253
0.0018338
0.00201805
0.00211512
0.00216111
0.00217602
0.00216963
0.00214504
0.00210174
0.00203877
0.00195823
0.00186916
0.00179033
0.00174284
0.00172074
0.00171209
0.00170916
0.00170849
0.00170917
0.0017121
0.00172073
0.00174289
0.00179078
0.00187075
0.00196143
0.00204143
0.00209611
0.00211621
0.00209231
0.00200761
0.00182954
0.00149101
0.000735512
0.000650621
0.00123405
0.00149268
0.00162709
0.0016953
0.00172693
0.00173797
0.00173609
0.00172373
0.00170037
0.00166488
0.00161817
0.00156597
0.00151962
0.00149062
0.00147648
0.00147069
0.00146866
0.00146819
0.00146871
0.00147079
0.00147662
0.00149084
0.00152006
0.00156686
0.0016195
0.00166521
0.00169527
0.00170395
0.00168423
0.00162235
0.00149089
0.00123344
0.000650623
0.000508589
0.00065062
0.000735717
0.000778799
0.000799297
0.000808261
0.000811412
0.000811331
0.000808777
0.000803532
0.000795104
0.000783487
0.000770082
0.000757999
0.000750492
0.000746873
0.000745399
0.000744873
0.000744749
0.000744887
0.000745424
0.000746903
0.000750527
0.000758062
0.000770224
0.000783717
0.000795117
0.000802261
0.00080375
0.000797386
0.000778141
0.000735559
0.000650614
0.000508651
0.000558076
0.000768544
0.000896229
0.000963145
0.000996571
0.0010123
0.00101914
0.00102177
0.00102253
0.00102251
0.0010222
0.00102185
0.00102155
0.00102135
0.00102123
0.00102115
0.00102109
0.00102107
0.00102107
0.00102109
0.00102114
0.00102122
0.00102133
0.00102149
0.00102166
0.00102167
0.001021
0.00101855
0.00101191
0.000996339
0.000963026
0.000896178
0.000768532
0.000558093
0.000768545
0.00153633
0.00187521
0.00205727
0.00215391
0.00220253
0.00222508
0.00223422
0.00223684
0.00223653
0.00223509
0.00223347
0.00223212
0.00223118
0.00223059
0.00223022
0.00222999
0.00222988
0.00222988
0.00222999
0.00223021
0.00223057
0.0022311
0.00223186
0.00223268
0.00223287
0.00223063
0.00222224
0.00220054
0.00215265
0.00205655
0.00187483
0.00153615
0.000768528
0.000896272
0.00187533
0.00231074
0.00255256
0.00268595
0.00275564
0.00278891
0.00280229
0.00280537
0.00280352
0.00279981
0.00279599
0.00279298
0.00279098
0.0027898
0.00278908
0.00278865
0.00278844
0.00278844
0.00278865
0.00278908
0.00278976
0.00279084
0.0027925
0.00279457
0.00279592
0.00279364
0.00278199
0.00275076
0.0026829
0.00255087
0.00230993
0.00187501
0.000896244
0.000963239
0.0020575
0.00255268
0.00283426
0.00299342
0.00307822
0.0031186
0.00313334
0.00313391
0.00312737
0.00311834
0.00310984
0.00310343
0.00309941
0.00309715
0.00309578
0.00309494
0.00309453
0.00309453
0.00309494
0.00309578
0.0030971
0.0030992
0.00310274
0.00310781
0.0031129
0.0031139
0.00310293
0.00306712
0.00298646
0.00283039
0.00255082
0.00205677
0.000963154
0.000996712
0.00215423
0.00268621
0.00299361
0.00316975
0.00326371
0.00330643
0.0033177
0.00331026
0.003293
0.00327295
0.00325533
0.0032427
0.00323527
0.00323135
0.0032289
0.00322732
0.00322653
0.00322653
0.00322733
0.0032289
0.00323129
0.00323502
0.00324184
0.00325281
0.00326625
0.00327664
0.00327329
0.00324022
0.00315497
0.00298534
0.00268214
0.00215257
0.000996452
0.00101248
0.00220296
0.00275613
0.0030788
0.00326428
0.00336121
0.00340007
0.00340041
0.00337562
0.00333703
0.0032961
0.00326251
0.00323986
0.00322771
0.00322194
0.00321795
0.00321513
0.00321371
0.00321372
0.00321514
0.00321795
0.00322189
0.00322745
0.00323892
0.00325971
0.00328857
0.00331864
0.00333439
0.003315
0.00323533
0.00306255
0.00274802
0.00219953
0.00101184
0.00101936
0.00222568
0.00278984
0.00312007
0.0033085
0.00340219
0.0034296
0.00340835
0.0033513
0.00327322
0.00319507
0.00313707
0.00310143
0.00308503
0.00307881
0.00307295
0.00306833
0.00306601
0.00306601
0.00306835
0.00307296
0.00307878
0.00308479
0.00310053
0.00313424
0.0031872
0.00325365
0.00330731
0.00331773
0.00325631
0.00309092
0.00277519
0.00221934
0.00101804
0.00102206
0.00223515
0.0028041
0.00313666
0.00332319
0.00340799
0.00341566
0.00335898
0.00324686
0.00309744
0.00295337
0.00286781
0.00282503
0.00281109
0.00280933
0.00280226
0.00279587
0.00279272
0.00279273
0.00279589
0.00280228
0.00280933
0.00281093
0.0028243
0.00286523
0.00294564
0.00307737
0.00320116
0.00326498
0.00323702
0.0030892
0.00278027
0.00222466
0.00101972
0.00102295
0.00223839
0.00280877
0.00314068
0.00332236
0.00339452
0.00337569
0.00326883