/*--------------------------------*- C++ -*----------------------------------*\
| =========                 |                                                 |
| \\      /  F ield         | OpenFOAM: The Open Source CFD Toolbox           |
|  \\    /   O peration     | Version:  2112                                  |
|   \\  /    A nd           | Website:  www.openfoam.com                      |
|    \\/     M anipulation  |                                                 |
\*---------------------------------------------------------------------------*/
FoamFile
{
    version     2.0;
    format      ascii;
    arch        "LSB;label=32;scalar=64";
    class       volScalarField;
    location    "3.3";
    object      nut;
}
// * * * * * * * * * * * * * * * * * * * * * * * * * * * * * * * * * * * * * //

dimensions      [0 2 -1 0 0 0 0];

internalField   nonuniform List<scalar> 
64906
(
4.69519e-05
4.95149e-05
5.10129e-05
5.17124e-05
5.20166e-05
5.21413e-05
5.21893e-05
5.22063e-05
5.22113e-05
5.22117e-05
5.22106e-05
5.22095e-05
5.22085e-05
5.22075e-05
5.22066e-05
5.22058e-05
5.22049e-05
5.22042e-05
5.22039e-05
5.22043e-05
5.2205e-05
5.22058e-05
5.22067e-05
5.22074e-05
5.22079e-05
5.22074e-05
5.22032e-05
5.21875e-05
5.21405e-05
5.20165e-05
5.17128e-05
5.10138e-05
4.95162e-05
4.6953e-05
4.95165e-05
6.06574e-05
6.57942e-05
6.82328e-05
6.94005e-05
6.99383e-05
7.01693e-05
7.02582e-05
7.02851e-05
7.02866e-05
7.02794e-05
7.02707e-05
7.02641e-05
7.02602e-05
7.02582e-05
7.02572e-05
7.02565e-05
7.02561e-05
7.02561e-05
7.02565e-05
7.02572e-05
7.02582e-05
7.02599e-05
7.02627e-05
7.02656e-05
7.02629e-05
7.02387e-05
7.01551e-05
6.99301e-05
6.93974e-05
6.82332e-05
6.57967e-05
6.06605e-05
4.95192e-05
5.1017e-05
6.57965e-05
7.25352e-05
7.58392e-05
7.74951e-05
7.82968e-05
7.86566e-05
7.87963e-05
7.88315e-05
7.88209e-05
7.87947e-05
7.8769e-05
7.87505e-05
7.87402e-05
7.87356e-05
7.87334e-05
7.87321e-05
7.87315e-05
7.87316e-05
7.87324e-05
7.87338e-05
7.8736e-05
7.874e-05
7.87479e-05
7.87591e-05
7.87638e-05
7.87344e-05
7.86092e-05
7.82665e-05
7.74798e-05
7.58344e-05
7.25366e-05
6.58009e-05
5.10215e-05
5.17182e-05
6.82372e-05
7.58414e-05
7.96667e-05
8.16414e-05
8.26234e-05
8.30675e-05
8.32264e-05
8.32392e-05
8.3184e-05
8.31082e-05
8.30411e-05
8.29945e-05
8.29692e-05
8.29576e-05
8.29513e-05
8.29472e-05
8.29452e-05
8.29453e-05
8.29476e-05
8.29519e-05
8.29581e-05
8.29687e-05
8.29905e-05
8.30263e-05
8.30634e-05
8.3063e-05
8.29393e-05
8.25379e-05
8.15933e-05
7.96456e-05
7.58364e-05
6.82407e-05
5.1724e-05
5.20234e-05
6.94064e-05
7.74993e-05
8.16437e-05
8.38202e-05
8.49105e-05
8.53852e-05
8.55105e-05
8.54403e-05
8.52738e-05
8.50867e-05
8.49342e-05
8.48333e-05
8.47816e-05
8.4759e-05
8.47449e-05
8.47347e-05
8.47294e-05
8.47296e-05
8.47352e-05
8.47456e-05
8.47596e-05
8.47809e-05
8.48282e-05
8.49154e-05
8.5031e-05
8.51258e-05
8.5081e-05
8.47045e-05
8.37001e-05
8.15849e-05
7.74777e-05
6.94047e-05
5.20298e-05
5.21487e-05
6.9945e-05
7.83029e-05
8.26289e-05
8.49151e-05
8.60427e-05
8.64782e-05
8.64843e-05
8.62205e-05
8.58152e-05
8.54027e-05
8.50979e-05
8.49116e-05
8.48268e-05
8.47954e-05
8.477e-05
8.47488e-05
8.47376e-05
8.47378e-05
8.47495e-05
8.47709e-05
8.47963e-05
8.48263e-05
8.49062e-05
8.50771e-05
8.53402e-05
8.56493e-05
8.58207e-05
8.55988e-05
8.46539e-05
8.24959e-05
7.82474e-05
6.99312e-05
5.21545e-05
5.21969e-05
7.01768e-05
7.86655e-05
8.30793e-05
8.54016e-05
8.64957e-05
8.6803e-05
8.6558e-05
8.59073e-05
8.50221e-05
8.41757e-05
8.36555e-05
8.33837e-05
8.32909e-05
8.3275e-05
8.32383e-05
8.32013e-05
8.31816e-05
8.31819e-05
8.32021e-05
8.32395e-05
8.32762e-05
8.32909e-05
8.33789e-05
8.3635e-05
8.41111e-05
8.48471e-05
8.54834e-05
8.56233e-05
8.48936e-05
8.28181e-05
7.85508e-05
7.01402e-05
5.22004e-05
5.22137e-05
7.02671e-05
7.88106e-05
8.32521e-05
8.5555e-05
8.65494e-05
8.66239e-05
8.59397e-05
8.45715e-05
8.27183e-05
8.09971e-05
8.03589e-05
8.01755e-05
8.02018e-05
8.02752e-05
8.02403e-05
8.01901e-05
8.01638e-05
8.01641e-05
8.0191e-05
8.02418e-05
8.0277e-05
8.02028e-05
8.01725e-05
8.03416e-05
8.09353e-05
8.25415e-05
8.41347e-05
8.49754e-05
8.46641e-05
8.27981e-05
7.86074e-05
7.0196e-05
5.22127e-05
5.22185e-05
7.02969e-05
7.88567e-05
8.32923e-05
8.55422e-05
8.63894e-05
8.61355e-05
8.47831e-05
8.21478e-05
7.81785e-05
7.4237e-05
7.45237e-05
7.5252e-05
7.57637e-05
7.60611e-05
7.60782e-05
7.60451e-05
7.6026e-05
7.60263e-05
7.60462e-05
7.60799e-05
7.60634e-05
7.5766e-05
7.52522e-05
7.45135e-05
7.41855e-05
7.80071e-05
8.17036e-05
8.37986e-05
8.41436e-05
8.25958e-05
7.85445e-05
7.01829e-05
5.22111e-05
5.22189e-05
7.03037e-05
7.88646e-05
8.32839e-05
8.54761e-05
8.61742e-05
8.55684e-05
8.33921e-05
7.87382e-05
6.97052e-05
5.79722e-05
6.47919e-05
6.90623e-05
7.07262e-05
7.13479e-05
7.15129e-05
7.15493e-05
7.15551e-05
7.15555e-05
7.15503e-05
7.15147e-05
7.13506e-05
7.07299e-05
6.90669e-05
6.47953e-05
5.79491e-05
6.95522e-05
7.82882e-05
8.23898e-05
8.35532e-05
8.23543e-05
7.84511e-05
7.01498e-05
5.22044e-05
5.22181e-05
7.03045e-05
7.88654e-05
8.32764e-05
8.54388e-05
8.60574e-05
8.52479e-05
8.25001e-05
7.58863e-05
5.88094e-05
5.50576e-05
6.40572e-05
6.68137e-05
6.76296e-05
6.78951e-05
6.79706e-05
6.79878e-05
6.7988e-05
6.79712e-05
6.78963e-05
6.76316e-05
6.68172e-05
6.40631e-05
5.5062e-05
5.87201e-05
7.54377e-05
8.14872e-05
8.32197e-05
8.22238e-05
7.84001e-05
7.01303e-05
5.21992e-05
5.2217e-05
7.03058e-05
7.88721e-05
8.3292e-05
8.54717e-05
8.61321e-05
8.54449e-05
8.31168e-05
7.82103e-05
6.87844e-05
5.70551e-05
6.20487e-05
6.58417e-05
6.72651e-05
6.76672e-05
6.79033e-05
6.79702e-05
6.79806e-05
6.79805e-05
6.79701e-05
6.7903e-05
6.76667e-05
6.72647e-05
6.58409e-05
6.20418e-05
5.70242e-05
6.86216e-05
7.77537e-05
8.21067e-05
8.34187e-05
8.22973e-05
7.84287e-05
7.01389e-05
5.21992e-05
5.22164e-05
7.03089e-05
7.88856e-05
8.3327e-05
8.55544e-05
8.63237e-05
8.58939e-05
8.42036e-05
8.09771e-05
7.60407e-05
7.07414e-05
6.91706e-05
6.84767e-05
6.8261e-05
6.81845e-05
6.82034e-05
6.82062e-05
6.82019e-05
6.82017e-05
6.82055e-05
6.82022e-05
6.81824e-05
6.82574e-05
6.84693e-05
6.9151e-05
7.06803e-05
7.58615e-05
8.05235e-05
8.3203e-05
8.38765e-05
8.24945e-05
7.85124e-05
7.01692e-05
5.22027e-05
5.22157e-05
7.03127e-05
7.89013e-05
8.33676e-05
8.56485e-05
8.65316e-05
8.63378e-05
8.51279e-05
8.2842e-05
7.95321e-05
7.57637e-05
7.26476e-05
7.02402e-05
6.90948e-05
6.8665e-05
6.85287e-05
6.84829e-05
6.84671e-05
6.84667e-05
6.84818e-05
6.85268e-05
6.8662e-05
6.90897e-05
7.02306e-05
7.26252e-05
7.56966e-05
7.93484e-05
8.23903e-05
8.41332e-05
8.43271e-05
8.27069e-05
7.86072e-05
7.02046e-05
5.22064e-05
5.22147e-05
7.03158e-05
7.89148e-05
8.34022e-05
8.57266e-05
8.66956e-05
8.66628e-05
8.57345e-05
8.3894e-05
8.11576e-05
7.7762e-05
7.42191e-05
7.11763e-05
6.95998e-05
6.8973e-05
6.87555e-05
6.86827e-05
6.86593e-05
6.86587e-05
6.86812e-05
6.87531e-05
6.89694e-05
6.95942e-05
7.11661e-05
7.41959e-05
7.7693e-05
8.09718e-05
8.34421e-05
8.47416e-05
8.46546e-05
8.28724e-05
7.86842e-05
7.02335e-05
5.22086e-05
5.22134e-05
7.03177e-05
7.89244e-05
8.34265e-05
8.57798e-05
8.68027e-05
8.68626e-05
8.60786e-05
8.44329e-05
8.18992e-05
7.85951e-05
7.49012e-05
7.16106e-05
6.98507e-05
6.91317e-05
6.88764e-05
6.87898e-05
6.87611e-05
6.87603e-05
6.87879e-05
6.88737e-05
6.91279e-05
6.98448e-05
7.16001e-05
7.48753e-05
7.85251e-05
8.17119e-05
8.39797e-05
8.50851e-05
8.48541e-05
8.29786e-05
7.8735e-05
7.02523e-05
5.22089e-05
5.2212e-05
7.03185e-05
7.89301e-05
8.3441e-05
8.58106e-05
8.68623e-05
8.69687e-05
8.62508e-05
8.46839e-05
8.22191e-05
7.89334e-05
7.51804e-05
7.17904e-05
6.99574e-05
6.92001e-05
6.89285e-05
6.88349e-05
6.88021e-05
6.8801e-05
6.88326e-05
6.89255e-05
6.9196e-05
6.99513e-05
7.17797e-05
7.51535e-05
7.88628e-05
8.20307e-05
8.42295e-05
8.52561e-05
8.4959e-05
8.30367e-05
7.87633e-05
7.02624e-05
5.22079e-05
5.22106e-05
7.03186e-05
7.89328e-05
8.34477e-05
8.58245e-05
8.68885e-05
8.70136e-05
8.63206e-05
8.47811e-05
8.23367e-05
7.90528e-05
7.5278e-05
7.18532e-05
6.99948e-05
6.92237e-05
6.89459e-05
6.88489e-05
6.8813e-05
6.88117e-05
6.88463e-05
6.89427e-05
6.92195e-05
6.99885e-05
7.18424e-05
7.5251e-05
7.8982e-05
8.21479e-05
8.4326e-05
8.53253e-05
8.5003e-05
8.30618e-05
7.87758e-05
7.02664e-05
5.22062e-05
5.22095e-05
7.03183e-05
7.89332e-05
8.34483e-05
8.58255e-05
8.68898e-05
8.70154e-05
8.6323e-05
8.4784e-05
8.23403e-05
7.90569e-05
7.52821e-05
7.18563e-05
6.99967e-05
6.92245e-05
6.89457e-05
6.88475e-05
6.88099e-05
6.88082e-05
6.88447e-05
6.89423e-05
6.92202e-05
6.99904e-05
7.18456e-05
7.52553e-05
7.89863e-05
8.21518e-05
8.43293e-05
8.53278e-05
8.5005e-05
8.30632e-05
7.87766e-05
7.02662e-05
5.22044e-05
5.22093e-05
7.03178e-05
7.89311e-05
8.34429e-05
8.58135e-05
8.68664e-05
8.69742e-05
8.6258e-05
8.46931e-05
8.22302e-05
7.89461e-05
7.51937e-05
7.18003e-05
6.99636e-05
6.92028e-05
6.89283e-05
6.88313e-05
6.87938e-05
6.87921e-05
6.88283e-05
6.89248e-05
6.91985e-05
6.99574e-05
7.17898e-05
7.51674e-05
7.88764e-05
8.20427e-05
8.42395e-05
8.52639e-05
8.49648e-05
8.30409e-05
7.87658e-05
7.02622e-05
5.22037e-05
5.22102e-05
7.0317e-05
7.89261e-05
8.34297e-05
8.57846e-05
8.68094e-05
8.68718e-05
8.60909e-05
8.44489e-05
8.19192e-05
7.86187e-05
7.4926e-05
7.16291e-05
6.98625e-05
6.91376e-05
6.88773e-05
6.87854e-05
6.87507e-05
6.87491e-05
6.87824e-05
6.88738e-05
6.91334e-05
6.98567e-05
7.16192e-05
7.49011e-05
7.85506e-05
8.17337e-05
8.39972e-05
8.50985e-05
8.48639e-05
8.29856e-05
7.87392e-05
7.02526e-05
5.22041e-05
5.22113e-05
7.03153e-05
7.89171e-05
8.34065e-05
8.5733e-05
8.67047e-05
8.66754e-05
8.57519e-05
8.39178e-05
8.11892e-05
7.78011e-05
7.42557e-05
7.12059e-05
6.96186e-05
6.89828e-05
6.87581e-05
6.86788e-05
6.86497e-05
6.86484e-05
6.8676e-05
6.87548e-05
6.89789e-05
6.96134e-05
7.11974e-05
7.42345e-05
7.77359e-05
8.10066e-05
8.34682e-05
8.47606e-05
8.46681e-05
8.28819e-05
7.869e-05
7.02345e-05
5.22036e-05
5.22123e-05
7.03123e-05
7.89036e-05
8.3372e-05
8.56553e-05
8.65416e-05
8.63525e-05
8.51497e-05
8.28745e-05
7.95795e-05
7.58262e-05
7.27044e-05
7.02808e-05
6.91167e-05
6.86736e-05
6.85276e-05
6.84748e-05
6.84545e-05
6.84536e-05
6.84725e-05
6.85247e-05
6.867e-05
6.91121e-05
7.02742e-05
7.2688e-05
7.57664e-05
7.94013e-05
8.24253e-05
8.4156e-05
8.43423e-05
8.27173e-05
7.86138e-05
7.02061e-05
5.22014e-05
5.22129e-05
7.03079e-05
7.88863e-05
8.33289e-05
8.5558e-05
8.63303e-05
8.59055e-05
8.42245e-05
8.10148e-05
7.61062e-05
7.08397e-05
6.92551e-05
6.85071e-05
6.82556e-05
6.81586e-05
6.81641e-05
6.81597e-05
6.81519e-05
6.81512e-05
6.81577e-05
6.81607e-05
6.81534e-05
6.82487e-05
6.85001e-05
6.92463e-05
7.07915e-05
7.59348e-05
8.05608e-05
8.32208e-05
8.38863e-05
8.25012e-05
7.85169e-05
7.01701e-05
5.21975e-05
5.22131e-05
7.03015e-05
7.88661e-05
8.32838e-05
8.54623e-05
8.61233e-05
8.54395e-05
8.31207e-05
7.82378e-05
6.88656e-05
5.71217e-05
6.20762e-05
6.57407e-05
6.70983e-05
6.74595e-05
6.76753e-05
6.77343e-05
6.77414e-05
6.77404e-05
6.77309e-05
6.76675e-05
6.74432e-05
6.70712e-05
6.57097e-05
6.2068e-05
5.70932e-05
6.87098e-05
7.77648e-05
8.20934e-05
8.34041e-05
8.22879e-05
7.8424e-05
7.01357e-05
5.21935e-05
5.22125e-05
7.02893e-05
7.88388e-05
8.32386e-05
8.53918e-05
8.6003e-05
8.51871e-05
8.24335e-05
7.58228e-05
5.87763e-05
5.47487e-05
6.34274e-05
6.60112e-05
6.67077e-05
6.69293e-05
6.69918e-05
6.70044e-05
6.70017e-05
6.69813e-05
6.69023e-05
6.66458e-05
6.58916e-05
6.32461e-05
5.46062e-05
5.86253e-05
7.52914e-05
8.13627e-05
8.3133e-05
8.21688e-05
7.83684e-05
7.01141e-05
5.21917e-05
5.2208e-05
7.02574e-05
7.87829e-05
8.31701e-05
8.53354e-05
8.60106e-05
8.53801e-05
8.31685e-05
7.84621e-05
6.93647e-05
5.76125e-05
6.34981e-05
6.7213e-05
6.83445e-05
6.86038e-05
6.8674e-05
6.86955e-05
6.86993e-05
6.86941e-05
6.86733e-05
6.86095e-05
6.84383e-05
6.7985e-05
6.6589e-05
6.28148e-05
5.7253e-05
6.88607e-05
7.77665e-05
8.20292e-05
8.33125e-05
8.2197e-05
7.83539e-05
7.00992e-05
5.21905e-05
5.21923e-05
7.01688e-05
7.86394e-05
8.29992e-05
8.51874e-05
8.59815e-05
8.56672e-05
8.42181e-05
8.14011e-05
7.70839e-05
7.25127e-05
7.17416e-05
7.12849e-05
7.05527e-05
7.01064e-05
6.99269e-05
6.98685e-05
6.98504e-05
6.98425e-05
6.98324e-05
6.98132e-05
6.97895e-05
6.97979e-05
6.98769e-05
7.02e-05
7.12315e-05
7.60709e-05
8.04608e-05
8.29881e-05
8.3599e-05
8.22231e-05
7.82986e-05
7.00467e-05
5.2181e-05
5.21456e-05
6.99413e-05
7.82862e-05
8.25702e-05
8.47512e-05
8.56463e-05
8.56154e-05
8.47678e-05
8.30925e-05
8.06564e-05
7.79171e-05
7.57307e-05
7.35663e-05
7.15472e-05
7.0528e-05
7.01392e-05
7.00129e-05
6.99759e-05
6.9966e-05
6.99665e-05
6.99855e-05
7.00755e-05
7.0401e-05
7.13375e-05
7.33913e-05
7.60071e-05
7.9247e-05
8.19535e-05
8.34817e-05
8.35904e-05
8.20061e-05
7.80441e-05
6.98593e-05
5.21404e-05
5.20217e-05
6.94075e-05
7.74943e-05
8.16124e-05
8.3719e-05
8.46513e-05
8.48078e-05
8.43532e-05
8.33274e-05
8.17508e-05
7.97276e-05
7.74393e-05
7.48977e-05
7.25305e-05
7.13173e-05
7.08424e-05
7.06839e-05
7.06372e-05
7.06264e-05
7.06326e-05
7.06717e-05
7.08163e-05
7.12721e-05
7.24783e-05
7.49079e-05
7.76592e-05
8.02373e-05
8.21562e-05
8.31139e-05
8.29126e-05
8.12328e-05
7.73398e-05
6.93606e-05
5.20215e-05
5.17177e-05
6.82426e-05
7.58469e-05
7.966e-05
8.15957e-05
8.24832e-05
8.27291e-05
8.25151e-05
8.18912e-05
8.08467e-05
7.93744e-05
7.75194e-05
7.54192e-05
7.34924e-05
7.24187e-05
7.19664e-05
7.18045e-05
7.17548e-05
7.17444e-05
7.17526e-05
7.18e-05
7.19575e-05
7.24049e-05
7.34804e-05
7.54446e-05
7.76251e-05
7.95443e-05
8.08813e-05
8.14491e-05
8.10756e-05
7.9429e-05
7.57616e-05
6.82224e-05
5.17209e-05
5.1018e-05
6.58051e-05
7.25481e-05
7.585e-05
7.74898e-05
7.82445e-05
7.84968e-05
7.8421e-05
7.80676e-05
7.74211e-05
7.64526e-05
7.51784e-05
7.37315e-05
7.24254e-05
7.16475e-05
7.12926e-05
7.11595e-05
7.11172e-05
7.11079e-05
7.11164e-05
7.11576e-05
7.12891e-05
7.16428e-05
7.24243e-05
7.37461e-05
7.52186e-05
7.64906e-05
7.73374e-05
7.76248e-05
7.71975e-05
7.57326e-05
7.25133e-05
6.58028e-05
5.10236e-05
4.95193e-05
6.06668e-05
6.581e-05
6.82528e-05
6.94188e-05
6.99413e-05
7.01282e-05
7.01194e-05
6.99564e-05
6.96276e-05
6.9105e-05
6.8392e-05
6.75731e-05
6.68313e-05
6.63699e-05
6.61483e-05
6.60609e-05
6.60317e-05
6.60253e-05
6.60319e-05
6.60612e-05
6.61483e-05
6.63698e-05
6.68331e-05
6.75802e-05
6.8406e-05
6.91061e-05
6.95486e-05
6.96514e-05
6.92961e-05
6.8214e-05
6.58065e-05
6.06736e-05
4.95251e-05
4.69549e-05
4.95226e-05
5.10269e-05
5.17322e-05
5.20416e-05
5.21702e-05
5.22182e-05
5.22266e-05
5.2206e-05
5.21519e-05
5.20616e-05
5.19279e-05
5.1764e-05
5.16087e-05
5.15097e-05
5.146e-05
5.14376e-05
5.14271e-05
5.14234e-05
5.14276e-05
5.14381e-05
5.14602e-05
5.15095e-05
5.16081e-05
5.17634e-05
5.19276e-05
5.20587e-05
5.21363e-05
5.21426e-05
5.2041e-05
5.17416e-05
5.10376e-05
4.95304e-05
4.69593e-05
7.27716e-05
8.24977e-05
8.78558e-05
9.04835e-05
9.17331e-05
9.2299e-05
9.25374e-05
9.26274e-05
9.26537e-05
9.26542e-05
9.26457e-05
9.26355e-05
9.26271e-05
9.26213e-05
9.26175e-05
9.26149e-05
9.26131e-05
9.26122e-05
9.2612e-05
9.26129e-05
9.26145e-05
9.26169e-05
9.26202e-05
9.26248e-05
9.26295e-05
9.26284e-05
9.26051e-05
9.25206e-05
9.22881e-05
9.17272e-05
9.0481e-05
8.78554e-05
8.24984e-05
7.27729e-05
8.24981e-05
0.000240809
0.000297716
0.000324427
0.000337951
0.000344683
0.000347806
0.000349072
0.000349431
0.000349381
0.000349175
0.000348942
0.000348751
0.000348617
0.000348533
0.000348479
0.000348446
0.000348429
0.00034843
0.000348446
0.000348479
0.000348531
0.000348608
0.000348718
0.000348838
0.000348872
0.000348569
0.00034741
0.000344406
0.000337777
0.000324327
0.000297662
0.000240786
8.24991e-05
8.78586e-05
0.000297741
0.000377966
0.000416905
0.000437266
0.000447757
0.000452772
0.000454797
0.000455263
0.000454979
0.000454411
0.000453829
0.000453371
0.000453071
0.000452895
0.000452788
0.000452723
0.000452691
0.000452692
0.000452724
0.000452789
0.000452891
0.000453051
0.000453302
0.000453619
0.000453828
0.000453486
0.000451726
0.000447024
0.000436813
0.000416658
0.000377852
0.000297704
8.78602e-05
9.04887e-05
0.000324469
0.000416925
0.000462949
0.000487573
0.000500491
0.000506646
0.000508902
0.000508982
0.000507961
0.000506548
0.000505215
0.000504209
0.000503584
0.000503235
0.000503022
0.000502888
0.000502823
0.000502824
0.00050289
0.000503023
0.000503229
0.000503554
0.000504106
0.000504907
0.000505714
0.000505887
0.000504225
0.000498781
0.000486506
0.000462363
0.00041665
0.000324375
9.04895e-05
9.17403e-05
0.000338004
0.000437306
0.000487599
0.000514867
0.000529179
0.000535682
0.00053739
0.000536214
0.0005335
0.000530331
0.000527536
0.000525517
0.000524339
0.000523726
0.000523327
0.000523063
0.000522932
0.000522932
0.000523065
0.000523328
0.000523719
0.000524302
0.000525388
0.000527151
0.0005293
0.000530974
0.000530523
0.000525531
0.000512576
0.000486324
0.000436692
0.000337781
9.17366e-05
9.23077e-05
0.000344748
0.000447827
0.000500574
0.000529264
0.000544003
0.000549886
0.000549886
0.000545985
0.000539879
0.000533356
0.000528034
0.000524388
0.000522455
0.000521567
0.000520883
0.00052039
0.000520146
0.000520147
0.000520393
0.000520885
0.000521561
0.000522416
0.000524248
0.000527607
0.000532201
0.000537043
0.000539638
0.000536812
0.000524761
0.000498053
0.000446591
0.000344275
9.22927e-05
9.25475e-05
0.000347891
0.000452904
0.000506863
0.000535998
0.000550216
0.00055431
0.000550924
0.000541875
0.000529304
0.000516611
0.00050773
0.000502102
0.000499564
0.000498709
0.000497623
0.000496773
0.000496363
0.000496365
0.000496776
0.000497627
0.000498706
0.000499531
0.00050197
0.000507305
0.000515415
0.0005263
0.000535112
0.00053705
0.000527875
0.000502332
0.000450659
0.000347005
9.25113e-05
9.26392e-05
0.000349199
0.000455059
0.000509404
0.000538239
0.00055107
0.000552067
0.000542995
0.000524731
0.000499457
0.000474481
0.000463767
0.000457908
0.000456149
0.000456382
0.00045479
0.000453507
0.000452936
0.000452937
0.00045351
0.000454795
0.000456383
0.000456127
0.000457804
0.000463396
0.000473344
0.000496419
0.000517728
0.000528606
0.0005248
0.000502018
0.000451396
0.000347723
9.25705e-05
9.26686e-05
0.00034964
0.000455764
0.000510021
0.000538102
0.000548946
0.000545677
0.000528091
0.00049354
0.000439864
0.000380149
0.00038807
0.000392704
0.000396024
0.000399286
0.000397349
0.000395917
0.000395366
0.000395367
0.000395919
0.000397353
0.000399291
0.000396017
0.000392648
0.000387832
0.000379266
0.000436964
0.000486418
0.000513343
0.000517857
0.000499182
0.00045043
0.000347465
9.25593e-05
9.26742e-05
0.000349725
0.000455868
0.000509876
0.000537135
0.000545967
0.000538102
0.00050972
0.000447652
0.000319115
0.000108138
0.00025998
0.000314113
0.000330459
0.000337825
0.000336679
0.000335928
0.000335699
0.0003357
0.000335931
0.000336683
0.000337834
0.00033047
0.000314124
0.000259998
0.000108016
0.000316795
0.000440535
0.000494706
0.000509899
0.000495765
0.000449005
0.000346909
9.2527e-05
9.26731e-05
0.000349709
0.000455841
0.000509696
0.000536487
0.000544159
0.000533417
0.000496612
0.000401075
0.000111091
9.75516e-05
0.000250373
0.000280898
0.000287345
0.000290448
0.00029147
0.000291702
0.000291703
0.000291473
0.000290454
0.000287354
0.000280916
0.000250411
9.75555e-05
0.000110658
0.00039424
0.000481476
0.000505019
0.000493741
0.000448135
0.000346531
9.25056e-05
9.2672e-05
0.000349703
0.000455896
0.000509827
0.000536749
0.000544788
0.00053541
0.000504512
0.000438828
0.000306568
0.000104442
0.000225122
0.000264077
0.00027246
0.000268805
0.000276871
0.000279677
0.000280224
0.000280224
0.000279677
0.000276873
0.000268799
0.00027245
0.000264059
0.000225081
0.000104305
0.000304205
0.000431669
0.000489411
0.000507056
0.000494369
0.000448345
0.000346556
9.25096e-05
9.26724e-05
0.000349735
0.000456061
0.000510252
0.000537717
0.000546971
0.000540527
0.000517378
0.000473958
0.000407361
0.000331507
0.000312894
0.000294387
0.000287135
0.000283206
0.000284985
0.000285855
0.000286041
0.00028604
0.000285852
0.000284979
0.000283189
0.000287102
0.000294304
0.00031264
0.000330636
0.000404461
0.000466756
0.000502412
0.000512324
0.000496658
0.000449351
0.00034692
9.25332e-05
9.26734e-05
0.000349788
0.000456277
0.00051079
0.000538906
0.000549468
0.000545672
0.000527941
0.000495529
0.000449149
0.000395951
0.000351239
0.000312745
0.000296792
0.000291137
0.000289975
0.000289767
0.000289718
0.000289718
0.000289764
0.000289969
0.000291121
0.000296753
0.00031264
0.000350916
0.000394897
0.000446118
0.000488341
0.000513082
0.000517599
0.00049926
0.000450582
0.000347399
9.2562e-05
9.26742e-05
0.000349841
0.000456477
0.000511277
0.000539947
0.000551537
0.000549566
0.000534931
0.0005074
0.000467421
0.000418504
0.0003677
0.000321945
0.00030181
0.000294601
0.000292427
0.000291846
0.000291713
0.000291713
0.000291845
0.000292423
0.000294588
0.000301771
0.000321836
0.000367362
0.000417401
0.000464346
0.000500216
0.000520122
0.000521561
0.000501385
0.000451639
0.000347822
9.25852e-05
9.26741e-05
0.000349881
0.000456625
0.000511634
0.000540689
0.000552951
0.000552062
0.000539023
0.000513567
0.000475681
0.000427568
0.000374767
0.000326249
0.00030427
0.00029622
0.000293666
0.00029296
0.000292803
0.000292803
0.00029296
0.000293663
0.000296208
0.000304233
0.000326143
0.000374445
0.000426447
0.000472582
0.000506372
0.000524223
0.000524077
0.000502813
0.00045237
0.000348118
9.25997e-05
9.26734e-05
0.000349904
0.000456716
0.000511851
0.000541133
0.000553771
0.000553448
0.000541159
0.000516543
0.000479332
0.000431295
0.000377684
0.0003281
0.000305359
0.000296935
0.000294232
0.000293483
0.000293319
0.000293319
0.000293483
0.00029423
0.000296924
0.000305322
0.000327993
0.000377358
0.000430162
0.000476218
0.000509334
0.00052635
0.000525458
0.000503626
0.000452794
0.000348289
9.26066e-05
9.26724e-05
0.000349915
0.000456758
0.000511951
0.000541336
0.000554138
0.000554049
0.00054205
0.000517727
0.00048071
0.000432638
0.000378724
0.000328768
0.000305754
0.000297192
0.000294436
0.000293673
0.000293508
0.000293508
0.000293674
0.000294434
0.000297181
0.000305717
0.000328661
0.000378395
0.0004315
0.000477587
0.00051051
0.000527234
0.000526052
0.000503984
0.000452982
0.000348364
9.26086e-05
9.26716e-05
0.000349915
0.000456759
0.000511955
0.000541341
0.000554145
0.000554059
0.000542063
0.000517743
0.000480727
0.000432655
0.000378741
0.00032879
0.000305767
0.000297199
0.000294441
0.000293677
0.000293512
0.000293513
0.000293678
0.000294439
0.000297188
0.000305731
0.000328683
0.000378412
0.000431518
0.000477605
0.000510527
0.000527248
0.000526062
0.000503991
0.000452986
0.000348364
9.26076e-05
9.26713e-05
0.000349904
0.00045672
0.000511861
0.000541149
0.000553794
0.000553478
0.000541198
0.000516591
0.000479387
0.000431351
0.00037774
0.000328172
0.000305406
0.000296963
0.000294252
0.000293502
0.000293341
0.000293342
0.000293504
0.000294251
0.000296953
0.000305371
0.000328068
0.000377415
0.00043022
0.000476274
0.000509385
0.000526391
0.000525489
0.000503647
0.000452806
0.000348291
9.2604e-05
9.26713e-05
0.000349879
0.000456632
0.000511649
0.000540713
0.000552986
0.000552112
0.000539089
0.000513651
0.000475782
0.000427678
0.000374878
0.000326389
0.00030437
0.00029629
0.000293724
0.000293019
0.000292865
0.000292867
0.000293022
0.000293726
0.000296284
0.00030434
0.000326292
0.000374561
0.000426561
0.000472688
0.000506459
0.000524289
0.000524125
0.000502845
0.000452388
0.000348121
9.25962e-05
9.2671e-05
0.000349837
0.000456482
0.000511291
0.000539971
0.000551575
0.000549625
0.000535017
0.000507523
0.000467586
0.000418702
0.000367934
0.000322187
0.000301989
0.000294743
0.000292553
0.000291973
0.000291846
0.000291848
0.000291978
0.000292559
0.000294743
0.000301968
0.000322104
0.000367633
0.000417616
0.00046452
0.000500338
0.000520202
0.000521613
0.000501419
0.000451657
0.000347823
9.25815e-05
9.26699e-05
0.000349775
0.000456269
0.000510785
0.000538905
0.00054948
0.000545708
0.00052802
0.000495682
0.000449404
0.000396308
0.000351659
0.000313098
0.000297036
0.000291337
0.000290145
0.000289937
0.000289897
0.0002899
0.000289946
0.000290158
0.000291345
0.000297024
0.000313032
0.000351393
0.000395291
0.000446387
0.000488474
0.000513129
0.00051761
0.000499261
0.00045058
0.000347387
9.25577e-05
9.26676e-05
0.000349696
0.000456003
0.000510173
0.000537622
0.00054687
0.000540444
0.000517355
0.000474078
0.000407738
0.000332123
0.000313505
0.000294636
0.00028714
0.000283132
0.000284829
0.000285692
0.000285889
0.000285893
0.000285704
0.000284842
0.000283127
0.000287103
0.000294566
0.000313345
0.000331328
0.000404864
0.000466786
0.000502272
0.000512162
0.000496535
0.000449271
0.000346869
9.25272e-05
9.26635e-05
0.000349588
0.000455693
0.000509536
0.00053638
0.000544359
0.000534952
0.0005041
0.000438661
0.000307056
0.000104564
0.000225365
0.000262922
0.000270608
0.000266589
0.000274503
0.00027731
0.000277871
0.000277871
0.000277303
0.000274463
0.000266445
0.000270336
0.000262598
0.000225408
0.000104429
0.000304771
0.000431171
0.000488641
0.000506387
0.000493895
0.000448052
0.000346398
9.24983e-05
9.26532e-05
0.00034939
0.000455258
0.000508863
0.000535428
0.0005429
0.000531977
0.000495049
0.000399689
0.000110845
9.64237e-05
0.000243408
0.000271809
0.000276936
0.00027978
0.000280824
0.000281086
0.000281069
0.000280743
0.000279533
0.000276302
0.00027053
0.000241549
9.59219e-05
0.000110163
0.000391695
0.000478943
0.000503087
0.000492424
0.000447319
0.000346107
9.248e-05
9.26223e-05
0.000348888
0.000454364
0.000507776
0.000534509
0.000542848
0.000534441
0.00050537
0.00044251
0.000313826
0.000106351
0.000243599
0.000291004
0.000301178
0.00030428
0.000302886
0.000302415
0.000302337
0.000302288
0.00030219
0.000302188
0.000302413
0.000296954
0.000283427
0.000235861
0.000104946
0.000307151
0.000431699
0.000488098
0.00050528
0.000492657
0.000447039
0.000345872
9.24652e-05
9.25325e-05
0.000347585
0.000452202
0.000505204
0.000532222
0.000542076
0.000537657
0.000518364
0.000480966
0.000422509
0.000355167
0.000348986
0.000338782
0.000325716
0.000319504
0.000316551
0.000315574
0.000315309
0.000315225
0.000315179
0.000315259
0.00031575
0.00031618
0.000319472
0.000328118
0.000338008
0.000407557
0.000466256
0.000499622
0.000508427
0.00049268
0.00044613
0.000345106
9.2409e-05
9.22967e-05
0.000344491
0.00044725
0.000499197
0.000526113
0.000537255
0.000536363
0.000524469
0.000501298
0.000467367
0.000428035
0.000395841
0.000362209
0.000329495
0.000315839
0.000311053
0.000309562
0.000309141
0.000309036
0.000309054
0.000309327
0.000310513
0.000314607
0.000327794
0.000361525
0.000399983
0.0004459
0.000483402
0.000504805
0.000507721
0.000489543
0.000442627
0.000342634
9.22109e-05
9.1734e-05
0.000337815
0.000436905
0.000486629
0.000512602
0.000524263
0.000525777
0.000518804
0.00050369
0.000480556
0.000450566
0.000416205
0.000377648
0.000340327
0.000324244
0.000318505
0.000316658
0.000316117
0.000315994
0.000316073
0.000316542
0.000318266
0.000323845
0.000340046
0.000378486
0.000419585
0.000457274
0.00048523
0.000499798
0.00049898
0.00047964
0.000433647
0.000336537
9.16811e-05
9.04865e-05
0.000324341
0.000416691
0.000462371
0.000486163
0.000497323
0.00050009
0.000496323
0.000486499
0.000470438
0.000448079
0.000420224
0.000389061
0.000360731
0.000346538
0.000340838
0.000338833
0.000338197
0.00033805
0.000338184
0.000338793
0.000340762
0.000346457
0.000360831
0.000389742
0.000421902
0.000450321
0.000470481
0.000479899
0.000476742
0.000457701
0.000414596
0.000323542
9.04587e-05
8.78597e-05
0.000297663
0.000377862
0.000416634
0.000436541
0.000446015
0.000448985
0.00044724
0.000441289
0.000430941
0.000415939
0.000396761
0.000375496
0.000356687
0.000346089
0.00034137
0.000339554
0.000338935
0.000338793
0.00033894
0.00033956
0.000341377
0.00034612
0.000356823
0.000375887
0.00039747
0.000416463
0.000429573
0.000434904
0.000430744
0.000413883
0.000376686
0.000297225
8.78488e-05
8.25014e-05
0.000240777
0.000297702
0.000324365
0.000337709
0.000343993
0.000346157
0.000345564
0.000342626
0.000337223
0.000329145
0.000318638
0.000306988
0.000296707
0.000290465
0.000287472
0.000286249
0.000285813
0.000285713
0.000285827
0.000286276
0.000287513
0.000290528
0.000296826
0.00030721
0.000318951
0.000329217
0.000336108
0.00033844
0.00033494
0.000323123
0.000297201
0.000240589
8.25006e-05
7.27752e-05
8.25013e-05
8.78642e-05
9.04958e-05
9.17435e-05
9.22939e-05
9.24882e-05
9.24794e-05
9.23129e-05
9.1976e-05
9.14403e-05
9.07071e-05
8.9863e-05
8.91004e-05
8.86228e-05
8.83906e-05
8.82953e-05
8.8261e-05
8.8253e-05
8.82619e-05
8.82968e-05
8.83925e-05
8.86251e-05
8.91047e-05
8.98724e-05
9.07216e-05
9.14397e-05
9.18926e-05
9.19939e-05
9.16122e-05
9.04478e-05
8.78511e-05
8.24999e-05
7.27798e-05
7.62965e-05
8.97756e-05
9.71019e-05
0.000100776
0.000102594
0.000103456
0.000103836
0.000103985
0.000104029
0.000104027
0.000104009
0.000103988
0.00010397
0.000103958
0.00010395
0.000103945
0.000103942
0.000103941
0.000103941
0.000103942
0.000103945
0.00010395
0.000103957
0.000103966
0.000103977
0.000103977
0.000103939
0.0001038
0.000103431
0.000102579
0.000100769
9.70984e-05
8.97747e-05
7.62977e-05
8.97757e-05
0.000316009
0.000404155
0.000446608
0.000468598
0.000479843
0.000485215
0.000487446
0.000488076
0.000487946
0.000487513
0.000487026
0.000486618
0.000486329
0.000486144
0.000486026
0.000485953
0.000485917
0.000485917
0.000485952
0.000486023
0.000486136
0.000486304
0.000486541
0.000486802
0.000486903
0.000486388
0.00048437
0.000479239
0.000468206
0.000446373
0.000404024
0.000315948
8.97745e-05
9.71043e-05
0.000404197
0.000536309
0.000602461
0.000637701
0.000656199
0.000665211
0.0006689
0.000669714
0.000669093
0.000667899
0.000666659
0.000665664
0.000664999
0.000664601
0.000664356
0.000664208
0.000664136
0.000664136
0.000664207
0.000664353
0.000664587
0.000664949
0.000665506
0.000666209
0.000666707
0.00066616
0.000663013
0.000654632
0.000636704
0.000601894
0.000536025
0.000404088
9.71022e-05
0.000100782
0.000446679
0.0006025
0.000682672
0.000726285
0.000749496
0.000760704
0.000764823
0.000764872
0.000762778
0.000759864
0.000757056
0.000754891
0.00075352
0.000752744
0.000752261
0.00075196
0.000751815
0.000751815
0.000751961
0.000752257
0.000752724
0.000753446
0.000754658
0.000756399
0.000758157
0.000758683
0.000755765
0.00074597
0.000724037
0.000681394
0.000601869
0.000446442
0.000100775
0.000102602
0.000468692
0.000637783
0.000726344
0.000775113
0.000801017