/*--------------------------------*- C++ -*----------------------------------*\
| =========                 |                                                 |
| \\      /  F ield         | OpenFOAM: The Open Source CFD Toolbox           |
|  \\    /   O peration     | Version:  2112                                  |
|   \\  /    A nd           | Website:  www.openfoam.com                      |
|    \\/     M anipulation  |                                                 |
\*---------------------------------------------------------------------------*/
FoamFile
{
    version     2.0;
    format      ascii;
    arch        "LSB;label=32;scalar=64";
    class       volScalarField;
    location    "3.3";
    object      p;
}
// * * * * * * * * * * * * * * * * * * * * * * * * * * * * * * * * * * * * * //

dimensions      [0 2 -2 0 0 0 0];

internalField   nonuniform List<scalar> 
64906
(
-5.64639e-06
-5.62737e-06
-5.61357e-06
-5.61464e-06
-5.63568e-06
-5.67888e-06
-5.74637e-06
-5.84256e-06
-5.96264e-06
-6.1044e-06
-6.27248e-06
-6.44227e-06
-6.59743e-06
-6.73944e-06
-6.86925e-06
-6.97758e-06
-7.05685e-06
-7.10649e-06
-7.12647e-06
-7.11691e-06
-7.0783e-06
-7.01128e-06
-6.92449e-06
-6.82639e-06
-6.71554e-06
-6.58502e-06
-6.47483e-06
-6.38613e-06
-6.32274e-06
-6.28398e-06
-6.26926e-06
-6.27953e-06
-6.29136e-06
-6.31004e-06
-5.58959e-06
-5.51659e-06
-5.45996e-06
-5.42034e-06
-5.40688e-06
-5.41868e-06
-5.45381e-06
-5.51042e-06
-5.58415e-06
-5.67036e-06
-5.75714e-06
-5.85288e-06
-5.94874e-06
-6.038e-06
-6.11573e-06
-6.18041e-06
-6.22964e-06
-6.2636e-06
-6.28222e-06
-6.28565e-06
-6.27429e-06
-6.24818e-06
-6.2102e-06
-6.16207e-06
-6.10998e-06
-6.0665e-06
-6.02123e-06
-5.98426e-06
-5.96498e-06
-5.96796e-06
-5.99737e-06
-6.05209e-06
-6.13748e-06
-6.2302e-06
-5.56389e-06
-5.4519e-06
-5.34707e-06
-5.26091e-06
-5.20943e-06
-5.19085e-06
-5.20176e-06
-5.23929e-06
-5.29907e-06
-5.37821e-06
-5.46589e-06
-5.56146e-06
-5.64721e-06
-5.72348e-06
-5.78426e-06
-5.83336e-06
-5.87053e-06
-5.89763e-06
-5.91507e-06
-5.92298e-06
-5.92129e-06
-5.9084e-06
-5.88497e-06
-5.84761e-06
-5.80327e-06
-5.75257e-06
-5.71147e-06
-5.68489e-06
-5.68648e-06
-5.7219e-06
-5.7981e-06
-5.91768e-06
-6.06118e-06
-6.20661e-06
-5.57119e-06
-5.42364e-06
-5.27438e-06
-5.14494e-06
-5.06031e-06
-5.02019e-06
-5.02221e-06
-5.06547e-06
-5.14739e-06
-5.26873e-06
-5.41288e-06
-5.57507e-06
-5.70991e-06
-5.8215e-06
-5.90082e-06
-5.96018e-06
-6.00147e-06
-6.02971e-06
-6.04603e-06
-6.05056e-06
-6.04245e-06
-6.01696e-06
-5.97273e-06
-5.89787e-06
-5.80271e-06
-5.68386e-06
-5.58944e-06
-5.52657e-06
-5.51687e-06
-5.56416e-06
-5.67435e-06
-5.84772e-06
-6.04717e-06
-6.23991e-06
-5.62547e-06
-5.44793e-06
-5.26343e-06
-5.1018e-06
-4.99742e-06
-4.95345e-06
-4.9713e-06
-5.05585e-06
-5.2101e-06
-5.44412e-06
-5.73249e-06
-6.06886e-06
-6.33658e-06
-6.54823e-06
-6.69054e-06
-6.79252e-06
-6.85852e-06
-6.89834e-06
-6.91392e-06
-6.90533e-06
-6.87091e-06
-6.80102e-06
-6.69205e-06
-6.51545e-06
-6.28661e-06
-5.9936e-06
-5.75931e-06
-5.59115e-06
-5.5216e-06
-5.5465e-06
-5.66652e-06
-5.87437e-06
-6.11731e-06
-6.35018e-06
-5.72867e-06
-5.52264e-06
-5.30905e-06
-5.12539e-06
-5.01484e-06
-4.98532e-06
-5.04402e-06
-5.20529e-06
-5.48299e-06
-5.9067e-06
-6.44637e-06
-7.11586e-06
-7.61676e-06
-7.99927e-06
-8.24872e-06
-8.42608e-06
-8.5375e-06
-8.59965e-06
-8.61493e-06
-8.58331e-06
-8.50261e-06
-8.3561e-06
-8.13859e-06
-7.78953e-06
-7.32705e-06
-6.70075e-06
-6.22162e-06
-5.87181e-06
-5.6918e-06
-5.65943e-06
-5.76552e-06
-5.99101e-06
-6.26879e-06
-6.54056e-06
-5.87892e-06
-5.64221e-06
-5.40172e-06
-5.20377e-06
-5.09876e-06
-5.09975e-06
-5.22031e-06
-5.48651e-06
-5.92842e-06
-6.61566e-06
-7.50568e-06
-8.77427e-06
-9.61029e-06
-1.0226e-05
-1.06149e-05
-1.08927e-05
-1.1065e-05
-1.11578e-05
-1.11733e-05
-1.11112e-05
-1.09696e-05
-1.07218e-05
-1.03636e-05
-9.77921e-06
-8.98142e-06
-7.75294e-06
-6.93497e-06
-6.3293e-06
-5.9975e-06
-5.87971e-06
-5.95282e-06
-6.18458e-06
-6.49328e-06
-6.80858e-06
-6.07091e-06
-5.7969e-06
-5.53416e-06
-5.32643e-06
-5.23811e-06
-5.28536e-06
-5.48615e-06
-5.87331e-06
-6.49577e-06
-7.46124e-06
-8.7286e-06
-1.1107e-05
-1.23206e-05
-1.32225e-05
-1.37807e-05
-1.41873e-05
-1.44389e-05
-1.45723e-05
-1.45884e-05
-1.44869e-05
-1.42668e-05
-1.389e-05
-1.33613e-05
-1.24871e-05
-1.13115e-05
-8.96129e-06
-7.79186e-06
-6.91171e-06
-6.40942e-06
-6.1894e-06
-6.21341e-06
-6.44235e-06
-6.78054e-06
-7.14935e-06
-6.30213e-06
-5.98026e-06
-5.69251e-06
-5.47938e-06
-5.41761e-06
-5.52459e-06
-5.81773e-06
-6.32744e-06
-7.06963e-06
-8.23593e-06
-9.86625e-06
-1.42938e-05
-1.55935e-05
-1.67668e-05
-1.74898e-05
-1.80167e-05
-1.83429e-05
-1.85155e-05
-1.85326e-05
-1.83939e-05
-1.81005e-05
-1.76039e-05
-1.69093e-05
-1.57566e-05
-1.44964e-05
-1.00799e-05
-8.61568e-06
-7.50802e-06
-6.88834e-06
-6.56158e-06
-6.52623e-06
-6.74746e-06
-7.11264e-06
-7.55129e-06
-6.56973e-06
-6.18369e-06
-5.87003e-06
-5.65979e-06
-5.64383e-06
-5.8414e-06
-6.27094e-06
-6.93524e-06
-7.88345e-06
-1.02362e-05
-8.27102e-06
-1.7601e-05
-1.8922e-05
-2.06027e-05
-2.15683e-05
-2.22845e-05
-2.27287e-05
-2.2959e-05
-2.29773e-05
-2.27831e-05
-2.23741e-05
-2.169e-05
-2.07538e-05
-1.90885e-05
-1.78349e-05
-8.38115e-06
-1.05931e-05
-8.29632e-06
-7.50597e-06
-7.0419e-06
-6.90544e-06
-7.09518e-06
-7.48266e-06
-8.00704e-06
-6.84504e-06
-6.39133e-06
-6.05073e-06
-5.84681e-06
-5.88791e-06
-6.19669e-06
-6.75619e-06
-7.41624e-06
-8.06153e-06
-5.90294e-06
-2.5956e-05
-2.33462e-05
-2.43693e-05
-2.5271e-05
-2.60522e-05
-2.65686e-05
-2.68306e-05
-2.68497e-05
-2.66256e-05
-2.61462e-05
-2.53989e-05
-2.45246e-05
-2.351e-05
-2.60395e-05
-6.58243e-06
-8.61459e-06
-8.02988e-06
-7.55041e-06
-7.31088e-06
-7.45239e-06
-7.86431e-06
-8.50758e-06
-7.13285e-06
-6.59088e-06
-6.23277e-06
-6.04754e-06
-6.18102e-06
-6.70611e-06
-7.7354e-06
-9.42599e-06
-1.22046e-05
-1.57454e-05
-2.35749e-05
-2.24592e-05
-2.52678e-05
-2.73261e-05
-2.88862e-05
-3.00498e-05
-3.07674e-05
-3.11101e-05
-3.11298e-05
-3.0827e-05
-3.01501e-05
-2.90285e-05
-2.75135e-05
-2.55077e-05
-2.27504e-05
-2.39987e-05
-1.61151e-05
-1.26317e-05
-9.96628e-06
-8.49811e-06
-7.84035e-06
-7.84183e-06
-8.24385e-06
-9.04336e-06
-7.40659e-06
-6.78224e-06
-6.39817e-06
-6.21633e-06
-6.40521e-06
-7.0529e-06
-8.281e-06
-1.01967e-05
-1.2924e-05
-1.61277e-05
-2.13955e-05
-2.42912e-05
-2.69501e-05
-2.92581e-05
-3.10976e-05
-3.23999e-05
-3.32032e-05
-3.35862e-05
-3.3606e-05
-3.32629e-05
-3.25007e-05
-3.12408e-05
-2.94467e-05
-2.71807e-05
-2.45523e-05
-2.17309e-05
-1.65012e-05
-1.3325e-05
-1.07068e-05
-9.03235e-06
-8.21833e-06
-8.16841e-06
-8.60272e-06
-9.52152e-06
-7.64827e-06
-6.96635e-06
-6.54985e-06
-6.36217e-06
-6.58445e-06
-7.31051e-06
-8.66295e-06
-1.07428e-05
-1.36561e-05
-1.72322e-05
-2.16202e-05
-2.50273e-05
-2.81423e-05
-3.06891e-05
-3.26806e-05
-3.40342e-05
-3.4858e-05
-3.52451e-05
-3.52645e-05
-3.49165e-05
-3.41333e-05
-3.28223e-05
-3.08767e-05
-2.83732e-05
-2.53034e-05
-2.19309e-05
-1.75576e-05
-1.40193e-05
-1.12284e-05
-9.41264e-06
-8.51558e-06
-8.45185e-06
-8.92912e-06
-9.95013e-06
-7.85722e-06
-7.12655e-06
-6.67779e-06
-6.47381e-06
-6.70309e-06
-7.45868e-06
-8.8565e-06
-1.09903e-05
-1.39376e-05
-1.75516e-05
-2.16767e-05
-2.54154e-05
-2.88258e-05
-3.148e-05
-3.35192e-05
-3.4868e-05
-3.56787e-05
-3.60547e-05
-3.60736e-05
-3.57358e-05
-3.49647e-05
-3.36573e-05
-3.16633e-05
-2.90513e-05
-2.56864e-05
-2.19671e-05
-1.78556e-05
-1.42819e-05
-1.14669e-05
-9.61813e-06
-8.71199e-06
-8.67277e-06
-9.20307e-06
-1.03127e-05
-8.02971e-06
-7.25963e-06
-6.78325e-06
-6.56101e-06
-6.78649e-06
-7.55107e-06
-8.96494e-06
-1.11187e-05
-1.40761e-05
-1.77111e-05
-2.18012e-05
-2.57029e-05
-2.92621e-05
-3.19773e-05
-3.40332e-05
-3.53638e-05
-3.61527e-05
-3.65141e-05
-3.65328e-05
-3.62092e-05
-3.54593e-05
-3.41695e-05
-3.2158e-05
-2.94841e-05
-2.59772e-05
-2.20814e-05
-1.80034e-05
-1.44114e-05
-1.15957e-05
-9.74526e-06
-8.85297e-06
-8.84725e-06
-9.4257e-06
-1.06051e-05
-8.16227e-06
-7.36264e-06
-6.86471e-06
-6.6258e-06
-6.84304e-06
-7.60659e-06
-9.02334e-06
-1.11842e-05
-1.41492e-05
-1.78102e-05
-2.19266e-05
-2.59234e-05
-2.95652e-05
-3.23145e-05
-3.43767e-05
-3.56938e-05
-3.64679e-05
-3.68197e-05
-3.68387e-05
-3.65252e-05
-3.57905e-05
-3.45141e-05
-3.24952e-05
-2.97829e-05
-2.61761e-05
-2.21987e-05
-1.80974e-05
-1.44827e-05
-1.16671e-05
-9.82371e-06
-8.95089e-06
-8.97682e-06
-9.59379e-06
-1.08241e-05
-8.25357e-06
-7.43503e-06
-6.92332e-06
-6.67332e-06
-6.88478e-06
-7.64765e-06
-9.06799e-06
-1.12384e-05
-1.42182e-05
-1.79087e-05
-2.20624e-05
-2.61202e-05
-2.98159e-05
-3.25932e-05
-3.46663e-05
-3.59825e-05
-3.67528e-05
-3.7102e-05
-3.7122e-05
-3.6813e-05
-3.60836e-05
-3.48091e-05
-3.27799e-05
-3.00408e-05
-2.63854e-05
-2.23386e-05
-1.81978e-05
-1.45544e-05
-1.17286e-05
-9.88491e-06
-9.02265e-06
-9.06834e-06
-9.70942e-06
-1.09715e-05
-8.30324e-06
-7.47656e-06
-6.95932e-06
-6.70518e-06
-6.91554e-06
-7.681e-06
-9.10864e-06
-1.12939e-05
-1.42956e-05
-1.80168e-05
-2.22067e-05
-2.63028e-05
-3.0031e-05
-3.28323e-05
-3.49219e-05
-3.62495e-05
-3.7027e-05
-3.73805e-05
-3.7402e-05
-3.70919e-05
-3.6358e-05
-3.50743e-05
-3.30301e-05
-3.02678e-05
-2.65802e-05
-2.24915e-05
-1.83122e-05
-1.46375e-05
-1.17913e-05
-9.93694e-06
-9.07283e-06
-9.12368e-06
-9.77356e-06
-1.10489e-05
-8.31181e-06
-7.48767e-06
-6.97312e-06
-6.72169e-06
-6.93576e-06
-7.70803e-06
-9.14816e-06
-1.135e-05
-1.43791e-05
-1.81317e-05
-2.23583e-05
-2.64736e-05
-3.02124e-05
-3.3032e-05
-3.51417e-05
-3.64915e-05
-3.72862e-05
-3.76504e-05
-3.76742e-05
-3.73579e-05
-3.66107e-05
-3.53082e-05
-3.3246e-05
-3.04661e-05
-2.67657e-05
-2.26562e-05
-1.84379e-05
-1.47294e-05
-1.18538e-05
-9.97941e-06
-9.10171e-06
-9.14366e-06
-9.78739e-06
-1.10578e-05
-8.28108e-06
-7.46974e-06
-6.96548e-06
-6.72201e-06
-6.94138e-06
-7.71858e-06
-9.1682e-06
-1.13883e-05
-1.44501e-05
-1.82381e-05
-2.25176e-05
-2.66324e-05
-3.03522e-05
-3.31802e-05
-3.53105e-05
-3.66916e-05
-3.75126e-05
-3.78936e-05
-3.79207e-05
-3.75939e-05
-3.68262e-05
-3.54975e-05
-3.34184e-05
-3.06315e-05
-2.69443e-05
-2.28357e-05
-1.85624e-05
-1.48157e-05
-1.19034e-05
-1.00045e-05
-9.10629e-06
-9.12876e-06
-9.75291e-06
-1.10001e-05
-8.21369e-06
-7.4243e-06
-6.93635e-06
-6.70225e-06
-6.92193e-06
-7.69252e-06
-9.13523e-06
-1.13544e-05
-1.44392e-05
-1.8266e-05
-2.26674e-05
-2.67404e-05
-3.03939e-05
-3.31982e-05
-3.53303e-05
-3.6742e-05
-3.75928e-05
-3.79946e-05
-3.8026e-05
-3.76872e-05
-3.6898e-05
-3.5547e-05
-3.34729e-05
-3.07181e-05
-2.7117e-05
-2.302e-05
-1.86201e-05
-1.48316e-05
-1.1891e-05
-9.98193e-06
-9.07205e-06
-9.07475e-06
-9.67083e-06
-1.08779e-05
-8.11443e-06
-7.35591e-06
-6.8895e-06
-6.66359e-06
-6.87384e-06
-7.61785e-06
-9.02271e-06
-1.12009e-05
-1.42822e-05
-1.81383e-05
-2.28739e-05
-2.68601e-05
-3.02874e-05
-3.30159e-05
-3.51174e-05
-3.65462e-05
-3.74198e-05
-3.78405e-05
-3.78786e-05
-3.75342e-05
-3.67357e-05
-3.53815e-05
-3.33489e-05
-3.06771e-05
-2.72783e-05
-2.3269e-05
-1.85479e-05
-1.47255e-05
-1.17798e-05
-9.89536e-06
-8.99601e-06
-8.98627e-06
-9.54884e-06
-1.06986e-05
-7.9864e-06
-7.2701e-06
-6.82577e-06
-6.59879e-06
-6.77577e-06
-7.44718e-06
-8.73485e-06
-1.07455e-05
-1.35957e-05
-1.70272e-05
-2.28991e-05
-2.71404e-05
-2.99104e-05
-3.23861e-05
-3.43503e-05
-3.57437e-05
-3.66126e-05
-3.70429e-05
-3.70908e-05
-3.67574e-05
-3.59842e-05
-3.46881e-05
-3.28118e-05
-3.04144e-05
-2.76866e-05
-2.33442e-05
-1.74956e-05
-1.41106e-05
-1.13975e-05
-9.66029e-06
-8.84103e-06
-8.85167e-06
-9.38817e-06
-1.0468e-05
-7.81774e-06
-7.1992e-06
-6.76041e-06
-6.52625e-06
-6.65682e-06
-7.2274e-06
-8.35861e-06
-1.02223e-05
-1.32936e-05
-1.74358e-05
-2.44536e-05
-2.54849e-05
-2.89394e-05
-3.15042e-05
-3.33054e-05
-3.46374e-05
-3.54743e-05
-3.58974e-05
-3.59615e-05
-3.56697e-05
-3.49645e-05
-3.37689e-05
-3.20805e-05
-2.96108e-05
-2.61684e-05
-2.48666e-05
-1.81555e-05
-1.40041e-05
-1.10178e-05
-9.37558e-06
-8.65813e-06
-8.70474e-06
-9.21656e-06
-1.01976e-05
-7.66808e-06
-7.10678e-06
-6.68447e-06
-6.43513e-06
-6.48806e-06
-6.86089e-06
-7.50392e-06
-8.16253e-06
-8.6938e-06
-5.3358e-06
-3.2874e-05
-2.90189e-05
-3.01488e-05
-3.12544e-05
-3.22477e-05
-3.29363e-05
-3.3318e-05
-3.34018e-05
-3.3194e-05
-3.26847e-05
-3.18876e-05
-3.09413e-05
-2.99799e-05
-3.37894e-05
-6.01738e-06
-9.52427e-06
-9.085e-06
-8.63084e-06
-8.34647e-06
-8.51873e-06
-9.04706e-06
-9.88332e-06
-7.53419e-06
-7.0221e-06
-6.62606e-06
-6.38459e-06
-6.42296e-06
-6.78588e-06
-7.54809e-06
-8.81971e-06
-1.09403e-05
-1.44144e-05
-1.54938e-05
-2.31318e-05
-2.56239e-05
-2.79715e-05
-2.95446e-05
-3.07638e-05
-3.1563e-05
-3.20118e-05
-3.21234e-05
-3.19102e-05
-3.13601e-05
-3.04214e-05
-2.90681e-05
-2.6978e-05
-2.4494e-05
-1.75311e-05
-1.60927e-05
-1.23681e-05
-1.00672e-05
-8.82621e-06
-8.31905e-06
-8.42289e-06
-8.89739e-06
-9.65746e-06
-7.4058e-06
-6.9512e-06
-6.58468e-06
-6.35516e-06
-6.37876e-06
-6.69911e-06
-7.37399e-06
-8.46538e-06
-1.00167e-05
-1.20694e-05
-1.60873e-05
-2.11969e-05
-2.35836e-05
-2.57979e-05
-2.74307e-05
-2.87028e-05
-2.95341e-05
-3.00073e-05
-3.01388e-05
-2.9948e-05
-2.94216e-05
-2.85071e-05
-2.71472e-05
-2.52645e-05
-2.29359e-05
-1.80279e-05
-1.36241e-05
-1.14578e-05
-9.79769e-06
-8.72176e-06
-8.24884e-06
-8.33201e-06
-8.76644e-06
-9.47228e-06
-7.33118e-06
-6.91495e-06
-6.58383e-06
-6.37999e-06
-6.40758e-06
-6.7088e-06
-7.34441e-06
-8.39699e-06
-9.99226e-06
-1.22245e-05
-1.51723e-05
-1.87471e-05
-2.13779e-05
-2.36749e-05
-2.53854e-05
-2.67152e-05
-2.75748e-05
-2.80605e-05
-2.81994e-05
-2.80171e-05
-2.74927e-05
-2.65732e-05
-2.5188e-05
-2.32867e-05
-2.07752e-05
-1.72844e-05
-1.41272e-05
-1.1636e-05
-9.83983e-06
-8.74108e-06
-8.25418e-06
-8.30148e-06
-8.68736e-06
-9.34172e-06
-7.29759e-06
-6.92084e-06
-6.63452e-06
-6.4686e-06
-6.51051e-06
-6.79494e-06
-7.37275e-06
-8.31467e-06
-9.7074e-06
-1.16256e-05
-1.40503e-05
-1.68206e-05
-1.92566e-05
-2.14438e-05
-2.31068e-05
-2.43826e-05
-2.5204e-05
-2.56686e-05
-2.58043e-05
-2.56408e-05
-2.51562e-05
-2.43007e-05
-2.29926e-05
-2.12175e-05
-1.88979e-05
-1.61566e-05
-1.35293e-05
-1.13651e-05
-9.77696e-06
-8.77475e-06
-8.31489e-06
-8.33491e-06
-8.66925e-06
-9.2679e-06
-7.30554e-06
-6.97794e-06
-6.75454e-06
-6.64717e-06
-6.72439e-06
-7.01116e-06
-7.54377e-06
-8.37203e-06
-9.55241e-06
-1.11249e-05
-1.30587e-05
-1.52381e-05
-1.73148e-05
-1.92431e-05
-2.0756e-05
-2.1894e-05
-2.26399e-05
-2.30758e-05
-2.3196e-05
-2.30493e-05
-2.26181e-05
-2.18578e-05
-2.06996e-05
-1.91486e-05
-1.718e-05
-1.50078e-05
-1.29107e-05
-1.11387e-05
-9.8e-06
-8.92526e-06
-8.49604e-06
-8.47443e-06
-8.73595e-06
-9.25702e-06
-7.35416e-06
-7.08649e-06
-6.95127e-06
-6.92633e-06
-7.06391e-06
-7.38144e-06
-7.90354e-06
-8.66202e-06
-9.68703e-06
-1.09952e-05
-1.25519e-05
-1.4283e-05
-1.59925e-05
-1.75959e-05
-1.88792e-05
-1.98621e-05
-2.05152e-05
-2.08919e-05
-2.10096e-05
-2.08881e-05
-2.05137e-05
-1.98594e-05
-1.88797e-05
-1.75898e-05
-1.59929e-05
-1.42784e-05
-1.26183e-05
-1.11788e-05
-1.00503e-05
-9.27023e-06
-8.84061e-06
-8.74375e-06
-8.89422e-06
-9.3128e-06
-7.40978e-06
-7.24034e-06
-7.1928e-06
-7.25775e-06
-7.47083e-06
-7.84695e-06
-8.40345e-06
-9.1582e-06
-1.01241e-05
-1.12987e-05
-1.26577e-05
-1.41425e-05
-1.56158e-05
-1.69948e-05
-1.81284e-05
-1.90097e-05
-1.96127e-05
-1.99647e-05
-2.00781e-05
-1.99634e-05
-1.96121e-05
-1.90103e-05
-1.81362e-05
-1.70105e-05
-1.56556e-05
-1.42121e-05
-1.27984e-05
-1.15551e-05
-1.05375e-05
-9.7842e-06
-9.30837e-06
-9.10657e-06
-9.129e-06
-9.39241e-06
-7.47507e-06
-7.40897e-06
-7.44544e-06
-7.5907e-06
-7.8795e-06
-8.33356e-06
-8.97445e-06
-9.82091e-06
-1.08818e-05
-1.21474e-05
-1.35722e-05
-1.50797e-05
-1.65685e-05
-1.79587e-05
-1.91292e-05
-2.00544e-05
-2.0704e-05
-2.10865e-05
-2.12072e-05
-2.10715e-05
-2.06754e-05
-2.00136e-05
-1.90823e-05
-1.7911e-05
-1.65398e-05
-1.50892e-05
-1.36661e-05
-1.236e-05
-1.12656e-05
-1.04245e-05
-9.84787e-06
-9.52431e-06
-9.40926e-06
-9.49511e-06
-5.70317e-06
-5.7069e-06
-5.71962e-06
-5.74484e-06
-5.78995e-06
-5.85964e-06
-5.95706e-06
-6.08092e-06
-6.23298e-06
-6.4114e-06
-6.6041e-06
-6.8052e-06
-6.99973e-06
-7.18012e-06
-7.33114e-06
-7.45238e-06
-7.54233e-06
-7.59834e-06
-7.61909e-06
-7.60478e-06
-7.55705e-06
-7.47907e-06
-7.37214e-06
-7.23735e-06
-7.08966e-06
-6.93595e-06
-6.7957e-06
-6.67123e-06
-6.57055e-06
-6.4962e-06
-6.44714e-06
-6.41808e-06
-6.39784e-06
-6.384e-06
-5.66042e-06
-5.63258e-06
-5.62054e-06
-5.61689e-06
-5.63386e-06
-5.675e-06
-5.74198e-06
-5.83429e-06
-5.94816e-06
-6.08008e-06
-6.21783e-06
-6.36141e-06
-6.49873e-06
-6.62791e-06
-6.7382e-06
-6.82891e-06
-6.89644e-06
-6.94052e-06
-6.9604e-06
-6.95624e-06
-6.92911e-06
-6.8796e-06
-6.81162e-06
-6.72617e-06
-6.63471e-06
-6.5399e-06
-6.45067e-06
-6.37039e-06
-6.3106e-06
-6.27417e-06
-6.2629e-06
-6.27302e-06
-6.29229e-06
-6.32108e-06
-5.65178e-06
-5.61481e-06
-5.58952e-06
-5.56317e-06
-5.5614e-06
-5.59043e-06
-5.65328e-06
-5.75108e-06
-5.87912e-06
-6.03751e-06
-6.20694e-06
-6.39165e-06
-6.55717e-06
-6.71084e-06
-6.8349e-06
-6.93505e-06
-7.00671e-06
-7.05245e-06
-7.07174e-06
-7.06471e-06
-7.03223e-06
-6.97198e-06
-6.88903e-06
-6.77797e-06
-6.65757e-06
-6.52066e-06
-6.40213e-06
-6.29912e-06
-6.23253e-06
-6.20231e-06
-6.21032e-06
-6.24845e-06
-6.28258e-06
-6.31986e-06
-5.67564e-06
-5.62256e-06
-5.57895e-06
-5.52997e-06
-5.51353e-06
-5.54e-06
-5.61568e-06
-5.74605e-06
-5.92729e-06
-6.16783e-06
-6.43348e-06
-6.73926e-06
-6.99737e-06
-7.23185e-06
-7.4091e-06
-7.5476e-06
-7.64119e-06
-7.69747e-06
-7.71614e-06
-7.69729e-06
-7.64155e-06
-7.5415e-06
-7.40401e-06
-7.2108e-06
-6.99721e-06
-6.73929e-06
-6.52822e-06
-6.34927e-06
-6.24025e-06
-6.1932e-06
-6.20798e-06
-6.26862e-06
-6.32138e-06
-6.37554e-06
-5.7468e-06
-5.67386e-06
-5.61464e-06
-5.55115e-06
-5.53209e-06
-5.57302e-06
-5.6854e-06
-5.88263e-06
-6.16388e-06
-6.55582e-06
-6.99887e-06
-7.5387e-06
-7.96719e-06
-8.34929e-06
-8.62302e-06
-8.83208e-06
-8.96686e-06
-9.04362e-06
-9.06193e-06
-9.02181e-06
-8.92397e-06
-8.75219e-06
-8.51707e-06
-8.17495e-06
-7.79086e-06
-7.29943e-06
-6.91605e-06
-6.59303e-06
-6.39628e-06
-6.29965e-06
-6.29898e-06
-6.36718e-06
-6.43351e-06
-6.50904e-06
-5.86836e-06
-5.7703e-06
-5.69819e-06
-5.62872e-06
-5.62001e-06
-5.69305e-06
-5.86529e-06
-6.16072e-06
-6.58352e-06
-7.19516e-06
-7.90478e-06
-8.84155e-06
-9.52443e-06
-1.01266e-05
-1.0539e-05
-1.0851e-05
-1.10461e-05
-1.11535e-05
-1.11718e-05
-1.11008e-05
-1.09423e-05
-1.06666e-05
-1.02918e-05
-9.72786e-06
-9.08918e-06
-8.20067e-06
-7.55796e-06
-7.02284e-06
-6.69771e-06
-6.52123e-06
-6.48408e-06
-6.54596e-06
-6.62124e-06
-6.72501e-06
-6.04e-06
-5.91038e-06
-5.82743e-06
-5.75937e-06
-5.77249e-06
-5.89198e-06
-6.14029e-06
-6.55234e-06
-7.13737e-06
-8.02918e-06
-9.08685e-06
-1.06841e-05
-1.16828e-05
-1.25503e-05
-1.31147e-05
-1.35423e-05
-1.38026e-05
-1.39447e-05
-1.39633e-05
-1.38582e-05
-1.36346e-05
-1.32427e-05
-1.27145e-05
-1.18826e-05
-1.09277e-05
-9.3765e-06
-8.39816e-06
-7.58991e-06
-7.11577e-06
-6.8415e-06
-6.75391e-06
-6.80018e-06
-6.88187e-06
-7.02346e-06
-6.25786e-06
-6.08828e-06
-5.99757e-06
-5.93929e-06
-5.98841e-06
-6.17169e-06
-6.51266e-06
-7.04596e-06
-7.78216e-06
-8.90041e-06
-1.03621e-05
-1.30843e-05
-1.43738e-05
-1.5536e-05
-1.62696e-05
-1.68388e-05
-1.7182e-05
-1.73686e-05
-1.7388e-05
-1.72396e-05
-1.69338e-05
-1.63998e-05
-1.57008e-05
-1.45696e-05
-1.33215e-05
-1.06359e-05
-9.27857e-06
-8.24647e-06
-7.63401e-06
-7.25747e-06
-7.10551e-06
-7.12523e-06
-7.20983e-06
-7.402e-06
-6.51169e-06
-6.29401e-06
-6.19538e-06
-6.15184e-06
-6.24551e-06
-6.49937e-06
-6.92828e-06
-7.54923e-06
-8.29e-06
-9.49137e-06
-1.11987e-05
-1.63859e-05
-1.74426e-05
-1.86758e-05
-1.94766e-05
-2.01113e-05
-2.04914e-05
-2.07029e-05
-2.07229e-05
-2.05507e-05
-2.02088e-05
-1.96087e-05
-1.88405e-05
-1.7629e-05
-1.66115e-05
-1.14397e-05
-9.91234e-06
-8.77447e-06
-8.16357e-06
-7.71503e-06
-7.5038e-06
-7.49583e-06
-7.58593e-06
-7.85106e-06
-6.78832e-06
-6.52022e-06
-6.4197e-06
-6.40806e-06
-6.57963e-06
-6.95592e-06
-7.5523e-06
-8.28864e-06
-9.11211e-06
-1.11979e-05
-7.76519e-06
-1.88799e-05
-1.98573e-05
-2.14908e-05
-2.2473e-05
-2.32972e-05
-2.37763e-05
-2.40348e-05
-2.40551e-05
-2.38365e-05
-2.33964e-05
-2.26077e-05
-2.16575e-05
-2.00399e-05
-1.91305e-05
-7.85266e-06
-1.15721e-05
-9.56101e-06
-8.9021e-06
-8.35733e-06
-8.01124e-06
-7.93051e-06
-8.00642e-06
-8.36373e-06
-7.08791e-06
-6.75171e-06
-6.64551e-06
-6.66572e-06
-6.91669e-06
-7.41624e-06
-8.15128e-06
-8.92246e-06
-9.2226e-06
-5.02318e-06
-2.71976e-05
-2.2952e-05
-2.36258e-05
-2.44577e-05
-2.51518e-05
-2.56089e-05
-2.5854e-05
-2.58737e-05
-2.56673e-05
-2.52476e-05
-2.45878e-05
-2.37846e-05
-2.31149e-05
-2.72405e-05
-5.7932e-06
-9.79798e-06
-9.56657e-06
-8.97418e-06
-8.51166e-06
-8.35728e-06
-8.42601e-06
-8.90022e-06
-7.39542e-06
-6.98431e-06
-6.88409e-06
-6.96533e-06
-7.36646e-06
-8.16101e-06
-9.4711e-06
-1.13631e-05
-1.43936e-05
-1.74234e-05
-2.4918e-05
-2.15361e-05
-2.3466e-05
-2.51963e-05
-2.65073e-05
-2.74048e-05
-2.79921e-05
-2.82872e-05
-2.83065e-05
-2.80499e-05
-2.75014e-05
-2.6643e-05
-2.53734e-05
-2.36917e-05
-2.18086e-05
-2.53315e-05
-1.77586e-05
-1.48056e-05
-1.1912e-05
-1.02375e-05
-9.24641e-06
-8.85861e-06
-8.85662e-06
-9.45206e-06
-7.68946e-06
-7.20433e-06
-7.09817e-06
-7.21331e-06
-7.70306e-06
-8.65182e-06
-1.01853e-05
-1.23084e-05
-1.52048e-05
-1.79175e-05
-2.23899e-05
-2.34071e-05
-2.46351e-05
-2.59073e-05
-2.70841e-05
-2.79675e-05
-2.85786e-05
-2.88882e-05
-2.89067e-05
-2.8634e-05
-2.80597e-05
-2.72111e-05
-2.60682e-05
-2.4821e-05
-2.36072e-05
-2.26734e-05
-1.82497e-05
-1.55865e-05
-1.28225e-05
-1.09345e-05
-9.75412e-06
-9.26766e-06
-9.25358e-06
-9.97683e-06
-7.9572e-06
-7.41208e-06
-7.30014e-06
-7.44492e-06
-8.01312e-06
-9.09937e-06
-1.08295e-05
-1.31978e-05
-1.62704e-05
-1.94105e-05
-2.28876e-05
-2.45541e-05
-2.58934e-05
-2.71265e-05
-2.83213e-05
-2.9209e-05
-2.98281e-05
-3.01377e-05
-3.01558e-05
-2.98821e-05
-2.92989e-05
-2.84447e-05
-2.72825e-05
-2.60718e-05
-2.4758e-05
-2.31311e-05
-1.96914e-05
-1.66121e-05
-1.36823e-05
-1.15697e-05
-1.0227e-05
-9.65556e-06
-9.62987e-06
-1.04541e-05
-8.18819e-06
-7.59359e-06
-7.46964e-06
-7.62387e-06
-8.22926e-06
-9.38104e-06
-1.11937e-05
-1.36565e-05
-1.67569e-05
-2.00072e-05
-2.32507e-05
-2.52448e-05
-2.67592e-05
-2.79912e-05
-2.91914e-05
-3.00699e-05
-3.0686e-05
-3.09912e-05
-3.10089e-05
-3.07389e-05
-3.01578e-05
-2.9311e-05
-2.81417e-05
-2.69282e-05
-2.54383e-05
-2.34702e-05
-2.0265e-05
-1.70815e-05
-1.41336e-05
-1.1946e-05
-1.0551e-05
-9.95889e-06
-9.94882e-06
-1.08559e-05
-8.37797e-06
-7.74608e-06
-7.61108e-06
-7.7683e-06
-8.39552e-06
-9.58812e-06
-1.14524e-05
-1.39777e-05
-1.71075e-05
-2.04223e-05
-2.36177e-05
-2.57974e-05
-2.74015e-05
-2.86672e-05
-2.98879e-05
-3.07634e-05
-3.13749e-05
-3.16748e-05
-3.16926e-05
-3.14279e-05
-3.08511e-05
-3.00069e-05
-2.88163e-05
-2.75667e-05
-2.59791e-05
-2.38256e-05
-2.06698e-05
-1.74252e-05
-1.44572e-05
-1.22242e-05
-1.08034e-05
-1.02065e-05
-1.02131e-05
-1.11784e-05
-8.5227e-06
-7.86428e-06
-7.71911e-06
-7.87373e-06
-8.50902e-06
-9.72005e-06
-1.16082e-05
-1.41653e-05
-1.73152e-05
-2.06806e-05
-2.38923e-05
-2.61783e-05
-2.78445e-05
-2.91351e-05
-3.03685e-05
-3.12424e-05
-3.18514e-05
-3.21484e-05
-3.21667e-05
-3.19058e-05
-3.13321e-05
-3.04897e-05
-2.92859e-05
-2.80097e-05
-2.63641e-05
-2.40968e-05
-2.09258e-05
-1.76342e-05
-1.46539e-05
-1.24026e-05
-1.09774e-05
-1.03881e-05
-1.04124e-05
-1.14181e-05
-8.6215e-06
-7.94735e-06
-7.79569e-06
-7.94792e-06
-8.58728e-06
-9.80922e-06
-1.17135e-05
-1.42944e-05
-1.74677e-05
-2.08746e-05
-2.41184e-05
-2.64606e-05
-2.81757e-05
-2.94894e-05
-3.07361e-05
-3.16145e-05
-3.22256e-05
-3.25232e-05
-3.25426e-05
-3.22832e-05
-3.17092e-05
-3.08635e-05
-2.96475e-05
-2.83501e-05
-2.66707e-05
-2.43298e-05
-2.11249e-05
-1.77931e-05
-1.47942e-05
-1.25277e-05
-1.10985e-05
-1.05142e-05
-1.05493e-05
-1.15782e-05
-8.67419e-06
-7.99454e-06
-7.8405e-06
-7.99181e-06
-8.63332e-06
-9.86141e-06
-1.17769e-05
-1.43758e-05
-1.7574e-05
-2.10143e-05
-2.42939e-05
-2.66714e-05
-2.8413e-05
-2.9745e-05
-3.10045e-05
-3.1893e-05
-3.25109e-05
-3.28128e-05
-3.28339e-05
-3.25737e-05
-3.1996e-05
-3.11428e-05
-2.99157e-05
-2.8601e-05
-2.68932e-05
-2.45172e-05
-2.12755e-05
-1.79099e-05
-1.48877e-05
-1.26062e-05
-1.11705e-05
-1.05858e-05
-1.06238e-05
-1.1661e-05
-8.68135e-06
-8.0064e-06
-7.85407e-06
-8.00588e-06
-8.64752e-06
-9.8769e-06
-1.17984e-05
-1.44083e-05
-1.76316e-05
-2.10984e-05
-2.44199e-05
-2.68167e-05
-2.85628e-05
-2.99071e-05
-3.11775e-05
-3.20803e-05
-3.2709e-05
-3.30187e-05
-3.30424e-05
-3.27794e-05
-3.21954e-05
-3.13318e-05
-3.00966e-05
-2.87716e-05
-2.70603e-05
-2.4662e-05
-2.13769e-05
-1.79826e-05
-1.49333e-05
-1.26382e-05
-1.11938e-05
-1.06038e-05
-1.06373e-05
-1.16683e-05
-8.64464e-06
-7.9851e-06
-7.8382e-06
-7.99067e-06
-8.62806e-06
-9.85003e-06
-1.17675e-05
-1.43778e-05
-1.76268e-05
-2.11124e-05
-2.44991e-05
-2.69012e-05
-2.86214e-05
-2.99725e-05
-3.12517e-05
-3.21736e-05
-3.28169e-05
-3.31378e-05
-3.31651e-05
-3.28982e-05
-3.23061e-05
-3.14297e-05
-3.01899e-05
-2.88607e-05
-2.71656e-05
-2.47686e-05
-2.14177e-05
-1.80014e-05
-1.49223e-05
-1.26195e-05
-1.11685e-05
-1.05714e-05
-1.05936e-05
-1.16016e-05
-8.56628e-06
-7.93264e-06
-7.79213e-06
-7.93972e-06
-8.55871e-06
-9.74922e-06
-1.1631e-05
-1.42044e-05
-1.74614e-05
-2.09544e-05
-2.44839e-05
-2.68607e-05
-2.85309e-05
-2.98737e-05
-3.11456e-05
-3.20834e-05
-3.27407e-05
-3.30745e-05
-3.31068e-05
-3.28369e-05
-3.224e-05
-3.13571e-05
-3.01317e-05
-2.88165e-05
-2.7154e-05
-2.47918e-05
-2.12994e-05
-1.78725e-05
-1.4781e-05
-1.2504e-05
-1.10714e-05
-1.04808e-05
-1.04934e-05
-1.14616e-05
-8.45169e-06
-7.85627e-06
-7.72417e-06
-7.86218e-06
-8.44975e-06
-9.58593e-06
-1.14006e-05
-1.38981e-05
-1.71519e-05
-2.05854e-05
-2.44493e-05
-2.67525e-05
-2.82919e-05
-2.96624e-05
-3.09434e-05
-3.1906e-05
-3.2578e-05
-3.29262e-05
-3.29656e-05
-3.26961e-05
-3.20984e-05
-3.12061e-05
-2.99833e-05
-2.86548e-05
-2.7137e-05
-2.48154e-05
-2.09941e-05
-1.76239e-05
-1.45305e-05
-1.23134e-05
-1.09229e-05
-1.03511e-05
-1.03529e-05
-1.12576e-05
-8.30575e-06
-7.75997e-06
-7.63074e-06
-7.74044e-06
-8.25719e-06
-9.26728e-06
-1.0895e-05
-1.31439e-05
-1.61668e-05
-1.91022e-05
-2.41801e-05
-2.66936e-05
-2.78655e-05
-2.92225e-05
-3.04675e-05
-3.14282e-05
-3.21006e-05
-3.24592e-05
-3.25079e-05
-3.22473e-05
-3.16669e-05
-3.07979e-05
-2.96282e-05
-2.83405e-05
-2.72107e-05
-2.45933e-05
-1.95782e-05
-1.67231e-05
-1.38677e-05
-1.1881e-05
-1.06446e-05
-1.01533e-05
-1.017e-05
-1.09972e-05
-8.13888e-06
-7.66234e-06
-7.53815e-06
-7.62261e-06
-8.07226e-06
-8.96227e-06
-1.0417e-05
-1.24853e-05
-1.57433e-05
-1.93498e-05
-2.56425e-05
-2.48049e-05
-2.72632e-05
-2.93512e-05
-3.08166e-05
-3.18497e-05
-3.25424e-05
-3.29142e-05
-3.29778e-05
-3.27358e-05
-3.21649e-05
-3.12564e-05
-2.98851e-05
-2.79002e-05
-2.54738e-05
-2.60158e-05
-2.00493e-05
-1.64772e-05
-1.33588e-05
-1.15133e-05
-1.04015e-05
-9.97371e-06
-9.99133e-06
-1.07193e-05
-7.97221e-06
-7.55517e-06
-7.42784e-06
-7.46348e-06
-7.78634e-06
-8.40961e-06
-9.29619e-06
-1.01318e-05
-1.01728e-05
-4.05463e-06
-3.45181e-05
-2.83544e-05
-2.89181e-05
-2.9798e-05
-3.05967e-05
-3.11667e-05
-3.15056e-05
-3.15838e-05
-3.14066e-05
-3.0987e-05
-3.03527e-05
-2.9581e-05
-2.91605e-05
-3.52751e-05
-4.76686e-06
-1.10911e-05
-1.11877e-05
-1.05434e-05
-9.94145e-06
-9.71516e-06
-9.79175e-06
-1.04292e-05
-7.82153e-06
-7.46014e-06
-7.34811e-06
-7.38022e-06
-7.68353e-06
-8.30317e-06
-9.30435e-06
-1.06692e-05
-1.26745e-05
-1.58934e-05
-1.55379e-05
-2.40066e-05
-2.58787e-05
-2.77563e-05
-2.90197e-05
-3.01312e-05
-3.08521e-05
-3.12799e-05
-3.13816e-05
-3.11662e-05
-3.06376e-05
-2.9733e-05
-2.85469e-05
-2.67785e-05
-2.51385e-05
-1.75533e-05
-1.74831e-05
-1.4153e-05
-1.20167e-05
-1.06998e-05
-9.89358e-06
-9.59814e-06
-9.62603e-06
-1.01623e-05
-7.70445e-06
-7.37908e-06
-7.27801e-06
-7.3015e-06
-7.56617e-06
-8.11983e-06
-9.0194e-06
-1.02908e-05
-1.19304e-05
-1.38892e-05
-1.77126e-05
-2.28479e-05
-2.42765e-05
-2.57409e-05
-2.68447e-05
-2.78822e-05
-2.85789e-05
-2.90116e-05
-2.91282e-05
-2.89414e-05
-2.84571e-05
-2.76459e-05
-2.65644e-05
-2.51999e-05
-2.39258e-05
-1.93278e-05
-1.53381e-05
-1.34079e-05
-1.1724e-05
-1.04898e-05
-9.73774e-06
-9.45101e-06
-9.46344e-06
-9.93238e-06
-7.60669e-06
-7.32774e-06
-7.2501e-06
-7.28707e-06
-7.54785e-06
-8.08589e-06
-8.96728e-06
-1.02419e-05
-1.19792e-05
-1.41854e-05
-1.7003e-05
-2.02367e-05
-2.19619e-05
-2.34047e-05
-2.45248e-05
-2.55937e-05
-2.63092e-05
-2.67488e-05
-2.68705e-05
-2.66896e-05
-2.61983e-05
-2.53849e-05
-2.42737e-05
-2.29e-05
-2.13691e-05
-1.85709e-05
-1.57957e-05
-1.35649e-05
-1.17578e-05
-1.04831e-05
-9.70539e-06
-9.3849e-06
-9.35895e-06
-9.76588e-06
-7.54627e-06
-7.31092e-06
-7.26107e-06
-7.3171e-06
-7.57382e-06
-8.07993e-06
-8.8937e-06
-1.0064e-05
-1.16293e-05
-1.36115e-05
-1.58747e-05
-1.82935e-05
-1.99213e-05
-2.13132e-05
-2.24455e-05
-2.34795e-05
-2.41727e-05
-2.45967e-05
-2.47206e-05
-2.45579e-05
-2.40985e-05
-2.33415e-05
-2.22683e-05
-2.09697e-05
-1.94862e-05
-1.74079e-05
-1.52174e-05
-1.3226e-05
-1.15996e-05
-1.04178e-05
-9.6816e-06
-9.35639e-06
-9.30404e-06
-9.65554e-06
-7.52433e-06
-7.33348e-06
-7.32061e-06
-7.40931e-06
-7.67667e-06
-8.16287e-06
-8.91376e-06
-9.96531e-06
-1.13344e-05
-1.30077e-05
-1.48562e-05
-1.67793e-05
-1.82957e-05
-1.96631e-05
-2.07888e-05
-2.17822e-05
-2.24567e-05
-2.28587e-05
-2.29951e-05
-2.28444e-05
-2.24128e-05
-2.16984e-05
-2.06848e-05
-1.94648e-05
-1.80583e-05
-1.63827e-05
-1.45907e-05
-1.29088e-05
-1.14883e-05
-1.0425e-05
-9.73667e-06
-9.40261e-06
-9.31579e-06
-9.60265e-06
-7.53345e-06
-7.39009e-06
-7.42069e-06
-7.55154e-06
-7.84066e-06
-8.31916e-06
-9.02065e-06
-9.96885e-06
-1.11672e-05
-1.25946e-05
-1.41484e-05
-1.57527e-05
-1.71604e-05
-1.8451e-05
-1.95274e-05
-2.04459e-05
-2.10862e-05
-2.14763e-05
-2.16002e-05
-2.14658e-05
-2.10658e-05
-2.04077e-05
-1.94827e-05
-1.83728e-05
-1.7087e-05
-1.56491e-05
-1.41357e-05
-1.27005e-05
-1.14656e-05
-1.05132e-05
-9.86648e-06
-9.51565e-06
-9.38601e-06
-9.59981e-06
-7.55229e-06
-7.45453e-06
-7.50965e-06
-7.67179e-06
-7.98114e-06
-8.46169e-06
-9.13748e-06
-1.00237e-05
-1.11185e-05
-1.23981e-05
-1.37917e-05
-1.52321e-05
-1.65813e-05
-1.78259e-05
-1.88744e-05
-1.97412e-05
-2.0356e-05
-2.07293e-05
-2.08493e-05
-2.07225e-05
-2.03437e-05
-1.97215e-05