/*--------------------------------*- C++ -*----------------------------------*\
| =========                 |                                                 |
| \\      /  F ield         | OpenFOAM: The Open Source CFD Toolbox           |
|  \\    /   O peration     | Version:  2112                                  |
|   \\  /    A nd           | Website:  www.openfoam.com                      |
|    \\/     M anipulation  |                                                 |
\*---------------------------------------------------------------------------*/
FoamFile
{
    version     2.0;
    format      ascii;
    arch        "LSB;label=32;scalar=64";
    class       surfaceScalarField;
    location    "3.3";
    object      phi;
}
// * * * * * * * * * * * * * * * * * * * * * * * * * * * * * * * * * * * * * //

dimensions      [0 3 -1 0 0 0 0];

oriented        oriented;

internalField   nonuniform List<scalar> 
188215
(
7.03917e-10
1.54048e-09
-2.2444e-09
2.78118e-09
5.93217e-10
-2.67048e-09
5.5233e-09
-5.87764e-10
-2.15435e-09
8.58697e-09
-1.72022e-09
-1.34345e-09
1.17221e-08
-2.42282e-09
-7.1228e-10
1.48392e-08
-2.78787e-09
-3.29276e-10
1.78819e-08
-2.89986e-09
-1.42808e-10
2.07234e-08
-2.77195e-09
-6.95337e-11
2.31866e-08
-2.3788e-09
-8.43779e-11
2.48989e-08
-1.53802e-09
-1.74367e-10
2.54204e-08
-2.13141e-10
-3.08309e-10
2.46862e-08
1.09828e-09
-3.64042e-10
2.28141e-08
2.21984e-09
-3.47763e-10
1.9883e-08
3.20876e-09
-2.77637e-10
1.61768e-08
3.87489e-09
-1.68701e-10
1.18858e-08
4.34524e-09
-5.42808e-11
7.23616e-09
4.61801e-09
3.16507e-11
2.41649e-09
4.74349e-09
7.61756e-11
-2.38421e-09
4.72622e-09
7.44792e-11
-6.97774e-09
4.56623e-09
2.731e-11
-1.11764e-08
4.25907e-09
-6.03694e-11
-1.47564e-08
3.75496e-09
-1.74975e-10
-1.75327e-08
3.05879e-09
-2.82501e-10
-1.9228e-08
2.0478e-09
-3.52527e-10
-1.97869e-08
9.28892e-10
-3.6994e-10
-1.90333e-08
-4.43167e-10
-3.10503e-10
-1.71052e-08
-1.70569e-09
-2.22353e-10
-1.44308e-08
-2.43578e-09
-2.3867e-10
-1.14066e-08
-2.60017e-09
-4.23997e-10
-8.24609e-09
-2.28215e-09
-8.78355e-10
-5.17436e-09
-1.38158e-09
-1.69014e-09
-2.52427e-09
1.50619e-10
-2.80071e-09
-5.16046e-10
1.54428e-09
-3.5525e-09
2.63707e-09
-3.15311e-09
-1.37664e-09
6.45918e-09
-3.54205e-09
9.88414e-10
6.41325e-09
-8.18508e-09
4.54942e-09
5.58065e-09
-9.72941e-09
8.15557e-09
4.85688e-09
-1.01833e-08
1.16054e-08
4.70217e-09
-1.05748e-08
1.48982e-08
5.17304e-09
-1.12538e-08
1.80496e-08
6.28605e-09
-1.23373e-08
2.09929e-08
8.14988e-09
-1.38652e-08
2.35587e-08
1.09037e-08
-1.58482e-08
2.53986e-08
1.49011e-08
-1.82791e-08
2.63224e-08
1.99169e-08
-2.10538e-08
2.55904e-08
2.59744e-08
-2.41441e-08
2.35906e-08
3.12938e-08
-2.70742e-08
2.0488e-08
3.59454e-08
-2.96342e-08
1.6626e-08
3.94494e-08
-3.17125e-08
1.21988e-08
4.20682e-08
-3.32958e-08
7.42516e-09
4.37566e-08
-3.43649e-08
2.48845e-09
4.46048e-08
-3.49246e-08
-2.42782e-09
4.46134e-08
-3.49709e-08
-7.14041e-09
4.37823e-08
-3.45035e-08
-1.14677e-08
4.21129e-08
-3.35266e-08
-1.5193e-08
3.95165e-08
-3.20362e-08
-1.8127e-08
3.60464e-08
-3.00536e-08
-1.99279e-08
3.14459e-08
-2.75972e-08
-2.04268e-08
2.62182e-08
-2.47904e-08
-1.92804e-08
2.02841e-08
-2.18737e-08
-1.71916e-08
1.55087e-08
-1.93032e-08
-1.43286e-08
1.18576e-08
-1.71563e-08
-1.1013e-08
9.64287e-09
-1.55586e-08
-7.37876e-09
8.59049e-09
-1.45069e-08
-3.51716e-09
8.62124e-09
-1.38644e-08
2.80409e-10
9.5256e-09
-1.31725e-08
2.53804e-09
1.04856e-08
-1.11989e-08
1.02932e-08
-5.11809e-09
-2.93206e-09
1.30045e-08
-3.61322e-09
-4.96894e-10
1.40673e-08
-1.00892e-08
3.55393e-09
1.40002e-08
-1.24703e-08
7.74092e-09
1.4131e-08
-1.34611e-08
1.17282e-08
1.50332e-08
-1.43183e-08
1.55379e-08
1.68665e-08
-1.55031e-08
1.92634e-08
1.97764e-08
-1.7216e-08
2.29083e-08
2.40617e-08
-1.95567e-08
2.63124e-08
3.0074e-08
-2.25744e-08
2.89467e-08
3.8558e-08
-2.62912e-08
3.02792e-08
4.91636e-08
-3.05793e-08
2.92972e-08
6.21948e-08
-3.52384e-08
2.67399e-08
7.35075e-08
-3.96563e-08
2.29261e-08
8.32992e-08
-4.35399e-08
1.83973e-08
9.06886e-08
-4.67104e-08
1.33449e-08
9.62469e-08
-4.91263e-08
7.98573e-09
9.98701e-08
-5.07544e-08
2.48125e-09
1.01714e-07
-5.16044e-08
-3.00179e-09
1.01767e-07
-5.16702e-08
-8.29659e-09
1.00029e-07
-5.09516e-08
-1.32427e-08
9.65137e-08
-4.94547e-08
-1.76226e-08
9.10675e-08
-4.71711e-08
-2.1248e-08
8.38087e-08
-4.41368e-08
-2.35751e-08
7.41734e-08
-4.04005e-08
-2.42902e-08
6.30871e-08
-3.61538e-08
-2.26488e-08
5.03517e-08
-3.17091e-08
-1.96598e-08
4.02158e-08
-2.76961e-08
-1.5789e-08
3.2321e-08
-2.43342e-08
-1.15067e-08
2.71208e-08
-2.17602e-08
-6.9271e-09
2.39218e-08
-1.99109e-08
-2.14742e-09
2.23923e-08
-1.85507e-08
2.37622e-09
2.20858e-08
-1.70839e-08
4.70063e-09
2.20651e-08
-1.39039e-08
2.03836e-08
-5.38981e-09
-3.95648e-09
2.00316e-08
-3.07069e-09
-1.34151e-09
2.19312e-08
-1.04789e-08
3.3427e-09
2.25586e-08
-1.32427e-08
8.30771e-09
2.36093e-08
-1.44433e-08
1.31415e-08
2.57012e-08
-1.55018e-08
1.79049e-08
2.90502e-08
-1.6947e-08
2.28016e-08
3.39083e-08
-1.90285e-08
2.79484e-08
4.08026e-08
-2.18878e-08
3.31786e-08
5.04331e-08
-2.55894e-08
3.76033e-08
6.43172e-08
-3.01839e-08
4.00658e-08
8.21954e-08
-3.54943e-08
3.84399e-08
1.05173e-07
-4.13519e-08
3.44943e-08
1.24319e-07
-4.68664e-08
2.89887e-08
1.40515e-07
-5.17096e-08
2.28686e-08
1.52463e-07
-5.56544e-08
1.62906e-08
1.61462e-07
-5.86371e-08
9.46118e-09
1.67327e-07
-6.0627e-08
2.5075e-09
1.70328e-07
-6.16603e-08
-4.42407e-09
1.70432e-07
-6.17336e-08
-1.11864e-08
1.67637e-07
-6.08462e-08
-1.76514e-08
1.61979e-07
-5.90008e-08
-2.36071e-08
1.53186e-07
-5.61624e-08
-2.88953e-08
1.41461e-07
-5.23642e-08
-3.25596e-08
1.25516e-07
-4.76782e-08
-3.38447e-08
1.06719e-07
-4.23465e-08
-3.09559e-08
8.41803e-08
-3.67174e-08
-2.60439e-08
6.70121e-08
-3.17084e-08
-2.01537e-08
5.39299e-08
-2.74991e-08
-1.41003e-08
4.53369e-08
-2.42695e-08
-8.01888e-09
3.97579e-08
-2.19175e-08
-1.98435e-09
3.65256e-08
-2.01679e-08
3.47837e-09
3.49731e-08
-1.835e-08
6.08808e-09
3.40792e-08
-1.46238e-08
3.13025e-08
-4.83079e-09
-4.46099e-09
2.69154e-08
-2.42275e-09
-1.36357e-09
2.9455e-08
-1.06212e-08
4.21117e-09
3.06807e-08
-1.36968e-08
1.02392e-08
3.26266e-08
-1.50453e-08
1.62713e-08
3.59461e-08
-1.6277e-08
2.24636e-08
4.0856e-08
-1.79981e-08
2.92162e-08
4.76583e-08
-2.05026e-08
3.68942e-08
5.7095e-08
-2.39705e-08
4.53991e-08
7.038e-08
-2.84517e-08
5.33114e-08
9.04366e-08
-3.40318e-08
5.8158e-08
1.17779e-07
-4.04304e-08
5.50634e-08
1.56057e-07
-4.77902e-08
4.83099e-08
1.85697e-07
-5.46238e-08
3.96763e-08
2.09837e-07
-6.06885e-08
3.07605e-08
2.27019e-07
-6.56405e-08
2.15216e-08
2.40014e-07
-6.93128e-08
1.2108e-08
2.48461e-07
-7.17213e-08
2.59005e-09
2.52807e-07
-7.29618e-08
-6.9062e-09
2.52969e-07
-7.30408e-08
-1.62529e-08
2.48941e-07
-7.1957e-08
-2.5376e-08
2.40805e-07
-6.97021e-08
-3.41141e-08
2.28105e-07
-6.61809e-08
-4.2498e-08
2.11224e-07
-6.13787e-08
-4.89034e-08
1.87394e-07
-5.54729e-08
-5.15539e-08
1.58196e-07
-4.88263e-08
-4.61223e-08
1.20452e-07
-4.1703e-08
-3.75904e-08
9.41113e-08
-3.56311e-08
-2.82359e-08
7.50429e-08
-3.04674e-08
-1.93877e-08
6.29872e-08
-2.64986e-08
-1.11214e-08
5.50761e-08
-2.35845e-08
-3.34083e-09
5.01909e-08
-2.14459e-08
3.47194e-09
4.74831e-08
-1.93228e-08
6.79155e-09
4.58692e-08
-1.51096e-08
4.22406e-08
-4.14655e-09
-4.6171e-09
3.33419e-08
-1.80943e-09
-6.57764e-10
3.63869e-08
-1.08912e-08
6.1557e-09
3.8198e-08
-1.43307e-08
1.36013e-08
4.10361e-08
-1.5855e-08
2.12019e-08
4.5652e-08
-1.73066e-08
2.92678e-08
5.21802e-08
-1.939e-08
3.85148e-08
6.08506e-08
-2.24392e-08
4.98375e-08
7.24328e-08
-2.66606e-08
6.35146e-08
8.87095e-08
-3.20066e-08
7.77784e-08
1.1474e-07
-3.85669e-08
8.76278e-08
1.53561e-07
-4.56312e-08
8.14017e-08
2.16929e-07
-5.46459e-08
6.95316e-08
2.60539e-07
-6.29725e-08
5.5834e-08
2.94259e-07
-7.0725e-08
4.27134e-08
3.17294e-07
-7.71537e-08
2.9494e-08
3.34939e-07
-8.17061e-08
1.61678e-08
3.46401e-07
-8.46133e-08
2.73496e-09
3.52336e-07
-8.60957e-08
-1.06792e-08
3.52565e-07
-8.6182e-08
-2.39471e-08
3.47079e-07
-8.48702e-08
-3.70614e-08
3.36047e-07
-8.21282e-08
-5.00074e-08
3.18787e-07
-7.77361e-08
-6.34362e-08
2.96114e-07
-7.14613e-08
-7.48868e-08
2.62715e-07
-6.38706e-08
-8.05357e-08
2.19583e-07
-5.5739e-08
-6.98664e-08
1.56747e-07
-4.69641e-08
-5.48821e-08
1.19387e-07
-4.02599e-08
-4.01775e-08
9.44941e-08
-3.41558e-08
-2.73984e-08
7.95914e-08
-2.93833e-08
-1.62483e-08
6.97182e-08
-2.57921e-08
-6.16445e-09
6.32858e-08
-2.31787e-08
2.52492e-09
5.94691e-08
-2.06753e-08
7.07169e-09
5.71852e-08
-1.58627e-08
5.28391e-08
-3.52679e-09
-4.54562e-09
3.91002e-08
-1.2127e-09
6.20363e-10
4.25944e-08
-1.13735e-08
9.16023e-09
4.49722e-08
-1.53141e-08
1.84455e-08
4.88175e-08
-1.70666e-08
2.79814e-08
5.49196e-08
-1.88036e-08
3.82502e-08
6.32512e-08
-2.13398e-08
5.03829e-08
7.37516e-08
-2.50337e-08
6.62531e-08
8.66554e-08
-3.00928e-08
8.72907e-08
1.03918e-07
-3.62458e-08
1.12247e-07
1.33178e-07
-4.33951e-08
1.3313e-07
1.82456e-07
-4.9778e-08
1.19964e-07
2.90198e-07
-6.01027e-08
9.90775e-08
3.50986e-07
-6.95603e-08
7.78733e-08
3.95076e-07
-7.9613e-08
5.90992e-08
4.24321e-07
-8.82533e-08
4.05144e-08
4.47251e-07
-9.3727e-08
2.1816e-08
4.62235e-07
-9.7136e-08
2.9538e-09
4.70055e-07
-9.88566e-08
-1.58975e-08
4.70368e-07
-9.8952e-08
-3.45606e-08
4.63161e-07
-9.74191e-08
-5.30779e-08
4.48754e-07
-9.41898e-08
-7.17182e-08
4.26317e-07
-8.88896e-08
-9.26759e-08
3.97481e-07
-8.04094e-08
-1.13084e-07
3.53652e-07
-7.05276e-08
-1.25509e-07
2.93295e-07
-6.12876e-08
-1.03411e-07
1.85851e-07
-5.12022e-08
-7.77335e-08
1.38936e-07
-4.5227e-08
-5.55261e-08
1.10861e-07
-3.8574e-08
-3.78644e-08
9.50066e-08
-3.30768e-08
-2.33163e-08
8.39202e-08
-2.87502e-08
-1.04113e-08
7.59666e-08
-2.55858e-08
7.10408e-10
7.09447e-08
-2.25974e-08
7.09043e-09
6.78074e-08
-1.70023e-08
6.28583e-08
-2.9288e-09
-4.25812e-09
4.39581e-08
-5.99765e-10
2.59482e-09
4.7831e-08
-1.20895e-08
1.34176e-08
5.08293e-08
-1.66799e-08
2.50957e-08
5.58723e-08
-1.8733e-08
3.70119e-08
6.38337e-08
-2.08303e-08
4.96601e-08
7.45171e-08
-2.39141e-08
6.43828e-08
8.73843e-08
-2.83555e-08
8.42446e-08
1.01163e-07
-3.4369e-08
1.1301e-07
1.16353e-07
-4.12013e-08
1.55368e-07
1.39702e-07
-4.8881e-08
2.01073e-07
1.86201e-07
-4.94499e-08
1.73361e-07
3.76346e-07
-5.84357e-08
1.38658e-07
4.54479e-07
-6.87899e-08
1.07691e-07
5.0885e-07
-8.28071e-08
8.19005e-08
5.45116e-07
-9.50041e-08
5.6133e-08
5.7435e-07
-1.01331e-07
2.98771e-08
5.93673e-07
-1.05182e-07
3.27167e-09
6.03771e-07
-1.07111e-07
-2.33361e-08
6.04192e-07
-1.07216e-07
-4.95996e-08
5.94917e-07
-1.05492e-07
-7.53793e-08
5.76371e-07
-1.01837e-07
-1.0115e-07
5.47788e-07
-9.57011e-08
-1.32005e-07
5.12011e-07
-8.3675e-08
-1.6628e-07
4.57776e-07
-6.98498e-08
-1.93027e-07
3.79831e-07
-5.97886e-08
-1.45382e-07
1.89192e-07
-5.09869e-08
-1.02576e-07
1.46963e-07
-5.08321e-08
-7.25118e-08
1.24506e-07
-4.37095e-08
-5.04233e-08
1.10577e-07
-3.76587e-08
-3.25879e-08
9.86067e-08
-3.25219e-08
-1.64006e-08
8.85201e-08
-2.87408e-08
-1.96479e-09
8.16944e-08
-2.51855e-08
6.83017e-09
7.75089e-08
-1.84965e-08
7.19306e-08
-2.24216e-09
-3.76687e-09
4.77273e-08
-2.2799e-12
5.30404e-09
5.18118e-08
-1.30517e-08
1.90616e-08
5.55102e-08
-1.84385e-08
3.38201e-08
6.19828e-08
-2.08689e-08
4.87007e-08
7.23435e-08
-2.33903e-08
6.38668e-08
8.64256e-08
-2.70746e-08
8.02233e-08
1.03345e-07
-3.23173e-08
1.01348e-07
1.19361e-07
-3.93235e-08
1.34051e-07
1.31109e-07
-4.74582e-08
2.01733e-07
1.26391e-07
-5.43706e-08
2.98314e-07
1.44986e-07
-5.5367e-08
2.40199e-07
4.84074e-07
-4.96132e-08
1.85331e-07
5.66408e-07
-5.70604e-08
1.43985e-07
6.26752e-07
-7.65558e-08
1.10469e-07
6.71959e-07
-9.33271e-08
7.60329e-08
7.08591e-07
-9.9805e-08
4.02456e-08
7.33743e-07
-1.04282e-07
3.72216e-09
7.46777e-07
-1.06483e-07
-3.28218e-08
7.47326e-07
-1.0659e-07
-6.86783e-08
7.35373e-07
-1.04599e-07
-1.03251e-07
7.11261e-07
-1.00317e-07
-1.36965e-07
6.75538e-07
-9.40359e-08
-1.78526e-07
6.30999e-07
-7.74276e-08
-2.33269e-07
5.7067e-07
-5.81506e-08
-2.9001e-07
4.87656e-07
-5.10841e-08
-1.90267e-07
1.46826e-07
-5.73765e-08
-1.23333e-07
1.36604e-07
-5.65746e-08
-8.90084e-08
1.40359e-07
-5.01778e-08
-6.50515e-08
1.2962e-07
-4.30003e-08
-4.46356e-08
1.15253e-07
-3.70618e-08
-2.46923e-08
1.01238e-07
-3.26615e-08
-6.01534e-09
9.14976e-08
-2.84801e-08
6.20495e-09
8.57134e-08
-2.04248e-08
7.95659e-08
-1.43031e-09
-2.95908e-09
4.98279e-08
8.58445e-10
9.08097e-09
5.40551e-08
-1.42834e-08
2.68215e-08
5.8385e-08
-2.06153e-08
4.60778e-08
6.62462e-08
-2.35198e-08
6.57557e-08
7.9243e-08
-2.65774e-08
8.52554e-08
9.79188e-08
-3.0993e-08
1.03771e-07
1.21995e-07
-3.71654e-08
1.21176e-07
1.48094e-07
-4.61388e-08
1.36179e-07
1.71771e-07
-5.56658e-08
1.88938e-07
1.45544e-07
-7.19119e-08
4.18024e-07
-8.41001e-08
3.27642e-07
5.94018e-07
-1.95617e-08
2.51346e-07
6.58794e-07
-1.60897e-08
2.00128e-07
7.12945e-07
-3.49757e-08
1.56694e-07
7.68963e-07
-5.357e-08
1.08189e-07
8.12935e-07
-5.58395e-08
5.6719e-08
8.43889e-07
-5.86769e-08
4.36345e-09
8.59445e-07
-6.03122e-08
-4.80233e-08
8.60102e-07
-6.03898e-08
-9.96073e-08
8.45866e-07
-5.89093e-08
-1.48379e-07
8.16231e-07
-5.6198e-08
-1.92286e-07
7.73552e-07
-5.41068e-08
-2.44319e-07
7.18671e-07
-3.56379e-08
-3.21929e-07
6.65215e-07
-1.69354e-08
-4.11954e-07
5.98721e-07
-2.10392e-08
-1.78021e-07
-8.7107e-08
-1.24041e-07
1.56118e-07
-7.34947e-08
-1.08441e-07
1.82913e-07
-5.81542e-08
-8.7677e-08
1.59012e-07
-5.01563e-08
-6.39554e-08
1.34166e-07
-4.26352e-08
-3.81138e-08
1.12995e-07
-3.75987e-08
-1.29296e-08
9.90103e-08
-3.26968e-08
4.49081e-09
9.12348e-08
-2.29418e-08
8.45808e-08
-5.24091e-10
-1.91557e-09
5.0062e-08
1.68142e-09
1.35861e-08
5.42855e-08
-1.5732e-08
3.61043e-08
5.90382e-08
-2.31714e-08
6.1127e-08
6.78836e-08
-2.666e-08
8.76621e-08
8.30694e-08
-3.03616e-08
1.1434e-07
1.06603e-07
-3.53623e-08
1.36151e-07
1.4193e-07
-4.17457e-08
1.39016e-07
1.93484e-07
-4.82543e-08
1.08204e-07
2.68085e-07
-6.5501e-08
3.63273e-07
-1.09525e-07
1.90298e-07
3.23968e-07
7.9752e-08
2.56206e-07
5.49207e-07
4.36794e-08
2.52844e-07
6.80246e-07
3.60614e-08
2.07089e-07
7.7712e-07
3.75981e-08
1.43876e-07
8.42008e-07
3.41408e-08
7.53845e-08
8.82826e-07
2.95546e-08
5.19607e-09
9.02353e-07
2.72804e-08
-6.50298e-08
9.03043e-07
2.72847e-08
-1.33656e-07
8.8493e-07
2.95618e-08
-1.97203e-07
8.45618e-07
3.41598e-08
-2.43744e-07
7.82444e-07
3.76496e-08
-2.48935e-07
6.87641e-07
3.62197e-08
-1.86169e-07
5.58897e-07
4.35515e-08
3.3418e-07
7.83721e-08
-1.04799e-07
3.67588e-07
-1.06671e-07
-1.30199e-07
2.75858e-07
-6.75448e-08
-1.21039e-07
2.02719e-07
-5.28666e-08
-9.18008e-08
1.53208e-07
-4.82805e-08
-5.66133e-08
1.21199e-07
-4.33913e-08
-2.23797e-08
1.02718e-07
-3.79415e-08
1.82097e-09
9.32241e-08
-2.619e-08
8.60595e-08
3.42257e-10
-2.40507e-10
4.78657e-08
2.43685e-09
1.92131e-08
5.21309e-08
-1.72991e-08
4.78532e-08
5.63994e-08
-2.60013e-08
8.15803e-08
6.44133e-08
-3.02567e-08
1.2171e-07
7.79496e-08
-3.501e-08
1.71669e-07
9.81822e-08
-4.1538e-08
2.37058e-07
1.26324e-07
-4.97833e-08
3.24855e-07
1.62369e-07
-5.66819e-08
4.48331e-07
2.04157e-07
-5.95483e-08
6.04149e-07
2.50098e-07
-4.26437e-08
4.72183e-07
8.50023e-08
4.69646e-08
4.82214e-07
2.32054e-07
8.18826e-08
4.62832e-07
4.14622e-07
1.53966e-07
3.94976e-07
5.33694e-07
2.14407e-07
3.01039e-07
6.22851e-07
2.48206e-07
2.00497e-07
6.82089e-07
2.6046e-07
1.02192e-07
7.19067e-07
2.62065e-07
6.04454e-09
7.36823e-07
2.61677e-07
-9.00805e-08
7.37429e-07
2.6174e-07
-1.88314e-07
7.20906e-07
2.62258e-07
-2.88741e-07
6.85221e-07
2.60824e-07
-3.82553e-07
6.27366e-07
2.4889e-07
-4.5033e-07
5.39666e-07
2.15753e-07
-4.69289e-07
4.21705e-07
1.56151e-07
-4.61094e-07
2.40341e-07
8.56452e-08
-5.9866e-07
8.6943e-08
5.0623e-08
-4.42726e-07
2.53599e-07
-4.19456e-08
-3.15355e-07
2.10544e-07
-6.20574e-08
-2.21435e-07
1.70676e-07
-6.18765e-08
-1.47605e-07
1.36934e-07
-5.75558e-08
-8.73048e-08
1.1219e-07
-5.12909e-08
-3.70304e-08
9.69289e-08
-4.44851e-08
-2.44837e-09
8.89418e-08
-3.02996e-08
8.21307e-08
1.48045e-09
6.53396e-10
4.3921e-08
3.29126e-09
2.38127e-08
4.78217e-08
-1.88501e-08
5.75429e-08
5.13643e-08
-2.86951e-08
9.775e-08
5.78766e-08
-3.36704e-08
1.46504e-07
6.85714e-08
-3.93755e-08
2.08167e-07
8.3786e-08
-4.72673e-08
2.88387e-07
1.03168e-07
-5.70639e-08
3.91165e-07
1.2519e-07
-6.55986e-08
5.18614e-07
1.44928e-07
-6.82201e-08
6.62801e-07
1.59858e-07
-5.39465e-08
6.62584e-07
1.05555e-07
-2.0336e-08
6.54844e-07
1.92784e-07
4.70109e-08
5.97123e-07
3.03781e-07
1.68562e-07
4.9263e-07
3.87681e-07
2.50506e-07
3.69214e-07
4.52339e-07
2.93928e-07
2.43593e-07
4.94997e-07
3.12713e-07
1.23127e-07
5.21863e-07
3.17669e-07
6.70925e-09
5.34777e-07
3.18464e-07
-1.09667e-07
5.35273e-07
3.18532e-07
-2.30001e-07
5.23359e-07
3.1788e-07
-3.55413e-07
4.97506e-07
3.13127e-07
-4.78628e-07
4.5586e-07
2.94722e-07
-5.8323e-07
3.92171e-07
2.52096e-07
-6.41707e-07
3.08958e-07
1.71225e-07
-6.51107e-07
1.98265e-07
5.14751e-08
-6.55321e-07
1.08562e-07
-1.74048e-08
-5.12225e-07
1.64207e-07
-5.37045e-08
-3.81439e-07
1.50849e-07
-7.10915e-08
-2.72125e-07
1.32839e-07
-7.14772e-08
-1.82299e-07
1.1306e-07
-6.59519e-08
-1.08495e-07
9.6919e-08
-5.85332e-08
-4.73706e-08
8.62646e-08
-5.04605e-08
-4.8561e-09
8.04586e-08
-3.40314e-08
7.45737e-08
2.70086e-09
1.35926e-09
3.84333e-08
4.12846e-09
2.76187e-08
4.17595e-08
-2.01973e-08
6.55592e-08
4.44523e-08
-3.10285e-08
1.1081e-07
4.92506e-08
-3.6625e-08
1.65625e-07
5.6937e-08
-4.31808e-08
2.34424e-07
6.74321e-08
-5.24447e-08
3.21951e-07
7.99396e-08
-6.42992e-08
4.30178e-07
9.32392e-08
-7.62766e-08
5.55061e-07
1.03667e-07
-8.36221e-08
6.79948e-07
1.12658e-07
-7.76871e-08
7.3327e-07
1.02738e-07
-5.05051e-08
7.46801e-07
1.5281e-07
2.64426e-08
6.78676e-07
2.18401e-07
1.53505e-07
5.57553e-07
2.72466e-07
2.36338e-07
4.14491e-07
3.15043e-07
2.80357e-07
2.71973e-07
3.43218e-07
2.94297e-07
1.36958e-07
3.61261e-07
2.95617e-07
7.22888e-09
3.70005e-07
2.945e-07
-1.2245e-07
3.70421e-07
2.94532e-07
-2.57315e-07
3.62502e-07
2.95721e-07
-3.99608e-07
3.45265e-07
2.94534e-07
-5.42509e-07
3.1785e-07
2.80911e-07
-6.63955e-07
2.75962e-07
2.37656e-07
-7.33272e-07
2.22366e-07
1.55909e-07
-7.22745e-07
1.5705e-07
3.06882e-08
-6.72531e-07
1.06233e-07
-4.78849e-08
-5.47929e-07
1.1702e-07
-7.7415e-08
-4.19643e-07
1.09169e-07
-8.66061e-08
-3.04468e-07
1.00229e-07
-8.25645e-08
-2.06382e-07
8.8948e-08
-7.39737e-08
-1.23949e-07
7.93077e-08
-6.48216e-08
-5.49642e-08
7.27034e-08
-5.54238e-08
-6.47382e-09
6.89748e-08
-3.70066e-08
6.41474e-08
3.95257e-09
1.74511e-09
3.18609e-08
4.82728e-09
3.02202e-08
3.4547e-08
-2.12627e-08
7.11052e-08
3.64697e-08
-3.29023e-08
1.19559e-07
3.97864e-08
-3.89897e-08
1.77686e-07
4.50108e-08
-4.62008e-08
2.49691e-07
5.195e-08
-5.65231e-08
3.39684e-07
5.98988e-08
-6.99517e-08
4.48993e-07
6.82052e-08
-8.42754e-08
5.72019e-07
7.49853e-08
-9.43447e-08
6.93174e-07
8.29411e-08
-9.14381e-08
7.73107e-07
8.74809e-08
-6.46757e-08
7.98806e-07
1.18499e-07
8.61254e-09
7.25528e-07
1.58667e-07
1.33011e-07
5.95557e-07
1.92962e-07
2.09475e-07
4.41928e-07
2.20373e-07
2.483e-07
2.89722e-07
2.38942e-07
2.56483e-07
1.45804e-07
2.51022e-07
2.54157e-07
7.64321e-09
2.56975e-07
2.51191e-07
-1.30477e-07
2.57354e-07
2.51187e-07
-2.74271e-07
2.52147e-07
2.54149e-07
-4.26305e-07
2.40771e-07
2.56529e-07
-5.79867e-07
2.22834e-07
2.48578e-07
-7.10328e-07
1.95966e-07
2.10456e-07
-7.85087e-07
1.6205e-07
1.35076e-07
-7.62821e-07
1.22176e-07
1.26074e-08
-6.85411e-07
9.10534e-08
-6.22303e-08
-5.64202e-07
8.71252e-08
-9.1314e-08
-4.37529e-07
8.0002e-08
-9.75064e-08
-3.20815e-07
7.44182e-08
-9.09024e-08
-2.19451e-07
6.77779e-08
-8.01941e-08
-1.32639e-07
6.21667e-08
-6.96711e-08
-5.90462e-08
5.83042e-08
-5.91936e-08
-6.9266e-09
5.60471e-08
-3.91918e-08
5.22534e-08
4.96737e-09
1.93752e-09
2.45577e-08
5.36566e-09
3.1971e-08
2.65808e-08
-2.20673e-08
7.49064e-08
2.78591e-08
-3.43248e-08
1.25464e-07
3.0002e-08
-4.07734e-08
1.85562e-07
3.33691e-08
-4.84557e-08
2.59224e-07
3.78224e-08
-5.95353e-08
3.50269e-07
4.29388e-08
-7.40842e-08
4.59952e-07
4.85083e-08
-8.99862e-08
5.82954e-07
5.3787e-08
-1.01803e-07
7.0564e-07
6.09365e-08
-1.00682e-07
7.9829e-07
6.87411e-08
-7.39103e-08
8.30427e-07
8.88873e-08
-2.52507e-09
7.55114e-07
1.13923e-07
1.20057e-07
6.20035e-07
1.35891e-07
1.9215e-07
4.59788e-07
1.5365e-07
2.26969e-07
3.01384e-07
1.66024e-07
2.31322e-07
1.51692e-07
1.74199e-07
2.26515e-07
8.01909e-09
1.78332e-07
2.22316e-07
-1.35628e-07
1.7871e-07
2.22291e-07
-2.85239e-07
1.75312e-07
2.26445e-07
-4.43544e-07
1.67816e-07
2.3126e-07
-6.03826e-07
1.56028e-07
2.27089e-07
-7.39538e-07
1.38741e-07
1.92937e-07
-8.16519e-07
1.17103e-07
1.21928e-07
-7.8796e-07
9.23316e-08
1.28544e-09
-6.97527e-07
7.22069e-08
-7.15871e-08
-5.74526e-07
6.47886e-08
-1.00664e-07
-4.476e-07
5.81964e-08
-1.0512e-07
-3.3009e-07
5.37784e-08
-9.68701e-08
-2.27025e-07
4.94378e-08
-8.47251e-08
-1.37691e-07
4.60356e-08
-7.32028e-08
-6.12551e-08
4.37891e-08
-6.1921e-08
-6.91008e-09
4.245e-08
-4.07479e-08
3.96226e-08
5.72074e-09
1.98827e-09
1.6847e-08
5.72244e-09
3.30211e-08
1.81985e-08
-2.26504e-08
7.72741e-08
1.89481e-08
-3.53421e-08
1.29132e-07
2.0176e-08
-4.20322e-08
1.90378e-07
2.21385e-08
-5.00151e-08
2.64963e-07
2.48026e-08
-6.1565e-08
3.56672e-07
2.80199e-08
-7.67903e-08
4.66948e-07
3.18188e-08
-9.35865e-08
5.91034e-07
3.60444e-08
-1.06343e-07
7.16083e-07
4.19243e-08
-1.06036e-07
8.15079e-07
4.91602e-08
-7.94156e-08
8.5078e-07
6.18475e-08
-8.66101e-09
7.742e-07
7.68132e-08
1.1369e-07
6.3591e-07
9.01923e-08
1.83989e-07
4.71577e-07
1.01098e-07
2.16887e-07
3.09231e-07
1.08965e-07
2.19404e-07
1.5575e-07
1.1426e-07
2.13419e-07
8.38877e-09
1.17054e-07
2.0864e-07
-1.38966e-07
1.17455e-07
2.08609e-07
-2.92425e-07
1.15442e-07
2.1333e-07
-4.54765e-07
1.1085e-07
2.19306e-07
-6.19254e-07
1.03567e-07
2.1695e-07
-7.58303e-07
9.30925e-08
1.84697e-07
-8.36657e-07
7.99753e-08
1.15482e-07
-8.04644e-07
6.51402e-08
-4.82245e-09
-7.07698e-07
5.24444e-08
-7.7183e-08
-5.82143e-07
4.53722e-08
-1.06139e-07
-4.53897e-07
3.97712e-08
-1.09821e-07
-3.35461e-07
3.60373e-08
-1.00695e-07
-2.31261e-07
3.2975e-08
-8.77378e-08
-1.40418e-07
3.07982e-08
-7.56052e-08
-6.22888e-08
2.94635e-08
-6.38036e-08
-6.67132e-09
2.86726e-08
-4.18402e-08
2.67774e-08
6.17383e-09
1.9822e-09
8.96032e-09
5.90452e-09
3.35894e-08
9.63555e-09
-2.30443e-08
7.86206e-08
9.91731e-09
-3.60004e-08
1.31263e-07
1.03634e-08
-4.28295e-08
1.93237e-07
1.1142e-08
-5.09778e-08
2.68487e-07
1.23332e-08
-6.27804e-08
3.60842e-07
1.40275e-08
-7.83626e-08
4.71886e-07
1.63857e-08
-9.56113e-08
5.97176e-07
1.95802e-08
-1.08826e-07
7.24063e-07
2.38984e-08
-1.08861e-07
8.26164e-07
2.93286e-08
-8.22687e-08
8.63545e-07
3.59734e-08
-1.15073e-08
7.86173e-07
4.28e-08
1.11385e-07
6.45936e-07
4.90312e-08
1.81398e-07
4.79149e-07
5.41403e-08
2.13744e-07
3.14363e-07
5.80946e-08
2.15656e-07
1.58496e-07
6.08661e-08
2.09262e-07
8.78056e-09
6.24876e-08
2.04281e-07
-1.40953e-07
6.29377e-08
2.04252e-07
-2.96874e-07
6.21872e-08
2.09175e-07
-4.61772e-07
6.01882e-08
2.15559e-07
-6.28866e-07
5.68571e-08
2.13804e-07
-7.70025e-07
5.21582e-08
1.82093e-07
-8.49309e-07
4.61164e-08
1.13143e-07
-8.15683e-07
3.92568e-08
-7.74186e-09
-7.15557e-07
3.24516e-08
-8.01339e-08
-5.88043e-07
2.69457e-08
-1.09087e-07
-4.58425e-07
2.26162e-08
-1.12463e-07
-3.38998e-07
1.953e-08
-1.02919e-07
-2.33856e-07
1.73899e-08
-8.95572e-08
-1.41996e-07
1.60399e-08
-7.7102e-08
-6.28273e-08
1.53063e-08
-6.50112e-08
-6.4769e-09
1.48993e-08
-4.25771e-08
1.39235e-08
6.37704e-09
1.94811e-09
1.0992e-09
5.91301e-09
3.37586e-08
1.09325e-09
-2.32682e-08
7.91e-08
9.04065e-10
-3.63282e-08
1.32103e-07
5.64455e-10
-4.32039e-08
1.945e-07
1.44343e-10
-5.13996e-08
2.70265e-07
-1.62358e-10
-6.32693e-08
3.6328e-07
-4.68288e-11
-7.89409e-08
4.75157e-07
8.07644e-10
-9.62989e-08
6.01433e-07
2.92263e-09
-1.09619e-07
7.29329e-07
5.73076e-09
-1.09728e-07
8.32257e-07
9.56325e-09
-8.31621e-08
8.69834e-07
1.06957e-08
-1.22993e-08
7.9197e-07
9.60763e-09
1.11056e-07
6.5083e-07
8.77482e-09
1.81397e-07
4.82985e-07
8.0904e-09
2.13895e-07
3.17084e-07
8.13129e-09
2.15864e-07
1.60085e-07
8.38708e-09
2.09478e-07
9.21693e-09
8.85874e-09
2.04497e-07
-1.41702e-07
9.38689e-09
2.04469e-07
-2.98848e-07
9.93824e-09
2.09395e-07
-4.65011e-07
1.05809e-08
2.15771e-07
-6.33361e-07
1.12524e-08
2.13955e-07
-7.75637e-07
1.23568e-08
1.82076e-07
-8.55603e-07
1.33099e-08
1.12773e-07
-8.21872e-07
1.41601e-08
-8.63478e-09
-7.20894e-07
1.26239e-08
-8.11499e-08
-5.92309e-07
8.46729e-09
-1.10107e-07
-4.61617e-07
5.35685e-09
-1.13433e-07
-3.41259e-07
2.97539e-09
-1.03804e-07
-2.35335e-07
1.81776e-09
-9.03514e-08
-1.42816e-07
1.33613e-09
-7.78153e-08
-6.30993e-08
1.22668e-09
-6.56372e-08
-6.40166e-09
1.21803e-09
-4.30163e-08
1.17315e-09
6.34865e-09
1.88458e-09
-6.53251e-09
5.74713e-09
3.3526e-08
-7.22254e-09
-2.33256e-08
7.87076e-08
-7.94635e-09
-3.63312e-08
1.31647e-07
-9.21076e-09
-4.31638e-08
1.94145e-07
-1.10578e-08
-5.12963e-08
2.70265e-07
-1.32245e-08
-6.30579e-08
3.63922e-07
-1.51353e-08
-7.85687e-08
4.76683e-07
-1.62599e-08
-9.5693e-08
6.03796e-07
-1.54157e-08
-1.08775e-07
7.32006e-07
-1.37731e-08
-1.08707e-07
8.33611e-07
-9.83241e-09
-8.22086e-08
8.69794e-07
-1.42119e-08
-1.12758e-08
7.91632e-07
-2.45941e-08
1.12364e-07
6.50591e-07
-3.37108e-08
1.83527e-07
4.83081e-07
-4.11959e-08
2.16797e-07
3.174e-07
-4.56174e-08
2.1943e-07
1.60532e-07
-4.81794e-08
2.13434e-07
9.72015e-09
-4.89664e-08
2.08637e-07
-1.4118e-07
-4.83208e-08
2.08608e-07
-2.98309e-07
-4.62782e-08
2.13345e-07
-4.64437e-07
-4.26094e-08
2.19319e-07
-6.32706e-07
-3.72968e-08
2.16818e-07
-7.75161e-07
-2.93199e-08
1.84132e-07
-8.55697e-07
-2.01227e-08
1.13968e-07
-8.23505e-07
-1.02573e-08
-7.77417e-09
-7.23856e-07
-6.64134e-09
-8.03835e-08
-5.94941e-07
-1.11534e-08
-1.09295e-07
-4.6341e-07
-1.33725e-08
-1.12802e-07
-3.42182e-07
-1.48518e-08
-1.03401e-07
-2.3566e-07
-1.45451e-08
-9.01589e-08
-1.42857e-07
-1.36949e-08
-7.77717e-08
-6.30903e-08
-1.28397e-08
-6.57005e-08
-6.43581e-09
-1.22659e-08
-4.31705e-08
-1.13474e-08
6.0847e-09
1.76049e-09
-1.36943e-08
5.40135e-09
3.28079e-08
-1.50643e-08
-2.32057e-08
7.72831e-08
-1.64289e-08
-3.59926e-08
1.29614e-07
-1.88567e-08
-4.26855e-08
1.9175e-07
-2.25663e-08
-5.06266e-08
2.6789e-07
-2.7289e-08
-6.20756e-08
3.62104e-07
-3.2224e-08
-7.71256e-08
4.75925e-07
-3.64558e-08
-9.36254e-08
6.04134e-07
-3.75828e-08
-1.06042e-07
7.32563e-07
-3.68092e-08
-1.05392e-07
8.30084e-07
-2.84504e-08
-7.89028e-08
8.62562e-07
-3.9133e-08
-7.55709e-09
7.84259e-07
-6.29453e-08
1.16654e-07
6.44495e-07
-8.36949e-08
1.89748e-07
4.78974e-07
-1.00584e-07
2.24909e-07
3.1505e-07
-1.10979e-07
2.29286e-07
1.59745e-07
-1.17224e-07
2.2435e-07
1.0339e-08
-1.19609e-07
2.20049e-07
-1.39199e-07
-1.18776e-07
2.19994e-07
-2.94902e-07
-1.14755e-07
2.24179e-07
-4.59502e-07
-1.07043e-07
2.29033e-07
-6.26115e-07
-9.54118e-08
2.24728e-07
-7.67677e-07
-7.78466e-08
1.90088e-07
-8.48757e-07
-5.6999e-08
1.17956e-07
-8.20474e-07
-3.41358e-08
-4.40391e-09
-7.24881e-07
-2.48479e-08
-7.73866e-08
-5.95756e-07
-3.39684e-08
-1.0631e-07
-4.63205e-07
-3.55513e-08
-1.10372e-07
-3.41073e-07
-3.53986e-08
-1.01585e-07
-2.3423e-07
-3.24903e-08
-8.88985e-08
-1.41694e-07
-2.93211e-08
-7.6909e-08
-6.25566e-08
-2.68279e-08
-6.51496e-08
-6.492e-09
-2.53213e-08
-4.30092e-08
-2.33964e-08
5.55702e-09
1.49489e-09
-2.00549e-08
4.86568e-09
3.1395e-08
-2.2079e-08
-2.28854e-08
7.44279e-08
-2.41805e-08
-3.52813e-08
1.25319e-07
-2.80225e-08
-4.17252e-08
1.86191e-07
-3.41183e-08
-4.93199e-08
2.61479e-07
-4.23832e-08
-6.01937e-08
3.55678e-07
-5.20441e-08
-7.43789e-08
4.70676e-07
-6.18225e-08
-8.96311e-08
6.01317e-07
-6.75631e-08
-1.00661e-07
7.31695e-07
-6.86333e-08
-9.85543e-08
8.20166e-07
-4.4605e-08
-7.2316e-08
8.45024e-07
-6.37114e-08
-2.79299e-10
7.66459e-07
-1.09901e-07
1.25521e-07
6.29719e-07
-1.49247e-07
2.02292e-07
4.68806e-07
-1.80573e-07
2.40902e-07
3.08995e-07
-1.99864e-07
2.48696e-07
1.57286e-07
-2.11423e-07
2.45908e-07
1.11265e-08
-2.16078e-07
2.42629e-07
-1.35211e-07
-2.14947e-07
2.42509e-07
-2.87466e-07
-2.08037e-07
2.45537e-07
-4.48214e-07
-1.94395e-07
2.481e-07
-6.10643e-07
-1.73225e-07
2.40242e-07
-7.49709e-07
-1.40823e-07
2.02043e-07
-8.31681e-07
-1.01202e-07
1.26175e-07
-8.11362e-07
-5.68122e-08
2.35771e-09
-7.24594e-07
-4.0301e-08
-7.13149e-08
-5.93546e-07
-6.50217e-08
-9.99951e-08
-4.58732e-07
-6.49243e-08
-1.05441e-07
-3.35714e-07
-6.05031e-08
-9.79134e-08
-2.2931e-07
-5.25762e-08
-8.6318e-08
-1.38166e-07
-4.54044e-08
-7.50608e-08
-6.08361e-08
-4.0298e-08
-6.38602e-08
-6.30565e-09
-3.7399e-08
-4.24528e-08
-3.44102e-08
4.70822e-09
1.05908e-09
-2.52743e-08
4.16027e-09
2.91885e-08
-2.78691e-08
-2.23393e-08
6.99203e-08
-3.07392e-08
-3.41731e-08
1.18283e-07
-3.61281e-08
-4.02567e-08
1.76494e-07
-4.49807e-08
-4.73489e-08
2.49192e-07
-5.76869e-08
-5.73946e-08
3.41559e-07
-7.40668e-08
-7.03443e-08
4.56528e-07
-9.30482e-08
-8.37428e-08
5.91251e-07
-1.09599e-07
-9.26873e-08
7.29999e-07
-1.18933e-07
-8.84479e-08
7.99418e-07
-5.28928e-08
-6.1132e-08
8.08378e-07
-8.62383e-08
1.35673e-08
7.3192e-07
-1.72995e-07
1.39552e-07
6.02128e-07
-2.40164e-07
2.20708e-07
4.49828e-07
-2.91537e-07
2.63265e-07
2.97548e-07
-3.23442e-07
2.75857e-07
1.52399e-07
-3.42272e-07
2.75999e-07
1.22033e-08
-3.50025e-07
2.74143e-07
-1.28204e-07
-3.48442e-07
2.73902e-07
-2.74028e-07
-3.37473e-07
2.7526e-07
-4.27512e-07
-3.15551e-07
2.7464e-07
-5.81874e-07
-2.80629e-07
2.61766e-07
-7.14744e-07
-2.27411e-07
2.19458e-07
-7.9582e-07
-1.59352e-07
1.39226e-07
-7.91839e-07
-7.5931e-08
1.51374e-08
-7.23441e-07
-4.78934e-08
-6.08051e-08
-5.84185e-07
-1.13515e-07
-9.07634e-08
-4.45581e-07
-1.05385e-07
-9.81432e-08
-3.22996e-07
-9.06534e-08
-9.24344e-08
-2.19007e-07
-7.41624e-08
-8.24026e-08
-1.31218e-07
-6.1052e-08
-7.21417e-08
-5.7397e-08
-5.24096e-08
-6.1709e-08
-5.69675e-09
-4.77181e-08
-4.13811e-08
-4.36851e-08
3.57816e-09
3.65303e-10
-2.8945e-08
3.30547e-09
2.58699e-08
-3.18082e-08
-2.15656e-08
6.31034e-08
-3.52872e-08
-3.26855e-08
1.0715e-07
-4.18766e-08
-3.82981e-08
1.59945e-07
-5.30586e-08
-4.47169e-08
2.25942e-07
-7.0036e-08
-5.36477e-08
3.10994e-07
-9.42078e-08
-6.4911e-08
4.20033e-07
-1.2673e-07
-7.5357e-08
5.576e-07
-1.66869e-07
-8.02976e-08
7.26834e-07
-2.19882e-07
-6.82854e-08
7.60058e-07
-4.9579e-08
-3.6538e-08
7.30177e-07
-8.46854e-08
2.8328e-08
6.63186e-07
-2.537e-07
1.47696e-07
5.48762e-07