/*--------------------------------*- C++ -*----------------------------------*\
| =========                 |                                                 |
| \\      /  F ield         | OpenFOAM: The Open Source CFD Toolbox           |
|  \\    /   O peration     | Version:  2112                                  |
|   \\  /    A nd           | Website:  www.openfoam.com                      |
|    \\/     M anipulation  |                                                 |
\*---------------------------------------------------------------------------*/
FoamFile
{
    version     2.0;
    format      ascii;
    arch        "LSB;label=32;scalar=64";
    class       volVectorField;
    location    "3.3";
    object      U;
}
// * * * * * * * * * * * * * * * * * * * * * * * * * * * * * * * * * * * * * //

dimensions      [0 1 -1 0 0 0 0];

internalField   nonuniform List<vector> 
64906
(
(5.70967e-08 2.70496e-07 -9.71753e-07)
(2.16107e-06 -1.30723e-06 -1.0018e-06)
(5.91542e-06 -2.91378e-06 -3.01235e-07)
(1.0117e-05 -4.21693e-06 6.13046e-07)
(1.46009e-05 -5.1358e-06 1.37978e-06)
(1.90982e-05 -5.80523e-06 1.97734e-06)
(2.35424e-05 -6.35379e-06 2.47247e-06)
(2.77927e-05 -6.83938e-06 2.92001e-06)
(3.1679e-05 -7.29043e-06 3.35167e-06)
(3.4743e-05 -7.60693e-06 3.79523e-06)
(3.64727e-05 -7.83668e-06 4.22842e-06)
(3.6356e-05 -7.54828e-06 4.84849e-06)
(3.44215e-05 -7.4307e-06 5.50964e-06)
(3.09337e-05 -7.361e-06 6.18969e-06)
(2.60894e-05 -7.46119e-06 6.78124e-06)
(2.02969e-05 -7.57856e-06 7.25584e-06)
(1.38122e-05 -7.70705e-06 7.58046e-06)
(6.9583e-06 -7.79071e-06 7.74953e-06)
(-1.05841e-08 -7.82325e-06 7.75724e-06)
(-6.81086e-06 -7.80487e-06 7.60433e-06)
(-1.31889e-05 -7.7425e-06 7.29686e-06)
(-1.88237e-05 -7.69256e-06 6.84055e-06)
(-2.34661e-05 -7.6597e-06 6.2692e-06)
(-2.67135e-05 -7.79668e-06 5.61089e-06)
(-2.83945e-05 -7.9707e-06 4.97269e-06)
(-2.82157e-05 -8.28043e-06 4.3826e-06)
(-2.61622e-05 -8.06672e-06 3.93809e-06)
(-2.27916e-05 -7.73421e-06 3.42367e-06)
(-1.86168e-05 -7.16649e-06 2.81669e-06)
(-1.41443e-05 -6.35928e-06 2.03907e-06)
(-9.61685e-06 -5.138e-06 1.01337e-06)
(-5.46346e-06 -3.35133e-06 -2.41163e-07)
(-1.85348e-06 -1.14459e-06 -1.25645e-06)
(1.99013e-07 7.2865e-07 -1.38226e-06)
(-2.36166e-06 4.70805e-06 -1.78139e-06)
(-1.11315e-06 3.48398e-06 -6.33099e-06)
(3.99182e-06 1.68867e-06 -7.70078e-06)
(9.15447e-06 1.37389e-07 -7.97544e-06)
(1.42352e-05 -7.41428e-07 -8.19011e-06)
(1.90612e-05 -9.73034e-07 -8.64622e-06)
(2.3704e-05 -6.33003e-07 -9.42434e-06)
(2.80972e-05 3.06689e-07 -1.05414e-05)
(3.21648e-05 1.91755e-06 -1.20038e-05)
(3.54111e-05 4.49083e-06 -1.38105e-05)
(3.7605e-05 7.82371e-06 -1.59186e-05)
(3.77864e-05 1.22558e-05 -1.8305e-05)
(3.57017e-05 1.60906e-05 -2.05612e-05)
(3.19907e-05 1.94139e-05 -2.25132e-05)
(2.68738e-05 2.18093e-05 -2.40899e-05)
(2.08704e-05 2.35574e-05 -2.52864e-05)
(1.41819e-05 2.46428e-05 -2.60944e-05)
(7.15019e-06 2.51707e-05 -2.65179e-05)
(2.94626e-09 2.51499e-05 -2.65535e-05)
(-6.96993e-06 2.45805e-05 -2.62008e-05)
(-1.35426e-05 2.34545e-05 -2.54634e-05)
(-1.93746e-05 2.16675e-05 -2.43378e-05)
(-2.42719e-05 1.92419e-05 -2.28338e-05)
(-2.77153e-05 1.59019e-05 -2.09601e-05)
(-2.94896e-05 1.20894e-05 -1.87962e-05)
(-2.89771e-05 7.7381e-06 -1.65402e-05)
(-2.64443e-05 4.56804e-06 -1.45949e-05)
(-2.28144e-05 2.27036e-06 -1.30126e-05)
(-1.8271e-05 1.16486e-06 -1.18647e-05)
(-1.32754e-05 1.09501e-06 -1.11575e-05)
(-7.85593e-06 2.12038e-06 -1.07915e-05)
(-2.29162e-06 4.15237e-06 -1.03831e-05)
(3.01946e-06 6.47935e-06 -8.64377e-06)
(3.59701e-06 7.73472e-06 -2.66777e-06)
(-4.05075e-06 1.38909e-05 -1.58124e-06)
(-3.5876e-06 1.47293e-05 -8.03541e-06)
(2.22159e-06 1.41652e-05 -1.01971e-05)
(8.15142e-06 1.37609e-05 -1.0918e-05)
(1.40356e-05 1.4296e-05 -1.15133e-05)
(1.95941e-05 1.59456e-05 -1.23915e-05)
(2.50049e-05 1.88342e-05 -1.37091e-05)
(3.02885e-05 2.3246e-05 -1.55375e-05)
(3.55105e-05 2.95042e-05 -1.79172e-05)
(3.99506e-05 3.83176e-05 -2.08764e-05)
(4.32022e-05 4.92461e-05 -2.43308e-05)
(4.35106e-05 6.24217e-05 -2.81069e-05)
(4.06913e-05 7.40324e-05 -3.1689e-05)
(3.60522e-05 8.41723e-05 -3.48169e-05)
(2.98885e-05 9.18806e-05 -3.7362e-05)
(2.29726e-05 9.76728e-05 -3.92971e-05)
(1.54027e-05 0.000101442 -4.06011e-05)
(7.54927e-06 0.000103352 -4.12829e-05)
(-4.17224e-07 0.000103396 -4.13359e-05)
(-8.20867e-06 0.000101574 -4.07597e-05)
(-1.56564e-05 9.78963e-05 -3.95609e-05)
(-2.23876e-05 9.22022e-05 -3.77317e-05)
(-2.83102e-05 8.4615e-05 -3.52954e-05)
(-3.26441e-05 7.46289e-05 -3.22849e-05)
(-3.51094e-05 6.3251e-05 -2.88386e-05)
(-3.43816e-05 5.03835e-05 -2.52332e-05)
(-3.06561e-05 3.9967e-05 -2.20013e-05)
(-2.56453e-05 3.18351e-05 -1.93348e-05)
(-1.96392e-05 2.65599e-05 -1.73334e-05)
(-1.33023e-05 2.35221e-05 -1.59479e-05)
(-6.53239e-06 2.2439e-05 -1.49841e-05)
(1.65658e-07 2.28201e-05 -1.39107e-05)
(6.46409e-06 2.33679e-05 -1.10406e-05)
(5.94913e-06 2.18732e-05 -2.53612e-06)
(-5.21467e-06 2.37325e-05 -9.59324e-07)
(-5.1548e-06 2.58946e-05 -8.24668e-06)
(1.45447e-06 2.63225e-05 -1.0694e-05)
(8.38868e-06 2.71753e-05 -1.15323e-05)
(1.54424e-05 2.93129e-05 -1.22437e-05)
(2.22598e-05 3.30176e-05 -1.3292e-05)
(2.91708e-05 3.85854e-05 -1.48756e-05)
(3.63195e-05 4.66048e-05 -1.71039e-05)
(4.40216e-05 5.77871e-05 -2.00297e-05)
(5.10936e-05 7.36147e-05 -2.37097e-05)
(5.69053e-05 9.35378e-05 -2.80067e-05)
(5.75918e-05 0.000118291 -3.27767e-05)
(5.29338e-05 0.000139506 -3.72666e-05)
(4.60517e-05 0.000157723 -4.11768e-05)
(3.74235e-05 0.000171379 -4.43468e-05)
(2.8312e-05 0.000181656 -4.67344e-05)
(1.85689e-05 0.00018836 -4.83255e-05)
(8.63198e-06 0.000191781 -4.91529e-05)
(-1.42483e-06 0.000191893 -4.92112e-05)
(-1.12974e-05 0.000188694 -4.84998e-05)
(-2.09129e-05 0.000182215 -4.70233e-05)
(-2.9824e-05 0.000172167 -4.47499e-05)
(-3.81824e-05 0.000158769 -4.16952e-05)
(-4.47005e-05 0.000140851 -3.79081e-05)
(-4.89218e-05 0.000120057 -3.35603e-05)
(-4.76712e-05 9.58379e-05 -2.89692e-05)
(-4.12052e-05 7.67544e-05 -2.49124e-05)
(-3.33425e-05 6.19307e-05 -2.15493e-05)
(-2.45211e-05 5.2082e-05 -1.90281e-05)
(-1.58887e-05 4.57882e-05 -1.72654e-05)
(-7.12556e-06 4.2364e-05 -1.60348e-05)
(1.12162e-06 4.1007e-05 -1.47407e-05)
(8.57093e-06 4.03096e-05 -1.14657e-05)
(7.53849e-06 3.70765e-05 -1.81945e-06)
(-5.90242e-06 3.38173e-05 -2.72258e-07)
(-5.77369e-06 3.70438e-05 -8.26399e-06)
(2.04205e-06 3.83879e-05 -1.09422e-05)
(1.03752e-05 4.05388e-05 -1.18494e-05)
(1.9045e-05 4.44121e-05 -1.26592e-05)
(2.76951e-05 5.03347e-05 -1.39038e-05)
(3.69144e-05 5.87267e-05 -1.58222e-05)
(4.7092e-05 7.05175e-05 -1.85669e-05)
(5.90952e-05 8.7031e-05 -2.2175e-05)
(7.10317e-05 0.000111218 -2.67461e-05)
(8.21129e-05 0.000142977 -3.20296e-05)
(8.3521e-05 0.000184983 -3.81702e-05)
(7.48973e-05 0.000219058 -4.38512e-05)
(6.3727e-05 0.000247504 -4.88441e-05)
(5.06792e-05 0.000268216 -5.28987e-05)
(3.77611e-05 0.00028383 -5.58809e-05)
(2.42127e-05 0.000293998 -5.78329e-05)
(1.06017e-05 0.000299213 -5.88396e-05)
(-3.15793e-06 0.000299402 -5.89025e-05)
(-1.6705e-05 0.00029456 -5.80203e-05)
(-3.0126e-05 0.000284762 -5.61896e-05)
(-4.28325e-05 0.000269508 -5.33264e-05)
(-5.55839e-05 0.000249179 -4.93883e-05)
(-6.63162e-05 0.000221147 -4.45176e-05)
(-7.43968e-05 0.00018765 -3.89786e-05)
(-7.22164e-05 0.000146353 -3.30187e-05)
(-6.02636e-05 0.0001158 -2.79925e-05)
(-4.73341e-05 9.29014e-05 -2.37623e-05)
(-3.38792e-05 7.80218e-05 -2.05933e-05)
(-2.17961e-05 6.82739e-05 -1.83616e-05)
(-1.0233e-05 6.24152e-05 -1.68423e-05)
(1.96138e-07 5.93375e-05 -1.53553e-05)
(9.40767e-06 5.75189e-05 -1.17115e-05)
(8.50921e-06 5.28863e-05 -1.01302e-06)
(-6.34181e-06 4.3422e-05 3.94486e-07)
(-5.67278e-06 4.74599e-05 -8.41252e-06)
(3.9202e-06 4.96304e-05 -1.13852e-05)
(1.41673e-05 5.30327e-05 -1.23905e-05)
(2.49666e-05 5.86769e-05 -1.33482e-05)
(3.60121e-05 6.68393e-05 -1.48849e-05)
(4.82761e-05 7.79511e-05 -1.72814e-05)
(6.26064e-05 9.31974e-05 -2.07343e-05)
(8.1055e-05 0.000114748 -2.51837e-05)
(0.000101082 0.000148188 -3.07518e-05)
(0.000122678 0.000194985 -3.66779e-05)
(0.000125611 0.000264544 -4.44653e-05)
(0.000108994 0.000315779 -5.16241e-05)
(9.05836e-05 0.000356667 -5.82391e-05)
(7.06699e-05 0.000385233 -6.36949e-05)
(5.21335e-05 0.000406897 -6.74919e-05)
(3.28397e-05 0.00042096 -6.99102e-05)
(1.36421e-05 0.000428216 -7.11431e-05)
(-5.78295e-06 0.000428492 -7.12129e-05)
(-2.49245e-05 0.00042178 -7.01176e-05)
(-4.41079e-05 0.000408243 -6.78315e-05)
(-6.24426e-05 0.000387064 -6.41625e-05)
(-8.20593e-05 0.00035898 -5.88268e-05)
(-9.9963e-05 0.000318562 -5.23354e-05)
(-0.000115929 0.000268014 -4.53222e-05)
(-0.000111911 0.000199243 -3.77093e-05)
(-8.91763e-05 0.000154161 -3.20639e-05)
(-6.80184e-05 0.000122257 -2.68678e-05)
(-4.77738e-05 0.00010259 -2.29085e-05)
(-3.10634e-05 8.96763e-05 -2.00407e-05)
(-1.58431e-05 8.15464e-05 -1.81204e-05)
(-2.46361e-06 7.68959e-05 -1.63524e-05)
(9.33696e-06 7.41253e-05 -1.22127e-05)
(9.19497e-06 6.83948e-05 -2.36525e-07)
(-6.68142e-06 5.2236e-05 1.0956e-06)
(-5.01039e-06 5.69774e-05 -8.74254e-06)
(7.04664e-06 5.99741e-05 -1.21524e-05)
(1.9799e-05 6.47334e-05 -1.33016e-05)
(3.33006e-05 7.23635e-05 -1.44721e-05)
(4.72369e-05 8.297e-05 -1.64016e-05)
(6.30191e-05 9.67537e-05 -1.94058e-05)
(8.21995e-05 0.000114648 -2.37225e-05)
(0.000109173 0.00013957 -2.90775e-05)
(0.000141183 0.000180181 -3.54127e-05)
(0.000183672 0.000244098 -4.07912e-05)
(0.00019023 0.000360116 -5.02103e-05)
(0.000157193 0.00043361 -5.86326e-05)
(0.000127407 0.000489573 -6.75812e-05)
(9.78986e-05 0.000527235 -7.52389e-05)
(7.19719e-05 0.000556369 -7.99247e-05)
(4.48027e-05 0.000575318 -8.28487e-05)
(1.78958e-05 0.000585157 -8.43186e-05)
(-9.40967e-06 0.00058554 -8.43979e-05)
(-3.62815e-05 0.000576451 -8.30836e-05)
(-6.33872e-05 0.000558215 -8.03077e-05)
(-8.91667e-05 0.000529704 -7.57643e-05)
(-0.000118442 0.000492598 -6.82337e-05)
(-0.000147684 0.000437077 -5.94171e-05)
(-0.000180018 0.000364266 -5.11579e-05)
(-0.000171851 0.000248901 -4.18975e-05)
(-0.000127865 0.000187597 -3.68405e-05)
(-9.47751e-05 0.000148669 -3.09042e-05)
(-6.56337e-05 0.000125789 -2.6105e-05)
(-4.34817e-05 0.000110461 -2.24654e-05)
(-2.39004e-05 0.000100133 -2.00348e-05)
(-6.76588e-06 9.3849e-05 -1.78722e-05)
(8.59893e-06 8.99997e-05 -1.30396e-05)
(9.8013e-06 8.3292e-05 5.90291e-07)
(-6.95173e-06 5.99217e-05 1.89261e-06)
(-3.80531e-06 6.52604e-05 -9.26164e-06)
(1.15688e-05 6.90867e-05 -1.32446e-05)
(2.76446e-05 7.53697e-05 -1.46035e-05)
(4.45973e-05 8.52706e-05 -1.60599e-05)
(6.19455e-05 9.85961e-05 -1.84912e-05)
(8.1199e-05 0.000114932 -2.22513e-05)
(0.000104523 0.000133958 -2.76704e-05)
(0.000139077 0.000157767 -3.39971e-05)
(0.000185414 0.000200408 -4.15267e-05)
(0.000270078 0.000276939 -4.04074e-05)
(0.000286429 0.000476952 -4.9234e-05)
(0.000221365 0.000573853 -5.92211e-05)
(0.000176757 0.000643665 -7.25287e-05)
(0.000135276 0.000689634 -8.39583e-05)
(9.9979e-05 0.000725926 -8.95109e-05)
(6.18455e-05 0.000749752 -9.29153e-05)
(2.39842e-05 0.000762243 -9.45988e-05)
(-1.45872e-05 0.00076276 -9.46888e-05)
(-5.24505e-05 0.000751279 -9.31817e-05)
(-9.06106e-05 0.000728399 -8.99446e-05)
(-0.000125893 0.000692904 -8.45566e-05)
(-0.000167342 0.000647558 -7.32688e-05)
(-0.00021151 0.000578025 -6.01163e-05)
(-0.000276048 0.000481712 -5.03721e-05)
(-0.000257058 0.000281883 -4.16007e-05)
(-0.000170358 0.000209892 -4.30475e-05)
(-0.000123466 0.000168654 -3.5963e-05)
(-8.62541e-05 0.000146803 -3.02937e-05)
(-5.91721e-05 0.000130402 -2.56795e-05)
(-3.49354e-05 0.000117906 -2.26252e-05)
(-1.31875e-05 0.000109727 -1.99775e-05)
(7.03208e-06 0.00010464 -1.41324e-05)
(1.03828e-05 9.70837e-05 1.60486e-06)
(-7.19401e-06 6.62304e-05 2.78942e-06)
(-2.07195e-06 7.20451e-05 -9.97285e-06)
(1.75886e-05 7.68817e-05 -1.46657e-05)
(3.79772e-05 8.5157e-05 -1.62947e-05)
(5.93428e-05 9.82721e-05 -1.80876e-05)
(8.07841e-05 0.000115893 -2.10668e-05)
(0.000103174 0.000136958 -2.56559e-05)
(0.000127795 0.000157863 -3.22991e-05)
(0.000166137 0.000179246 -4.06953e-05)
(0.000218901 0.000212862 -4.80327e-05)
(0.000383673 0.000234201 -4.92495e-05)
(0.00042512 0.00059538 -4.3049e-05)
(0.000293235 0.000725181 -5.10538e-05)
(0.000235422 0.00081482 -7.11602e-05)
(0.000181854 0.000874299 -8.76772e-05)
(0.000135487 0.000923201 -9.37509e-05)
(8.36952e-05 0.000955654 -9.80355e-05)
(3.18679e-05 0.000972495 -0.000100067)
(-2.11793e-05 0.000973184 -0.000100163)
(-7.30604e-05 0.000957696 -9.83208e-05)
(-0.000125009 0.000926535 -9.4211e-05)
(-0.000171589 0.000878724 -8.83145e-05)
(-0.000225566 0.000820047 -7.19401e-05)
(-0.000283222 0.000730581 -5.20307e-05)
(-0.000415297 0.000601012 -4.43528e-05)
(-0.000369128 0.000237225 -5.0958e-05)
(-0.000201766 0.000223547 -4.98411e-05)
(-0.000150197 0.000191253 -4.28305e-05)
(-0.000108285 0.000171937 -3.52383e-05)
(-7.88258e-05 0.000153642 -2.95641e-05)
(-4.98595e-05 0.000136721 -2.58599e-05)
(-2.22873e-05 0.000125028 -2.26726e-05)
(4.47277e-06 0.00011792 -1.55662e-05)
(1.09373e-05 0.00010937 2.8463e-06)
(-7.35477e-06 7.0525e-05 3.6605e-06)
(4.38324e-07 7.66064e-05 -1.08889e-05)
(2.58008e-05 8.23972e-05 -1.64291e-05)
(5.2235e-05 9.26614e-05 -1.83981e-05)
(8.03336e-05 0.000109221 -2.06091e-05)
(0.000108812 0.000131962 -2.42335e-05)
(0.000136178 0.000159032 -2.97243e-05)
(0.00016295 0.000182403 -3.87506e-05)
(0.000195927 0.000188926 -4.88589e-05)
(0.000160426 0.000110094 -7.1572e-05)
(0.000458076 0.000214582 -7.28295e-05)
(0.000621346 0.000847891 -1.5831e-05)
(0.000384733 0.000918249 -1.69236e-05)
(0.000324504 0.00098127 -3.94404e-05)
(0.000256855 0.0010461 -5.91754e-05)
(0.00019305 0.00109981 -6.12624e-05)
(0.000118729 0.00113841 -6.43078e-05)
(4.42122e-05 0.00115838 -6.58869e-05)
(-3.16818e-05 0.00115926 -6.59612e-05)
(-0.000106282 0.00114103 -6.45325e-05)
(-0.000180874 0.00110411 -6.1607e-05)
(-0.00024515 0.0010519 -5.96953e-05)
(-0.000313778 0.000988149 -4.00865e-05)
(-0.000374655 0.00092499 -1.77734e-05)
(-0.000615722 0.000851151 -1.74106e-05)
(-0.000445003 0.000217847 -7.52464e-05)
(-0.000141615 0.000128817 -7.26541e-05)
(-0.000180039 0.00020536 -5.06862e-05)
(-0.000142411 0.000198314 -4.19428e-05)
(-0.000109769 0.000176645 -3.42374e-05)
(-7.39032e-05 0.000153656 -2.99106e-05)
(-3.70152e-05 0.00013741 -2.61233e-05)
(-4.57399e-07 0.000127913 -1.74398e-05)
(1.09885e-05 0.000118632 4.41441e-06)
(-7.51788e-06 7.23291e-05 4.51787e-06)
(3.43747e-06 7.86001e-05 -1.19969e-05)
(3.55332e-05 8.53477e-05 -1.85236e-05)
(6.93984e-05 9.77884e-05 -2.09142e-05)
(0.000106491 0.00011888 -2.3621e-05)
(0.000145241 0.0001508 -2.76622e-05)
(0.000181601 0.000196524 -3.31958e-05)
(0.000207969 0.000257994 -3.87076e-05)
(0.000169468 0.000337712 -5.75823e-05)
(0.000172043 0.000386202 -9.07536e-05)
(0.000278932 0.000726906 7.20376e-05)
(0.000313493 0.000926926 3.38873e-05)
(0.000387064 0.0010534 2.0461e-05)
(0.000337581 0.00116617 2.04467e-05)
(0.000255032 0.00124615 1.56993e-05)
(0.000158493 0.0012992 1.07544e-05)
(5.83053e-05 0.00132509 8.46415e-06)
(-4.33812e-05 0.0013261 8.46889e-06)
(-0.000143673 0.00130226 1.07606e-05)
(-0.000240529 0.00125134 1.57114e-05)
(-0.000323747 0.00117367 2.0477e-05)
(-0.000374984 0.00106337 2.05757e-05)
(-0.000305478 0.000939294 3.36072e-05)
(-0.000273935 0.000739193 7.04868e-05)
(-0.00016827 0.000398346 -8.78707e-05)
(-0.000161958 0.000352043 -5.89652e-05)
(-0.000190877 0.000272785 -4.24931e-05)
(-0.000154983 0.000213547 -3.86607e-05)
(-0.000107092 0.000172291 -3.46255e-05)
(-5.69216e-05 0.000147434 -3.04926e-05)
(-7.31298e-06 0.000134287 -1.99561e-05)
(1.08169e-05 0.000123861 5.95554e-06)
(-7.42581e-06 7.09314e-05 5.39387e-06)
(7.32367e-06 7.72422e-05 -1.32208e-05)
(4.75559e-05 8.39767e-05 -2.08366e-05)
(9.15581e-05 9.66032e-05 -2.37741e-05)
(0.000143765 0.000118271 -2.72979e-05)
(0.000207498 0.000151791 -3.26099e-05)
(0.000288056 0.000201827 -3.9845e-05)
(0.000398939 0.000274413 -4.58432e-05)
(0.000531247 0.000379973 -4.91955e-05)
(0.000797076 0.000530485 -3.10418e-05)
(0.000825175 0.000147698 5.15015e-05)
(0.000633677 0.000306965 7.32252e-05)
(0.00070137 0.000682699 0.000131598)
(0.000631249 0.000894003 0.000186342)
(0.000503935 0.00104335 0.000217056)
(0.00036039 0.0011423 0.000226641)
(0.000217041 0.00120317 0.000227494)
(7.75768e-05 0.00123207 0.000227006)
(-6.02026e-05 0.00123302 0.000227068)
(-0.000199596 0.0012061 0.00022768)
(-0.000342819 0.00114734 0.000226974)
(-0.000486137 0.00105081 0.000217657)
(-0.000613295 0.000904302 0.000187525)
(-0.000683465 0.00069637 0.00013347)
(-0.000614142 0.000323381 7.64054e-05)
(-0.000813193 0.000150908 5.41867e-05)
(-0.000791995 0.000532867 -3.00907e-05)
(-0.000520695 0.000388948 -5.10985e-05)
(-0.000381373 0.000286625 -5.00431e-05)
(-0.000260266 0.000217483 -4.63565e-05)
(-0.000166024 0.00017242 -4.11001e-05)
(-8.78931e-05 0.000146225 -3.59374e-05)
(-1.87092e-05 0.00013277 -2.32406e-05)
(9.01947e-06 0.000122165 7.55224e-06)
(-7.39942e-06 6.64018e-05 6.33405e-06)
(1.05096e-05 7.23978e-05 -1.44497e-05)
(5.7569e-05 7.80787e-05 -2.30424e-05)
(0.000109622 8.85911e-05 -2.64942e-05)
(0.00017236 0.000106028 -3.07514e-05)
(0.000250319 0.000131274 -3.71967e-05)
(0.00034963 0.000164356 -4.57369e-05)
(0.000481493 0.000202572 -5.33237e-05)
(0.000638813 0.00023503 -5.59141e-05)
(0.00087176 0.000251866 -4.24125e-05)
(0.000981541 0.000123343 -1.55477e-05)
(0.000953238 0.000311868 3.24437e-05)
(0.000923056 0.000505434 0.000140924)
(0.000790692 0.000647986 0.000212494)
(0.000622577 0.000758205 0.000249345)
(0.000439358 0.000831612 0.000264208)
(0.000262233 0.000877754 0.000267634)
(9.27342e-05 0.000900004 0.000268058)
(-7.34473e-05 0.000900793 0.000268121)
(-0.000242818 0.000880136 0.000267823)
(-0.000419707 0.000835628 0.000264559)
(-0.000602548 0.00076388 0.00024999)
(-0.000770604 0.000655265 0.000213806)
(-0.000903346 0.000513692 0.000143132)
(-0.000934435 0.000319999 3.63636e-05)
(-0.000968303 0.000126503 -1.30105e-05)
(-0.000863273 0.000258585 -4.21233e-05)
(-0.000628058 0.000244152 -5.82035e-05)
(-0.000463563 0.000214127 -5.81468e-05)
(-0.000320256 0.000179175 -5.32405e-05)
(-0.000205153 0.000150905 -4.70519e-05)
(-0.000109978 0.000132575 -4.09026e-05)
(-2.6375e-05 0.000122703 -2.62099e-05)
(8.47044e-06 0.000113406 9.10483e-06)
(-7.40932e-06 5.95362e-05 7.24068e-06)
(1.31209e-05 6.48364e-05 -1.54906e-05)
(6.59099e-05 6.93625e-05 -2.49239e-05)
(0.000124469 7.75359e-05 -2.88044e-05)
(0.000195112 9.07703e-05 -3.36968e-05)
(0.000282538 0.000109186 -4.12777e-05)
(0.000392783 0.000131785 -5.16342e-05)
(0.0005345 0.00015643 -6.26745e-05)
(0.000699932 0.000176562 -7.04203e-05)
(0.000898242 0.000193293 -6.74614e-05)
(0.00103153 0.000160332 -4.79447e-05)
(0.00108647 0.000250355 1.37803e-05)
(0.00105213 0.000367266 0.000126622)
(0.000897566 0.00046406 0.000196515)
(0.000701992 0.000539889 0.00023225)
(0.000491301 0.000589457 0.000241511)
(0.000292158 0.000620918 0.000241113)
(0.00010282 0.000636073 0.000239578)
(-8.20371e-05 0.000636716 0.000239607)
(-0.000271224 0.000622848 0.000241195)
(-0.000470102 0.000592669 0.000241682)
(-0.000680401 0.000544346 0.000232642)
(-0.00087606 0.000469677 0.000197524)
(-0.00103128 0.000373689 0.00012852)
(-0.00106868 0.00025728 1.7421e-05)
(-0.00101927 0.000165289 -4.57692e-05)
(-0.000888733 0.000199568 -6.71131e-05)
(-0.000688127 0.000184738 -7.27911e-05)
(-0.000515213 0.000166963 -6.78261e-05)
(-0.000361123 0.000145426 -5.98055e-05)
(-0.000233328 0.000127269 -5.21094e-05)
(-0.000126371 0.000114979 -4.4915e-05)
(-3.17471e-05 0.000108132 -2.84764e-05)
(8.36806e-06 0.000100269 1.06547e-05)
(-7.63211e-06 5.07427e-05 7.98767e-06)
(1.47448e-05 5.51078e-05 -1.63029e-05)
(7.17305e-05 5.83896e-05 -2.64236e-05)
(0.000134666 6.41181e-05 -3.06363e-05)
(0.000210036 7.31755e-05 -3.60038e-05)
(0.000302187 8.5285e-05 -4.44381e-05)
(0.000416914 9.92572e-05 -5.61484e-05)
(0.000560969 0.000113764 -6.94207e-05)
(0.000727899 0.000125033 -7.99231e-05)
(0.000914681 0.0001372 -8.01941e-05)
(0.00106413 0.000137514 -6.06898e-05)
(0.00115896 0.000192539 -2.3021e-06)
(0.00112678 0.000264836 0.000107855)
(0.000959456 0.000325107 0.000170738)
(0.00074941 0.00037306 0.000200886)
(0.000523469 0.000405313 0.000204432)
(0.000311197 0.000426226 0.000200548)
(0.000109376 0.000436465 0.00019726)
(-8.74032e-05 0.000437025 0.000197254)
(-0.000289097 0.000427891 0.000200525)
(-0.000501158 0.000408033 0.000204423)
(-0.000726799 0.000376744 0.000201015)
(-0.000937128 0.000329639 0.000171422)
(-0.00110535 0.000269951 0.000109414)
(-0.00114141 0.0001981 1.10452e-06)
(-0.00105189 0.000142654 -5.86752e-05)
(-0.000904247 0.000143399 -7.99893e-05)
(-0.000714968 0.000132634 -8.24458e-05)
(-0.000540091 0.000123302 -7.4853e-05)
(-0.000382789 0.000111467 -6.48011e-05)
(-0.000249076 0.000101263 -5.59457e-05)
(-0.000135642 9.41781e-05 -4.79138e-05)
(-3.40812e-05 9.00825e-05 -3.01025e-05)
(9.04081e-06 8.38956e-05 1.18689e-05)
(-7.90507e-06 4.0692e-05 8.57118e-06)
(1.57339e-05 4.41065e-05 -1.69067e-05)
(7.57286e-05 4.63806e-05 -2.75519e-05)
(0.000141642 5.02333e-05 -3.2005e-05)
(0.000219998 5.62743e-05 -3.77084e-05)
(0.000314781 6.42461e-05 -4.67468e-05)
(0.000431674 7.33325e-05 -5.94157e-05)
(0.000576454 8.29834e-05 -7.4159e-05)
(0.000744205 9.15057e-05 -8.63656e-05)
(0.000928926 0.000102563 -8.84364e-05)
(0.00108912 0.000112957 -6.86623e-05)
(0.00120288 0.000148561 -1.16775e-05)
(0.00117274 0.000193302 9.66826e-05)
(0.00099912 0.000232236 0.000155262)
(0.000780181 0.000263601 0.000181609)
(0.000544559 0.000285158 0.000181549)
(0.000323796 0.000299295 0.000175394)
(0.000113832 0.000306349 0.000170982)
(-9.07798e-05 0.000306885 0.000170958)
(-0.000300657 0.000300879 0.000175317)
(-0.000521294 0.00028772 0.000181444)
(-0.000756736 0.000267023 0.000181596)
(-0.000976146 0.000236378 0.000155769)
(-0.00115087 0.000197958 9.80658e-05)
(-0.00118528 0.000153643 -8.40431e-06)
(-0.00107663 0.000118045 -6.67557e-05)
(-0.000917749 0.000108369 -8.8317e-05)
(-0.000730236 9.83018e-05 -8.90115e-05)
(-0.000554041 9.12664e-05 -7.97961e-05)
(-0.000395272 8.37138e-05 -6.83977e-05)
(-0.000258292 7.75567e-05 -5.87023e-05)
(-0.000140985 7.33871e-05 -5.00501e-05)
(-3.49739e-05 7.09136e-05 -3.12299e-05)
(9.83364e-06 6.61538e-05 1.27917e-05)
(-8.18612e-06 2.98275e-05 8.96905e-06)
(1.62326e-05 3.22609e-05 -1.73426e-05)
(7.82058e-05 3.36905e-05 -2.83564e-05)
(0.000146001 3.60506e-05 -3.29676e-05)
(0.000226155 3.97738e-05 -3.88787e-05)
(0.000322419 4.47309e-05 -4.82809e-05)
(0.000440529 5.05222e-05 -6.15093e-05)
(0.000585956 5.7069e-05 -7.70468e-05)
(0.000755069 6.38559e-05 -9.01173e-05)
(0.000941057 7.33564e-05 -9.29419e-05)
(0.00110792 8.47616e-05 -7.32483e-05)
(0.00123118 0.00010777 -1.68932e-05)
(0.00120229 0.00013561 9.15115e-05)
(0.00102474 0.000160275 0.000148453)
(0.00080028 0.000180311 0.000173093)
(0.000558648 0.000194533 0.000171396)
(0.000332371 0.000204026 0.000164223)
(0.000117 0.000208921 0.000159312)
(-9.28875e-05 0.000209474 0.000159284)
(-0.000308228 0.000205653 0.000164131)
(-0.00053449 0.000197137 0.000171262)
(-0.000776098 0.000183744 0.000173034)
(-0.00100122 0.000164349 0.000148896)
(-0.00118002 0.000140113 9.28443e-05)
(-0.00121342 0.000112573 -1.34879e-05)
(-0.0010952 8.96115e-05 -7.14049e-05)
(-0.000929339 7.86043e-05 -9.29207e-05)
(-0.000740289 6.97088e-05 -9.2893e-05)
(-0.000562326 6.39005e-05 -8.28643e-05)
(-0.000402351 5.87762e-05 -7.07443e-05)
(-0.000263381 5.49723e-05 -6.05569e-05)
(-0.000143779 5.25542e-05 -5.15151e-05)
(-3.50697e-05 5.11102e-05 -3.20187e-05)
(1.05954e-05 4.77439e-05 1.33809e-05)
(-8.3978e-06 1.8566e-05 9.19354e-06)
(1.64521e-05 2.00264e-05 -1.76368e-05)
(7.95928e-05 2.07609e-05 -2.88764e-05)
(0.000148508 2.19482e-05 -3.35784e-05)
(0.000229763 2.38928e-05 -3.96029e-05)
(0.000327013 2.66303e-05 -4.91992e-05)
(0.000446082 3.01266e-05 -6.27208e-05)
(0.000592388 3.45324e-05 -7.86534e-05)
(0.000762963 3.98915e-05 -9.21359e-05)
(0.000950733 4.72636e-05 -9.52635e-05)
(0.00112139 5.64893e-05 -7.55614e-05)
(0.00124912 7.01379e-05 -1.9186e-05)
(0.00122072 8.55072e-05 8.98345e-05)
(0.00104085 9.93924e-05 0.000146554)
(0.000813052 0.000110759 0.000170739)
(0.000567789 0.000119176 0.000168529)
(0.000338049 0.000124921 0.000161021)
(0.000119256 0.000128067 0.000155947)
(-9.40195e-05 0.00012867 0.000155921)
(-0.000312855 0.000126695 0.000160933)
(-0.000542721 0.000121994 0.0001684)
(-0.000788158 0.000114433 0.000170683)
(-0.00101685 0.000103664 0.000146991)
(-0.0011982 9.0105e-05 9.11399e-05)
(-0.00123129 7.48179e-05 -1.59083e-05)
(-0.00110858 6.10737e-05 -7.37994e-05)
(-0.000938753 5.19138e-05 -9.53392e-05)
(-0.000747729 4.47357e-05 -9.50375e-05)
(-0.000568023 3.98093e-05 -8.463e-05)
(-0.000406806 3.60937e-05 -7.21569e-05)
(-0.000266403 3.35964e-05 -6.1713e-05)
(-0.000145337 3.21431e-05 -5.24565e-05)
(-3.50173e-05 3.1301e-05 -3.25551e-05)
(1.11094e-05 2.92433e-05 1.37028e-05)
(-8.51897e-06 7.19112e-06 9.24623e-06)
(1.64695e-05 7.66866e-06 -1.78057e-05)
(8.00532e-05 7.74252e-06 -2.91362e-05)
(0.000149443 7.83638e-06 -3.38693e-05)
(0.000231254 8.13223e-06 -3.99264e-05)
(0.000329164 8.81717e-06 -4.95747e-05)
(0.000449067 1.01932e-05 -6.31701e-05)
(0.00059643 1.25543e-05 -7.91962e-05)
(0.000768338 1.6351e-05 -9.27722e-05)
(0.000957556 2.13822e-05 -9.59629e-05)
(0.00112965 2.77829e-05 -7.62774e-05)
(0.00125825 3.3284e-05 -1.98141e-05)
(0.00122959 3.75438e-05 8.96498e-05)
(0.00104863 4.15548e-05 0.000146674)
(0.000819357 4.4855e-05 0.000170995)
(0.000572525 4.77873e-05 0.000168833)
(0.000341156 4.99964e-05 0.000161333)
(0.000120724 5.15035e-05 0.000156259)
(-9.42361e-05 5.21911e-05 0.000156237)
(-0.000314803 5.20141e-05 0.000161251)
(-0.000546474 5.09777e-05 0.000168711)
(-0.000793739 4.89831e-05 0.000170946)
(-0.00102421 4.62706e-05 0.000147108)
(-0.00120697 4.24869e-05 9.09306e-05)
(-0.00124053 3.80586e-05 -1.66277e-05)
(-0.00111698 3.2179e-05 -7.46106e-05)
(-0.000945634 2.54879e-05 -9.61568e-05)
(-0.000753058 2.02237e-05 -9.58123e-05)
(-0.000571884 1.62975e-05 -8.5329e-05)
(-0.000409457 1.38759e-05 -7.27798e-05)
(-0.000268027 1.25014e-05 -6.22731e-05)
(-0.00014611 1.18529e-05 -5.29528e-05)
(-3.50238e-05 1.15326e-05 -3.28856e-05)
(1.13323e-05 1.08006e-05 1.37754e-05)
(-8.55151e-06 -3.99769e-06 9.12834e-06)
(1.62815e-05 -4.50531e-06 -1.78513e-05)
(7.9583e-05 -5.13437e-06 -2.91393e-05)
(0.000148799 -6.22541e-06 -3.38465e-05)
(0.000230608 -7.7375e-06 -3.98636e-05)
(0.000328832 -9.34154e-06 -4.94314e-05)
(0.000449414 -1.03867e-05 -6.28983e-05)
(0.000597966 -1.03434e-05 -7.87204e-05)
(0.000771116 -8.13267e-06 -9.20747e-05)
(0.00096158 -5.10011e-06 -9.51012e-05)
(0.001133 -3.00152e-07 -7.54965e-05)
(0.00125891 -2.5684e-06 -1.90018e-05)
(0.00122904 -1.01044e-05 9.06568e-05)
(0.00104811 -1.658e-05 0.000148402)
(0.000819189 -2.18878e-05 0.000173364)
(0.000572854 -2.4722e-05 0.000171757)
(0.000341707 -2.62094e-05 0.000164571)
(0.00012143 -2.63803e-05 0.00015965)
(-9.34975e-05 -2.55563e-05 0.000159628)
(-0.00031402 -2.37876e-05 0.000164496)
(-0.000545682 -2.08967e-05 0.000171638)
(-0.000792776 -1.69451e-05 0.000173304)
(-0.00102329 -1.10009e-05 0.000148794)
(-0.00120643 -4.38395e-06 9.18621e-05)
(-0.00124154 2.65282e-06 -1.5929e-05)
(-0.00112076 4.12675e-06 -7.39735e-05)
(-0.00095005 -1.32338e-06 -9.54583e-05)
(-0.000756218 -5.00284e-06 -9.52794e-05)
(-0.000573805 -7.88409e-06 -8.50075e-05)
(-0.000410233 -8.73704e-06 -7.26444e-05)
(-0.000268211 -8.70048e-06 -6.22576e-05)
(-0.000146072 -8.32603e-06 -5.30168e-05)
(-3.50714e-05 -8.00564e-06 -3.3018e-05)
(1.12752e-05 -7.39624e-06 1.36006e-05)
(-8.52175e-06 -1.47053e-05 8.83631e-06)
(1.58077e-05 -1.62193e-05 -1.77629e-05)
(7.80154e-05 -1.77009e-05 -2.887e-05)
(0.000146272 -2.02952e-05 -3.34885e-05)
(0.000227334 -2.41707e-05 -3.93756e-05)
(0.000325287 -2.89176e-05 -4.87056e-05)
(0.000446178 -3.35275e-05 -6.17958e-05)
(0.000596075 -3.70003e-05 -7.70627e-05)
(0.000770656 -3.69414e-05 -8.98e-05)
(0.000963207 -3.52583e-05 -9.22753e-05)
(0.00113199 -2.81631e-05 -7.26956e-05)
(0.00125024 -3.87513e-05 -1.58208e-05)
(0.00121761 -6.14932e-05 9.42249e-05)
(0.00103809 -8.16322e-05 0.000153767)
(0.000811683 -9.81789e-05 0.000180412)
(0.00056828 -0.000108255 0.000180355)
(0.000339454 -0.00011425 0.000174079)
(0.000121346 -0.000116395 0.000169584)
(-9.16382e-05 -0.000115358 0.000169543)
(-0.000310122 -0.000111189 0.000173941)
(-0.000539719 -0.000103401 0.000180124)
(-0.000784297 -9.18626e-05 0.000180191)
(-0.00101282 -7.45223e-05 0.000153945)
(-0.00119517 -5.42822e-05 9.5191e-05)
(-0.00123353 -3.2529e-05 -1.29589e-05)
(-0.00112046 -2.33965e-05 -7.14175e-05)
(-0.000952329 -3.14557e-05 -9.29022e-05)
(-0.000756483 -3.41495e-05 -9.32494e-05)
(-0.000572802 -3.53689e-05 -8.35504e-05)
(-0.000408167 -3.34336e-05 -7.16806e-05)
(-0.000266217 -3.08496e-05 -6.16122e-05)
(-0.000144749 -2.86374e-05 -5.26027e-05)
(-3.49322e-05 -2.72327e-05 -3.29246e-05)
(1.09965e-05 -2.51659e-05 1.31609e-05)
(-8.50808e-06 -2.45017e-05 8.3583e-06)
(1.48433e-05 -2.69879e-05 -1.75208e-05)
(7.49386e-05 -2.94525e-05 -2.83006e-05)
(0.000141123 -3.38714e-05 -3.27563e-05)
(0.000220177 -4.07211e-05 -3.83985e-05)
(0.000316557 -4.96588e-05 -4.72717e-05)
(0.000436567 -5.94228e-05 -5.96229e-05)
(0.000587462 -6.83946e-05 -7.37188e-05)
(0.000764078 -7.19655e-05 -8.50877e-05)
(0.000962588 -7.17164e-05 -8.60588e-05)
(0.00112689 -5.28833e-05 -6.68665e-05)
(0.00122856 -7.33055e-05 -9.24912e-06)
(0.00119025 -0.000120607 0.000102025)
(0.00101396 -0.000160604 0.000165262)
(0.000793431 -0.000192981 0.00019522)
(0.00055681 -0.000213094 0.000198399)
(0.000333381 -0.000225278 0.000194096)
(0.00012022 -0.000230107 0.000190538)
(-8.82496e-05 -0.000228733 0.000190443)
(-0.000301927 -0.000221187 0.000193791)
(-0.0005264 -0.000206536 0.000197879)
(-0.000764705 -0.000184288 0.000194593)
(-0.00098802 -0.000150724 0.000164934)
(-0.00116806 -0.000110515 0.000102427)
(-0.00121294 -6.50523e-05 -7.17107e-06)
(-0.00111636 -4.72363e-05 -6.6033e-05)
(-0.000952492 -6.71971e-05 -8.71382e-05)
(-0.000750877 -6.87897e-05 -8.89152e-05)
(-0.000565483 -6.68731e-05 -8.04712e-05)
(-0.000400361 -6.01717e-05 -6.96312e-05)
(-0.000259984 -5.34565e-05 -6.01789e-05)
(-0.000140858 -4.83861e-05 -5.15986e-05)
(-3.39695e-05 -4.53958e-05 -3.25413e-05)
(1.072e-05 -4.1855e-05 1.23918e-05)
(-8.53868e-06 -3.29529e-05 7.71984e-06)