/*--------------------------------*- C++ -*----------------------------------*\
| =========                 |                                                 |
| \\      /  F ield         | OpenFOAM: The Open Source CFD Toolbox           |
|  \\    /   O peration     | Version:  2112                                  |
|   \\  /    A nd           | Website:  www.openfoam.com                      |
|    \\/     M anipulation  |                                                 |
\*---------------------------------------------------------------------------*/
FoamFile
{
    version     2.0;
    format      ascii;
    arch        "LSB;label=32;scalar=64";
    class       volScalarField;
    location    "0.3";
    object      epsilon;
}
// * * * * * * * * * * * * * * * * * * * * * * * * * * * * * * * * * * * * * //

dimensions      [0 2 -3 0 0 0 0];

internalField   nonuniform List<scalar> 
64906
(
0.171633
0.171401
0.171268
0.171247
0.171245
0.171245
0.171246
0.171246
0.171247
0.171247
0.171248
0.171248
0.171249
0.171249
0.17125
0.17125
0.17125
0.17125
0.17125
0.17125
0.17125
0.17125
0.171249
0.171249
0.171248
0.171248
0.171247
0.171247
0.171246
0.171246
0.171248
0.171269
0.171402
0.171634
0.171401
0.17686
0.176633
0.176504
0.176487
0.176486
0.176486
0.176487
0.176488
0.176489
0.17649
0.176491
0.176492
0.176493
0.176494
0.176494
0.176495
0.176495
0.176495
0.176495
0.176494
0.176494
0.176493
0.176492
0.176491
0.17649
0.176489
0.176488
0.176488
0.176488
0.176505
0.176635
0.176862
0.171403
0.171269
0.176634
0.176248
0.176082
0.176061
0.17606
0.176061
0.176062
0.176063
0.176065
0.176066
0.176068
0.176069
0.176071
0.176072
0.176073
0.176073
0.176074
0.176074
0.176073
0.176073
0.176072
0.176071
0.176069
0.176068
0.176066
0.176065
0.176064
0.176063
0.176063
0.176084
0.176249
0.176636
0.171271
0.171248
0.176505
0.176083
0.175912
0.17589
0.175889
0.17589
0.175892
0.175893
0.175895
0.175898
0.1759
0.175902
0.175904
0.175906
0.175907
0.175908
0.175909
0.175909
0.175908
0.175907
0.175906
0.175904
0.175902
0.1759
0.175898
0.175896
0.175894
0.175892
0.175893
0.175914
0.176085
0.176507
0.17125
0.171246
0.176488
0.176062
0.175891
0.175869
0.175869
0.17587
0.175872
0.175874
0.175877
0.17588
0.175884
0.175887
0.17589
0.175893
0.175895
0.175896
0.175897
0.175897
0.175896
0.175895
0.175893
0.17589
0.175887
0.175884
0.175881
0.175877
0.175875
0.175873
0.175873
0.175894
0.176065
0.176491
0.171249
0.171247
0.176487
0.176061
0.17589
0.175869
0.175869
0.17587
0.175873
0.175876
0.17588
0.175886
0.175891
0.175895
0.175899
0.175903
0.175906
0.175908
0.175909
0.175909
0.175908
0.175906
0.175903
0.1759
0.175896
0.175891
0.175886
0.175881
0.175877
0.175874
0.175873
0.175894
0.176065
0.176491
0.17125
0.171248
0.176488
0.176062
0.175891
0.17587
0.175871
0.175873
0.175876
0.175882
0.175891
0.175907
0.175908
0.17591
0.175915
0.17592
0.175924
0.175926
0.175928
0.175928
0.175927
0.175924
0.17592
0.175915
0.17591
0.175908
0.175908
0.175892
0.175882
0.175877
0.175876
0.175896
0.176067
0.176492
0.171251
0.171249
0.176489
0.176063
0.175893
0.175872
0.175873
0.175876
0.175882
0.175897
0.175949
0.176022
0.175975
0.17594
0.175939
0.175944
0.175949
0.175953
0.175955
0.175955
0.175953
0.175949
0.175945
0.175939
0.175941
0.175975
0.176022
0.175949
0.175898
0.175883
0.17588
0.175899
0.176069
0.176494
0.171253
0.171249
0.17649
0.176065
0.175894
0.175875
0.175876
0.175881
0.175897
0.175975
0.176232
0.176169
0.176275
0.17604
0.17598
0.17598
0.175984
0.175989
0.175991
0.175991
0.175989
0.175985
0.17598
0.175981
0.176041
0.176275
0.176169
0.176233
0.175976
0.175898
0.175884
0.175902
0.176071
0.176496
0.171254
0.17125
0.176491
0.176066
0.175896
0.175877
0.175879
0.17589
0.175947
0.176231
0.176334
0.170769
0.176374
0.176289
0.176029
0.175991
0.175991
0.175996
0.175998
0.175998
0.175996
0.175992
0.175991
0.17603
0.176289
0.176374
0.170769
0.176335
0.176232
0.175948
0.175893
0.175905
0.176073
0.176497
0.171255
0.17125
0.176492
0.176067
0.175898
0.175879
0.175884
0.175904
0.176017
0.176162
0.170763
0.17069
0.175916
0.175791
0.1757
0.175692
0.175695
0.175697
0.175697
0.175695
0.175692
0.1757
0.175791
0.175916
0.170691
0.170764
0.176163
0.176018
0.175907
0.175909
0.176075
0.176499
0.171256
0.17125
0.176492
0.176068
0.175899
0.175882
0.175887
0.1759
0.175963
0.176256
0.176372
0.170779
0.176328
0.176259
0.175994
0.175951
0.175945
0.175946
0.175946
0.175946
0.175946
0.175945
0.17595
0.175994
0.176258
0.176328
0.170778
0.176372
0.176256
0.175963
0.175903
0.175911
0.176077
0.1765
0.171256
0.17125
0.176493
0.176069
0.1759
0.175884
0.175889
0.175899
0.175922
0.176009
0.176278
0.176197
0.176275
0.176029
0.175954
0.175941
0.175936
0.175934
0.175932
0.175932
0.175933
0.175936
0.175941
0.175953
0.176028
0.176275
0.176195
0.176278
0.176009
0.175922
0.175901
0.175913
0.176079
0.1765
0.171256
0.17125
0.176493
0.176069
0.175902
0.175885
0.175891
0.175901
0.175915
0.17594
0.176001
0.176069
0.176004
0.175951
0.175932
0.175921
0.175913
0.175906
0.175903
0.175903
0.175906
0.175912
0.175921
0.175931
0.17595
0.176003
0.176068
0.176001
0.17594
0.175915
0.175903
0.175915
0.17608
0.176501
0.171256
0.17125
0.176493
0.17607
0.175902
0.175887
0.175893
0.175903
0.175917
0.175933
0.175953
0.175969
0.175959
0.175941
0.175928
0.175915
0.175902
0.175892
0.175885
0.175885
0.175891
0.175901
0.175914
0.175927
0.17594
0.175958
0.175968
0.175953
0.175932
0.175916
0.175905
0.175917
0.176081
0.176501
0.171256
0.17125
0.176493
0.17607
0.175903
0.175887
0.175894
0.175905
0.175919
0.175934
0.175951
0.17596
0.175959
0.175943
0.175929
0.175913
0.175897
0.175883
0.175873
0.175873
0.175882
0.175896
0.175912
0.175928
0.175941
0.175958
0.175958
0.17595
0.175933
0.175918
0.175906
0.175918
0.176081
0.176501
0.171255
0.171249
0.176493
0.17607
0.175904
0.175888
0.175895
0.175906
0.17592
0.175936
0.175952
0.175961
0.175962
0.175944
0.17593
0.175913
0.175894
0.175877
0.175864
0.175863
0.175876
0.175893
0.175911
0.175928
0.175943
0.175961
0.17596
0.175951
0.175935
0.175919
0.175907
0.175918
0.176082
0.176501
0.171254
0.171249
0.176493
0.176071
0.175904
0.175889
0.175896
0.175907
0.175921
0.175937
0.175954
0.175963
0.175964
0.175946
0.17593
0.175912
0.175893
0.175873
0.175858
0.175857
0.175872
0.175891
0.175911
0.175929
0.175944
0.175962
0.175962
0.175953
0.175936
0.17592
0.175908
0.175919
0.176082
0.176501
0.171254
0.171248
0.176493
0.176071
0.175904
0.175889
0.175896
0.175907
0.175921
0.175937
0.175954
0.175963
0.175965
0.175946
0.17593
0.175912
0.175892
0.175872
0.175855
0.175855
0.175871
0.175891
0.175911
0.175929
0.175944
0.175963
0.175962
0.175953
0.175936
0.17592
0.175908
0.175919
0.176082
0.176501
0.171253
0.171249
0.176493
0.176071
0.175904
0.175888
0.175896
0.175907
0.175921
0.175937
0.175954
0.175963
0.175964
0.175945
0.17593
0.175912
0.175893
0.175874
0.175858
0.175858
0.175872
0.175891
0.175911
0.175929
0.175944
0.175962
0.175961
0.175953
0.175936
0.17592
0.175908
0.175919
0.176082
0.176501
0.171253
0.171249
0.176493
0.17607
0.175903
0.175888
0.175895
0.175906
0.17592
0.175936
0.175953
0.175962
0.175962
0.175944
0.175929
0.175912
0.175894
0.175878
0.175866
0.175865
0.175876
0.175893
0.175911
0.175928
0.175942
0.17596
0.175961
0.175952
0.175935
0.175919
0.175907
0.175918
0.176082
0.176501
0.171254
0.171249
0.176493
0.17607
0.175903
0.175887
0.175894
0.175905
0.175918
0.175935
0.175956
0.175973
0.175963
0.175943
0.175928
0.175913
0.175898
0.175885
0.175876
0.175876
0.175883
0.175896
0.175912
0.175927
0.175941
0.175962
0.175972
0.175956
0.175934
0.175918
0.175906
0.175917
0.176081
0.176501
0.171254
0.171249
0.176492
0.17607
0.175902
0.175886
0.175892
0.175903
0.175917
0.175943
0.176005
0.176074
0.176009
0.175952
0.175931
0.175918
0.175907
0.175897
0.175892
0.175892
0.175896
0.175905
0.175916
0.175929
0.175951
0.176008
0.176074
0.176005
0.175943
0.175917
0.175904
0.175916
0.17608
0.176501
0.171255
0.17125
0.176492
0.176069
0.175901
0.175885
0.17589
0.175901
0.175925
0.176012
0.176282
0.176204
0.176282
0.17603
0.175952
0.175935
0.175927
0.175922
0.175919
0.175919
0.175921
0.175926
0.175934
0.17595
0.176028
0.176281
0.176204
0.176282
0.176012
0.175925
0.175903
0.175915
0.176079
0.1765
0.171255
0.17125
0.176492
0.176068
0.1759
0.175883
0.175888
0.175902
0.175965
0.176259
0.176376
0.170787
0.176332
0.176257
0.175989
0.175942
0.175933
0.175931
0.175931
0.17593
0.17593
0.175932
0.17594
0.175987
0.176255
0.176331
0.170787
0.176376
0.176259
0.175966
0.175905
0.175913
0.176078
0.1765
0.171255
0.171249
0.176491
0.176067
0.175898
0.17588
0.175885
0.175906
0.176018
0.176162
0.170762
0.170684
0.175908
0.175782
0.175687
0.175677
0.175677
0.175677
0.175677
0.175676
0.175675
0.175685
0.175779
0.175906
0.170682
0.170763
0.176163
0.176019
0.175909
0.17591
0.176076
0.176499
0.171255
0.171249
0.176491
0.176066
0.175897
0.175878
0.175882
0.175893
0.17595
0.176235
0.176341
0.17078
0.176376
0.176287
0.176018
0.175972
0.175967
0.175968
0.175969
0.175968
0.175967
0.175965
0.175968
0.176013
0.17628
0.176373
0.170779
0.176342
0.176236
0.175951
0.175896
0.175907
0.176074
0.176498
0.171254
0.171249
0.17649
0.176065
0.175895
0.175876
0.175879
0.175885
0.175902
0.175982
0.176241
0.176181
0.176281
0.176039
0.175966
0.175956
0.175955
0.175955
0.175955
0.175955
0.175954
0.175952
0.175952
0.175959
0.176029
0.176277
0.17618
0.176242
0.175983
0.175903
0.175888
0.175904
0.176072
0.176496
0.171253
0.171248
0.17649
0.176064
0.175894
0.175875
0.175876
0.175881
0.175888
0.175905
0.175958
0.176033
0.175981
0.175937
0.175912
0.175907
0.175905
0.175905
0.175904
0.175904
0.175903
0.175903
0.175903
0.175905
0.175917
0.175975
0.176031
0.175959
0.175906
0.175889
0.175884
0.175902
0.176071
0.176495
0.171252
0.171248
0.17649
0.176065
0.175895
0.175875
0.175876
0.17588
0.175885
0.175892
0.175904
0.175921
0.175919
0.175914
0.175901
0.1759
0.1759
0.1759
0.1759
0.1759
0.175899
0.175899
0.175898
0.175898
0.175899
0.175914
0.17592
0.175905
0.175894
0.175887
0.175884
0.175902
0.176071
0.176495
0.171252
0.171249
0.176507
0.176086
0.175916
0.175896
0.175897
0.1759
0.175904
0.175909
0.175916
0.175923
0.175928
0.175931
0.175928
0.175928
0.175929
0.175929
0.17593
0.17593
0.175929
0.175928
0.175927
0.175926
0.175925
0.175927
0.175924
0.175917
0.175911
0.175906
0.175904
0.175922
0.176091
0.176511
0.171253
0.171271
0.176636
0.176251
0.176087
0.176067
0.176068
0.17607
0.176074
0.176078
0.176083
0.176088
0.176093
0.176097
0.176097
0.176098
0.176099
0.1761
0.176101
0.176101
0.1761
0.176099
0.176098
0.176096
0.176095
0.176094
0.17609
0.176085
0.17608
0.176076
0.176074
0.176092
0.176256
0.17664
0.171274
0.171403
0.176863
0.176637
0.176508
0.176493
0.176493
0.176496
0.176499
0.176503
0.176507
0.176511
0.176515
0.176518
0.176519
0.17652
0.17652
0.17652
0.17652
0.17652
0.17652
0.17652
0.176519
0.176518
0.176517
0.176516
0.176512
0.176508
0.176504
0.176501
0.176499
0.176513
0.176641
0.176867
0.171406
0.171635
0.171403
0.171272
0.171251
0.17125
0.171252
0.171254
0.171256
0.171259
0.171262
0.171265
0.171267
0.171269
0.17127
0.17127
0.171269
0.171268
0.171267
0.171266
0.171267
0.171268
0.171268
0.171269
0.171269
0.171268
0.171266
0.171263
0.17126
0.171257
0.171255
0.171255
0.171275
0.171406
0.171637
0.199708
0.201211
0.200873
0.200772
0.20076
0.200759
0.200759
0.200759
0.20076
0.20076
0.20076
0.200761
0.200761
0.200761
0.200761
0.200761
0.200762
0.200762
0.200762
0.200762
0.200761
0.200761
0.200761
0.200761
0.200761
0.20076
0.20076
0.20076
0.200759
0.20076
0.200773
0.200874
0.201212
0.199709
0.201211
0.147757
0.144032
0.143575
0.143525
0.143521
0.143521
0.143521
0.143522
0.143522
0.143522
0.143523
0.143523
0.143524
0.143524
0.143525
0.143525
0.143525
0.143525
0.143525
0.143525
0.143524
0.143524
0.143523
0.143523
0.143522
0.143522
0.143522
0.143522
0.143526
0.143576
0.144033
0.147757
0.201212
0.200874
0.144032
0.139536
0.138967
0.138904
0.138899
0.138899
0.138899
0.138899
0.138899
0.138899
0.1389
0.1389
0.1389
0.1389
0.138901
0.138901
0.138901
0.138901
0.138901
0.138901
0.1389
0.1389
0.1389
0.1389
0.138899
0.138899
0.138899
0.138899
0.138905
0.138967
0.139537
0.144032
0.200875
0.200773
0.143575
0.138967
0.13838
0.138315
0.13831
0.138309
0.138309
0.13831
0.13831
0.13831
0.13831
0.138311
0.138311
0.138311
0.138311
0.138311
0.138311
0.138311
0.138311
0.138311
0.138311
0.138311
0.138311
0.13831
0.13831
0.13831
0.13831
0.13831
0.138316
0.13838
0.138967
0.143576
0.200775
0.200761
0.143525
0.138904
0.138315
0.138251
0.138245
0.138245
0.138245
0.138245
0.138245
0.138246
0.138246
0.138246
0.138246
0.138247
0.138247
0.138247
0.138247
0.138247
0.138247
0.138247
0.138247
0.138246
0.138246
0.138246
0.138246
0.138245
0.138245
0.138245
0.138251
0.138316
0.138905
0.143526
0.200763
0.20076
0.143521
0.138899
0.13831
0.138245
0.138239
0.138239
0.138239
0.13824
0.138241
0.138244
0.138242
0.138242
0.138242
0.138242
0.138242
0.138242
0.138242
0.138242
0.138242
0.138242
0.138242
0.138242
0.138242
0.138242
0.138244
0.138241
0.13824
0.13824
0.138245
0.13831
0.138899
0.143521
0.200763
0.200761
0.143521
0.138899
0.138309
0.138245
0.138239
0.138239
0.13824
0.138243
0.138257
0.138285
0.13826
0.138247
0.138244
0.138245
0.138245
0.138245
0.138245
0.138245
0.138245
0.138245
0.138245
0.138245
0.138247
0.13826
0.138285
0.138257
0.138243
0.13824
0.138245
0.13831
0.138899
0.143522
0.200764
0.200762
0.143521
0.138899
0.13831
0.138245
0.138239
0.13824
0.138244
0.138274
0.138407
0.138691
0.138415
0.138288
0.138261
0.138258
0.138257
0.138258
0.138258
0.138258
0.138258
0.138257
0.138258
0.138261
0.138288
0.138415
0.138691
0.138407
0.138274
0.138245
0.138246
0.13831
0.138899
0.143522
0.200765
0.200762
0.143521
0.138899
0.13831
0.138245
0.13824
0.138243
0.138274
0.138486
0.139499
0.142488
0.139526
0.138544
0.138344
0.138317
0.138313
0.138313
0.138313
0.138313
0.138313
0.138313
0.138317
0.138344
0.138544
0.139526
0.142488
0.139499
0.138486
0.138275
0.138249
0.138311
0.1389
0.143523
0.200766
0.200762
0.143522
0.138899
0.13831
0.138245
0.138241
0.138257
0.138406
0.139498
0.146338
0.203444
0.146335
0.139621
0.138583
0.138447
0.138431
0.138429
0.138428
0.138428
0.138429
0.138431
0.138447
0.138583
0.139621
0.146334
0.203444
0.146338
0.139498
0.138407
0.138264
0.138312
0.1389
0.143524
0.200766
0.200763
0.143522
0.138899
0.13831
0.138246
0.138244
0.138285
0.138689
0.142482
0.203447
0.202549
0.142266
0.138649
0.138278
0.138239
0.138236
0.138235
0.138235
0.138236
0.138239
0.138278
0.138649
0.142265
0.20255
0.203448
0.142482
0.13869
0.138291
0.138315
0.138901
0.143525
0.200767
0.200763
0.143523
0.1389
0.13831
0.138246
0.138242
0.138258
0.138408
0.139505
0.146382
0.203479
0.146399
0.139648
0.138602
0.138474
0.138447
0.138442
0.138442
0.138442
0.138442
0.138447
0.138474
0.138602
0.139648
0.146398
0.203478
0.146383
0.139505
0.138409
0.138265
0.138313
0.138901
0.143526
0.200767
0.200763
0.143523
0.1389
0.13831
0.138246
0.138241
0.138245
0.138277
0.138491
0.139512
0.142511
0.139547
0.138574
0.138373
0.138348
0.138342
0.13834
0.13834
0.13834
0.13834
0.138342
0.138348
0.138373
0.138573
0.139547
0.142512
0.139512
0.138491
0.138277
0.138251
0.138312
0.138902
0.143526
0.200767
0.200762
0.143524
0.1389
0.138311
0.138246
0.138241
0.138242
0.138247
0.138278
0.138413
0.1387
0.138425
0.138316
0.138292
0.138289
0.138288
0.138287
0.138287
0.138287
0.138287
0.138288
0.138289
0.138292
0.138316
0.138425
0.1387
0.138413
0.138278
0.138248
0.138248
0.138312
0.138902
0.143527
0.200766
0.200762
0.143524
0.1389
0.138311
0.138246
0.138241
0.138242
0.138243
0.138248
0.138263
0.138292
0.138269
0.138276
0.138276
0.138276
0.138275
0.138275
0.138274
0.138274
0.138275
0.138275
0.138276
0.138276
0.138276
0.138269
0.138292
0.138263
0.138248
0.138244
0.138248
0.138312
0.138902
0.143528
0.200766
0.200762
0.143524
0.1389
0.138311
0.138246
0.138241
0.138242
0.138243
0.138245
0.138247
0.138251
0.138253
0.138271
0.138274
0.138274
0.138273
0.138272
0.138271
0.138271
0.138272
0.138273
0.138274
0.138274
0.138271
0.138253
0.138251
0.138247
0.138245
0.138243
0.138248
0.138312
0.138902
0.143528
0.200765
0.200761
0.143524
0.1389
0.138311
0.138246
0.138241
0.138242
0.138243
0.138244
0.138246
0.138248
0.138251
0.138271
0.138274
0.138274
0.138273
0.138271
0.13827
0.13827
0.138271
0.138272
0.138274
0.138274
0.13827
0.138251
0.138248
0.138246
0.138244
0.138243
0.138248
0.138312
0.138902
0.143528
0.200765
0.200761
0.143524
0.1389
0.138311
0.138246
0.138241
0.138242
0.138243
0.138245
0.138246
0.138248
0.138251
0.138271
0.138274
0.138274
0.138272
0.138271
0.138269
0.138269
0.138271
0.138272
0.138273
0.138274
0.13827
0.138251
0.138247
0.138246
0.138244
0.138243
0.138248
0.138312
0.138902
0.143528
0.200764
0.200761
0.143524
0.1389
0.138311
0.138246
0.138241
0.138242
0.138243
0.138245
0.138246
0.138248
0.138252
0.138271
0.138274
0.138274
0.138272
0.138271
0.138269
0.138269
0.13827
0.138272
0.138273
0.138274
0.13827
0.138251
0.138248
0.138246
0.138245
0.138243
0.138248
0.138312
0.138902
0.143528
0.200764
0.200761
0.143524
0.1389
0.138311
0.138246
0.138241
0.138242
0.138243
0.138245
0.138246
0.138248
0.138252
0.138271
0.138274
0.138274
0.138272
0.138271
0.138269
0.138269
0.138271
0.138272
0.138273
0.138274
0.13827
0.138251
0.138248
0.138246
0.138245
0.138243
0.138248
0.138312
0.138902
0.143528
0.200764
0.200761
0.143524
0.1389
0.138311
0.138246
0.138241
0.138242
0.138243
0.138245
0.138248
0.138251
0.138253
0.138271
0.138274
0.138274
0.138273
0.138272
0.13827
0.13827
0.138271
0.138273
0.138274
0.138274
0.138271
0.138253
0.138251
0.138247
0.138245
0.138243
0.138248
0.138312
0.138902
0.143528
0.200764
0.200761
0.143524
0.1389
0.138311
0.138246
0.138241
0.138242
0.138243
0.138248
0.138263
0.138292
0.13827
0.138276
0.138276
0.138276
0.138275
0.138274
0.138273
0.138273
0.138274
0.138275
0.138276
0.138276
0.138276
0.138269
0.138292
0.138263
0.138248
0.138244
0.138248
0.138312
0.138902
0.143528
0.200765
0.200761
0.143524
0.1389
0.138311
0.138246
0.138241
0.138242
0.138248
0.138279
0.138413
0.138699
0.138425
0.138316
0.138291
0.138288
0.138287
0.138286
0.138286
0.138286
0.138286
0.138287
0.138288
0.138291
0.138316
0.138425
0.138699
0.138413
0.138279
0.138248
0.138248
0.138312
0.138902
0.143527
0.200765
0.200762
0.143524
0.1389
0.13831
0.138246
0.138241
0.138245
0.138277
0.138491
0.139511
0.142508
0.139546
0.138573
0.138372
0.138347
0.138341
0.138339
0.138338
0.138338
0.138339
0.13834
0.138347
0.138372
0.138573
0.139546
0.142508
0.139511
0.138491
0.138277
0.138251
0.138312
0.138902
0.143527
0.200765
0.200762
0.143523
0.1389
0.13831
0.138246
0.138242
0.138258
0.138408
0.139505
0.146379
0.203487
0.146397
0.139649
0.138601
0.138473
0.138446
0.138441
0.13844
0.13844
0.138441
0.138446
0.138473
0.138601
0.139648
0.146395
0.203487
0.146378
0.139505
0.138409
0.138265
0.138313
0.138901
0.143526
0.200766
0.200762
0.143523
0.1389
0.13831
0.138246
0.138244
0.138285
0.138689
0.142482
0.203443
0.202539
0.142271
0.138649
0.138277
0.138237
0.138233
0.138233
0.138233
0.138233
0.138237
0.138276
0.138649
0.142271
0.202536
0.203442
0.142482
0.13869
0.138291
0.138315
0.138901
0.143525
0.200765
0.200762
0.143522
0.138899
0.13831
0.138245
0.138241
0.138257
0.138406
0.139498
0.146338
0.203457
0.146346
0.139624
0.138583
0.138445
0.138429
0.138426
0.138426
0.138426
0.138426
0.138429
0.138445
0.138582
0.139624
0.146346
0.203458
0.146338
0.139498
0.138407
0.138264
0.138312
0.138901
0.143525
0.200765
0.200761
0.143522
0.138899
0.13831
0.138245
0.13824
0.138243
0.138274
0.138486
0.139499
0.142489
0.139529
0.138545
0.138346
0.138319
0.138315
0.138314
0.138313
0.138313
0.138313
0.138314
0.138319
0.138346
0.138547
0.139529
0.142489
0.139499
0.138486
0.138275
0.13825
0.138311
0.1389
0.143524
0.200764
0.200761
0.143522
0.138899
0.13831
0.138245
0.13824
0.13824
0.138245
0.138275
0.138408
0.138693
0.138416
0.138292
0.138278
0.138277
0.138276
0.138276
0.138276
0.138276
0.138276
0.138276
0.138277
0.13828
0.138306
0.138419
0.138693
0.138408
0.138275
0.138246
0.138247
0.138311
0.1389
0.143524
0.200764
0.200762
0.143526
0.138905
0.138316
0.138251
0.138246
0.138246
0.138246
0.13825
0.138264
0.138293
0.138267
0.138257
0.138269
0.138271
0.138272
0.138272
0.138272
0.138272
0.138272
0.138272
0.138272
0.138272
0.138272
0.13827
0.138293
0.138265
0.13825
0.138247
0.138252
0.138317
0.138906
0.143528
0.200764
0.200774
0.143576
0.138968
0.13838
0.138316
0.13831
0.13831
0.138311
0.138311
0.138313
0.138316
0.138315
0.138315
0.138317
0.138318
0.138318
0.138318
0.138318
0.138318
0.138318
0.138318
0.138318
0.138318
0.138317
0.138315
0.138316
0.138313
0.138312
0.138311
0.138317
0.138381
0.138968
0.143578
0.200776
0.200875
0.144033
0.139537
0.138968
0.138905
0.1389
0.1389
0.1389
0.138901
0.138902
0.138903
0.138903
0.138904
0.138905
0.138906
0.138907
0.138907
0.138907
0.138907
0.138907
0.138907
0.138906
0.138906
0.138905
0.138904
0.138903
0.138902
0.138901
0.138901
0.138906
0.138968
0.139538
0.144035
0.200877
0.201212
0.147758
0.144033
0.143576
0.143526
0.143522
0.143523
0.143524
0.143525
0.143526
0.143528
0.14353
0.143532
0.143535
0.143537
0.143538
0.143539
0.14354
0.14354
0.143539
0.143539
0.143538
0.143536
0.143534
0.143531
0.143529
0.143527
0.143525
0.143524
0.143528
0.143578
0.144034
0.14776
0.201214
0.199709
0.201212
0.200875
0.200775
0.200763
0.200763
0.200765
0.200767
0.200769
0.200771
0.200773
0.200774
0.200775
0.200776
0.200775
0.200774
0.200773
0.200773
0.200772
0.200773
0.200773
0.200774
0.200775
0.200775
0.200775
0.200773
0.200771
0.200769
0.200767
0.200766
0.200778
0.200878
0.201214
0.199711
0.208983
0.211036
0.210652
0.210522
0.210505
0.210503
0.210504
0.210504
0.210504
0.210505
0.210505
0.210506
0.210506
0.210506
0.210506
0.210507
0.210507
0.210507
0.210507
0.210507
0.210507
0.210506
0.210506
0.210506
0.210506
0.210505
0.210505
0.210504
0.210504
0.210506
0.210523
0.210653
0.211037
0.208984
0.211037
0.149722
0.144942
0.144339
0.144271
0.144265
0.144265
0.144265
0.144266
0.144266
0.144266
0.144267
0.144267
0.144268
0.144268
0.144268
0.144269
0.144269
0.144269
0.144269
0.144268
0.144268
0.144268
0.144267
0.144267
0.144266
0.144266
0.144266
0.144266
0.144272
0.14434
0.144943
0.149723
0.211037
0.210653
0.144942
0.13912
0.138362
0.138277
0.138269
0.138269
0.138269
0.138269
0.138269
0.138269
0.138269
0.13827
0.13827
0.13827
0.13827
0.13827
0.13827
0.13827
0.13827
0.13827
0.13827
0.13827
0.13827
0.13827
0.138269
0.138269
0.138269
0.13827
0.138277
0.138362
0.13912
0.144942
0.210654
0.210523
0.144338
0.138362
0.13758
0.137492
0.137484
0.137483
0.137483
0.137483
0.137483
0.137483
0.137484
0.137484
0.137484
0.137484
0.137484
0.137484
0.137484
0.137484
0.137484
0.137484
0.137484
0.137484
0.137484
0.137484
0.137483
0.137483
0.137483
0.137484
0.137492
0.13758
0.138362
0.144339
0.210525
0.210506
0.144271
0.138277
0.137492
0.137404
0.137396
0.137395
0.137395
0.137395
0.137395
0.137396
0.137395
0.137395
0.137395
0.137395
0.137395
0.137396
0.137396
0.137396
0.137396
0.137395
0.137395
0.137395
0.137395
0.137395
0.137396
0.137395
0.137395
0.137396
0.137404
0.137492
0.138277
0.144271
0.210508
0.210505
0.144265
0.138269
0.137484
0.137396
0.137388
0.137387
0.137387
0.137388
0.137389
0.137393
0.13739
0.137388
0.137388
0.137388
0.137388
0.137388
0.137388
0.137388
0.137388
0.137388
0.137388
0.137388
0.137388
0.13739
0.137393
0.137389
0.137388
0.137388
0.137396
0.137484
0.138269
0.144265
0.210507
0.210505
0.144265
0.138269
0.137483
0.137395
0.137387
0.137387
0.137387
0.137392
0.137411
0.137448
0.137415
0.137399
0.137395
0.137395
0.137395
0.137394
0.137394
0.137394
0.137394
0.137395
0.137395
0.137395
0.137399
0.137415
0.137448
0.137411
0.137392
0.137388
0.137395
0.137483
0.138269
0.144265
0.210508
0.210506
0.144265
0.138269
0.137483
0.137395
0.137387
0.137387
0.137393
0.137434
0.137612
0.137996
0.137644
0.137488
0.137455
0.137452
0.13745
0.137449
0.137448
0.137448
0.137449
0.13745
0.137452
0.137455
0.137488
0.137644
0.137996
0.137612
0.137434
0.137394
0.137396
0.137483
0.138269
0.144266
0.210509
0.210506
0.144265
0.138269
0.137483
0.137395
0.137388
0.137392
0.137434
0.137718
0.139068
0.142953
0.139205
0.138027
0.137796
0.137767
0.137759
0.137754
0.137754
0.137754
0.137754
0.137759
0.137767
0.137796
0.138027
0.139205
0.142953
0.139068
0.137718
0.137434
0.1374
0.137484
0.138269
0.144266
0.21051
0.210507
0.144266
0.138269
0.137483
0.137395
0.137389
0.137411
0.13761
0.139063
0.147918
0.214101
0.14781
0.140044
0.138895
0.138739
0.13873
0.138721
0.138719
0.138719
0.138721
0.13873
0.138739
0.138895
0.140044
0.14781
0.214101
0.147918
0.139063
0.137611
0.137419
0.137486
0.13827
0.144267
0.21051
0.210507
0.144266
0.138269
0.137483
0.137396
0.137392
0.137447
0.137987
0.142919
0.21417
0.205805
0.143739
0.140065
0.139703
0.139652
0.139645
0.139644
0.139644
0.139645
0.139652
0.139703
0.140065
0.143739
0.205806
0.214171
0.142919
0.137987
0.137456
0.137489
0.13827
0.144268
0.210511
0.210507
0.144267
0.138269
0.137483
0.137395
0.137389
0.137411
0.137611
0.13907
0.147967
0.214149
0.147912
0.140187
0.139054
0.139021
0.138881
0.138848
0.138843
0.138843
0.138848
0.138881
0.139021
0.139054
0.140186
0.147911
0.214148
0.147968
0.13907
0.137612
0.13742
0.137486
0.13827
0.144269
0.210511
0.210507
0.144267
0.13827
0.137484
0.137395
0.137388
0.137392
0.137434
0.137721
0.139081
0.142982
0.139282
0.138331
0.138129
0.138128
0.138093
0.138082
0.138081
0.138081
0.138082
0.138093
0.138128
0.138129
0.138331
0.139282
0.142982
0.139081
0.137721
0.137435
0.137401
0.137484
0.138271
0.14427
0.210511
0.210507
0.144268
0.13827
0.137484
0.137395
0.137387
0.137388
0.137394
0.137435
0.137615
0.138007
0.137711
0.137816
0.137815
0.137817
0.137811
0.13781
0.137809
0.137809
0.13781
0.137811
0.137817
0.137815
0.137816
0.137711
0.138007
0.137615
0.137435
0.137395
0.137396
0.137484
0.138271
0.144271
0.210511
0.210507
0.144268
0.13827
0.137484
0.137395
0.137387
0.137387
0.137388
0.137392
0.137412
0.137457
0.137479
0.137727
0.137757
0.137759
0.137758
0.137758
0.137757
0.137757
0.137758
0.137758
0.137759
0.137757
0.137727
0.137479
0.137457
0.137412
0.137392
0.137388
0.137396
0.137484
0.138271
0.144272
0.21051
0.210506
0.144268
0.13827
0.137484
0.137395
0.137387
0.137387
0.137387
0.137388
0.13739
0.1374
0.137453
0.137716
0.137749
0.137751
0.137751
0.137751
0.137751
0.137751
0.137751
0.137751
0.137751
0.137749
0.137716
0.137453
0.1374
0.13739
0.137388
0.137388
0.137396
0.137484
0.138271
0.144272
0.21051
0.210506
0.144269
0.13827
0.137484
0.137395
0.137387
0.137387
0.137387
0.137387
0.137388
0.137395
0.137451
0.137715
0.137748
0.137751
0.13775
0.13775
0.13775
0.13775
0.13775
0.13775
0.137751
0.137748
0.137715
0.13745
0.137395
0.137388
0.137387
0.137388
0.137396
0.137484
0.138271
0.144272
0.21051
0.210506
0.144269
0.13827
0.137484
0.137395
0.137387
0.137387
0.137387
0.137387
0.137388
0.137395
0.13745
0.137715
0.137748
0.13775
0.13775
0.13775
0.13775
0.13775
0.13775
0.13775
0.13775
0.137748
0.137715
0.13745
0.137395
0.137388
0.137387
0.137388
0.137396
0.137484
0.138271
0.144273
0.210509
0.210506
0.144269
0.13827
0.137484
0.137395
0.137387
0.137387
0.137387
0.137387
0.137388
0.137395
0.13745
0.137715
0.137748
0.13775
0.13775
0.13775
0.13775
0.13775
0.13775
0.13775
0.13775
0.137748
0.137715
0.13745
0.137395
0.137388
0.137387
0.137388
0.137396
0.137484
0.138271
0.144273
0.210509
0.210506
0.144269
0.13827
0.137484
0.137395
0.137387
0.137387
0.137387
0.137387
0.137388
0.137395
0.137451
0.137715
0.137748
0.137751
0.13775
0.13775
0.13775
0.13775
0.13775
0.13775
0.137751
0.137748
0.137715
0.13745
0.137395
0.137388
0.137387
0.137388
0.137396
0.137484
0.138271
0.144272
0.210509
0.210506
0.144269
0.13827
0.137484
0.137395
0.137387
0.137387
0.137387
0.137388
0.13739
0.1374
0.137453
0.137716
0.137749
0.137751
0.137751
0.137751
0.137751
0.137751
0.137751
0.137751
0.137751
0.137749
0.137716
0.137453
0.1374
0.13739
0.137388
0.137388
0.137396
0.137484
0.138271
0.144272
0.210509
0.210506
0.144268
0.13827
0.137484
0.137395
0.137387
0.137387
0.137388
0.137392
0.137412
0.137457
0.137479
0.137727
0.137757
0.137759
0.137758
0.137757
0.137757
0.137757
0.137757
0.137758
0.137759
0.137757
0.137727
0.137479
0.137457
0.137412
0.137392
0.137388
0.137396
0.137484
0.138271
0.144272
0.21051
0.210506
0.144268
0.13827
0.137484
0.137395
0.137387
0.137388
0.137394
0.137435
0.137615
0.138006
0.13771
0.137816
0.137815
0.137817
0.137811
0.137809
0.137809
0.137809
0.137809
0.137811
0.137817
0.137815
0.137816
0.13771
0.138006
0.137615
0.137435
0.137395
0.137396
0.137484
0.138271
0.144271
0.21051
0.210506
0.144268
0.13827
0.137484
0.137395
0.137388
0.137392
0.137434
0.13772
0.139079
0.142977
0.13928
0.13833
0.138129
0.138128
0.138092
0.138082
0.13808
0.13808
0.138082
0.138092
0.138128
0.138129
0.13833
0.13928
0.142977
0.139079
0.13772
0.137435
0.137401
0.137484
0.138271
0.144271
0.21051
0.210506
0.144267
0.13827
0.137484
0.137395
0.137389
0.137411
0.137611
0.139069
0.147963
0.214157
0.147912
0.140189
0.139055
0.139022
0.138882
0.138848
0.138843
0.138843
0.138848
0.138882
0.139022
0.139055
0.140188
0.14791
0.214157
0.147962
0.139069
0.137612
0.13742
0.137486
0.138271
0.14427
0.21051
0.210506
0.144267
0.138269
0.137483
0.137396
0.137392
0.137447
0.137987
0.142919
0.214165
0.205792
0.143743
0.140063
0.139699
0.139647
0.139639
0.139638
0.139638
0.139639
0.139646
0.139698
0.140062
0.143742
0.205789
0.214164
0.142919
0.137987
0.137456
0.137489
0.138271
0.144269
0.21051
0.210506
0.144266
0.138269
0.137483
0.137395
0.137389
0.137411
0.13761
0.139063
0.147918
0.214115
0.147825
0.140049
0.138897
0.138741
0.138731
0.138721
0.138719
0.138719
0.138721
0.138731
0.138741
0.138897
0.14005
0.147826
0.214116
0.147918
0.139063
0.137611
0.137419
0.137486
0.13827
0.144268
0.21051
0.210506
0.144266
0.138269
0.137483
0.137395
0.137388
0.137392
0.137434
0.137718
0.139068
0.142953
0.139209
0.138038
0.137846
0.137824
0.137815
0.13781
0.137809
0.137809
0.13781
0.137815
0.137824
0.137851
0.138078
0.139218
0.142954
0.139068
0.137718
0.137434
0.137401
0.137484
0.13827
0.144268
0.210509
0.210506
0.144266
0.13827
0.137484
0.137396
0.137388
0.137388
0.137394
0.137434
0.137612
0.137997
0.137651
0.137544
0.137749
0.137775
0.137775
0.137774
0.137774
0.137774
0.137774
0.137775
0.137777
0.137778
0.137783
0.1377
0.138002
0.137613
0.137435