/*--------------------------------*- C++ -*----------------------------------*\
| =========                 |                                                 |
| \\      /  F ield         | OpenFOAM: The Open Source CFD Toolbox           |
|  \\    /   O peration     | Version:  2112                                  |
|   \\  /    A nd           | Website:  www.openfoam.com                      |
|    \\/     M anipulation  |                                                 |
\*---------------------------------------------------------------------------*/
FoamFile
{
    version     2.0;
    format      ascii;
    arch        "LSB;label=32;scalar=64";
    class       volScalarField;
    location    "0.3";
    object      k;
}
// * * * * * * * * * * * * * * * * * * * * * * * * * * * * * * * * * * * * * //

dimensions      [0 2 -2 0 0 0 0];

internalField   nonuniform List<scalar> 
64906
(
0.0240281
0.0240275
0.0240171
0.0240149
0.0240147
0.0240147
0.0240148
0.0240148
0.0240149
0.0240149
0.024015
0.0240151
0.0240151
0.0240152
0.0240152
0.0240152
0.0240152
0.0240152
0.0240152
0.0240152
0.0240152
0.0240152
0.0240151
0.0240151
0.0240151
0.024015
0.0240149
0.0240149
0.0240148
0.0240148
0.024015
0.0240172
0.0240276
0.0240282
0.0240275
0.0248662
0.0248942
0.024884
0.0248822
0.024882
0.0248821
0.0248822
0.0248823
0.0248824
0.0248825
0.0248826
0.0248828
0.0248828
0.0248829
0.024883
0.024883
0.024883
0.0248831
0.024883
0.024883
0.0248829
0.0248829
0.0248828
0.0248827
0.0248825
0.0248824
0.0248823
0.0248823
0.0248824
0.0248842
0.0248944
0.0248664
0.0240276
0.0240172
0.0248943
0.024915
0.0249013
0.0248989
0.0248988
0.0248989
0.024899
0.0248991
0.0248993
0.0248995
0.0248997
0.0248998
0.0249
0.0249001
0.0249002
0.0249003
0.0249004
0.0249004
0.0249003
0.0249003
0.0249002
0.0249
0.0248999
0.0248997
0.0248995
0.0248993
0.0248992
0.0248991
0.0248992
0.0249016
0.0249152
0.0248945
0.0240173
0.024015
0.0248841
0.0249014
0.024887
0.0248845
0.0248844
0.0248845
0.0248846
0.0248848
0.0248851
0.0248853
0.0248856
0.0248859
0.0248861
0.0248863
0.0248865
0.0248866
0.0248866
0.0248866
0.0248866
0.0248865
0.0248863
0.0248861
0.0248859
0.0248856
0.0248854
0.0248851
0.0248849
0.0248847
0.0248849
0.0248873
0.0249017
0.0248844
0.0240152
0.0240148
0.0248823
0.024899
0.0248846
0.0248821
0.024882
0.0248821
0.0248823
0.0248826
0.0248829
0.0248833
0.0248837
0.0248841
0.0248845
0.0248848
0.024885
0.0248852
0.0248852
0.0248852
0.0248852
0.024885
0.0248848
0.0248845
0.0248842
0.0248838
0.0248834
0.024883
0.0248827
0.0248824
0.0248825
0.0248849
0.0248994
0.0248827
0.0240151
0.0240149
0.0248822
0.0248989
0.0248844
0.024882
0.0248819
0.0248821
0.0248824
0.0248828
0.0248833
0.0248839
0.0248845
0.024885
0.0248855
0.0248859
0.0248863
0.0248865
0.0248866
0.0248866
0.0248865
0.0248863
0.024886
0.0248855
0.024885
0.0248845
0.024884
0.0248833
0.0248829
0.0248825
0.0248825
0.0248849
0.0248993
0.0248826
0.0240152
0.024015
0.0248823
0.024899
0.0248846
0.0248822
0.0248821
0.0248824
0.0248828
0.0248834
0.0248846
0.0248863
0.0248865
0.0248867
0.0248873
0.0248879
0.0248883
0.0248886
0.0248888
0.0248888
0.0248887
0.0248884
0.0248879
0.0248873
0.0248868
0.0248866
0.0248863
0.0248847
0.0248835
0.0248829
0.0248828
0.0248851
0.0248995
0.0248828
0.0240154
0.0240151
0.0248824
0.0248991
0.0248847
0.0248824
0.0248824
0.0248828
0.0248835
0.0248854
0.0248906
0.024895
0.0248937
0.0248904
0.0248901
0.0248907
0.0248913
0.0248917
0.0248919
0.0248919
0.0248917
0.0248913
0.0248908
0.0248901
0.0248904
0.0248937
0.024895
0.0248907
0.0248855
0.0248836
0.0248832
0.0248854
0.0248997
0.024883
0.0240155
0.0240151
0.0248825
0.0248993
0.0248849
0.0248826
0.0248827
0.0248834
0.0248853
0.0248934
0.0249096
0.0248591
0.024914
0.0249003
0.0248944
0.0248943
0.0248948
0.0248953
0.0248956
0.0248956
0.0248953
0.0248948
0.0248943
0.0248945
0.0249004
0.0249141
0.0248592
0.0249097
0.0248935
0.0248854
0.0248838
0.0248858
0.0249
0.0248831
0.0240156
0.0240152
0.0248826
0.0248994
0.0248851
0.0248829
0.0248831
0.0248844
0.0248904
0.0249094
0.0248241
0.0240126
0.0248258
0.0249106
0.0248941
0.0248903
0.0248903
0.0248908
0.024891
0.0248911
0.0248908
0.0248904
0.0248904
0.0248942
0.0249107
0.0248259
0.0240126
0.0248242
0.0249095
0.0248905
0.0248848
0.0248862
0.0249002
0.0248833
0.0240158
0.0240152
0.0248827
0.0248995
0.0248853
0.0248832
0.0248836
0.0248858
0.0248943
0.0248583
0.024012
0.0240029
0.0248147
0.0248495
0.0248432
0.0248424
0.0248427
0.0248429
0.0248429
0.0248427
0.0248424
0.0248433
0.0248495
0.0248148
0.024003
0.0240121
0.0248584
0.0248944
0.0248862
0.0248866
0.0249005
0.0248835
0.0240158
0.0240153
0.0248827
0.0248996
0.0248855
0.0248834
0.024884
0.0248856
0.0248922
0.024912
0.0248274
0.0240135
0.0248195
0.0249061
0.024889
0.0248846
0.0248837
0.0248837
0.0248837
0.0248837
0.0248837
0.0248837
0.0248846
0.024889
0.0249061
0.0248194
0.0240134
0.0248273
0.0249121
0.0248922
0.024886
0.0248869
0.0249007
0.0248836
0.0240159
0.0240153
0.0248828
0.0248997
0.0248856
0.0248837
0.0248842
0.0248854
0.0248882
0.0248971
0.0249144
0.0248616
0.0249131
0.0248976
0.0248898
0.0248881
0.0248874
0.024887
0.0248869
0.0248869
0.024887
0.0248873
0.024888
0.0248897
0.0248975
0.024913
0.0248615
0.0249144
0.0248971
0.0248882
0.0248857
0.0248871
0.0249009
0.0248837
0.0240159
0.0240152
0.0248828
0.0248998
0.0248858
0.0248839
0.0248845
0.0248856
0.0248873
0.0248902
0.0248965
0.0248999
0.0248961
0.02489
0.0248875
0.0248862
0.0248852
0.0248845
0.0248841
0.0248841
0.0248844
0.0248851
0.0248861
0.0248874
0.0248899
0.024896
0.0248998
0.0248964
0.0248902
0.0248873
0.0248859
0.0248873
0.024901
0.0248837
0.0240159
0.0240152
0.0248828
0.0248999
0.0248859
0.024884
0.0248847
0.0248859
0.0248874
0.0248892
0.0248916
0.024893
0.0248916
0.0248888
0.024887
0.0248855
0.024884
0.0248829
0.0248822
0.0248822
0.0248828
0.0248839
0.0248854
0.0248869
0.0248887
0.0248915
0.0248929
0.0248915
0.0248892
0.0248874
0.0248861
0.0248875
0.0249012
0.0248837
0.0240158
0.0240152
0.0248828
0.0248999
0.0248859
0.0248841
0.0248848
0.0248861
0.0248876
0.0248893
0.0248912
0.024892
0.0248915
0.0248889
0.0248871
0.0248853
0.0248835
0.0248819
0.0248809
0.0248809
0.0248818
0.0248834
0.0248852
0.024887
0.0248888
0.0248914
0.0248919
0.0248911
0.0248893
0.0248876
0.0248863
0.0248876
0.0249012
0.0248837
0.0240158
0.0240151
0.0248828
0.0249
0.024886
0.0248842
0.0248849
0.0248862
0.0248878
0.0248895
0.0248914
0.0248922
0.0248919
0.0248891
0.0248872
0.0248852
0.0248832
0.0248813
0.02488
0.0248799
0.0248812
0.0248831
0.0248851
0.0248871
0.024889
0.0248917
0.0248921
0.0248913
0.0248895
0.0248877
0.0248864
0.0248877
0.0249013
0.0248837
0.0240157
0.0240151
0.0248828
0.0249
0.024886
0.0248842
0.024885
0.0248863
0.0248879
0.0248897
0.0248916
0.0248924
0.0248921
0.0248892
0.0248873
0.0248852
0.0248831
0.024881
0.0248793
0.0248792
0.0248808
0.0248829
0.0248851
0.0248871
0.0248891
0.0248919
0.0248923
0.0248914
0.0248896
0.0248878
0.0248865
0.0248878
0.0249013
0.0248837
0.0240156
0.0240151
0.0248828
0.0249
0.024886
0.0248843
0.024885
0.0248863
0.0248879
0.0248897
0.0248916
0.0248924
0.0248922
0.0248893
0.0248873
0.0248852
0.024883
0.0248809
0.0248791
0.024879
0.0248807
0.0248829
0.0248851
0.0248872
0.0248891
0.024892
0.0248923
0.0248915
0.0248896
0.0248879
0.0248865
0.0248878
0.0249013
0.0248837
0.0240156
0.0240151
0.0248828
0.0249
0.024886
0.0248842
0.024885
0.0248863
0.0248879
0.0248897
0.0248916
0.0248924
0.0248921
0.0248892
0.0248873
0.0248852
0.0248831
0.024881
0.0248794
0.0248793
0.0248808
0.0248829
0.024885
0.0248871
0.024889
0.0248919
0.0248923
0.0248915
0.0248896
0.0248878
0.0248865
0.0248878
0.0249013
0.0248837
0.0240156
0.0240151
0.0248828
0.0248999
0.024886
0.0248842
0.0248849
0.0248862
0.0248878
0.0248895
0.0248915
0.0248923
0.0248919
0.024889
0.0248872
0.0248852
0.0248832
0.0248814
0.0248801
0.02488
0.0248812
0.024883
0.024885
0.024887
0.0248889
0.0248917
0.0248922
0.0248914
0.0248895
0.0248877
0.0248864
0.0248877
0.0249013
0.0248837
0.0240156
0.0240151
0.0248828
0.0248999
0.0248859
0.0248841
0.0248848
0.024886
0.0248876
0.0248895
0.0248919
0.0248935
0.0248921
0.024889
0.0248871
0.0248853
0.0248836
0.0248821
0.0248812
0.0248811
0.024882
0.0248834
0.0248851
0.0248869
0.0248888
0.0248919
0.0248934
0.0248919
0.0248894
0.0248876
0.0248863
0.0248876
0.0249012
0.0248837
0.0240157
0.0240152
0.0248828
0.0248998
0.0248858
0.024884
0.0248846
0.0248858
0.0248875
0.0248905
0.024897
0.0249006
0.0248968
0.0248902
0.0248875
0.0248859
0.0248845
0.0248835
0.0248829
0.0248829
0.0248834
0.0248844
0.0248857
0.0248873
0.0248901
0.0248966
0.0249005
0.0248969
0.0248905
0.0248876
0.0248861
0.0248875
0.0249011
0.0248837
0.0240157
0.0240152
0.0248828
0.0248998
0.0248857
0.0248838
0.0248844
0.0248857
0.0248885
0.0248975
0.024915
0.0248626
0.0249139
0.0248977
0.0248896
0.0248875
0.0248864
0.0248858
0.0248855
0.0248854
0.0248857
0.0248863
0.0248873
0.0248894
0.0248976
0.0249138
0.0248626
0.024915
0.0248976
0.0248885
0.024886
0.0248873
0.024901
0.0248837
0.0240158
0.0240152
0.0248827
0.0248997
0.0248856
0.0248836
0.0248842
0.0248859
0.0248925
0.0249124
0.024828
0.0240145
0.0248199
0.024906
0.0248885
0.0248837
0.0248825
0.0248822
0.024882
0.024882
0.024882
0.0248823
0.0248834
0.0248883
0.0249058
0.0248199
0.0240145
0.024828
0.0249125
0.0248926
0.0248862
0.0248871
0.0249008
0.0248836
0.0240158
0.0240152
0.0248827
0.0248996
0.0248854
0.0248833
0.0248839
0.0248861
0.0248945
0.0248584
0.0240119
0.0240022
0.0248138
0.0248485
0.0248418
0.0248406
0.0248406
0.0248406
0.0248406
0.0248405
0.0248404
0.0248416
0.0248482
0.0248135
0.024002
0.0240119
0.0248585
0.0248947
0.0248865
0.0248868
0.0249006
0.0248835
0.0240157
0.0240151
0.0248826
0.0248995
0.0248852
0.0248831
0.0248834
0.0248848
0.0248908
0.02491
0.0248249
0.0240138
0.0248259
0.0249103
0.0248927
0.0248881
0.0248874
0.0248874
0.0248875
0.0248875
0.0248873
0.0248871
0.0248876
0.0248921
0.0249094
0.0248256
0.0240138
0.024825
0.0249101
0.024891
0.0248852
0.0248864
0.0249004
0.0248834
0.0240157
0.0240151
0.0248825
0.0248994
0.0248851
0.0248829
0.0248831
0.0248838
0.0248859
0.0248942
0.0249107
0.0248606
0.0249147
0.0249001
0.0248925
0.0248912
0.024891
0.024891
0.024891
0.024891
0.0248908
0.0248907
0.0248907
0.0248917
0.0248987
0.0249142
0.0248605
0.0249108
0.0248944
0.0248861
0.0248843
0.0248861
0.0249002
0.0248832
0.0240156
0.024015
0.0248825
0.0248993
0.0248849
0.0248827
0.0248828
0.0248834
0.0248842
0.0248863
0.0248918
0.0248963
0.0248943
0.0248897
0.0248863
0.0248855
0.0248853
0.0248852
0.0248851
0.0248851
0.0248851
0.024885
0.0248851
0.0248854
0.0248869
0.0248933
0.024896
0.0248919
0.0248865
0.0248844
0.0248838
0.0248859
0.0249
0.0248831
0.0240155
0.024015
0.0248826
0.0248994
0.0248851
0.0248828
0.0248829
0.0248833
0.0248839
0.0248848
0.0248862
0.024888
0.0248878
0.024887
0.024885
0.0248848
0.0248847
0.0248847
0.0248847
0.0248847
0.0248846
0.0248846
0.0248845
0.0248845
0.0248848
0.024887
0.0248877
0.0248863
0.024885
0.0248841
0.0248838
0.0248859
0.0249001
0.0248832
0.0240154
0.0240152
0.0248844
0.0249018
0.0248875
0.0248852
0.0248853
0.0248856
0.0248861
0.0248867
0.0248875
0.0248883
0.0248889
0.0248891
0.0248886
0.0248885
0.0248885
0.0248886
0.0248887
0.0248887
0.0248886
0.0248885
0.0248883
0.0248882
0.0248882
0.0248887
0.0248884
0.0248877
0.024887
0.0248864
0.0248861
0.0248883
0.0249024
0.0248849
0.0240155
0.0240173
0.0248946
0.0249154
0.0249019
0.0248996
0.0248997
0.0249
0.0249004
0.0249009
0.0249015
0.0249021
0.0249027
0.024903
0.024903
0.0249031
0.0249032
0.0249033
0.0249034
0.0249034
0.0249033
0.0249032
0.0249031
0.0249029
0.0249027
0.0249027
0.0249023
0.0249017
0.0249012
0.0249007
0.0249005
0.0249026
0.024916
0.0248951
0.0240177
0.0240277
0.0248665
0.0248947
0.0248846
0.0248829
0.0248829
0.0248832
0.0248836
0.024884
0.0248845
0.0248849
0.0248853
0.0248857
0.0248858
0.0248859
0.0248859
0.0248859
0.0248859
0.0248859
0.0248859
0.0248859
0.0248858
0.0248857
0.0248856
0.0248855
0.0248851
0.0248847
0.0248842
0.0248838
0.0248836
0.0248852
0.0248952
0.0248669
0.024028
0.0240283
0.0240277
0.0240174
0.0240153
0.0240152
0.0240154
0.0240157
0.0240159
0.0240162
0.0240166
0.0240169
0.0240172
0.0240174
0.0240174
0.0240174
0.0240173
0.0240172
0.0240171
0.024017
0.0240171
0.0240172
0.0240173
0.0240173
0.0240173
0.0240172
0.024017
0.0240167
0.0240164
0.0240161
0.0240158
0.0240158
0.0240178
0.024028
0.0240285
0.0318203
0.0321607
0.0321542
0.0321445
0.0321429
0.0321428
0.0321428
0.0321428
0.0321429
0.0321429
0.032143
0.032143
0.032143
0.0321431
0.0321431
0.0321431
0.0321431
0.0321431
0.0321431
0.0321431
0.0321431
0.0321431
0.0321431
0.032143
0.032143
0.032143
0.0321429
0.0321429
0.0321429
0.032143
0.0321446
0.0321543
0.0321607
0.0318204
0.0321607
0.0402859
0.0408036
0.0407838
0.0407743
0.040773
0.0407729
0.0407729
0.0407729
0.0407729
0.0407728
0.0407728
0.0407728
0.0407728
0.0407727
0.0407727
0.0407727
0.0407727
0.0407727
0.0407727
0.0407727
0.0407727
0.0407728
0.0407728
0.0407728
0.0407728
0.0407729
0.0407729
0.040773
0.0407743
0.0407838
0.0408036
0.0402859
0.0321608
0.0321543
0.0408037
0.0413312
0.0412979
0.0412852
0.0412835
0.0412834
0.0412834
0.0412834
0.0412835
0.0412836
0.0412836
0.0412837
0.0412837
0.0412838
0.0412838
0.0412838
0.0412839
0.0412839
0.0412838
0.0412838
0.0412838
0.0412837
0.0412837
0.0412836
0.0412836
0.0412835
0.0412835
0.0412836
0.0412853
0.041298
0.0413313
0.0408037
0.0321544
0.0321446
0.040784
0.0412979
0.0412602
0.0412469
0.041245
0.0412449
0.0412449
0.041245
0.0412451
0.0412452
0.0412453
0.0412454
0.0412454
0.0412455
0.0412456
0.0412456
0.0412456
0.0412456
0.0412456
0.0412456
0.0412455
0.0412454
0.0412454
0.0412453
0.0412452
0.0412451
0.0412451
0.0412452
0.041247
0.0412603
0.041298
0.040784
0.0321448
0.0321431
0.0407745
0.0412852
0.0412469
0.0412334
0.0412316
0.0412314
0.0412315
0.0412316
0.0412317
0.0412319
0.041232
0.0412321
0.0412322
0.0412323
0.0412323
0.0412324
0.0412324
0.0412324
0.0412324
0.0412323
0.0412323
0.0412322
0.0412321
0.041232
0.0412319
0.0412318
0.0412316
0.0412317
0.0412335
0.041247
0.0412854
0.0407745
0.0321433
0.032143
0.0407731
0.0412835
0.041245
0.0412316
0.0412298
0.0412296
0.0412297
0.04123
0.0412305
0.0412313
0.0412309
0.0412307
0.0412308
0.0412309
0.041231
0.0412311
0.0412311
0.0412311
0.0412311
0.041231
0.0412309
0.0412308
0.0412307
0.041231
0.0412313
0.0412306
0.04123
0.04123
0.0412317
0.0412452
0.0412836
0.0407732
0.0321433
0.032143
0.040773
0.0412834
0.0412449
0.0412314
0.0412296
0.0412296
0.0412299
0.0412311
0.0412348
0.0412383
0.0412357
0.0412326
0.0412318
0.0412318
0.0412319
0.041232
0.041232
0.041232
0.041232
0.0412319
0.0412318
0.0412318
0.0412326
0.0412357
0.0412384
0.0412349
0.0412312
0.0412301
0.0412317
0.0412451
0.0412835
0.0407731
0.0321434
0.0321431
0.040773
0.0412834
0.0412449
0.0412315
0.0412297
0.0412299
0.0412315
0.0412393
0.0412579
0.0412469
0.0412597
0.0412428
0.0412361
0.0412351
0.0412349
0.0412349
0.0412349
0.0412349
0.0412349
0.0412349
0.0412351
0.0412361
0.0412429
0.0412598
0.041247
0.0412579
0.0412394
0.0412318
0.041232
0.0412452
0.0412836
0.0407731
0.0321435
0.0321432
0.040773
0.0412834
0.041245
0.0412316
0.0412299
0.0412311
0.0412393
0.0412703
0.0412588
0.0407292
0.0412571
0.0412706
0.0412424
0.041236
0.0412345
0.0412342
0.0412342
0.0412342
0.0412342
0.0412345
0.041236
0.0412425
0.0412706
0.0412571
0.0407292
0.0412589
0.0412704
0.0412395
0.0412332
0.0412454
0.0412837
0.0407731
0.0321436
0.0321432
0.0407729
0.0412835
0.041245
0.0412317
0.0412304
0.0412347
0.0412576
0.0412584
0.0401881
0.0327762
0.0401339
0.0411672
0.0411679
0.041148
0.0411437
0.0411429
0.0411428
0.0411428
0.0411429
0.0411437
0.041148
0.0411679
0.0411672
0.040134
0.0327761
0.0401882
0.0412585
0.0412579
0.0412368
0.0412459
0.0412838
0.040773
0.0321437
0.0321432
0.0407729
0.0412835
0.0412451
0.0412318
0.0412311
0.041238
0.0412461
0.0407277
0.0327782
0.0326601
0.0402576
0.040738
0.0407306
0.0407236
0.0407223
0.0407221
0.0407221
0.0407223
0.0407236
0.0407306
0.040738
0.0402577
0.0326602
0.0327783
0.0407278
0.0412463
0.0412401
0.0412465
0.0412839
0.0407729
0.0321437
0.0321432
0.0407728
0.0412836
0.0412452
0.0412318
0.0412306
0.041235
0.041258
0.0412584
0.0401808
0.0327806
0.0401188
0.0411561
0.0411535
0.0411323
0.0411231
0.0411202
0.0411194
0.0411194
0.0411202
0.041123
0.0411323
0.0411534
0.041156
0.0401187
0.0327805
0.0401806
0.0412584
0.0412582
0.0412371
0.0412461
0.0412839
0.0407728
0.0321438
0.0321432
0.0407728
0.0412836
0.0412452
0.0412318
0.0412303
0.0412316
0.04124
0.0412713
0.0412589
0.0407261
0.0412516
0.0412527
0.0412176
0.0412074
0.0412028
0.0412009
0.0412003
0.0412002
0.0412009
0.0412027
0.0412073
0.0412175
0.0412526
0.0412515
0.040726
0.0412589
0.0412713
0.0412402
0.0412337
0.0412458
0.0412839
0.0407727
0.0321437
0.0321432
0.0407727
0.0412836
0.0412453
0.0412319
0.0412303
0.0412306
0.0412325
0.0412406
0.0412591
0.0412469
0.0412557
0.0412234
0.0412092
0.041204
0.0412013
0.0412
0.0411994
0.0411994
0.0412
0.0412013
0.0412039
0.0412092
0.0412233
0.0412556
0.0412469
0.0412591
0.0412406
0.0412327
0.0412327
0.0412458
0.041284
0.0407727
0.0321437
0.0321432
0.0407727
0.0412836
0.0412453
0.0412319
0.0412303
0.0412305
0.0412311
0.0412326
0.0412364
0.041239
0.0412321
0.0412139
0.0412059
0.0412017
0.0411995
0.0411983
0.0411977
0.0411977
0.0411983
0.0411995
0.0412017
0.0412058
0.0412139
0.041232
0.0412389
0.0412364
0.0412326
0.0412313
0.0412326
0.0412458
0.041284
0.0407726
0.0321436
0.0321431
0.0407727
0.0412837
0.0412453
0.041232
0.0412304
0.0412305
0.0412309
0.0412315
0.0412322
0.0412321
0.0412277
0.0412128
0.0412058
0.0412017
0.0411996
0.0411984
0.0411978
0.0411978
0.0411984
0.0411996
0.0412017
0.0412057
0.0412128
0.0412276
0.041232
0.0412322
0.0412315
0.0412312
0.0412326
0.0412459
0.0412841
0.0407725
0.0321435
0.0321431
0.0407726
0.0412837
0.0412453
0.041232
0.0412304
0.0412305
0.041231
0.0412314
0.0412318
0.0412312
0.0412273
0.041213
0.0412061
0.0412021
0.0411999
0.0411987
0.0411981
0.0411981
0.0411987
0.0411999
0.041202
0.0412061
0.041213
0.0412272
0.0412311
0.0412317
0.0412314
0.0412312
0.0412327
0.0412459
0.0412841
0.0407725
0.0321435
0.032143
0.0407726
0.0412837
0.0412454
0.041232
0.0412304
0.0412306
0.041231
0.0412314
0.0412318
0.0412311
0.0412273
0.0412132
0.0412063
0.0412022
0.0412001
0.0411988
0.0411982
0.0411982
0.0411988
0.0412001
0.0412022
0.0412062
0.0412131
0.0412273
0.0412311
0.0412318
0.0412315
0.0412312
0.0412327
0.0412459
0.0412841
0.0407725
0.0321434
0.032143
0.0407726
0.0412837
0.0412454
0.041232
0.0412304
0.0412306
0.041231
0.0412314
0.0412318
0.0412311
0.0412273
0.0412132
0.0412063
0.0412023
0.0412001
0.0411989
0.0411982
0.0411982
0.0411988
0.0412001
0.0412022
0.0412063
0.0412132
0.0412273
0.0412311
0.0412318
0.0412315
0.0412312
0.0412327
0.0412459
0.0412841
0.0407725
0.0321434
0.032143
0.0407726
0.0412837
0.0412454
0.041232
0.0412304
0.0412306
0.041231
0.0412314
0.0412318
0.0412312
0.0412273
0.0412131
0.0412062
0.0412021
0.0412
0.0411987
0.0411981
0.0411981
0.0411987
0.0412
0.0412021
0.0412062
0.0412131
0.0412273
0.0412312
0.0412318
0.0412315
0.0412312
0.0412327
0.0412459
0.0412841
0.0407725
0.0321434
0.032143
0.0407726
0.0412837
0.0412454
0.041232
0.0412304
0.0412305
0.041231
0.0412315
0.0412323
0.0412322
0.0412278
0.0412131
0.041206
0.0412019
0.0411997
0.0411985
0.0411979
0.0411979
0.0411985
0.0411997
0.0412019
0.041206
0.041213
0.0412278
0.0412321
0.0412323
0.0412316
0.0412312
0.0412327
0.0412459
0.0412841
0.0407725
0.0321434
0.0321431
0.0407727
0.0412837
0.0412453
0.041232
0.0412304
0.0412305
0.0412311
0.0412327
0.0412365
0.0412391
0.0412322
0.0412143
0.0412062
0.041202
0.0411997
0.0411985
0.0411979
0.0411979
0.0411985
0.0411997
0.041202
0.0412062
0.0412143
0.0412322
0.0412391
0.0412365
0.0412327
0.0412314
0.0412327
0.0412459
0.0412841
0.0407726
0.0321435
0.0321431
0.0407727
0.0412837
0.0412453
0.0412319
0.0412303
0.0412307
0.0412326
0.0412407
0.0412593
0.0412471
0.0412559
0.0412239
0.0412097
0.0412044
0.0412017
0.0412004
0.0411998
0.0411998
0.0412004
0.0412017
0.0412044
0.0412097
0.0412239
0.0412559
0.0412471
0.0412593
0.0412407
0.0412329
0.0412328
0.0412458
0.041284
0.0407726
0.0321435
0.0321431
0.0407727
0.0412836
0.0412453
0.0412319
0.0412304
0.0412317
0.0412401
0.0412714
0.0412591
0.0407271
0.0412521
0.0412534
0.0412183
0.0412081
0.0412034
0.0412016
0.0412009
0.0412009
0.0412016
0.0412035
0.0412081
0.0412183
0.0412534
0.0412521
0.0407272
0.0412592
0.0412715
0.0412404
0.0412338
0.0412459
0.041284
0.0407727
0.0321436
0.0321431
0.0407728
0.0412836
0.0412452
0.0412319
0.0412307
0.0412351
0.0412581
0.0412586
0.0401817
0.0327819
0.0401202
0.0411571
0.0411545
0.0411333
0.041124
0.0411212
0.0411204
0.0411204
0.0411212
0.041124
0.0411333
0.0411545
0.0411571
0.0401206
0.0327818
0.0401819
0.0412587
0.0412584
0.0412372
0.0412462
0.041284
0.0407728
0.0321436
0.0321431
0.0407728
0.0412836
0.0412452
0.0412319
0.0412312
0.0412381
0.0412462
0.0407278
0.0327775
0.0326585
0.0402562
0.0407374
0.0407298
0.0407226
0.0407212
0.0407209
0.0407209
0.0407211
0.0407225
0.0407297
0.0407372
0.040256
0.0326581
0.0327774
0.0407279
0.0412465
0.0412403
0.0412467
0.041284
0.0407729
0.0321436
0.0321431
0.0407729
0.0412835
0.0412451
0.0412318
0.0412306
0.0412349
0.0412578
0.0412587
0.0401885
0.0327781
0.0401318
0.0411667
0.0411672
0.0411469
0.0411425
0.0411416
0.0411414
0.0411414
0.0411415
0.0411424
0.0411468
0.0411669
0.0411662
0.0401315
0.0327781
0.0401886
0.0412588
0.0412581
0.041237
0.0412461
0.0412839
0.0407729
0.0321435
0.0321431
0.0407729
0.0412835
0.0412451
0.0412317
0.0412301
0.0412313
0.0412395
0.0412706
0.0412592
0.0407297
0.0412569
0.0412697
0.0412392
0.041232
0.0412302
0.0412297
0.0412296
0.0412296
0.0412297
0.04123
0.0412317
0.0412385
0.0412675
0.041256
0.0407295
0.0412592
0.0412707
0.0412398
0.0412334
0.0412456
0.0412838
0.040773
0.0321435
0.032143
0.0407731
0.0412837
0.0412452
0.0412318
0.0412301
0.0412303
0.041232
0.0412399
0.0412584
0.0412474
0.0412595
0.04124
0.0412266
0.0412235
0.0412224
0.0412221
0.041222
0.041222
0.0412219
0.041222
0.0412225
0.0412243
0.0412334
0.041257
0.0412468
0.0412583
0.0412399
0.0412323
0.0412324
0.0412456
0.0412839
0.0407731
0.0321434
0.0321431
0.0407744
0.0412854
0.0412471
0.0412336
0.0412319
0.0412318
0.0412322
0.0412335
0.0412373
0.0412407
0.0412374
0.0412317
0.0412243
0.041222
0.0412211
0.0412209
0.0412208
0.0412208
0.0412208
0.0412208
0.0412209
0.0412218
0.041225
0.0412348
0.0412401
0.0412372
0.0412336
0.0412325
0.041234
0.0412473
0.0412856
0.0407745
0.0321435
0.0321447
0.0407839
0.041298
0.0412604
0.0412471
0.0412453
0.0412453
0.0412454
0.0412457
0.0412464
0.0412471
0.0412466
0.0412455
0.0412433
0.0412427
0.0412426
0.0412426
0.0412426
0.0412426
0.0412425
0.0412425
0.0412425
0.0412426
0.0412433
0.0412457
0.0412469
0.0412464
0.0412458
0.0412457
0.0412474
0.0412607
0.0412983
0.040784
0.032145
0.0321544
0.0408037
0.0413314
0.0412981
0.0412855
0.0412838
0.0412837
0.0412838
0.041284
0.0412842
0.0412844
0.0412845
0.0412844
0.041284
0.0412839
0.0412839
0.0412839
0.0412839
0.0412839
0.0412839
0.0412839
0.0412838
0.0412838
0.0412839
0.0412843
0.0412844
0.0412843
0.0412841
0.0412841
0.0412858
0.0412983
0.0413316
0.0408037
0.0321546
0.0321608
0.0402859
0.0408037
0.040784
0.0407746
0.0407733
0.0407732
0.0407732
0.0407732
0.0407732
0.0407732
0.040773
0.0407727
0.0407723
0.040772
0.0407718
0.0407716
0.0407716
0.0407716
0.0407716
0.0407717
0.0407718
0.040772
0.0407724
0.0407728
0.0407731
0.0407732
0.0407733
0.0407734
0.0407747
0.0407841
0.0408038
0.0402859
0.032161
0.0318205
0.0321609
0.0321544
0.0321449
0.0321434
0.0321434
0.0321435
0.0321438
0.032144
0.0321442
0.0321445
0.0321447
0.0321448
0.0321448
0.0321448
0.0321447
0.0321445
0.0321444
0.0321444
0.0321444
0.0321445
0.0321446
0.0321447
0.0321448
0.0321447
0.0321446
0.0321443
0.0321441
0.0321438
0.0321438
0.0321452
0.0321547
0.0321611
0.0318207
0.0328568
0.0333107
0.0333125
0.0333007
0.0332986
0.0332984
0.0332984
0.0332984
0.0332984
0.0332985
0.0332985
0.0332986
0.0332986
0.0332986
0.0332987
0.0332987
0.0332987
0.0332987
0.0332987
0.0332987
0.0332987
0.0332987
0.0332986
0.0332986
0.0332986
0.0332985
0.0332985
0.0332985
0.0332984
0.0332986
0.0333008
0.0333126
0.0333108
0.0328569
0.0333108
0.0431391
0.0438351
0.0438179
0.0438057
0.0438038
0.0438036
0.0438035
0.0438035
0.0438034
0.0438034
0.0438033
0.0438033
0.0438032
0.0438031
0.0438031
0.0438031
0.0438031
0.0438031
0.0438031
0.0438031
0.0438031
0.0438032
0.0438032
0.0438033
0.0438034
0.0438034
0.0438035
0.0438037
0.0438056
0.0438179
0.043835
0.043139
0.0333109
0.0333126
0.0438352
0.0445629
0.0445307
0.0445143
0.0445118
0.0445115
0.0445115
0.0445115
0.0445116
0.0445116
0.0445116
0.0445116
0.0445116
0.0445116
0.0445116
0.0445116
0.0445116
0.0445116
0.0445116
0.0445116
0.0445116
0.0445116
0.0445116
0.0445116
0.0445116
0.0445116
0.0445116
0.0445118
0.0445143
0.0445307
0.0445629
0.0438352
0.0333127
0.0333008
0.0438181
0.0445307
0.0444929
0.0444755
0.0444729
0.0444726
0.0444726
0.0444726
0.0444726
0.0444727
0.0444727
0.0444727
0.0444727
0.0444728
0.0444728
0.0444728
0.0444728
0.0444728
0.0444728
0.0444728
0.0444728
0.0444727
0.0444727
0.0444727
0.0444727
0.0444726
0.0444726
0.0444729
0.0444755
0.044493
0.0445307
0.0438181
0.033301
0.0332987
0.0438058
0.0445143
0.0444755
0.0444578
0.0444552
0.0444549
0.0444549
0.044455
0.0444551
0.0444552
0.0444552
0.0444551
0.0444552
0.0444552
0.0444552
0.0444552
0.0444552
0.0444552
0.0444552
0.0444552
0.0444552
0.0444552
0.0444552
0.0444552
0.0444552
0.0444551
0.044455
0.0444553
0.0444579
0.0444755
0.0445143
0.0438058
0.0332989
0.0332985
0.0438039
0.0445118
0.0444729
0.0444552
0.0444526
0.0444523
0.0444524
0.0444526
0.0444532
0.044454
0.0444535
0.044453
0.0444529
0.0444529
0.0444529
0.0444529
0.044453
0.044453
0.0444529
0.0444529
0.0444529
0.0444529
0.044453
0.0444535
0.044454
0.0444532
0.0444526
0.0444527
0.0444553
0.0444729
0.0445118
0.0438039
0.0332988
0.0332986
0.0438037
0.0445115
0.0444726
0.0444549
0.0444523
0.0444521
0.0444524
0.0444541
0.0444589
0.0444629
0.0444602
0.0444561
0.0444549
0.0444548
0.0444546
0.0444546
0.0444546
0.0444546
0.0444546
0.0444546
0.0444548
0.0444549
0.0444561
0.0444602
0.0444629
0.0444589
0.0444541
0.0444528
0.0444551
0.0444726
0.0445116
0.0438037
0.0332989
0.0332986
0.0438036
0.0445115
0.0444726
0.0444549
0.0444523
0.0444524
0.0444547
0.0444651
0.0444869
0.0444662
0.0444898
0.0444709
0.0444627
0.0444621
0.0444607
0.0444601
0.04446
0.04446
0.0444601
0.0444607
0.0444621
0.0444627
0.0444709
0.0444898
0.0444662
0.0444869
0.0444651
0.044455
0.0444554
0.0444727
0.0445116
0.0438036
0.033299
0.0332987
0.0438036
0.0445115
0.0444726
0.044455
0.0444526
0.0444541
0.044465
0.044502
0.0444632
0.0437709
0.0444304
0.0444617
0.0444322
0.0444271
0.0444223
0.0444202
0.0444197
0.0444197
0.0444202
0.0444223
0.0444271
0.0444322
0.0444617
0.0444304
0.0437709
0.0444632
0.0445021
0.0444653
0.044457
0.0444729
0.0445116
0.0438035
0.0332991
0.0332987
0.0438035
0.0445116
0.0444726
0.044455
0.0444532
0.0444588
0.0444864
0.0444619
0.0430427
0.0341213
0.0426694
0.0438374
0.0438495
0.0438269
0.0438237
0.0438211
0.0438205
0.0438205
0.0438211
0.0438237
0.0438269
0.0438495
0.0438374
0.0426695
0.0341212
0.0430428
0.044462
0.0444867
0.0444617
0.0444735
0.0445117
0.0438034
0.0332992
0.0332988
0.0438034
0.0445116
0.0444726
0.0444551
0.0444539
0.0444623
0.0444639
0.0437681
0.0341414
0.0331423
0.0408874
0.0413831
0.04138
0.0413712
0.0413693
0.0413692
0.0413692
0.0413694
0.0413712
0.0413801
0.0413831
0.0408876
0.0331425
0.0341416
0.0437682
0.0444642
0.0444653
0.0444743
0.0445118
0.0438033
0.0332992
0.0332988
0.0438034
0.0445116
0.0444727
0.0444551
0.0444532
0.0444589
0.0444865
0.0444613
0.0430335
0.0341274
0.0426531
0.0438424
0.0438593
0.0438599
0.0438279
0.0438185
0.0438165
0.0438165
0.0438184
0.0438279
0.0438598
0.0438591
0.0438422
0.042653
0.0341272
0.0430333
0.0444613
0.0444868
0.0444618
0.0444736
0.0445117
0.0438031
0.0332992
0.0332987
0.0438033
0.0445116
0.0444727
0.0444551
0.0444527
0.0444542
0.0444652
0.0445023
0.0444619
0.0437647
0.044411
0.0444081
0.04437
0.0443672
0.0443559
0.0443519
0.044351
0.044351
0.0443518
0.0443559
0.0443672
0.04437
0.0444081
0.044411
0.0437646
0.0444619
0.0445024
0.0444655
0.0444572
0.044473
0.0445117
0.0438029
0.0332992
0.0332987
0.0438032
0.0445116
0.0444727
0.0444551
0.0444525
0.0444526
0.044455
0.0444654
0.0444867
0.0444616
0.044466
0.044398
0.0443776
0.0443745
0.0443717
0.0443705
0.0443702
0.0443702
0.0443705
0.0443717
0.0443745
0.0443775
0.044398
0.044466
0.0444616
0.0444868
0.0444654
0.0444553
0.0444556
0.0444729
0.0445117
0.0438028
0.0332992
0.0332987
0.0438031
0.0445116
0.0444727
0.0444551
0.0444525
0.0444523
0.0444527
0.0444544
0.0444587
0.0444584
0.0444353
0.0443804
0.0443665
0.0443637
0.0443625
0.0443619
0.0443617
0.0443617
0.0443619
0.0443625
0.0443637
0.0443665
0.0443804
0.0444353
0.0444584
0.0444587
0.0444545
0.0444531
0.0444553
0.0444729
0.0445117
0.0438027
0.0332991
0.0332987
0.0438031
0.0445116
0.0444727
0.0444551
0.0444525
0.0444523
0.0444524
0.0444527
0.0444528
0.0444493
0.0444283
0.044377
0.0443643
0.0443615
0.0443606
0.0443601
0.0443599
0.0443599
0.0443601
0.0443606
0.0443615
0.0443643
0.044377
0.0444283
0.0444493
0.0444528
0.0444527
0.0444527
0.0444553
0.0444729
0.0445117
0.0438026
0.0332991
0.0332986
0.043803
0.0445116
0.0444727
0.0444551
0.0444525
0.0444523
0.0444524
0.0444525
0.044452
0.0444479
0.0444274
0.0443767
0.0443641
0.0443614
0.0443605
0.04436
0.0443598
0.0443598
0.04436
0.0443604
0.0443613
0.0443641
0.0443767
0.0444274
0.0444479
0.044452
0.0444525
0.0444527
0.0444553
0.0444729
0.0445117
0.0438026
0.033299
0.0332986
0.043803
0.0445116
0.0444727
0.0444551
0.0444525
0.0444523
0.0444524
0.0444525
0.044452
0.0444477
0.0444273
0.0443767
0.0443642
0.0443614
0.0443605
0.0443601
0.0443599
0.0443599
0.0443601
0.0443605
0.0443614
0.0443642
0.0443767
0.0444273
0.0444477
0.044452
0.0444525
0.0444527
0.0444553
0.0444729
0.0445117
0.0438025
0.033299
0.0332986
0.043803
0.0445116
0.0444727
0.0444551
0.0444525
0.0444523
0.0444524
0.0444525
0.044452
0.0444477
0.0444273
0.0443767
0.0443642
0.0443614
0.0443605
0.0443601
0.0443599
0.0443599
0.0443601
0.0443605
0.0443614
0.0443642
0.0443767
0.0444273
0.0444477
0.044452
0.0444525
0.0444527
0.0444553