/*--------------------------------*- C++ -*----------------------------------*\
| =========                 |                                                 |
| \\      /  F ield         | OpenFOAM: The Open Source CFD Toolbox           |
|  \\    /   O peration     | Version:  2112                                  |
|   \\  /    A nd           | Website:  www.openfoam.com                      |
|    \\/     M anipulation  |                                                 |
\*---------------------------------------------------------------------------*/
FoamFile
{
    version     2.0;
    format      ascii;
    arch        "LSB;label=32;scalar=64";
    class       volScalarField;
    location    "0.3";
    object      nut;
}
// * * * * * * * * * * * * * * * * * * * * * * * * * * * * * * * * * * * * * //

dimensions      [0 2 -1 0 0 0 0];

internalField   nonuniform List<scalar> 
64906
(
0.000302747
0.000303141
0.000303114
0.000303097
0.000303095
0.000303095
0.000303095
0.000303096
0.000303096
0.000303097
0.000303098
0.000303098
0.000303099
0.000303099
0.000303099
0.000303099
0.000303099
0.000303099
0.000303099
0.000303099
0.000303099
0.000303099
0.000303099
0.000303098
0.000303098
0.000303097
0.000303097
0.000303096
0.000303096
0.000303096
0.000303098
0.000303115
0.000303142
0.000302748
0.000303142
0.000314652
0.000315767
0.000315741
0.000315724
0.000315722
0.000315722
0.000315723
0.000315724
0.000315725
0.000315727
0.000315728
0.000315729
0.00031573
0.00031573
0.000315731
0.000315731
0.000315732
0.000315732
0.000315731
0.000315731
0.00031573
0.00031573
0.000315729
0.000315728
0.000315727
0.000315726
0.000315725
0.000315724
0.000315726
0.000315742
0.000315769
0.000314654
0.000303143
0.000303115
0.000315768
0.000316987
0.000316936
0.000316913
0.000316911
0.000316912
0.000316913
0.000316914
0.000316916
0.000316918
0.00031692
0.000316922
0.000316923
0.000316925
0.000316926
0.000316927
0.000316927
0.000316927
0.000316927
0.000316926
0.000316925
0.000316924
0.000316922
0.00031692
0.000316918
0.000316917
0.000316915
0.000316914
0.000316916
0.000316939
0.000316989
0.00031577
0.000303116
0.000303098
0.000315742
0.000316937
0.000316878
0.000316854
0.000316852
0.000316853
0.000316855
0.000316856
0.000316859
0.000316861
0.000316864
0.000316867
0.000316869
0.000316871
0.000316873
0.000316874
0.000316875
0.000316875
0.000316874
0.000316873
0.000316872
0.00031687
0.000316867
0.000316865
0.000316862
0.000316859
0.000316857
0.000316856
0.000316858
0.000316882
0.00031694
0.000315744
0.0003031
0.000303096
0.000315725
0.000316914
0.000316854
0.00031683
0.000316828
0.000316829
0.000316832
0.000316834
0.000316838
0.000316842
0.000316846
0.00031685
0.000316853
0.000316856
0.000316858
0.00031686
0.000316861
0.000316861
0.00031686
0.000316859
0.000316856
0.000316853
0.00031685
0.000316846
0.000316842
0.000316838
0.000316835
0.000316833
0.000316834
0.000316858
0.000316918
0.000315728
0.000303099
0.000303097
0.000315723
0.000316912
0.000316852
0.000316828
0.000316827
0.000316829
0.000316831
0.000316835
0.00031684
0.000316847
0.000316853
0.000316858
0.000316863
0.000316867
0.00031687
0.000316872
0.000316873
0.000316873
0.000316872
0.00031687
0.000316867
0.000316863
0.000316858
0.000316853
0.000316848
0.000316841
0.000316836
0.000316833
0.000316834
0.000316857
0.000316916
0.000315727
0.000303099
0.000303097
0.000315724
0.000316913
0.000316853
0.00031683
0.000316829
0.000316831
0.000316835
0.000316842
0.000316855
0.000316869
0.000316874
0.000316875
0.000316881
0.000316886
0.000316891
0.000316894
0.000316895
0.000316896
0.000316894
0.000316891
0.000316887
0.000316881
0.000316876
0.000316874
0.000316869
0.000316855
0.000316843
0.000316837
0.000316836
0.000316859
0.000316918
0.000315729
0.000303101
0.000303098
0.000315725
0.000316914
0.000316855
0.000316832
0.000316831
0.000316835
0.000316843
0.000316863
0.000316905
0.000316883
0.000316934
0.000316913
0.000316909
0.000316915
0.000316921
0.000316925
0.000316927
0.000316927
0.000316925
0.000316921
0.000316916
0.00031691
0.000316914
0.000316935
0.000316883
0.000316905
0.000316864
0.000316844
0.00031684
0.000316862
0.00031692
0.00031573
0.000303102
0.000303099
0.000315726
0.000316915
0.000316857
0.000316834
0.000316835
0.000316841
0.000316862
0.000316927
0.000316878
0.000315708
0.000316913
0.000316986
0.000316944
0.000316942
0.000316946
0.000316951
0.000316953
0.000316953
0.000316951
0.000316947
0.000316942
0.000316945
0.000316986
0.000316913
0.000315709
0.000316878
0.000316928
0.000316864
0.000316846
0.000316865
0.000316923
0.000315732
0.000303103
0.000303099
0.000315727
0.000316917
0.000316859
0.000316837
0.000316839
0.000316852
0.000316901
0.000316875
0.000314523
0.000303886
0.000314497
0.000316801
0.000316848
0.000316821
0.000316819
0.000316823
0.000316826
0.000316826
0.000316824
0.00031682
0.000316821
0.000316849
0.000316801
0.000314497
0.000303886
0.000314524
0.000316876
0.000316903
0.000316857
0.000316869
0.000316925
0.000315734
0.000303104
0.000303099
0.000315728
0.000316918
0.00031686
0.000316839
0.000316843
0.000316863
0.000316875
0.000315699
0.000303882
0.000303782
0.000315033
0.000316141
0.000316146
0.000316138
0.00031614
0.000316141
0.000316141
0.00031614
0.000316139
0.000316146
0.000316141
0.000315034
0.000303783
0.000303883
0.0003157
0.000316876
0.000316868
0.000316874
0.000316928
0.000315735
0.000303105
0.0003031
0.000315728
0.000316919
0.000316862
0.000316842
0.000316846
0.000316863
0.000316918
0.000316896
0.000314539
0.000303892
0.000314417
0.000316742
0.000316782
0.000316747
0.000316735
0.000316733
0.000316733
0.000316733
0.000316733
0.000316735
0.000316747
0.000316782
0.000316742
0.000314416
0.000303891
0.000314539
0.000316897
0.000316919
0.000316868
0.000316877
0.00031693
0.000315736
0.000303105
0.0003031
0.000315728
0.00031692
0.000316864
0.000316844
0.000316849
0.000316861
0.000316889
0.000316961
0.000316918
0.000315722
0.000316888
0.000316937
0.000316873
0.000316853
0.000316844
0.00031684
0.000316838
0.000316838
0.00031684
0.000316844
0.000316852
0.000316872
0.000316937
0.000316887
0.000315721
0.000316917
0.000316961
0.00031689
0.000316865
0.000316879
0.000316932
0.000315737
0.000303106
0.0003031
0.000315729
0.000316921
0.000316865
0.000316846
0.000316851
0.000316862
0.000316879
0.000316909
0.000316959
0.000316924
0.000316945
0.000316886
0.000316856
0.000316841
0.00031683
0.000316824
0.00031682
0.00031682
0.000316823
0.00031683
0.00031684
0.000316855
0.000316885
0.000316943
0.000316923
0.000316958
0.000316908
0.000316879
0.000316866
0.000316881
0.000316933
0.000315737
0.000303105
0.000303099
0.000315729
0.000316922
0.000316866
0.000316848
0.000316853
0.000316864
0.000316879
0.000316897
0.00031692
0.000316928
0.000316911
0.000316871
0.00031685
0.000316834
0.00031682
0.000316809
0.000316804
0.000316803
0.000316809
0.000316819
0.000316833
0.000316849
0.00031687
0.000316909
0.000316927
0.00031692
0.000316897
0.00031688
0.000316868
0.000316883
0.000316934
0.000315738
0.000303105
0.000303099
0.000315729
0.000316922
0.000316867
0.000316849
0.000316855
0.000316866
0.000316881
0.000316898
0.000316916
0.00031692
0.000316909
0.000316871
0.000316851
0.000316832
0.000316816
0.000316802
0.000316793
0.000316793
0.000316801
0.000316815
0.000316831
0.000316849
0.00031687
0.000316907
0.000316919
0.000316915
0.000316898
0.000316882
0.00031687
0.000316884
0.000316935
0.000315738
0.000303104
0.000303099
0.000315729
0.000316922
0.000316868
0.00031685
0.000316856
0.000316868
0.000316883
0.0003169
0.000316917
0.000316922
0.000316912
0.000316873
0.000316852
0.000316832
0.000316814
0.000316797
0.000316786
0.000316785
0.000316796
0.000316812
0.000316831
0.00031685
0.000316872
0.00031691
0.000316921
0.000316917
0.0003169
0.000316883
0.000316872
0.000316885
0.000316936
0.000315738
0.000303104
0.000303098
0.000315729
0.000316923
0.000316868
0.00031685
0.000316856
0.000316869
0.000316884
0.000316901
0.000316919
0.000316924
0.000316915
0.000316874
0.000316852
0.000316832
0.000316813
0.000316794
0.00031678
0.00031678
0.000316793
0.000316811
0.000316831
0.000316851
0.000316873
0.000316913
0.000316923
0.000316918
0.000316901
0.000316884
0.000316872
0.000316886
0.000316936
0.000315738
0.000303103
0.000303098
0.000315729
0.000316923
0.000316868
0.00031685
0.000316857
0.000316869
0.000316885
0.000316902
0.000316919
0.000316924
0.000316915
0.000316875
0.000316853
0.000316832
0.000316812
0.000316793
0.000316778
0.000316778
0.000316792
0.000316811
0.000316831
0.000316851
0.000316873
0.000316913
0.000316923
0.000316919
0.000316901
0.000316885
0.000316873
0.000316886
0.000316936
0.000315738
0.000303103
0.000303098
0.000315729
0.000316923
0.000316868
0.00031685
0.000316856
0.000316869
0.000316884
0.000316901
0.000316919
0.000316924
0.000316914
0.000316874
0.000316852
0.000316832
0.000316812
0.000316794
0.00031678
0.00031678
0.000316793
0.000316811
0.000316831
0.000316851
0.000316873
0.000316912
0.000316923
0.000316918
0.000316901
0.000316884
0.000316872
0.000316886
0.000316936
0.000315738
0.000303103
0.000303098
0.000315729
0.000316922
0.000316868
0.000316849
0.000316856
0.000316868
0.000316883
0.0003169
0.000316918
0.000316924
0.000316912
0.000316873
0.000316851
0.000316832
0.000316813
0.000316797
0.000316786
0.000316785
0.000316796
0.000316812
0.00031683
0.00031685
0.000316871
0.000316911
0.000316923
0.000316918
0.0003169
0.000316883
0.000316872
0.000316885
0.000316936
0.000315738
0.000303103
0.000303098
0.000315729
0.000316922
0.000316867
0.000316849
0.000316855
0.000316866
0.000316882
0.0003169
0.000316924
0.000316933
0.000316916
0.000316873
0.000316851
0.000316833
0.000316816
0.000316803
0.000316795
0.000316794
0.000316802
0.000316815
0.000316831
0.000316849
0.000316872
0.000316914
0.000316932
0.000316924
0.0003169
0.000316882
0.00031687
0.000316884
0.000316935
0.000315738
0.000303104
0.000303099
0.000315729
0.000316921
0.000316866
0.000316847
0.000316853
0.000316864
0.000316882
0.000316912
0.000316964
0.000316931
0.000316952
0.000316888
0.000316856
0.000316839
0.000316825
0.000316815
0.00031681
0.00031681
0.000316814
0.000316824
0.000316837
0.000316854
0.000316887
0.00031695
0.00031693
0.000316963
0.000316913
0.000316883
0.000316869
0.000316883
0.000316934
0.000315737
0.000303104
0.000303099
0.000315728
0.000316921
0.000316865
0.000316846
0.000316851
0.000316863
0.000316893
0.000316966
0.000316924
0.000315733
0.000316897
0.000316939
0.000316871
0.000316848
0.000316836
0.00031683
0.000316826
0.000316826
0.000316829
0.000316835
0.000316847
0.00031687
0.000316938
0.000316897
0.000315733
0.000316924
0.000316966
0.000316894
0.000316868
0.000316881
0.000316933
0.000315737
0.000303104
0.000303099
0.000315728
0.00031692
0.000316864
0.000316844
0.000316849
0.000316866
0.000316921
0.000316901
0.000314547
0.000303903
0.000314422
0.000316741
0.000316778
0.000316739
0.000316725
0.00031672
0.000316718
0.000316718
0.000316719
0.000316723
0.000316737
0.000316776
0.00031674
0.000314422
0.000303902
0.000314548
0.000316902
0.000316923
0.000316871
0.000316879
0.000316931
0.000315736
0.000303104
0.000303099
0.000315728
0.000316919
0.000316862
0.000316841
0.000316846
0.000316866
0.000316878
0.000315701
0.000303882
0.000303774
0.000315023
0.000316131
0.000316133
0.000316122
0.000316121
0.000316121
0.00031612
0.00031612
0.00031612
0.00031613
0.000316128
0.00031502
0.000303772
0.000303882
0.000315702
0.00031688
0.000316872
0.000316877
0.00031693
0.000315736
0.000303104
0.000303099
0.000315727
0.000316918
0.00031686
0.000316839
0.000316842
0.000316856
0.000316907
0.000316881
0.000314532
0.000303899
0.000314495
0.000316797
0.000316832
0.000316797
0.000316789
0.000316789
0.000316789
0.000316789
0.000316787
0.000316786
0.000316792
0.000316826
0.000316787
0.000314491
0.000303898
0.000314533
0.000316883
0.000316909
0.000316862
0.000316873
0.000316927
0.000315735
0.000303104
0.000303098
0.000315726
0.000316917
0.000316859
0.000316837
0.000316838
0.000316846
0.000316869
0.000316936
0.000316889
0.000315723
0.000316919
0.000316983
0.00031692
0.000316906
0.000316902
0.000316902
0.000316903
0.000316902
0.000316901
0.000316899
0.0003169
0.000316911
0.000316965
0.000316913
0.000315721
0.00031689
0.000316938
0.000316871
0.000316852
0.00031687
0.000316925
0.000315733
0.000303103
0.000303098
0.000315726
0.000316916
0.000316858
0.000316835
0.000316836
0.000316841
0.000316851
0.000316873
0.000316917
0.000316896
0.00031694
0.000316903
0.000316858
0.000316849
0.000316846
0.000316845
0.000316845
0.000316844
0.000316844
0.000316844
0.000316845
0.000316849
0.000316867
0.000316927
0.000316892
0.000316918
0.000316875
0.000316853
0.000316847
0.000316867
0.000316924
0.000315732
0.000303102
0.000303097
0.000315728
0.000316918
0.00031686
0.000316837
0.000316837
0.000316842
0.000316848
0.000316857
0.000316872
0.000316887
0.000316886
0.000316875
0.000316847
0.000316843
0.000316842
0.000316842
0.000316841
0.000316841
0.000316841
0.00031684
0.00031684
0.000316841
0.000316846
0.000316875
0.000316883
0.000316873
0.000316859
0.000316851
0.000316848
0.000316869
0.000316926
0.000315734
0.000303101
0.000303099
0.000315744
0.000316941
0.000316884
0.000316861
0.000316861
0.000316865
0.00031687
0.000316876
0.000316884
0.000316892
0.000316897
0.000316898
0.000316889
0.000316888
0.000316887
0.000316888
0.000316889
0.000316889
0.000316888
0.000316886
0.000316885
0.000316884
0.000316886
0.000316894
0.000316892
0.000316886
0.000316879
0.000316873
0.000316871
0.000316892
0.000316948
0.00031575
0.000303103
0.000303116
0.000315771
0.000316991
0.000316942
0.000316921
0.00031692
0.000316923
0.000316928
0.000316933
0.000316939
0.000316945
0.00031695
0.000316954
0.000316952
0.000316953
0.000316954
0.000316955
0.000316956
0.000316956
0.000316955
0.000316954
0.000316952
0.000316951
0.00031695
0.00031695
0.000316946
0.000316941
0.000316936
0.000316931
0.000316929
0.000316949
0.000316997
0.000315776
0.000303119
0.000303143
0.000314655
0.000315772
0.000315746
0.000315731
0.000315731
0.000315734
0.000315737
0.000315741
0.000315746
0.000315751
0.000315754
0.000315757
0.000315758
0.000315758
0.000315759
0.000315759
0.000315759
0.000315759
0.000315759
0.000315758
0.000315758
0.000315757
0.000315756
0.000315755
0.000315752
0.000315748
0.000315744
0.00031574
0.000315738
0.000315753
0.000315777
0.000314659
0.000303146
0.000302749
0.000303144
0.000303117
0.000303101
0.0003031
0.000303102
0.000303104
0.000303106
0.000303109
0.000303112
0.000303115
0.000303118
0.00030312
0.00030312
0.00030312
0.000303119
0.000303118
0.000303117
0.000303116
0.000303117
0.000303118
0.000303119
0.000303119
0.000303119
0.000303118
0.000303116
0.000303113
0.00030311
0.000303107
0.000303105
0.000303105
0.00030312
0.000303146
0.000302751
0.000456306
0.000462638
0.000463228
0.000463182
0.000463166
0.000463164
0.000463164
0.000463165
0.000463165
0.000463165
0.000463166
0.000463166
0.000463167
0.000463167
0.000463167
0.000463167
0.000463167
0.000463167
0.000463167
0.000463167
0.000463167
0.000463167
0.000463167
0.000463166
0.000463166
0.000463166
0.000463165
0.000463165
0.000463165
0.000463167
0.000463183
0.000463229
0.000462639
0.000456306
0.000462638
0.000988557
0.00104035
0.00104265
0.00104253
0.00104249
0.00104249
0.00104248
0.00104248
0.00104248
0.00104247
0.00104247
0.00104246
0.00104246
0.00104245
0.00104245
0.00104245
0.00104245
0.00104245
0.00104245
0.00104245
0.00104245
0.00104246
0.00104246
0.00104247
0.00104247
0.00104248
0.00104248
0.00104249
0.00104252
0.00104264
0.00104034
0.000988552
0.000462639
0.000463229
0.00104036
0.00110182
0.00110455
0.00110437
0.00110432
0.00110432
0.00110432
0.00110432
0.00110432
0.00110432
0.00110432
0.00110433
0.00110433
0.00110433
0.00110433
0.00110433
0.00110433
0.00110433
0.00110433
0.00110433
0.00110433
0.00110433
0.00110433
0.00110432
0.00110432
0.00110432
0.00110432
0.00110433
0.00110438
0.00110455
0.00110182
0.00104036
0.000463231
0.000463183
0.00104266
0.00110455
0.00110722
0.00110702
0.00110696
0.00110696
0.00110696
0.00110696
0.00110697
0.00110697
0.00110697
0.00110697
0.00110698
0.00110698
0.00110698
0.00110698
0.00110698
0.00110698
0.00110698
0.00110698
0.00110698
0.00110698
0.00110697
0.00110697
0.00110697
0.00110697
0.00110696
0.00110697
0.00110702
0.00110722
0.00110456
0.00104266
0.000463185
0.000463168
0.00104254
0.00110437
0.00110702
0.00110681
0.00110676
0.00110675
0.00110676
0.00110676
0.00110676
0.00110677
0.00110677
0.00110678
0.00110678
0.00110678
0.00110679
0.00110679
0.00110679
0.00110679
0.00110679
0.00110679
0.00110678
0.00110678
0.00110678
0.00110677
0.00110677
0.00110677
0.00110676
0.00110676
0.00110682
0.00110702
0.00110438
0.00104254
0.00046317
0.000463166
0.0010425
0.00110433
0.00110696
0.00110676
0.00110671
0.0011067
0.00110671
0.00110671
0.00110673
0.00110675
0.00110675
0.00110674
0.00110674
0.00110675
0.00110675
0.00110675
0.00110675
0.00110675
0.00110675
0.00110675
0.00110675
0.00110674
0.00110674
0.00110675
0.00110675
0.00110673
0.00110672
0.00110672
0.00110676
0.00110697
0.00110433
0.0010425
0.000463169
0.000463167
0.00104249
0.00110432
0.00110696
0.00110675
0.0011067
0.0011067
0.00110671
0.00110675
0.00110684
0.0011068
0.00110686
0.0011068
0.00110677
0.00110678
0.00110678
0.00110678
0.00110678
0.00110678
0.00110678
0.00110678
0.00110678
0.00110678
0.0011068
0.00110686
0.0011068
0.00110684
0.00110675
0.00110672
0.00110676
0.00110696
0.00110432
0.00104249
0.00046317
0.000463167
0.00104249
0.00110432
0.00110696
0.00110676
0.00110671
0.00110671
0.00110676
0.00110694
0.00110688
0.00110402
0.00110691
0.00110702
0.00110687
0.00110685
0.00110684
0.00110684
0.00110684
0.00110684
0.00110684
0.00110684
0.00110685
0.00110687
0.00110702
0.00110691
0.00110402
0.00110688
0.00110695
0.00110677
0.00110677
0.00110697
0.00110432
0.00104249
0.000463171
0.000463168
0.00104249
0.00110432
0.00110696
0.00110676
0.00110671
0.00110675
0.00110694
0.00110691
0.00109826
0.00104779
0.00109795
0.00110646
0.00110655
0.00110642
0.00110637
0.00110636
0.00110636
0.00110636
0.00110636
0.00110637
0.00110642
0.00110655
0.00110646
0.00109795
0.00104779
0.00109827
0.00110692
0.00110695
0.00110681
0.00110697
0.00110433
0.00104248
0.000463172
0.000463168
0.00104248
0.00110432
0.00110696
0.00110676
0.00110673
0.00110683
0.00110687
0.00109825
0.000993302
0.000475242
0.000990644
0.00109243
0.00110065
0.00110067
0.00110057
0.00110054
0.00110054
0.00110054
0.00110054
0.00110057
0.00110067
0.00110065
0.00109243
0.000990654
0.000475241
0.000993305
0.00109825
0.00110688
0.00110689
0.00110699
0.00110433
0.00104247
0.000463173
0.000463168
0.00104247
0.00110432
0.00110696
0.00110676
0.00110674
0.00110678
0.00110399
0.00104776
0.000475292
0.000473966
0.00102527
0.00107727
0.00107977
0.0010797
0.00107966
0.00107965
0.00107965
0.00107966
0.0010797
0.00107977
0.00107727
0.00102528
0.000473968
0.000475293
0.00104777
0.001104
0.00110685
0.001107
0.00110433
0.00104246
0.000463173
0.000463168
0.00104247
0.00110432
0.00110697
0.00110677
0.00110673
0.00110684
0.00110687
0.00109819
0.000992639
0.000475289
0.00098947
0.00109163
0.00109973
0.00109962
0.00109933
0.00109922
0.00109918
0.00109918
0.00109922
0.00109933
0.00109961
0.00109973
0.00109163
0.000989465
0.000475287
0.000992627
0.00109819
0.00110688
0.0011069
0.001107
0.00110433
0.00104245
0.000463174
0.000463168
0.00104246
0.00110432
0.00110697
0.00110677
0.00110672
0.00110676
0.00110696
0.00110692
0.00109816
0.00104746
0.0010975
0.00110527
0.00110498
0.00110463
0.00110444
0.00110435
0.00110432
0.00110432
0.00110435
0.00110444
0.00110463
0.00110498
0.00110526
0.00109749
0.00104746
0.00109816
0.00110692
0.00110697
0.00110683
0.00110699
0.00110433
0.00104244
0.000463173
0.000463168
0.00104246
0.00110432
0.00110697
0.00110677
0.00110672
0.00110673
0.00110679
0.00110697
0.00110689
0.00110395
0.00110661
0.00110575
0.00110519
0.00110493
0.00110479
0.00110473
0.0011047
0.0011047
0.00110473
0.00110479
0.00110492
0.00110518
0.00110575
0.00110661
0.00110395
0.00110689
0.00110698
0.0011068
0.00110679
0.00110698
0.00110433
0.00104243
0.000463173
0.000463167
0.00104245
0.00110432
0.00110697
0.00110677
0.00110672
0.00110673
0.00110674
0.00110679
0.00110687
0.00110678
0.00110659
0.00110557
0.00110513
0.00110491
0.00110479
0.00110473
0.00110471
0.00110471
0.00110473
0.00110479
0.0011049
0.00110513
0.00110556
0.00110659
0.00110678
0.00110687
0.00110679
0.00110675
0.00110679
0.00110699
0.00110433
0.00104242
0.000463172
0.000463167
0.00104245
0.00110432
0.00110697
0.00110677
0.00110672
0.00110673
0.00110674
0.00110676
0.00110677
0.00110674
0.00110649
0.00110555
0.00110514
0.00110492
0.00110482
0.00110476
0.00110474
0.00110474
0.00110476
0.00110482
0.00110492
0.00110514
0.00110554
0.00110649
0.00110674
0.00110677
0.00110676
0.00110675
0.00110679
0.00110699
0.00110433
0.00104242
0.000463171
0.000463166
0.00104245
0.00110432
0.00110697
0.00110677
0.00110673
0.00110673
0.00110674
0.00110675
0.00110676
0.00110671
0.00110648
0.00110556
0.00110516
0.00110495
0.00110484
0.00110479
0.00110476
0.00110476
0.00110479
0.00110484
0.00110494
0.00110516
0.00110556
0.00110648
0.00110671
0.00110676
0.00110676
0.00110675
0.00110679
0.00110699
0.00110433
0.00104241
0.00046317
0.000463166
0.00104245
0.00110432
0.00110697
0.00110677
0.00110673
0.00110673
0.00110674
0.00110675
0.00110676
0.00110671
0.00110648
0.00110557
0.00110517
0.00110496
0.00110485
0.0011048
0.00110478
0.00110478
0.0011048
0.00110485
0.00110496
0.00110517
0.00110557
0.00110648
0.00110671
0.00110676
0.00110676
0.00110675
0.00110679
0.00110699
0.00110433
0.00104241
0.00046317
0.000463166
0.00104245
0.00110432
0.00110697
0.00110677
0.00110673
0.00110673
0.00110674
0.00110676
0.00110676
0.00110671
0.00110648
0.00110557
0.00110517
0.00110496
0.00110485
0.0011048
0.00110478
0.00110478
0.0011048
0.00110485
0.00110496
0.00110517
0.00110557
0.00110648
0.00110671
0.00110676
0.00110676
0.00110675
0.00110679
0.00110699
0.00110433
0.00104241
0.00046317
0.000463166
0.00104245
0.00110432
0.00110697
0.00110677
0.00110673
0.00110673
0.00110674
0.00110676
0.00110676
0.00110672
0.00110648
0.00110556
0.00110517
0.00110495
0.00110485
0.00110479
0.00110477
0.00110477
0.00110479
0.00110485
0.00110495
0.00110517
0.00110556
0.00110648
0.00110672
0.00110676
0.00110676
0.00110675
0.00110679
0.00110699
0.00110433
0.00104241
0.00046317
0.000463166
0.00104245
0.00110432
0.00110697
0.00110677
0.00110673
0.00110673
0.00110674
0.00110676
0.00110678
0.00110674
0.00110649
0.00110556
0.00110515
0.00110493
0.00110483
0.00110477
0.00110475
0.00110475
0.00110477
0.00110483
0.00110493
0.00110515
0.00110556
0.00110649
0.00110674
0.00110678
0.00110676
0.00110675
0.00110679
0.00110699
0.00110433
0.00104241
0.00046317
0.000463167
0.00104245
0.00110432
0.00110697
0.00110677
0.00110672
0.00110673
0.00110675
0.00110679
0.00110688
0.00110678
0.0011066
0.00110559
0.00110515
0.00110492
0.00110481
0.00110475
0.00110473
0.00110473
0.00110475
0.00110481
0.00110492
0.00110515
0.00110558
0.0011066
0.00110678
0.00110688
0.0011068
0.00110676
0.00110679
0.00110699
0.00110433
0.00104242
0.000463171
0.000463167
0.00104245
0.00110432
0.00110697
0.00110677
0.00110672
0.00110673
0.00110679
0.00110698
0.0011069
0.00110397
0.00110662
0.00110578
0.00110521
0.00110495
0.00110482
0.00110476
0.00110473
0.00110473
0.00110476
0.00110483
0.00110496
0.00110522
0.00110578
0.00110662
0.00110397
0.0011069
0.00110698
0.0011068
0.0011068
0.00110699
0.00110433
0.00104242
0.000463171
0.000463167
0.00104246
0.00110432
0.00110697
0.00110677
0.00110673
0.00110677
0.00110696
0.00110693
0.00109818
0.00104754
0.00109753
0.00110531
0.00110503
0.00110468
0.00110449
0.0011044
0.00110437
0.00110437
0.0011044
0.00110449
0.00110468
0.00110503
0.00110531
0.00109754
0.00104755
0.00109818
0.00110693
0.00110697
0.00110683
0.00110699
0.00110433
0.00104243
0.000463172
0.000463167
0.00104246
0.00110432
0.00110697
0.00110677
0.00110674
0.00110684
0.00110688
0.0010982
0.000992707
0.000475307
0.000989553
0.00109168
0.00109979
0.00109967
0.00109939
0.00109928
0.00109925
0.00109925
0.00109928
0.0010994
0.00109968
0.00109979
0.00109168
0.000989583
0.000475306
0.00099272
0.00109821
0.00110689
0.0011069
0.001107
0.00110433
0.00104244
0.000463172
0.000463167
0.00104247
0.00110432
0.00110697
0.00110677
0.00110675
0.00110679
0.001104
0.00104777
0.000475283
0.000473944
0.00102516
0.00107724
0.00107974
0.00107966
0.00107962
0.00107961
0.00107961
0.00107962
0.00107966
0.00107973
0.00107723
0.00102515
0.000473938
0.000475282
0.00104777
0.00110401
0.00110685
0.00110701
0.00110433
0.00104245
0.000463172
0.000463167
0.00104248
0.00110432
0.00110697
0.00110677
0.00110673
0.00110684
0.00110687
0.00109826
0.000993316
0.000475266
0.000990465
0.00109238
0.00110062
0.00110062
0.00110052
0.00110049
0.00110049
0.00110049
0.00110049
0.00110052
0.00110062
0.00110061
0.00109236
0.000990447
0.000475266
0.000993319
0.00109826
0.00110689
0.0011069
0.001107
0.00110433
0.00104246
0.000463171
0.000463167
0.00104248
0.00110432
0.00110697
0.00110676
0.00110672
0.00110676
0.00110695
0.00110692
0.00109828
0.00104781
0.00109793
0.0011064
0.00110636
0.00110619
0.00110613
0.00110611
0.00110611
0.00110611
0.00110611
0.00110612
0.00110618
0.00110632
0.00110627
0.00109788
0.0010478
0.00109828
0.00110693
0.00110696
0.00110682
0.00110698
0.00110433
0.00104247
0.000463171
0.000463167
0.00104249
0.00110433
0.00110697
0.00110677
0.00110672
0.00110673
0.00110678
0.00110696
0.0011069
0.00110403
0.00110689
0.00110683
0.00110622
0.00110607
0.00110602
0.001106
0.001106
0.00110599
0.00110599
0.00110599
0.00110601
0.00110609
0.00110637
0.00110673
0.001104
0.00110689
0.00110696
0.00110679
0.00110679
0.00110698
0.00110434
0.00104248
0.00046317
0.000463168
0.00104253
0.00110438
0.00110702
0.00110682
0.00110677
0.00110677
0.00110678
0.00110682
0.00110691
0.00110687
0.00110689
0.00110667
0.00110618
0.00110603
0.00110599
0.00110597
0.00110597
0.00110597
0.00110596
0.00110596
0.00110597
0.00110602
0.00110619
0.00110673
0.00110683
0.0011069
0.00110683
0.00110679
0.00110683
0.00110703
0.00110438
0.00104252
0.000463171
0.000463184
0.00104265
0.00110456
0.00110722
0.00110702
0.00110697
0.00110697
0.00110698
0.00110699
0.00110701
0.00110702
0.00110701
0.00110695
0.00110681
0.00110677
0.00110676
0.00110676
0.00110676
0.00110676
0.00110676
0.00110676
0.00110676
0.00110677
0.00110681
0.00110696
0.00110701
0.00110701
0.00110699
0.00110699
0.00110704
0.00110723
0.00110456
0.00104264
0.000463187
0.00046323
0.00104035
0.00110183
0.00110456
0.00110438
0.00110433
0.00110433
0.00110433
0.00110434
0.00110434
0.00110435
0.00110434
0.00110433
0.0011043
0.00110429
0.00110428
0.00110428
0.00110428
0.00110428
0.00110428
0.00110428
0.00110428
0.00110429
0.0011043
0.00110433
0.00110434
0.00110434
0.00110434
0.00110434
0.00110439
0.00110456
0.00110183
0.00104034
0.000463233
0.000462639
0.000988548
0.00104035
0.00104265
0.00104253
0.0010425
0.00104249
0.00104248
0.00104248
0.00104247
0.00104245
0.00104243
0.0010424
0.00104235
0.00104233
0.0010423
0.00104229
0.00104228
0.00104228
0.00104229
0.0010423
0.00104231
0.00104233
0.00104236
0.00104241
0.00104244
0.00104246
0.00104247
0.00104249
0.00104253
0.00104265
0.00104035
0.000988537
0.000462642
0.000456307
0.00046264
0.000463231
0.000463186
0.000463171
0.00046317
0.000463172
0.000463174
0.000463177
0.000463179
0.000463182
0.000463184
0.000463185
0.000463185
0.000463184
0.000463182
0.000463181
0.00046318
0.00046318
0.00046318
0.000463181
0.000463182
0.000463183
0.000463184
0.000463184
0.000463182
0.00046318
0.000463178
0.000463175
0.000463175
0.000463189
0.000463234
0.000462642
0.000456309
0.000464923
0.00047321
0.000474124
0.00047408
0.000474058
0.000474055
0.000474055
0.000474055
0.000474056
0.000474056
0.000474056
0.000474057
0.000474057
0.000474057
0.000474058
0.000474058
0.000474058
0.000474058
0.000474058
0.000474058
0.000474058
0.000474058
0.000474057
0.000474057
0.000474057
0.000474056
0.000474056
0.000474056
0.000474056
0.000474059
0.00047408
0.000474125
0.000473211
0.000464924
0.00047321
0.00111866
0.00119314
0.00119719
0.00119708
0.00119703
0.00119702
0.00119701
0.00119701
0.001197
0.001197
0.00119699
0.00119698
0.00119697
0.00119697
0.00119696
0.00119696
0.00119696
0.00119696
0.00119696
0.00119696
0.00119697
0.00119697
0.00119698
0.00119699
0.00119699
0.001197
0.00119701
0.00119702
0.00119707
0.00119718
0.00119313
0.00111865
0.000473211
0.000474125
0.00119315
0.0012847
0.00128986
0.00128971
0.00128963
0.00128962
0.00128962
0.00128962
0.00128962
0.00128962
0.00128962
0.00128962
0.00128962
0.00128962
0.00128962
0.00128962
0.00128962
0.00128962
0.00128962
0.00128962
0.00128962
0.00128962
0.00128962
0.00128962
0.00128962
0.00128962
0.00128962
0.00128963
0.0012897
0.00128986
0.0012847
0.00119315
0.000474126
0.000474081
0.0011972
0.00128987
0.001295
0.00129481
0.00129473
0.00129472
0.00129472
0.00129473
0.00129473
0.00129473
0.00129473
0.00129473
0.00129473
0.00129473
0.00129473
0.00129473
0.00129473
0.00129473
0.00129473
0.00129473
0.00129473
0.00129473
0.00129473
0.00129473
0.00129473
0.00129473
0.00129473
0.00129474
0.00129481
0.001295
0.00128987
0.0011972
0.000474082
0.000474059
0.00119709
0.00128971
0.00129481
0.00129461
0.00129454
0.00129453
0.00129453
0.00129453
0.00129453
0.00129454
0.00129454
0.00129454
0.00129454
0.00129454
0.00129454
0.00129454
0.00129454
0.00129454
0.00129454
0.00129454
0.00129454
0.00129454
0.00129454
0.00129454
0.00129454
0.00129453
0.00129453
0.00129454
0.00129462
0.00129481
0.00128971
0.00119709
0.000474061
0.000474057
0.00119704
0.00128964
0.00129473
0.00129454
0.00129446
0.00129445
0.00129445
0.00129446
0.00129448
0.0012945
0.00129449
0.00129448
0.00129448
0.00129448
0.00129448
0.00129448
0.00129448
0.00129448
0.00129448
0.00129448
0.00129448
0.00129448
0.00129448
0.00129449
0.0012945
0.00129448
0.00129446
0.00129446
0.00129454
0.00129474
0.00128964
0.00119704
0.000474059
0.000474057
0.00119703
0.00128963
0.00129472
0.00129453
0.00129445
0.00129444
0.00129446
0.00129451
0.00129461
0.00129449
0.00129464
0.00129456
0.00129452
0.00129452
0.00129452
0.00129451
0.00129451
0.00129451
0.00129451
0.00129452
0.00129452
0.00129452
0.00129456
0.00129464
0.00129449
0.00129461
0.00129451
0.00129447
0.00129453
0.00129473
0.00128963
0.00119702