/*--------------------------------*- C++ -*----------------------------------*\
| =========                 |                                                 |
| \\      /  F ield         | OpenFOAM: The Open Source CFD Toolbox           |
|  \\    /   O peration     | Version:  2112                                  |
|   \\  /    A nd           | Website:  www.openfoam.com                      |
|    \\/     M anipulation  |                                                 |
\*---------------------------------------------------------------------------*/
FoamFile
{
    version     2.0;
    format      ascii;
    arch        "LSB;label=32;scalar=64";
    class       volScalarField;
    location    "0.3";
    object      p;
}
// * * * * * * * * * * * * * * * * * * * * * * * * * * * * * * * * * * * * * //

dimensions      [0 2 -2 0 0 0 0];

internalField   nonuniform List<scalar> 
64906
(
-2.46809e-05
-2.47094e-05
-2.48083e-05
-2.4985e-05
-2.52356e-05
-2.5556e-05
-2.59422e-05
-2.63903e-05
-2.68931e-05
-2.74424e-05
-2.80198e-05
-2.86095e-05
-2.91781e-05
-2.97038e-05
-3.01616e-05
-3.05347e-05
-3.08091e-05
-3.09765e-05
-3.10326e-05
-3.09776e-05
-3.08166e-05
-3.05586e-05
-3.02183e-05
-2.98127e-05
-2.93676e-05
-2.89048e-05
-2.84578e-05
-2.80423e-05
-2.76767e-05
-2.73695e-05
-2.71288e-05
-2.69606e-05
-2.68699e-05
-2.68442e-05
-2.46985e-05
-2.46454e-05
-2.47083e-05
-2.48684e-05
-2.51072e-05
-2.54162e-05
-2.57903e-05
-2.62263e-05
-2.67169e-05
-2.72557e-05
-2.78221e-05
-2.8403e-05
-2.89597e-05
-2.94735e-05
-2.99184e-05
-3.02804e-05
-3.05462e-05
-3.07088e-05
-3.07644e-05
-3.07132e-05
-3.05599e-05
-3.03121e-05
-2.99837e-05
-2.95892e-05
-2.91551e-05
-2.87002e-05
-2.82634e-05
-2.78574e-05
-2.7503e-05
-2.72075e-05
-2.69807e-05
-2.6834e-05
-2.67912e-05
-2.68743e-05
-2.48633e-05
-2.47764e-05
-2.48254e-05
-2.49868e-05
-2.52366e-05
-2.55639e-05
-2.59639e-05
-2.64356e-05
-2.69734e-05
-2.75756e-05
-2.82158e-05
-2.8886e-05
-2.95226e-05
-3.0108e-05
-3.06085e-05
-3.10127e-05
-3.13061e-05
-3.14829e-05
-3.15392e-05
-3.14756e-05
-3.12963e-05
-3.10081e-05
-3.0626e-05
-3.0162e-05
-2.96507e-05
-2.91094e-05
-2.86027e-05
-2.81373e-05
-2.77406e-05
-2.74153e-05
-2.71714e-05
-2.70222e-05
-2.69977e-05
-2.71259e-05
-2.51672e-05
-2.50671e-05
-2.51191e-05
-2.52983e-05
-2.55788e-05
-2.5949e-05
-2.6406e-05
-2.69536e-05
-2.759e-05
-2.83249e-05
-2.91216e-05
-2.99852e-05
-3.07924e-05
-3.15295e-05
-3.21477e-05
-3.26415e-05
-3.29943e-05
-3.32018e-05
-3.32602e-05
-3.31696e-05
-3.29349e-05
-3.2561e-05
-3.20655e-05
-3.14545e-05
-3.07784e-05
-3.00499e-05
-2.93948e-05
-2.88052e-05
-2.83192e-05
-2.79287e-05
-2.76413e-05
-2.74674e-05
-2.74393e-05
-2.75857e-05
-2.56025e-05
-2.54924e-05
-2.55565e-05
-2.57666e-05
-2.60943e-05
-2.65284e-05
-2.70685e-05
-2.77265e-05
-2.85091e-05
-2.94508e-05
-3.05007e-05
-3.17016e-05
-3.27908e-05
-3.37718e-05
-3.45732e-05
-3.52061e-05
-3.56505e-05
-3.59056e-05
-3.59669e-05
-3.58347e-05
-3.55143e-05
-3.50073e-05
-3.43349e-05
-3.34866e-05
-3.25366e-05
-3.14798e-05
-3.0584e-05
-2.97998e-05
-2.91809e-05
-2.86944e-05
-2.83412e-05
-2.81263e-05
-2.80835e-05
-2.82457e-05
-2.61588e-05
-2.60369e-05
-2.61192e-05
-2.6372e-05
-2.67631e-05
-2.72807e-05
-2.79269e-05
-2.87248e-05
-2.96963e-05
-3.09275e-05
-3.23577e-05
-3.41379e-05
-3.56676e-05
-3.70132e-05
-3.80765e-05
-3.89086e-05
-3.9484e-05
-3.98072e-05
-3.98727e-05
-3.96806e-05
-3.92373e-05
-3.85388e-05
-3.76122e-05
-3.64072e-05
-3.50267e-05
-3.34012e-05
-3.21435e-05
-3.10858e-05
-3.02946e-05
-2.96856e-05
-2.92473e-05
-2.89773e-05
-2.89132e-05
-2.90954e-05
-2.68259e-05
-2.66898e-05
-2.67967e-05
-2.7105e-05
-2.75774e-05
-2.81993e-05
-2.89735e-05
-2.99341e-05
-3.11269e-05
-3.27396e-05
-3.47111e-05
-3.7553e-05
-3.97645e-05
-4.16362e-05
-4.30583e-05
-4.41671e-05
-4.49249e-05
-4.53438e-05
-4.54149e-05
-4.51383e-05
-4.45233e-05
-4.35579e-05
-4.22816e-05
-4.05588e-05
-3.85074e-05
-3.58295e-05
-3.40602e-05
-3.26402e-05
-3.16469e-05
-3.08944e-05
-3.03521e-05
-3.00118e-05
-2.99191e-05
-3.01266e-05
-2.75922e-05
-2.74401e-05
-2.75797e-05
-2.79603e-05
-2.85379e-05
-2.92918e-05
-3.02197e-05
-3.13528e-05
-3.27597e-05
-3.47619e-05
-3.74089e-05
-4.23196e-05
-4.55247e-05
-4.81223e-05
-5.00323e-05
-5.15295e-05
-5.25479e-05
-5.31042e-05
-5.31831e-05
-5.27845e-05
-5.19234e-05
-5.05824e-05
-4.88287e-05
-4.63868e-05
-4.33507e-05
-3.86048e-05
-3.62146e-05
-3.44252e-05
-3.32374e-05
-3.23317e-05
-3.16612e-05
-3.12279e-05
-3.10939e-05
-3.13304e-05
-2.84419e-05
-2.82722e-05
-2.84541e-05
-2.89272e-05
-2.96407e-05
-3.05666e-05
-3.16911e-05
-3.30167e-05
-3.45844e-05
-3.69803e-05
-4.01375e-05
-4.949e-05
-5.39103e-05
-5.7416e-05
-5.99651e-05
-6.19825e-05
-6.33615e-05
-6.41093e-05
-6.41993e-05
-6.36309e-05
-6.24298e-05
-6.05865e-05
-5.82067e-05
-5.48595e-05
-5.06134e-05
-4.13963e-05
-3.86168e-05
-3.64405e-05
-3.51072e-05
-3.40236e-05
-3.31807e-05
-3.26177e-05
-3.24224e-05
-3.26901e-05
-2.93556e-05
-2.91686e-05
-2.94067e-05
-3.00013e-05
-3.09016e-05
-3.20795e-05
-3.35194e-05
-3.51316e-05
-3.69245e-05
-3.94711e-05
-3.77905e-05
-5.90476e-05
-6.46458e-05
-6.9365e-05
-7.28889e-05
-7.56742e-05
-7.75859e-05
-7.86075e-05
-7.87124e-05
-7.78999e-05
-7.61953e-05
-7.36105e-05
-7.02761e-05
-6.57205e-05
-6.03046e-05
-3.89745e-05
-4.1344e-05
-3.90074e-05
-3.74575e-05
-3.60955e-05
-3.49585e-05
-3.41884e-05
-3.38913e-05
-3.41857e-05
-3.03038e-05
-3.00986e-05
-3.04011e-05
-3.1137e-05
-3.22628e-05
-3.377e-05
-3.56618e-05
-3.78117e-05
-3.98909e-05
-3.79278e-05
-8.27686e-05
-8.10446e-05
-8.49124e-05
-8.92466e-05
-9.27974e-05
-9.53031e-05
-9.66268e-05
-9.67511e-05
-9.56753e-05
-9.34152e-05
-9.01021e-05
-8.59903e-05
-8.22957e-05
-8.40308e-05
-4.04782e-05
-4.23732e-05
-4.04301e-05
-3.85059e-05
-3.69284e-05
-3.58725e-05
-3.54417e-05
-3.57629e-05
-3.12583e-05
-3.10372e-05
-3.1417e-05
-3.2325e-05
-3.3748e-05
-3.57562e-05
-3.85533e-05
-4.24667e-05
-4.84724e-05
-5.72337e-05
-7.86772e-05
-8.20733e-05
-9.13976e-05
-9.93453e-05
-0.000106389
-0.000111589
-0.00011507
-0.000116841
-0.000116986
-0.000115504
-0.000112312
-0.000107402
-0.000100652
-9.30016e-05
-8.40017e-05
-8.116e-05
-5.97299e-05
-5.11336e-05
-4.53111e-05
-4.16439e-05
-3.91865e-05
-3.76777e-05
-3.70463e-05
-3.73803e-05
-3.2175e-05
-3.19358e-05
-3.23807e-05
-3.34321e-05
-3.50875e-05
-3.74438e-05
-4.0752e-05
-4.53488e-05
-5.20174e-05
-6.09641e-05
-7.58128e-05
-8.64191e-05
-9.89852e-05
-0.00010933
-0.000118123
-0.000124405
-0.000128547
-0.000130628
-0.000130789
-0.00012903
-0.000125212
-0.000119256
-0.000110796
-0.000100782
-8.85503e-05
-7.83128e-05
-6.36513e-05
-5.48801e-05
-4.84116e-05
-4.40778e-05
-4.11348e-05
-3.9326e-05
-3.85557e-05
-3.89173e-05
-3.30253e-05
-3.27695e-05
-3.32711e-05
-3.44462e-05
-3.62958e-05
-3.89282e-05
-4.26049e-05
-4.7646e-05
-5.47288e-05
-6.39842e-05
-7.69837e-05
-8.95371e-05
-0.00010426
-0.000116291
-0.000126351
-0.000133439
-0.000138082
-0.0001404
-0.000140574
-0.000138606
-0.000134317
-0.000127584
-0.000117886
-0.00010621
-9.18435e-05
-7.95925e-05
-6.68158e-05
-5.77597e-05
-5.09004e-05
-4.61433e-05
-4.28597e-05
-4.08219e-05
-3.99427e-05
-4.03308e-05
-3.37795e-05
-3.35076e-05
-3.40509e-05
-3.53171e-05
-3.7303e-05
-4.0114e-05
-4.40021e-05
-4.92651e-05
-5.65025e-05
-6.58637e-05
-7.84465e-05
-9.18682e-05
-0.000107736
-0.000120661
-0.000131445
-0.000139013
-0.000143964
-0.000146432
-0.000146618
-0.000144524
-0.000139949
-0.000132757
-0.000122356
-0.000109801
-9.43022e-05
-8.1169e-05
-6.88291e-05
-5.96847e-05
-5.26892e-05
-4.77299e-05
-4.42611e-05
-4.20865e-05
-4.11437e-05
-4.15626e-05
-3.44193e-05
-3.41342e-05
-3.47085e-05
-3.6042e-05
-3.81259e-05
-4.10604e-05
-4.50872e-05
-5.04906e-05
-5.78296e-05
-6.72859e-05
-7.98555e-05
-9.37519e-05
-0.000110233
-0.000123702
-0.00013495
-0.000142839
-0.000148001
-0.000150574
-0.000150772
-0.000148593
-0.000143827
-0.000136333
-0.000125485
-0.000112397
-9.62948e-05
-8.26874e-05
-7.03732e-05
-6.11457e-05
-5.40628e-05
-4.89794e-05
-4.53945e-05
-4.31309e-05
-4.2148e-05
-4.2593e-05
-3.49305e-05
-3.4636e-05
-3.52319e-05
-3.66122e-05
-3.8763e-05
-4.17803e-05
-4.58991e-05
-5.13987e-05
-5.88227e-05
-6.83839e-05
-8.10498e-05
-9.52388e-05
-0.000112097
-0.000125913
-0.000137464
-0.000145573
-0.000150883
-0.000153534
-0.000153741
-0.000151506
-0.000146611
-0.000138914
-0.000127777
-0.000114352
-9.78798e-05
-8.39832e-05
-7.15804e-05
-6.22557e-05
-5.50976e-05
-4.99301e-05
-4.627e-05
-4.39494e-05
-4.29416e-05
-4.34063e-05
-3.53053e-05
-3.50062e-05
-3.56172e-05
-3.70288e-05
-3.92245e-05
-4.22989e-05
-4.64844e-05
-5.20605e-05
-5.95675e-05
-6.92357e-05
-8.20257e-05
-9.6423e-05
-0.000113532
-0.000127586
-0.000139345
-0.000147613
-0.000153033
-0.000155743
-0.000155962
-0.000153688
-0.000148702
-0.000140863
-0.000129529
-0.000115876
-9.91573e-05
-8.50542e-05
-7.25302e-05
-6.31018e-05
-5.58656e-05
-5.06284e-05
-4.69117e-05
-4.45503e-05
-4.35237e-05
-4.39981e-05
-3.55395e-05
-3.52412e-05
-3.58615e-05
-3.72909e-05
-3.9513e-05
-4.26234e-05
-4.68568e-05
-5.2496e-05
-6.00851e-05
-6.98592e-05
-8.27804e-05
-9.73326e-05
-0.000114608
-0.000128818
-0.000140715
-0.000149093
-0.000154593
-0.00015735
-0.00015758
-0.000155283
-0.000150239
-0.000142307
-0.000130847
-0.000117044
-0.00010016
-8.59e-05
-7.32427e-05
-6.37066e-05
-5.63878e-05
-5.10886e-05
-4.7327e-05
-4.49354e-05
-4.3893e-05
-4.43663e-05
-3.56323e-05
-3.534e-05
-3.59643e-05
-3.73979e-05
-3.96275e-05
-4.27527e-05
-4.70146e-05
-5.27027e-05
-6.03732e-05
-7.02548e-05
-8.33199e-05
-9.79844e-05
-0.000115348
-0.000129641
-0.000141607
-0.00015005
-0.000155601
-0.000158393
-0.000158638
-0.000156333
-0.000151262
-0.000143284
-0.000131767
-0.000117886
-0.00010091
-8.65304e-05
-7.37212e-05
-6.40703e-05
-5.66639e-05
-5.13104e-05
-4.75158e-05
-4.51048e-05
-4.40494e-05
-4.45109e-05
-3.5587e-05
-3.53057e-05
-3.59272e-05
-3.73496e-05
-3.95644e-05
-4.26775e-05
-4.69409e-05
-5.26561e-05
-6.0405e-05
-7.04023e-05
-8.36567e-05
-9.83877e-05
-0.000115736
-0.000130019
-0.000141973
-0.00015043
-0.000156001
-0.000158815
-0.000159077
-0.000156784
-0.000151723
-0.000143756
-0.000132265
-0.000118397
-0.000101427
-8.69637e-05
-7.39497e-05
-6.41693e-05
-5.66722e-05
-5.128e-05
-4.74715e-05
-4.50574e-05
-4.3995e-05
-4.44348e-05
-3.54105e-05
-3.51438e-05
-3.57534e-05
-3.7144e-05
-3.93128e-05
-4.2372e-05
-4.65871e-05
-5.22797e-05
-6.00855e-05
-7.0217e-05
-8.38017e-05
-9.85122e-05
-0.000115655
-0.000129763
-0.000141563
-0.000149949
-0.00015549
-0.000158307
-0.000158592
-0.00015634
-0.000151348
-0.000143484
-0.000132165
-0.000118477
-0.000101693
-8.72174e-05
-7.38484e-05
-6.39131e-05
-5.63405e-05
-5.09524e-05
-4.7172e-05
-4.4786e-05
-4.37312e-05
-4.41428e-05
-3.51159e-05
-3.48669e-05
-3.54546e-05
-3.67908e-05
-3.88766e-05
-4.18269e-05
-4.59182e-05
-5.14973e-05
-5.92902e-05
-6.95322e-05
-8.38869e-05
-9.8406e-05
-0.000114872
-0.000128505
-0.000139927
-0.000148114
-0.000153553
-0.000156347
-0.000156662
-0.000154491
-0.000149656
-0.00014204
-0.000131129
-0.000117926
-0.000101781
-8.74308e-05
-7.32582e-05
-6.31851e-05
-5.55998e-05
-5.02995e-05
-4.66143e-05
-4.43007e-05
-4.32739e-05
-4.3652e-05
-3.47202e-05
-3.44896e-05
-3.50414e-05
-3.62927e-05
-3.82402e-05
-4.09872e-05
-4.47971e-05
-5.00278e-05
-5.75046e-05
-6.76042e-05
-8.417e-05
-9.79913e-05
-0.000112828
-0.000125248
-0.00013579
-0.000143499
-0.000148682
-0.000151394
-0.000151748
-0.000149742
-0.000145241
-0.000138179
-0.000128198
-0.000116236
-0.000101661
-8.78571e-05
-7.14475e-05
-6.14838e-05
-5.41796e-05
-4.91921e-05
-4.57499e-05
-4.35928e-05
-4.26341e-05
-4.29816e-05
-3.42521e-05
-3.4042e-05
-3.45519e-05
-3.57033e-05
-3.74834e-05
-3.99698e-05
-4.33794e-05
-4.8046e-05
-5.49886e-05
-6.50927e-05
-8.75001e-05
-9.66798e-05
-0.000109043
-0.000119639
-0.000128908
-0.000135961
-0.0001408
-0.000143397
-0.000143804
-0.000142021
-0.000137974
-0.000131689
-0.000123069
-0.000113001
-0.00010076
-9.12512e-05
-6.91123e-05
-5.91017e-05
-5.22741e-05
-4.7798e-05
-4.47051e-05
-4.27516e-05
-4.18781e-05
-4.21899e-05
-3.37371e-05
-3.35454e-05
-3.40021e-05
-3.50277e-05
-3.65812e-05
-3.86648e-05
-4.12879e-05
-4.42819e-05
-4.71666e-05
-4.49232e-05
-0.000105566
-0.000104214
-0.000110631
-0.000117611
-0.000123508
-0.000127745
-0.000130127
-0.000130597
-0.000129164
-0.000125863
-0.000120908
-0.000114715
-0.000109042
-0.000110544
-4.92606e-05
-5.15176e-05
-4.86315e-05
-4.57473e-05
-4.33737e-05
-4.17572e-05
-4.10212e-05
-4.13099e-05
-3.32171e-05
-3.30469e-05
-3.34657e-05
-3.44027e-05
-3.5819e-05
-3.77221e-05
-4.01659e-05
-4.31854e-05
-4.71028e-05
-5.27136e-05
-5.80378e-05
-8.11875e-05
-9.08437e-05
-9.97579e-05
-0.000106977
-0.000112879
-0.000117003
-0.000119354
-0.000119885
-0.000118623
-0.000115594
-0.000110852
-0.0001046
-9.66585e-05
-8.69574e-05
-6.42619e-05
-5.79261e-05
-5.18888e-05
-4.77319e-05
-4.46875e-05
-4.24072e-05
-4.08984e-05
-4.02111e-05
-4.04574e-05
-3.27152e-05
-3.25644e-05
-3.29501e-05
-3.38104e-05
-3.51114e-05
-3.68708e-05
-3.91594e-05
-4.21086e-05
-4.598e-05
-5.15193e-05
-5.9803e-05
-7.33399e-05
-8.26572e-05
-9.14758e-05
-9.85166e-05
-0.000104221
-0.000108153
-0.000110415
-0.000110985
-0.000109902
-0.000107176
-0.000102808
-9.68615e-05
-8.92041e-05
-7.96715e-05
-6.60358e-05
-5.69575e-05
-5.09416e-05
-4.67487e-05
-4.37002e-05
-4.15116e-05
-4.0085e-05
-3.94355e-05
-3.9645e-05
-3.22593e-05
-3.21277e-05
-3.24905e-05
-3.32958e-05
-3.45177e-05
-3.61849e-05
-3.83822e-05
-4.12653e-05
-4.50933e-05
-5.036e-05
-5.74929e-05
-6.73284e-05
-7.61684e-05
-8.50494e-05
-9.2127e-05
-9.77832e-05
-0.000101624
-0.000103833
-0.000104427
-0.000103455
-0.000100903
-9.6731e-05
-9.08661e-05
-8.32937e-05
-7.41175e-05
-6.39671e-05
-5.59936e-05
-5.01584e-05
-4.5942e-05
-4.29079e-05
-4.07653e-05
-3.93829e-05
-3.87489e-05
-3.89206e-05
-3.18672e-05
-3.17527e-05
-3.20981e-05
-3.28586e-05
-3.40127e-05
-3.55921e-05
-3.76787e-05
-4.04165e-05
-4.40047e-05
-4.87861e-05
-5.48827e-05
-6.26827e-05
-7.05297e-05
-7.86942e-05
-8.52522e-05
-9.04991e-05
-9.40617e-05
-9.61213e-05
-9.67025e-05
-9.58554e-05
-9.3556e-05
-8.97676e-05
-8.43821e-05
-7.75742e-05
-6.93344e-05
-6.11717e-05
-5.43067e-05
-4.89869e-05
-4.50261e-05
-4.2136e-05
-4.009e-05
-3.87676e-05
-3.81544e-05
-3.82966e-05
-3.15574e-05
-3.14599e-05
-3.17956e-05
-3.25226e-05
-3.36215e-05
-3.51206e-05
-3.70887e-05
-3.96383e-05
-4.2905e-05
-4.70907e-05
-5.22355e-05
-5.85022e-05
-6.50475e-05
-7.18685e-05
-7.75116e-05
-8.20527e-05
-8.5186e-05
-8.70181e-05
-8.75568e-05
-8.68388e-05
-8.48482e-05
-8.15768e-05
-7.69665e-05
-7.12379e-05
-6.44758e-05
-5.79555e-05
-5.22575e-05
-4.76643e-05
-4.41082e-05
-4.14449e-05
-3.95284e-05
-3.82749e-05
-3.7683e-05
-3.77995e-05
-3.13465e-05
-3.12743e-05
-3.1613e-05
-3.23215e-05
-3.33823e-05
-3.48198e-05
-3.66895e-05
-3.90749e-05
-4.20651e-05
-4.57764e-05
-5.02071e-05
-5.54076e-05
-6.0891e-05
-6.65448e-05
-7.13526e-05
-7.52597e-05
-7.80106e-05
-7.96402e-05
-8.01373e-05
-7.95245e-05
-7.77971e-05
-7.49724e-05
-7.10489e-05
-6.62493e-05
-6.07169e-05
-5.53842e-05
-5.05949e-05
-4.66024e-05
-4.34097e-05
-4.09565e-05
-3.91569e-05
-3.79598e-05
-3.73753e-05
-3.74559e-05
-3.12474e-05
-3.12347e-05
-3.16018e-05
-3.2315e-05
-3.33663e-05
-3.47802e-05
-3.66033e-05
-3.88984e-05
-4.1726e-05
-4.51497e-05
-4.91472e-05
-5.36984e-05
-5.8474e-05
-6.33047e-05
-6.75155e-05
-7.0974e-05
-7.34586e-05
-7.49477e-05
-7.54132e-05
-7.48656e-05
-7.3311e-05
-7.07875e-05
-6.73413e-05
-6.3185e-05
-5.85004e-05
-5.39224e-05
-4.97174e-05
-4.61124e-05
-4.31532e-05
-4.08291e-05
-3.90937e-05
-3.79141e-05
-3.72974e-05
-3.72895e-05
-3.12572e-05
-3.13831e-05
-3.18129e-05
-3.25583e-05
-3.36392e-05
-3.50864e-05
-3.6945e-05
-3.92715e-05
-4.21184e-05
-4.55318e-05
-4.94881e-05
-5.39378e-05
-5.86039e-05
-6.32759e-05
-6.74021e-05
-7.07996e-05
-7.32645e-05
-7.47452e-05
-7.52084e-05
-7.46584e-05
-7.31077e-05
-7.06028e-05
-6.72161e-05
-6.31528e-05
-5.86302e-05
-5.41787e-05
-5.00675e-05
-4.65046e-05
-4.35521e-05
-4.12122e-05
-3.94501e-05
-3.823e-05
-3.75212e-05
-3.73012e-05
-2.47526e-05
-2.48155e-05
-2.49394e-05
-2.51344e-05
-2.54027e-05
-2.57426e-05
-2.61517e-05
-2.66265e-05
-2.71599e-05
-2.77445e-05
-2.83598e-05
-2.89911e-05
-2.95996e-05
-3.01634e-05
-3.06538e-05
-3.10533e-05
-3.13461e-05
-3.15233e-05
-3.158e-05
-3.15167e-05
-3.13387e-05
-3.10558e-05
-3.06844e-05
-3.02425e-05
-2.97593e-05
-2.92569e-05
-2.87742e-05
-2.83257e-05
-2.7932e-05
-2.76e-05
-2.73369e-05
-2.71445e-05
-2.70198e-05
-2.69435e-05
-2.4781e-05
-2.47873e-05
-2.48868e-05
-2.50727e-05
-2.53333e-05
-2.56658e-05
-2.60674e-05
-2.65359e-05
-2.70632e-05
-2.76445e-05
-2.8254e-05
-2.88828e-05
-2.94828e-05
-3.00387e-05
-3.05187e-05
-3.09093e-05
-3.11948e-05
-3.13681e-05
-3.14246e-05
-3.13649e-05
-3.11938e-05
-3.09195e-05
-3.05582e-05
-3.0124e-05
-2.96491e-05
-2.91487e-05
-2.86716e-05
-2.8226e-05
-2.7838e-05
-2.75123e-05
-2.72577e-05
-2.70778e-05
-2.69861e-05
-2.6984e-05
-2.49664e-05
-2.49558e-05
-2.50523e-05
-2.52476e-05
-2.55269e-05
-2.58868e-05
-2.63253e-05
-2.68438e-05
-2.74344e-05
-2.81007e-05
-2.88047e-05
-2.95524e-05
-3.02554e-05
-3.09069e-05
-3.14615e-05
-3.19099e-05
-3.22335e-05
-3.24265e-05
-3.24842e-05
-3.24068e-05
-3.21999e-05
-3.18701e-05
-3.14367e-05
-3.09095e-05
-3.0335e-05
-2.97194e-05
-2.91526e-05
-2.86267e-05
-2.81811e-05
-2.78122e-05
-2.75295e-05
-2.73357e-05
-2.72467e-05
-2.72638e-05
-2.52885e-05
-2.52766e-05
-2.53855e-05
-2.56071e-05
-2.59257e-05
-2.63393e-05
-2.68481e-05
-2.746e-05
-2.81693e-05
-2.89976e-05
-2.98845e-05
-3.08701e-05
-3.17749e-05
-3.26127e-05
-3.33113e-05
-3.38715e-05
-3.42691e-05
-3.45006e-05
-3.45604e-05
-3.44488e-05
-3.41724e-05
-3.37352e-05
-3.31626e-05
-3.24542e-05
-3.16841e-05
-3.08375e-05
-3.00968e-05
-2.94181e-05
-2.8864e-05
-2.84131e-05
-2.80736e-05
-2.78423e-05
-2.7735e-05
-2.77505e-05
-2.57424e-05
-2.57241e-05
-2.58526e-05
-2.61136e-05
-2.64884e-05
-2.6977e-05
-2.75832e-05
-2.83255e-05
-2.92036e-05
-3.02765e-05
-3.14452e-05
-3.28328e-05
-3.40547e-05
-3.51804e-05
-3.60928e-05
-3.6819e-05
-3.73254e-05
-3.76136e-05
-3.76765e-05
-3.75145e-05
-3.71355e-05
-3.65385e-05
-3.57587e-05
-3.47693e-05
-3.36909e-05
-3.24513e-05
-3.14423e-05
-3.05316e-05
-2.98229e-05
-2.92565e-05
-2.88368e-05
-2.85507e-05
-2.84163e-05
-2.84388e-05
-2.63193e-05
-2.62898e-05
-2.6444e-05
-2.67574e-05
-2.7206e-05
-2.77913e-05
-2.85203e-05
-2.94264e-05
-3.05187e-05
-3.19308e-05
-3.35097e-05
-3.55782e-05
-3.72768e-05
-3.88258e-05
-4.00374e-05
-4.09984e-05
-4.16579e-05
-4.20264e-05
-4.20936e-05
-4.18598e-05
-4.13359e-05
-4.05121e-05
-3.94412e-05
-3.80364e-05
-3.64919e-05
-3.4582e-05
-3.31827e-05
-3.19486e-05
-3.10434e-05
-3.03311e-05
-2.98093e-05
-2.9452e-05
-2.92832e-05
-2.93208e-05
-2.70103e-05
-2.69655e-05
-2.71527e-05
-2.75327e-05
-2.80745e-05
-2.8779e-05
-2.96551e-05
-3.07517e-05
-3.20922e-05
-3.39577e-05
-3.61225e-05
-3.94164e-05
-4.182e-05
-4.39627e-05
-4.55675e-05
-4.68462e-05
-4.77134e-05
-4.81917e-05
-4.82647e-05
-4.79323e-05
-4.72118e-05
-4.60802e-05
-4.46255e-05
-4.26349e-05
-4.03972e-05
-3.72718e-05
-3.53176e-05
-3.36493e-05
-3.25163e-05
-3.16333e-05
-3.09879e-05
-3.05418e-05
-3.03298e-05
-3.03899e-05
-2.78043e-05
-2.77409e-05
-2.79704e-05
-2.8436e-05
-2.9097e-05
-2.99503e-05
-3.10005e-05
-3.22923e-05
-3.38524e-05
-3.61302e-05
-3.90888e-05
-4.46576e-05
-4.79769e-05
-5.08913e-05
-5.29976e-05
-5.47072e-05
-5.58614e-05
-5.64924e-05
-5.65732e-05
-5.61037e-05
-5.51106e-05
-5.35609e-05
-5.16155e-05
-4.88595e-05
-4.57146e-05
-4.0317e-05
-3.76243e-05
-3.55637e-05
-3.4233e-05
-3.31747e-05
-3.23803e-05
-3.182e-05
-3.15499e-05
-3.16387e-05
-2.86851e-05
-2.85989e-05
-2.88806e-05
-2.9452e-05
-3.02614e-05
-3.12987e-05
-3.25564e-05
-3.40375e-05
-3.56767e-05
-3.83014e-05
-4.17062e-05
-5.27093e-05
-5.67906e-05
-6.04273e-05
-6.30553e-05
-6.52628e-05
-6.67659e-05
-6.75861e-05
-6.76779e-05
-6.70406e-05
-6.57189e-05
-6.36885e-05
-6.12341e-05
-5.77565e-05
-5.38546e-05
-4.29858e-05
-3.99845e-05
-3.7584e-05
-3.61903e-05
-3.49571e-05
-3.3978e-05
-3.327e-05
-3.29234e-05
-3.30496e-05
-2.96337e-05
-2.95234e-05
-2.98735e-05
-3.05844e-05
-3.15998e-05
-3.29104e-05
-3.45122e-05
-3.62483e-05
-3.7986e-05
-4.05583e-05
-3.56156e-05
-6.16604e-05
-6.63824e-05
-7.08729e-05
-7.42848e-05
-7.7169e-05
-7.91433e-05
-8.0205e-05
-8.0311e-05
-7.94604e-05
-7.76955e-05
-7.50134e-05
-7.17945e-05
-6.74664e-05
-6.29318e-05
-3.67344e-05
-4.24701e-05
-4.01112e-05
-3.86351e-05
-3.71591e-05
-3.58574e-05
-3.4914e-05
-3.44435e-05
-3.46056e-05
-3.06183e-05
-3.04791e-05
-3.09033e-05
-3.17675e-05
-3.30133e-05
-3.46437e-05
-3.66749e-05
-3.89479e-05
-4.075e-05
-3.57617e-05
-8.7722e-05
-8.10862e-05
-8.38158e-05
-8.78154e-05
-9.09774e-05
-9.32813e-05
-9.4518e-05
-9.46429e-05
-9.36548e-05
-9.15971e-05
-8.86727e-05
-8.48982e-05
-8.23313e-05
-8.89046e-05
-3.84236e-05
-4.32846e-05
-4.16291e-05
-3.95965e-05
-3.78743e-05
-3.66444e-05
-3.60325e-05
-3.6245e-05
-3.16114e-05
-3.14467e-05
-3.19647e-05
-3.30279e-05
-3.46072e-05
-3.6795e-05
-3.98304e-05
-4.39996e-05
-5.0577e-05
-5.92466e-05
-8.34095e-05
-8.07978e-05
-8.88008e-05
-9.59799e-05
-0.000102371
-0.000106913
-0.000110015
-0.000111598
-0.000111743
-0.000110449
-0.000107637
-0.000103384
-9.7291e-05
-9.04162e-05
-8.27503e-05
-8.60625e-05
-6.17811e-05
-5.32893e-05
-4.69137e-05
-4.30027e-05
-4.02984e-05
-3.8547e-05
-3.76927e-05
-3.79348e-05
-3.25637e-05
-3.23696e-05
-3.29627e-05
-3.41827e-05
-3.60019e-05
-3.85339e-05
-4.20549e-05
-4.68156e-05
-5.37681e-05
-6.23706e-05
-7.72895e-05
-8.50695e-05
-9.59421e-05
-0.000104156
-0.000111596
-0.000116816
-0.000120366
-0.000122158
-0.000122318
-0.000120845
-0.000117617
-0.00011272
-0.000105611
-9.77217e-05
-8.71683e-05
-7.98163e-05
-6.50899e-05
-5.66854e-05
-4.99525e-05
-4.54677e-05
-4.23004e-05
-4.02426e-05
-3.92393e-05
-3.9534e-05
-3.3447e-05
-3.32282e-05
-3.389e-05
-3.52524e-05
-3.72868e-05
-4.01223e-05
-4.40484e-05
-4.93003e-05
-5.6647e-05
-6.56032e-05
-7.83108e-05
-8.8759e-05
-0.000101286
-0.000110776
-0.000119313
-0.000125214
-0.000129214
-0.000131219
-0.000131392
-0.000129735
-0.000126085
-0.000120535
-0.000112358
-0.000103218
-9.10568e-05
-8.09295e-05
-6.84693e-05
-5.97346e-05
-5.26323e-05
-4.7678e-05
-4.41319e-05
-4.18095e-05
-4.06735e-05
-4.10067e-05
-3.42286e-05
-3.39868e-05
-3.4699e-05
-3.61651e-05
-3.83473e-05
-4.13738e-05
-4.55222e-05
-5.10104e-05
-5.84929e-05
-6.76281e-05
-7.99404e-05
-9.13236e-05
-0.000104873
-0.000115084
-0.000124252
-0.00013056
-0.000134838
-0.000136978
-0.000137163
-0.000135394
-0.000131488
-0.000125552
-0.000116766
-0.000106918
-9.37518e-05
-8.26713e-05
-7.06296e-05
-6.17341e-05
-5.45159e-05
-4.93455e-05
-4.56019e-05
-4.31243e-05
-4.19112e-05
-4.22853e-05
-3.48901e-05
-3.46309e-05
-3.53818e-05
-3.69265e-05
-3.92183e-05
-4.23831e-05
-4.66875e-05
-5.2342e-05
-5.99394e-05
-6.92264e-05
-8.15004e-05
-9.34083e-05
-0.000107543
-0.000118259
-0.000127876
-0.000134487
-0.000138972
-0.000141215
-0.000141411
-0.00013956
-0.000135468
-0.000129248
-0.000120028
-0.000109688
-9.59475e-05
-8.43413e-05
-7.23524e-05
-6.3317e-05
-5.5999e-05
-5.06791e-05
-4.68011e-05
-4.42154e-05
-4.29483e-05
-4.33527e-05
-3.54166e-05
-3.51453e-05
-3.5923e-05
-3.7522e-05
-3.98881e-05
-4.31449e-05
-4.75517e-05
-5.33183e-05
-6.10114e-05
-7.04373e-05
-8.27981e-05
-9.50288e-05
-0.000109539
-0.000120588
-0.000130505
-0.000137329
-0.000141962
-0.000144281
-0.000144488
-0.000142581
-0.000138361
-0.000131945
-0.00012244
-0.000111776
-9.76681e-05
-8.5742e-05
-7.36748e-05
-6.45084e-05
-5.71052e-05
-5.16854e-05
-4.77212e-05
-4.50662e-05
-4.37652e-05
-4.41913e-05
-3.58e-05
-3.55233e-05
-3.63194e-05
-3.79542e-05
-4.03698e-05
-4.36891e-05
-4.81692e-05
-5.40219e-05
-6.18054e-05
-7.13545e-05
-8.38388e-05
-9.62914e-05
-0.000111055
-0.000122338
-0.000132466
-0.000139447
-0.000144191
-0.000146571
-0.000146789
-0.000144844
-0.000140532
-0.000133975
-0.000124272
-0.000113383
-9.90263e-05
-8.68797e-05
-7.46925e-05
-6.54062e-05
-5.79175e-05
-5.24186e-05
-4.83907e-05
-4.56873e-05
-4.43618e-05
-4.47973e-05
-3.60361e-05
-3.57607e-05
-3.65674e-05
-3.82211e-05
-4.0664e-05
-4.40204e-05
-4.85496e-05
-5.44667e-05
-6.23337e-05
-7.19905e-05
-8.46071e-05
-9.72159e-05
-0.000112146
-0.000123585
-0.000133849
-0.000140941
-0.000145764
-0.000148191
-0.000148421
-0.000146453
-0.000142083
-0.000135434
-0.000125606
-0.000114568
-0.000100046
-8.77413e-05
-7.54199e-05
-6.6024e-05
-5.84512e-05
-5.28887e-05
-4.88144e-05
-4.60789e-05
-4.47355e-05
-4.51685e-05
-3.61241e-05
-3.58569e-05
-3.66664e-05
-3.83221e-05
-4.077e-05
-4.41376e-05
-4.86911e-05
-5.46505e-05
-6.25943e-05
-7.23462e-05
-8.5109e-05
-9.78207e-05
-0.000112836
-0.000124359
-0.000134691
-0.000141848
-0.000146721
-0.000149182
-0.000149427
-0.000147452
-0.000143057
-0.000136362
-0.00012648
-0.000115363
-0.000100752
-8.83365e-05
-7.58609e-05
-6.6362e-05
-5.87061e-05
-5.30956e-05
-4.89922e-05
-4.62411e-05
-4.48865e-05
-4.53049e-05
-3.60674e-05
-3.58152e-05
-3.6619e-05
-3.82582e-05
-4.06859e-05
-4.40345e-05
-4.85814e-05
-5.45549e-05
-6.25686e-05
-7.24065e-05
-8.53673e-05
-9.81233e-05
-0.000113123
-0.000124649
-0.00013497
-0.000142147
-0.000147041
-0.000149525
-0.000149787
-0.000147823
-0.000143438
-0.000136748
-0.00012689
-0.000115775
-0.000101171
-8.86934e-05
-7.60046e-05
-6.64055e-05
-5.86667e-05
-5.30298e-05
-4.89206e-05
-4.61746e-05
-4.48178e-05
-4.52097e-05
-3.5873e-05
-3.5641e-05
-3.64275e-05
-3.80261e-05
-4.03979e-05
-4.36798e-05
-4.81634e-05
-5.40911e-05
-6.21498e-05
-7.20712e-05
-8.53864e-05
-9.80886e-05
-0.000112902
-0.000124292
-0.00013447
-0.000141592
-0.000146459
-0.000148949
-0.000149234
-0.000147309
-0.00014299
-0.000136387
-0.00012669
-0.000115717
-0.00010128
-8.88226e-05
-7.57552e-05
-6.60514e-05
-5.82484e-05
-5.26383e-05
-4.85724e-05
-4.58697e-05
-4.45301e-05
-4.48869e-05
-3.55551e-05
-3.53489e-05
-3.61072e-05
-3.76413e-05
-3.99208e-05
-4.30839e-05
-4.74353e-05
-5.3237e-05
-6.12993e-05
-7.12529e-05
-8.53244e-05
-9.78043e-05
-0.000112023
-0.000123107
-0.000132992
-0.000139989
-0.000144783
-0.000147264
-0.000147578
-0.000145721
-0.000141529
-0.000135101
-0.000125724
-0.000115071
-0.000101192
-8.88884e-05
-7.50308e-05
-6.52684e-05
-5.74363e-05
-5.1926e-05
-4.79643e-05
-4.53481e-05
-4.40456e-05
-4.43559e-05
-3.51305e-05
-3.4952e-05
-3.56646e-05
-3.70972e-05
-3.92189e-05
-4.21519e-05
-4.61847e-05
-5.15873e-05
-5.93343e-05
-6.90773e-05
-8.56815e-05
-9.7079e-05
-0.000109979
-0.000120214
-0.000129365
-0.000135999
-0.000140581
-0.000143001
-0.000143355
-0.00014164
-0.000137735
-0.000131746
-0.000123148
-0.00011338
-0.000100766
-8.93726e-05
-7.29589e-05
-6.33819e-05
-5.58338e-05
-5.06881e-05
-4.70081e-05
-4.45815e-05
-4.33672e-05
-4.36329e-05
-3.46311e-05
-3.44857e-05
-3.51492e-05
-3.64715e-05
-3.84214e-05
-4.11013e-05
-4.47633e-05
-4.9683e-05
-5.71465e-05
-6.7061e-05
-9.1221e-05
-9.55242e-05
-0.00010648
-0.000116262
-0.000124838
-0.000131218
-0.000135664
-0.000138069
-0.000138473
-0.000136879
-0.000133216
-0.000127601
-0.000119656
-0.000110437
-9.96447e-05
-9.48723e-05
-7.1088e-05
-6.13123e-05
-5.40013e-05
-4.92895e-05
-4.59314e-05
-4.37089e-05
-4.25841e-05
-4.27871e-05
-3.40817e-05
-3.39651e-05
-3.4561e-05
-3.57321e-05
-3.7419e-05
-3.96374e-05
-4.2413e-05
-4.55415e-05
-4.80659e-05
-4.21582e-05
-0.000111609
-0.000104396
-0.000109543
-0.000116112
-0.000121582
-0.000125579
-0.000127862
-0.000128328
-0.00012699
-0.000123911
-0.000119385
-0.00011356
-0.000109216
-0.000116629
-4.64839e-05
-5.24788e-05
-4.99781e-05
-4.69772e-05
-4.44415e-05
-4.26253e-05
-4.16782e-05
-4.18422e-05
-3.35301e-05
-3.34466e-05
-3.39985e-05
-3.50735e-05
-3.66249e-05
-3.86826e-05
-4.13167e-05
-4.44831e-05
-4.8408e-05
-5.40521e-05
-5.65205e-05
-8.3799e-05
-9.24792e-05
-0.000101205
-0.000108192
-0.000114163
-0.000118303
-0.00012068
-0.000121206
-0.000119912
-0.000116836
-0.00011203
-0.000105912
-9.82269e-05
-8.94512e-05
-6.29044e-05
-5.93141e-05
-5.32916e-05
-4.9126e-05
-4.59461e-05
-4.34645e-05
-4.17418e-05
-4.08405e-05
-4.09371e-05
-3.29973e-05
-3.29411e-05
-3.34494e-05
-3.44315e-05
-3.58482e-05
-3.77383e-05
-4.01819e-05
-4.3299e-05
-4.72798e-05
-5.303e-05
-6.15514e-05
-7.65402e-05
-8.52065e-05
-9.38666e-05
-0.000100586
-0.000106292
-0.000110195
-0.000112467
-0.000113019
-0.000111895
-0.00010912
-0.000104716
-9.88847e-05
-9.14736e-05
-8.25513e-05
-6.77553e-05
-5.84671e-05
-5.23106e-05
-4.8022e-05
-4.48233e-05
-4.24723e-05
-4.08622e-05
-4.00196e-05
-4.00712e-05
-3.25139e-05
-3.24834e-05
-3.29616e-05
-3.3878e-05
-3.5206e-05
-3.69962e-05
-3.93435e-05
-4.24088e-05
-4.64219e-05
-5.19393e-05
-5.92973e-05
-6.96583e-05
-7.8145e-05
-8.69312e-05
-9.35234e-05
-9.90968e-05
-0.000102855
-0.000105047
-0.000105614
-0.000104609
-0.000102025
-9.78669e-05
-9.2119e-05
-8.4952e-05
-7.60123e-05
-6.56841e-05
-5.75422e-05
-5.15455e-05
-4.71653e-05
-4.39678e-05
-4.16682e-05
-4.01139e-05
-3.92966e-05
-3.9302e-05
-3.20966e-05
-3.20868e-05
-3.25394e-05
-3.3399e-05
-3.46459e-05
-3.63321e-05
-3.85481e-05
-4.14467e-05
-4.52065e-05
-5.0228e-05
-5.64592e-05
-6.45844e-05
-7.21718e-05
-8.01312e-05
-8.63036e-05
-9.14453e-05
-9.49051e-05
-9.69345e-05
-9.74877e-05
-9.66202e-05
-9.43112e-05
-9.05718e-05
-8.52908e-05
-7.87847e-05
-7.08117e-05
-6.26647e-05
-5.5714e-05
-5.02413e-05
-4.61319e-05
-4.30997e-05
-4.09183e-05
-3.94439e-05
-3.86622e-05
-3.8636e-05
-3.17626e-05
-3.17696e-05
-3.22038e-05
-3.30189e-05
-3.41984e-05
-3.57893e-05
-3.78675e-05
-4.0552e-05
-4.39625e-05
-4.83302e-05
-5.35844e-05
-6.00525e-05
-6.64687e-05
-7.31962e-05
-7.86239e-05
-8.31185e-05
-8.61937e-05
-8.80126e-05
-8.85324e-05
-8.77966e-05
-8.57875e-05
-8.25343e-05
-7.79578e-05
-7.23927e-05
-6.57553e-05
-5.92602e-05
-5.34848e-05
-4.87766e-05
-4.50957e-05
-4.23134e-05
-4.0281e-05
-3.8894e-05
-3.81486e-05
-3.8099e-05
-3.1525e-05
-3.1547e-05
-3.19722e-05
-3.27554e-05
-3.38826e-05
-3.53943e-05
-3.73522e-05
-3.98442e-05
-4.29491e-05
-4.67986e-05
-5.13259e-05
-5.66641e-05
-6.21145e-05
-6.77665e-05
-7.24846e-05
-7.63913e-05
-7.91245e-05
-8.07565e-05
-8.1244e-05
-8.06162e-05
-7.88647e-05
-7.60318e-05
-7.20973e-05
-6.73585e-05
-6.18415e-05
-5.64993e-05
-5.16312e-05
-4.75441e-05
-4.42496e-05
-4.17007e-05
-3.98069e-05
-3.84977e-05
-3.77799e-05
-3.7712e-05
-3.13886e-05
-3.14499e-05
-3.18847e-05
-3.26548e-05
-3.37552e-05
-3.52228e-05
-3.71088e-05
-3.94787e-05
-4.23862e-05
-4.59013e-05
-4.99666e-05
-5.45938e-05
-5.93588e-05
-6.41885e-05
-6.83559e-05
-7.182e-05
-7.43005e-05
-7.57945e-05
-7.62552e-05
-7.56971e-05
-7.41237e-05
-7.1589e-05