/*--------------------------------*- C++ -*----------------------------------*\
| =========                 |                                                 |
| \\      /  F ield         | OpenFOAM: The Open Source CFD Toolbox           |
|  \\    /   O peration     | Version:  2112                                  |
|   \\  /    A nd           | Website:  www.openfoam.com                      |
|    \\/     M anipulation  |                                                 |
\*---------------------------------------------------------------------------*/
FoamFile
{
    version     2.0;
    format      ascii;
    arch        "LSB;label=32;scalar=64";
    class       surfaceScalarField;
    location    "0.3";
    object      phi;
}
// * * * * * * * * * * * * * * * * * * * * * * * * * * * * * * * * * * * * * //

dimensions      [0 3 -1 0 0 0 0];

oriented        oriented;

internalField   nonuniform List<scalar> 
188215
(
1.33611e-09
3.21109e-09
-4.5472e-09
2.90283e-09
3.32183e-09
-4.88854e-09
4.4497e-09
3.48666e-09
-5.03354e-09
5.94209e-09
3.78532e-09
-5.2777e-09
7.37068e-09
4.20799e-09
-5.63658e-09
8.72302e-09
4.75314e-09
-6.10548e-09
9.97951e-09
5.42673e-09
-6.68323e-09
1.11002e-08
6.24577e-09
-7.36649e-09
1.20342e-08
7.21725e-09
-8.15123e-09
1.26704e-08
8.38111e-09
-9.01732e-09
1.29263e-08
9.69102e-09
-9.94687e-09
1.26106e-08
1.12058e-08
-1.08901e-08
1.17355e-08
1.26846e-08
-1.18095e-08
1.02986e-08
1.40865e-08
-1.26496e-08
8.38173e-09
1.52927e-08
-1.33758e-08
6.07542e-09
1.62588e-08
-1.39524e-08
3.50247e-09
1.69313e-08
-1.43583e-08
7.958e-10
1.72844e-08
-1.45777e-08
-1.90268e-09
1.73023e-08
-1.46039e-08
-4.45115e-09
1.69852e-08
-1.44368e-08
-6.71636e-09
1.63492e-08
-1.4084e-08
-8.57514e-09
1.54205e-08
-1.35617e-08
-9.93701e-09
1.42537e-08
-1.28918e-08
-1.07204e-08
1.2894e-08
-1.21106e-08
-1.09298e-08
1.14629e-08
-1.12534e-08
-1.05543e-08
1.00015e-08
-1.0377e-08
-9.79036e-09
8.75592e-09
-9.51988e-09
-8.72031e-09
7.66405e-09
-8.7341e-09
-7.45752e-09
6.77663e-09
-8.03943e-09
-6.0537e-09
6.05627e-09
-7.46009e-09
-4.54947e-09
5.50282e-09
-7.00705e-09
-2.96577e-09
5.1125e-09
-6.69621e-09
-1.34994e-09
4.89671e-09
-6.51254e-09
4.7278e-09
-6.07774e-09
1.32954e-09
6.86829e-09
-4.98674e-09
3.16752e-09
7.37817e-09
-5.89432e-09
4.93478e-09
7.84124e-09
-6.12184e-09
6.6123e-09
8.53496e-09
-6.42717e-09
8.21908e-09
9.48956e-09
-6.88835e-09
9.75234e-09
1.07159e-08
-7.496e-09
1.1197e-08
1.22313e-08
-8.24923e-09
1.25142e-08
1.4076e-08
-9.14751e-09
1.36497e-08
1.62722e-08
-1.01904e-08
1.44665e-08
1.89218e-08
-1.13575e-08
1.48596e-08
2.19262e-08
-1.26282e-08
1.45353e-08
2.54668e-08
-1.39368e-08
1.35364e-08
2.89001e-08
-1.52165e-08
1.18696e-08
3.2141e-08
-1.63877e-08
9.64341e-09
3.49168e-08
-1.7398e-08
6.96698e-09
3.71337e-08
-1.81985e-08
3.98386e-09
3.86745e-08
-1.87601e-08
8.47072e-10
3.94825e-08
-1.90613e-08
-2.28102e-09
3.95235e-08
-1.9093e-08
-5.2379e-09
3.87974e-08
-1.88553e-08
-7.87004e-09
3.73396e-08
-1.83583e-08
-1.00331e-08
3.52073e-08
-1.76237e-08
-1.16178e-08
3.25202e-08
-1.66818e-08
-1.25155e-08
2.93739e-08
-1.55822e-08
-1.27219e-08
2.60474e-08
-1.43782e-08
-1.21945e-08
2.26256e-08
-1.31514e-08
-1.12349e-08
1.97658e-08
-1.19695e-08
-9.94577e-09
1.72763e-08
-1.09013e-08
-8.4655e-09
1.52661e-08
-9.96976e-09
-6.8464e-09
1.36379e-08
-9.20073e-09
-5.11872e-09
1.23809e-08
-8.60575e-09
-3.26742e-09
1.14671e-08
-8.20588e-09
-1.31512e-09
1.08524e-08
-7.90796e-09
1.01281e-08
-6.71541e-09
1.49227e-09
1.04974e-08
-5.12137e-09
3.60371e-09
1.13667e-08
-6.09993e-09
5.6451e-09
1.21406e-08
-6.34078e-09
7.59132e-09
1.3264e-08
-6.67522e-09
9.4747e-09
1.47976e-08
-7.19142e-09
1.13035e-08
1.67669e-08
-7.8798e-09
1.30748e-08
1.92044e-08
-8.74439e-09
1.47563e-08
2.21849e-08
-9.79032e-09
1.62998e-08
2.57565e-08
-1.10278e-08
1.75092e-08
3.01469e-08
-1.24346e-08
1.82515e-08
3.51855e-08
-1.40016e-08
1.79259e-08
4.14195e-08
-1.56271e-08
1.67036e-08
4.73493e-08
-1.72269e-08
1.46116e-08
5.29167e-08
-1.86837e-08
1.18283e-08
5.76375e-08
-1.99373e-08
8.4921e-09
6.13937e-08
-2.09238e-08
4.78483e-09
6.39942e-08
-2.16124e-08
8.91225e-10
6.53543e-08
-2.19781e-08
-2.99337e-09
6.54189e-08
-2.20109e-08
-6.67329e-09
6.41882e-08
-2.17108e-08
-9.96283e-09
6.17179e-08
-2.10888e-08
-1.26787e-08
5.80937e-08
-2.01706e-08
-1.46812e-08
5.35102e-08
-1.89874e-08
-1.57907e-08
4.80879e-08
-1.76046e-08
-1.59831e-08
4.23225e-08
-1.60827e-08
-1.50853e-08
3.62699e-08
-1.4542e-08
-1.37128e-08
3.14602e-08
-1.30669e-08
-1.19901e-08
2.73173e-08
-1.17638e-08
-1.01134e-08
2.40325e-08
-1.06432e-08
-8.1248e-09
2.1384e-08
-9.73462e-09
-6.04392e-09
1.93413e-08
-9.04124e-09
-3.83461e-09
1.78427e-08
-8.58494e-09
-1.52522e-09
1.68023e-08
-8.25932e-09
1.55663e-08
-6.96341e-09
1.80904e-09
1.40192e-08
-5.33088e-09
4.31406e-09
1.52097e-08
-6.3481e-09
6.75923e-09
1.63071e-08
-6.61167e-09
9.11752e-09
1.79002e-08
-6.99451e-09
1.14337e-08
2.0075e-08
-7.59359e-09
1.3732e-08
2.28715e-08
-8.40299e-09
1.60332e-08
2.634e-08
-9.43677e-09
1.83273e-08
3.06019e-08
-1.07111e-08
2.05949e-08
3.5746e-08
-1.22571e-08
2.25529e-08
4.22401e-08
-1.40512e-08
2.40307e-08
4.98208e-08
-1.61131e-08
2.36831e-08
6.0043e-08
-1.8276e-08
2.20395e-08
6.94097e-08
-2.04168e-08
1.91958e-08
7.81113e-08
-2.23509e-08
1.54621e-08
8.53806e-08
-2.40094e-08
1.10185e-08
9.1138e-08
-2.53006e-08
6.10551e-09
9.51043e-08
-2.61972e-08
9.55949e-10
9.71718e-08
-2.66679e-08
-4.18436e-09
9.72613e-08
-2.67021e-08
-9.069e-09
9.53728e-08
-2.62999e-08
-1.34636e-08
9.15853e-08
-2.54728e-08
-1.71244e-08
8.60071e-08
-2.42526e-08
-1.98688e-08
7.89218e-08
-2.26672e-08
-2.13825e-08
7.04115e-08
-2.08099e-08
-2.15736e-08
6.12632e-08
-1.87495e-08
-1.99053e-08
5.12766e-08
-1.6675e-08
-1.77559e-08
4.4019e-08
-1.47082e-08
-1.52726e-08
3.78577e-08
-1.30237e-08
-1.27358e-08
3.30975e-08
-1.16017e-08
-1.01545e-08
2.92778e-08
-1.04752e-08
-7.52283e-09
2.63384e-08
-9.62874e-09
-4.77771e-09
2.41775e-08
-9.07986e-09
-1.9439e-09
2.26766e-08
-8.70807e-09
2.09669e-08
-7.34456e-09
2.26992e-09
1.73791e-08
-5.62981e-09
5.32639e-09
1.88914e-08
-6.73817e-09
8.33905e-09
2.03437e-08
-7.04927e-09
1.12811e-08
2.24666e-08
-7.50854e-09
1.42149e-08
2.5373e-08
-8.23177e-09
1.71897e-08
2.91178e-08
-9.22095e-09
2.02684e-08
3.37679e-08
-1.05067e-08
2.35023e-08
3.94926e-08
-1.21246e-08
2.69597e-08
4.64324e-08
-1.41439e-08
3.02778e-08
5.54647e-08
-1.65426e-08
3.32892e-08
6.62198e-08
-1.94104e-08
3.28126e-08
8.29831e-08
-2.24635e-08
3.03739e-08
9.73411e-08
-2.54928e-08
2.62712e-08
1.10417e-07
-2.82026e-08
2.10334e-08
1.21139e-07
-3.05203e-08
1.48744e-08
1.29594e-07
-3.22972e-08
8.11293e-09
1.35392e-07
-3.35262e-08
1.04519e-09
1.38404e-07
-3.41644e-08
-6.01336e-09
1.38521e-07
-3.42012e-08
-1.27464e-08
1.35743e-07
-3.36368e-08
-1.88548e-08
1.30176e-07
-3.24823e-08
-2.40148e-08
1.21949e-07
-3.07814e-08
-2.80072e-08
1.11456e-07
-2.85414e-08
-3.02936e-08
9.86108e-08
-2.59129e-08
-3.05809e-08
8.4518e-08
-2.29676e-08
-2.7322e-08
6.80259e-08
-2.00082e-08
-2.37805e-08
5.77175e-08
-1.724e-08
-2.0062e-08
4.90997e-08
-1.49606e-08
-1.65232e-08
4.26348e-08
-1.30761e-08
-1.30776e-08
3.74538e-08
-1.16217e-08
-9.65578e-09
3.34626e-08
-1.0546e-08
-6.14668e-09
3.05226e-08
-9.85423e-09
-2.56452e-09
2.84892e-08
-9.3948e-09
2.62838e-08
-7.88142e-09
2.88354e-09
2.05043e-08
-6.00871e-09
6.67532e-09
2.23435e-08
-7.24382e-09
1.04477e-08
2.41927e-08
-7.62124e-09
1.41754e-08
2.69207e-08
-8.18176e-09
1.79419e-08
3.06744e-08
-9.06787e-09
2.18288e-08
3.55246e-08
-1.02938e-08
2.59633e-08
4.15478e-08
-1.19143e-08
3.05315e-08
4.89209e-08
-1.39965e-08
3.58236e-08
5.7814e-08
-1.66737e-08
4.15992e-08
6.9623e-08
-1.99338e-08
4.78971e-08
8.39223e-08
-2.40005e-08
4.68976e-08
1.12402e-07
-2.84197e-08
4.29137e-08
1.34123e-07
-3.27984e-08
3.67549e-08
1.53248e-07
-3.66724e-08
2.92313e-08
1.68649e-07
-3.99863e-08
2.05244e-08
1.80766e-07
-4.24651e-08
1.10423e-08
1.89051e-07
-4.41774e-08
1.16167e-09
1.93343e-07
-4.50586e-08
-8.71053e-09
1.93493e-07
-4.50994e-08
-1.8166e-08
1.89498e-07
-4.42998e-08
-2.68244e-08
1.81504e-07
-4.26696e-08
-3.4269e-08
1.69667e-07
-4.02741e-08
-4.0309e-08
1.54539e-07
-3.7044e-08
-4.41151e-08
1.35674e-07
-3.32572e-08
-4.48806e-08
1.14249e-07
-2.89658e-08
-3.82367e-08
8.60281e-08
-2.4646e-08
-3.22145e-08
7.2378e-08
-2.06827e-08
-2.66137e-08
6.10541e-08
-1.75551e-08
-2.16643e-08
5.27115e-08
-1.5026e-08
-1.7049e-08
4.59665e-08
-1.3128e-08
-1.25602e-08
4.07203e-08
-1.17465e-08
-8.0148e-09
3.68415e-08
-1.08643e-08
-3.41298e-09
3.41709e-08
-1.02835e-08
3.14324e-08
-8.56159e-09
3.66992e-09
2.32902e-08
-6.45581e-09
8.40539e-09
2.54559e-08
-7.84786e-09
1.31614e-08
2.77445e-08
-8.30786e-09
1.79148e-08
3.11603e-08
-8.99304e-09
2.27692e-08
3.58995e-08
-1.00795e-08
2.78373e-08
4.20541e-08
-1.15977e-08
3.33222e-08
4.96963e-08
-1.36334e-08
3.96655e-08
5.88776e-08
-1.63e-08
4.76362e-08
6.96756e-08
-1.98323e-08
5.7771e-08
8.37156e-08
-2.42275e-08
7.14417e-08
1.00209e-07
-2.99569e-08
6.85695e-08
1.51612e-07
-3.63371e-08
6.13982e-08
1.8389e-07
-4.25956e-08
5.18963e-08
2.10855e-07
-4.81049e-08
4.09926e-08
2.32407e-07
-5.28547e-08
2.86041e-08
2.49411e-07
-5.62565e-08
1.52176e-08
2.61059e-07
-5.86206e-08
1.30993e-09
2.67081e-07
-5.98301e-08
-1.25912e-08
2.67271e-07
-5.98767e-08
-2.59566e-08
2.61624e-07
-5.87605e-08
-3.83053e-08
2.50342e-07
-5.64893e-08
-4.91386e-08
2.33682e-07
-5.31811e-08
-5.85231e-08
2.12446e-07
-4.85225e-08
-6.54922e-08
1.85751e-07
-4.31072e-08
-6.80723e-08
1.53766e-07
-3.69371e-08
-5.38736e-08
1.02489e-07
-3.066e-08
-4.35083e-08
8.70478e-08
-2.5035e-08
-3.5192e-08
7.35262e-08
-2.07884e-08
-2.83794e-08
6.33184e-08
-1.74196e-08
-2.22679e-08
5.48174e-08
-1.49624e-08
-1.63926e-08
4.80464e-08
-1.32014e-08
-1.0485e-08
4.30177e-08
-1.20838e-08
-4.53809e-09
3.95754e-08
-1.13515e-08
3.62632e-08
-9.36885e-09
4.65167e-09
2.55986e-08
-6.96005e-09
1.05694e-08
2.80761e-08
-8.53797e-09
1.65766e-08
3.08324e-08
-9.09517e-09
2.26531e-08
3.50098e-08
-9.92592e-09
2.89096e-08
4.08891e-08
-1.12461e-08
3.54454e-08
4.86238e-08
-1.31055e-08
4.2456e-08
5.83102e-08
-1.56246e-08
5.06846e-08
6.96416e-08
-1.89926e-08
6.17464e-08
8.2201e-08
-2.35872e-08
7.98477e-08
9.51703e-08
-2.9556e-08
1.10018e-07
1.06938e-07
-3.68995e-08
1.01295e-07
2.06172e-07
-4.58378e-08
8.78839e-08
2.51897e-07
-5.45952e-08
7.33026e-08
2.87716e-07
-6.22799e-08
5.7619e-08
3.1709e-07
-6.89999e-08
4.003e-08
3.40435e-07
-7.34348e-08
2.11094e-08
3.56552e-07
-7.65727e-08
1.4974e-09
3.64872e-07
-7.81789e-08
-1.81115e-08
3.65113e-07
-7.82334e-08
-3.70215e-08
3.5727e-07
-7.67362e-08
-5.45903e-08
3.41617e-07
-7.37056e-08
-7.02317e-08
3.18702e-07
-6.93785e-08
-8.47277e-08
2.89701e-07
-6.27582e-08
-9.79422e-08
2.54139e-07
-5.51742e-08
-1.06279e-07
2.08611e-07
-4.65076e-08
-7.52425e-08
1.0912e-07
-3.76665e-08
-5.70318e-08
9.92635e-08
-3.04264e-08
-4.56065e-08
8.67252e-08
-2.46244e-08
-3.68061e-08
7.47283e-08
-2.02102e-08
-2.8984e-08
6.40773e-08
-1.7082e-08
-2.13745e-08
5.53171e-08
-1.48803e-08
-1.37053e-08
4.8838e-08
-1.34895e-08
-6.01041e-09
4.44604e-08
-1.25799e-08
4.05366e-08
-1.02838e-08
5.83678e-09
2.72727e-08
-7.51096e-09
1.31923e-08
3.00233e-08
-9.30274e-09
2.07523e-08
3.3245e-08
-9.97255e-09
2.851e-08
3.82228e-08
-1.09708e-08
3.6572e-08
4.53853e-08
-1.25581e-08
4.4945e-08
5.50537e-08
-1.48029e-08
5.36133e-08
6.74954e-08
-1.78534e-08
6.33954e-08
8.18557e-08
-2.19961e-08
7.69891e-08
9.65288e-08
-2.79216e-08
1.07062e-07
1.0048e-07
-3.5382e-08
1.72749e-07
8.62455e-08
-4.49951e-08
1.49086e-07
2.82615e-07
-5.27799e-08
1.24009e-07
3.4053e-07
-6.35563e-08
1.02249e-07
3.83013e-07
-7.35378e-08
8.02888e-08
4.2145e-07
-8.23994e-08
5.5721e-08
4.52413e-07
-8.74097e-08
2.92168e-08
4.74209e-07
-9.11532e-08
1.73592e-09
4.85445e-07
-9.3092e-08
-2.57468e-08
4.8575e-07
-9.31542e-08
-5.2257e-08
4.7512e-07
-9.13398e-08
-7.68397e-08
4.53916e-07
-8.7717e-08
-9.88189e-08
4.2351e-07
-8.28289e-08
-1.20592e-07
3.85546e-07
-7.40726e-08
-1.45581e-07
3.43327e-07
-6.41977e-08
-1.68724e-07
2.85257e-07
-5.35038e-08
-1.01496e-07
8.776e-08
-4.58681e-08
-7.16364e-08
1.05709e-07
-3.63045e-08
-5.77276e-08
1.01843e-07
-2.90264e-08
-4.726e-08
8.75671e-08
-2.33064e-08
-3.75388e-08
7.37993e-08
-1.94432e-08
-2.77469e-08
6.22876e-08
-1.67624e-08
-1.78105e-08
5.39696e-08
-1.50679e-08
-7.88274e-09
4.8488e-08
-1.39553e-08
4.39463e-08
-1.12925e-08
7.24048e-09
2.81234e-08
-8.09111e-09
1.63207e-08
3.10649e-08
-1.01218e-08
2.58182e-08
3.46618e-08
-1.09143e-08
3.57915e-08
4.03417e-08
-1.20923e-08
4.63705e-08
4.87673e-08
-1.3961e-08
5.73058e-08
6.07162e-08
-1.65977e-08
6.77182e-08
7.72143e-08
-2.01314e-08
7.5687e-08
9.89812e-08
-2.50942e-08
7.96428e-08
1.24497e-07
-3.19237e-08
1.03317e-07
1.18297e-07
-4.14912e-08
2.48965e-07
-5.94024e-08
2.01338e-07
3.81903e-07
-5.16613e-08
1.67915e-07
4.33745e-07
-5.9791e-08
1.40688e-07
4.79475e-07
-6.92348e-08
1.114e-07
5.28378e-07
-7.76403e-08
7.74095e-08
5.67862e-07
-8.14583e-08
4.03989e-08
5.95873e-07
-8.46528e-08
2.0368e-09
6.10213e-07
-8.64066e-08
-3.63307e-08
6.10584e-07
-8.64673e-08
-7.33616e-08
5.96985e-07
-8.48345e-08
-1.07406e-07
5.69715e-07
-8.17537e-08
-1.36798e-07
5.30957e-07
-7.80554e-08
-1.64258e-07
4.82747e-07
-6.97416e-08
-1.98086e-07
4.37547e-07
-6.03918e-08
-2.45582e-07
3.85128e-07
-5.23755e-08
-9.72695e-08
-6.05522e-08
-7.3631e-08
1.24471e-07
-4.24012e-08
-6.95699e-08
1.30863e-07
-3.30812e-08
-6.07235e-08
1.05216e-07
-2.64957e-08
-4.89274e-08
8.38587e-08
-2.18555e-08
-3.61433e-08
6.82561e-08
-1.87526e-08
-2.31235e-08
5.77108e-08
-1.67611e-08
-1.02911e-08
5.10944e-08
-1.54388e-08
4.60106e-08
-1.23554e-08
8.79203e-09
2.80222e-08
-8.69085e-09
1.9804e-08
3.1034e-08
-1.09811e-08
3.15322e-08
3.4848e-08
-1.19144e-08
4.41741e-08
4.10022e-08
-1.33024e-08
5.79902e-08
5.04547e-08
-1.55035e-08
7.25896e-08
6.46986e-08
-1.85818e-08
8.57436e-08
8.66287e-08
-2.25684e-08
9.08366e-08
1.2124e-07
-2.73514e-08
7.30607e-08
1.76003e-07
-3.37301e-08
2.37731e-07
-4.63733e-08
1.37312e-07
2.31791e-07
1.27998e-08
1.82279e-07
3.76175e-07
1.26027e-08
1.78566e-07
4.67324e-07
1.58642e-08
1.47762e-07
5.37637e-07
2.15453e-08
1.04278e-07
5.87694e-07
2.36511e-08
5.45896e-08
6.20738e-07
2.48235e-08
2.41827e-09
6.37101e-07
2.52835e-08
-4.9762e-08
6.37486e-07
2.52789e-08
-9.94861e-08
6.219e-07
2.48098e-08
-1.43068e-07
5.89662e-07
2.36344e-08
-1.74108e-07
5.40475e-07
2.15224e-08
-1.78419e-07
4.71192e-07
1.58659e-08
-1.34799e-07
3.81373e-07
1.25535e-08
2.37756e-07
1.25733e-08
-7.02273e-08
2.41473e-07
-4.67748e-08
-8.56755e-08
1.81164e-07
-3.48528e-08
-7.85934e-08
1.26957e-07
-2.88227e-08
-6.33785e-08
9.30541e-08
-2.44103e-08
-4.63444e-08
7.2151e-08
-2.0929e-08
-2.94088e-08
5.93831e-08
-1.86079e-08
-1.30924e-08
5.18108e-08
-1.70329e-08
4.63933e-08
-1.3475e-08
1.04857e-08
2.68184e-08
-9.28191e-09
2.36646e-08
2.96947e-08
-1.18397e-08
3.81126e-08
3.33106e-08
-1.29106e-08
5.45335e-08
3.90832e-08
-1.4502e-08
7.42392e-08
4.77716e-08
-1.70225e-08
9.9067e-08
6.03928e-08
-2.0522e-08
1.32029e-07
7.85781e-08
-2.49115e-08
1.78977e-07
1.04214e-07
-2.99223e-08
2.49304e-07
1.38835e-07
-3.31593e-08
3.50901e-07
1.69403e-07
-3.32698e-08
2.74204e-07
8.13934e-08
-4.69659e-09
3.04678e-07
1.90643e-07
1.06742e-08
2.97765e-07
2.95007e-07
8.80809e-08
2.61685e-07
3.70465e-07
1.32939e-07
2.05577e-07
4.30691e-07
1.63054e-07
1.41176e-07
4.73629e-07
1.78466e-07
7.27205e-08
5.01901e-07
1.87293e-07
2.82059e-09
5.15908e-07
1.91093e-07
-6.70745e-08
5.16244e-07
1.91137e-07
-1.35515e-07
5.02914e-07
1.87427e-07
-1.99897e-07
4.75337e-07
1.78706e-07
-2.55959e-07
4.33124e-07
1.63413e-07
-2.91935e-07
3.73679e-07
1.33489e-07
-2.98348e-07
2.98975e-07
8.88117e-08
-2.6764e-07
1.95201e-07
1.18475e-08
-3.4684e-07
8.32476e-08
-4.04795e-09
-2.44693e-07
1.72812e-07
-3.34861e-08
-1.72801e-07
1.43329e-07
-3.40568e-08
-1.23983e-07
1.09463e-07
-3.13246e-08
-8.8735e-08
8.46334e-08
-2.68271e-08
-6.10354e-08
6.75007e-08
-2.30493e-08
-3.7548e-08
5.63351e-08
-2.04394e-08
-1.65735e-08
4.9474e-08
-1.86378e-08
4.43921e-08
-1.45722e-08
1.20524e-08
2.46231e-08
-9.85707e-09
2.71997e-08
2.72228e-08
-1.26754e-08
4.39784e-08
3.04292e-08
-1.38973e-08
6.33165e-08
3.54707e-08
-1.57256e-08
8.68616e-08
4.28717e-08
-1.86451e-08
1.16814e-07
5.32011e-08
-2.27606e-08
1.56296e-07
6.71229e-08
-2.80267e-08
2.09862e-07
8.50077e-08
-3.43596e-08
2.82225e-07
1.05943e-07
-3.94698e-08
3.69266e-07
1.24554e-07
-4.21926e-08
3.73177e-07
1.04262e-07
-2.67795e-08
4.01633e-07
1.62264e-07
-7.79178e-11
3.73537e-07
2.27159e-07
9.59453e-08
3.19357e-07
2.81048e-07
1.43596e-07
2.47792e-07
3.26192e-07
1.76064e-07
1.68863e-07
3.59333e-07
1.93225e-07
8.65338e-08
3.81473e-07
2.02756e-07
3.1526e-09
3.92546e-07
2.06743e-07
-8.02199e-08
3.92834e-07
2.06783e-07
-1.62522e-07
3.82338e-07
2.02878e-07
-2.41408e-07
3.60777e-07
1.93446e-07
-3.12901e-07
3.28215e-07
1.76402e-07
-3.66996e-07
2.83642e-07
1.44132e-07
-3.94922e-07
2.30244e-07
9.66564e-08
-3.66493e-07
1.65707e-07
1.0658e-09
-3.63832e-07
1.0679e-07
-2.62045e-08
-2.76591e-07
1.27935e-07
-4.23633e-08
-2.0294e-07
1.10004e-07
-4.03268e-08
-1.47431e-07
8.97516e-08
-3.57974e-08
-1.05395e-07
7.26457e-08
-3.00477e-08
-7.21495e-08
5.97272e-08
-2.54724e-08
-4.42036e-08
5.075e-08
-2.23608e-08
-1.95048e-08
4.50169e-08
-2.02417e-08
4.05608e-08
-1.56735e-08
1.34576e-08
2.15479e-08
-1.03824e-08
3.03507e-08
2.37635e-08
-1.34338e-08
4.91503e-08
2.64133e-08
-1.47837e-08
7.09153e-08
3.0512e-08
-1.68063e-08
9.74383e-08
3.63921e-08
-2.00434e-08
1.30921e-07
4.43426e-08
-2.46243e-08
1.73983e-07
5.4585e-08
-3.05241e-08
2.29575e-07
6.71486e-08
-3.77329e-08
2.9865e-07
8.09638e-08
-4.40962e-08
3.77e-07
9.47903e-08
-4.85862e-08
4.20034e-07
9.75802e-08
-3.63521e-08
4.60612e-07
1.31533e-07
-9.84552e-09
4.274e-07
1.71904e-07
8.84668e-08
3.64097e-07
2.0894e-07
1.3541e-07
2.81269e-07
2.41037e-07
1.67983e-07
1.91093e-07
2.65303e-07
1.84206e-07
9.77077e-08
2.81782e-07
1.93077e-07
3.44047e-09
2.90118e-07
1.96695e-07
-9.08172e-08
2.90367e-07
1.96724e-07
-1.84174e-07
2.82527e-07
1.93167e-07
-2.74308e-07
2.66536e-07
1.84376e-07
-3.57083e-07
2.42738e-07
1.68252e-07
-4.20388e-07
2.1108e-07
1.35867e-07
-4.53637e-07
1.74401e-07
8.90921e-08
-4.13567e-07
1.34299e-07
-8.66255e-09
-3.71094e-07
1.00183e-07
-3.58662e-08
-2.92343e-07
9.7906e-08
-4.87217e-08
-2.21951e-07
8.45692e-08
-4.49573e-08
-1.64306e-07
7.13296e-08
-3.92228e-08
-1.18461e-07
5.94532e-08
-3.26529e-08
-8.13194e-08
5.00956e-08
-2.75098e-08
-4.98579e-08
4.33192e-08
-2.40307e-08
-2.20378e-08
3.88632e-08
-2.16663e-08
3.51882e-08
-1.66653e-08
1.46068e-08
1.77875e-08
-1.08463e-08
3.29084e-08
1.95577e-08
-1.40959e-08
5.32745e-08
2.16042e-08
-1.5557e-08
7.68091e-08
2.47264e-08
-1.7749e-08
1.05335e-07
2.91299e-08
-2.12635e-08
1.40975e-07
3.49563e-08
-2.62542e-08
1.86025e-07
4.22632e-08
-3.27279e-08
2.42844e-07
5.10448e-08
-4.07154e-08
3.11272e-07
6.06675e-08
-4.81318e-08
3.8843e-07
7.13693e-08
-5.37367e-08
4.49163e-07
7.95846e-08
-4.27378e-08
4.98039e-07
1.01025e-07
-1.83681e-08
4.63183e-07
1.26916e-07
7.98431e-08
3.94969e-07
1.51768e-07
1.25387e-07
3.05107e-07
1.73819e-07
1.57081e-07
2.0726e-07
1.9092e-07
1.7223e-07
1.05941e-07
2.02694e-07
1.80407e-07
3.68715e-09
2.08724e-07
1.83647e-07
-9.85599e-08
2.08948e-07
1.83667e-07
-1.9986e-07
2.03358e-07
1.80469e-07
-2.97686e-07
1.92008e-07
1.72353e-07
-3.87533e-07
1.75301e-07
1.57285e-07
-4.55822e-07
1.53603e-07
1.25766e-07
-4.90832e-07
1.29034e-07
8.03777e-08
-4.42643e-07
1.03371e-07
-1.72605e-08
-3.82146e-07
8.20008e-08
-4.23152e-08
-3.0446e-07
7.41261e-08
-5.39058e-08
-2.34636e-07
6.37864e-08
-4.90412e-08
-1.75641e-07
5.4613e-08
-4.22788e-08
-1.27604e-07
4.6384e-08
-3.49672e-08
-8.8001e-08
3.97919e-08
-2.92997e-08
-5.41003e-08
3.4907e-08
-2.54886e-08
-2.39601e-08
3.16291e-08
-2.2906e-08
2.87736e-08
-1.75455e-08
1.54956e-08
1.35208e-08
-1.12289e-08
3.48764e-08
1.48117e-08
-1.46348e-08
5.64161e-08
1.62447e-08
-1.61802e-08
8.12329e-08
1.84082e-08
-1.84985e-08
1.11152e-07
2.14276e-08
-2.22171e-08
1.48236e-07
2.53752e-08
-2.75024e-08
1.94609e-07
3.02707e-08
-3.43808e-08
2.52418e-07
3.61361e-08
-4.29003e-08
3.21413e-07
4.26941e-08
-5.10217e-08
3.99822e-07
5.03729e-08
-5.74122e-08
4.68743e-07
5.80381e-08
-4.73743e-08
5.22298e-07
7.16185e-08
-2.41487e-08
4.87281e-07
8.78577e-08
7.40752e-08
4.16345e-07
1.03763e-07
1.18941e-07
3.21962e-07
1.18056e-07
1.50145e-07
2.18858e-07
1.29336e-07
1.64688e-07
1.11914e-07
1.37189e-07
1.7245e-07
3.90821e-09
1.41266e-07
1.75464e-07
-1.04096e-07
1.41475e-07
1.75478e-07
-2.11039e-07
1.37806e-07
1.72495e-07
-3.14151e-07
1.30338e-07
1.64782e-07
-4.08564e-07
1.19403e-07
1.5031e-07
-4.79634e-07
1.05404e-07
1.1927e-07
-5.14876e-07
8.97255e-08
7.45508e-08
-4.62066e-07
7.36611e-08
-2.31002e-08
-3.93243e-07
6.01884e-08
-4.70105e-08
-3.1423e-07
5.27408e-08
-5.76286e-08
-2.43756e-07
4.53035e-08
-5.19904e-08
-1.83658e-07
3.90545e-08
-4.45397e-08
-1.34131e-07
3.35791e-08
-3.67221e-08
-9.2846e-08
2.91935e-08
-3.06865e-08
-5.72172e-08
2.59179e-08
-2.66397e-08
-2.53836e-08
2.36946e-08
-2.38991e-08
2.16531e-08
-1.8263e-08
1.61138e-08
8.92836e-09
-1.15214e-08
3.6242e-08
9.7237e-09
-1.50402e-08
5.85799e-08
1.0552e-08
-1.66452e-08
8.4248e-08
1.17924e-08
-1.90523e-08
1.15073e-07
1.35163e-08
-2.29132e-08
1.53086e-07
1.5764e-08
-2.84018e-08
2.00358e-07
1.85551e-08
-3.55564e-08
2.58998e-07
2.19279e-08
-4.4432e-08
3.28892e-07
2.58098e-08
-5.30102e-08
4.08682e-07
3.04801e-08
-5.98971e-08
4.81533e-07
3.56243e-08
-5.04375e-08
5.37685e-07
4.32525e-08
-2.77856e-08
5.02677e-07
5.22086e-08
7.06569e-08
4.3016e-07
6.10012e-08
1.15279e-07
3.33011e-07
6.8936e-08
1.4627e-07
2.26553e-07
7.52751e-08
1.60519e-07
1.1593e-07
7.97379e-08
1.68075e-07
4.11366e-09
8.21092e-08
1.70973e-07
-1.07709e-07
8.23144e-08
1.70983e-07
-2.18355e-07
8.03429e-08
1.68109e-07
-3.2486e-07
7.6248e-08
1.60595e-07
-4.2209e-07
7.0226e-08
1.46408e-07
-4.94801e-07
6.25408e-08
1.15573e-07
-5.30088e-07
5.39239e-08
7.10892e-08
-4.74711e-07
4.50757e-08
-2.67916e-08
-4.01901e-07
3.75102e-08
-5.01319e-08
-3.21457e-07
3.2467e-08
-6.01701e-08
-2.50022e-07
2.7911e-08
-5.40427e-08
-1.89007e-07
2.41844e-08
-4.61452e-08
-1.38458e-07
2.10185e-08
-3.79879e-08
-9.60733e-08
1.85088e-08
-3.17004e-08
-5.93057e-08
1.66409e-08
-2.74907e-08
-2.63381e-08
1.53671e-08
-2.46401e-08
1.41235e-08
-1.88085e-08
1.64689e-08
4.17529e-09
-1.17158e-08
3.70267e-08
4.46884e-09
-1.53029e-08
5.98205e-08
4.70044e-09
-1.69422e-08
8.59724e-08
5.04023e-09
-1.93998e-08
1.17313e-07
5.51741e-09
-2.33412e-08
1.55866e-07
6.15366e-09
-2.89435e-08
2.03694e-07
6.97856e-09
-3.62513e-08
2.62911e-07
8.03398e-09
-4.53226e-08
3.33498e-07
9.36892e-09
-5.41468e-08
4.14228e-07
1.10514e-08
-6.13009e-08
4.88863e-07
1.31064e-08
-5.21176e-08
5.46242e-07
1.5568e-08
-2.96942e-08
5.1123e-07
1.82313e-08
6.89893e-08
4.37869e-07
2.07733e-08
1.13589e-07
3.39233e-07
2.30364e-08
1.44535e-07
2.30936e-07
2.4887e-08
1.58685e-07
1.18267e-07
2.62416e-08
1.66165e-07
4.3153e-09
2.70435e-08
1.69018e-07
-1.09654e-07
2.72587e-08
1.69025e-07
-2.22376e-07
2.68739e-08
1.66191e-07
-3.30771e-07
2.58947e-08
1.58748e-07
-4.29552e-07
2.43541e-08
1.44653e-07
-5.03177e-07
2.23105e-08
1.13855e-07
-5.38531e-07
1.98939e-08
6.93843e-08
-4.8196e-07
1.72576e-08
-2.87537e-08
-4.0735e-07
1.47716e-08
-5.18712e-08
-3.25943e-07
1.26944e-08
-6.16344e-08
-2.53776e-07
1.09873e-08
-5.5243e-08
-1.9213e-07
9.64246e-09
-4.71037e-08
-1.4095e-07
8.59654e-09
-3.87582e-08
-9.79212e-08
7.80995e-09
-3.23302e-08
-6.0499e-08
7.24792e-09
-2.80292e-08
-2.68822e-08
6.86681e-09
-2.51166e-08
6.40871e-09
-1.91674e-08
1.65637e-08
-5.78576e-10
-1.18098e-08
3.72399e-08
-7.86512e-10
-1.54208e-08
6.01606e-08
-1.1504e-09
-1.70698e-08
8.6452e-08
-1.70953e-09
-1.95417e-08
1.17952e-07
-2.47725e-09
-2.35057e-08
1.56696e-07
-3.45071e-09
-2.91397e-08
2.04755e-07
-4.59076e-09
-3.64895e-08
2.64254e-07
-5.8501e-09
-4.56142e-08
3.35179e-07
-7.05414e-09
-5.45023e-08
4.16281e-07
-8.32476e-09
-6.17256e-08
4.91271e-07
-9.29289e-09
-5.25913e-08
5.48837e-07
-1.18168e-08
-3.01808e-08
5.13736e-07
-1.53204e-08
6.86525e-08
4.40101e-07
-1.89151e-08
1.13323e-07
3.41062e-07
-2.22367e-08
1.44312e-07
2.32275e-07
-2.48037e-08
1.58478e-07
1.19059e-07
-2.65049e-08
1.65962e-07
4.52601e-09
-2.72376e-08
1.68814e-07
-1.10039e-07
-2.69957e-08
1.68819e-07
-2.23348e-07
-2.57957e-08
1.65979e-07
-3.32298e-07
-2.36807e-08
1.58525e-07
-4.31568e-07
-2.07837e-08
1.44408e-07
-5.05559e-07
-1.72559e-08
1.13558e-07
-5.41088e-07
-1.35825e-08
6.90059e-08
-4.84379e-07
-1.01501e-08
-2.9302e-08
-4.09424e-07
-7.77156e-09
-5.24113e-08
-3.27643e-07
-6.96035e-09
-6.21263e-08
-2.55127e-07
-5.86558e-09
-5.56637e-08
-1.93179e-07
-4.84712e-09
-4.74581e-08
-1.41739e-07
-3.78547e-09
-3.90576e-08
-9.84825e-08
-2.85846e-09
-3.25884e-08
-6.08516e-08
-2.12234e-09
-2.82606e-08
-2.70387e-08
-1.61628e-09
-2.53298e-08
-1.2917e-09
-1.93383e-08
1.63993e-08
-5.17467e-09
-1.18032e-08
3.68833e-08
-5.87629e-09
-1.53942e-08
5.96024e-08
-6.84064e-09
-1.70289e-08
8.56893e-08
-8.31707e-09
-1.94793e-08
1.16994e-07
-1.03734e-08
-2.34089e-08
1.55578e-07
-1.3041e-08
-2.89935e-08
2.03545e-07
-1.62821e-08
-3.62755e-08
2.6304e-07
-2.0031e-08
-4.5314e-08
3.33971e-07
-2.3898e-08
-5.40877e-08
4.14923e-07
-2.80875e-08
-6.11889e-08
4.88903e-07
-3.13844e-08
-5.18882e-08
5.45602e-07
-3.92259e-08
-2.92897e-08
5.10306e-07
-4.96137e-08
6.95893e-08
4.36945e-07
-5.99678e-08
1.14414e-07
3.38567e-07
-6.93814e-08
1.45522e-07
2.30622e-07
-7.66702e-08
1.59812e-07
1.1834e-07
-8.15985e-08
1.67376e-07
4.76201e-09
-8.39286e-08
1.70269e-07
-1.08864e-07
-8.36385e-08
1.70269e-07
-2.21293e-07
-8.07471e-08
1.6738e-07
-3.29485e-07
-7.53242e-08
1.59836e-07
-4.28209e-07
-6.76454e-08
1.45586e-07
-5.02055e-07
-5.80141e-08
1.14604e-07
-5.37907e-07
-4.76173e-08
6.9887e-08
-4.8214e-07
-3.74263e-08
-2.84909e-08
-4.08223e-07
-2.98976e-08
-5.17906e-08
-3.26608e-07
-2.69056e-08
-6.16698e-08
-2.54097e-07
-2.30559e-08
-5.53205e-08
-1.92166e-07
-1.95596e-08
-4.72191e-08
-1.40836e-07
-1.62219e-08
-3.88935e-08
-9.77657e-08
-1.34482e-08
-3.24804e-08
-6.03696e-08
-1.13296e-08
-2.81888e-08
-2.6811e-08
-9.89253e-09
-2.52824e-08
-8.78001e-09
-1.93227e-08
1.59734e-08
-9.44739e-09
-1.17007e-08
3.59496e-08
-1.06249e-08
-1.52276e-08
5.81267e-08
-1.21946e-08
-1.68231e-08
8.36422e-08
-1.46177e-08
-1.9215e-08
1.14362e-07
-1.80433e-08
-2.30499e-08
1.52395e-07
-2.25757e-08
-2.84983e-08
1.99928e-07
-2.82221e-08
-3.55935e-08
2.59185e-07
-3.48951e-08
-4.43921e-08
3.29984e-07
-4.18441e-08
-5.28531e-08
4.10502e-07
-4.89815e-08
-5.9624e-08
4.81562e-07
-5.25518e-08
-4.98923e-08
5.35954e-07
-6.68108e-08
-2.68078e-08
5.00372e-07
-8.6117e-08
7.20856e-08
4.27952e-07
-1.04795e-07
1.17247e-07
3.31461e-07
-1.21503e-07
1.48613e-07
2.25818e-07
-1.34223e-07
1.63195e-07
1.16049e-07
-1.42781e-07
1.70952e-07
5.04468e-09
-1.46869e-07
1.73944e-07
-1.06029e-07
-1.46502e-07
1.73937e-07
-2.1601e-07
-1.41699e-07
1.70933e-07
-3.22009e-07
-1.32506e-07
1.63181e-07
-4.19006e-07
-1.19273e-07
1.48624e-07
-4.92092e-07
-1.02294e-07
1.17367e-07
-5.28428e-07
-8.35829e-08
7.23011e-08
-4.75082e-07
-6.46519e-08
-2.61198e-08
-4.04113e-07
-5.09637e-08
-4.99032e-08
-3.22958e-07
-4.78527e-08
-6.02078e-08
-2.50613e-07
-4.12298e-08
-5.41715e-08
-1.88962e-07
-3.48466e-08
-4.63634e-08
-1.38126e-07
-2.88029e-08
-3.8255e-08
-9.56941e-08
-2.38769e-08
-3.20035e-08
-5.90101e-08
-2.01978e-08
-2.78159e-08
-2.61812e-08
-1.77415e-08
-2.49799e-08
-1.58338e-08
-1.91274e-08
1.52803e-08
-1.3217e-08
-1.15107e-08
3.44208e-08
-1.48342e-08
-1.49311e-08
5.56838e-08
-1.69936e-08
-1.64641e-08
8.01992e-08
-2.0371e-08
-1.8762e-08
1.09843e-07
-2.52432e-08
-2.24439e-08
1.46805e-07
-3.18683e-08
-2.76693e-08
1.93471e-07
-4.04322e-08
-3.44558e-08
2.52347e-07
-5.09221e-08
-4.28493e-08
3.23457e-07
-6.21845e-08
-5.07696e-08
4.03999e-07
-7.257e-08
-5.69537e-08
4.68517e-07
-7.06005e-08
-4.6469e-08
5.18254e-07
-9.41229e-08
-2.24252e-08
4.82341e-07
-1.26791e-07
7.65874e-08
4.11867e-07
-1.56775e-07
1.22454e-07
3.18923e-07
-1.82848e-07
1.5429e-07
2.17395e-07
-2.02128e-07
1.69432e-07
1.1199e-07
-2.14931e-07
1.77554e-07
5.40291e-09
-2.21017e-07
1.80736e-07
-1.01277e-07
-2.20536e-07
1.80715e-07
-2.06971e-07
-2.13501e-07
1.77496e-07
-3.08992e-07
-1.99836e-07
1.69351e-07
-4.02658e-07
-1.79819e-07
1.54212e-07
-4.74064e-07
-1.53349e-07
1.2246e-07
-5.11051e-07
-1.23275e-07
7.66797e-08
-4.62544e-07
-9.12607e-08
-2.18984e-08
-3.98095e-07
-6.87811e-08
-4.66311e-08
-3.16943e-07
-7.13238e-08
-5.76814e-08
-2.4434e-07
-6.16306e-08
-5.22021e-08
-1.83137e-07
-5.11463e-08
-4.49026e-08
-1.33267e-07
-4.15106e-08
-3.71625e-08
-9.20496e-08
-3.39154e-08
-3.11791e-08
-5.66541e-08
-2.84312e-08
-2.7162e-08
-2.50978e-08
-2.48579e-08
-2.444e-08
-2.21608e-08
-1.87708e-08
1.43335e-08
-1.63084e-08
-1.12421e-08
3.2317e-08
-1.83018e-08
-1.45159e-08
5.2282e-08
-2.09976e-08
-1.5961e-08
7.53177e-08
-2.52825e-08
-1.81242e-08
1.03278e-07
-3.1621e-08
-2.1583e-08
1.38438e-07
-4.05534e-08
-2.64747e-08
1.83521e-07
-5.27247e-08
-3.279e-08
2.41703e-07
-6.85602e-08
-4.0544e-08
3.14352e-07
-8.72318e-08
-4.76019e-08
3.98043e-07
-1.03314e-07
-5.29469e-08
4.48126e-07
-7.92565e-08
-4.14266e-08
4.88651e-07
-1.1916e-07
-1.54887e-08
4.5352e-07
-1.75093e-07
8.34323e-08
3.87011e-07
-2.20876e-07
1.30609e-07
3.00007e-07
-2.59056e-07
1.63212e-07
2.04866e-07
-2.86304e-07
1.79317e-07
1.05976e-07
-3.04076e-07
1.88036e-07
5.87385e-09
-3.12444e-07
1.91529e-07
-9.43439e-08
-3.11804e-07
1.91485e-07
-1.93605e-07
-3.02153e-07
1.87913e-07
-2.89398e-07
-2.83173e-07
1.79131e-07
-3.77415e-07
-2.54801e-07
1.62999e-07
-4.4524e-07
-2.15969e-07
1.30445e-07
-4.82002e-07
-1.69878e-07
8.33644e-08
-4.4303e-07
-1.15062e-07
-1.51707e-08
-3.92806e-07
-7.7224e-08
-4.17813e-08
-3.08523e-07
-1.01727e-07
-5.38796e-08
-2.34465e-07
-8.65001e-08
-4.91886e-08
-1.74046e-07
-6.88611e-08
-4.2704e-08
-1.25884e-07
-5.41227e-08
-3.55499e-08
-8.66564e-08
-4.31625e-08
-2.99807e-08
-5.3235e-08
-3.56292e-08
-2.62234e-08
-2.35455e-08
-3.08762e-08
-2.36712e-08
-2.74432e-08
-1.82631e-08
1.31381e-08
-1.8531e-08
-1.09156e-08
2.96373e-08
-2.07913e-08
-1.40097e-08
4.78615e-08
-2.38693e-08
-1.53525e-08
6.87719e-08
-2.88329e-08
-1.73599e-08
9.40785e-08
-3.63663e-08
-2.05614e-08
1.2604e-07
-4.7443e-08
-2.50722e-08
1.67848e-07
-6.3664e-08
-3.0868e-08
2.24298e-07
-8.71094e-08
-3.79014e-08
3.00866e-07
-1.19856e-07
-4.39434e-08
3.96326e-07
-1.50957e-07
-4.78178e-08
4.13818e-07
-6.32678e-08
-3.34798e-08
4.39148e-07