/*--------------------------------*- C++ -*----------------------------------*\
| =========                 |                                                 |
| \\      /  F ield         | OpenFOAM: The Open Source CFD Toolbox           |
|  \\    /   O peration     | Version:  2112                                  |
|   \\  /    A nd           | Website:  www.openfoam.com                      |
|    \\/     M anipulation  |                                                 |
\*---------------------------------------------------------------------------*/
FoamFile
{
    version     2.0;
    format      ascii;
    arch        "LSB;label=32;scalar=64";
    class       volVectorField;
    location    "0.3";
    object      U;
}
// * * * * * * * * * * * * * * * * * * * * * * * * * * * * * * * * * * * * * //

dimensions      [0 1 -1 0 0 0 0];

internalField   nonuniform List<vector> 
64906
(
(8.82658e-07 2.44204e-06 -3.27371e-06)
(3.05464e-06 2.52783e-06 -3.46383e-06)
(5.29364e-06 2.65614e-06 -3.56467e-06)
(7.47523e-06 2.88731e-06 -3.74327e-06)
(9.57714e-06 3.21451e-06 -4.00337e-06)
(1.15775e-05 3.63582e-06 -4.34193e-06)
(1.34574e-05 4.15568e-06 -4.75843e-06)
(1.51717e-05 4.78745e-06 -5.25008e-06)
(1.66655e-05 5.53472e-06 -5.81542e-06)
(1.78097e-05 6.42875e-06 -6.4378e-06)
(1.84864e-05 7.4302e-06 -7.1088e-06)
(1.84675e-05 8.58207e-06 -7.78717e-06)
(1.7608e-05 9.70832e-06 -8.45236e-06)
(1.59427e-05 1.07799e-05 -9.05916e-06)
(1.3514e-05 1.17033e-05 -9.58535e-06)
(1.04582e-05 1.24446e-05 -1.0003e-05)
(6.9246e-06 1.29611e-05 -1.02973e-05)
(3.10183e-06 1.32324e-05 -1.04561e-05)
(-8.13201e-07 1.3246e-05 -1.04746e-05)
(-4.61345e-06 1.30019e-05 -1.03526e-05)
(-8.10002e-06 1.25131e-05 -1.00957e-05)
(-1.10846e-05 1.18001e-05 -9.71648e-06)
(-1.34178e-05 1.09066e-05 -9.23004e-06)
(-1.49629e-05 9.86711e-06 -8.66497e-06)
(-1.568e-05 8.77733e-06 -8.04384e-06)
(-1.55356e-05 7.66624e-06 -7.41303e-06)
(-1.46802e-05 6.71398e-06 -6.79351e-06)
(-1.3346e-05 5.8752e-06 -6.22836e-06)
(-1.16514e-05 5.19269e-06 -5.72712e-06)
(-9.72883e-06 4.63709e-06 -5.30923e-06)
(-7.63199e-06 4.20995e-06 -4.98082e-06)
(-5.4145e-06 3.9083e-06 -4.75372e-06)
(-3.13226e-06 3.74225e-06 -4.62492e-06)
(-8.23715e-07 3.61557e-06 -4.3822e-06)
(9.05302e-07 7.15341e-06 -3.50863e-06)
(3.21409e-06 7.5726e-06 -4.25998e-06)
(5.83765e-06 8.0075e-06 -4.41778e-06)
(8.30693e-06 8.70071e-06 -4.64109e-06)
(1.06696e-05 9.6632e-06 -4.97835e-06)
(1.29268e-05 1.09009e-05 -5.42141e-06)
(1.50736e-05 1.24295e-05 -5.96985e-06)
(1.70618e-05 1.42875e-05 -6.62274e-06)
(1.88517e-05 1.64945e-05 -7.3811e-06)
(2.02693e-05 1.91396e-05 -8.22683e-06)
(2.1204e-05 2.21254e-05 -9.15039e-06)
(2.1294e-05 2.55832e-05 -1.00953e-05)
(2.03233e-05 2.89554e-05 -1.10241e-05)
(1.8405e-05 3.2143e-05 -1.18725e-05)
(1.55772e-05 3.48819e-05 -1.26062e-05)
(1.20278e-05 3.70723e-05 -1.31873e-05)
(7.92383e-06 3.85967e-05 -1.35953e-05)
(3.48898e-06 3.93971e-05 -1.38141e-05)
(-1.05318e-06 3.94386e-05 -1.38369e-05)
(-5.4638e-06 3.87215e-05 -1.36638e-05)
(-9.51729e-06 3.72813e-05 -1.33021e-05)
(-1.29897e-05 3.51772e-05 -1.27684e-05)
(-1.57136e-05 3.25289e-05 -1.20839e-05)
(-1.74998e-05 2.94384e-05 -1.12872e-05)
(-1.8313e-05 2.61756e-05 -1.0413e-05)
(-1.80403e-05 2.28399e-05 -9.52724e-06)
(-1.69052e-05 2.00011e-05 -8.66779e-06)
(-1.52748e-05 1.75199e-05 -7.89362e-06)
(-1.32563e-05 1.55037e-05 -7.21557e-06)
(-1.10254e-05 1.38683e-05 -6.65563e-06)
(-8.61264e-06 1.26069e-05 -6.22063e-06)
(-6.04688e-06 1.16992e-05 -5.92862e-06)
(-3.28995e-06 1.11257e-05 -5.72135e-06)
(-8.38554e-07 1.05221e-05 -4.72698e-06)
(1.04123e-06 1.24971e-05 -3.59454e-06)
(3.62917e-06 1.34964e-05 -4.39602e-06)
(6.6627e-06 1.43815e-05 -4.55936e-06)
(9.51815e-06 1.56779e-05 -4.80312e-06)
(1.2272e-05 1.74522e-05 -5.17984e-06)
(1.49375e-05 1.97292e-05 -5.68072e-06)
(1.75314e-05 2.25441e-05 -6.30927e-06)
(2.00085e-05 2.59765e-05 -7.06802e-06)
(2.2367e-05 3.00745e-05 -7.9674e-06)
(2.43493e-05 3.50538e-05 -8.98399e-06)
(2.588e-05 4.07289e-05 -1.01237e-05)
(2.62524e-05 4.75189e-05 -1.12914e-05)
(2.50794e-05 5.40615e-05 -1.24519e-05)
(2.26979e-05 6.02223e-05 -1.35044e-05)
(1.91459e-05 6.54782e-05 -1.44137e-05)
(1.47171e-05 6.9669e-05 -1.51284e-05)
(9.60783e-06 7.25773e-05 -1.56281e-05)
(4.10089e-06 7.41011e-05 -1.58932e-05)
(-1.53815e-06 7.41768e-05 -1.59167e-05)
(-7.01991e-06 7.28047e-05 -1.56985e-05)
(-1.20765e-05 7.00494e-05 -1.52464e-05)
(-1.64236e-05 6.60145e-05 -1.45805e-05)
(-1.98638e-05 6.09214e-05 -1.37218e-05)
(-2.20994e-05 5.49336e-05 -1.27225e-05)
(-2.30967e-05 4.85866e-05 -1.16179e-05)
(-2.25141e-05 4.20134e-05 -1.05114e-05)
(-2.07526e-05 3.66052e-05 -9.43763e-06)
(-1.85261e-05 3.19193e-05 -8.49577e-06)
(-1.58972e-05 2.81615e-05 -7.68037e-06)
(-1.31242e-05 2.51238e-05 -7.01998e-06)
(-1.01916e-05 2.27783e-05 -6.51361e-06)
(-7.12135e-06 2.10631e-05 -6.18126e-06)
(-3.82881e-06 1.98829e-05 -5.95911e-06)
(-1.01362e-06 1.8468e-05 -4.88873e-06)
(1.28759e-06 1.76348e-05 -3.75061e-06)
(4.35244e-06 1.91142e-05 -4.57971e-06)
(7.97232e-06 2.04497e-05 -4.75893e-06)
(1.14106e-05 2.23866e-05 -5.03934e-06)
(1.47704e-05 2.50294e-05 -5.47765e-06)
(1.80789e-05 2.84238e-05 -6.06781e-06)
(2.13903e-05 3.26284e-05 -6.8212e-06)
(2.467e-05 3.77823e-05 -7.74692e-06)
(2.80139e-05 4.39819e-05 -8.8742e-06)
(3.1014e-05 5.16944e-05 -1.01695e-05)
(3.37625e-05 6.06138e-05 -1.16776e-05)
(3.47195e-05 7.19877e-05 -1.32234e-05)
(3.31156e-05 8.26605e-05 -1.47812e-05)
(2.99024e-05 9.26359e-05 -1.61775e-05)
(2.50924e-05 0.00010104 -1.73826e-05)
(1.918e-05 0.000107712 -1.83191e-05)
(1.23908e-05 0.000112322 -1.89709e-05)
(5.10359e-06 0.000114729 -1.93127e-05)
(-2.35483e-06 0.00011484 -1.93371e-05)
(-9.61611e-06 0.000112653 -1.90444e-05)
(-1.63504e-05 0.000108265 -1.84421e-05)
(-2.21757e-05 0.000101816 -1.75566e-05)
(-2.68641e-05 9.36433e-05 -1.64038e-05)
(-2.99117e-05 8.39106e-05 -1.50628e-05)
(-3.13136e-05 7.35139e-05 -1.35626e-05)
(-3.01015e-05 6.24417e-05 -1.2081e-05)
(-2.70751e-05 5.39148e-05 -1.06409e-05)
(-2.37878e-05 4.66197e-05 -9.42499e-06)
(-2.01125e-05 4.09024e-05 -8.38676e-06)
(-1.64589e-05 3.63055e-05 -7.56698e-06)
(-1.27044e-05 3.27646e-05 -6.94722e-06)
(-8.86098e-06 3.01637e-05 -6.54563e-06)
(-4.78946e-06 2.83561e-05 -6.29062e-06)
(-1.3361e-06 2.62485e-05 -5.1693e-06)
(1.65018e-06 2.25947e-05 -3.96928e-06)
(5.38796e-06 2.45394e-05 -4.8661e-06)
(9.83226e-06 2.63611e-05 -5.07928e-06)
(1.40927e-05 2.90133e-05 -5.41661e-06)
(1.83141e-05 3.26379e-05 -5.94653e-06)
(2.25434e-05 3.73014e-05 -6.66858e-06)
(2.68979e-05 4.30868e-05 -7.6072e-06)
(3.13712e-05 5.02043e-05 -8.7824e-06)
(3.62894e-05 5.8819e-05 -1.02587e-05)
(4.09922e-05 6.98542e-05 -1.19829e-05)
(4.61852e-05 8.28739e-05 -1.4093e-05)
(4.83105e-05 0.000101392 -1.62491e-05)
(4.57388e-05 0.000117925 -1.84584e-05)
(4.10873e-05 0.000133169 -2.04077e-05)
(3.42307e-05 0.0001458 -2.20913e-05)
(2.60055e-05 0.000155783 -2.33786e-05)
(1.66291e-05 0.000162645 -2.42721e-05)
(6.62051e-06 0.000166217 -2.47353e-05)
(-3.61537e-06 0.000166365 -2.47615e-05)
(-1.3598e-05 0.000163088 -2.4351e-05)
(-2.2919e-05 0.000156519 -2.35107e-05)
(-3.10527e-05 0.000146828 -2.22779e-05)
(-3.77782e-05 0.000134495 -2.06498e-05)
(-4.22389e-05 0.000119557 -1.87594e-05)
(-4.45761e-05 0.000103373 -1.661e-05)
(-4.21239e-05 8.52238e-05 -1.45226e-05)
(-3.65844e-05 7.27479e-05 -1.2483e-05)
(-3.15473e-05 6.22506e-05 -1.08458e-05)
(-2.62188e-05 5.42548e-05 -9.46624e-06)
(-2.12669e-05 4.7848e-05 -8.40843e-06)
(-1.63241e-05 4.29174e-05 -7.6197e-06)
(-1.13762e-05 3.92883e-05 -7.11253e-06)
(-6.19026e-06 3.6772e-05 -6.79441e-06)
(-1.82145e-06 3.39653e-05 -5.55912e-06)
(2.13248e-06 2.72729e-05 -4.24655e-06)
(6.76647e-06 2.96857e-05 -5.23603e-06)
(1.23114e-05 3.20463e-05 -5.49621e-06)
(1.76757e-05 3.55107e-05 -5.90846e-06)
(2.3058e-05 4.02631e-05 -6.55814e-06)
(2.85286e-05 4.63924e-05 -7.45315e-06)
(3.42943e-05 5.40014e-05 -8.63722e-06)
(4.04035e-05 6.33576e-05 -1.01473e-05)
(4.76654e-05 7.4698e-05 -1.21104e-05)
(5.50703e-05 8.97058e-05 -1.44349e-05)
(6.53016e-05 0.000107654 -1.74646e-05)
(6.97702e-05 0.000138509 -2.05284e-05)
(6.48941e-05 0.000163684 -2.37314e-05)
(5.77778e-05 0.000186306 -2.64967e-05)
(4.77067e-05 0.00020468 -2.88967e-05)
(3.60261e-05 0.000219147 -3.0685e-05)
(2.28253e-05 0.00022905 -3.1927e-05)
(8.82329e-06 0.000234188 -3.25646e-05)
(-5.48373e-06 0.000234379 -3.25936e-05)
(-1.94617e-05 0.000229619 -3.20141e-05)
(-3.26104e-05 0.00022009 -3.08305e-05)
(-4.42002e-05 0.000205987 -2.91018e-05)
(-5.41367e-05 0.000187975 -2.67615e-05)
(-6.10354e-05 0.000165707 -2.40597e-05)
(-6.56457e-05 0.000140944 -2.09185e-05)
(-6.07277e-05 0.000110479 -1.79293e-05)
(-5.00495e-05 9.32981e-05 -1.4971e-05)
(-4.22823e-05 7.89392e-05 -1.27446e-05)
(-3.4516e-05 6.83399e-05 -1.08874e-05)
(-2.77954e-05 5.983e-05 -9.50967e-06)
(-2.12461e-05 5.32555e-05 -8.49622e-06)
(-1.4804e-05 4.84032e-05 -7.84918e-06)
(-8.10246e-06 4.50537e-05 -7.44438e-06)
(-2.48609e-06 4.15086e-05 -6.05338e-06)
(2.7514e-06 3.15471e-05 -4.57367e-06)
(8.53174e-06 3.44362e-05 -5.67681e-06)
(1.54948e-05 3.7401e-05 -5.99532e-06)
(2.22947e-05 4.17978e-05 -6.49982e-06)
(2.91943e-05 4.7869e-05 -7.29692e-06)
(3.62816e-05 5.57283e-05 -8.40557e-06)
(4.38633e-05 6.548e-05 -9.89428e-06)
(5.2068e-05 7.73144e-05 -1.18229e-05)
(6.26375e-05 9.14507e-05 -1.44191e-05)
(7.3942e-05 0.000110158 -1.75016e-05)
(9.49585e-05 0.000132726 -2.18171e-05)
(0.000104301 0.000186584 -2.60822e-05)
(9.35259e-05 0.000224198 -3.06781e-05)
(8.20801e-05 0.000256843 -3.45627e-05)
(6.70696e-05 0.000282983 -3.79834e-05)
(5.03751e-05 0.00030356 -4.04223e-05)
(3.16701e-05 0.000317626 -4.21298e-05)
(1.1949e-05 0.000324903 -4.29999e-05)
(-8.18413e-06 0.000325145 -4.30329e-05)
(-2.78864e-05 0.000318347 -4.22288e-05)
(-4.65502e-05 0.00030475 -4.0587e-05)
(-6.3166e-05 0.000284619 -3.82149e-05)
(-7.80546e-05 0.000258903 -3.48589e-05)
(-8.92603e-05 0.000226642 -3.10434e-05)
(-9.97662e-05 0.000189463 -2.65088e-05)
(-8.97399e-05 0.000135907 -2.23238e-05)
(-6.81181e-05 0.000114517 -1.80768e-05)
(-5.65055e-05 9.65307e-05 -1.51071e-05)
(-4.53278e-05 8.32265e-05 -1.26271e-05)
(-3.6349e-05 7.2342e-05 -1.08496e-05)
(-2.77279e-05 6.37815e-05 -9.55699e-06)
(-1.93308e-05 5.74334e-05 -8.73699e-06)
(-1.06319e-05 5.30724e-05 -8.22413e-06)
(-3.37045e-06 4.87223e-05 -6.64062e-06)
(3.52425e-06 3.52389e-05 -4.94307e-06)
(1.07344e-05 3.85927e-05 -6.17948e-06)
(1.94857e-05 4.22108e-05 -6.56606e-06)
(2.81262e-05 4.76458e-05 -7.17742e-06)
(3.69866e-05 5.52281e-05 -8.14475e-06)
(4.61393e-05 6.5118e-05 -9.49967e-06)
(5.58804e-05 7.7415e-05 -1.13381e-05)
(6.63745e-05 9.20252e-05 -1.37554e-05)
(8.05033e-05 0.00010875 -1.71432e-05)
(9.62283e-05 0.000130501 -2.12206e-05)
(0.000141108 0.000153039 -2.70105e-05)
(0.000160657 0.000253893 -3.28021e-05)
(0.000135016 0.000308722 -3.92708e-05)
(0.000116539 0.000353773 -4.45527e-05)
(9.44182e-05 0.000389806 -4.93253e-05)
(7.06659e-05 0.000418307 -5.24609e-05)
(4.41671e-05 0.000437885 -5.47082e-05)
(1.63424e-05 0.000448008 -5.58516e-05)
(-1.20399e-05 0.000448315 -5.58899e-05)
(-3.98553e-05 0.0004388 -5.4823e-05)
(-6.63349e-05 0.000419811 -5.2651e-05)
(-9.00417e-05 0.00039186 -4.95917e-05)
(-0.00011209 0.000356318 -4.48886e-05)
(-0.000130338 0.000311642 -3.96819e-05)
(-0.000155797 0.000257227 -3.32729e-05)
(-0.000135064 0.000156337 -2.7565e-05)
(-8.932e-05 0.000135822 -2.184e-05)
(-7.35702e-05 0.000114755 -1.78929e-05)
(-5.87051e-05 9.88835e-05 -1.46301e-05)
(-4.72375e-05 8.52606e-05 -1.23862e-05)
(-3.61274e-05 7.42621e-05 -1.07738e-05)
(-2.52239e-05 6.60886e-05 -9.75605e-06)
(-1.39311e-05 6.05192e-05 -9.11868e-06)
(-4.53229e-06 5.53177e-05 -7.30653e-06)
(4.45545e-06 3.81414e-05 -5.34833e-06)
(1.33953e-05 4.19328e-05 -6.73657e-06)
(2.43394e-05 4.62431e-05 -7.20249e-06)
(3.52925e-05 5.28375e-05 -7.93833e-06)
(4.66643e-05 6.22192e-05 -9.10324e-06)
(5.84681e-05 7.47082e-05 -1.07432e-05)
(7.07718e-05 9.05438e-05 -1.2976e-05)
(8.34127e-05 0.000108774 -1.59532e-05)
(0.000101077 0.000128514 -2.03633e-05)
(0.000116799 0.000144137 -2.54461e-05)
(0.000209833 0.000138345 -3.28553e-05)
(0.000252501 0.000339424 -3.6859e-05)
(0.000191773 0.000415693 -4.51237e-05)
(0.00016294 0.000474432 -5.19108e-05)
(0.000131572 0.000523562 -5.81627e-05)
(9.84435e-05 0.000562625 -6.16751e-05)
(6.13655e-05 0.000589686 -6.43441e-05)
(2.23768e-05 0.000603619 -6.5711e-05)
(-1.73905e-05 0.000604008 -6.57541e-05)
(-5.63843e-05 0.000590845 -6.44737e-05)
(-9.34794e-05 0.000564536 -6.18884e-05)
(-0.000126628 0.000526173 -5.84621e-05)
(-0.000158048 0.000477643 -5.22827e-05)
(-0.000186721 0.000419301 -4.55773e-05)
(-0.000247614 0.000343242 -3.73666e-05)
(-0.000202762 0.00014097 -3.34824e-05)
(-0.000108415 0.000150483 -2.60926e-05)
(-9.34389e-05 0.000135475 -2.11581e-05)
(-7.4835e-05 0.000116512 -1.68903e-05)
(-6.09688e-05 9.92356e-05 -1.41178e-05)
(-4.68687e-05 8.47531e-05 -1.21489e-05)
(-3.27465e-05 7.41498e-05 -1.09044e-05)
(-1.8129e-05 6.70645e-05 -1.01223e-05)
(-6.00618e-06 6.09346e-05 -8.04618e-06)
(5.55624e-06 3.99895e-05 -5.77506e-06)
(1.65495e-05 4.41214e-05 -7.33086e-06)
(3.01655e-05 4.90391e-05 -7.88074e-06)
(4.4081e-05 5.67026e-05 -8.74537e-06)
(5.88547e-05 6.78477e-05 -1.01075e-05)
(7.44646e-05 8.31246e-05 -1.20152e-05)
(8.99645e-05 0.000103087 -1.456e-05)
(0.000104519 0.000126469 -1.80293e-05)
(0.000116409 0.000147691 -2.31624e-05)
(9.53023e-05 0.000128408 -2.98981e-05)
(0.000256971 0.000130365 -4.09422e-05)
(0.000366072 0.000512871 -3.73209e-05)
(0.00025573 0.000581903 -4.49823e-05)
(0.000222767 0.000635242 -5.10239e-05)
(0.000182475 0.000693985 -5.68736e-05)
(0.000136769 0.000743123 -5.94191e-05)
(8.51574e-05 0.000778529 -6.17232e-05)
(3.06637e-05 0.000796849 -6.29754e-05)
(-2.48139e-05 0.00079734 -6.30186e-05)
(-7.93238e-05 0.000779996 -6.1853e-05)
(-0.000130987 0.000745548 -5.96293e-05)
(-0.000176798 0.000697312 -5.71699e-05)
(-0.000217318 0.000639338 -5.13808e-05)
(-0.000250443 0.000586365 -4.54131e-05)
(-0.000362432 0.00051625 -3.78113e-05)
(-0.000249698 0.000132572 -4.17095e-05)
(-8.55293e-05 0.000137764 -3.05418e-05)
(-0.000108361 0.000156691 -2.40067e-05)
(-9.51504e-05 0.00013528 -1.90367e-05)
(-7.90132e-05 0.000112497 -1.58012e-05)
(-6.11799e-05 9.38184e-05 -1.35615e-05)
(-4.25538e-05 8.05198e-05 -1.21157e-05)
(-2.35271e-05 7.18904e-05 -1.11949e-05)
(-7.90234e-06 6.494e-05 -8.82229e-06)
(6.76777e-06 4.05666e-05 -6.21927e-06)
(2.00448e-05 4.49174e-05 -7.95612e-06)
(3.66859e-05 5.03255e-05 -8.60579e-06)
(5.40787e-05 5.89887e-05 -9.6297e-06)
(7.30839e-05 7.21484e-05 -1.12456e-05)
(9.37165e-05 9.16186e-05 -1.35141e-05)
(0.000114276 0.000120682 -1.64488e-05)
(0.000129973 0.000164561 -2.00503e-05)
(0.00011846 0.000228026 -2.47221e-05)
(0.000108258 0.000266343 -3.16917e-05)
(0.000176695 0.000479095 1.08721e-05)
(0.000237403 0.000617617 9.20527e-06)
(0.000267921 0.000715551 1.13306e-05)
(0.000239219 0.000804605 1.55305e-05)
(0.000183145 0.000871776 1.69658e-05)
(0.00011522 0.000917669 1.78696e-05)
(4.12334e-05 0.000940734 1.82259e-05)
(-3.4288e-05 0.000941294 1.82226e-05)
(-0.000108302 0.000919358 1.78595e-05)
(-0.000176317 0.000874617 1.69529e-05)
(-0.000232598 0.000808645 1.55113e-05)
(-0.000261856 0.000720891 1.13264e-05)
(-0.000232769 0.00062432 9.1589e-06)
(-0.000173691 0.000486244 1.06921e-05)
(-0.000105056 0.000273996 -3.2031e-05)
(-0.000112876 0.000236573 -2.55325e-05)
(-0.000121137 0.000173266 -2.1104e-05)
(-0.000102597 0.000130147 -1.77689e-05)
(-7.88184e-05 0.000102466 -1.51951e-05)
(-5.42953e-05 8.50784e-05 -1.34687e-05)
(-2.98513e-05 7.45918e-05 -1.2361e-05)
(-1.00833e-05 6.68534e-05 -9.65485e-06)
(8.08344e-06 3.96355e-05 -6.65467e-06)
(2.38678e-05 4.3944e-05 -8.57528e-06)
(4.39998e-05 4.93756e-05 -9.31489e-06)
(6.58809e-05 5.81288e-05 -1.04748e-05)
(9.14818e-05 7.15335e-05 -1.22904e-05)
(0.000123026 9.16194e-05 -1.47938e-05)
(0.000163504 0.000122258 -1.78409e-05)
(0.000220209 0.000169955 -2.13325e-05)
(0.000297111 0.000244873 -2.28844e-05)
(0.000452649 0.000329529 -2.31128e-05)
(0.000468811 0.000115193 -4.04911e-07)
(0.000390308 0.000264227 4.39056e-06)
(0.000450743 0.000478344 6.37874e-05)
(0.000407642 0.000610796 9.5764e-05)
(0.000339496 0.000711883 0.000118476)
(0.000250422 0.000782676 0.000129983)
(0.000154474 0.000828789 0.00013675)
(5.44078e-05 0.000851489 0.00013964)
(-4.63026e-05 0.000852015 0.000139672)
(-0.000146353 0.000830377 0.000136847)
(-0.000242283 0.00078537 0.000130157)
(-0.000331304 0.000715773 0.000118736)
(-0.000399376 0.000616082 9.61657e-05)
(-0.000442197 0.000485328 6.4316e-05)
(-0.000380241 0.000272899 5.23252e-06)
(-0.000461062 0.000117664 2.18983e-07)
(-0.000447502 0.000333754 -2.32766e-05)
(-0.000289299 0.000251452 -2.35327e-05)
(-0.000210051 0.000177723 -2.23443e-05)
(-0.000150414 0.000131225 -1.92164e-05)
(-0.000106239 0.000102128 -1.66045e-05)
(-7.00412e-05 8.41801e-05 -1.47353e-05)
(-3.7757e-05 7.34708e-05 -1.35028e-05)
(-1.27592e-05 6.57139e-05 -1.04553e-05)
(9.30427e-06 3.71634e-05 -7.08069e-06)
(2.73996e-05 4.11489e-05 -9.18209e-06)
(5.064e-05 4.60867e-05 -1.00283e-05)
(7.62144e-05 5.38997e-05 -1.1365e-05)
(0.000106573 6.54841e-05 -1.34804e-05)
(0.000144474 8.18932e-05 -1.64581e-05)
(0.000193146 0.000104534 -2.02097e-05)
(0.000259526 0.000134366 -2.48072e-05)
(0.000345414 0.000169985 -2.8105e-05)
(0.000481996 0.000198453 -3.07552e-05)
(0.000541343 0.000137217 -1.76995e-05)
(0.000558233 0.000257383 -1.99219e-06)
(0.000573469 0.000371503 6.84867e-05)
(0.000500859 0.000461517 0.000100802)
(0.000411505 0.000535947 0.000124578)
(0.000300397 0.000589916 0.000136994)
(0.000184221 0.000625756 0.000144078)
(6.45174e-05 0.000643615 0.000147027)
(-5.54567e-05 0.00064406 0.000147055)
(-0.000175133 0.000627094 0.000144163)
(-0.000291266 0.000592158 0.000137149)
(-0.000402282 0.000539109 0.000124812)
(-0.000491562 0.000465613 0.000101175)
(-0.000563984 0.000376421 6.89639e-05)
(-0.000548296 0.000262766 -1.14872e-06)
(-0.00053276 0.000140387 -1.73204e-05)
(-0.000474554 0.000203665 -3.08968e-05)
(-0.000336534 0.000176237 -2.87286e-05)
(-0.000248328 0.000141587 -2.58433e-05)
(-0.000178724 0.000112895 -2.16597e-05)
(-0.000125859 9.17431e-05 -1.83995e-05)
(-8.25751e-05 7.73687e-05 -1.61365e-05)
(-4.43868e-05 6.83153e-05 -1.46716e-05)
(-1.50305e-05 6.13949e-05 -1.12733e-05)
(1.04035e-05 3.33447e-05 -7.46728e-06)
(3.05595e-05 3.68475e-05 -9.7305e-06)
(5.65347e-05 4.10838e-05 -1.06641e-05)
(8.52575e-05 4.76899e-05 -1.2139e-05)
(0.000119473 5.72759e-05 -1.44766e-05)
(0.000162083 7.04383e-05 -1.77723e-05)
(0.0002161 8.77486e-05 -2.19461e-05)
(0.000287143 0.000109375 -2.70685e-05)
(0.000374333 0.000133536 -3.12013e-05)
(0.000490981 0.000156556 -3.45931e-05)
(0.000574908 0.00014954 -2.44611e-05)
(0.00064352 0.000212505 -7.7213e-06)
(0.000656078 0.00028414 6.37952e-05)
(0.000572371 0.000348814 9.58636e-05)
(0.000468065 0.000403921 0.000120097)
(0.000340347 0.000444967 0.000131986)
(0.000208227 0.000472615 0.000138734)
(7.27266e-05 0.000486517 0.000141471)
(-6.28382e-05 0.000486901 0.000141492)
(-0.000198309 0.000473765 0.000138798)
(-0.000330384 0.00044688 0.000132109)
(-0.000458017 0.000406581 0.000120287)
(-0.000562317 0.000352191 9.61896e-05)
(-0.000645971 0.000288112 6.42189e-05)
(-0.000633773 0.000216929 -6.90045e-06)
(-0.000566199 0.00015332 -2.41461e-05)
(-0.000482482 0.000161271 -3.47118e-05)
(-0.000364511 0.000139045 -3.18318e-05)
(-0.000274877 0.0001158 -2.81439e-05)
(-0.000200376 9.52384e-05 -2.34742e-05)
(-0.000141738 7.92999e-05 -1.98376e-05)
(-9.31148e-05 6.79688e-05 -1.73255e-05)
(-5.00749e-05 6.06205e-05 -1.56971e-05)
(-1.70158e-05 5.47108e-05 -1.19974e-05)
(1.13047e-05 2.83899e-05 -7.80884e-06)
(3.31403e-05 3.12783e-05 -1.02108e-05)
(6.1289e-05 3.46571e-05 -1.12223e-05)
(9.23881e-05 3.98409e-05 -1.28219e-05)
(0.000129319 4.72011e-05 -1.53633e-05)
(0.000174948 5.702e-05 -1.89592e-05)
(0.000232101 6.9451e-05 -2.35592e-05)
(0.000305502 8.44788e-05 -2.92428e-05)
(0.000394093 0.000100865 -3.41953e-05)
(0.000504976 0.000118618 -3.82321e-05)
(0.000601841 0.00012846 -2.91174e-05)
(0.00069506 0.000166661 -1.35955e-05)
(0.000710186 0.000212855 5.79343e-05)
(0.000620835 0.000256236 8.90754e-05)
(0.000507774 0.000294373 0.000112767)
(0.000369178 0.000323656 0.000123947)
(0.000225822 0.000343702 0.000130241)
(7.88215e-05 0.000353912 0.000132724)
(-6.8225e-05 0.000354249 0.000132739)
(-0.000215205 0.000344707 0.000130286)
(-0.000358537 0.000325309 0.000124037)
(-0.000497085 0.000296638 0.000112913)
(-0.000610224 0.00025906 8.93478e-05)
(-0.000699627 0.000216131 5.82939e-05)
(-0.00068518 0.000170304 -1.2826e-05)
(-0.000592846 0.000132092 -2.88505e-05)
(-0.000495765 0.000122847 -3.83709e-05)
(-0.0003835 0.000105707 -3.48605e-05)
(-0.000292322 9.006e-05 -3.03703e-05)
(-0.000215237 7.59295e-05 -2.51662e-05)
(-0.000153099 6.46571e-05 -2.11385e-05)
(-0.000100939 5.63683e-05 -1.83811e-05)
(-5.43864e-05 5.08487e-05 -1.65975e-05)
(-1.85271e-05 4.61404e-05 -1.26435e-05)
(1.20035e-05 2.25839e-05 -8.08897e-06)
(3.51336e-05 2.48003e-05 -1.0601e-05)
(6.49334e-05 2.73018e-05 -1.16711e-05)
(9.7786e-05 3.10957e-05 -1.33625e-05)
(0.00013665 3.64129e-05 -1.60512e-05)
(0.000184333 4.33973e-05 -1.98575e-05)
(0.00024356 5.20904e-05 -2.47477e-05)
(0.000318576 6.24992e-05 -3.07979e-05)
(0.000408602 7.39935e-05 -3.62632e-05)
(0.000519114 8.71814e-05 -4.07715e-05)
(0.000623319 9.93075e-05 -3.24558e-05)
(0.000728167 0.000123876 -1.7655e-05)
(0.000745828 0.000153343 5.39611e-05)
(0.000654041 0.000182075 8.46762e-05)
(0.000535583 0.000207776 0.000108096)
(0.000389745 0.000227917 0.00011888)
(0.00023852 0.00024187 0.000124907)
(8.32853e-05 0.000249065 0.000127241)
(-7.20553e-05 0.000249372 0.000127251)
(-0.000227286 0.000242783 0.000124941)
(-0.000378521 0.000229407 0.000118951)
(-0.000524362 0.000209793 0.000108215)
(-0.000642975 0.000184552 8.49151e-05)
(-0.000734902 0.000156185 5.42804e-05)
(-0.000718056 0.000127011 -1.69254e-05)
(-0.000614014 0.000102595 -3.22315e-05)
(-0.000509402 9.08673e-05 -4.09433e-05)
(-0.000397427 7.81127e-05 -3.69712e-05)
(-0.000304672 6.71663e-05 -3.19798e-05)
(-0.000225778 5.74398e-05 -2.64275e-05)
(-0.000161274 4.96333e-05 -2.21357e-05)
(-0.000106658 4.38151e-05 -1.92095e-05)
(-5.75706e-05 3.98838e-05 -1.73161e-05)
(-1.96523e-05 3.63516e-05 -1.31653e-05)
(1.24895e-05 1.61805e-05 -8.30224e-06)
(3.65206e-05 1.76877e-05 -1.08945e-05)
(6.74553e-05 1.93102e-05 -1.20063e-05)
(0.000101487 2.17484e-05 -1.37628e-05)
(0.000141619 2.51396e-05 -1.65556e-05)
(0.000190625 2.95594e-05 -2.05095e-05)
(0.000251202 3.50312e-05 -2.56016e-05)
(0.000327406 4.16004e-05 -3.19054e-05)
(0.000418784 4.90446e-05 -3.77084e-05)
(0.000530324 5.79081e-05 -4.25438e-05)
(0.000638568 6.73571e-05 -3.46812e-05)
(0.000749147 8.23035e-05 -2.0262e-05)
(0.000768483 0.000100044 5.15426e-05)
(0.000675371 0.000117467 8.20884e-05)
(0.000553683 0.000133176 0.000105377)
(0.00040332 0.000145665 0.000115962)
(0.000246997 0.000154408 0.000121851)
(8.63334e-05 0.000158992 0.000124105)
(-7.45154e-05 0.000159286 0.000124113)
(-0.000235197 0.000155278 0.000121877)
(-0.000391576 0.00014707 0.000116019)
(-0.000542007 0.000135053 0.000105477)
(-0.000663933 0.00011973 8.23029e-05)
(-0.000757268 0.000102597 5.18314e-05)
(-0.000738824 8.50629e-05 -1.95698e-05)
(-0.000629022 7.02514e-05 -3.44986e-05)
(-0.000520281 6.10315e-05 -4.27554e-05)
(-0.00040721 5.24266e-05 -3.84621e-05)
(-0.000312996 4.5319e-05 -3.31401e-05)
(-0.000232767 3.91823e-05 -2.73458e-05)
(-0.000166703 3.42832e-05 -2.28692e-05)
(-0.000110481 3.06231e-05 -1.9824e-05)
(-5.97091e-05 2.81298e-05 -1.7853e-05)
(-2.04057e-05 2.57672e-05 -1.35612e-05)
(1.27677e-05 9.43093e-06 -8.4426e-06)
(3.73186e-05 1.02161e-05 -1.10841e-05)
(6.89036e-05 1.09769e-05 -1.22196e-05)
(0.000103607 1.21098e-05 -1.40129e-05)
(0.00014446 1.36864e-05 -1.68641e-05)
(0.000194224 1.57497e-05 -2.09e-05)
(0.000255601 1.83345e-05 -2.61027e-05)
(0.000332589 2.14985e-05 -3.25452e-05)
(0.00042491 2.52331e-05 -3.85271e-05)
(0.000537427 2.97874e-05 -4.35439e-05)
(0.000647719 3.5011e-05 -3.58941e-05)
(0.000760875 4.21564e-05 -2.16385e-05)
(0.000781047 5.03814e-05 5.03537e-05)
(0.000687235 5.84153e-05 8.08822e-05)
(0.000563821 6.56541e-05 0.00010415)
(0.000411006 7.14776e-05 0.000114668)
(0.000251863 7.56181e-05 0.000120507)
(8.81693e-05 7.7878e-05 0.00012273)
(-7.5775e-05 7.81768e-05 0.000122736)
(-0.000239518 7.64973e-05 0.000120527)
(-0.000398775 7.28847e-05 0.000114716)
(-0.000551742 6.75066e-05 0.000104235)
(-0.000675494 6.06017e-05 8.10763e-05)
(-0.000769627 5.27837e-05 5.06161e-05)
(-0.000750423 4.46591e-05 -2.09844e-05)
(-0.00063805 3.75493e-05 -3.57535e-05)
(-0.000527227 3.2384e-05 -4.37984e-05)
(-0.00041314 2.78969e-05 -3.93263e-05)
(-0.000317916 2.42692e-05 -3.38282e-05)
(-0.000236811 2.12633e-05 -2.79006e-05)
(-0.000169819 1.89108e-05 -2.33223e-05)
(-0.000112667 1.71758e-05 -2.02111e-05)
(-6.0931e-05 1.59929e-05 -1.81968e-05)
(-2.08336e-05 1.47694e-05 -1.38191e-05)
(1.28398e-05 2.5632e-06 -8.50848e-06)
(3.75352e-05 2.62231e-06 -1.11681e-05)
(6.9299e-05 2.52771e-06 -1.23102e-05)
(0.000104192 2.37184e-06 -1.41137e-05)
(0.000145259 2.16704e-06 -1.6981e-05)
(0.000195273 1.93213e-06 -2.10393e-05)
(0.000256951 1.7173e-06 -2.62718e-05)
(0.000334304 1.58596e-06 -3.2752e-05)
(0.000427073 1.68964e-06 -3.87789e-05)
(0.000540101 1.98143e-06 -4.38439e-05)
(0.000650938 2.68683e-06 -3.6228e-05)
(0.000764526 2.66188e-06 -2.19842e-05)
(0.000784766 2.12671e-06 5.01147e-05)
(0.000690671 1.42836e-06 8.06905e-05)
(0.000566763 7.16459e-07 0.000103989)
(0.000413298 2.29326e-07 0.000114519)
(0.000253404 -5.08374e-09 0.000120361)
(8.88949e-05 4.82946e-08 0.000122584)
(-7.5899e-05 3.72352e-07 0.000122588)
(-0.000240497 9.45804e-07 0.000120375)
(-0.000400581 1.7391e-06 0.000114555)
(-0.000554308 2.67872e-06 0.000104058)
(-0.000678684 3.69208e-06 8.08618e-05)
(-0.000773235 4.5358e-06 5.03477e-05)
(-0.000754067 5.04454e-06 -2.13742e-05)
(-0.000641298 4.95556e-06 -3.61348e-05)
(-0.000529932 4.12377e-06 -4.41462e-05)
(-0.000415324 3.69068e-06 -3.96244e-05)
(-0.000319629 3.44879e-06 -3.40796e-05)
(-0.000238125 3.4468e-06 -2.81132e-05)
(-0.000170784 3.537e-06 -2.35057e-05)
(-0.000113321 3.65492e-06 -2.03754e-05)
(-6.12895e-05 3.74087e-06 -1.83486e-05)
(-2.09524e-05 3.64733e-06 -1.39385e-05)
(1.27068e-05 -4.19127e-06 -8.49954e-06)
(3.71724e-05 -4.85232e-06 -1.11466e-05)
(6.86445e-05 -5.80473e-06 -1.22786e-05)
(0.000103246 -7.26027e-06 -1.40661e-05)
(0.00014402 -9.27326e-06 -1.69078e-05)
(0.000193774 -1.18587e-05 -2.09299e-05)
(0.000255255 -1.49566e-05 -2.61122e-05)
(0.000332561 -1.84873e-05 -3.25309e-05)
(0.000425306 -2.20742e-05 -3.84715e-05)
(0.000538424 -2.59989e-05 -4.34558e-05)
(0.000648398 -2.93294e-05 -3.57036e-05)
(0.000760315 -3.66105e-05 -2.13277e-05)
(0.000779812 -4.62951e-05 5.07869e-05)
(0.000685822 -5.60507e-05 8.14664e-05)
(0.00056262 -6.49813e-05 0.000104841)
(0.000410283 -7.19268e-05 0.000115455)
(0.000251682 -7.66109e-05 0.000121351)
(8.85466e-05 -7.87798e-05 0.000123602)
(-7.48773e-05 -7.84034e-05 0.000123603)
(-0.00023815 -7.55072e-05 0.000121355)
(-0.00039704 -7.01819e-05 0.000115475)
(-0.000549787 -6.27303e-05 0.000104888)
(-0.000673634 -5.3502e-05 8.1606e-05)
(-0.000768273 -4.36621e-05 5.09807e-05)
(-0.000750004 -3.41602e-05 -2.07748e-05)
(-0.00063897 -2.71955e-05 -3.5669e-05)
(-0.000528492 -2.41953e-05 -4.38148e-05)
(-0.000413815 -2.06388e-05 -3.93677e-05)
(-0.000318159 -1.74491e-05 -3.39019e-05)
(-0.000236723 -1.43545e-05 -2.79889e-05)
(-0.000169611 -1.1746e-05 -2.34231e-05)
(-0.000112453 -9.72711e-06 -2.03195e-05)
(-6.07912e-05 -8.34815e-06 -1.83103e-05)
(-2.07648e-05 -7.31243e-06 -1.39204e-05)
(1.23672e-05 -1.06005e-05 -8.41911e-06)
(3.62243e-05 -1.19675e-05 -1.10231e-05)
(6.6923e-05 -1.37908e-05 -1.21273e-05)
(0.000100727 -1.65902e-05 -1.38712e-05)
(0.000140661 -2.05152e-05 -1.66428e-05)
(0.000189589 -2.56529e-05 -2.05646e-05)
(0.000250322 -3.19666e-05 -2.56082e-05)
(0.000327187 -3.93382e-05 -3.18547e-05)
(0.00041956 -4.69672e-05 -3.75593e-05)
(0.000532844 -5.50621e-05 -4.23302e-05)
(0.000640322 -6.07184e-05 -3.4231e-05)
(0.000747551 -7.62265e-05 -1.953e-05)
(0.000765296 -9.68372e-05 5.25552e-05)
(0.000671949 -0.00011721 8.34649e-05)
(0.000550863 -0.000135617 0.000107002)
(0.00040165 -0.000149788 0.000117816)
(0.000246542 -0.000159363 0.000123842)
(8.70995e-05 -0.000163929 0.000126161)
(-7.26235e-05 -0.000163465 0.000126157)
(-0.000232266 -0.000157997 0.00012383)
(-0.000387787 -0.000147627 0.000117809)
(-0.000537606 -0.000132825 0.000107012)
(-0.000659581 -0.000114078 8.3555e-05)
(-0.000753865 -9.36588e-05 5.26924e-05)
(-0.000737592 -7.34398e-05 -1.90555e-05)
(-0.000631329 -5.85426e-05 -3.42733e-05)
(-0.000523374 -5.34371e-05 -4.27615e-05)
(-0.000408577 -4.59546e-05 -3.85158e-05)
(-0.000313345 -3.89947e-05 -3.32721e-05)
(-0.000232422 -3.23692e-05 -2.75153e-05)
(-0.000166163 -2.69106e-05 -2.30702e-05)
(-0.000109979 -2.27842e-05 -2.0044e-05)
(-5.93946e-05 -2.00039e-05 -1.80852e-05)
(-2.02584e-05 -1.7818e-05 -1.37689e-05)
(1.18173e-05 -1.64172e-05 -8.27372e-06)
(3.46775e-05 -1.84494e-05 -1.08055e-05)
(6.40922e-05 -2.11342e-05 -1.18662e-05)
(9.65287e-05 -2.52989e-05 -1.35413e-05)
(0.000134958 -3.12344e-05 -1.62019e-05)
(0.000182323 -3.91733e-05 -1.99641e-05)
(0.00024157 -4.92056e-05 -2.47859e-05)
(0.00031756 -6.12221e-05 -3.07546e-05)
(0.000409573 -7.38261e-05 -3.60632e-05)
(0.000524636 -8.65013e-05 -4.04957e-05)
(0.000627196 -8.9525e-05 -3.17459e-05)
(0.000724153 -0.000115569 -1.64238e-05)
(0.00073876 -0.000151653 5.56546e-05)
(0.000646969 -0.000185574 8.70068e-05)
(0.000529995 -0.000215586 0.000110802)
(0.000386501 -0.000238185 0.000121982)
(0.000237521 -0.000253318 0.000128242)
(8.44388e-05 -0.000260543 0.000130686)
(-6.89392e-05 -0.000259943 0.000130672)
(-0.000222294 -0.000251545 0.000128203)
(-0.000371833 -0.000235359 0.00012193)
(-0.000516193 -0.00021189 0.000110753)
(-0.000634397 -0.000181417 8.70185e-05)
(-0.000727569 -0.000147429 5.57096e-05)
(-0.000714846 -0.000112045 -1.60601e-05)
(-0.000618929 -8.7106e-05 -3.1895e-05)
(-0.000515867 -8.48413e-05 -4.10272e-05)
(-0.000399363 -7.30333e-05 -3.70998e-05)
(-0.000304573 -6.13871e-05 -3.22295e-05)
(-0.000224641 -5.04342e-05 -2.67244e-05)
(-0.000160038 -4.16184e-05 -2.24723e-05)
(-0.000105664 -3.51187e-05 -1.95685e-05)