/*--------------------------------*- C++ -*----------------------------------*\
| =========                 |                                                 |
| \\      /  F ield         | OpenFOAM: The Open Source CFD Toolbox           |
|  \\    /   O peration     | Version:  2112                                  |
|   \\  /    A nd           | Website:  www.openfoam.com                      |
|    \\/     M anipulation  |                                                 |
\*---------------------------------------------------------------------------*/
FoamFile
{
    version     2.0;
    format      ascii;
    arch        "LSB;label=32;scalar=64";
    class       volScalarField;
    location    "4";
    object      epsilon;
}
// * * * * * * * * * * * * * * * * * * * * * * * * * * * * * * * * * * * * * //

dimensions      [0 2 -3 0 0 0 0];

internalField   nonuniform List<scalar> 
64906
(
0.000138048
0.000164163
0.000181358
0.000190183
0.000194356
0.000196214
0.000196989
0.000197282
0.000197371
0.000197375
0.000197346
0.000197311
0.000197286
0.000197265
0.000197249
0.000197235
0.000197223
0.000197213
0.00019721
0.000197215
0.000197225
0.000197238
0.000197253
0.000197269
0.000197282
0.000197282
0.00019721
0.00019694
0.000196186
0.000194345
0.000190182
0.000181365
0.000164177
0.000138059
0.000164184
0.000307791
0.00039766
0.000447709
0.000474411
0.000487853
0.000494109
0.000496688
0.000497495
0.000497509
0.000497224
0.000496887
0.000496613
0.000496435
0.000496335
0.000496278
0.000496245
0.000496228
0.000496228
0.000496245
0.000496277
0.00049633
0.000496415
0.000496543
0.000496672
0.000496613
0.000495892
0.000493498
0.000487459
0.000474209
0.000447647
0.000397678
0.000307833
0.000164215
0.000181412
0.00039771
0.000539279
0.000622208
0.000668808
0.000693461
0.000705386
0.000710298
0.00071156
0.00071108
0.000709953
0.000708799
0.000707917
0.000707374
0.000707086
0.000706931
0.000706845
0.000706805
0.000706808
0.000706852
0.000706941
0.000707087
0.000707336
0.000707756
0.000708291
0.000708547
0.000707516
0.000703183
0.00069197
0.000667966
0.000621847
0.000539203
0.000397764
0.000181467
0.000190261
0.000447817
0.000622272
0.000728094
0.000789535
0.000822888
0.000839058
0.000845149
0.000845621
0.000843287
0.000840003
0.000836973
0.00083475
0.000833427
0.000832739
0.000832354
0.000832123
0.000832014
0.000832018
0.000832135
0.000832368
0.000832738
0.00083336
0.000834479
0.000836145
0.000837775
0.000837808
0.000833154
0.000818791
0.000787105
0.000726914
0.000621866
0.000447799
0.000190331
0.00019445
0.000474562
0.000668942
0.00078963
0.000861039
0.000900004
0.000918099
0.000923127
0.000920323
0.000913472
0.00090559
0.000898892
0.000894225
0.000891609
0.000890322
0.000889548
0.000889044
0.000888795
0.000888801
0.00088906
0.000889567
0.000890321
0.000891521
0.000893869
0.000897809
0.000902698
0.000906449
0.000904608
0.000890564
0.000855324
0.00078671
0.000667781
0.000474325
0.000194521
0.000196315
0.000488039
0.000693685
0.000823148
0.00090025
0.000941553
0.000958518
0.000959009
0.000948735
0.000932766
0.000916262
0.000903504
0.000895236
0.000891061
0.000889244
0.000887968
0.000887034
0.00088656
0.000886567
0.000887054
0.000887993
0.00088925
0.000890973
0.000894851
0.000902296
0.000912986
0.000924763
0.000930858
0.000922265
0.000888533
0.000817035
0.000691103
0.000487349
0.000196364
0.000197092
0.000494334
0.000705765
0.000839668
0.000918978
0.000959426
0.000971621
0.00096271
0.000938411
0.000905692
0.000874363
0.000853873
0.00084218
0.000837364
0.000835886
0.000834178
0.000832714
0.000831966
0.000831974
0.000832738
0.000834211
0.000835906
0.000837302
0.000841836
0.00085271
0.000871052
0.000897347
0.000919469
0.000923631
0.000897447
0.000828398
0.000700872
0.000492874
0.000197087
0.000197387
0.000496987
0.00071097
0.000846479
0.000925419
0.000962219
0.000965784
0.000941271
0.000893063
0.000830394
0.000773765
0.000749801
0.000740271
0.000738716
0.000739835
0.000738198
0.000736406
0.000735505
0.000735514
0.000736433
0.000738239
0.000739876
0.000738701
0.000740038
0.000748867
0.000770811
0.000822356
0.000874015
0.000901302
0.000889619
0.000827919
0.000702837
0.000494424
0.000197291
0.000197483
0.000497934
0.000712762
0.000848283
0.000925323
0.000956637
0.000948436
0.000901672
0.000815306
0.000696776
0.000590152
0.00059034
0.000603121
0.00061358
0.000620414
0.000620207
0.000619029
0.000618416
0.000618426
0.000619057
0.000620253
0.000620472
0.000613619
0.000603045
0.000589814
0.000588061
0.000689765
0.000796925
0.000861773
0.000871638
0.000820994
0.000700823
0.000494074
0.000197263
0.000197498
0.000498178
0.000713132
0.000848096
0.000922952
0.000948751
0.00092837
0.000855806
0.000715015
0.000490017
0.000276287
0.000380896
0.000458381
0.000491545
0.000504854
0.00050797
0.000508561
0.000508631
0.00050864
0.000508586
0.000508013
0.000504917
0.000491624
0.000458457
0.000380893
0.000275709
0.00048501
0.00069785
0.000816415
0.000851554
0.000812676
0.000697748
0.000493147
0.000197155
0.000197489
0.00049822
0.000713183
0.000847811
0.00092147
0.000944225
0.000916759
0.000826806
0.000637641
0.000290659
0.000230085
0.000359836
0.000408121
0.000423377
0.000428651
0.000430236
0.000430618
0.000430623
0.000430251
0.000428679
0.000423422
0.000408193
0.000359943
0.000230139
0.00028854
0.000621765
0.000787838
0.000839999
0.000807984
0.000695965
0.000492568
0.000197071
0.000197473
0.00049827
0.00071341
0.000848325
0.000922484
0.000946412
0.000922434
0.000844154
0.000696174
0.000465527
0.000259759
0.000325127
0.000385476
0.000410154
0.000416934
0.000422002
0.000423597
0.000423888
0.000423887
0.000423594
0.000421999
0.000416927
0.000410145
0.00038545
0.000324954
0.00025908
0.000460485
0.000679076
0.000804765
0.000845423
0.000809903
0.000696659
0.000492752
0.000197059
0.000197463
0.000498378
0.000713883
0.000849581
0.000925395
0.000952915
0.000936945
0.000877044
0.000771444
0.000628417
0.000495391
0.000452666
0.000432439
0.000425463
0.000422841
0.000423245
0.000423424
0.000423388
0.000423383
0.000423411
0.00042322
0.000422794
0.000425376
0.000432238
0.000452064
0.000493351
0.000621652
0.000753312
0.000837079
0.000859536
0.000816032
0.000699161
0.000493541
0.000197121
0.000197454
0.000498511
0.000714459
0.000851111
0.000928891
0.000960344
0.000952019
0.000906463
0.000825942
0.00071931
0.000609729
0.000526328
0.000467342
0.000440599
0.000430679
0.000427618
0.000426636
0.000426308
0.0004263
0.000426613
0.000427576
0.000430608
0.00044047
0.000467061
0.000525539
0.000607125
0.000711742
0.000807104
0.000865937
0.000874133
0.000823
0.000702166
0.000494522
0.000197193
0.000197445
0.000498631
0.000714983
0.000852485
0.000931938
0.0009665
0.000963592
0.00092674
0.000858526
0.000765202
0.000660524
0.00056271
0.00048722
0.000450577
0.000436342
0.00043143
0.000429792
0.000429269
0.000429257
0.000429759
0.000431377
0.000436258
0.00045043
0.000486908
0.000561842
0.000657686
0.000757242
0.000839234
0.00088576
0.000885258
0.000828701
0.000704732
0.000495371
0.000197243
0.000197431
0.000498713
0.000715374
0.000853496
0.00093412
0.000970726
0.000971071
0.000938837
0.000876126
0.000787414
0.000683138
0.000579431
0.000496972
0.000455853
0.000439496
0.000433699
0.000431724
0.000431069
0.000431052
0.000431682
0.000433637
0.000439405
0.000455698
0.000496647
0.000578509
0.00068019
0.000779243
0.000856549
0.000897525
0.000892378
0.000832547
0.000706515
0.000495955
0.000197263
0.000197414
0.000498756
0.000715617
0.000854124
0.000935441
0.000973195
0.000975243
0.000945197
0.00088475
0.000797505
0.000692825
0.000586639
0.00050122
0.00045822
0.000440938
0.000434748
0.000432603
0.000431851
0.000431828
0.000432552
0.00043468
0.000440842
0.00045806
0.000500885
0.000585638
0.000689821
0.000789223
0.000865005
0.000903674
0.000896307
0.000834754
0.000707559
0.000496287
0.00019726
0.000197397
0.000498769
0.000715735
0.000854424
0.00093606
0.000974318
0.000977078
0.000947884
0.000888228
0.00080138
0.0006964
0.000589276
0.00050277
0.000459089
0.000441462
0.000435117
0.000432889
0.000432067
0.000432037
0.00043283
0.000435043
0.000441361
0.000458925
0.000502431
0.00058826
0.000693374
0.000793052
0.000868408
0.00090626
0.000898022
0.000835744
0.000708034
0.000496427
0.000197242
0.000197383
0.00049876
0.000715745
0.000854448
0.000936097
0.000974371
0.000977149
0.000947976
0.000888339
0.000801506
0.00069653
0.000589397
0.000502854
0.000459137
0.000441481
0.000435113
0.000432858
0.000431995
0.000431958
0.000432793
0.000435034
0.000441377
0.000458972
0.000502516
0.000588384
0.00069351
0.000793184
0.000868526
0.000906355
0.000898094
0.000835793
0.000708061
0.000496423
0.000197219
0.00019738
0.000498737
0.000715649
0.000854193
0.000935551
0.000973352
0.000975456
0.000945473
0.000885088
0.000797893
0.000693234
0.000587022
0.000501485
0.000458376
0.000441005
0.000434744
0.00043252
0.000431661
0.000431621
0.000432452
0.000434663
0.0004409
0.000458213
0.000501154
0.00058603
0.000690252
0.000789634
0.000865363
0.00090396
0.000896522
0.0008349
0.000707639
0.000496282
0.000197206
0.000197389
0.000498693
0.000715424
0.000853606
0.000934295
0.000970979
0.00097142
0.000939298
0.000876708
0.0007881
0.000683883
0.000580116
0.000497457
0.000456144
0.000439632
0.000433715
0.000431617
0.000430824
0.000430789
0.000431549
0.000433634
0.00043953
0.000455989
0.000497146
0.00057918
0.000680984
0.000779977
0.000857165
0.000898004
0.000892729
0.000832785
0.000706646
0.00049596
0.000197199
0.0001974
0.000498614
0.000715045
0.000852618
0.000932152
0.000966819
0.000964048
0.000927371
0.000859364
0.000766248
0.000661716
0.000563709
0.000487974
0.000451021
0.000436554
0.000431468
0.000429676
0.000429021
0.000428993
0.000429614
0.000431392
0.000436459
0.000450883
0.000487703
0.000562907
0.000658981
0.000758372
0.000840121
0.000886408
0.000885713
0.000829005
0.000704902
0.000495392
0.000197175
0.000197409
0.000498489
0.000714503
0.000851214
0.00092907
0.000960636
0.000952484
0.000907183
0.000827014
0.000720794
0.000611513
0.000527831
0.000468323
0.000441068
0.000430812
0.000427512
0.000426361
0.000425927
0.000425906
0.000426308
0.000427441
0.000430723
0.000440946
0.000468107
0.000527189
0.000609095
0.00071336
0.000808207
0.000866631
0.000874569
0.000823282
0.000702328
0.000494546
0.000197122
0.000197415
0.000498317
0.000713821
0.000849505
0.000925331
0.000952923
0.000937127
0.000877559
0.000772526
0.000630245
0.000497811
0.000454661
0.00043305
0.000425177
0.000422047
0.00042211
0.000422108
0.000421984
0.000421967
0.000422057
0.000422024
0.000421914
0.000424993
0.000432837
0.000454289
0.000496053
0.000623643
0.000754275
0.000837384
0.000859593
0.000816049
0.000699181
0.000493519
0.000197045
0.000197414
0.000498073
0.000713015
0.000847701
0.000921674
0.000945518
0.000921617
0.000843711
0.000696603
0.000467326
0.000260826
0.00032552
0.000382989
0.000405986
0.000411741
0.000416264
0.000417649
0.000417858
0.000417835
0.000417564
0.00041607
0.000411343
0.000405338
0.00038227
0.00032528
0.000260164
0.000462351
0.000678821
0.00080357
0.000844235
0.000809083
0.00069622
0.000492554
0.000196968
0.000197394
0.000497635
0.000711893
0.000845768
0.000918763
0.000941002
0.00091319
0.000823169
0.000634724
0.000289748
0.000224919
0.000346308
0.000389677
0.00040183
0.000405992
0.000407257
0.00040753
0.000407466
0.000407011
0.000405367
0.000400426
0.000387055
0.000342653
0.000222681
0.000286388
0.000616145
0.000782026
0.000835536
0.000805067
0.000694355
0.000491897
0.000196937
0.0001973
0.000496593
0.000709683
0.000842768
0.000915983
0.000940427
0.000918877
0.00084522
0.000703699
0.000479539
0.000269045
0.000352582
0.000414379
0.000433814
0.000437956
0.000438824
0.000439095
0.000439131
0.000439005
0.000438562
0.000437305
0.000434149
0.000425733
0.000400949
0.000339108
0.000262594
0.000465566
0.000678473
0.000800903
0.000840455
0.000805395
0.000693556
0.000491354
0.000196898
0.000197016
0.000493972
0.000704494
0.000835919
0.000909479
0.000937893
0.000926912
0.000876671
0.000785132
0.000658644
0.000539369
0.000513006
0.000496298
0.000476674
0.000465451
0.000460935
0.000459451
0.000458989
0.000458793
0.000458576
0.000458233
0.000458043
0.000459118
0.000463281
0.000475516
0.000506004
0.000626657
0.000750079
0.000828204
0.000848192
0.000805254
0.000691305
0.000489769
0.000196726
0.000196258
0.000487797
0.000692749
0.000820197
0.000892597
0.000924161
0.000922844
0.000892098
0.000833868
0.000754235
0.000670289
0.000605563
0.000546488
0.00049619
0.000471933
0.000462795
0.000459804
0.000458915
0.000458675
0.000458693
0.000459185
0.000461424
0.000469326
0.000492122
0.000543868
0.000614557
0.000707307
0.000790998
0.000841378
0.000846173
0.000797116
0.000682998
0.000484804
0.000196082
0.000194415
0.000474474
0.000668463
0.00078781
0.000855957
0.000888047
0.000893162
0.000875967
0.000838737
0.000784226
0.00071829
0.000648736
0.000578194
0.000518093
0.000488789
0.000477485
0.00047368
0.000472536
0.000472267
0.000472425
0.000473393
0.000476904
0.000487856
0.000517195
0.000579144
0.000655456
0.000732943
0.00079486
0.000827787
0.000822913
0.000771819
0.000661962
0.000472606
0.000194338
0.000190247
0.00044787
0.000622212
0.000727344
0.000786896
0.000816046
0.000824006
0.000815601
0.000792767
0.000756363
0.000708027
0.000651361
0.000592202
0.000541793
0.000514825
0.000503579
0.000499508
0.000498215
0.000497931
0.000498168
0.000499398
0.000503375
0.000514557
0.000541654
0.000593161
0.000654526
0.000712638
0.000755856
0.000775686
0.000765562
0.000717476
0.000618454
0.000446914
0.000190242
0.000181417
0.000397861
0.000539498
0.000622216
0.000667985
0.000690562
0.000698154
0.000695002
0.000682623
0.000661182
0.000630916
0.000593662
0.000554144
0.000520459
0.000500942
0.000492065
0.000488686
0.000487585
0.000487339
0.000487566
0.000488641
0.000491986
0.000500855
0.000520505
0.000554635
0.000594781
0.000631643
0.000657684
0.000667567
0.000656438
0.00061724
0.000537821
0.000397547
0.000181464
0.000164214
0.000307947
0.000397958
0.000448064
0.000474594
0.000487383
0.000492057
0.00049144
0.000486516
0.000477221
0.000463316
0.000445472
0.000426116
0.000409346
0.000399083
0.000394138
0.000392155
0.000391475
0.000391321
0.000391479
0.00039216
0.000394142
0.000399092
0.000409411
0.000426317
0.000445796
0.000463175
0.000474786
0.000478089
0.000470279
0.000446448
0.000397573
0.000307972
0.000164273
0.000138079
0.000164257
0.000181539
0.000190444
0.000194682
0.000196568
0.00019729
0.00019737
0.000196954
0.000195992
0.000194478
0.000192379
0.000189928
0.000187678
0.000186248
0.000185524
0.000185198
0.000185047
0.000184995
0.000185053
0.000185205
0.000185528
0.000186247
0.000187674
0.000189927
0.000192381
0.000194426
0.000195715
0.000195912
0.000194525
0.000190503
0.000181653
0.000164345
0.000138123
0.000184766
0.000274495
0.000335819
0.000370244
0.000388315
0.000397226
0.00040129
0.000402934
0.000403437
0.000403434
0.000403238
0.000403005
0.000402807
0.000402667
0.000402576
0.000402516
0.000402477
0.000402456
0.000402454
0.000402472
0.000402508
0.000402563
0.000402643
0.000402752
0.000402858
0.000402843
0.000402402
0.000400874
0.000396944
0.000388151
0.000370165
0.000335793
0.000274496
0.000184777
0.000274502
0.000343873
0.000412582
0.000455116
0.000478808
0.000491003
0.000496752
0.000499132
0.00049986
0.000499837
0.000499527
0.000499166
0.000498868
0.000498665
0.00049854
0.000498465
0.00049842
0.000498398
0.000498399
0.00049842
0.000498464
0.000498535
0.000498644
0.000498797
0.000498952
0.00049893
0.000498285
0.000496082
0.000490545
0.000478545
0.000455001
0.000412565
0.000343916
0.000274505
0.000335858
0.000412602
0.000496661
0.000551517
0.000583571
0.00060079
0.000609162
0.000612601
0.000613457
0.000613075
0.000612232
0.000611365
0.000610685
0.000610239
0.000609978
0.000609826
0.000609736
0.000609694
0.000609695
0.000609738
0.000609826
0.00060997
0.000610201
0.000610555
0.000610982
0.000611203
0.000610505
0.000607471
0.000599607
0.000582863
0.000551175
0.000496562
0.00041264
0.000335856
0.000370321
0.000455166
0.000551549
0.000616334
0.000655302
0.000676715
0.000687126
0.000691036
0.000691323
0.000689813
0.000687706
0.000685756
0.000684312
0.000683411
0.000682904
0.000682613
0.000682439
0.000682356
0.000682357
0.000682442
0.000682614
0.000682892
0.000683352
0.000684116
0.000685191
0.000686223
0.00068621
0.000683183
0.000673914
0.000653578
0.000615441
0.000551203
0.000455121
0.000370275
0.000388428
0.000478887
0.000583646
0.000655358
0.000699175
0.000723333
0.000734584
0.000737733
0.000736064
0.000731957
0.000727277
0.000723313
0.000720564
0.000718953
0.000718095
0.000717605
0.000717298
0.000717145
0.000717146
0.000717302
0.000717606
0.00071808
0.000718879
0.000720315
0.000722596
0.000725414
0.000727493
0.000726154
0.000717306
0.000695412
0.000653331
0.000582753
0.00047862
0.000388254
0.000397372
0.000491113
0.000600927
0.000676878
0.000723488
0.000748698
0.000759124
0.000759575
0.000753627
0.000744437
0.000735086
0.000727856
0.000723297
0.00072086
0.000719656
0.000718976
0.000718509
0.000718259
0.000718261
0.000718514
0.00071898
0.000719642
0.000720781
0.000723021
0.000727048
0.000732971
0.000739372
0.000742461
0.000736812
0.00071605
0.000672802
0.000599022
0.000490405
0.000396931
0.000401471
0.000496909
0.000609413
0.00068752
0.000735131
0.00075967
0.000767252
0.000762311
0.000748537
0.000730311
0.000713228
0.000701484
0.000695324
0.000692557
0.000691332
0.000690719
0.000690165
0.000689825
0.000689828
0.000690173
0.000690728
0.000691326
0.00069249
0.000695059
0.000700665
0.00071101
0.00072492
0.000736611
0.000738086
0.000721739
0.000680159
0.000605881
0.000495472
0.000400576
0.000403168
0.000499374
0.00061307
0.000691898
0.000739139
0.000761476
0.000764097
0.000750465
0.000723897
0.000690629
0.000661978
0.000644777
0.000639638
0.000638598
0.000638176
0.00063854
0.000638278
0.000637961
0.000637964
0.000638287
0.000638554
0.000638184
0.00063856
0.000639426
0.000644033
0.000659793
0.00068513
0.000711581
0.000725416
0.000717191
0.000679933
0.000607276
0.00049691
0.000401618
0.000403755
0.000500254
0.000614314
0.000693035
0.00073909
0.000758248
0.000754329
0.000728946
0.000683846
0.000627728
0.000588586
0.000559138
0.000563049
0.000568703
0.000569962
0.000573698
0.000574757
0.000574784
0.000574788
0.00057477
0.000573719
0.000569986
0.000568707
0.000562936
0.000558578
0.000586466
0.000622176
0.0006713
0.000703422
0.000706648
0.00067562
0.000605887
0.000496592
0.000401433
0.000403887
0.000500471
0.000614543
0.000692875
0.000737627
0.000753688
0.000743376
0.000705919
0.00064059
0.00056383
0.000648999
0.000456551
0.000480299
0.000499575
0.000501945
0.000512672
0.000516194
0.000516849
0.000516854
0.00051621
0.000512699
0.00050198
0.000499623
0.00048032
0.000456247
0.000645505
0.000557735
0.000627665
0.000680015
0.000695224
0.000670472
0.000603748
0.000495732
0.000400859
0.000403881
0.000500493
0.000614533
0.00069263
0.000736667
0.000751069
0.000737393
0.000694197
0.000627174
0.000710046
0.000457661
0.000407509
0.000433984
0.000448606
0.000450623
0.000450832
0.000450857
0.00045086
0.00045084
0.000450639
0.000448635
0.000434033
0.000407584
0.000457671
0.000697931
0.000613468
0.000667981
0.000688969
0.000667546
0.000602454
0.000495161
0.000400459
0.00040387
0.00050052
0.000614639
0.000692868
0.000737139
0.000752034
0.000739482
0.000698221
0.000626682
0.000538067
0.000571907
0.000408302
0.000449289
0.000480803
0.000510777
0.000493088
0.000486636
0.000485296
0.000485292
0.000486624
0.000493066
0.000510764
0.000480779
0.000449217
0.000407912
0.000568399
0.000531936
0.000613716
0.00067215
0.000691033
0.0006684
0.000602775
0.000495261
0.000400496
0.000403891
0.000500607
0.00061492
0.000693588
0.000738791
0.000755633
0.000747073
0.000713645
0.00065567
0.00057964
0.000511673
0.00046102
0.000451417
0.000449587
0.000453473
0.00044838
0.000446065
0.000445447
0.000445444
0.000446058
0.000448366
0.000453455
0.000449528
0.000451232
0.000460385
0.00050955
0.000574083
0.000642959
0.000687703
0.00069866
0.000671966
0.000604354
0.000495923
0.000400888
0.000403928
0.000500725
0.000615283
0.000694503
0.00074085
0.000759951
0.00075564
0.000729736
0.000683744
0.000622362
0.00055762
0.000503585
0.000469107
0.000448142
0.000440197
0.000436531
0.000435178
0.000434777
0.000434773
0.000435168
0.000436512
0.000440159
0.000448047
0.000468853
0.000502844
0.000555454
0.000616772
0.000671032
0.000703793
0.000707201
0.000676224
0.000606335
0.000496783
0.000401399
0.000403962
0.000500839
0.000615623
0.000695338
0.000742678
0.000763626
0.000762516
0.0007417
0.000702801
0.000649021
0.000587512
0.000528987
0.000484098
0.0004543
0.00044146
0.000436839
0.000435355
0.000434938
0.000434934
0.000435343
0.000436816
0.000441412
0.000454189
0.000483814
0.000528189
0.000585262
0.000643336
0.000690004
0.000715676
0.000713989
0.0006798
0.000608063
0.000497548
0.000401839
0.00040398
0.000500923
0.000615878
0.000695957
0.000743995
0.000766176
0.000767056
0.000749115
0.000713763
0.000663251
0.000602834
0.000541874
0.000492484
0.000458779
0.000443811
0.000438465
0.000436784
0.000436323
0.000436318
0.000436772
0.00043844
0.000443759
0.000458661
0.000492187
0.000541043
0.000600527
0.000657485
0.000700871
0.000722989
0.000718422
0.000682241
0.000609276
0.000498088
0.000402134
0.000403982
0.000500974
0.000616037
0.000696339
0.000744791
0.00076767
0.00076961
0.000753083
0.000719299
0.000670023
0.000609806
0.000547645
0.000496324
0.000460976
0.000445112
0.000439415
0.000437623
0.00043713
0.000437124
0.000437609
0.000439389
0.000445058
0.000460854
0.00049602
0.000546791
0.000607464
0.000664204
0.000706338
0.000726876
0.000720889
0.000683646
0.000609988
0.000498404
0.000402292
0.000403973
0.000500996
0.000616112
0.000696518
0.000745158
0.000768344
0.000770729
0.000754761
0.000721549
0.000672663
0.000612431
0.000549783
0.000497744
0.000461802
0.000445611
0.00043978
0.000437941
0.000437429
0.000437423
0.000437926
0.000439753
0.000445556
0.000461678
0.000497437
0.000548916
0.000610074
0.000666819
0.000708553
0.000728511
0.000721959
0.000684269
0.000610309
0.000498544
0.000402348
0.00040396
0.000500995
0.000616115
0.000696526
0.000745171
0.000768364
0.000770757
0.000754799
0.000721598
0.000672722
0.000612496
0.000549849
0.000497798
0.000461837
0.000445629
0.000439787
0.000437942
0.000437424
0.000437417
0.000437926
0.00043976
0.000445574
0.000461714
0.000497491
0.000548982
0.000610142
0.00066688
0.000708603
0.000728549
0.000721985
0.000684286
0.000610318
0.000498545
0.000402332
0.000403948
0.000500971
0.000616046
0.000696361
0.000744829
0.000767729
0.000769696
0.000753199
0.00071945
0.000670207
0.000610013
0.000547853
0.000496495
0.00046109
0.000445173
0.000439445
0.000437635
0.000437125
0.000437117
0.000437619
0.000439418
0.00044512
0.00046097
0.000496196
0.000547002
0.00060768
0.000664395
0.000706492
0.00072699
0.000720968
0.000683696
0.000610015
0.00049841
0.000402251
0.000403935
0.00050092
0.000615892
0.00069599
0.000744055
0.00076627
0.000767196
0.000749311
0.000714026
0.000663582
0.000603216
0.000542252
0.0004928
0.000458992
0.000443932
0.000438535
0.000436826
0.000436343
0.000436337
0.000436811
0.000438511
0.000443883
0.000458882
0.000492519
0.000541437
0.00060093
0.00065783
0.000701137
0.000723179
0.00071855
0.00068232
0.000609319
0.000498099
0.000402081
0.00040391
0.000500833
0.000615635
0.000695371
0.000742742
0.000763736
0.000762692
0.000741966
0.000703182
0.000649531
0.000588124
0.000529589
0.000484585
0.000454606
0.000441618
0.000436928
0.00043541
0.000434974
0.000434969
0.000435399
0.000436908
0.000441578
0.000454512
0.000484336
0.000528837
0.000585917
0.000643866
0.000690379
0.00071592
0.00071414
0.000679889
0.000608111
0.000497562
0.000401778
0.000403864
0.000500707
0.00061527
0.000694499
0.000740871
0.000760018
0.000755788
0.000730011
0.000684207
0.000623061
0.000558513
0.000504444
0.000469659
0.000448335
0.000440129
0.000436385
0.000435
0.000434583
0.000434579
0.000434989
0.000436364
0.000440087
0.000448246
0.000469445
0.00050378
0.000556412
0.000617474
0.000671441
0.000703995
0.00070729
0.000676261
0.00060635
0.000496782
0.000401322
0.000403794
0.000500539
0.000614817
0.000693449
0.000738636
0.000755494
0.000747002
0.000713723
0.000656023
0.00058041
0.000512834
0.000461911
0.000451384
0.000448782
0.000452143
0.000446976
0.000444625
0.000443989
0.000443983
0.000444603
0.000446924
0.000452041
0.000448608
0.000451115
0.000461326
0.000510765
0.000574717
0.000643069
0.000687548
0.000698444
0.000671786
0.000604237
0.000495855
0.000400765
0.000403681
0.000500309
0.00061428
0.000692351
0.000736487
0.000751293
0.000738714
0.000697527
0.000626249
0.000538167
0.000574132
0.000407378
0.000446402
0.000476493
0.000505572
0.000487575
0.000480986
0.000479621
0.000479614
0.000480945
0.000487438
0.000505281
0.00047587
0.000445509
0.00040629
0.000570579
0.000531307
0.000612395
0.000670789
0.000689919
0.000667614
0.000602288
0.000494998
0.000400246
0.00040344
0.000499895
0.000613517
0.000691166
0.000734795
0.000748845
0.000734848
0.000691311
0.000623768
0.000703056
0.000437537
0.000391637
0.000414437
0.000426321
0.000427269
0.00042721
0.000427184
0.000427134
0.000427
0.000426687
0.00042494
0.000411673
0.00038715
0.000429258
0.000685112
0.00060731
0.000663429
0.000685696
0.000665337
0.000601088
0.000494416
0.000399896
0.000402804
0.00049891
0.000611966
0.000689245
0.000733037
0.000748231
0.000737014
0.000698342
0.000630937
0.000549251
0.000608572
0.000422888
0.000437191
0.000446507
0.000442575
0.000450086
0.000452924
0.000453514
0.000453406
0.000452454
0.000448698
0.000439018
0.000438936
0.000424563
0.000406534
0.000579672
0.000532582
0.000611829
0.000669061
0.000687624
0.000665331
0.000600482
0.000493881
0.000399562
0.000401136
0.000496458
0.000608302
0.000684815
0.000728913
0.000746325
0.000740545
0.000712542
0.000662956
0.000598464
0.00054392
0.000497356
0.000480313
0.000466771
0.000455757
0.000453909
0.000453633
0.000453496
0.000453321
0.000452844
0.000451468
0.000449227
0.000452396
0.00045726
0.000469695
0.000516591
0.000575606
0.000639888
0.000681684
0.000691368
0.000664949
0.000598791
0.000492349
0.000398504
0.000397115
0.000490761
0.000600034
0.000674658
0.000718335
0.000737647
0.00073722
0.000719462
0.000686052
0.000640938
0.000593173
0.000550288
0.000515762
0.000489667
0.000470659
0.000462825
0.000460211
0.000459416
0.000459185
0.000459144
0.000459418
0.000461228
0.000468729
0.000486668
0.000514861
0.00055978
0.0006129
0.000660053
0.000688016
0.000689498
0.000659474
0.000592854
0.000487737
0.000395198
0.000388266
0.000478672
0.000583069
0.00065385
0.00069556
0.000715429
0.000718759
0.000708589
0.000686625
0.000654813
0.000616619
0.000576216
0.000537545
0.000506879
0.000484523
0.000474484
0.000470886
0.000469762
0.000469493
0.000469658
0.000470607
0.000473943
0.000483808
0.000506312
0.000538706
0.000581573
0.000625581
0.000660596
0.000678773
0.000674634
0.000643046
0.00057809
0.000476662
0.000387019
0.000370248
0.000455081
0.00055128
0.000615521
0.000653174
0.00067181
0.000676955
0.000671776
0.00065774
0.000635657
0.000606696
0.000573031
0.000538432
0.000509132
0.0004894
0.000480018
0.000476393
0.000475188
0.000474909
0.000475156
0.00047631
0.000479865
0.00048923
0.000509184
0.000539394
0.000575546
0.000609781
0.00063506
0.000646219
0.000639003
0.000608442
0.000548148
0.000453899
0.000369546
0.000335852
0.000412619
0.000496628
0.000551241
0.000582604
0.00059825
0.000603487
0.000601277
0.000592825
0.000578417
0.000558329
0.000533768
0.00050775
0.000485263
0.00047047
0.00046311
0.000460102
0.000459053
0.000458809
0.000459053
0.000460095
0.000463093
0.000470474
0.000485412
0.000508281
0.000534757
0.000558896
0.000575812
0.000581952
0.000573936
0.000547108
0.000494905
0.000412032
0.000335546
0.000274533
0.000343949
0.000412689
0.00045517
0.000478581
0.000490025
0.000494151
0.000493424
0.000488758
0.000480202
0.000467678
0.000451812
0.00043466
0.000419693
0.000409968
0.000405049
0.000402983
0.000402242
0.00040207
0.000402254
0.000403004
0.000405079
0.000410021
0.000419818
0.000434931
0.000452183
0.000467552
0.000477884
0.000480868
0.000473968
0.000453115
0.000411905
0.000343718
0.000274466
0.000184798
0.000274531
0.000335909
0.000370353
0.000388312
0.000396812
0.000399885
0.000399513
0.000396356
0.000390356
0.000381344
0.000369695
0.000356966
0.000345902
0.000339059
0.000335715
0.000334323
0.000333814
0.000333692
0.000333826
0.000334344
0.000335742
0.000339097
0.000345978
0.000357123
0.000369906
0.000381225
0.000388747
0.000390811
0.000385472
0.000369204
0.000335536
0.000274455
0.000184835
0.000214512
0.000357386
0.000458255
0.000517232
0.000549653
0.000566409
0.000574395
0.00057774
0.000578763
0.000578702
0.00057821
0.00057763
0.000577138
0.00057679
0.000576568
0.000576429
0.000576345
0.000576304
0.000576303
0.000576342
0.000576422
0.000576551
0.000576745
0.000577013
0.000577288
0.000577304
0.000576421
0.000573347
0.000565675
0.000549201
0.00051699
0.000458147
0.000357354
0.000214523
0.000357388
0.00040955
0.000482705
0.000531296
0.00055971
0.00057494
0.000582385
0.000585568
0.000586566
0.000586531
0.000586084
0.000585557
0.000585113
0.000584801
0.000584606
0.000584488
0.000584419
0.000584386
0.000584386
0.000584418
0.000584485
0.000584595
0.000584763
0.000584995
0.000585222
0.000585193
0.000584307
0.000581371
0.000574226
0.000559278
0.000531086
0.000482647
0.000409581
0.000357353
0.000458298
0.000482719
0.000557109
0.000610608
0.000643629
0.000662092
0.00067137
0.000675292
0.000676297
0.000675861
0.000674862
0.000673812
0.000672965
0.000672387
0.000672032
0.000671823
0.000671703
0.000671647
0.000671647
0.000671703
0.000671819
0.000672014
0.000672325
0.000672779
0.0006733
0.00067355
0.000672718
0.000669259
0.000660574
0.000642681
0.000610118
0.000556936
0.000482721
0.000458202
0.000517331
0.000531336
0.000610636
0.000669865
0.000707512
0.000729006
0.000739779
0.000743941
0.000744302
0.000742728
0.00074048
0.000738355
0.000736732
0.000735665
0.00073503
0.000734669
0.000734462
0.000734364
0.000734365
0.000734462
0.000734664
0.000735004
0.000735576
0.00073647
0.000737647
0.000738712
0.000738606
0.000735338
0.000725763
0.000705436
0.000668724
0.00061014
0.000531196
0.000517081
0.000549809
0.000559785
0.000643702
0.000707571
0.000748726
0.000772241