/*--------------------------------*- C++ -*----------------------------------*\
| =========                 |                                                 |
| \\      /  F ield         | OpenFOAM: The Open Source CFD Toolbox           |
|  \\    /   O peration     | Version:  2112                                  |
|   \\  /    A nd           | Website:  www.openfoam.com                      |
|    \\/     M anipulation  |                                                 |
\*---------------------------------------------------------------------------*/
FoamFile
{
    version     2.0;
    format      ascii;
    arch        "LSB;label=32;scalar=64";
    class       volScalarField;
    location    "4";
    object      k;
}
// * * * * * * * * * * * * * * * * * * * * * * * * * * * * * * * * * * * * * //

dimensions      [0 2 -2 0 0 0 0];

internalField   nonuniform List<scalar> 
64906
(
0.000245851
0.000276192
0.000295346
0.00030498
0.000309508
0.000311527
0.000312372
0.000312694
0.000312792
0.000312795
0.000312763
0.000312723
0.000312694
0.000312672
0.000312654
0.000312638
0.000312625
0.000312615
0.000312611
0.000312617
0.000312628
0.000312642
0.000312658
0.000312676
0.000312691
0.000312692
0.000312613
0.000312316
0.000311495
0.000309495
0.000304979
0.000295353
0.000276207
0.000245863
0.000276216
0.00042045
0.000499126
0.000540484
0.000562011
0.000572753
0.000577747
0.00057981
0.000580457
0.000580466
0.000580233
0.000579957
0.000579732
0.000579584
0.000579501
0.000579454
0.000579426
0.000579412
0.000579412
0.000579426
0.000579453
0.000579497
0.000579568
0.000579674
0.000579779
0.000579733
0.000579156
0.000577242
0.000572424
0.000561839
0.000540427
0.000499138
0.000420487
0.000276252
0.000295405
0.000499169
0.000611964
0.000673579
0.000707125
0.000724638
0.000733076
0.000736553
0.000737446
0.0007371
0.00073629
0.000735458
0.000734819
0.000734422
0.000734209
0.000734095
0.000734031
0.000734002
0.000734004
0.000734036
0.000734101
0.000734209
0.000734393
0.000734699
0.000735087
0.000735273
0.000734544
0.000731477
0.000723545
0.000706495
0.000673296
0.000611896
0.00049921
0.000295466
0.000305065
0.000540572
0.000673626
0.000748403
0.000790296
0.000812673
0.000823458
0.000827517
0.00082783
0.000826263
0.000824051
0.000822001
0.000820489
0.000819583
0.000819107
0.00081884
0.000818681
0.000818606
0.000818609
0.000818689
0.000818849
0.000819105
0.000819534
0.0008203
0.00082143
0.000822531
0.000822556
0.00081945
0.000809863
0.000788596
0.000747546
0.000673307
0.000540548
0.00030514
0.00030961
0.000562134
0.000707222
0.000790361
0.000837703
0.000863074
0.000874775
0.000878024
0.000876213
0.000871768
0.000866627
0.000862232
0.000859149
0.000857408
0.000856544
0.000856025
0.000855689
0.000855523
0.000855527
0.000855699
0.000856036
0.000856541
0.000857346
0.000858907
0.000861504
0.000864704
0.000867142
0.000865942
0.000856835
0.000833851
0.000788321
0.000706354
0.000561926
0.000309684
0.000311636
0.000572902
0.000724799
0.000812852
0.000863239
0.000889725
0.000900528
0.000900853
0.00089432
0.000884098
0.000873448
0.000865136
0.000859701
0.000856929
0.000855709
0.000854857
0.00085424
0.000853928
0.000853933
0.000854253
0.000854873
0.00085571
0.000856867
0.000859438
0.000864325
0.000871278
0.000878861
0.000882748
0.000877227
0.000855505
0.000808671
0.000722913
0.000572324
0.000311684
0.000312483
0.000577928
0.00073335
0.000823876
0.000875358
0.000901119
0.000908849
0.000903246
0.000887827
0.000866832
0.000846448
0.000832898
0.00082506
0.00082178
0.000820746
0.000819586
0.000818603
0.000818103
0.000818108
0.000818619
0.000819608
0.000820758
0.000821734
0.00082482
0.000832102
0.000844218
0.000861313
0.000875511
0.000878128
0.000861296
0.000816257
0.00072982
0.000576728
0.000312472
0.000312807
0.000580053
0.00073704
0.000828425
0.000879535
0.000902931
0.000905223
0.000889744
0.000858875
0.000817898
0.000779909
0.000763345
0.00075657
0.000755354
0.000756052
0.000754889
0.000753637
0.00075301
0.000753017
0.000753656
0.000754917
0.000756079
0.00075534
0.000756399
0.000762675
0.000777834
0.000812421
0.000846274
0.000863837
0.000856252
0.000815953
0.000731214
0.000577965
0.000312694
0.000312913
0.000580815
0.000738317
0.000829641
0.000879497
0.000899427
0.000894296
0.000864504
0.000808099
0.000727376
0.000650698
0.000650366
0.000659381
0.000666839
0.000671747
0.000671548
0.000670669
0.000670215
0.000670222
0.000670689
0.000671581
0.000671788
0.000666865
0.000659318
0.000649956
0.000649089
0.000722308
0.000795554
0.000838247
0.00084458
0.000811345
0.000729796
0.000577687
0.000312664
0.000312931
0.000581014
0.000738584
0.000829525
0.000877984
0.000894437
0.000881559
0.000834811
0.000740223
0.000574977
0.000391951
0.000485082
0.000548568
0.000574648
0.000584989
0.000587356
0.000587793
0.000587843
0.000587849
0.000587813
0.000587389
0.000585039
0.000574709
0.000548627
0.000485073
0.000391377
0.000570904
0.000727975
0.000808417
0.000831446
0.000805786
0.000727621
0.000576947
0.000312546
0.000312921
0.000581049
0.000738622
0.000829337
0.000877027
0.00089155
0.00087412
0.000815732
0.000685649
0.000405626
0.000346302
0.000466343
0.000507151
0.000519717
0.000524041
0.000525343
0.000525657
0.000525661
0.000525355
0.000524064
0.000519754
0.000507212
0.000466435
0.000346356
0.00040357
0.000673878
0.000789311
0.000823819
0.000802627
0.000726351
0.000576481
0.000312455
0.000312904
0.00058109
0.000738782
0.000829673
0.000877664
0.000892905
0.000877675
0.00082701
0.000726852
0.000555243
0.000375814
0.000435684
0.000487791
0.000508318
0.000513852
0.000518061
0.000519391
0.000519637
0.000519636
0.000519389
0.000518059
0.000513846
0.000508311
0.000487768
0.000435523
0.000375131
0.000551077
0.000714544
0.000800491
0.000827315
0.000803875
0.000726826
0.000576623
0.000312441
0.000312893
0.000581177
0.000739115
0.000830501
0.00087952
0.000896993
0.000886837
0.000848296
0.000778237
0.000678116
0.000577911
0.000543386
0.00052654
0.000520628
0.000518388
0.000518722
0.000518879
0.000518853
0.000518849
0.000518867
0.000518701
0.000518349
0.000520555
0.000526372
0.000542884
0.000576257
0.00067306
0.000765629
0.00082174
0.000836492
0.000807937
0.000728579
0.000577249
0.000312508
0.000312884
0.000581285
0.000739523
0.000831515
0.000881756
0.000901672
0.000896338
0.000867156
0.000814445
0.000742014
0.000663778
0.000600968
0.000554545
0.000532848
0.000524679
0.00052215
0.00052134
0.00052107
0.000521064
0.000521321
0.000522116
0.000524621
0.000532741
0.000554315
0.000600341
0.000661808
0.000736609
0.000801646
0.000840531
0.000845964
0.000812563
0.000730694
0.000578031
0.000312587
0.000312874
0.000581382
0.000739895
0.000832429
0.000883711
0.000905556
0.000903624
0.00088007
0.000835752
0.000773286
0.000700219
0.000628447
0.000570225
0.000540877
0.000529253
0.000525211
0.000523859
0.000523427
0.000523417
0.000523832
0.000525167
0.000529184
0.000540757
0.000569973
0.000627773
0.000698127
0.000767717
0.000822817
0.000853351
0.000853173
0.000816353
0.000732505
0.00057871
0.000312643
0.000312859
0.00058145
0.000740174
0.000833104
0.000885116
0.000908227
0.000908333
0.000887756
0.000847182
0.000788233
0.000716178
0.000640906
0.000577864
0.00054512
0.00053181
0.000527048
0.000525419
0.000524878
0.000524864
0.000525384
0.000526997
0.000531734
0.000544992
0.000577602
0.000640197
0.000714029
0.000782571
0.000834145
0.000860939
0.000857787
0.000818915
0.000733767
0.00057918
0.000312667
0.000312842
0.000581486
0.000740348
0.000833524
0.000885969
0.000909793
0.000910965
0.000891798
0.000852774
0.000794998
0.000722983
0.000646255
0.000581186
0.000547025
0.000532982
0.000527902
0.000526133
0.000525512
0.000525494
0.000526091
0.000527845
0.000532903
0.000546894
0.000580918
0.000645489
0.000720803
0.000789285
0.000839669
0.000864906
0.000860338
0.00082039
0.000734509
0.000579448
0.000312664
0.000312823
0.000581496
0.000740433
0.000833726
0.000886369
0.000910507
0.000912125
0.000893508
0.00085503
0.000797597
0.000725494
0.000648214
0.000582401
0.000547726
0.000533409
0.000528203
0.000526366
0.000525688
0.000525663
0.000526318
0.000528142
0.000533326
0.000547592
0.00058213
0.000647437
0.000723301
0.000791861
0.000841893
0.000866577
0.000861453
0.000821052
0.000734847
0.000579562
0.000312646
0.000312808
0.00058149
0.00074044
0.000833741
0.000886393
0.00091054
0.00091217
0.000893566
0.000855103
0.000797682
0.000725586
0.000648304
0.000582468
0.000547766
0.000533425
0.000528199
0.00052634
0.000525628
0.000525598
0.000526287
0.000528135
0.00053334
0.000547631
0.000582196
0.000647529
0.000723398
0.00079195
0.00084197
0.000866638
0.0008615
0.000821085
0.000734866
0.000579558
0.000312621
0.000312805
0.00058147
0.00074037
0.00083357
0.000886039
0.000909892
0.0009111
0.000891973
0.000852994
0.00079526
0.000723272
0.000646541
0.000581396
0.000547152
0.000533037
0.000527898
0.000526065
0.000525355
0.000525323
0.000526008
0.000527831
0.000532951
0.000547019
0.000581131
0.000645782
0.000721108
0.000789563
0.000839903
0.000865091
0.000860477
0.000820487
0.000734565
0.000579444
0.000312606
0.000312814
0.000581434
0.000740209
0.000833176
0.000885227
0.000908387
0.000908553
0.000888049
0.000847562
0.000788697
0.000716708
0.000641418
0.000578247
0.000545356
0.000531921
0.00052706
0.00052533
0.000524675
0.000524646
0.000525274
0.000526994
0.000531837
0.00054523
0.000577997
0.000640699
0.000714594
0.00078307
0.00083455
0.000861249
0.000858014
0.000819073
0.000733859
0.000579184
0.000312597
0.000312827
0.000581368
0.000739938
0.000832515
0.000883846
0.000905755
0.00090391
0.000880473
0.000836302
0.000774
0.000701075
0.000629204
0.000570825
0.000541239
0.000529427
0.00052524
0.000523761
0.000523219
0.000523196
0.000523709
0.000525177
0.000529349
0.000541126
0.000570605
0.00062858
0.000699058
0.00076849
0.000823402
0.000853769
0.000853466
0.000816554
0.000732623
0.000578726
0.00031257
0.000312836
0.000581266
0.000739551
0.000831579
0.000881865
0.00090185
0.000896627
0.000867615
0.000815154
0.000743047
0.000665093
0.000602133
0.000555334
0.00053323
0.000524785
0.000522056
0.000521105
0.000520747
0.00052073
0.000521061
0.000521996
0.00052471
0.000533128
0.000555156
0.000601619
0.000663259
0.000737736
0.000802379
0.000840977
0.000846242
0.000812745
0.000730804
0.000578049
0.000312511
0.000312842
0.000581126
0.000739066
0.000830441
0.000879465
0.000896981
0.000886935
0.000848615
0.000778961
0.000679442
0.000579817
0.000545008
0.000527039
0.000520378
0.000517712
0.000517759
0.000517763
0.000517664
0.00051765
0.000517721
0.000517686
0.0005176
0.000520223
0.000526859
0.000544692
0.000578387
0.000674507
0.000766272
0.00082192
0.00083651
0.000807933
0.000728585
0.000577228
0.000312426
0.00031284
0.000580927
0.00073849
0.000829237
0.000877113
0.000892298
0.000877109
0.000826676
0.000727124
0.000556681
0.000376857
0.000436031
0.000485628
0.000504772
0.00050946
0.000513227
0.000514387
0.000514565
0.000514545
0.000514315
0.000513063
0.000509123
0.000504222
0.000485004
0.000435805
0.000376189
0.000552568
0.000714321
0.000799639
0.000826485
0.000803292
0.000726494
0.000576456
0.000312341
0.000312816
0.00058057
0.000737687
0.000827939
0.000875225
0.00088942
0.000871738
0.00081322
0.000683453
0.000404734
0.000340961
0.000454315
0.000491426
0.000501561
0.000505027
0.000506084
0.000506313
0.000506259
0.000505876
0.000504497
0.000500368
0.000489177
0.000451052
0.000338647
0.000401486
0.000669658
0.000785268
0.000820768
0.000800599
0.00072517
0.000575927
0.000312308
0.000312712
0.000579729
0.000736109
0.000825919
0.000873396
0.000889003
0.000875314
0.000827659
0.000732118
0.000566481
0.000384864
0.000460227
0.000512225
0.000527964
0.000531253
0.000531912
0.000532117
0.000532143
0.000532039
0.000531678
0.000530661
0.000528119
0.000521285
0.000500934
0.000448238
0.000378547
0.000555135
0.000714046
0.000797814
0.000823949
0.00080078
0.000724583
0.000575484
0.000312262
0.0003124
0.000577628
0.000732425
0.00082133
0.000869146
0.000887304
0.000880322
0.000847988
0.000787493
0.000699943
0.000612035
0.000591245
0.000577814
0.000562137
0.000553106
0.000549447
0.000548239
0.000547863
0.000547704
0.00054753
0.000547261
0.000547134
0.000548062
0.000551576
0.000561692
0.000586136
0.000676645
0.00076333
0.000815759
0.000828929
0.000800623
0.000722958
0.000574207
0.000312073
0.000311572
0.000572698
0.000724108
0.000810822
0.000858176
0.000878452
0.000877594
0.000857781
0.000819654
0.000766076
0.000707488
0.000660501
0.000616197
0.000577294
0.000558068
0.000550734
0.00054832
0.0005476
0.000547405
0.000547421
0.000547823
0.000549638
0.000556008
0.000574159
0.00061432
0.00066718
0.000733421
0.000790725
0.000824271
0.000827498
0.000795105
0.000717048
0.00057024
0.000311371
0.000309571
0.000562053
0.000706855
0.000789078
0.000834266
0.000855165
0.000858449
0.000847219
0.000822695
0.000786165
0.000740869
0.000691601
0.000639898
0.000594237
0.000571333
0.000562369
0.000559331
0.000558415
0.000558199
0.000558326
0.000559103
0.000561909
0.000570607
0.000593568
0.00064065
0.000696443
0.000750946
0.000793163
0.000815214
0.000812091
0.000778011
0.000702072
0.000560495
0.000309479
0.000305048
0.000540609
0.000673564
0.000747843
0.000788435
0.000807974
0.000813251
0.00080758
0.000792152
0.000767298
0.000733743
0.000693503
0.000650319
0.000612427
0.000591671
0.0005829
0.000579703
0.000578683
0.000578457
0.000578646
0.000579616
0.000582741
0.000591468
0.000612333
0.000651046
0.000695777
0.000736918
0.000766843
0.00078044
0.000773679
0.000740802
0.000670715
0.000539786
0.000305037
0.00029541
0.000499293
0.000612122
0.00067356
0.000706487
0.000722499
0.000727836
0.000725563
0.000716714
0.00070131
0.000679344
0.000651897
0.000622216
0.000596391
0.00058117
0.000574173
0.000571494
0.000570617
0.000570421
0.000570602
0.000571458
0.000574112
0.000581104
0.000596432
0.000622595
0.000652725
0.000679844
0.00069873
0.000705887
0.000698023
0.000669798
0.000610774
0.000499003
0.000295458
0.000276249
0.000420593
0.000499375
0.000540763
0.000562135
0.000572334
0.00057604
0.000575521
0.000571551
0.000564053
0.00055279
0.000538218
0.000522234
0.000508209
0.00049953
0.000495316
0.000493619
0.000493034
0.000492902
0.000493038
0.000493623
0.00049532
0.000499539
0.000508266
0.000522403
0.000538482
0.000552661
0.000562064
0.000564765
0.000558567
0.000539384
0.00049902
0.000420606
0.000276316
0.000245888
0.000276299
0.000295546
0.000305264
0.000309859
0.000311903
0.000312685
0.000312767
0.000312306
0.000311249
0.000309588
0.000307291
0.000304607
0.000302138
0.000300563
0.000299763
0.000299402
0.000299234
0.000299178
0.000299242
0.000299409
0.000299767
0.000300562
0.000302134
0.000304607
0.000307294
0.000309531
0.000310943
0.000311167
0.000309672
0.00030532
0.000295668
0.000276398
0.000245941
0.000354507
0.000462119
0.000529026
0.000564909
0.000583383
0.000592436
0.000596567
0.000598243
0.000598757
0.000598752
0.00059855
0.000598307
0.000598101
0.000597955
0.00059786
0.000597797
0.000597757
0.000597736
0.000597734
0.000597752
0.000597789
0.000597847
0.00059793
0.000598043
0.000598154
0.000598139
0.000597688
0.000596131
0.000592139
0.000583208
0.000564822
0.000528996
0.000462118
0.000354521
0.000462126
0.000888389
0.00108572
0.00119384
0.00125288
0.0012838
0.00129882
0.00130522
0.00130715
0.00130694
0.00130585
0.0013046
0.00130354
0.00130279
0.00130232
0.00130203
0.00130186
0.00130177
0.00130177
0.00130186
0.00130203
0.0013023
0.00130272
0.00130329
0.00130389
0.00130398
0.00130233
0.00129649
0.00128213
0.00125182
0.00119324
0.00108542
0.000888271
0.000462129
0.000529068
0.0010858
0.00134664
0.00149449
0.00157818
0.00162351
0.00164607
0.00165555
0.00165783
0.00165647
0.00165367
0.00165073
0.00164836
0.00164676
0.00164579
0.00164521
0.00164486
0.0016447
0.00164471
0.00164487
0.0016452
0.00164575
0.00164661
0.00164789
0.00164943
0.00165035
0.0016486
0.00164039
0.0016194
0.00157555
0.001493
0.00134592
0.00108554
0.000529062
0.000564989
0.001194
0.00149458
0.00166916
0.0017703
0.00182597
0.00185348
0.00186394
0.00186446
0.00185978
0.00185318
0.00184686
0.00184201
0.00183887
0.00183705
0.00183597
0.00183532
0.00183502
0.00183502
0.00183533
0.00183596
0.00183699
0.00183864
0.00184131
0.00184498
0.00184848
0.00184894
0.00184112
0.00181695
0.00176444
0.00166579
0.00149291
0.00119335
0.000564934
0.000583499
0.00125312
0.0015784
0.00177046
0.00188312
0.00194504
0.00197417
0.00198224
0.00197729
0.00196531
0.00195123
0.00193874
0.00192964
0.0019241
0.00192107
0.00191923
0.00191809
0.00191753
0.00191753
0.00191809
0.00191923
0.001921
0.00192382
0.00192877
0.00193639
0.00194542
0.00195206
0.00194924
0.00192683
0.00187124
0.00176355
0.00157488
0.00125167
0.000583308
0.000592585
0.00128413
0.00162393
0.00182649
0.00194554
0.0020095
0.00203603
0.0020368
0.00202036
0.0019944
0.00196683
0.00194425
0.00192886
0.0019203
0.00191603
0.00191324
0.00191135
0.00191042
0.00191042
0.00191136
0.00191323
0.00191596
0.00192
0.00192791
0.00194163
0.00196028
0.00197944
0.00198889
0.00197531
0.00192333
0.00181352
0.00161722
0.00128125
0.000592117
0.000596752
0.00129932
0.00164689
0.00185478
0.00197595
0.00203777
0.00205672
0.00204338
0.00200614
0.00195513
0.00190457
0.00186797
0.00184558
0.00183486
0.00183042
0.00182675
0.00182395
0.00182254
0.00182255
0.00182397
0.00182676
0.00183037
0.00183459
0.00184467
0.00186533
0.00189772
0.00193919
0.00197244
0.00197783
0.00193756
0.00183248
0.00163527
0.00129421
0.000595816
0.000598483
0.00130602
0.00165714
0.0018668
0.00198677
0.00204273
0.00204882
0.00201273
0.0019406
0.00184507
0.00175501
0.00170588
0.0016827
0.0016751
0.00167383
0.00167012
0.00166668
0.00166494
0.00166495
0.00166671
0.00167014
0.00167381
0.00167492
0.00168197
0.00170352
0.00174837
0.00182881
0.00190559
0.00194455
0.00192554
0.00183175
0.0016389
0.00129787
0.000596876
0.000599086
0.00130848
0.00166076
0.0018701
0.00198688
0.00203455
0.00202352
0.00195545
0.00182793
0.00164861
0.00147716
0.00144604
0.00145191
0.00146212
0.00146956
0.00146871
0.00146635
0.00146502
0.00146503
0.00146637
0.00146875
0.00146959
0.00146206
0.00145148
0.00144433
0.0014714
0.00163265
0.00179216
0.00188551
0.00189758
0.00182012
0.00163496
0.00129686
0.000596689
0.000599224
0.0013091
0.00166148
0.00186975
0.00198303
0.00202247
0.00199395
0.00188932
0.00168332
0.00132844
0.000822609
0.00106112
0.0011877
0.00124003
0.00125858
0.00126643
0.00126809
0.00126815
0.00126816
0.00126811
0.00126648
0.00125864
0.00124008
0.00118766
0.00106064
0.000819533
0.00131356
0.00164699
0.00181804
0.00186622
0.00180596
0.00162887
0.00129435
0.000596104
0.000599219
0.00130913
0.00166145
0.00186903
0.00198027
0.00201499
0.00197616
0.00184768
0.00157395
0.000873904
0.00065006
0.000970581
0.00105894
0.00108789
0.00109673
0.00109916
0.0010997
0.0010997
0.00109918
0.00109677
0.00108794
0.00105902
0.000970698
0.000650063
0.000863605
0.00153738
0.0017756
0.00184748
0.00179741
0.00162498
0.00129259
0.000595695
0.000599209
0.00130917
0.00166171
0.00186954
0.00198116
0.00201688
0.00198155
0.00186582
0.0016432
0.00126447
0.000755037
0.000916103
0.00102835
0.00107565
0.00109484
0.00109735
0.00109752
0.00109744
0.00109744
0.00109751
0.00109734
0.00109481
0.0010756
0.00102821
0.000915459
0.000751824
0.00124947
0.00160659
0.00179396
0.00185288
0.0017991
0.00162551
0.00129264
0.000595729
0.00059923
0.00130939
0.00166247
0.00187136
0.00198512
0.00202541
0.00200031
0.00190853
0.00174411
0.0015106
0.00126772
0.00115361
0.00109353
0.00107178
0.0010655
0.00106408
0.00106362
0.00106341
0.0010634
0.00106361
0.00106405
0.00106544
0.00107162
0.00109305
0.00115197
0.00126211
0.00149456
0.00170772
0.00183718
0.00187208
0.00180786
0.00162948
0.00129427
0.000596125
0.00059927
0.00130973
0.0016635
0.00187375
0.00199021
0.00203577
0.00202085
0.00194847
0.00181951
0.00164212
0.00144642
0.00128
0.00115168
0.00108994
0.00106715
0.00106011
0.00105807
0.00105751
0.00105751
0.00105805
0.00106007
0.00106707
0.00108972
0.00115104
0.00127796
0.00144013
0.00162567
0.00178318
0.00187744
0.00189296
0.00181846
0.00163465
0.00129652
0.000596644
0.000599306
0.00131006
0.00166449
0.00187601
0.00199485
0.00204471
0.00203722
0.00197697
0.001866
0.00171015
0.00152654
0.00134336
0.00118812
0.00110729
0.00107553
0.001065
0.00106188
0.00106108
0.00106108
0.00106187
0.00106496
0.00107544
0.00110705
0.00118743
0.00134117
0.00151998
0.00169346
0.00182961
0.00190602
0.00190945
0.00182748
0.00163928
0.00129859
0.000597094
0.000599326
0.00131032
0.00166526
0.00187774
0.00199829
0.00205104
0.00204812
0.00199448
0.00189186
0.00174405
0.00156334
0.00137338
0.00120704
0.00111766
0.00108155
0.00106928
0.00106561
0.00106469
0.00106468
0.0010656
0.00106924
0.00108146
0.00111741
0.00120633
0.00137114
0.00155664
0.0017272
0.00185535
0.00192348
0.00192033
0.00183378
0.00164261
0.00130011
0.000597398
0.000599329
0.00131049
0.00166575
0.00187883
0.00200042
0.00205484
0.00205437
0.00200395
0.00190489
0.00175992
0.00157959
0.00138653
0.00121561
0.00112261
0.00108459
0.00107155
0.00106763
0.00106665
0.00106664
0.00106762
0.00107151
0.0010845
0.00112236
0.00121489
0.0013843
0.00157281
0.00174296
0.00186828
0.00193285
0.0019265
0.00183749
0.00164463
0.00130102
0.000597561
0.000599321
0.00131057
0.00166599
0.00187935
0.00200142
0.00205658
0.00205716
0.00200801
0.00191024
0.00176612
0.00158569
0.00139141
0.00121881
0.00112448
0.00108575
0.00107241
0.0010684
0.00106739
0.00106738
0.00106839
0.00107238
0.00108566
0.00112423
0.00121808
0.00138914
0.00157888
0.00174911
0.00187356
0.00193685
0.00192922
0.00183917
0.00164555
0.00130144
0.000597619
0.000599308
0.00131057
0.001666
0.00187937
0.00200145
0.00205663
0.00205722
0.00200809
0.00191034
0.00176624
0.00158582
0.00139153
0.00121893
0.00112456
0.00108579
0.00107243
0.00106841
0.00106739
0.00106739
0.0010684
0.0010724
0.0010857
0.00112431
0.00121821
0.00138927
0.00157901
0.00174923
0.00187366
0.00193693
0.00192928
0.0018392
0.00164557
0.00130144
0.000597603
0.000599295
0.00131049
0.00166578
0.00187888
0.0020005
0.00205496
0.00205455
0.00200419
0.0019052
0.00176028
0.00157999
0.00138694
0.001216
0.00112287
0.00108473
0.00107163
0.00106769
0.00106669
0.00106668
0.00106768
0.0010716
0.00108465
0.00112263
0.00121529
0.0013847
0.00157323
0.00174333
0.00186859
0.00193309
0.00192667
0.0018376
0.00164469
0.00130104
0.00059752
0.000599281
0.00131032
0.00166529
0.00187781
0.0019984
0.00205122
0.00204839
0.00199487
0.00189238
0.00174471
0.00156409
0.00137414
0.00120778
0.00111816
0.00108186
0.0010695
0.00106579
0.00106485
0.00106484
0.00106579
0.00106947
0.00108179
0.00111795
0.00120711
0.00137198
0.00155743
0.00172787
0.00185587
0.00192385
0.00192058
0.00183394
0.0016427
0.00130013
0.000597344
0.000599253
0.00131004
0.00166449
0.00187605
0.00199494
0.00204488
0.00203751
0.00197745
0.00186672
0.00171115
0.00152778
0.00134471
0.00118932
0.00110809
0.00107604
0.00106538
0.00106222
0.0010614
0.0010614
0.00106222
0.00106537
0.001076
0.00110791
0.00118872
0.00134264
0.00152129
0.00169449
0.00183031
0.00190644
0.00190969
0.00182762
0.00163935
0.0012986
0.000597032
0.000599204
0.00130964
0.0016634
0.00187364
0.00199011
0.00203573
0.00202095
0.00194885
0.00182032
0.00164351
0.00144832
0.00128206
0.0011532
0.00109073
0.0010675
0.00106026
0.00105817
0.0010576
0.00105761
0.00105818
0.00106027
0.00106747
0.00109057
0.00115269
0.00128022
0.00144218
0.00162707
0.00178384
0.00187761
0.00189291
0.00181836
0.00163457
0.00129644
0.000596566
0.00059913
0.00130914
0.00166205
0.00187076
0.00198439
0.00202464
0.00199963
0.00190818
0.00174452
0.00151223
0.00127046
0.00115614
0.00109402
0.00107069
0.00106361
0.0010618
0.00106125
0.00106103
0.00106104
0.00106125
0.00106177
0.00106347
0.00107037
0.00109344
0.00115471
0.00126505
0.00149608
0.00170754
0.0018362
0.00187099
0.00180699
0.00162892
0.00129394
0.000595998
0.000599011
0.00130844
0.00166043
0.0018677
0.00197882
0.00201417
0.00197866
0.00186314
0.00164155
0.00126555
0.00075701
0.000915469
0.0010216
0.00106534
0.00108251
0.00108422
0.00108422
0.00108414
0.00108413
0.00108414
0.00108394
0.00108175
0.00106387
0.00101965
0.000914194
0.000753755
0.00124983
0.00160294
0.00178946
0.00184899
0.00179626
0.00162369
0.00129166
0.000595469
0.000598761
0.00130721
0.0016581
0.00186426
0.00197421
0.00200779
0.00196795
0.00183868
0.00156496
0.000867962
0.000630435
0.000933665
0.0010125
0.00103498
0.00104208
0.00104433
0.00104491
0.0010448
0.00104387
0.00104075
0.00103174
0.00100606
0.000923752
0.000622316
0.000852701
0.00152193
0.00176197
0.00183706
0.00179012
0.00162035
0.00129009
0.000595109
0.000598107
0.00130439
0.0016535
0.00185867
0.00196914
0.00200596
0.00197466
0.00186661
0.00165606
0.00129527
0.000787344
0.000979202
0.0010799
0.0011068
0.00110815
0.00111212
0.00111383
0.00111423
0.00111397
0.00111271
0.00110877
0.0010995
0.00108802
0.00104736
0.000941433
0.000761779
0.00125677
0.00160288
0.00178543
0.00184292
0.00178988
0.00161847
0.00128856
0.000594763
0.000596404
0.00129769
0.00164315
0.00184635
0.00195772
0.00200036
0.00198373
0.00190787
0.00176779
0.00156702
0.00135968
0.00127717
0.0012265
0.00117863
0.00115087
0.00114135
0.00113853
0.00113768
0.00113727
0.00113664
0.00113541
0.0011345
0.00114007
0.00115603
0.00119697
0.00128623
0.00150198
0.00170111
0.00182158
0.00185232
0.00178827
0.00161358
0.00128444
0.000593678
0.000592316
0.00128276
0.00162075
0.00181925
0.00192986
0.00197749
0.00197462
0.00192605
0.00183358
0.00170366
0.00155862
0.0014324
0.00131498
0.00121091
0.00115761
0.00113735
0.00113075
0.0011288
0.00112827
0.00112828
0.00112932
0.00113441
0.00115296
0.00120466
0.00131437
0.0014548
0.00161842
0.00175657
0.00183732
0.00184667
0.00177352
0.00159769
0.00127259
0.000590316
0.000583327
0.00125213
0.00157612
0.00176516
0.00187141
0.00192091
0.0019277
0.00189856
0.00183642
0.00174442
0.00162989
0.00150375
0.00137216
0.00125338
0.00119096
0.00116605
0.00115751
0.00115489
0.00115428
0.00115467
0.00115693
0.00116494
0.00118942
0.00125257
0.00137615
0.00151797
0.00165399
0.00175846
0.0018137
0.00180872
0.0017313
0.00155942
0.00124496
0.00058201
0.000564908
0.00119339
0.00149321
0.00166585
0.00176269
0.00180981
0.00182167
0.00180555
0.00176434
0.00169911
0.00161194
0.00150805
0.00139728
0.00129992
0.00124464
0.00122043
0.00121142
0.00120846
0.00120778
0.00120839
0.00121123
0.00122011
0.00124435
0.00130044
0.00140025
0.00151477
0.00161963
0.00169615
0.00173216
0.00171843
0.00164263
0.00148214
0.0011888
0.000564151
0.000529058
0.00108549
0.001346
0.00149282
0.00157404
0.00161417
0.00162687
0.00161905
0.0015933
0.00154995
0.00148946
0.00141507
0.00133545
0.00126627
0.00122444
0.00120465
0.00119672
0.00119394
0.0011933
0.00119395
0.00119673
0.00120467
0.00122457
0.00126687
0.00133709
0.00141777
0.00149061
0.00154204
0.00156309
0.00154587
0.00147863
0.00133955
0.00108295
0.000528713
0.00046216
0.000888292
0.00108558
0.00119333
0.00125126
0.00127963
0.00128952
0.00128649
0.00127252
0.00124767
0.00121182
0.00116681
0.00111835
0.0010762
0.00104973
0.0010366
0.0010311
0.0010291
0.00102864
0.00102915
0.00103119
0.00103674
0.00104997
0.00107668
0.00111925
0.00116792
0.00121142
0.00124126
0.00125157
0.00123647
0.00118629
0.0010826
0.000887195
0.000462077
0.000354548
0.000462159
0.000529118
0.000565013
0.000583361
0.000591982
0.000595085
0.000594687
0.000591448
0.000585295
0.000576028
0.000563982
0.00055071
0.000539065
0.000531798
0.000528225
0.000526732
0.000526184
0.000526053
0.000526197
0.000526754
0.000528254
0.000531839
0.000539147
0.000550877
0.000564199
0.000575894
0.000583626
0.00058577
0.000580383
0.000563779
0.000528698
0.000462064
0.000354595
0.000391783
0.000551352
0.000651266
0.000706426
0.000735973
0.00075109
0.000758281
0.000761298
0.000762222
0.000762165
0.000761714
0.000761183
0.000760731
0.000760411
0.000760206
0.000760078
0.00076
0.000759963
0.000759962
0.000759998
0.000760072
0.000760191
0.000760369
0.000760615
0.000760867
0.000760882
0.000760084
0.000757312
0.000750406
0.000735545
0.000706191
0.000651156
0.000551315
0.000391796
0.000551354
0.00111422
0.00137278
0.00151839
0.00160041
0.0016447
0.00166688
0.00167655
0.00167948
0.00167902
0.00167713
0.00167495
0.00167308
0.00167174
0.00167088
0.00167034
0.00167002
0.00166987
0.00166987
0.00167002
0.00167032
0.00167082
0.00167158
0.00167261
0.00167368
0.00167394
0.00167147
0.00166272
0.00164166
0.0015984
0.00151719
0.00137213
0.00111391
0.000551314
0.000651307
0.00137289
0.00170522
0.00189772
0.00200965
0.00207188
0.00210361
0.00211717
0.00212038
0.00211817
0.00211368
0.00210893
0.00210502
0.00210231
0.00210063
0.00209961
0.00209901
0.00209873
0.00209873
0.00209901
0.00209958
0.00210053
0.00210201
0.00210418
0.00210673
0.00210833
0.00210597
0.00209435
0.00206504
0.00200511
0.00189501
0.00170379
0.00137226
0.000651208
0.000706517
0.0015186
0.00189785
0.00212194
0.00225484
0.00232967
0.00236739
0.00238188
0.00238244
0.00237542
0.00236544
0.0023557
0.00234805
0.00234298
0.00233996
0.00233814
0.00233707
0.00233657
0.00233657
0.00233707
0.00233811
0.00233982
0.00234255
0.00234685
0.00235262
0.00235808
0.00235906
0.00234843
0.00231557
0.00224542
0.00211627
0.00189482
0.00151725
0.000706271
0.000736115
0.00160074
0.00200998
0.0022551
0.00240191
0.00248419
0.00252353
0.00253451
0.00252745
0.00251031
0.00248977
0.00247104
0.002457
0.00244823
0.00244329
0.00244029
0.00243845
0.00243758
0.00243758
0.00243845
0.00244025
0.00244313
0.00244771
0.00245553
0.00246725
0.00248077
0.00249053
0.00248698
0.00245704
0.0023837
0.00224406
0.00200399
0.00159798
0.000735549
0.000751289
0.00164521
0.00207255
0.00233051
0.002485
0.00256943
0.00260497
0.00260604
0.00258356
0.00254755
0.00250827
0.00247464
0.00245081
0.00243709
0.00243004
0.00242545
0.00242246
0.00242102
0.00242102
0.00242247
0.00242542
0.00242988
0.00243654
0.0024492
0.00247041
0.00249814
0.00252525
0.00253826
0.00252028
0.00245221
0.0023106
0.00206163
0.00164005
0.000750128
0.00075856
0.0016677
0.00210498
0.0023695
0.00252634
0.00260763
0.00263303
0.0026156
0.00256602
0.00249704
0.00242617
0.00237054
0.0023341
0.00231565
0.00230767
0.00230129
0.00229672
0.0022945
0.00229451
0.00229673
0.00230127
0.00230754
0.00231515
0.00233254
0.00236622
0.00241548
0.00247312
0.00251731
0.00252396
0.00247131
0.00233629
0.0020867
0.0016589
0.000756445
0.00076171
0.00167795
0.00211984
0.00238648