/*--------------------------------*- C++ -*----------------------------------*\
| =========                 |                                                 |
| \\      /  F ield         | OpenFOAM: The Open Source CFD Toolbox           |
|  \\    /   O peration     | Version:  2112                                  |
|   \\  /    A nd           | Website:  www.openfoam.com                      |
|    \\/     M anipulation  |                                                 |
\*---------------------------------------------------------------------------*/
FoamFile
{
    version     2.0;
    format      ascii;
    arch        "LSB;label=32;scalar=64";
    class       volScalarField;
    location    "4";
    object      nut;
}
// * * * * * * * * * * * * * * * * * * * * * * * * * * * * * * * * * * * * * //

dimensions      [0 2 -1 0 0 0 0];

internalField   nonuniform List<scalar> 
64906
(
3.94053e-05
4.18205e-05
4.32879e-05
4.40163e-05
4.43598e-05
4.45147e-05
4.45805e-05
4.4606e-05
4.46138e-05
4.4614e-05
4.46113e-05
4.46078e-05
4.46054e-05
4.46035e-05
4.46021e-05
4.46008e-05
4.45998e-05
4.4599e-05
4.45987e-05
4.45992e-05
4.46001e-05
4.46012e-05
4.46024e-05
4.46039e-05
4.46053e-05
4.46055e-05
4.45992e-05
4.45758e-05
4.45119e-05
4.43585e-05
4.4016e-05
4.32884e-05
4.18216e-05
3.94064e-05
4.18224e-05
5.16911e-05
5.63835e-05
5.87235e-05
5.99209e-05
6.05185e-05
6.07988e-05
6.09159e-05
6.09528e-05
6.0953e-05
6.09389e-05
6.09223e-05
6.09086e-05
6.08995e-05
6.08942e-05
6.08912e-05
6.08895e-05
6.08886e-05
6.08886e-05
6.08895e-05
6.08912e-05
6.0894e-05
6.08984e-05
6.09049e-05
6.09114e-05
6.0909e-05
6.08761e-05
6.07677e-05
6.04978e-05
5.99095e-05
5.87192e-05
5.63836e-05
5.16932e-05
4.18252e-05
4.32925e-05
5.6386e-05
6.25002e-05
6.56272e-05
6.72875e-05
6.81495e-05
6.85667e-05
6.874e-05
6.87846e-05
6.87665e-05
6.87243e-05
6.86807e-05
6.86468e-05
6.86254e-05
6.86136e-05
6.86072e-05
6.86036e-05
6.8602e-05
6.86021e-05
6.86039e-05
6.86075e-05
6.86135e-05
6.86236e-05
6.86401e-05
6.86607e-05
6.86707e-05
6.86344e-05
6.84819e-05
6.80904e-05
6.72522e-05
6.56102e-05
6.2495e-05
5.63877e-05
4.32971e-05
4.40228e-05
5.87286e-05
6.56296e-05
6.9235e-05
7.11952e-05
7.22326e-05
7.27333e-05
7.29228e-05
7.29372e-05
7.28625e-05
7.27562e-05
7.26567e-05
7.25824e-05
7.25371e-05
7.25129e-05
7.24992e-05
7.24911e-05
7.24873e-05
7.24874e-05
7.24914e-05
7.24995e-05
7.25126e-05
7.25344e-05
7.25725e-05
7.26277e-05
7.26808e-05
7.26823e-05
7.25374e-05
7.20929e-05
7.11081e-05
6.91887e-05
6.56103e-05
5.87256e-05
4.40283e-05
4.43674e-05
5.99278e-05
6.72924e-05
7.11984e-05
7.33499e-05
7.44894e-05
7.50146e-05
7.51613e-05
7.50796e-05
7.48771e-05
7.46407e-05
7.4436e-05
7.42905e-05
7.42067e-05
7.41642e-05
7.41388e-05
7.41226e-05
7.41147e-05
7.41149e-05
7.41231e-05
7.41392e-05
7.41639e-05
7.42033e-05
7.42781e-05
7.44e-05
7.45478e-05
7.46585e-05
7.46037e-05
7.41945e-05
7.31626e-05
7.10942e-05
6.72439e-05
5.99134e-05
4.43726e-05
4.45228e-05
6.0527e-05
6.81578e-05
7.22415e-05
7.44974e-05
7.56674e-05
7.61442e-05
7.61602e-05
7.58723e-05
7.54173e-05
7.49371e-05
7.45557e-05
7.43019e-05
7.41694e-05
7.41094e-05
7.40684e-05
7.40393e-05
7.40247e-05
7.40249e-05
7.40398e-05
7.4069e-05
7.41092e-05
7.41659e-05
7.42884e-05
7.45157e-05
7.48327e-05
7.51714e-05
7.53412e-05
7.5095e-05
7.41334e-05
7.20353e-05
6.80568e-05
6.04905e-05
4.45257e-05
4.45889e-05
6.08093e-05
6.85811e-05
7.27543e-05
7.50427e-05
7.61719e-05
7.65118e-05
7.6271e-05
7.55972e-05
7.46675e-05
7.37481e-05
7.31195e-05
7.27459e-05
7.25838e-05
7.25291e-05
7.24725e-05
7.24259e-05
7.24023e-05
7.24026e-05
7.24266e-05
7.24734e-05
7.25295e-05
7.2581e-05
7.27333e-05
7.30793e-05
7.36389e-05
7.44054e-05
7.5029e-05
7.51381e-05
7.43942e-05
7.23866e-05
6.83968e-05
6.07363e-05
4.45867e-05
4.46146e-05
6.09302e-05
6.87659e-05
7.29681e-05
7.52333e-05
7.62566e-05
7.63614e-05
7.56934e-05
7.43397e-05
7.2503e-05
7.07491e-05
6.9942e-05
6.95905e-05
6.9513e-05
6.95362e-05
6.94761e-05
6.94145e-05
6.9384e-05
6.93843e-05
6.94154e-05
6.94774e-05
6.95373e-05
6.95118e-05
6.95809e-05
6.99065e-05
7.0643e-05
7.22346e-05
7.37472e-05
7.45137e-05
7.41722e-05
7.23743e-05
6.84663e-05
6.0806e-05
4.46041e-05
4.46232e-05
6.09744e-05
6.8831e-05
7.30267e-05
7.52347e-05
7.61074e-05
7.58923e-05
7.45981e-05
7.20861e-05
6.83387e-05
6.4571e-05
6.44847e-05
6.48799e-05
6.52248e-05
6.54594e-05
6.54425e-05
6.53955e-05
6.53718e-05
6.53721e-05
6.53965e-05
6.54442e-05
6.54614e-05
6.52258e-05
6.48757e-05
6.44607e-05
6.44806e-05
6.80747e-05
7.14767e-05
7.33828e-05
7.36526e-05
7.21628e-05
6.8397e-05
6.07905e-05
4.46018e-05
4.46247e-05
6.09862e-05
6.88451e-05
7.30225e-05
7.51685e-05
7.58909e-05
7.53398e-05
7.32898e-05
6.89688e-05
6.072e-05
5.00432e-05
5.5599e-05
5.9085e-05
6.04621e-05
6.1006e-05
6.11233e-05
6.11433e-05
6.11451e-05
6.11455e-05
6.11444e-05
6.11251e-05
6.10086e-05
6.04653e-05
5.90878e-05
5.55973e-05
5.00014e-05
6.04808e-05
6.83461e-05
7.20447e-05
7.30631e-05
7.19058e-05
6.82896e-05
6.07488e-05
4.45927e-05
4.4624e-05
6.09884e-05
6.88472e-05
7.30138e-05
7.51254e-05
7.57632e-05
7.50118e-05
7.24325e-05
6.63544e-05
5.0946e-05
4.69099e-05
5.43936e-05
5.67191e-05
5.74182e-05
5.76594e-05
5.77326e-05
5.77505e-05
5.77507e-05
5.77333e-05
5.76607e-05
5.74204e-05
5.67226e-05
5.43991e-05
4.69134e-05
5.08014e-05
6.57324e-05
7.11708e-05
7.27155e-05
7.17574e-05
6.82258e-05
6.07221e-05
4.45855e-05
4.46228e-05
6.09908e-05
6.8855e-05
7.30288e-05
7.5152e-05
7.5818e-05
7.51579e-05
7.29192e-05
6.82994e-05
5.96024e-05
4.89349e-05
5.25451e-05
5.55536e-05
5.66979e-05
5.69968e-05
5.72386e-05
5.73164e-05
5.73312e-05
5.73312e-05
5.73164e-05
5.72385e-05
5.69965e-05
5.66974e-05
5.55521e-05
5.25342e-05
4.88848e-05
5.93543e-05
6.76677e-05
7.16616e-05
7.28636e-05
7.18104e-05
6.82469e-05
6.07294e-05
4.45842e-05
4.46219e-05
6.09959e-05
6.88715e-05
7.30666e-05
7.52327e-05
7.59917e-05
7.55468e-05
7.38441e-05
7.0658e-05
6.5857e-05
6.06759e-05
5.87059e-05
5.77007e-05
5.7337e-05
5.71973e-05
5.72163e-05
5.72267e-05
5.72258e-05
5.72256e-05
5.7226e-05
5.72151e-05
5.7195e-05
5.73327e-05
5.76906e-05
5.86756e-05
6.05786e-05
6.55846e-05
7.00333e-05
7.26013e-05
7.32659e-05
7.1993e-05
6.83312e-05
6.0764e-05
4.45895e-05
4.46213e-05
6.10022e-05
6.88919e-05
7.31134e-05
7.53312e-05
7.61927e-05
7.59523e-05
7.46598e-05
7.22797e-05
6.88891e-05
6.50358e-05
6.17574e-05
5.92218e-05
5.7997e-05
5.75277e-05
5.73822e-05
5.7336e-05
5.73208e-05
5.73204e-05
5.73349e-05
5.73802e-05
5.75243e-05
5.79908e-05
5.92082e-05
6.17212e-05
6.49274e-05
6.86109e-05
7.16602e-05
7.34283e-05
7.36834e-05
7.22033e-05
6.84343e-05
6.08078e-05
4.45958e-05
4.46206e-05
6.1008e-05
6.89108e-05
7.3156e-05
7.54182e-05
7.63609e-05
7.62648e-05
7.52176e-05
7.32225e-05
7.03309e-05
6.6807e-05
6.31678e-05
6.00634e-05
5.84348e-05
5.77754e-05
5.75439e-05
5.74662e-05
5.74414e-05
5.74408e-05
5.74647e-05
5.75413e-05
5.77714e-05
5.84278e-05
6.00487e-05
6.31296e-05
6.6695e-05
7.00503e-05
7.26048e-05
7.39915e-05
7.40025e-05
7.23771e-05
6.85235e-05
6.08463e-05
4.46004e-05
4.46196e-05
6.10121e-05
6.8925e-05
7.31879e-05
7.54814e-05
7.64778e-05
7.64684e-05
7.55508e-05
7.37275e-05
7.10147e-05
6.75735e-05
6.38013e-05
6.04729e-05
5.86679e-05
5.79162e-05
5.7644e-05
5.75503e-05
5.75191e-05
5.75183e-05
5.75483e-05
5.7641e-05
5.79118e-05
5.86606e-05
6.04577e-05
6.37617e-05
6.74597e-05
7.07322e-05
7.31094e-05
7.4326e-05
7.42083e-05
7.24956e-05
6.85863e-05
6.08733e-05
4.46025e-05
4.46183e-05
6.10144e-05
6.89341e-05
7.32079e-05
7.55201e-05
7.65469e-05
7.65832e-05
7.57274e-05
7.39758e-05
7.1325e-05
6.79007e-05
6.40736e-05
6.0652e-05
5.87737e-05
5.79816e-05
5.76913e-05
5.75896e-05
5.75539e-05
5.75528e-05
5.75872e-05
5.76881e-05
5.7977e-05
5.87661e-05
6.06365e-05
6.40311e-05
6.77858e-05
7.10412e-05
7.33567e-05
7.45021e-05
7.4323e-05
7.25645e-05
6.86236e-05
6.08889e-05
4.46026e-05
4.4617e-05
6.10151e-05
6.89384e-05
7.32176e-05
7.55384e-05
7.65787e-05
7.66342e-05
7.58026e-05
7.40766e-05
7.14449e-05
6.80222e-05
6.41741e-05
6.0718e-05
5.88129e-05
5.80057e-05
5.77082e-05
5.76026e-05
5.75635e-05
5.75621e-05
5.75998e-05
5.77047e-05
5.80009e-05
5.88052e-05
6.07023e-05
6.4131e-05
6.79069e-05
7.11605e-05
7.34569e-05
7.45768e-05
7.43736e-05
7.25957e-05
6.86408e-05
6.08956e-05
4.46013e-05
4.46159e-05
6.10147e-05
6.89388e-05
7.32183e-05
7.55395e-05
7.65802e-05
7.66361e-05
7.58052e-05
7.40799e-05
7.14489e-05
6.80268e-05
6.41788e-05
6.07217e-05
5.88152e-05
5.80066e-05
5.7708e-05
5.76011e-05
5.75601e-05
5.75583e-05
5.75981e-05
5.77043e-05
5.80017e-05
5.88074e-05
6.07061e-05
6.41358e-05
6.79116e-05
7.11647e-05
7.34604e-05
7.45796e-05
7.43757e-05
7.25972e-05
6.86417e-05
6.08954e-05
4.45995e-05
4.46157e-05
6.10135e-05
6.89351e-05
7.321e-05
7.55232e-05
7.65513e-05
7.6589e-05
7.57351e-05
7.39857e-05
7.13373e-05
6.79151e-05
6.40886e-05
6.06637e-05
5.87809e-05
5.79848e-05
5.76911e-05
5.75857e-05
5.75448e-05
5.75429e-05
5.75824e-05
5.76873e-05
5.79798e-05
5.87732e-05
6.06483e-05
6.40463e-05
6.78009e-05
7.10543e-05
7.33673e-05
7.45104e-05
7.43293e-05
7.2569e-05
6.86263e-05
6.08887e-05
4.45983e-05
4.46163e-05
6.10112e-05
6.89267e-05
7.31911e-05
7.54862e-05
7.64846e-05
7.64779e-05
7.55637e-05
7.37447e-05
7.10365e-05
6.75997e-05
6.38277e-05
6.04942e-05
5.86814e-05
5.79226e-05
5.76446e-05
5.75451e-05
5.75073e-05
5.75056e-05
5.75418e-05
5.76408e-05
5.79177e-05
5.86741e-05
6.04797e-05
6.37877e-05
6.74876e-05
7.07557e-05
7.31278e-05
7.43398e-05
7.42184e-05
7.25028e-05
6.85908e-05
6.08735e-05
4.45974e-05
4.46171e-05
6.10072e-05
6.89127e-05
7.31598e-05
7.54239e-05
7.63693e-05
7.6277e-05
7.52352e-05
7.32474e-05
7.03647e-05
6.68498e-05
6.32079e-05
6.00969e-05
5.84554e-05
5.77852e-05
5.75453e-05
5.74602e-05
5.7429e-05
5.74277e-05
5.74572e-05
5.75416e-05
5.77806e-05
5.84488e-05
6.00839e-05
6.31723e-05
6.67414e-05
7.00869e-05
7.26314e-05
7.40099e-05
7.40154e-05
7.2386e-05
6.85291e-05
6.08472e-05
4.45949e-05
4.46178e-05
6.1001e-05
6.8893e-05
7.31158e-05
7.53353e-05
7.61996e-05
7.59641e-05
7.46795e-05
7.23118e-05
6.89388e-05
6.5103e-05
6.18204e-05
5.92661e-05
5.80184e-05
5.7533e-05
5.73757e-05
5.73213e-05
5.73008e-05
5.72998e-05
5.73187e-05
5.73722e-05
5.75286e-05
5.80124e-05
5.92554e-05
6.17902e-05
6.50015e-05
6.86651e-05
7.16934e-05
7.34474e-05
7.36949e-05
7.22109e-05
6.84392e-05
6.08086e-05
4.45901e-05
4.46181e-05
6.09926e-05
6.88682e-05
7.30625e-05
7.52285e-05
7.59891e-05
7.55488e-05
7.38563e-05
7.06905e-05
6.59232e-05
6.078e-05
5.87978e-05
5.77284e-05
5.73206e-05
5.71555e-05
5.71573e-05
5.71586e-05
5.71534e-05
5.71526e-05
5.71561e-05
5.7153e-05
5.71487e-05
5.73113e-05
5.77174e-05
5.87778e-05
6.06948e-05
6.56567e-05
7.00615e-05
7.26068e-05
7.32641e-05
7.19908e-05
6.83302e-05
6.07621e-05
4.45832e-05
4.46178e-05
6.09807e-05
6.88388e-05
7.30058e-05
7.51236e-05
7.57866e-05
7.51276e-05
7.28987e-05
6.83083e-05
5.96809e-05
4.90055e-05
5.25652e-05
5.54196e-05
5.64836e-05
5.67333e-05
5.69498e-05
5.70179e-05
5.70287e-05
5.70275e-05
5.70136e-05
5.694e-05
5.67131e-05
5.64506e-05
5.53813e-05
5.25495e-05
4.89563e-05
5.9435e-05
6.7651e-05
7.16154e-05
7.28197e-05
7.17787e-05
6.82277e-05
6.07186e-05
4.45764e-05
4.46157e-05
6.09595e-05
6.87974e-05
7.29437e-05
7.50375e-05
7.56599e-05
7.4895e-05
7.23051e-05
6.62331e-05
5.08817e-05
4.65187e-05
5.36406e-05
5.57769e-05
5.6344e-05
5.65398e-05
5.66004e-05
5.66137e-05
5.66105e-05
5.6588e-05
5.65082e-05
5.62729e-05
5.56419e-05
5.34369e-05
4.63504e-05
5.06557e-05
6.55037e-05
7.0967e-05
7.25635e-05
7.1654e-05
6.81618e-05
6.06881e-05
4.45738e-05
4.46072e-05
6.09106e-05
6.87168e-05
7.28465e-05
7.49509e-05
7.56352e-05
7.50435e-05
7.29416e-05
6.85517e-05
6.02269e-05
4.95486e-05
5.40663e-05
5.69857e-05
5.78291e-05
5.79983e-05
5.80272e-05
5.80362e-05
5.8037e-05
5.80309e-05
5.80108e-05
5.79552e-05
5.78186e-05
5.74455e-05
5.63267e-05
5.3324e-05
4.91132e-05
5.95743e-05
6.76336e-05
7.15264e-05
7.26991e-05
7.16572e-05
6.81298e-05
6.06617e-05
4.45698e-05
4.45824e-05
6.07907e-05
6.85318e-05
7.26296e-05
7.47541e-05
7.55499e-05
7.52466e-05
7.3822e-05
7.10876e-05
6.69449e-05
6.25042e-05
6.13275e-05
6.05446e-05
5.96631e-05
5.91541e-05
5.89459e-05
5.88767e-05
5.88551e-05
5.88461e-05
5.88366e-05
5.88228e-05
5.88199e-05
5.88815e-05
5.91029e-05
5.97137e-05
6.11061e-05
6.57559e-05
6.99133e-05
7.23152e-05
7.29093e-05
7.16417e-05
6.80454e-05
6.05882e-05
4.45546e-05
4.45177e-05
6.05137e-05
6.81198e-05
7.21398e-05
7.42574e-05
7.51503e-05
7.51107e-05
7.42306e-05
7.25114e-05
7.00293e-05
6.72077e-05
6.48381e-05
6.25317e-05
6.0449e-05
5.93931e-05
5.89845e-05
5.88488e-05
5.88082e-05
5.87971e-05
5.87981e-05
5.88212e-05
5.89246e-05
5.92829e-05
6.02885e-05
6.24508e-05
6.51878e-05
6.84449e-05
7.11407e-05
7.26761e-05
7.28312e-05
7.13789e-05
6.77515e-05
6.03658e-05
4.45002e-05
4.43642e-05
5.99218e-05
6.72707e-05
7.11313e-05
7.31812e-05
7.41151e-05
7.42577e-05
7.37473e-05
7.26264e-05
7.09298e-05
6.87741e-05
6.63569e-05
6.37369e-05
6.13415e-05
6.01036e-05
5.96109e-05
5.94423e-05
5.93911e-05
5.9379e-05
5.93862e-05
5.94297e-05
5.9586e-05
6.00655e-05
6.13097e-05
6.37819e-05
6.65993e-05
6.92452e-05
7.12322e-05
7.22548e-05
7.2127e-05
7.05827e-05
6.7015e-05
5.98254e-05
4.43555e-05
4.40213e-05
5.87296e-05
6.56239e-05
6.92027e-05
7.1098e-05
7.19983e-05
7.22373e-05
7.19674e-05
7.12383e-05
7.00552e-05
6.84354e-05
6.64535e-05
6.42726e-05
6.23044e-05
6.11989e-05
6.07243e-05
6.05495e-05
6.04933e-05
6.04806e-05
6.04913e-05
6.05448e-05
6.07158e-05
6.11888e-05
6.2301e-05
6.43122e-05
6.65666e-05
6.85822e-05
7.0019e-05
7.06701e-05
7.03694e-05
6.88398e-05
6.54653e-05
5.86762e-05
4.40193e-05
4.32927e-05
5.63927e-05
6.2507e-05
6.56227e-05
6.72488e-05
6.80321e-05
6.82902e-05
6.81721e-05
6.77256e-05
6.69486e-05
6.58342e-05
6.4426e-05
6.28785e-05
6.15062e-05
6.06822e-05
6.02984e-05
6.015e-05
6.01011e-05
6.00901e-05
6.01003e-05
6.01481e-05
6.02951e-05
6.06789e-05
6.15091e-05
6.28994e-05
6.44682e-05
6.58552e-05
6.68105e-05
6.71767e-05
6.68017e-05
6.54148e-05
6.2426e-05
5.63715e-05
4.32957e-05
4.1825e-05
5.17e-05
5.63974e-05
5.87376e-05
5.99241e-05
6.04883e-05
6.06921e-05
6.06589e-05
6.04303e-05
6.00017e-05
5.93588e-05
5.85247e-05
5.76029e-05
5.67855e-05
5.62733e-05
5.60222e-05
5.59201e-05
5.58847e-05
5.58766e-05
5.58849e-05
5.59204e-05
5.60224e-05
5.6274e-05
5.67891e-05
5.76131e-05
5.85395e-05
5.93493e-05
5.98848e-05
6.00438e-05
5.97086e-05
5.86498e-05
5.63718e-05
5.1699e-05
4.183e-05
3.94084e-05
4.18291e-05
4.33033e-05
4.40377e-05
4.43857e-05
4.45419e-05
4.46017e-05
4.4607e-05
4.45696e-05
4.44856e-05
4.43549e-05
4.41758e-05
4.39676e-05
4.37763e-05
4.36537e-05
4.35911e-05
4.35627e-05
4.35496e-05
4.35452e-05
4.35502e-05
4.35633e-05
4.35914e-05
4.36536e-05
4.3776e-05
4.39677e-05
4.41761e-05
4.43503e-05
4.44611e-05
4.44803e-05
4.43683e-05
4.40403e-05
4.3312e-05
4.18367e-05
3.94129e-05
6.12165e-05
7.00189e-05
7.50051e-05
7.75731e-05
7.88799e-05
7.95221e-05
7.98182e-05
7.99399e-05
7.99775e-05
7.99769e-05
7.99615e-05
7.9943e-05
7.99272e-05
7.99159e-05
7.99086e-05
7.99038e-05
7.99007e-05
7.98991e-05
7.9899e-05
7.99004e-05
7.99032e-05
7.99076e-05
7.99141e-05
7.99227e-05
7.99311e-05
7.99302e-05
7.98972e-05
7.97845e-05
7.94987e-05
7.88657e-05
7.75659e-05
7.50023e-05
7.00186e-05
6.12177e-05
7.00195e-05
0.000206562
0.000257139
0.000281844
0.000295054
0.0003021
0.000305636
0.000307181
0.000307642
0.000307554
0.000307234
0.000306866
0.000306553
0.000306327
0.000306182
0.000306091
0.000306036
0.000306011
0.000306011
0.000306037
0.000306089
0.000306175
0.000306303
0.00030648
0.000306666
0.000306724
0.00030634
0.00030495
0.000301597
0.000294718
0.000281634
0.00025701
0.000206481
7.00194e-05
7.50082e-05
0.000257166
0.000328613
0.000364475
0.000384118
0.000394847
0.00040032
0.000402668
0.000403215
0.000402808
0.000401998
0.000401139
0.000400434
0.000399947
0.000399646
0.000399463
0.000399357
0.000399307
0.000399307
0.000399357
0.000399461
0.000399632
0.000399898
0.000400289
0.000400756
0.000401058
0.000400667
0.000398669
0.000393625
0.000383299
0.000363974
0.000328327
0.000257016
7.50071e-05
7.7579e-05
0.000281891
0.0003645
0.000406839
0.000430422
0.000443428
0.000449971
0.000452485
0.000452552
0.000451268
0.000449442
0.000447654
0.000446243
0.000445312
0.00044476
0.000444425
0.000444225
0.000444132
0.000444132
0.000444226
0.000444421
0.000444739
0.000445239
0.000446034
0.000447108
0.000448133
0.000448362
0.000446552
0.000440882
0.000428706
0.000405788
0.000363915
0.000281612
7.75735e-05
7.88881e-05
0.000295118
0.000384174
0.000430466
0.000456469
0.000470718
0.000477494
0.000479356
0.000478045
0.000474919
0.000471149
0.000467688
0.000465073
0.000463446
0.00046254
0.000461969
0.000461614
0.000461445
0.000461446
0.000461615
0.000461964
0.000462514
0.000463357
0.000464815
0.000467017
0.000469549
0.00047141
0.000470917
0.000465826
0.000453167
0.000428436
0.000383049
0.000294601
7.8872e-05
7.95328e-05
0.000302188
0.000394962
0.000443573
0.00047086
0.000485413
0.000491471
0.000491551
0.000487463
0.000480881
0.000473628
0.000467414
0.000462943
0.000460394
0.000459116
0.00045821
0.000457607
0.000457318
0.000457319
0.000457608
0.000458207
0.000459091
0.000460301
0.000462664
0.000466672
0.000471837
0.000476939
0.000479501
0.000476605
0.000464952
0.000439945
0.000392949
0.000301271
7.94955e-05
7.98318e-05
0.000305771
0.000400555
0.000450344
0.000478
0.000491955
0.000496197
0.000492956
0.000483895
0.00047107
0.000457727
0.000447676
0.000440882
0.000437513
0.000436172
0.000434808
0.000433827
0.00043337
0.000433371
0.00043383
0.000434808
0.000436152
0.00043743
0.000440616
0.000446932
0.000455862
0.000466866
0.00047535
0.000476992
0.000468135
0.000444336
0.000397224
0.000304251
7.97593e-05
7.99578e-05
0.000307407
0.000403134
0.00045331
0.00048063
0.000493185
0.000494427
0.000485827
0.000468207
0.000443632
0.000418752
0.000406192
0.000398404
0.000395452
0.000395115
0.000393142
0.000391688
0.000391061
0.000391063
0.000391691
0.000393145
0.000395104
0.000395391
0.000398188
0.000405533
0.000416966
0.000439346
0.00045928
0.000469131
0.000465278
0.000444128
0.000398072
0.000305088
7.98357e-05
8.00024e-05
0.000308027
0.000404079
0.000454168
0.000480716
0.000491324
0.000488538
0.000472108
0.000439748
0.000389679
0.000333646
0.000336576
0.000336959
0.000338319
0.000341012
0.000338403
0.000336693
0.000336065
0.000336067
0.000336696
0.000338406
0.000341011
0.000338287
0.000336827
0.000336117
0.000332248
0.00038558
0.000430604
0.000454866
0.000458605
0.000441304
0.000397068
0.000304809
7.98224e-05
8.00129e-05
0.000308181
0.000404277
0.000454103
0.000479806
0.000488446
0.000481351
0.000455092
0.000398102
0.000281696
9.38394e-05
0.000221962
0.000264329
0.000277016
0.000284021
0.000281557
0.000280367
0.000280041
0.000280042
0.00028037
0.000281562
0.000284028
0.000277013
0.000264301
0.000221911
9.36431e-05
0.000278428
0.000388954
0.000437454
0.000450864
0.000437802
0.000395512
0.000304158
7.97802e-05
8.00128e-05
0.000308185
0.000404268
0.000453912
0.000479091
0.000486527
0.000476637
0.0004426
0.000355499
9.68017e-05
8.31008e-05
0.000208051
0.000232546
0.000237436
0.000240232
0.000241185
0.000241406
0.000241408
0.000241189
0.000240239
0.000237445
0.000232557
0.000208063
8.30999e-05
9.61745e-05
0.000346748
0.000424784
0.000445865
0.000435565
0.000394472
0.000303681
7.97503e-05
8.00122e-05
0.000308187
0.000404326
0.000454006
0.000479217
0.000486819
0.000477885
0.000448735
0.000387773
0.000267438
8.97125e-05
0.00018499
0.000211837
0.00021658
0.000211207
0.000219792
0.000222773
0.000223355
0.000223356
0.000222775
0.000219796
0.000211204
0.000216572
0.000211813
0.000184907
8.94996e-05
0.000264139
0.000378515
0.000430926
0.000447136
0.000435829
0.000394516
0.000303643
7.9752e-05
8.0014e-05
0.000308238
0.000404513
0.000454416
0.000480057
0.000488606
0.000482033
0.000459363
0.000417547
0.000354309
0.000282681
0.000259802
0.00023841
0.000229952
0.00022532
0.00022727
0.000228254
0.000228479
0.000228479
0.000228253
0.000227266
0.000225304
0.000229915
0.000238301
0.000259419
0.000281351
0.000350184
0.000408217
0.000441717
0.000451465
0.000437748
0.000395413
0.000304002
7.978e-05
8.00171e-05
0.000308321
0.000404773
0.000454982
0.000481184
0.000490812
0.000486404
0.000468238
0.00043577
0.000389952
0.000337669
0.000292811
0.000254469
0.000238577
0.000232833
0.0002317
0.000231527
0.000231497
0.000231497
0.000231526
0.000231695
0.000232818
0.000238533
0.000254326
0.000292308
0.000336048
0.000385641
0.000426472
0.000450745
0.000456018
0.000440107
0.000396625
0.000304531
7.98174e-05
8.00201e-05
0.000308409
0.000405032
0.000455532
0.00048224
0.000492748
0.000489855
0.000474257
0.000445896
0.000405556
0.00035698
0.00030703
0.000262442
0.000242896
0.000235827
0.000233678
0.000233104
0.000232976
0.000232976
0.000233105
0.000233675
0.000235815
0.000242851
0.000262289
0.000306494
0.000355279
0.000401192
0.000436625
0.000456857
0.000459588
0.000442149
0.00039774
0.000305036
7.98502e-05
8.00219e-05
0.000308481
0.000405239
0.000455963
0.000483046
0.000494154
0.000492183
0.00047792
0.000451301
0.000412747
0.000364882
0.000313275
0.000266252
0.000245051
0.000237212
0.000234687
0.000233978
0.000233818
0.000233819
0.000233979
0.000234686
0.000237201
0.000245007
0.000266098
0.000312732
0.000363152
0.000408358
0.000442035
0.000460558
0.000461971
0.000443606
0.000398566
0.000305417
7.98727e-05
8.00223e-05
0.000308528
0.000405375
0.000456245
0.00048356
0.000495021
0.000493549
0.000479927
0.000454019
0.000416042
0.000368246
0.000315939
0.000267957
0.000246049
0.000237851
0.000235174
0.000234416
0.000234247
0.000234248
0.000234418
0.000235173
0.000237841
0.000246005
0.000267804
0.000315413
0.000366502
0.000411638
0.000444747
0.000462572
0.000463353
0.000444488
0.000399077
0.000305654
7.9885e-05
8.00219e-05
0.000308551
0.000405441
0.000456381
0.000483806
0.000495427
0.000494169
0.000480802
0.000455147
0.000417336
0.000369507
0.000316926
0.000268601
0.000246428
0.000238092
0.000235359
0.000234584
0.000234412
0.000234414
0.000234586
0.000235358
0.000238082
0.000246384
0.000268447
0.000316396
0.000367756
0.000412923
0.000445869
0.000463445
0.000463975
0.000444895
0.000399316
0.000305765
7.98895e-05
8.0021e-05
0.000308552
0.000405443
0.000456385
0.000483811
0.000495435
0.00049418
0.000480816
0.000455164
0.000417356
0.000369527
0.000316946
0.000268626
0.000246444
0.0002381
0.000235363
0.000234588
0.000234417
0.000234419
0.000234591
0.000235363
0.00023809
0.0002464
0.000268472
0.000316414
0.000367776
0.000412942
0.000445885
0.000463459
0.000463986
0.000444902
0.00039932
0.000305766
7.98884e-05
8.002e-05
0.000308529
0.00040538
0.000456254
0.000483575
0.000495042
0.000493578
0.000479966
0.000454069
0.000416101
0.000368308
0.000316003
0.000268038
0.000246101
0.000237881
0.000235195
0.000234436
0.000234268
0.00023427
0.000234439
0.000235195
0.000237872
0.00024606
0.000267887
0.000315476
0.000366565
0.000411697
0.000444797
0.000462611
0.000463383
0.000444508
0.000399089
0.000305658
7.98821e-05
8.00187e-05
0.00030848
0.000405244
0.000455974
0.000483063
0.000494181
0.000492224
0.000477979
0.000451382
0.00041285
0.000365
0.000313403
0.000266407
0.00024516
0.000237285
0.000234745
0.000234035
0.000233878
0.00023388
0.000234039
0.000234748
0.000237279
0.000245123
0.000266265
0.000312887
0.000363274
0.000408462
0.000442115
0.000460614
0.00046201
0.000443632
0.00039858
0.00030542
7.98689e-05
8.00163e-05
0.000308402
0.000405027
0.000455529
0.000482241
0.000492758
0.000489884
0.000474316
0.000445999
0.000405713
0.000357185
0.000307299
0.000262707
0.000243085
0.000235969
0.000233798
0.000233222
0.000233099
0.000233102
0.000233229
0.000233806
0.00023597
0.000243056
0.000262577
0.000306788
0.000355494
0.00040135
0.00043672
0.000456903
0.000459607
0.000442157
0.000397743
0.000305032
7.98457e-05
8.00123e-05
0.000308294
0.000404733
0.000454928
0.000481119
0.000490746
0.000486357
0.000468239
0.000435862
0.000390173
0.000338019
0.000293255
0.000254842
0.000238821
0.000233024
0.000231845
0.000231665
0.000231641
0.000231645
0.000231676
0.000231859
0.000233031
0.0002388
0.000254732
0.000292801
0.000336423
0.000385866
0.000426528
0.000450698
0.000455938
0.000440036
0.000396576
0.000304498
7.98116e-05
8.00065e-05
0.000308158
0.000404374
0.000454217
0.000479805
0.00048832
0.000481749
0.000459149
0.000417517
0.000354606
0.00028326
0.000260438
0.000238643
0.000229898
0.000225181
0.00022701
0.000227974
0.000228206
0.000228211
0.000227986
0.000227022
0.000225171
0.000229848
0.000238531
0.000260122
0.000281991
0.000350506
0.000408064
0.000441345
0.000451081
0.000437447
0.000395214
0.000303892
7.97704e-05
7.99972e-05
0.000307973
0.000403938
0.00045345
0.000478509
0.000485988
0.000476987
0.00044789
0.00038726
0.000267846
8.98327e-05
0.000185153
0.000210415
0.00021437
0.000208603
0.00021699
0.000219961
0.000220554
0.000220552
0.000219947
0.000216936
0.000208432
0.000214059
0.000210032
0.000185133
8.96163e-05
0.000264606
0.000377609
0.000429634
0.000445976
0.000434964
0.000393954
0.000303344
7.97321e-05
7.99781e-05
0.000307649
0.000403307
0.000452558
0.000477379
0.000484491
0.000474323
0.000440132
0.000353367
9.64393e-05
8.1754e-05
0.000200327
0.000222624
0.000226134
0.000228742
0.000229763
0.000230029
0.000230009
0.000229672
0.00022847
0.000225451
0.000221277
0.000198369
8.11981e-05
9.55157e-05
0.000343257
0.000421157
0.000442955
0.000433478
0.000393119
0.000302962
7.97056e-05
7.99294e-05
0.000306928
0.000402091
0.000451102
0.000476069
0.000484005
0.000476158
0.000449038
0.000391211
0.000274912
9.16767e-05
0.000204062
0.000240068
0.000246919
0.00024972
0.000247316
0.00024652
0.000246376
0.000246323
0.000246281
0.00024659
0.00024783
0.000242724
0.000232538
0.000196212
9.00986e-05
0.000266911
0.000377931
0.000428809
0.000444532
0.000433362
0.000392599
0.000302575
7.96794e-05
7.98052e-05
0.000305281
0.000399464
0.000448018
0.000473225
0.000482535
0.000478254
0.000459757
0.000424248
0.00036928
0.000305901
0.000295172
0.000281872
0.000267851
0.000261554
0.000258292
0.000257173
0.000256868
0.00025678
0.000256767
0.000256993
0.00025786
0.000258576
0.000263037
0.000274533
0.000288228
0.00035273
0.000407008
0.000438084
0.000446646
0.000432831
0.000391333
0.000301575
7.95998e-05
7.95121e-05
0.00030176
0.000394004
0.000441515
0.000466623
0.000477117
0.000476004
0.000464057
0.000441046
0.000407561
0.00036859
0.000335566
0.000301738
0.000269503
0.000256249
0.000251542
0.000250045
0.000249613
0.000249504
0.000249533
0.000249845
0.000251112
0.000255239
0.000268373
0.000301988
0.000340278
0.000384625
0.000420724
0.000441582
0.000445129
0.000429256
0.000387509
0.000298836
7.93593e-05
7.88745e-05
0.000294784
0.000383443
0.000428877
0.000453156
0.000464183
0.000465304
0.00045782
0.000442046
0.000418243
0.000387742
0.000353192
0.000315238
0.000278934
0.000263466
0.000257904
0.000256081
0.000255534
0.000255408
0.000255491
0.000255975
0.000257704
0.00026317
0.000278886
0.000316388
0.000356586
0.000393573
0.000421279
0.000436164
0.000436431
0.000419514
0.000378594
0.000292645
7.87718e-05
7.75721e-05
0.000281653
0.000364009
0.000405761
0.000428123
0.000438797
0.000441185
0.000436756
0.000425942
0.000408753
0.000385451
0.000357187
0.000326347
0.000298706
0.000284885
0.000279264
0.000277246
0.000276594
0.000276442
0.000276579
0.000277208
0.000279203
0.000284849
0.000298915
0.00032715
0.000358805
0.000387171
0.000407717
0.000417866
0.000415911
0.00039912
0.000360681
0.000280221
7.75111e-05
7.5007e-05
0.000257009
0.000328325
0.000363847
0.000382738
0.000391976
0.00039471
0.000392365
0.000385399
0.000373797
0.000357609
0.000337635
0.000316116
0.000297384
0.000286803
0.000282021
0.000280137
0.000279478
0.000279323
0.000279483
0.000280146
0.00028204
0.000286863
0.000297577
0.000316565
0.000338295
0.000357798
0.000371666
0.000377852
0.000374733
0.000359655
0.000326315
0.000256168
7.49774e-05
7.00219e-05
0.000206471
0.000257008
0.00028157
0.00029443
0.000300739
0.000302856
0.000301879
0.00029818
0.000291753
0.0002826
0.000271198
0.000258967
0.000248367
0.000241908
0.000238759
0.000237441
0.000236958
0.000236845
0.000236972
0.000237469
0.000238805
0.000241986
0.000248516
0.000259223
0.000271492
0.000282491
0.000290164
0.000293175
0.000290309
0.000279521
0.000256084
0.0002061
7.00136e-05
6.12202e-05
7.00218e-05
7.50112e-05
7.75789e-05
7.88746e-05
7.94831e-05
7.97015e-05
7.96689e-05
7.9431e-05
7.89824e-05
7.83091e-05
7.74337e-05
7.6465e-05
7.56087e-05
7.5069e-05
7.48014e-05
7.46887e-05
7.46472e-05
7.46373e-05
7.46482e-05
7.46904e-05
7.48036e-05
7.50722e-05
7.5615e-05
7.64776e-05
7.74491e-05
7.82972e-05
7.88577e-05
7.90187e-05
7.86466e-05
7.74806e-05
7.49754e-05
7.00125e-05
6.12242e-05
6.43994e-05
7.6553e-05
8.33014e-05
8.6834e-05
8.86906e-05
8.96389e-05
9.00932e-05
9.02857e-05
9.03452e-05
9.03412e-05
9.03112e-05
9.02757e-05
9.02454e-05
9.02238e-05
9.021e-05
9.02014e-05
9.01962e-05
9.01936e-05
9.01936e-05
9.0196e-05
9.02009e-05
9.02089e-05
9.02209e-05
9.02374e-05
9.02541e-05
9.02553e-05
9.0204e-05
9.00275e-05
8.95918e-05
8.86606e-05
8.6817e-05
8.32929e-05
7.65498e-05
6.44004e-05
7.65532e-05
0.000272819
0.000351368
0.000390544
0.000411851
0.00042344
0.000429378
0.000432015
0.000432786
0.000432575
0.000431934
0.000431198
0.000430565
0.000430104
0.000429802
0.000429612
0.000429499
0.000429446
0.000429445
0.000429497
0.000429606
0.000429783
0.000430047
0.000430409
0.000430793
0.000430947
0.000430326
0.000427986
0.0004224
0.000411136
0.000390083
0.00035108
0.000272651
7.65497e-05
8.33042e-05
0.000351414
0.000469745
0.000530813
0.000564742
0.000583517
0.000593215
0.000597398
0.000598319
0.000597455
0.00059581
0.000594057
0.000592601
0.000591585
0.000590949
0.000590559
0.00059033
0.000590224
0.000590224
0.000590328
0.000590549
0.000590912
0.000591472
0.000592291
0.00059327
0.000593948
0.000593351
0.000589858
0.000581
0.000563018
0.000529725
0.000469105
0.00035109
8.32961e-05
8.68399e-05
0.000390626
0.000530863
0.000604952
0.000646758
0.000670037
0.000681835
0.000686349
0.000686335
0.000683747
0.00068007
0.000676424
0.000673514
0.000671581
0.000670428
0.000669718
0.000669293
0.000669095
0.000669095
0.000669291
0.000669703
0.000670375
0.000671417
0.000673067
0.000675302
0.000677464
0.000678122
0.000675008
0.000664912
0.000643248
0.000602748
0.0005296
0.000390033
8.68214e-05
8.86997e-05
0.000411968
0.000564858
0.000646852
0.000693476
0.000719217