/*--------------------------------*- C++ -*----------------------------------*\
| =========                 |                                                 |
| \\      /  F ield         | OpenFOAM: The Open Source CFD Toolbox           |
|  \\    /   O peration     | Version:  2112                                  |
|   \\  /    A nd           | Website:  www.openfoam.com                      |
|    \\/     M anipulation  |                                                 |
\*---------------------------------------------------------------------------*/
FoamFile
{
    version     2.0;
    format      ascii;
    arch        "LSB;label=32;scalar=64";
    class       volScalarField;
    location    "4";
    object      p;
}
// * * * * * * * * * * * * * * * * * * * * * * * * * * * * * * * * * * * * * //

dimensions      [0 2 -2 0 0 0 0];

internalField   nonuniform List<scalar> 
64906
(
-4.95343e-06
-4.93701e-06
-4.9234e-06
-4.92343e-06
-4.94544e-06
-4.99278e-06
-5.06066e-06
-5.15208e-06
-5.26629e-06
-5.40091e-06
-5.55054e-06
-5.71427e-06
-5.87094e-06
-6.0081e-06
-6.12605e-06
-6.2222e-06
-6.29366e-06
-6.33903e-06
-6.35765e-06
-6.34964e-06
-6.31602e-06
-6.25834e-06
-6.1794e-06
-6.08042e-06
-5.95551e-06
-5.84576e-06
-5.745e-06
-5.65877e-06
-5.59265e-06
-5.54517e-06
-5.52418e-06
-5.52707e-06
-5.5434e-06
-5.56126e-06
-4.89933e-06
-4.83355e-06
-4.78177e-06
-4.74372e-06
-4.73001e-06
-4.74019e-06
-4.7719e-06
-4.82327e-06
-4.89096e-06
-4.97133e-06
-5.05659e-06
-5.13831e-06
-5.21984e-06
-5.30249e-06
-5.37425e-06
-5.43378e-06
-5.47936e-06
-5.51088e-06
-5.52811e-06
-5.53117e-06
-5.5206e-06
-5.4968e-06
-5.46205e-06
-5.41923e-06
-5.38692e-06
-5.33904e-06
-5.29625e-06
-5.2621e-06
-5.24415e-06
-5.24671e-06
-5.27521e-06
-5.33157e-06
-5.40453e-06
-5.48731e-06
-4.87157e-06
-4.7707e-06
-4.67265e-06
-4.58894e-06
-4.53689e-06
-4.51551e-06
-4.52223e-06
-4.55455e-06
-4.60855e-06
-4.68145e-06
-4.76308e-06
-4.84941e-06
-4.92688e-06
-4.99744e-06
-5.05429e-06
-5.10035e-06
-5.13531e-06
-5.1607e-06
-5.17684e-06
-5.18384e-06
-5.18172e-06
-5.16922e-06
-5.14722e-06
-5.11349e-06
-5.07595e-06
-5.02872e-06
-4.991e-06
-4.96777e-06
-4.97147e-06
-5.00735e-06
-5.08153e-06
-5.19753e-06
-5.32986e-06
-5.46108e-06
-4.87177e-06
-4.73786e-06
-4.5968e-06
-4.46966e-06
-4.38421e-06
-4.34058e-06
-4.33771e-06
-4.37513e-06
-4.45035e-06
-4.56347e-06
-4.69854e-06
-4.8498e-06
-4.97638e-06
-5.08183e-06
-5.15753e-06
-5.21428e-06
-5.25378e-06
-5.28054e-06
-5.29562e-06
-5.29911e-06
-5.29025e-06
-5.26476e-06
-5.22155e-06
-5.15032e-06
-5.0609e-06
-4.94973e-06
-4.86169e-06
-4.80435e-06
-4.79795e-06
-4.84613e-06
-4.95341e-06
-5.12239e-06
-5.30869e-06
-5.48453e-06
-4.91426e-06
-4.75204e-06
-4.57638e-06
-4.41658e-06
-4.31084e-06
-4.26263e-06
-4.27477e-06
-4.35218e-06
-4.49732e-06
-4.71826e-06
-4.99062e-06
-5.30718e-06
-5.56081e-06
-5.76203e-06
-5.89847e-06
-5.99629e-06
-6.05966e-06
-6.09757e-06
-6.11193e-06
-6.10276e-06
-6.0684e-06
-5.99999e-06
-5.89413e-06
-5.72518e-06
-5.50765e-06
-5.23178e-06
-5.01097e-06
-4.85341e-06
-4.78966e-06
-4.81645e-06
-4.93347e-06
-5.13591e-06
-5.36446e-06
-5.57746e-06
-5.00151e-06
-4.8122e-06
-4.60757e-06
-4.42513e-06
-4.31226e-06
-4.27748e-06
-4.32913e-06
-4.48082e-06
-4.74449e-06
-5.1452e-06
-5.65359e-06
-6.28114e-06
-6.75293e-06
-7.11404e-06
-7.35102e-06
-7.51943e-06
-7.62535e-06
-7.68407e-06
-7.69809e-06
-7.66735e-06
-7.58948e-06
-7.44908e-06
-7.24102e-06
-6.91028e-06
-6.47391e-06
-5.887e-06
-5.43656e-06
-5.10743e-06
-4.9382e-06
-4.90987e-06
-5.0135e-06
-5.23252e-06
-5.49497e-06
-5.74397e-06
-5.13317e-06
-4.91375e-06
-4.6826e-06
-4.48472e-06
-4.37603e-06
-4.37025e-06
-4.48166e-06
-4.73427e-06
-5.15413e-06
-5.80216e-06
-6.63373e-06
-7.81272e-06
-8.59088e-06
-9.16543e-06
-9.5297e-06
-9.78975e-06
-9.95109e-06
-1.00376e-05
-1.00518e-05
-9.99325e-06
-9.85967e-06
-9.62663e-06
-9.28968e-06
-8.74304e-06
-7.99976e-06
-6.85859e-06
-6.0958e-06
-5.52708e-06
-5.21413e-06
-5.10405e-06
-5.17571e-06
-5.3997e-06
-5.69348e-06
-5.98225e-06
-5.3112e-06
-5.05081e-06
-4.79231e-06
-4.58492e-06
-4.49144e-06
-4.52967e-06
-4.71799e-06
-5.08595e-06
-5.6761e-06
-6.58465e-06
-7.75389e-06
-9.94455e-06
-1.10555e-05
-1.18864e-05
-1.23997e-05
-1.27738e-05
-1.30052e-05
-1.31274e-05
-1.3142e-05
-1.30487e-05
-1.28456e-05
-1.2498e-05
-1.20104e-05
-1.12036e-05
-1.01269e-05
-7.96304e-06
-6.88573e-06
-6.06084e-06
-5.58787e-06
-5.38077e-06
-5.40511e-06
-5.62282e-06
-5.95291e-06
-6.28695e-06
-5.51507e-06
-5.20966e-06
-4.92791e-06
-4.71314e-06
-4.64354e-06
-4.73779e-06
-5.01331e-06
-5.49581e-06
-6.18893e-06
-7.25829e-06
-8.78081e-06
-1.28231e-05
-1.39741e-05
-1.504e-05
-1.569e-05
-1.61648e-05
-1.64582e-05
-1.66128e-05
-1.66282e-05
-1.65039e-05
-1.62398e-05
-1.57916e-05
-1.51664e-05
-1.41174e-05
-1.30006e-05
-8.97246e-06
-7.60352e-06
-6.59335e-06
-6.01873e-06
-5.71239e-06
-5.68163e-06
-5.89513e-06
-6.24601e-06
-6.648e-06
-5.74325e-06
-5.38599e-06
-5.08051e-06
-4.86613e-06
-4.83775e-06
-5.01574e-06
-5.41902e-06
-6.05153e-06
-6.94304e-06
-9.19497e-06
-7.31976e-06
-1.57347e-05
-1.68671e-05
-1.83915e-05
-1.92419e-05
-1.98749e-05
-2.02656e-05
-2.04675e-05
-2.04837e-05
-2.03137e-05
-1.99541e-05
-1.93493e-05
-1.85249e-05
-1.70133e-05
-1.59407e-05
-7.41932e-06
-9.50897e-06
-7.31516e-06
-6.57806e-06
-6.13957e-06
-6.01564e-06
-6.20278e-06
-6.57454e-06
-7.07499e-06
-5.98429e-06
-5.56835e-06
-5.23607e-06
-5.02449e-06
-5.04679e-06
-5.32441e-06
-5.83657e-06
-6.42987e-06
-7.00556e-06
-4.94166e-06
-2.31299e-05
-2.06735e-05
-2.15873e-05
-2.23468e-05
-2.30112e-05
-2.34498e-05
-2.36726e-05
-2.36892e-05
-2.34993e-05
-2.3093e-05
-2.24581e-05
-2.17226e-05
-2.08161e-05
-2.32007e-05
-5.56476e-06
-7.50788e-06
-6.99304e-06
-6.57446e-06
-6.36715e-06
-6.51384e-06
-6.90737e-06
-7.52066e-06
-6.22865e-06
-5.75125e-06
-5.39396e-06
-5.1953e-06
-5.30144e-06
-5.77971e-06
-6.73044e-06
-8.2894e-06
-1.08357e-05
-1.40295e-05
-2.09551e-05
-1.97182e-05
-2.2244e-05
-2.40108e-05
-2.53198e-05
-2.62994e-05
-2.69023e-05
-2.71901e-05
-2.72069e-05
-2.69531e-05
-2.63852e-05
-2.5442e-05
-2.41721e-05
-2.24512e-05
-1.99684e-05
-2.13052e-05
-1.43406e-05
-1.12011e-05
-8.76959e-06
-7.42874e-06
-6.83352e-06
-6.85187e-06
-7.23247e-06
-7.99051e-06
-6.46195e-06
-5.924e-06
-5.53572e-06
-5.33648e-06
-5.4925e-06
-6.08353e-06
-7.21458e-06
-8.96806e-06
-1.14316e-05
-1.4263e-05
-1.89386e-05
-2.14407e-05
-2.36418e-05
-2.55457e-05
-2.7051e-05
-2.81221e-05
-2.87847e-05
-2.91014e-05
-2.91178e-05
-2.88343e-05
-2.82061e-05
-2.7171e-05
-2.5704e-05
-2.38352e-05
-2.16564e-05
-1.92104e-05
-1.45705e-05
-1.17655e-05
-9.41195e-06
-7.89452e-06
-7.15988e-06
-7.13349e-06
-7.54773e-06
-8.41235e-06
-6.6772e-06
-6.08313e-06
-5.66307e-06
-5.45655e-06
-5.64286e-06
-6.30681e-06
-7.55367e-06
-9.4607e-06
-1.21011e-05
-1.52955e-05
-1.9152e-05
-2.20578e-05
-2.46337e-05
-2.67063e-05
-2.8312e-05
-2.94043e-05
-3.00706e-05
-3.03845e-05
-3.03999e-05
-3.01173e-05
-2.94836e-05
-2.8426e-05
-2.68579e-05
-2.48198e-05
-2.22787e-05
-1.93946e-05
-1.55474e-05
-1.23907e-05
-9.87327e-06
-8.22464e-06
-7.41412e-06
-7.37694e-06
-7.83359e-06
-8.79381e-06
-6.87984e-06
-6.20962e-06
-5.76735e-06
-5.54607e-06
-5.73884e-06
-6.43094e-06
-7.72131e-06
-9.67989e-06
-1.2351e-05
-1.55777e-05
-1.9189e-05
-2.23896e-05
-2.52117e-05
-2.73591e-05
-2.89916e-05
-3.00678e-05
-3.0715e-05
-3.10154e-05
-3.10295e-05
-3.07578e-05
-3.01404e-05
-2.90958e-05
-2.74979e-05
-2.53814e-05
-2.2591e-05
-1.94018e-05
-1.58e-05
-1.26146e-05
-1.00765e-05
-8.39704e-06
-7.57828e-06
-7.56521e-06
-8.07269e-06
-9.11775e-06
-7.03868e-06
-6.32278e-06
-5.85466e-06
-5.61559e-06
-5.80458e-06
-6.50567e-06
-7.81237e-06
-9.7912e-06
-1.24732e-05
-1.5721e-05
-1.92992e-05
-2.26503e-05
-2.55934e-05
-2.7788e-05
-2.94295e-05
-3.04848e-05
-3.11094e-05
-3.13948e-05
-3.14077e-05
-3.11485e-05
-3.0551e-05
-2.95241e-05
-2.79138e-05
-2.57461e-05
-2.28312e-05
-1.94888e-05
-1.59217e-05
-1.27199e-05
-1.01812e-05
-8.49991e-06
-7.69414e-06
-7.71333e-06
-8.2666e-06
-9.37927e-06
-7.15721e-06
-6.4125e-06
-5.92314e-06
-5.66733e-06
-5.84811e-06
-6.54848e-06
-7.85879e-06
-9.8455e-06
-1.25356e-05
-1.58076e-05
-1.94066e-05
-2.28297e-05
-2.58609e-05
-2.80879e-05
-2.9734e-05
-3.07761e-05
-3.13861e-05
-3.16617e-05
-3.16738e-05
-3.14226e-05
-3.08375e-05
-2.98212e-05
-2.82027e-05
-2.59992e-05
-2.29969e-05
-1.95797e-05
-1.59938e-05
-1.27725e-05
-1.02348e-05
-8.56023e-06
-7.77297e-06
-7.82263e-06
-8.41239e-06
-9.5751e-06
-7.23515e-06
-6.47699e-06
-5.97358e-06
-5.70611e-06
-5.88077e-06
-6.58041e-06
-7.89447e-06
-9.89051e-06
-1.25949e-05
-1.58945e-05
-1.95281e-05
-2.30086e-05
-2.60866e-05
-2.83378e-05
-2.99927e-05
-3.1033e-05
-3.16386e-05
-3.19108e-05
-3.19227e-05
-3.16743e-05
-3.10927e-05
-3.00764e-05
-2.84464e-05
-2.62141e-05
-2.31568e-05
-1.96887e-05
-1.60721e-05
-1.28271e-05
-1.02813e-05
-8.60721e-06
-7.83046e-06
-7.89941e-06
-8.51204e-06
-9.7062e-06
-7.26721e-06
-6.52048e-06
-6.0067e-06
-5.7334e-06
-5.9061e-06
-6.60784e-06
-7.92877e-06
-9.93786e-06
-1.26623e-05
-1.599e-05
-1.96565e-05
-2.3172e-05
-2.62774e-05
-2.85483e-05
-3.02162e-05
-3.12652e-05
-3.18758e-05
-3.21508e-05
-3.21633e-05
-3.19132e-05
-3.13271e-05
-3.03021e-05
-2.86582e-05
-2.64045e-05
-2.33176e-05
-1.98148e-05
-1.61661e-05
-1.28944e-05
-1.03314e-05
-8.6485e-06
-7.87091e-06
-7.9454e-06
-8.56654e-06
-9.7738e-06
-7.26211e-06
-6.53714e-06
-6.02143e-06
-5.74904e-06
-5.9242e-06
-6.63084e-06
-7.96147e-06
-9.98628e-06
-1.27352e-05
-1.60909e-05
-1.97902e-05
-2.33209e-05
-2.6434e-05
-2.87187e-05
-3.04022e-05
-3.14688e-05
-3.20933e-05
-3.23767e-05
-3.23906e-05
-3.21349e-05
-3.15374e-05
-3.04967e-05
-2.88389e-05
-2.65731e-05
-2.34806e-05
-1.99576e-05
-1.62734e-05
-1.29723e-05
-1.03838e-05
-8.68385e-06
-7.89469e-06
-7.96143e-06
-8.57707e-06
-9.77926e-06
-7.22484e-06
-6.52691e-06
-6.01768e-06
-5.75191e-06
-5.93135e-06
-6.64176e-06
-7.98019e-06
-1.00198e-05
-1.27974e-05
-1.61841e-05
-1.99309e-05
-2.34587e-05
-2.65534e-05
-2.88434e-05
-3.05432e-05
-3.16362e-05
-3.2283e-05
-3.25807e-05
-3.25971e-05
-3.23322e-05
-3.17171e-05
-3.06546e-05
-2.89844e-05
-2.67191e-05
-2.36617e-05
-2.01207e-05
-1.63834e-05
-1.30482e-05
-1.04273e-05
-8.7063e-06
-7.89919e-06
-7.94812e-06
-8.5456e-06
-9.72484e-06
-7.16389e-06
-6.4871e-06
-5.99456e-06
-5.73802e-06
-5.91735e-06
-6.62041e-06
-7.95054e-06
-9.98691e-06
-1.27833e-05
-1.62029e-05
-2.00654e-05
-2.35773e-05
-2.65947e-05
-2.8862e-05
-3.05648e-05
-3.1686e-05
-3.23601e-05
-3.26764e-05
-3.26967e-05
-3.24207e-05
-3.17858e-05
-3.07025e-05
-2.90356e-05
-2.6797e-05
-2.38033e-05
-2.02824e-05
-1.64304e-05
-1.30606e-05
-1.04162e-05
-8.68773e-06
-7.871e-06
-7.9017e-06
-8.47271e-06
-9.61292e-06
-7.07622e-06
-6.42852e-06
-5.95646e-06
-5.70839e-06
-5.87884e-06
-6.55607e-06
-7.84925e-06
-9.84616e-06
-1.26425e-05
-1.60943e-05
-2.02556e-05
-2.367e-05
-2.65153e-05
-2.87325e-05
-3.04195e-05
-3.15643e-05
-3.22634e-05
-3.25986e-05
-3.26248e-05
-3.23422e-05
-3.16945e-05
-3.0601e-05
-2.89609e-05
-2.67814e-05
-2.39507e-05
-2.05179e-05
-1.63803e-05
-1.29728e-05
-1.03192e-05
-8.61406e-06
-7.80782e-06
-7.82673e-06
-8.36566e-06
-9.45111e-06
-6.96593e-06
-6.35527e-06
-5.9032e-06
-5.65576e-06
-5.79573e-06
-6.40488e-06
-7.5874e-06
-9.42295e-06
-1.19903e-05
-1.50224e-05
-2.02635e-05
-2.3984e-05
-2.62335e-05
-2.82516e-05
-2.98424e-05
-3.09743e-05
-3.16804e-05
-3.20287e-05
-3.20637e-05
-3.17861e-05
-3.11502e-05
-3.00909e-05
-2.85662e-05
-2.66097e-05
-2.43944e-05
-2.05777e-05
-1.53652e-05
-1.23896e-05
-9.96893e-06
-8.40654e-06
-7.67544e-06
-7.71266e-06
-8.22607e-06
-9.24556e-06
-6.84326e-06
-6.27623e-06
-5.84545e-06
-5.59632e-06
-5.69489e-06
-6.21213e-06
-7.25729e-06
-8.98065e-06
-1.17992e-05
-1.55536e-05
-2.17002e-05
-2.2379e-05
-2.54046e-05
-2.76029e-05
-2.91029e-05
-3.0212e-05
-3.09051e-05
-3.12531e-05
-3.13028e-05
-3.1057e-05
-3.04667e-05
-2.94658e-05
-2.80559e-05
-2.59386e-05
-2.29329e-05
-2.19857e-05
-1.6155e-05
-1.24006e-05
-9.67444e-06
-8.16999e-06
-7.52232e-06
-7.59107e-06
-8.08847e-06
-9.00661e-06
-6.71673e-06
-6.1944e-06
-5.78133e-06
-5.52091e-06
-5.54809e-06
-5.87851e-06
-6.45749e-06
-7.02944e-06
-7.4857e-06
-4.28807e-06
-2.91708e-05
-2.55691e-05
-2.65567e-05
-2.74638e-05
-2.82843e-05
-2.88526e-05
-2.91664e-05
-2.92333e-05
-2.90591e-05
-2.86359e-05
-2.79781e-05
-2.72068e-05
-2.63736e-05
-2.99314e-05
-4.85451e-06
-8.19863e-06
-7.84193e-06
-7.47598e-06
-7.24343e-06
-7.43005e-06
-7.94152e-06
-8.75431e-06
-6.60193e-06
-6.12288e-06
-5.73525e-06
-5.48464e-06
-5.50152e-06
-5.83082e-06
-6.54533e-06
-7.74691e-06
-9.73027e-06
-1.29614e-05
-1.38365e-05
-2.05263e-05
-2.26776e-05
-2.4741e-05
-2.60955e-05
-2.71348e-05
-2.78132e-05
-2.81919e-05
-2.82835e-05
-2.80989e-05
-2.76269e-05
-2.68235e-05
-2.56611e-05
-2.38493e-05
-2.17639e-05
-1.56707e-05
-1.45149e-05
-1.10272e-05
-8.87908e-06
-7.71143e-06
-7.24131e-06
-7.35401e-06
-7.8116e-06
-8.5367e-06
-6.50536e-06
-6.06671e-06
-5.70592e-06
-5.46823e-06
-5.47224e-06
-5.76034e-06
-6.38392e-06
-7.38938e-06
-8.8021e-06
-1.06365e-05
-1.43326e-05
-1.89024e-05
-2.09605e-05
-2.28848e-05
-2.42922e-05
-2.53801e-05
-2.60884e-05
-2.64894e-05
-2.65984e-05
-2.64321e-05
-2.59785e-05
-2.51933e-05
-2.40231e-05
-2.24019e-05
-2.04103e-05
-1.60384e-05
-1.19564e-05
-1.00692e-05
-8.58217e-06
-7.60849e-06
-7.18312e-06
-7.27733e-06
-7.69598e-06
-8.35984e-06
-6.43292e-06
-6.03971e-06
-5.71445e-06
-5.50295e-06
-5.51156e-06
-5.7816e-06
-6.36955e-06
-7.34803e-06
-8.82771e-06
-1.08746e-05
-1.35309e-05
-1.67174e-05
-1.90346e-05
-2.1038e-05
-2.25111e-05
-2.36489e-05
-2.43813e-05
-2.47929e-05
-2.49082e-05
-2.47486e-05
-2.42958e-05
-2.35055e-05
-2.23136e-05
-2.06722e-05
-1.84818e-05
-1.539e-05
-1.25674e-05
-1.02999e-05
-8.64891e-06
-7.63841e-06
-7.19665e-06
-7.25627e-06
-7.62836e-06
-8.24335e-06
-6.40414e-06
-6.05188e-06
-5.77155e-06
-5.59768e-06
-5.62031e-06
-5.87365e-06
-6.40521e-06
-7.27662e-06
-8.56038e-06
-1.03124e-05
-1.25102e-05
-1.49889e-05
-1.71477e-05
-1.90585e-05
-2.04916e-05
-2.15847e-05
-2.22849e-05
-2.26778e-05
-2.27922e-05
-2.26493e-05
-2.22312e-05
-2.1496e-05
-2.037e-05
-1.88332e-05
-1.67962e-05
-1.43628e-05
-1.20007e-05
-1.00407e-05
-8.5922e-06
-7.67531e-06
-7.26004e-06
-7.29405e-06
-7.61711e-06
-8.18066e-06
-6.41589e-06
-6.11266e-06
-5.89334e-06
-5.77629e-06
-5.83267e-06
-6.08734e-06
-6.574e-06
-7.3357e-06
-8.41958e-06
-9.85302e-06
-1.16025e-05
-1.3552e-05
-1.53924e-05
-1.70771e-05
-1.83753e-05
-1.936e-05
-1.99977e-05
-2.03578e-05
-2.04701e-05
-2.03433e-05
-1.99709e-05
-1.93167e-05
-1.83184e-05
-1.69736e-05
-1.52463e-05
-1.33167e-05
-1.14363e-05
-9.83393e-06
-8.61661e-06
-7.82035e-06
-7.435e-06
-7.42976e-06
-7.68324e-06
-8.17699e-06
-6.46091e-06
-6.22416e-06
-6.08648e-06
-6.04955e-06
-6.16386e-06
-6.44601e-06
-6.91891e-06
-7.60963e-06
-8.54449e-06
-9.72941e-06
-1.11292e-05
-1.26693e-05
-1.41752e-05
-1.55691e-05
-1.66721e-05
-1.75135e-05
-1.80699e-05
-1.83882e-05
-1.84882e-05
-1.8383e-05
-1.80616e-05
-1.75012e-05
-1.66606e-05
-1.55473e-05
-1.41545e-05
-1.26409e-05
-1.11619e-05
-9.86825e-06
-8.84919e-06
-8.14459e-06
-7.76116e-06
-7.68543e-06
-7.83387e-06
-8.23179e-06
-6.52226e-06
-6.36467e-06
-6.31404e-06
-6.36363e-06
-6.5497e-06
-6.88646e-06
-7.38977e-06
-8.07468e-06
-8.94693e-06
-1.00018e-05
-1.12141e-05
-1.25239e-05
-1.38102e-05
-1.50002e-05
-1.59691e-05
-1.67182e-05
-1.72288e-05
-1.75259e-05
-1.76206e-05
-1.75218e-05
-1.72224e-05
-1.67104e-05
-1.59652e-05
-1.50003e-05
-1.38282e-05
-1.25654e-05
-1.13167e-05
-1.02085e-05
-9.29667e-06
-8.62059e-06
-8.19684e-06
-8.02431e-06
-8.05564e-06
-8.30779e-06
-6.57675e-06
-6.51569e-06
-6.54437e-06
-6.67e-06
-6.92705e-06
-7.33578e-06
-7.91544e-06
-8.68076e-06
-9.63632e-06
-1.07694e-05
-1.20307e-05
-1.33546e-05
-1.46497e-05
-1.58471e-05
-1.68476e-05
-1.76347e-05
-1.81857e-05
-1.85091e-05
-1.86099e-05
-1.8493e-05
-1.81549e-05
-1.75906e-05
-1.67949e-05
-1.57902e-05
-1.46054e-05
-1.33404e-05
-1.20891e-05
-1.09325e-05
-9.95673e-06
-9.20484e-06
-8.69008e-06
-8.40521e-06
-8.30776e-06
-8.39065e-06
-5.00376e-06
-5.00706e-06
-5.01814e-06
-5.04027e-06
-5.07865e-06
-5.13569e-06
-5.22079e-06
-5.33366e-06
-5.47297e-06
-5.63606e-06
-5.81513e-06
-6.00363e-06
-6.18595e-06
-6.35296e-06
-6.49636e-06
-6.61237e-06
-6.69726e-06
-6.74964e-06
-6.76874e-06
-6.75471e-06
-6.70865e-06
-6.63218e-06
-6.52921e-06
-6.40334e-06
-6.26296e-06
-6.12239e-06
-5.99236e-06
-5.87903e-06
-5.78996e-06
-5.7286e-06
-5.68558e-06
-5.65767e-06
-5.63968e-06
-5.62742e-06
-4.96251e-06
-4.93808e-06
-4.92739e-06
-4.92305e-06
-4.93705e-06
-4.97287e-06
-5.03311e-06
-5.11752e-06
-5.22231e-06
-5.34411e-06
-5.47228e-06
-5.60364e-06
-5.72918e-06
-5.84883e-06
-5.95205e-06
-6.03728e-06
-6.10069e-06
-6.14193e-06
-6.16029e-06
-6.15591e-06
-6.12982e-06
-6.08265e-06
-6.0187e-06
-5.94012e-06
-5.85861e-06
-5.76986e-06
-5.68742e-06
-5.61383e-06
-5.5595e-06
-5.52718e-06
-5.51769e-06
-5.52781e-06
-5.54345e-06
-5.5682e-06
-4.95036e-06
-4.91914e-06
-4.89688e-06
-4.87132e-06
-4.86788e-06
-4.89294e-06
-4.95006e-06
-5.04053e-06
-5.1599e-06
-5.30788e-06
-5.46651e-06
-5.63826e-06
-5.7926e-06
-5.93666e-06
-6.05375e-06
-6.14844e-06
-6.21624e-06
-6.25932e-06
-6.27716e-06
-6.26987e-06
-6.23832e-06
-6.18057e-06
-6.10171e-06
-5.99753e-06
-5.88557e-06
-5.75733e-06
-5.64625e-06
-5.55017e-06
-5.48819e-06
-5.46036e-06
-5.46791e-06
-5.50332e-06
-5.53171e-06
-5.5629e-06
-4.96584e-06
-4.92046e-06
-4.8811e-06
-4.83317e-06
-4.81498e-06
-4.83696e-06
-4.90594e-06
-5.02718e-06
-5.19689e-06
-5.422e-06
-5.67068e-06
-5.9556e-06
-6.19725e-06
-6.41712e-06
-6.58416e-06
-6.7147e-06
-6.80298e-06
-6.85586e-06
-6.8731e-06
-6.85477e-06
-6.80141e-06
-6.70634e-06
-6.57605e-06
-6.3945e-06
-6.19431e-06
-5.95384e-06
-5.75641e-06
-5.58951e-06
-5.48782e-06
-5.4444e-06
-5.45851e-06
-5.51547e-06
-5.55985e-06
-5.60796e-06
-5.02383e-06
-4.96041e-06
-4.90618e-06
-4.84334e-06
-4.82161e-06
-4.85651e-06
-4.95973e-06
-5.14366e-06
-5.40681e-06
-5.77221e-06
-6.18464e-06
-6.6849e-06
-7.08372e-06
-7.43952e-06
-7.69536e-06
-7.89056e-06
-8.01645e-06
-8.08791e-06
-8.10474e-06
-8.06693e-06
-7.97493e-06
-7.81388e-06
-7.59339e-06
-7.27435e-06
-6.91663e-06
-6.46169e-06
-6.10565e-06
-5.80596e-06
-5.62309e-06
-5.53384e-06
-5.534e-06
-5.59874e-06
-5.65645e-06
-5.72127e-06
-5.12777e-06
-5.04104e-06
-4.97427e-06
-4.90459e-06
-4.89154e-06
-4.95593e-06
-5.11499e-06
-5.39041e-06
-5.78447e-06
-6.35109e-06
-7.00614e-06
-7.86723e-06
-8.49677e-06
-9.052e-06
-9.43303e-06
-9.72086e-06
-9.90067e-06
-9.99947e-06
-1.00162e-05
-9.95062e-06
-9.80405e-06
-9.54914e-06
-9.20197e-06
-8.68145e-06
-8.09248e-06
-7.27679e-06
-6.68515e-06
-6.1921e-06
-5.89149e-06
-5.72879e-06
-5.69555e-06
-5.75487e-06
-5.82119e-06
-5.91087e-06
-5.27712e-06
-5.16133e-06
-5.08408e-06
-5.01455e-06
-5.02092e-06
-5.1281e-06
-5.35766e-06
-5.74073e-06
-6.28298e-06
-7.10385e-06
-8.07121e-06
-9.52861e-06
-1.044e-05
-1.12318e-05
-1.17472e-05
-1.21366e-05
-1.23736e-05
-1.25026e-05
-1.25194e-05
-1.24239e-05
-1.22199e-05
-1.18622e-05
-1.1379e-05
-1.06187e-05
-9.74723e-06
-8.33336e-06
-7.44102e-06
-6.70105e-06
-6.26545e-06
-6.01362e-06
-5.93438e-06
-5.97961e-06
-6.05262e-06
-6.17687e-06
-5.46312e-06
-5.31604e-06
-5.23106e-06
-5.16989e-06
-5.20912e-06
-5.37529e-06
-5.6907e-06
-6.18566e-06
-6.86624e-06
-7.89211e-06
-9.21707e-06
-1.16868e-05
-1.28503e-05
-1.3901e-05
-1.45618e-05
-1.50747e-05
-1.53836e-05
-1.55509e-05
-1.55682e-05
-1.5435e-05
-1.51595e-05
-1.46776e-05
-1.40468e-05
-1.30227e-05
-1.1896e-05
-9.46142e-06
-8.23399e-06
-7.2921e-06
-6.73103e-06
-6.38595e-06
-6.24784e-06
-6.26852e-06
-6.34577e-06
-6.51669e-06
-5.68786e-06
-5.49619e-06
-5.40385e-06
-5.35519e-06
-5.43468e-06
-5.66514e-06
-6.06027e-06
-6.634e-06
-7.31211e-06
-8.39574e-06
-9.95737e-06
-1.46432e-05
-1.55672e-05
-1.66668e-05
-1.73756e-05
-1.79403e-05
-1.8277e-05
-1.84637e-05
-1.84815e-05
-1.83294e-05
-1.80264e-05
-1.74917e-05
-1.68106e-05
-1.57282e-05
-1.48374e-05
-1.01713e-05
-8.77534e-06
-7.7542e-06
-7.20102e-06
-6.79243e-06
-6.60207e-06
-6.59893e-06
-6.6802e-06
-6.92031e-06
-5.94024e-06
-5.69574e-06
-5.60123e-06
-5.58101e-06
-5.73162e-06
-6.07425e-06
-6.62353e-06
-7.3077e-06
-8.07446e-06
-1.00724e-05
-6.87906e-06
-1.68575e-05
-1.77046e-05
-1.91567e-05
-2.00104e-05
-2.07377e-05
-2.11554e-05
-2.13803e-05
-2.13981e-05
-2.12082e-05
-2.08247e-05
-2.01281e-05
-1.93016e-05
-1.78612e-05
-1.70749e-05
-6.95888e-06
-1.03975e-05
-8.4753e-06
-7.86743e-06
-7.36769e-06
-7.05494e-06
-6.98622e-06
-7.05195e-06
-7.36615e-06
-6.20731e-06
-5.89978e-06
-5.7999e-06
-5.80768e-06
-6.02958e-06
-6.48121e-06
-7.14587e-06
-7.83127e-06
-8.07429e-06
-4.15136e-06
-2.4151e-05
-2.03441e-05
-2.09837e-05
-2.1701e-05
-2.22969e-05
-2.26867e-05
-2.28968e-05
-2.29139e-05
-2.27375e-05
-2.23803e-05
-2.18142e-05
-2.11219e-05
-2.04866e-05
-2.41883e-05
-4.86133e-06
-8.59225e-06
-8.41619e-06
-7.9028e-06
-7.49539e-06
-7.36331e-06
-7.42223e-06
-7.84944e-06
-6.47941e-06
-6.10599e-06
-6.01086e-06
-6.07364e-06
-6.43335e-06
-7.15601e-06
-8.34885e-06
-1.0065e-05
-1.28126e-05
-1.55346e-05
-2.20938e-05
-1.89827e-05
-2.08156e-05
-2.23604e-05
-2.35071e-05
-2.42616e-05
-2.47569e-05
-2.50083e-05
-2.50248e-05
-2.48066e-05
-2.4345e-05
-2.36248e-05
-2.25143e-05
-2.10121e-05
-1.92188e-05
-2.24322e-05
-1.58083e-05
-1.31544e-05
-1.05462e-05
-9.04299e-06
-8.15338e-06
-7.80844e-06
-7.80152e-06
-8.35314e-06
-6.73961e-06
-6.30058e-06
-6.1992e-06
-6.29206e-06
-6.73282e-06
-7.59556e-06
-8.98697e-06
-1.08989e-05
-1.34838e-05
-1.58573e-05
-1.98163e-05
-2.07097e-05
-2.17472e-05
-2.28226e-05
-2.38005e-05
-2.45284e-05
-2.50369e-05
-2.52967e-05
-2.53122e-05
-2.50833e-05
-2.46059e-05
-2.39077e-05
-2.29591e-05
-2.19054e-05
-2.08768e-05
-2.00407e-05
-1.61223e-05
-1.37927e-05
-1.13413e-05
-9.65887e-06
-8.60283e-06
-8.1696e-06
-8.15116e-06
-8.82324e-06
-6.97945e-06
-6.48307e-06
-6.37608e-06
-6.49584e-06
-7.0092e-06
-7.99844e-06
-9.56869e-06
-1.17013e-05
-1.44406e-05
-1.72107e-05
-2.02482e-05
-2.16671e-05
-2.27856e-05
-2.37909e-05
-2.47473e-05
-2.5459e-05
-2.59605e-05
-2.62136e-05
-2.6228e-05
-2.60036e-05
-2.55311e-05
-2.48466e-05
-2.39169e-05
-2.29291e-05
-2.18279e-05
-2.04288e-05
-1.74168e-05
-1.47036e-05
-1.21074e-05
-1.02248e-05
-9.02295e-06
-8.51288e-06
-8.48317e-06
-9.25048e-06
-7.19102e-06
-6.64026e-06
-6.52303e-06
-6.65176e-06
-7.19994e-06
-8.24993e-06
-9.89525e-06
-1.21118e-05
-1.48698e-05
-1.77337e-05
-2.05461e-05
-2.22495e-05
-2.35161e-05
-2.45049e-05
-2.54504e-05
-2.61438e-05
-2.66355e-05
-2.6881e-05
-2.68942e-05
-2.6675e-05
-2.62094e-05
-2.55395e-05
-2.46164e-05
-2.36383e-05
-2.23858e-05
-2.06924e-05
-1.7908e-05
-1.51088e-05
-1.25037e-05
-1.05564e-05
-9.30865e-06
-8.78044e-06
-8.76475e-06
-9.61028e-06
-7.36331e-06
-6.77402e-06
-6.64624e-06
-6.77754e-06
-7.3463e-06
-8.4346e-06
-1.01277e-05
-1.24007e-05
-1.51824e-05
-1.81017e-05
-2.08642e-05
-2.27248e-05
-2.40725e-05
-2.50856e-05
-2.60422e-05
-2.67282e-05
-2.72122e-05
-2.74508e-05
-2.7463e-05
-2.72485e-05
-2.67879e-05
-2.6122e-05
-2.51838e-05
-2.41758e-05
-2.28359e-05
-2.09857e-05
-1.82546e-05
-1.54061e-05
-1.27875e-05
-1.08012e-05
-9.53079e-06
-8.99885e-06
-8.99844e-06
-9.89915e-06
-7.49305e-06
-6.8783e-06
-6.74075e-06
-6.86915e-06
-7.44538e-06
-8.55102e-06
-1.02662e-05
-1.25681e-05
-1.53666e-05
-1.833e-05
-2.11062e-05
-2.30765e-05
-2.44643e-05
-2.54974e-05
-2.64632e-05
-2.71459e-05
-2.7626e-05
-2.78608e-05
-2.78723e-05
-2.766e-05
-2.72012e-05
-2.65356e-05
-2.55846e-05
-2.45525e-05
-2.31724e-05
-2.12103e-05
-1.84697e-05
-1.55831e-05
-1.29571e-05
-1.0956e-05
-9.68256e-06
-9.1584e-06
-9.17445e-06
-1.01134e-05
-7.5795e-06
-6.95191e-06
-6.80828e-06
-6.93386e-06
-7.51355e-06
-8.62923e-06
-1.03593e-05
-1.26828e-05
-1.5502e-05
-1.85026e-05
-2.13083e-05
-2.33409e-05
-2.47605e-05
-2.58119e-05
-2.67876e-05
-2.74732e-05
-2.79539e-05
-2.81881e-05
-2.81994e-05
-2.79873e-05
-2.7527e-05
-2.68568e-05
-2.5893e-05
-2.48387e-05
-2.34228e-05
-2.14022e-05
-1.86364e-05
-1.57172e-05
-1.30769e-05
-1.10634e-05
-9.78745e-06
-9.2686e-06
-9.29476e-06
-1.02557e-05
-7.62163e-06
-6.99487e-06
-6.84861e-06
-6.97249e-06
-7.55349e-06
-8.6744e-06
-1.04143e-05
-1.27541e-05
-1.55956e-05
-1.86264e-05
-2.14643e-05
-2.3526e-05
-2.49706e-05
-2.60368e-05
-2.70221e-05
-2.7715e-05
-2.82004e-05
-2.84373e-05
-2.84494e-05
-2.82358e-05
-2.77715e-05
-2.70942e-05
-2.61201e-05
-2.50504e-05
-2.36139e-05
-2.15599e-05
-1.8763e-05
-1.58154e-05
-1.31556e-05
-1.11298e-05
-9.84874e-06
-9.33019e-06
-9.35925e-06
-1.03281e-05
-7.62234e-06
-7.00649e-06
-6.86161e-06
-6.98521e-06
-7.56549e-06
-8.68655e-06
-1.04312e-05
-1.27804e-05
-1.5645e-05
-1.87001e-05
-2.15762e-05
-2.36567e-05
-2.51013e-05
-2.61761e-05
-2.71691e-05
-2.78729e-05
-2.83665e-05
-2.86093e-05
-2.8623e-05
-2.84068e-05
-2.79371e-05
-2.72514e-05
-2.62713e-05
-2.51941e-05
-2.37526e-05
-2.16837e-05
-1.88487e-05
-1.58759e-05
-1.31924e-05
-1.11553e-05
-9.86716e-06
-9.34434e-06
-9.36936e-06
-1.03322e-05
-7.58493e-06
-6.98845e-06
-6.84858e-06
-6.97237e-06
-7.54784e-06
-8.66102e-06
-1.0401e-05
-1.27502e-05
-1.5639e-05
-1.8712e-05
-2.16469e-05
-2.37188e-05
-2.51511e-05
-2.62314e-05
-2.72313e-05
-2.79509e-05
-2.84565e-05
-2.87084e-05
-2.8725e-05
-2.85054e-05
-2.80291e-05
-2.73329e-05
-2.63502e-05
-2.52711e-05
-2.38346e-05
-2.17793e-05
-1.88849e-05
-1.58913e-05
-1.31803e-05
-1.11365e-05
-9.84313e-06
-9.31417e-06
-9.329e-06
-1.02697e-05
-7.51336e-06
-6.94198e-06
-6.80848e-06
-6.92773e-06
-7.48531e-06
-8.56819e-06
-1.02743e-05
-1.25896e-05
-1.54872e-05
-1.8569e-05
-2.16356e-05
-2.3664e-05
-2.50757e-05
-2.61516e-05
-2.71478e-05
-2.78828e-05
-2.84019e-05
-2.86658e-05
-2.86866e-05
-2.84639e-05
-2.79822e-05
-2.72792e-05
-2.63074e-05
-2.52415e-05
-2.38371e-05
-2.18077e-05
-1.87807e-05
-1.57753e-05
-1.30517e-05
-1.10314e-05
-9.75524e-06
-9.23275e-06
-9.23913e-06
-1.01418e-05
-7.41097e-06
-6.87524e-06
-6.74949e-06
-6.86007e-06
-7.3881e-06
-8.42028e-06
-1.00651e-05
-1.23129e-05
-1.52145e-05
-1.825e-05
-2.16275e-05
-2.36028e-05
-2.4891e-05
-2.59995e-05
-2.70149e-05
-2.77786e-05
-2.83155e-05
-2.85939e-05
-2.86212e-05
-2.83972e-05
-2.79107e-05
-2.71936e-05
-2.62144e-05
-2.51299e-05
-2.38523e-05
-2.18571e-05
-1.8527e-05
-1.55637e-05
-1.2831e-05
-1.08627e-05
-9.62397e-06
-9.11847e-06
-9.11511e-06
-9.95722e-06
-7.28272e-06
-6.79139e-06
-6.66778e-06
-6.75259e-06
-7.21497e-06
-8.13071e-06
-9.60433e-06
-1.16249e-05
-1.43136e-05
-1.68773e-05
-2.13975e-05
-2.36394e-05
-2.45681e-05
-2.56804e-05
-2.6691e-05
-2.74673e-05
-2.8015e-05
-2.83075e-05
-2.83429e-05
-2.81217e-05
-2.76402e-05
-2.69305e-05
-2.59741e-05
-2.49145e-05
-2.40186e-05
-2.16754e-05
-1.72204e-05
-1.47449e-05
-1.22338e-05
-1.04751e-05
-9.37634e-06
-8.94416e-06
-8.95506e-06
-9.72183e-06
-7.14144e-06
-6.70369e-06
-6.58663e-06
-6.65003e-06
-7.05185e-06
-7.86e-06
-9.18425e-06
-1.10622e-05
-1.40196e-05
-1.72812e-05
-2.27107e-05
-2.18492e-05
-2.40833e-05
-2.59178e-05
-2.71756e-05
-2.80286e-05
-2.86013e-05
-2.89091e-05
-2.89582e-05
-2.87509e-05
-2.82717e-05
-2.75154e-05
-2.63303e-05
-2.45823e-05
-2.23806e-05
-2.29568e-05
-1.78546e-05
-1.46305e-05
-1.18193e-05
-1.01627e-05
-9.16695e-06
-8.78987e-06
-8.8017e-06
-9.46479e-06
-6.99593e-06
-6.61116e-06
-6.49103e-06
-6.51037e-06
-6.79563e-06
-7.35693e-06
-8.1526e-06
-8.87744e-06
-8.8597e-06
-3.13985e-06
-3.05179e-05
-2.49655e-05
-2.54957e-05
-2.62209e-05
-2.68777e-05
-2.73474e-05
-2.76265e-05
-2.76884e-05
-2.75379e-05
-2.71874e-05
-2.66633e-05
-2.6028e-05
-2.56291e-05
-3.11278e-05
-3.74851e-06
-9.64729e-06
-9.80697e-06
-9.27516e-06
-8.75334e-06
-8.56162e-06
-8.62715e-06
-9.197e-06
-6.86433e-06
-6.53072e-06
-6.42506e-06
-6.44312e-06
-6.71403e-06
-7.28039e-06
-8.20283e-06
-9.46543e-06
-1.13276e-05
-1.43073e-05
-1.38879e-05
-2.12442e-05
-2.27783e-05
-2.44874e-05
-2.55606e-05
-2.65063e-05
-2.71163e-05
-2.74749e-05
-2.75575e-05
-2.73716e-05
-2.69172e-05
-2.6141e-05
-2.51392e-05
-2.36166e-05
-2.2223e-05
-1.56855e-05
-1.57267e-05
-1.26483e-05
-1.06719e-05
-9.46404e-06
-8.73081e-06
-8.46664e-06
-8.48652e-06
-8.97603e-06
-6.7541e-06
-6.46261e-06
-6.36826e-06
-6.37983e-06
-6.61618e-06
-7.12149e-06
-7.94497e-06
-9.10041e-06
-1.05725e-05
-1.22852e-05
-1.57593e-05
-2.02919e-05
-2.14878e-05
-2.27419e-05
-2.36746e-05
-2.45531e-05
-2.5141e-05
-2.55042e-05
-2.55998e-05
-2.5438e-05
-2.50223e-05
-2.43288e-05
-2.34133e-05
-2.22588e-05
-2.12013e-05
-1.7158e-05
-1.35226e-05
-1.18595e-05
-1.03724e-05
-9.27045e-06
-8.59491e-06
-8.33937e-06
-8.34593e-06
-8.77921e-06
-6.68089e-06
-6.42387e-06
-6.35093e-06
-6.37661e-06
-6.61106e-06
-7.10382e-06
-7.91355e-06
-9.07851e-06
-1.06566e-05
-1.2637e-05
-1.51462e-05
-1.7993e-05
-1.95153e-05
-2.07633e-05
-2.17235e-05
-2.26339e-05
-2.32408e-05
-2.36112e-05
-2.3711e-05
-2.35532e-05
-2.31298e-05
-2.24321e-05
-2.14812e-05
-2.02961e-05
-1.89397e-05
-1.64977e-05
-1.40401e-05
-1.20482e-05
-1.04256e-05
-9.27769e-06
-8.57484e-06
-8.28606e-06
-8.25671e-06
-8.63295e-06
-6.63383e-06
-6.41579e-06
-6.36888e-06
-6.41361e-06
-6.64527e-06
-7.109e-06
-7.85638e-06
-8.92518e-06
-1.03434e-05
-1.21193e-05
-1.41371e-05
-1.62715e-05
-1.77149e-05
-1.89419e-05
-1.99234e-05
-2.08067e-05
-2.1398e-05
-2.17586e-05
-2.18597e-05
-2.17172e-05
-2.13194e-05
-2.0668e-05
-1.97436e-05
-1.86154e-05
-1.73103e-05
-1.54575e-05
-1.35134e-05
-1.17414e-05
-1.02873e-05
-9.22444e-06
-8.55909e-06
-8.26499e-06
-8.21167e-06
-8.53762e-06
-6.61867e-06
-6.4429e-06
-6.43044e-06
-6.50661e-06
-6.74888e-06
-7.19458e-06
-7.88415e-06
-8.84462e-06
-1.00849e-05
-1.15833e-05
-1.32263e-05
-1.49178e-05
-1.62487e-05
-1.74451e-05
-1.84234e-05
-1.92671e-05
-1.98476e-05
-2.0201e-05
-2.03009e-05
-2.01736e-05
-1.97958e-05
-1.91776e-05
-1.83045e-05
-1.72485e-05
-1.60117e-05
-1.45364e-05
-1.29556e-05
-1.1463e-05
-1.01941e-05
-9.23724e-06
-8.61408e-06
-8.3107e-06
-8.22647e-06
-8.49518e-06
-6.63067e-06
-6.50034e-06
-6.52748e-06
-6.64347e-06
-6.90608e-06
-7.34386e-06
-7.98633e-06
-8.85062e-06
-9.93461e-06
-1.12108e-05
-1.25861e-05
-1.39894e-05
-1.52116e-05
-1.63224e-05
-1.72436e-05
-1.80261e-05
-1.85734e-05
-1.89074e-05
-1.90101e-05
-1.88927e-05
-1.85463e-05
-1.7981e-05
-1.71885e-05
-1.62351e-05
-1.51234e-05
-1.38715e-05
-1.25458e-05
-1.12766e-05
-1.01752e-05
-9.31876e-06
-8.73347e-06
-8.41497e-06
-8.29348e-06
-8.49541e-06
-6.65134e-06
-6.55946e-06
-6.60754e-06
-6.75102e-06
-7.0307e-06
-7.46838e-06
-8.08461e-06
-8.88984e-06
-9.87728e-06
-1.10199e-05
-1.22509e-05
-1.35077e-05
-1.46729e-05
-1.57369e-05
-1.66274e-05
-1.73622e-05
-1.78838e-05
-1.82007e-05
-1.83012e-05
-1.81911e-05
-1.78665e-05
-1.73359e-05