/*--------------------------------*- C++ -*----------------------------------*\
| =========                 |                                                 |
| \\      /  F ield         | OpenFOAM: The Open Source CFD Toolbox           |
|  \\    /   O peration     | Version:  2112                                  |
|   \\  /    A nd           | Website:  www.openfoam.com                      |
|    \\/     M anipulation  |                                                 |
\*---------------------------------------------------------------------------*/
FoamFile
{
    version     2.0;
    format      ascii;
    arch        "LSB;label=32;scalar=64";
    class       surfaceScalarField;
    location    "4";
    object      phi;
}
// * * * * * * * * * * * * * * * * * * * * * * * * * * * * * * * * * * * * * //

dimensions      [0 3 -1 0 0 0 0];

oriented        oriented;

internalField   nonuniform List<scalar> 
188215
(
5.71734e-10
1.185e-09
-1.75673e-09
2.58849e-09
1.98002e-10
-2.21476e-09
5.46197e-09
-1.26422e-09
-1.60926e-09
8.73044e-09
-2.59854e-09
-6.6993e-10
1.2194e-08
-3.51851e-09
5.49871e-11
1.55993e-08
-4.12096e-09
7.15641e-10
1.8932e-08
-4.42844e-09
1.09575e-09
2.20608e-08
-4.44837e-09
1.31958e-09
2.47824e-08
-4.15743e-09
1.43581e-09
2.6707e-08
-3.38883e-09
1.46419e-09
2.75408e-08
-2.23155e-09
1.39779e-09
2.66376e-08
-3.45489e-10
1.24866e-09
2.45712e-08
7.49525e-10
1.31691e-09
2.13999e-08
1.64918e-09
1.52213e-09
1.74012e-08
2.24464e-09
1.75405e-09
1.27873e-08
2.65051e-09
1.96343e-09
7.7992e-09
2.87127e-09
2.11678e-09
2.63641e-09
2.96527e-09
2.19752e-09
-2.50507e-09
2.94163e-09
2.19985e-09
-7.43009e-09
2.80032e-09
2.12471e-09
-1.19408e-08
2.53245e-09
1.97826e-09
-1.57996e-08
2.08111e-09
1.77773e-09
-1.88057e-08
1.44838e-09
1.55766e-09
-2.07161e-08
5.3893e-10
1.3715e-09
-2.1342e-08
-7.37456e-10
1.36331e-09
-2.02844e-08
-2.5432e-09
1.48568e-09
-1.8145e-08
-3.63448e-09
1.49504e-09
-1.52203e-08
-4.25832e-09
1.33367e-09
-1.19138e-08
-4.24386e-09
9.37277e-10
-8.3828e-09
-3.66167e-09
1.30711e-10
-5.0735e-09
-2.5014e-09
-8.07902e-10
-2.30125e-09
-6.84896e-10
-2.08735e-09
-3.7159e-10
1.04727e-09
-2.97693e-09
2.1938e-09
-2.56539e-09
-1.73162e-09
6.10418e-09
-3.18756e-09
6.11415e-10
6.037e-09
-8.18203e-09
4.26648e-09
5.00339e-09
-9.92268e-09
8.09439e-09
4.01954e-09
-1.0446e-08
1.18257e-08
3.62919e-09
-1.0879e-08
1.54159e-08
3.91888e-09
-1.163e-08
1.88722e-08
4.93918e-09
-1.28239e-08
2.21112e-08
6.82809e-09
-1.45154e-08
2.49334e-08
9.74894e-09
-1.67286e-08
2.69397e-08
1.4069e-08
-1.94641e-08
2.77819e-08
1.95374e-08
-2.26112e-08
2.71514e-08
2.62347e-08
-2.59497e-08
2.50701e-08
3.20184e-08
-2.91875e-08
2.17666e-08
3.70022e-08
-3.20496e-08
1.76578e-08
4.07181e-08
-3.43646e-08
1.29639e-08
4.34607e-08
-3.61163e-08
7.91663e-09
4.52101e-08
-3.72915e-08
2.70533e-09
4.6079e-08
-3.79024e-08
-2.48327e-09
4.60787e-08
-3.79484e-08
-7.46271e-09
4.52091e-08
-3.74293e-08
-1.20455e-08
4.34608e-08
-3.63456e-08
-1.60012e-08
4.07229e-08
-3.46861e-08
-1.91108e-08
3.70251e-08
-3.24672e-08
-2.0933e-08
3.20775e-08
-2.97163e-08
-2.1369e-08
2.63487e-08
-2.66501e-08
-2.02585e-08
1.98047e-08
-2.34583e-08
-1.79703e-08
1.46122e-08
-2.0535e-08
-1.48228e-08
1.07017e-08
-1.81075e-08
-1.11853e-08
8.42206e-09
-1.63034e-08
-7.22274e-09
7.48177e-09
-1.5106e-08
-3.10146e-09
7.74834e-09
-1.4371e-08
8.24775e-10
8.95992e-09
-1.3571e-08
3.0226e-09
1.01558e-08
-1.13064e-08
9.95803e-09
-4.74163e-09
-3.53325e-09
1.29376e-08
-3.30017e-09
-1.22413e-09
1.40479e-08
-1.032e-08
2.94384e-09
1.38292e-08
-1.29938e-08
7.37551e-09
1.37406e-08
-1.41527e-08
1.16752e-08
1.44739e-08
-1.51444e-08
1.58343e-08
1.62379e-08
-1.6478e-08
1.99292e-08
1.92314e-08
-1.83872e-08
2.39405e-08
2.38106e-08
-2.09938e-08
2.76674e-08
3.03808e-08
-2.43587e-08
3.05195e-08
3.97224e-08
-2.85056e-08
3.19071e-08
5.14302e-08
-3.32804e-08
3.08862e-08
6.56827e-08
-3.84271e-08
2.81745e-08
7.80406e-08
-4.33105e-08
2.41275e-08
8.86557e-08
-4.76065e-08
1.93413e-08
9.66125e-08
-5.11082e-08
1.40328e-08
1.02538e-07
-5.37685e-08
8.42624e-09
1.06371e-07
-5.55544e-08
2.68186e-09
1.08306e-07
-5.64829e-08
-3.03886e-09
1.0835e-07
-5.65509e-08
-8.57427e-09
1.06503e-07
-5.57581e-08
-1.3765e-08
1.02759e-07
-5.41076e-08
-1.83851e-08
9.69276e-08
-5.15846e-08
-2.2219e-08
8.9085e-08
-4.8226e-08
-2.46663e-08
7.8614e-08
-4.40893e-08
-2.53968e-08
6.64783e-08
-3.93991e-08
-2.36543e-08
5.2547e-08
-3.44847e-08
-2.03916e-08
4.13649e-08
-3.00154e-08
-1.61348e-08
3.2704e-08
-2.62591e-08
-1.14224e-08
2.7079e-08
-2.33694e-08
-6.4271e-09
2.37534e-08
-2.12669e-08
-1.313e-09
2.23132e-08
-1.9679e-08
3.37091e-09
2.22333e-08
-1.79573e-08
5.52629e-09
2.23603e-08
-1.43598e-08
2.05759e-08
-5.09157e-09
-4.80177e-09
2.04255e-08
-2.68614e-09
-2.38676e-09
2.24235e-08
-1.07907e-08
2.4251e-09
2.29358e-08
-1.39185e-08
7.68423e-09
2.38229e-08
-1.53414e-08
1.29133e-08
2.58299e-08
-1.65851e-08
1.81383e-08
2.9234e-08
-1.82211e-08
2.35447e-08
3.43581e-08
-2.0533e-08
2.92187e-08
4.18172e-08
-2.36806e-08
3.49302e-08
5.24025e-08
-2.77331e-08
3.96904e-08
6.77014e-08
-3.27392e-08
4.22497e-08
8.73677e-08
-3.84968e-08
4.04836e-08
1.12273e-07
-4.48246e-08
3.62472e-08
1.3305e-07
-5.07732e-08
3.03805e-08
1.50523e-07
-5.60009e-08
2.3907e-08
1.63344e-07
-6.02576e-08
1.70133e-08
1.72905e-07
-6.34732e-08
9.90304e-09
1.79094e-07
-6.56126e-08
2.68999e-09
1.8224e-07
-6.67205e-08
-4.49898e-09
1.82336e-07
-6.67964e-08
-1.15359e-08
1.79379e-07
-6.58399e-08
-1.83057e-08
1.7338e-07
-6.38506e-08
-2.45976e-08
1.64006e-07
-6.07861e-08
-3.02214e-08
1.51394e-07
-5.66851e-08
-3.41402e-08
1.34162e-07
-5.1629e-08
-3.55187e-08
1.13743e-07
-4.58857e-08
-3.24672e-08
8.93112e-08
-3.98157e-08
-2.71342e-08
7.04294e-08
-3.43975e-08
-2.06613e-08
5.6047e-08
-2.98159e-08
-1.39763e-08
4.66594e-08
-2.62654e-08
-7.30803e-09
4.07131e-08
-2.3628e-08
-8.27671e-10
3.74249e-08
-2.15921e-08
4.86303e-09
3.59985e-08
-1.94559e-08
7.23346e-09
3.52101e-08
-1.52202e-08
3.22649e-08
-4.45559e-09
-5.50959e-09
2.78428e-08
-1.90772e-09
-2.66225e-09
3.05157e-08
-1.09395e-08
3.08081e-09
3.164e-08
-1.44472e-08
9.49088e-09
3.34718e-08
-1.6059e-08
1.60488e-08
3.6779e-08
-1.7507e-08
2.28754e-08
4.18448e-08
-1.94374e-08
3.03543e-08
4.90515e-08
-2.21724e-08
3.88125e-08
5.92588e-08
-2.58998e-08
4.80529e-08
7.38222e-08
-3.06602e-08
5.6484e-08
9.58046e-08
-3.65343e-08
6.14523e-08
1.25617e-07
-4.32174e-08
5.80517e-08
1.66574e-07
-5.08999e-08
5.07719e-08
1.98348e-07
-5.80177e-08
4.15446e-08
2.24101e-07
-6.43503e-08
3.20901e-08
2.42324e-07
-6.95262e-08
2.24032e-08
2.55961e-07
-7.33695e-08
1.26122e-08
2.64768e-07
-7.58827e-08
2.75685e-09
2.69271e-07
-7.71754e-08
-7.07526e-09
2.69424e-07
-7.72563e-08
-1.67945e-08
2.65223e-07
-7.61244e-08
-2.63565e-08
2.5671e-07
-7.37689e-08
-3.56171e-08
2.43349e-07
-7.00829e-08
-4.45682e-08
2.25411e-07
-6.50661e-08
-5.14575e-08
1.9996e-07
-5.89091e-08
-5.43518e-08
1.68642e-07
-5.20053e-08
-4.87106e-08
1.28266e-07
-4.45958e-08
-3.9544e-08
9.95477e-08
-3.82849e-08
-2.93131e-08
7.86866e-08
-3.28705e-08
-1.95371e-08
6.55364e-08
-2.8653e-08
-1.04299e-08
5.70835e-08
-2.54776e-08
-2.01192e-09
5.20474e-08
-2.30404e-08
5.13027e-09
4.94123e-08
-2.0556e-08
8.18514e-09
4.78997e-08
-1.57445e-08
4.4076e-08
-3.62588e-09
-5.83145e-09
3.48135e-08
-1.13927e-09
-2.15042e-09
3.80231e-08
-1.11884e-08
4.92065e-09
3.96986e-08
-1.51297e-08
1.28797e-08
4.24661e-08
-1.69534e-08
2.11797e-08
4.7118e-08
-1.86389e-08
3.00994e-08
5.38546e-08
-2.09296e-08
4.03443e-08
6.29824e-08
-2.41757e-08
5.27695e-08
7.54087e-08
-2.85752e-08
6.75199e-08
9.3119e-08
-3.40472e-08
8.25599e-08
1.21436e-07
-4.06718e-08
9.25711e-08
1.63302e-07
-4.76961e-08
8.57568e-08
2.30146e-07
-5.67578e-08
7.3007e-08
2.76204e-07
-6.51061e-08
5.8385e-08
3.11667e-07
-7.29437e-08
4.44717e-08
3.357e-07
-7.94627e-08
3.06224e-08
3.53904e-07
-8.4094e-08
1.67783e-08
3.65649e-07
-8.7037e-08
2.88952e-09
3.71696e-07
-8.85368e-08
-1.098e-08
3.71917e-07
-8.8623e-08
-2.47631e-08
3.663e-07
-8.72939e-08
-3.85021e-08
3.54966e-07
-8.45164e-08
-5.2228e-08
3.37124e-07
-8.00491e-08
-6.65561e-08
3.13432e-07
-7.36927e-08
-7.88388e-08
2.78279e-07
-6.60362e-08
-8.50011e-08
2.32721e-07
-5.79168e-08
-7.40612e-08
1.66465e-07
-4.91389e-08
-5.81561e-08
1.26172e-07
-4.2529e-08
-4.21948e-08
9.91353e-08
-3.64101e-08
-2.81158e-08
8.30033e-08
-3.15459e-08
-1.5805e-08
7.25476e-08
-2.77749e-08
-4.82771e-09
6.59605e-08
-2.48904e-08
4.35146e-09
6.22333e-08
-2.20002e-08
8.65857e-09
6.00958e-08
-1.65032e-08
5.55544e-08
-2.81989e-09
-5.89855e-09
4.11115e-08
-3.99372e-10
-9.19072e-10
4.47109e-08
-1.16672e-08
7.94152e-09
4.69951e-08
-1.61571e-08
1.7902e-08
5.07583e-08
-1.82528e-08
2.83408e-08
5.69113e-08
-2.02321e-08
3.97022e-08
6.54463e-08
-2.2953e-08
5.31146e-08
7.63457e-08
-2.67756e-08
7.04326e-08
8.99698e-08
-3.18791e-08
9.29558e-08
1.08522e-07
-3.79261e-08
1.19008e-07
1.40181e-07
-4.47969e-08
1.40197e-07
1.92735e-07
-5.0623e-08
1.25978e-07
3.04956e-07
-6.05898e-08
1.03723e-07
3.68155e-07
-6.9697e-08
8.11806e-08
4.13838e-07
-7.96291e-08
6.13299e-08
4.43771e-07
-8.82201e-08
4.19187e-08
4.66987e-07
-9.36711e-08
2.25487e-08
4.82053e-07
-9.70347e-08
3.10013e-09
4.89879e-07
-9.87341e-08
-1.63381e-08
4.90181e-07
-9.8826e-08
-3.56739e-08
4.82944e-07
-9.73079e-08
-5.50183e-08
4.68428e-07
-9.4118e-08
-7.47295e-08
4.45675e-07
-8.88399e-08
-9.70057e-08
4.16124e-07
-8.04159e-08
-1.18731e-07
3.70682e-07
-7.0678e-08
-1.32123e-07
3.07946e-07
-6.18325e-08
-1.09593e-07
1.96093e-07
-5.21583e-08
-8.26487e-08
1.46032e-07
-4.68044e-08
-5.87258e-08
1.15699e-07
-4.04863e-08
-3.93587e-08
9.87735e-08
-3.51372e-08
-2.33026e-08
8.72602e-08
-3.07687e-08
-9.20477e-09
7.926e-08
-2.73973e-08
2.65864e-09
7.43867e-08
-2.40168e-08
8.84719e-09
7.15517e-08
-1.76444e-08
6.64089e-08
-2.00731e-09
-5.7738e-09
4.64537e-08
4.31557e-10
9.73745e-10
5.03612e-08
-1.23979e-08
1.23163e-08
5.32623e-08
-1.76098e-08
2.4893e-08
5.82218e-08
-2.00402e-08
3.79501e-08
6.6235e-08
-2.23808e-08
5.19302e-08
7.70795e-08
-2.56133e-08
6.8169e-08
9.02043e-08
-3.00974e-08
8.975e-08
1.04394e-07
-3.60048e-08
1.20428e-07
1.20318e-07
-4.24738e-08
1.64367e-07
1.45766e-07
-4.95237e-08
2.10803e-07
1.95031e-07
-4.87321e-08
1.81286e-07
3.91295e-07
-5.6823e-08
1.44587e-07
4.71264e-07
-6.64096e-08
1.11783e-07
5.26885e-07
-8.02432e-08
8.46437e-08
5.63252e-07
-9.2342e-08
5.785e-08
5.92377e-07
-9.8597e-08
3.07521e-08
6.11497e-07
-1.02346e-07
3.41336e-09
6.21451e-07
-1.04233e-07
-2.39298e-08
6.21854e-07
-1.0433e-07
-5.1041e-08
6.1269e-07
-1.02635e-07
-7.78559e-08
5.94311e-07
-9.90678e-08
-1.04981e-07
5.65798e-07
-9.29983e-08
-1.37665e-07
5.29884e-07
-8.10759e-08
-1.73884e-07
4.74364e-07
-6.74634e-08
-2.02333e-07
3.94624e-07
-5.82282e-08
-1.53833e-07
1.97971e-07
-5.03779e-08
-1.09233e-07
1.53078e-07
-5.16467e-08
-7.69821e-08
1.28674e-07
-4.5226e-08
-5.28443e-08
1.14232e-07
-3.95959e-08
-3.31811e-08
1.02176e-07
-3.45791e-08
-1.55002e-08
9.2252e-08
-3.06729e-08
-1.73674e-10
8.57611e-08
-2.6701e-08
8.7259e-09
8.18568e-08
-1.92048e-08
7.6225e-08
-1.09017e-09
-5.47584e-09
5.04692e-08
1.46039e-09
3.6401e-09
5.4644e-08
-1.33988e-08
1.81856e-08
5.82319e-08
-1.95151e-08
3.41227e-08
6.46356e-08
-2.23509e-08
5.04052e-08
7.50611e-08
-2.51087e-08
6.71062e-08
8.92696e-08
-2.8891e-08
8.50758e-08
1.06307e-07
-3.40722e-08
1.07859e-07
1.22408e-07
-4.07983e-08
1.42375e-07
1.34076e-07
-4.82737e-08
2.13487e-07
1.28736e-07
-5.40823e-08
3.1127e-07
1.50693e-07
-5.34436e-08
2.50257e-07
4.98245e-07
-4.59368e-08
1.92392e-07
5.81052e-07
-5.19229e-08
1.48632e-07
6.41961e-07
-7.1316e-08
1.1356e-07
6.86347e-07
-8.80221e-08
7.7949e-08
7.22364e-07
-9.4376e-08
4.12074e-08
7.46971e-07
-9.87322e-08
3.8607e-09
7.59694e-07
-1.00897e-07
-3.351e-08
7.60218e-07
-1.00993e-07
-7.03309e-08
7.48527e-07
-9.90167e-08
-1.06096e-07
7.2491e-07
-9.48337e-08
-1.41382e-07
6.89748e-07
-8.8664e-08
-1.85362e-07
6.45987e-07
-7.21227e-08
-2.43053e-07
5.85034e-07
-5.29789e-08
-3.02519e-07
5.01533e-07
-4.74432e-08
-2.01478e-07
1.52499e-07
-5.55687e-08
-1.30984e-07
1.39058e-07
-5.6474e-08
-9.44829e-08
1.43441e-07
-5.12684e-08
-6.84312e-08
1.33004e-07
-4.48238e-08
-4.59726e-08
1.18914e-07
-3.91966e-08
-2.41963e-08
1.05259e-07
-3.47838e-08
-4.17978e-09
9.59649e-08
-3.02203e-08
8.28634e-09
9.05945e-08
-2.12038e-08
8.46305e-08
-1.1913e-10
-4.79502e-09
5.27397e-08
2.5245e-09
7.48173e-09
5.70628e-08
-1.46955e-08
2.63493e-08
6.12637e-08
-2.18993e-08
4.71655e-08
6.90711e-08
-2.52517e-08
6.86152e-08
8.21577e-08
-2.85463e-08
8.9952e-08
1.00955e-07
-3.30224e-08
1.10326e-07
1.25007e-07
-3.9074e-08
1.29665e-07
1.50842e-07
-4.77728e-08
1.45825e-07
1.74588e-07
-5.66723e-08
2.00014e-07
1.46995e-07
-7.24479e-08
4.32801e-07
-8.20948e-08
3.41596e-07
6.03241e-07
-1.37914e-08
2.60301e-07
6.69665e-07
-7.31827e-09
2.05691e-07
7.2238e-07
-2.58086e-08
1.60456e-07
7.76185e-07
-4.46032e-08
1.10526e-07
8.18713e-07
-4.64196e-08
5.78655e-08
8.4864e-07
-4.90081e-08
4.49966e-09
8.63678e-07
-5.06185e-08
-4.89009e-08
8.64304e-07
-5.0685e-08
-1.01688e-07
8.50522e-07
-4.92073e-08
-1.51905e-07
8.21849e-07
-4.67217e-08
-1.97639e-07
7.80554e-07
-4.50721e-08
-2.53064e-07
7.27814e-07
-2.64027e-08
-3.35684e-07
6.75749e-07
-8.09531e-09
-4.26417e-07
6.07514e-07
-1.52474e-08
-1.88736e-07
-8.5182e-08
-1.32974e-07
1.57444e-07
-7.41486e-08
-1.15852e-07
1.85722e-07
-5.94019e-08
-9.26638e-08
1.61997e-07
-5.21819e-08
-6.65441e-08
1.37815e-07
-4.50204e-08
-3.8403e-08
1.17176e-07
-4.00573e-08
-1.13167e-08
1.0368e-07
-3.48011e-08
6.81973e-09
9.63935e-08
-2.39354e-08
9.00733e-08
1.37688e-09
-3.896e-09
5.30355e-08
3.60022e-09
1.21056e-08
5.73237e-08
-1.62625e-08
3.61564e-08
6.19361e-08
-2.47233e-08
6.31829e-08
7.07517e-08
-2.87071e-08
9.18762e-08
8.60986e-08
-3.26342e-08
1.20476e-07
1.09947e-07
-3.75916e-08
1.43333e-07
1.45764e-07
-4.36141e-08
1.45431e-07
1.98166e-07
-4.94216e-08
1.12329e-07
2.74336e-07
-6.66455e-08
3.72159e-07
-1.12835e-07
1.94413e-07
3.26999e-07
8.18291e-08
2.6046e-07
5.55137e-07
4.84818e-08
2.57018e-07
6.84881e-07
4.09416e-08
2.1024e-07
7.80592e-07
4.23704e-08
1.45824e-07
8.44383e-07
3.87459e-08
7.63412e-08
8.84361e-07
3.37618e-08
5.31997e-09
9.03468e-07
3.12313e-08
-6.57425e-08
9.04132e-07
3.12344e-08
-1.35371e-07
8.86387e-07
3.37636e-08
-2.00143e-07
8.47865e-07
3.87561e-08
-2.47753e-07
7.85747e-07
4.24166e-08
-2.5312e-07
6.9208e-07
4.11002e-08
-1.90279e-07
5.64549e-07
4.83593e-08
3.36796e-07
8.04388e-08
-1.08602e-07
3.75723e-07
-1.09677e-07
-1.35794e-07
2.81843e-07
-6.89284e-08
-1.26772e-07
2.07514e-07
-5.45396e-08
-9.57608e-08
1.57592e-07
-5.07876e-08
-5.79557e-08
1.25613e-07
-4.62427e-08
-2.11928e-08
1.0744e-07
-4.05232e-08
4.44745e-09
9.82482e-08
-2.74949e-08
9.17825e-08
2.73828e-09
-2.50149e-09
5.08908e-08
4.64612e-09
1.7914e-08
5.49282e-08
-1.802e-08
4.85994e-08
5.91275e-08
-2.78768e-08
8.49514e-08
6.71018e-08
-3.2702e-08
1.28026e-07
8.07504e-08
-3.77266e-08
1.80987e-07
1.01203e-07
-4.42164e-08
2.49172e-07
1.29625e-07
-5.20469e-08
3.39274e-07
1.66138e-07
-5.8074e-08
4.64423e-07
2.09048e-07
-5.98618e-08
6.19831e-07
2.5859e-07
-4.18384e-08
4.84789e-07
8.63173e-08
4.87243e-08
4.9032e-07
2.32002e-07
8.94672e-08
4.68906e-07
4.17804e-07
1.58747e-07
3.99653e-07
5.36806e-07
2.17327e-07
3.04396e-07
6.25594e-07
2.50254e-07
2.02515e-07
6.84329e-07
2.61935e-07
1.03159e-07
7.2087e-07
2.62848e-07
6.15589e-09
7.38404e-07
2.62068e-07
-9.08253e-08
7.3899e-07
2.62123e-07
-1.90108e-07
7.22652e-07
2.63017e-07
-2.91872e-07
6.87368e-07
2.62262e-07
-3.87017e-07
6.29982e-07
2.5091e-07
-4.56217e-07
5.4261e-07
2.1867e-07
-4.7729e-07
4.24653e-07
1.60969e-07
-4.73858e-07
2.4004e-07
9.33249e-08
-6.14262e-07
8.80006e-08
5.24036e-08
-4.58762e-07
2.61448e-07
-4.12256e-08
-3.29271e-07
2.15141e-07
-6.27893e-08
-2.3232e-07
1.74511e-07
-6.39476e-08
-1.54794e-07
1.40735e-07
-6.06698e-08
-9.05868e-08
1.16232e-07
-5.48265e-08
-3.68129e-08
1.01384e-07
-4.77183e-08
-5.48495e-10
9.38906e-08
-3.19067e-08
8.73816e-08
3.85241e-09
-1.496e-09
4.67289e-08
5.65794e-09
2.27218e-08
5.03576e-08
-1.96471e-08
5.88912e-08
5.38191e-08
-3.08611e-08
1.02243e-07
6.02456e-08
-3.64954e-08
1.5454e-07
7.096e-08
-4.25072e-08
2.19808e-07
8.62563e-08
-5.03204e-08
3.03232e-07
1.05719e-07
-5.95175e-08
4.0827e-07
1.27867e-07
-6.67671e-08
5.37069e-07
1.47814e-07
-6.75655e-08
6.83197e-07
1.63504e-07
-5.10417e-08
6.79856e-07
1.05987e-07
-1.6328e-08
6.64564e-07
1.93584e-07
5.37099e-08
6.0431e-07
3.06389e-07
1.71668e-07
4.98376e-07
3.91182e-07
2.51558e-07
3.73631e-07
4.56118e-07
2.94222e-07
2.46436e-07
4.9856e-07
3.12964e-07
1.24528e-07
5.2509e-07
3.17688e-07
6.82209e-09
5.37802e-07
3.18308e-07
-1.10841e-07
5.38283e-07
3.1837e-07
-2.32613e-07
5.26539e-07
3.17886e-07
-3.59597e-07
5.00991e-07
3.13361e-07
-4.84161e-07
4.59528e-07
2.95016e-07
-5.90272e-07
3.95524e-07
2.53197e-07
-6.51442e-07
3.11376e-07
1.74447e-07
-6.68552e-07
1.98797e-07
5.83527e-08
-6.75929e-07
1.08694e-07
-1.33164e-08
-5.30924e-07
1.67466e-07
-5.10226e-08
-3.98316e-07
1.53538e-07
-7.10054e-08
-2.85907e-07
1.35604e-07
-7.35016e-08
-1.91797e-07
1.1609e-07
-6.9465e-08
-1.1325e-07
1.00358e-07
-6.26725e-08
-4.77654e-08
9.02116e-08
-5.43116e-08
-2.78614e-09
8.49246e-08
-3.60133e-08
7.9263e-08
5.33245e-09
-6.94131e-10
4.08273e-08
6.59578e-09
2.66695e-08
4.39935e-08
-2.09995e-08
6.73593e-08
4.65621e-08
-3.34327e-08
1.16171e-07
5.12217e-08
-3.97879e-08
1.75e-07
5.88365e-08
-4.67052e-08
2.47871e-07
6.92877e-08
-5.59026e-08
3.3898e-07
8.17149e-08
-6.71055e-08
4.49656e-07
9.49024e-08
-7.77112e-08
5.75458e-07
1.05146e-07
-8.31335e-08
6.9972e-07
1.1424e-07
-7.49987e-08
7.49185e-07
1.03147e-07
-4.66257e-08
7.56588e-07
1.53664e-07
3.25173e-08
6.8586e-07
2.20763e-07
1.56355e-07
5.63552e-07
2.75912e-07
2.37579e-07
4.19105e-07
3.18918e-07
2.81647e-07
2.74942e-07
3.46977e-07
2.95746e-07
1.3841e-07
3.6474e-07
2.96881e-07
7.33681e-09
3.73297e-07
2.95578e-07
-1.23686e-07
3.73699e-07
2.95606e-07
-2.60062e-07
3.65942e-07
2.96973e-07
-4.04001e-07
3.48957e-07
2.95973e-07
-5.48316e-07
3.21626e-07
2.82217e-07
-6.71042e-07
2.79274e-07
2.38977e-07
-7.43134e-07
2.24558e-07
1.5891e-07
-7.39007e-07
1.57698e-07
3.69719e-08
-6.9282e-07
1.06406e-07
-4.38985e-08
-5.68738e-07
1.18361e-07
-7.49773e-08
-4.38993e-07
1.10551e-07
-8.67576e-08
-3.20448e-07
1.02031e-07
-8.49718e-08
-2.17559e-07
9.11956e-08
-7.79942e-08
-1.29723e-07
8.20608e-08
-6.95384e-08
-5.57036e-08
7.60017e-08
-5.98099e-08
-4.26435e-09
7.27661e-08
-3.92808e-08
6.81091e-08
6.88955e-09
-3.52377e-10
3.3772e-08
7.40763e-09
2.92856e-08
3.64129e-08
-2.20574e-08
7.31414e-08
3.8193e-08
-3.54867e-08
1.25435e-07
4.13483e-08
-4.24204e-08
1.87866e-07
4.64518e-08
-5.00464e-08
2.64197e-07
5.32818e-08
-6.03251e-08
3.57905e-07
6.10856e-08
-7.30783e-08
4.69554e-07
6.92193e-08
-8.5966e-08
5.92942e-07
7.57779e-08
-9.40203e-08
7.12346e-07
8.37145e-08
-8.8879e-08
7.88565e-07
8.79895e-08
-6.10612e-08
8.08411e-07
1.19577e-07
1.42416e-08
7.32539e-07
1.60994e-07
1.35641e-07
6.01454e-07
1.96245e-07
2.10752e-07
4.46392e-07
2.2405e-07
2.49929e-07
2.92546e-07
2.42574e-07
2.58248e-07
1.47169e-07
2.54463e-07
2.55654e-07
7.74314e-09
2.60277e-07
2.52446e-07
-1.31642e-07
2.60648e-07
2.52436e-07
-2.76894e-07
2.55563e-07
2.55632e-07
-4.30575e-07
2.44358e-07
2.58279e-07
-5.85609e-07
2.26442e-07
2.50219e-07
-7.17298e-07
1.9915e-07
2.11813e-07
-7.94846e-07
1.64252e-07
1.37853e-07
-7.78726e-07
1.23154e-07
1.84248e-08
-7.05221e-07
9.14159e-08
-5.85151e-08
-5.85607e-07
8.77793e-08
-8.90322e-08
-4.57975e-07
8.07874e-08
-9.78691e-08
-3.37915e-07
7.5612e-08
-9.36415e-08
-2.31495e-07
6.94123e-08
-8.46366e-08
-1.38879e-07
6.42871e-08
-7.48421e-08
-5.98289e-08
6.09257e-08
-6.39741e-08
-4.50623e-09
5.90868e-08
-4.16434e-08
5.54108e-08
8.19207e-09
-2.99322e-10
2.59894e-08
8.0819e-09
3.09696e-08
2.80154e-08
-2.28715e-08
7.70279e-08
2.91741e-08
-3.70394e-08
1.31604e-07
3.11734e-08
-4.44014e-08
1.9618e-07
3.44218e-08
-5.25455e-08
2.74305e-07
3.87673e-08
-6.36111e-08
3.69114e-07
4.37626e-08
-7.74859e-08
4.81048e-07
4.92126e-08
-9.19265e-08
6.0414e-07
5.43742e-08
-1.01688e-07
7.24608e-07
6.15782e-08
-9.83319e-08
8.13603e-07
6.94921e-08
-7.04973e-08
8.39992e-07
9.0239e-08
2.94822e-09
7.62053e-07
1.16231e-07
1.22701e-07
6.25801e-07
1.38951e-07
1.93545e-07
4.64049e-07
1.57051e-07
2.28752e-07
3.04004e-07
1.69458e-07
2.33161e-07
1.52932e-07
1.77546e-07
2.27989e-07
8.11233e-09
1.81608e-07
2.23489e-07
-1.36682e-07
1.81984e-07
2.23459e-07
-2.87677e-07
1.78655e-07
2.27902e-07
-4.47636e-07
1.71238e-07
2.33079e-07
-6.09473e-07
1.59403e-07
2.28877e-07
-7.4648e-07
1.41752e-07
1.94405e-07
-8.26246e-07
1.19316e-07
1.24702e-07
-8.03821e-07
9.34623e-08
7.26624e-09
-7.17189e-07
7.28647e-08
-6.80803e-08
-5.96206e-07
6.53938e-08
-9.85974e-08
-4.6854e-07
5.88346e-08
-1.05714e-07
-3.477e-07
5.46722e-08
-9.99002e-08
-2.39434e-07
5.06479e-08
-8.95007e-08
-1.44057e-07
4.76154e-08
-7.87061e-08
-6.1917e-08
4.57544e-08
-6.69682e-08
-4.26344e-09
4.47232e-08
-4.329e-08
4.19648e-08
9.18259e-09
-3.672e-10
1.78038e-08
8.55288e-09
3.19308e-08
1.9181e-08
-2.34636e-08
7.9395e-08
1.98532e-08
-3.81433e-08
1.35375e-07
2.09857e-08
-4.57926e-08
2.01195e-07
2.28728e-08
-5.4271e-08
2.80313e-07
2.54804e-08
-6.58305e-08
3.75809e-07
2.86555e-08
-8.03888e-08
4.88292e-07
3.24423e-08
-9.57128e-08
6.12363e-07
3.66957e-08
-1.06393e-07
7.35039e-07
4.27405e-08
-1.03839e-07
8.30394e-07
5.02484e-08
-7.61111e-08
8.6048e-07
6.34985e-08
-3.34526e-09
7.81207e-07
7.91138e-08
1.1639e-07
6.41654e-07
9.30426e-08
1.85462e-07
4.75735e-07
1.04242e-07
2.18728e-07
3.11732e-07
1.12215e-07
2.21245e-07
1.56915e-07
1.17522e-07
2.14841e-07
8.48101e-09
1.2031e-07
2.09731e-07
-1.39949e-07
1.2072e-07
2.09694e-07
-2.94753e-07
1.18725e-07
2.14733e-07
-4.58771e-07
1.1413e-07
2.21126e-07
-6.24908e-07
1.06746e-07
2.18793e-07
-7.65375e-07
9.59736e-08
1.86245e-07
-8.4669e-07
8.23031e-08
1.18328e-07
-8.20427e-07
6.68423e-08
3.57092e-10
-7.2734e-07
5.35552e-08
-7.37775e-08
-6.03947e-07
4.62253e-08
-1.04224e-07
-4.75028e-07
4.05074e-08
-1.10592e-07
-3.5325e-07
3.68306e-08
-1.03936e-07
-2.43761e-07
3.3903e-08
-9.27443e-08
-1.46739e-07
3.19221e-08
-8.13289e-08
-6.27782e-08
3.08112e-08
-6.90175e-08
-3.832e-09
3.01995e-08
-4.44224e-08
2.83292e-08
9.80352e-09
-4.50664e-10
9.44254e-09
8.81189e-09
3.24291e-08
1.01692e-08
-2.3868e-08
8.0719e-08
1.04183e-08
-3.8855e-08
1.37542e-07
1.08316e-08
-4.66688e-08
2.04147e-07
1.15989e-08
-5.53315e-08
2.83978e-07
1.28062e-08
-6.71566e-08
3.80149e-07
1.45608e-08
-8.20763e-08
4.93406e-07
1.70316e-08
-9.78459e-08
6.1867e-07
2.04e-08
-1.08969e-07
7.43166e-07
2.49837e-08
-1.0674e-07
8.41681e-07
3.07597e-08
-7.90256e-08
8.73457e-07
3.78463e-08
-6.12466e-09
7.93355e-07
4.50849e-08
1.14132e-07
6.51769e-07
5.16699e-08
1.82958e-07
4.83325e-07
5.70207e-08
2.15666e-07
3.16848e-07
6.11323e-08
2.1756e-07
1.59646e-07
6.39978e-08
2.10726e-07
8.87984e-09
6.56715e-08
2.05405e-07
-1.41909e-07
6.6139e-08
2.0537e-07
-2.99177e-07
6.53694e-08
2.10623e-07
-4.65795e-07
6.33042e-08
2.17444e-07
-6.34616e-07
5.98366e-08
2.15731e-07
-7.77279e-07
5.49075e-08
1.83729e-07
-8.59548e-07
4.85174e-08
1.16055e-07
-8.3171e-07
4.12558e-08
-2.25245e-09
-7.3536e-07
3.39776e-08
-7.67724e-08
-6.1e-07
2.812e-08
-1.07254e-07
-4.7969e-07
2.35375e-08
-1.1334e-07
-3.5688e-07
2.03087e-08
-1.06289e-07
-2.4638e-07
1.81052e-08
-9.47022e-08
-1.48257e-07
1.67559e-08
-8.29567e-08
-6.31881e-08
1.60663e-08
-7.03237e-08
-3.5118e-09
1.57051e-08
-4.51819e-08
1.47141e-08
1.01034e-08
-5.42911e-10
1.12243e-09
8.86302e-09
3.25607e-08
1.17954e-09
-2.41139e-08
8.11834e-08
1.00631e-09
-3.92107e-08
1.38396e-07
6.95411e-10
-4.70759e-08
2.05455e-07
3.28516e-10
-5.57887e-08
2.85844e-07
9.62423e-11
-6.76793e-08
3.82717e-07
3.74388e-10
-8.26867e-08
4.96847e-07
1.45648e-09
-9.85549e-08
6.23142e-07
3.87596e-09
-1.09771e-07
7.48683e-07
7.04574e-09
-1.07603e-07
8.4805e-07
1.13104e-08
-7.99172e-08
8.80005e-07
1.28038e-08
-6.91338e-09
7.99369e-07
1.19024e-08
1.13819e-07
6.56827e-07
1.12209e-08
1.82991e-07
4.87278e-07
1.07127e-08
2.15858e-07
3.19645e-07
1.09497e-08
2.17815e-07
1.6128e-07
1.13731e-08
2.1099e-07
9.33249e-09
1.19497e-08
2.05669e-07
-1.42671e-07
1.25056e-08
2.05637e-07
-3.01202e-07
1.30055e-08
2.10894e-07
-4.69133e-07
1.35283e-08
2.17707e-07
-6.39266e-07
1.40424e-08
2.15928e-07
-7.83103e-07
1.49928e-08
1.83751e-07
-8.66096e-07
1.57933e-08
1.15717e-07
-8.382e-07
1.64271e-08
-3.06705e-09
-7.40959e-07
1.45166e-08
-7.77796e-08
-6.14478e-07
9.91842e-09
-1.0828e-07
-4.83038e-07
6.43153e-09
-1.14335e-07
-3.59238e-07
3.7241e-09
-1.07215e-07
-2.47901e-07
2.31774e-09
-9.55494e-08
-1.4907e-07
1.65047e-09
-8.37262e-08
-6.34162e-08
1.41168e-09
-7.0999e-08
-3.38798e-09
1.32077e-09
-4.56439e-08
1.22341e-09
1.01027e-08
-6.12337e-10
-6.9615e-09
8.69627e-09
3.23267e-08
-7.56165e-09
-2.41979e-08
8.07827e-08
-8.23355e-09
-3.92161e-08
1.37927e-07
-9.42613e-09
-4.70231e-08
2.05102e-07
-1.11874e-08
-5.56583e-08
2.85857e-07
-1.32301e-08
-6.74294e-08
3.83421e-07
-1.49327e-08
-8.22566e-08
4.98521e-07
-1.57606e-08
-9.78834e-08
6.2575e-07
-1.45013e-08
-1.08852e-07
7.51702e-07
-1.24062e-08
-1.065e-07
8.49745e-07
-7.83458e-09
-7.88977e-08
8.80244e-07
-1.18206e-08
-5.87481e-09
7.99258e-07
-2.22084e-08
1.15097e-07
6.56796e-07
-3.13898e-08
1.85073e-07
4.87567e-07
-3.87861e-08
2.18728e-07
3.20117e-07
-4.29803e-08
2.21379e-07
1.61826e-07
-4.53013e-08
2.14966e-07
9.86354e-09
-4.5926e-08
2.09838e-07
-1.42195e-07
-4.52396e-08
2.09804e-07
-3.00772e-07
-4.32793e-08
2.14861e-07
-4.68714e-07
-3.97788e-08
2.2125e-07
-6.38795e-07
-3.46332e-08
2.18756e-07
-7.82849e-07
-2.67081e-08
1.85755e-07
-8.66479e-07
-1.74452e-08
1.16869e-07
-8.40165e-07
-7.61997e-09
-2.2669e-09
-7.44256e-07
-4.42275e-09
-7.69704e-08
-6.17354e-07
-9.57799e-09
-1.07406e-07
-4.84984e-07
-1.2286e-08
-1.13652e-07
-3.60247e-07
-1.42417e-08
-1.06771e-07
-2.48276e-07
-1.43273e-08
-9.53266e-08
-1.49148e-07
-1.3811e-08
-8.3666e-08
-6.3443e-08
-1.32295e-08
-7.10642e-08
-3.44653e-09
-1.28533e-08
-4.58224e-08
-1.20213e-08
9.79816e-09
-7.08787e-10
-1.4568e-08
8.31528e-09
3.16216e-08
-1.57819e-08
-2.41101e-08
7.93237e-08
-1.70855e-08
-3.88501e-08
1.35809e-07
-1.9429e-08
-4.64827e-08
2.02579e-07
-2.30575e-08
-5.48993e-08
2.83351e-07
-2.76684e-08
-6.63341e-08
3.81515e-07
-3.24057e-08
-8.06911e-08
4.97787e-07
-3.63421e-08
-9.56899e-08
6.26295e-07
-3.70144e-08
-1.05995e-07
7.52703e-07
-3.57598e-08
-1.03055e-07
8.46689e-07
-2.63364e-08
-7.54837e-08
8.73367e-07
-3.62078e-08
-2.29144e-09
7.92157e-07
-6.02818e-08
1.19284e-07
6.50967e-07
-8.13193e-08
1.91119e-07
4.83736e-07
-9.82233e-08
2.26668e-07
3.18005e-07
-1.08363e-07
2.31113e-07
1.61189e-07
-1.14289e-07
2.25804e-07
1.05207e-08
-1.16454e-07
2.21196e-07
-1.4029e-07
-1.15564e-07
2.21135e-07
-2.97533e-07
-1.11651e-07
2.25615e-07
-4.63995e-07
-1.04153e-07
2.30836e-07
-6.32426e-07
-9.26862e-08
2.26484e-07
-7.75613e-07
-7.50439e-08
1.91523e-07
-8.59893e-07
-5.38804e-08
1.20715e-07
-8.37568e-07
-3.07621e-08
8.17142e-10
-7.45691e-07
-2.23872e-08
-7.39128e-08
-6.18365e-07
-3.25825e-08
-1.04321e-07
-4.8482e-07
-3.47033e-08
-1.11127e-07
-3.59102e-07
-3.51078e-08
-1.04852e-07
-2.46807e-07
-3.26631e-08
-9.39594e-08
-1.47996e-07
-2.99132e-08
-8.2709e-08
-6.29792e-08
-2.77906e-08
-7.04555e-08
-3.58426e-09
-2.6575e-08
-4.56733e-08
-2.47663e-08
9.16081e-09
-9.76685e-10
-2.13229e-08
7.73157e-09
3.01894e-08
-2.31154e-08
-2.38326e-08
7.63453e-08
-2.51668e-08
-3.80746e-08
1.31261e-07
-2.89418e-08
-4.54032e-08
1.9664e-07
-3.5002e-08
-5.34343e-08
2.76467e-07
-4.32271e-08
-6.42679e-08
3.74603e-07
-5.27845e-08
-7.77576e-08
4.92181e-07
-6.2394e-08
-9.15265e-08
6.23449e-07
-6.78112e-08
-1.0047e-07
7.52404e-07
-6.86579e-08
-9.60576e-08
8.37545e-07
-4.26677e-08
-6.88098e-08
8.56216e-07
-6.0345e-08
5.46622e-09
7.74647e-07
-1.06574e-07
1.27862e-07
6.36451e-07
-1.46339e-07
2.03215e-07
4.73871e-07
-1.7775e-07
2.42108e-07
3.12236e-07
-1.96747e-07
2.50019e-07
1.5892e-07
-2.07904e-07
2.4693e-07
1.13599e-08
-2.12282e-07
2.43388e-07
-1.36389e-07
-2.11071e-07
2.43256e-07
-2.90284e-07
-2.04281e-07
2.46525e-07
-4.52916e-07
-1.90891e-07
2.49371e-07
-6.17127e-07
-1.69882e-07
2.41406e-07
-7.57846e-07
-1.37305e-07
2.02981e-07
-8.43091e-07
-9.72469e-08
1.28611e-07
-8.29216e-07
-5.2853e-08
8.21593e-09
-7.45915e-07
-3.79168e-08
-6.77718e-08
-6.16088e-07
-6.45206e-08
-9.78889e-08
-4.8e-07
-6.47073e-08
-1.06084e-07
-3.53324e-07
-6.07578e-08
-1.01026e-07
-2.4155e-07
-5.32441e-08
-9.11924e-08
-1.44298e-07
-4.64921e-08
-8.06734e-08
-6.12694e-08
-4.17948e-08
-6.90243e-08
-3.50317e-09
-3.92519e-08
-4.50893e-08
-3.6406e-08
8.13647e-09
-1.44924e-09
-2.68434e-08
6.9698e-09
2.78996e-08
-2.91361e-08
-2.3328e-08
7.15808e-08
-3.19882e-08
-3.68599e-08
1.23742e-07
-3.73434e-08
-4.37596e-08
1.86215e-07
-4.62267e-08
-5.12481e-08
2.63226e-07
-5.89964e-08
-6.12421e-08
3.59409e-07
-7.5434e-08
-7.35335e-08
4.77111e-07
-9.45596e-08
-8.55364e-08
6.1307e-07
-1.11233e-07
-9.25366e-08
7.51432e-07
-1.20944e-07
-8.60769e-08
8.1758e-07
-5.13131e-08
-5.75017e-08
8.20254e-07
-8.2357e-08
1.93377e-08
7.40458e-07
-1.68533e-07
1.41754e-07
6.091e-07
-2.36029e-07
2.21048e-07
4.55169e-07
-2.87324e-07
2.63505e-07
3.01047e-07
-3.18816e-07
2.76192e-07
1.54213e-07
-3.3714e-07
2.7607e-07
1.25119e-08
-3.44559e-07
2.73978e-07
-1.29411e-07
-3.42865e-07
2.73717e-07
-2.76954e-07
-3.32009e-07
2.75271e-07
-4.32345e-07
-3.10379e-07
2.74879e-07
-5.88464e-07
-2.75669e-07
2.61906e-07
-7.23114e-07
-2.22392e-07
2.19737e-07
-8.0784e-07
-1.53959e-07
1.41438e-07
-8.10358e-07
-7.13239e-08
2.09891e-08
-7.45303e-07
-4.5761e-08
-5.72108e-08
-6.06356e-07
-1.14611e-07
-8.88572e-08
-4.65929e-07
-1.06267e-07
-9.88677e-08
-3.39596e-07
-9.16464e-08
-9.54441e-08
-2.30449e-07
-7.53336e-08
-8.70577e-08
-1.3688e-07
-6.25734e-08
-7.74876e-08
-5.77012e-08
-5.43354e-08
-6.66384e-08
-2.98912e-09
-5.0038e-08
-4.39259e-08
-4.61813e-08
6.78616e-09
-2.32571e-09
-3.05705e-08
6.0528e-09
2.43937e-08
-3.32712e-08
-2.25844e-08
6.43263e-08
-3.66983e-08
-3.52224e-08
1.1182e-07
-4.32601e-08
-4.15769e-08
1.68459e-07
-5.45116e-08
-4.83541e-08
2.38313e-07
-7.16173e-08
-5.72333e-08
3.26723e-07
-9.59452e-08
-6.78983e-08
4.38107e-07
-1.28914e-07
-7.70298e-08
5.77274e-07
-1.70278e-07
-8.01217e-08
7.4991e-07
-2.277e-07
-6.58797e-08
7.8145e-07
-4.9764e-08
-3.30893e-08
7.41748e-07
-7.6829e-08
3.41735e-08
6.71701e-07
-2.48054e-07
1.49568e-07
5.55651e-07
-3.45263e-07
2.25284e-07
4.19885e-07
-4.16326e-07