/*--------------------------------*- C++ -*----------------------------------*\
| =========                 |                                                 |
| \\      /  F ield         | OpenFOAM: The Open Source CFD Toolbox           |
|  \\    /   O peration     | Version:  2112                                  |
|   \\  /    A nd           | Website:  www.openfoam.com                      |
|    \\/     M anipulation  |                                                 |
\*---------------------------------------------------------------------------*/
FoamFile
{
    version     2.0;
    format      ascii;
    arch        "LSB;label=32;scalar=64";
    class       volVectorField;
    location    "4";
    object      U;
}
// * * * * * * * * * * * * * * * * * * * * * * * * * * * * * * * * * * * * * //

dimensions      [0 1 -1 0 0 0 0];

internalField   nonuniform List<vector> 
64906
(
(-7.28532e-08 -1.68088e-07 -5.00811e-07)
(1.87609e-06 -1.88665e-06 -5.28643e-07)
(5.70559e-06 -3.65765e-06 3.05275e-07)
(1.0158e-05 -5.21e-06 1.4014e-06)
(1.50343e-05 -6.37061e-06 2.35938e-06)
(1.99774e-05 -7.30114e-06 3.02396e-06)
(2.4841e-05 -8.08816e-06 3.59119e-06)
(2.95115e-05 -8.78836e-06 4.1515e-06)
(3.38007e-05 -9.43607e-06 4.73821e-06)
(3.7215e-05 -9.93358e-06 5.37108e-06)
(3.93349e-05 -1.03672e-05 6.0015e-06)
(3.93197e-05 -1.05449e-05 6.63674e-06)
(3.71129e-05 -1.06956e-05 7.40171e-06)
(3.33049e-05 -1.08255e-05 8.19284e-06)
(2.80692e-05 -1.11214e-05 8.87647e-06)
(2.18301e-05 -1.14067e-05 9.42507e-06)
(1.48664e-05 -1.1661e-05 9.80106e-06)
(7.52121e-06 -1.18147e-05 9.99774e-06)
(5.89924e-08 -1.18569e-05 1.00087e-05)
(-7.22607e-06 -1.17882e-05 9.83487e-06)
(-1.40702e-05 -1.16205e-05 9.48266e-06)
(-2.01338e-05 -1.14236e-05 8.95922e-06)
(-2.51502e-05 -1.1215e-05 8.3036e-06)
(-2.87248e-05 -1.11618e-05 7.54721e-06)
(-3.06211e-05 -1.10151e-05 6.8533e-06)
(-3.02733e-05 -1.09014e-05 6.24225e-06)
(-2.7834e-05 -1.0489e-05 5.6209e-06)
(-2.41186e-05 -9.94759e-06 4.95485e-06)
(-1.9548e-05 -9.11432e-06 4.2431e-06)
(-1.45975e-05 -7.9844e-06 3.37686e-06)
(-9.61468e-06 -6.45237e-06 2.09438e-06)
(-5.19592e-06 -4.35945e-06 5.65402e-07)
(-1.53595e-06 -1.90109e-06 -6.34766e-07)
(3.3673e-07 1.37684e-07 -7.92216e-07)
(-2.74929e-06 4.04227e-06 -1.3948e-06)
(-1.71516e-06 2.72886e-06 -6.2491e-06)
(3.49477e-06 6.80971e-07 -7.79248e-06)
(8.89174e-06 -1.251e-06 -8.11168e-06)
(1.43421e-05 -2.49543e-06 -8.33861e-06)
(1.95852e-05 -3.07402e-06 -8.83104e-06)
(2.46647e-05 -2.9871e-06 -9.67863e-06)
(2.94958e-05 -2.18193e-06 -1.09088e-05)
(3.39727e-05 -5.71739e-07 -1.25386e-05)
(3.7535e-05 2.14519e-06 -1.45719e-05)
(3.98029e-05 5.7149e-06 -1.69427e-05)
(3.99955e-05 1.02538e-05 -1.94888e-05)
(3.79142e-05 1.42301e-05 -2.19916e-05)
(3.39922e-05 1.76597e-05 -2.41821e-05)
(2.85422e-05 2.0079e-05 -2.59421e-05)
(2.21654e-05 2.18046e-05 -2.72671e-05)
(1.50854e-05 2.28496e-05 -2.81549e-05)
(7.65887e-06 2.33446e-05 -2.86165e-05)
(1.17738e-07 2.33099e-05 -2.86514e-05)
(-7.24336e-06 2.27452e-05 -2.82591e-05)
(-1.41946e-05 2.16311e-05 -2.744e-05)
(-2.03801e-05 1.98377e-05 -2.61839e-05)
(-2.55804e-05 1.73621e-05 -2.44951e-05)
(-2.91731e-05 1.39002e-05 -2.23861e-05)
(-3.0928e-05 9.971e-06 -2.00104e-05)
(-3.03985e-05 5.48757e-06 -1.75842e-05)
(-2.77356e-05 2.10555e-06 -1.53844e-05)
(-2.37462e-05 -2.59622e-07 -1.35921e-05)
(-1.87524e-05 -1.22317e-06 -1.22966e-05)
(-1.32815e-05 -9.58106e-07 -1.14967e-05)
(-7.42679e-06 4.82143e-07 -1.10797e-05)
(-1.5724e-06 2.97733e-06 -1.05792e-05)
(3.85489e-06 5.61458e-06 -8.60763e-06)
(4.11739e-06 6.94134e-06 -2.21719e-06)
(-4.70196e-06 1.35449e-05 -1.19795e-06)
(-4.64113e-06 1.44147e-05 -8.15452e-06)
(1.23177e-06 1.36012e-05 -1.05686e-05)
(7.42713e-06 1.28542e-05 -1.14198e-05)
(1.37262e-05 1.30967e-05 -1.21116e-05)
(1.97602e-05 1.45631e-05 -1.3097e-05)
(2.56906e-05 1.74473e-05 -1.45647e-05)
(3.15101e-05 2.20946e-05 -1.66071e-05)
(3.72453e-05 2.88809e-05 -1.92767e-05)
(4.20932e-05 3.85452e-05 -2.26032e-05)
(4.55578e-05 5.05869e-05 -2.64769e-05)
(4.58697e-05 6.50896e-05 -3.06791e-05)
(4.28933e-05 7.77927e-05 -3.46723e-05)
(3.79618e-05 8.8776e-05 -3.81603e-05)
(3.14308e-05 9.70619e-05 -4.09913e-05)
(2.41432e-05 0.000103223 -4.31351e-05)
(1.62101e-05 0.000107199 -4.45729e-05)
(8.00834e-06 0.000109196 -4.53209e-05)
(-2.99626e-07 0.000109227 -4.53755e-05)
(-8.43291e-06 0.000107292 -4.47363e-05)
(-1.62307e-05 0.000103381 -4.34068e-05)
(-2.3313e-05 9.72927e-05 -4.13724e-05)
(-2.95729e-05 8.91049e-05 -3.86548e-05)
(-3.41569e-05 7.82557e-05 -3.52924e-05)
(-3.67379e-05 6.57567e-05 -3.14512e-05)
(-3.59572e-05 5.16024e-05 -2.74351e-05)
(-3.19461e-05 4.01392e-05 -2.38072e-05)
(-2.64423e-05 3.12708e-05 -2.08023e-05)
(-1.98294e-05 2.56413e-05 -1.85385e-05)
(-1.2874e-05 2.25902e-05 -1.69519e-05)
(-5.53207e-06 2.17359e-05 -1.58103e-05)
(1.53989e-06 2.2499e-05 -1.45307e-05)
(7.91723e-06 2.33048e-05 -1.13022e-05)
(6.84664e-06 2.17098e-05 -2.10639e-06)
(-6.12368e-06 2.39422e-05 -4.84927e-07)
(-6.64468e-06 2.62125e-05 -8.42267e-06)
(-2.45265e-09 2.6453e-05 -1.11787e-05)
(7.24348e-06 2.70332e-05 -1.21892e-05)
(1.48161e-05 2.89904e-05 -1.30397e-05)
(2.22472e-05 3.26891e-05 -1.42337e-05)
(2.98585e-05 3.85165e-05 -1.60026e-05)
(3.77617e-05 4.71639e-05 -1.84752e-05)
(4.62179e-05 5.94419e-05 -2.171e-05)
(5.39116e-05 7.68995e-05 -2.57626e-05)
(6.00663e-05 9.88824e-05 -3.0471e-05)
(6.07005e-05 0.000125879 -3.56785e-05)
(5.56951e-05 0.000149021 -4.0571e-05)
(4.83224e-05 0.000168765 -4.4832e-05)
(3.91581e-05 0.000183479 -4.82831e-05)
(2.95658e-05 0.000194447 -5.08782e-05)
(1.9396e-05 0.000201553 -5.26009e-05)
(9.07694e-06 0.000205153 -5.34938e-05)
(-1.34536e-06 0.000205252 -5.35544e-05)
(-1.15941e-05 0.000201849 -5.27821e-05)
(-2.16242e-05 0.000194943 -5.11783e-05)
(-3.09961e-05 0.000184179 -4.87024e-05)
(-3.98602e-05 0.0001697 -4.5373e-05)
(-4.68249e-05 0.00015024 -4.12452e-05)
(-5.1335e-05 0.000127522 -3.65113e-05)
(-5.00568e-05 0.000101104 -3.15049e-05)
(-4.31396e-05 8.00546e-05 -2.70668e-05)
(-3.45214e-05 6.37502e-05 -2.33632e-05)
(-2.47939e-05 5.30178e-05 -2.0559e-05)
(-1.52712e-05 4.6358e-05 -1.85558e-05)
(-5.70165e-06 4.29464e-05 -1.7091e-05)
(3.04701e-06 4.18319e-05 -1.55418e-05)
(1.05785e-05 4.13048e-05 -1.18294e-05)
(8.78465e-06 3.78695e-05 -1.28136e-06)
(-7.02297e-06 3.47652e-05 3.44184e-07)
(-7.61933e-06 3.81616e-05 -8.43129e-06)
(2.39661e-07 3.93551e-05 -1.14732e-05)
(8.97432e-06 4.13134e-05 -1.25849e-05)
(1.83248e-05 4.5126e-05 -1.35623e-05)
(2.78027e-05 5.12147e-05 -1.49749e-05)
(3.80002e-05 6.01115e-05 -1.70905e-05)
(4.92719e-05 7.28933e-05 -2.00716e-05)
(6.24121e-05 9.10452e-05 -2.39474e-05)
(7.53117e-05 0.00011765 -2.88113e-05)
(8.69171e-05 0.000152465 -3.43841e-05)
(8.81481e-05 0.000197772 -4.08559e-05)
(7.88528e-05 0.000234577 -4.68238e-05)
(6.68427e-05 0.00026514 -5.20779e-05)
(5.29462e-05 0.000287272 -5.63465e-05)
(3.93254e-05 0.000303793 -5.949e-05)
(2.51906e-05 0.000314481 -6.15386e-05)
(1.10776e-05 0.000319927 -6.2593e-05)
(-3.15458e-06 0.000320105 -6.26576e-05)
(-1.71989e-05 0.000315008 -6.17313e-05)
(-3.11967e-05 0.000304666 -5.98074e-05)
(-4.45882e-05 0.000288479 -5.67874e-05)
(-5.81586e-05 0.000266708 -5.26418e-05)
(-6.96821e-05 0.000236547 -4.75214e-05)
(-7.83614e-05 0.000200337 -4.17151e-05)
(-7.62518e-05 0.000155798 -3.54511e-05)
(-6.36289e-05 0.000122309 -3.01717e-05)
(-4.95522e-05 9.71711e-05 -2.5684e-05)
(-3.47472e-05 8.09007e-05 -2.22735e-05)
(-2.13745e-05 7.04665e-05 -1.98051e-05)
(-8.67979e-06 6.44324e-05 -1.80297e-05)
(2.45845e-06 6.14769e-05 -1.62479e-05)
(1.18357e-05 5.9793e-05 -1.20884e-05)
(1.00291e-05 5.48914e-05 -3.0888e-07)
(-7.63514e-06 4.51533e-05 1.18271e-06)
(-7.7966e-06 4.9408e-05 -8.55023e-06)
(1.90386e-06 5.14115e-05 -1.19407e-05)
(1.27027e-05 5.46852e-05 -1.31818e-05)
(2.44007e-05 6.03543e-05 -1.43268e-05)
(3.65509e-05 6.87933e-05 -1.60393e-05)
(5.01421e-05 8.05519e-05 -1.86192e-05)
(6.59912e-05 9.7003e-05 -2.22572e-05)
(8.6072e-05 0.00012056 -2.68591e-05)
(0.000107531 0.000157084 -3.25327e-05)
(0.000129937 0.000207842 -3.84575e-05)
(0.000132478 0.000281796 -4.63423e-05)
(0.000114661 0.000336356 -5.35567e-05)
(9.49046e-05 0.000379703 -6.02728e-05)
(7.37065e-05 0.000409789 -6.58261e-05)
(5.41676e-05 0.000432359 -6.97066e-05)
(3.40622e-05 0.000446911 -7.21604e-05)
(1.41827e-05 0.000454375 -7.34102e-05)
(-5.87977e-06 0.000454639 -7.34802e-05)
(-2.57007e-05 0.000447695 -7.23684e-05)
(-4.56908e-05 0.000433643 -7.00473e-05)
(-6.50155e-05 0.00041153 -6.62972e-05)
(-8.58912e-05 0.0003819 -6.08697e-05)
(-0.00010509 0.00033901 -5.42903e-05)
(-0.000122171 0.000285164 -4.72464e-05)
(-0.000118416 0.000212073 -3.95684e-05)
(-9.46906e-05 0.000163173 -3.39678e-05)
(-7.18661e-05 0.000128388 -2.87064e-05)
(-4.97076e-05 0.000106993 -2.46241e-05)
(-3.121e-05 9.32256e-05 -2.15715e-05)
(-1.44501e-05 8.48452e-05 -1.94049e-05)
(-6.96643e-08 8.02916e-05 -1.73117e-05)
(1.20688e-05 7.76875e-05 -1.25772e-05)
(1.09393e-05 7.16689e-05 6.7212e-07)
(-8.12265e-06 5.47544e-05 2.0769e-06)
(-7.36956e-06 5.96944e-05 -8.86877e-06)
(4.92545e-06 6.25295e-05 -1.2727e-05)
(1.84706e-05 6.71828e-05 -1.41549e-05)
(3.31317e-05 7.48833e-05 -1.55259e-05)
(4.84845e-05 8.58042e-05 -1.76223e-05)
(6.59608e-05 0.000100242 -2.07647e-05)
(8.70945e-05 0.000119333 -2.51641e-05)
(0.000116261 0.000146334 -3.04762e-05)
(0.000150268 0.000190389 -3.66088e-05)
(0.000194084 0.000258969 -4.14809e-05)
(0.00019997 0.000380589 -5.06335e-05)
(0.000164864 0.000457602 -5.87479e-05)
(0.000133083 0.000516054 -6.75965e-05)
(0.000101776 0.000555015 -7.52144e-05)
(7.45279e-05 0.000584819 -7.98895e-05)
(4.63027e-05 0.000604072 -8.27707e-05)
(1.85157e-05 0.000614015 -8.42193e-05)
(-9.60961e-06 0.000614384 -8.42961e-05)
(-3.73622e-05 0.000605162 -8.29982e-05)
(-6.55265e-05 0.00058659 -8.02601e-05)
(-9.26243e-05 0.000557372 -7.57262e-05)
(-0.000123683 0.000518935 -6.82393e-05)
(-0.00015487 0.000460903 -5.95388e-05)
(-0.000189181 0.00038461 -5.1621e-05)
(-0.000181539 0.000263732 -4.26655e-05)
(-0.000136011 0.000197931 -3.81673e-05)
(-0.000100642 0.000155773 -3.24795e-05)
(-6.89452e-05 0.000131121 -2.77594e-05)
(-4.44791e-05 0.000114996 -2.40417e-05)
(-2.29029e-05 0.000104482 -2.14075e-05)
(-4.39806e-06 9.83485e-05 -1.89031e-05)
(1.15651e-05 9.48087e-05 -1.33931e-05)
(1.17562e-05 8.78086e-05 1.74548e-06)
(-8.59232e-06 6.31811e-05 3.02631e-06)
(-6.36125e-06 6.86254e-05 -9.38021e-06)
(9.48814e-06 7.23135e-05 -1.38896e-05)
(2.66413e-05 7.84741e-05 -1.55517e-05)
(4.50914e-05 8.84427e-05 -1.72138e-05)
(6.41976e-05 0.000102023 -1.9791e-05)
(8.54815e-05 0.000118827 -2.36268e-05)
(0.000111098 0.00013869 -2.90094e-05)
(0.000148294 0.000163964 -3.50681e-05)
(0.000197221 0.000209669 -4.21021e-05)
(0.000284428 0.000291416 -3.95871e-05)
(0.000299811 0.000498577 -4.76496e-05)
(0.000231154 0.000598384 -5.68923e-05)
(0.000183863 0.000670208 -7.00281e-05)
(0.000140032 0.000716782 -8.13595e-05)
(0.00010312 0.000753164 -8.68479e-05)
(6.36667e-05 0.00077688 -9.01464e-05)
(2.47007e-05 0.000789263 -9.17827e-05)
(-1.48972e-05 0.00078976 -9.1867e-05)
(-5.38699e-05 0.000778345 -9.03957e-05)
(-9.33616e-05 0.000755531 -8.72534e-05)
(-0.000130269 0.000719895 -8.19245e-05)
(-0.000174072 0.0006739 -7.07381e-05)
(-0.000220876 0.000602315 -5.7779e-05)
(-0.000288913 0.000503147 -4.88268e-05)
(-0.000270727 0.000296329 -4.08547e-05)
(-0.000181237 0.000219324 -4.37426e-05)
(-0.000131427 0.000175195 -3.72168e-05)
(-9.11203e-05 0.000152182 -3.18643e-05)
(-6.12725e-05 0.000135386 -2.73022e-05)
(-3.45991e-05 0.000122975 -2.41048e-05)
(-1.09789e-05 0.00011515 -2.10836e-05)
(1.02083e-05 0.000110484 -1.45238e-05)
(1.25418e-05 0.000102739 3.06306e-06)
(-9.09471e-06 7.00253e-05 3.97876e-06)
(-4.81674e-06 7.59368e-05 -1.01186e-05)
(1.56771e-05 8.06247e-05 -1.54323e-05)
(3.75019e-05 8.87907e-05 -1.73855e-05)
(6.07653e-05 0.00010199 -1.93817e-05)
(8.43063e-05 0.000119821 -2.2471e-05)
(0.000108955 0.000141174 -2.70552e-05)
(0.000135797 0.000162516 -3.35176e-05)
(0.000176735 0.000184899 -4.13987e-05)
(0.000232839 0.000222719 -4.77997e-05)
(0.000403085 0.000245294 -4.75737e-05)
(0.000443217 0.000615642 -3.9653e-05)
(0.000304576 0.000748311 -4.61559e-05)
(0.000243633 0.000839865 -6.62042e-05)
(0.000187203 0.000899071 -8.26546e-05)
(0.000139017 0.000947612 -8.86369e-05)
(8.57149e-05 0.000979616 -9.28101e-05)
(3.26436e-05 0.000996163 -9.48017e-05)
(-2.15576e-05 0.000996823 -9.48892e-05)
(-7.46911e-05 0.000981571 -9.30688e-05)
(-0.000128171 0.000950799 -8.90526e-05)
(-0.000176592 0.000903284 -8.32378e-05)
(-0.000233466 0.000844824 -6.69321e-05)
(-0.000294214 0.000753394 -4.71055e-05)
(-0.000432891 0.000621041 -4.09885e-05)
(-0.000387838 0.000248209 -4.93685e-05)
(-0.000214818 0.000233398 -4.9747e-05)
(-0.000159603 0.000197041 -4.37437e-05)
(-0.000114503 0.000177124 -3.67262e-05)
(-8.21962e-05 0.000158906 -3.12636e-05)
(-5.03775e-05 0.000142347 -2.75074e-05)
(-2.04677e-05 0.000131216 -2.39735e-05)
(7.76964e-06 0.00012461 -1.59924e-05)
(1.33938e-05 0.00011614 4.65714e-06)
(-9.47031e-06 7.46266e-05 5.04172e-06)
(-2.38125e-06 8.08466e-05 -1.10903e-05)
(2.42415e-05 8.64636e-05 -1.73697e-05)
(5.26123e-05 9.6634e-05 -1.96966e-05)
(8.31615e-05 0.000113288 -2.21162e-05)
(0.000114254 0.00013615 -2.58292e-05)
(0.00014426 0.000163086 -3.12814e-05)
(0.000173522 0.000185626 -4.02011e-05)
(0.000210524 0.0001905 -4.99055e-05)
(0.000172532 0.000106126 -7.29746e-05)
(0.000477412 0.000219429 -7.26627e-05)
(0.000646952 0.000867756 -1.05854e-05)
(0.000398861 0.000937415 -8.40741e-06)
(0.000334733 0.000999118 -3.09457e-05)
(0.000263247 0.00106162 -5.09687e-05)
(0.000197413 0.00111375 -5.26381e-05)
(0.000121168 0.00115114 -5.54756e-05)
(4.51097e-05 0.00117048 -5.70365e-05)
(-3.21883e-05 0.00117132 -5.71012e-05)
(-0.000108338 0.00115363 -5.56721e-05)
(-0.000184879 0.00111783 -5.29351e-05)
(-0.000251212 0.00106711 -5.14323e-05)
(-0.000323731 0.00100559 -3.15417e-05)
(-0.000388478 0.00094363 -9.23376e-06)
(-0.000640985 0.000870394 -1.21864e-05)
(-0.000463949 0.00022267 -7.51459e-05)
(-0.000152995 0.000125112 -7.40915e-05)
(-0.000193432 0.000207092 -5.18857e-05)
(-0.000151071 0.000201992 -4.36799e-05)
(-0.000115239 0.000181676 -3.61704e-05)
(-7.59455e-05 0.000159523 -3.1856e-05)
(-3.60004e-05 0.000144014 -2.77424e-05)
(2.8924e-06 0.000135189 -1.80291e-05)
(1.38332e-05 0.000126282 6.36722e-06)
(-9.84775e-06 7.66086e-05 6.14096e-06)
(5.92004e-07 8.29985e-05 -1.22897e-05)
(3.44414e-05 8.95571e-05 -1.96891e-05)
(7.08441e-05 0.000101948 -2.24794e-05)
(0.000111009 0.000123238 -2.5392e-05)
(0.000152761 0.000155502 -2.9433e-05)
(0.000191441 0.000201626 -3.46928e-05)
(0.000218795 0.000263649 -3.95697e-05)
(0.000176786 0.000344861 -5.88363e-05)
(0.00017671 0.000393397 -9.49532e-05)
(0.000286383 0.000737429 7.37493e-05)
(0.000317512 0.000940319 3.77086e-05)
(0.000394896 0.00106336 2.42295e-05)
(0.000342863 0.00117299 2.40491e-05)
(0.000258679 0.00125066 1.91287e-05)
(0.0001605 0.00130209 1.37697e-05)
(5.90683e-05 0.00132718 1.12206e-05)
(-4.37884e-05 0.00132814 1.12239e-05)
(-0.000145334 0.00130502 1.37698e-05)
(-0.000243853 0.00125563 1.91296e-05)
(-0.000328744 0.0011802 2.40696e-05)
(-0.000382627 0.00107295 2.43358e-05)
(-0.000309476 0.000952243 3.74174e-05)
(-0.00028144 0.000749018 7.2134e-05)
(-0.000172713 0.00040484 -9.16851e-05)
(-0.000168555 0.000359032 -6.03497e-05)
(-0.000200107 0.000278705 -4.37573e-05)
(-0.00016226 0.000219506 -4.06798e-05)
(-0.000110974 0.000178592 -3.69243e-05)
(-5.70512e-05 0.000154289 -3.25408e-05)
(-4.03376e-06 0.000141712 -2.08136e-05)
(1.41057e-05 0.000132038 8.01713e-06)
(-9.97692e-06 7.52933e-05 7.26356e-06)
(4.49947e-06 8.14915e-05 -1.36313e-05)
(4.70757e-05 8.80823e-05 -2.22676e-05)
(9.44054e-05 0.000100678 -2.56797e-05)
(0.000150687 0.00012258 -2.94696e-05)
(0.000218745 0.00015657 -3.48249e-05)
(0.000303519 0.000207391 -4.18085e-05)
(0.000418189 0.000281542 -4.71379e-05)
(0.000552397 0.000390437 -4.96916e-05)
(0.000820835 0.000550023 -3.06731e-05)
(0.000849633 0.00015095 5.26582e-05)
(0.000644555 0.000303024 7.98936e-05)
(0.00071154 0.000687055 0.000134731)
(0.000639982 0.000899087 0.000186933)
(0.000509634 0.00104765 0.00021621)
(0.000364197 0.00114567 0.000225249)
(0.000219081 0.00120575 0.000225386)
(7.83287e-05 0.00123424 0.000224491)
(-6.0634e-05 0.00123517 0.000224546)
(-0.000201314 0.00120859 0.000225549)
(-0.0003463 0.00115057 0.000225544)
(-0.000491513 0.00105492 0.000216776)
(-0.00062172 0.000909167 0.000188096)
(-0.000693454 0.000700506 0.000136616)
(-0.000625109 0.00031904 8.31124e-05)
(-0.000837722 0.000153763 5.52646e-05)
(-0.000815739 0.000551139 -2.976e-05)
(-0.000541584 0.000398889 -5.18927e-05)
(-0.000399478 0.00029384 -5.18709e-05)
(-0.000273395 0.00022379 -4.90185e-05)
(-0.000173553 0.000178708 -4.40504e-05)
(-9.0079e-05 0.000152962 -3.85779e-05)
(-1.57381e-05 0.000140059 -2.4315e-05)
(1.28801e-05 0.00013018 9.7293e-06)
(-1.03955e-05 7.06309e-05 8.33221e-06)
(7.50805e-06 7.62723e-05 -1.48725e-05)
(5.76602e-05 8.18447e-05 -2.47069e-05)
(0.000113681 9.22679e-05 -2.87207e-05)
(0.000181301 0.000109799 -3.32918e-05)
(0.000264454 0.000135255 -3.97706e-05)
(0.000368746 0.000168543 -4.79101e-05)
(0.000504583 0.000206929 -5.44178e-05)
(0.000664054 0.000239369 -5.53497e-05)
(0.00090008 0.000257161 -3.95519e-05)
(0.00101192 0.000123346 -1.18119e-05)
(0.000972197 0.00031484 3.83452e-05)
(0.000933967 0.000509463 0.000142258)
(0.000800344 0.00065266 0.000211557)
(0.000629962 0.000763201 0.00024741)
(0.000444545 0.000836356 0.000262)
(0.000265163 0.000882129 0.000265079)
(9.37866e-05 0.000904175 0.000265288)
(-7.41756e-05 0.000904942 0.000265348)
(-0.00024542 0.000884444 0.000265255)
(-0.000424557 0.000840257 0.000262332)
(-0.0006096 0.000768711 0.000248046)
(-0.000779976 0.00065971 0.000212895)
(-0.000914138 0.00051738 0.00014455)
(-0.000953449 0.0003225 4.23882e-05)
(-0.000998953 0.000126074 -9.20456e-06)
(-0.000892053 0.000263208 -3.94383e-05)
(-0.000653466 0.000248144 -5.80872e-05)
(-0.000485837 0.00021859 -5.99371e-05)
(-0.000337166 0.000184062 -5.63024e-05)
(-0.000215403 0.000156323 -5.05713e-05)
(-0.000113679 0.000138676 -4.4105e-05)
(-2.36348e-05 0.000129543 -2.75967e-05)
(1.26809e-05 0.000120623 1.15988e-05)
(-1.08673e-05 6.33002e-05 9.34262e-06)
(9.84719e-06 6.82945e-05 -1.58901e-05)
(6.64214e-05 7.26718e-05 -2.67769e-05)
(0.00012946 8.06807e-05 -3.131e-05)
(0.00020563 9.38734e-05 -3.65791e-05)
(0.000298937 0.000112308 -4.4234e-05)
(0.000414824 0.000134886 -5.41794e-05)
(0.000560965 0.000159489 -6.41038e-05)
(0.000728882 0.000179574 -7.01255e-05)
(0.000927358 0.00019698 -6.5011e-05)
(0.00105904 0.000161671 -4.45423e-05)
(0.00110493 0.000251621 1.90034e-05)
(0.00106323 0.00037072 0.000127632)
(0.000907572 0.000469066 0.000195767)
(0.00070976 0.00054545 0.000231261)
(0.000496723 0.000594767 0.000240416)
(0.000295188 0.00062575 0.000239683)
(0.000103894 0.000640599 0.000237907)
(-8.28012e-05 0.000641221 0.000237931)
(-0.00027394 0.000627617 0.000239752)
(-0.000475201 0.000597871 0.00024057)
(-0.000687854 0.00054975 0.000231649)
(-0.000885823 0.000474473 0.00019682)
(-0.00104232 0.000376875 0.000129634)
(-0.00108741 0.000258236 2.27941e-05)
(-0.00104745 0.00016625 -4.22783e-05)
(-0.000918636 0.000202783 -6.48511e-05)
(-0.000717414 0.000187527 -7.30006e-05)
(-0.000540955 0.00017018 -7.00465e-05)
(-0.000380897 0.000149212 -6.33718e-05)
(-0.000245543 0.000131742 -5.61637e-05)
(-0.000131071 0.000120226 -4.85904e-05)
(-2.90079e-05 0.000114116 -3.00931e-05)
(1.29509e-05 0.000106527 1.34831e-05)
(-1.14607e-05 5.38485e-05 1.02096e-05)
(1.11793e-05 5.80684e-05 -1.66852e-05)
(7.24222e-05 6.11532e-05 -2.84159e-05)
(0.000140192 6.66545e-05 -3.33566e-05)
(0.00022151 7.55554e-05 -3.91576e-05)
(0.000319943 8.75273e-05 -4.77091e-05)
(0.000440632 0.000101296 -5.90169e-05)
(0.000589137 0.000115539 -7.11433e-05)
(0.000758258 0.000126421 -7.98453e-05)
(0.000943655 0.000138492 -7.79013e-05)
(0.00109023 0.000137954 -5.75259e-05)
(0.00117695 0.000193724 2.4978e-06)
(0.00113783 0.000268054 0.000108615)
(0.000969332 0.00032975 0.00016999)
(0.000757026 0.000378262 0.000200134)
(0.000528659 0.000410364 0.000203514)
(0.000314044 0.000430919 0.000199188)
(0.000110375 0.000440915 0.000195595)
(-8.81151e-05 0.00044146 0.000195584)
(-0.000291655 0.000432536 0.000199149)
(-0.000506059 0.000412999 0.00020348)
(-0.000734144 0.00038182 0.00020025)
(-0.000946825 0.000334105 0.000170708)
(-0.00111644 0.000272948 0.000110266)
(-0.00115979 0.000199057 6.04589e-06)
(-0.00107883 0.000142825 -5.5433e-05)
(-0.000934149 0.000144451 -7.79105e-05)
(-0.000745729 0.00013396 -8.29109e-05)
(-0.000567505 0.000125315 -7.74289e-05)
(-0.000404061 0.000114178 -6.87768e-05)
(-0.000262276 0.00010473 -6.04097e-05)
(-0.000140726 9.84263e-05 -5.19244e-05)
(-3.10721e-05 9.49997e-05 -3.18406e-05)
(1.40536e-05 8.90174e-05 1.49842e-05)
(-1.19916e-05 4.30994e-05 1.09175e-05)
(1.19159e-05 4.64846e-05 -1.7282e-05)
(7.64352e-05 4.8566e-05 -2.96399e-05)
(0.00014742 5.21903e-05 -3.48777e-05)
(0.000231985 5.80459e-05 -4.10615e-05)
(0.00033328 6.58448e-05 -5.02595e-05)
(0.000456295 7.47203e-05 -6.25501e-05)
(0.000605495 8.41406e-05 -7.61455e-05)
(0.000775236 9.24012e-05 -8.652e-05)
(0.000957902 0.000103464 -8.63584e-05)
(0.00111472 0.000113831 -6.56563e-05)
(0.00122075 0.000150339 -6.90625e-06)
(0.00118378 0.000196596 9.74826e-05)
(0.0010089 0.000236714 0.000154617)
(0.00078756 0.000268567 0.00018096)
(0.000549433 0.000290089 0.000180638)
(0.000326387 0.000304007 0.000173939)
(0.000114729 0.0003109 0.000169163)
(-9.1409e-05 0.000311429 0.000169133)
(-0.000302982 0.000305569 0.000173842)
(-0.000525908 0.000292606 0.000180502)
(-0.000763886 0.000271916 0.000180925)
(-0.000985794 0.000240745 0.00015515)
(-0.00116198 0.00020109 9.89216e-05)
(-0.00120363 0.000155182 -3.66918e-06)
(-0.0011032 0.000118752 -6.36914e-05)
(-0.000947708 0.000109168 -8.64561e-05)
(-0.00076165 9.92387e-05 -8.97229e-05)
(-0.000582221 9.26989e-05 -8.26662e-05)
(-0.000417221 8.57115e-05 -7.26851e-05)
(-0.000271863 8.01894e-05 -6.3455e-05)
(-0.000146084 7.66723e-05 -5.42753e-05)
(-3.1585e-05 7.47276e-05 -3.30127e-05)
(1.5246e-05 7.00997e-05 1.61313e-05)
(-1.2453e-05 3.15443e-05 1.1413e-05)
(1.22119e-05 3.39981e-05 -1.77112e-05)
(7.88502e-05 3.52828e-05 -3.05051e-05)
(0.000151854 3.74641e-05 -3.5939e-05)
(0.000238367 4.10379e-05 -4.23628e-05)
(0.000341265 4.58645e-05 -5.19544e-05)
(0.000465574 5.15252e-05 -6.48248e-05)
(0.000615399 5.79656e-05 -7.92176e-05)
(0.000786413 6.46822e-05 -9.0441e-05)
(0.0009701 7.43407e-05 -9.10125e-05)
(0.00113343 8.60515e-05 -7.03228e-05)
(0.00124916 0.000109908 -1.18072e-05)
(0.00121352 0.000138875 9.23884e-05)
(0.00103458 0.000164452 0.000147882)
(0.000807562 0.000184928 0.000172482)
(0.000563343 0.000199244 0.000170461)
(0.000334808 0.000208683 0.000162691)
(0.000117838 0.000213524 0.000157387)
(-9.34604e-05 0.000214081 0.000157353)
(-0.000310408 0.000210321 0.000162578)
(-0.000538943 0.000201861 0.000170295)
(-0.000783184 0.000188365 0.0001724)
(-0.001011 0.000168511 0.000148353)
(-0.00119149 0.000143327 9.38073e-05)
(-0.00123196 0.00011459 -8.40145e-06)
(-0.00112162 9.08545e-05 -6.84027e-05)
(-0.000959349 7.95959e-05 -9.12052e-05)
(-0.000771966 7.06404e-05 -9.37818e-05)
(-0.00059079 6.5063e-05 -8.59372e-05)
(-0.00042452 6.02744e-05 -7.52389e-05)
(-0.000276995 5.68894e-05 -6.54936e-05)
(-0.000148728 5.49189e-05 -5.58674e-05)
(-3.13146e-05 5.38291e-05 -3.38096e-05)
(1.63316e-05 5.05308e-05 1.68721e-05)
(-1.27717e-05 1.9599e-05 1.17001e-05)
(1.23012e-05 2.11146e-05 -1.80038e-05)
(8.01716e-05 2.17692e-05 -3.10617e-05)
(0.000154372 2.28627e-05 -3.66078e-05)
(0.000242072 2.47429e-05 -4.31625e-05)
(0.000346032 2.74493e-05 -5.29638e-05)
(0.000471359 3.09579e-05 -6.61386e-05)
(0.000622083 3.54369e-05 -8.09275e-05)
(0.000794561 4.09447e-05 -9.25518e-05)
(0.000979983 4.86294e-05 -9.34038e-05)
(0.00114713 5.83068e-05 -7.26935e-05)
(0.00126741 7.26729e-05 -1.41893e-05)
(0.00123226 8.87956e-05 9.07588e-05)
(0.00105089 0.000103325 0.00014608)
(0.000820404 0.000115076 0.000170215)
(0.000572474 0.000123683 0.00016766)
(0.000340455 0.000129507 0.000159537)
(0.000120086 0.000132686 0.000154062)
(-9.45646e-05 0.000133308 0.000154031)
(-0.000314988 0.000131331 0.000159431)
(-0.000547156 0.000126578 0.000167502)
(-0.000795318 0.000118844 0.00017014)
(-0.00102684 0.000107696 0.00014655)
(-0.00120998 9.34971e-05 9.22022e-05)
(-0.00125017 7.74852e-05 -1.05669e-05)
(-0.00113527 6.29789e-05 -7.08081e-05)
(-0.000968974 5.33728e-05 -9.36942e-05)
(-0.000779623 4.59248e-05 -9.60261e-05)
(-0.000596655 4.09327e-05 -8.78201e-05)
(-0.000429068 3.72668e-05 -7.67719e-05)
(-0.000279993 3.4911e-05 -6.67562e-05)
(-0.000150152 3.36508e-05 -5.68823e-05)
(-3.101e-05 3.29701e-05 -3.43484e-05)
(1.7056e-05 3.09196e-05 1.72795e-05)
(-1.29191e-05 7.5517e-06 1.17829e-05)
(1.22767e-05 8.11085e-06 -1.81842e-05)
(8.05934e-05 8.17408e-06 -3.13417e-05)
(0.000155304 8.26749e-06 -3.69236e-05)
(0.000243603 8.59524e-06 -4.35136e-05)
(0.000348275 9.36606e-06 -5.33654e-05)
(0.000474499 1.08948e-05 -6.66136e-05)
(0.000626338 1.34967e-05 -8.14893e-05)
(0.000800212 1.76446e-05 -9.31953e-05)
(0.000987138 2.31264e-05 -9.40968e-05)
(0.00115578 3.00709e-05 -7.34048e-05)
(0.00127694 3.61269e-05 -1.48411e-05)
(0.00124149 4.08082e-05 9.05948e-05)
(0.00105895 4.51808e-05 0.000146244)
(0.000826912 4.87808e-05 0.000170521)
(0.00057735 5.19666e-05 0.00016802)
(0.000343648 5.43629e-05 0.000159904)
(0.000121598 5.59847e-05 0.000154431)
(-9.47783e-05 5.67055e-05 0.000154404)
(-0.000316979 5.64777e-05 0.000159807)
(-0.000551015 5.53093e-05 0.000167875)
(-0.00080108 5.31032e-05 0.000170459)
(-0.00103448 5.01136e-05 0.000146717)
(-0.0012191 4.59697e-05 9.20319e-05)
(-0.00125983 4.11045e-05 -1.11947e-05)
(-0.00114409 3.4638e-05 -7.1602e-05)
(-0.000976194 2.73909e-05 -9.45112e-05)
(-0.000785217 2.16745e-05 -9.68202e-05)
(-0.000600695 1.74073e-05 -8.85538e-05)
(-0.00043182 1.47558e-05 -7.74386e-05)
(-0.00028164 1.32436e-05 -6.7362e-05)
(-0.000150886 1.25301e-05 -5.74173e-05)
(-3.09196e-05 1.21813e-05 -3.46925e-05)
(1.73643e-05 1.14017e-05 1.73771e-05)
(-1.29075e-05 -4.2939e-06 1.16577e-05)
(1.21283e-05 -4.69235e-06 -1.825e-05)
(8.01136e-05 -5.26899e-06 -3.13484e-05)
(0.000154642 -6.28048e-06 -3.68928e-05)
(0.000242945 -7.68345e-06 -4.34302e-05)
(0.000347948 -9.11381e-06 -5.31919e-05)
(0.000474889 -9.88654e-06 -6.62901e-05)
(0.000628017 -9.4529e-06 -8.0945e-05)
(0.000803265 -6.7008e-06 -9.24186e-05)
(0.000991594 -3.07373e-06 -9.3151e-05)
(0.00115966 2.44168e-06 -7.25559e-05)
(0.00127806 6.75383e-07 -1.39684e-05)
(0.00124128 -6.73853e-06 9.15826e-05)
(0.00105874 -1.31342e-05 0.000147942)
(0.000827036 -1.82337e-05 0.000172884)
(0.000577938 -2.07548e-05 0.000170969)
(0.000344388 -2.19469e-05 0.000163186)
(0.000122398 -2.19245e-05 0.000157873)
(-9.40536e-05 -2.10504e-05 0.000157847)
(-0.000316311 -1.93779e-05 0.000163094)
(-0.000550421 -1.6695e-05 0.000170823)
(-0.000800364 -1.2987e-05 0.000172808)
(-0.00103384 -7.21121e-06 0.00014837)
(-0.00121892 -6.78402e-07 9.29313e-05)
(-0.00126131 6.17379e-06 -1.05371e-05)
(-0.00114838 7.12654e-06 -7.09185e-05)
(-0.000981031 9.43436e-07 -9.37449e-05)
(-0.000788652 -3.36944e-06 -9.62277e-05)
(-0.000602779 -6.8494e-06 -8.81856e-05)
(-0.000432682 -8.1855e-06 -7.72713e-05)
(-0.00028188 -8.54014e-06 -6.73318e-05)
(-0.000150897 -8.46789e-06 -5.74863e-05)
(-3.10195e-05 -8.35482e-06 -3.48502e-05)
(1.72713e-05 -7.8444e-06 1.71675e-05)
(-1.27573e-05 -1.56518e-05 1.13272e-05)
(1.17656e-05 -1.69916e-05 -1.81903e-05)
(7.85272e-05 -1.83883e-05 -3.10613e-05)
(0.000152025 -2.08627e-05 -3.64887e-05)
(0.000239509 -2.46065e-05 -4.28702e-05)
(0.000344205 -2.9168e-05 -5.23647e-05)
(0.000471473 -3.34648e-05 -6.50665e-05)
(0.000626058 -3.64828e-05 -7.91545e-05)
(0.000802933 -3.5766e-05 -9.00086e-05)
(0.000993701 -3.33767e-05 -9.01885e-05)
(0.00115941 -2.51797e-05 -6.96349e-05)
(0.00127003 -3.50176e-05 -1.0695e-05)
(0.00123026 -5.79184e-05 9.50791e-05)
(0.00104908 -7.8286e-05 0.000153171)
(0.000819925 -9.47511e-05 0.000179817)
(0.000573751 -0.000104459 0.000179507)
(0.000342424 -0.000110038 0.000172679)
(0.000122455 -0.000111901 0.000167814)
(-9.22241e-05 -0.000110796 0.000167768)
(-0.000312597 -0.000106775 0.000172522)
(-0.000544749 -9.92797e-05 0.000179246)
(-0.000792203 -8.80046e-05 0.000179573)
(-0.00102369 -7.06772e-05 0.000153375)
(-0.00120806 -5.01867e-05 9.61299e-05)
(-0.00125391 -2.83129e-05 -7.83263e-06)
(-0.00114878 -2.00191e-05 -6.83062e-05)
(-0.000983754 -2.92011e-05 -9.10799e-05)
(-0.000789048 -3.26709e-05 -9.40883e-05)
(-0.000601755 -3.46662e-05 -8.6616e-05)
(-0.000430537 -3.33741e-05 -7.62018e-05)
(-0.000279854 -3.13518e-05 -6.6603e-05)
(-0.000149624 -2.96165e-05 -5.70289e-05)
(-3.10328e-05 -2.85689e-05 -3.47794e-05)
(1.68521e-05 -2.66433e-05 1.66295e-05)
(-1.25313e-05 -2.60583e-05 1.07948e-05)
(1.09663e-05 -2.82694e-05 -1.79893e-05)
(7.53456e-05 -3.06501e-05 -3.04449e-05)
(0.000146604 -3.49511e-05 -3.56625e-05)
(0.00023189 -4.17019e-05 -4.17587e-05)
(0.000334848 -5.0506e-05 -5.07578e-05)
(0.000461133 -6.00121e-05 -6.2697e-05)
(0.000616792 -6.85796e-05 -7.56114e-05)
(0.000795975 -7.144e-05 -8.51163e-05)
(0.000993473 -7.04039e-05 -8.37884e-05)
(0.00115549 -4.96688e-05 -6.37292e-05)
(0.00124929 -6.87657e-05 -4.61314e-06)
(0.00120331 -0.000116356 0.000102618)
(0.00102528 -0.000156788 0.000164294)
(0.000802068 -0.000189197 0.000194187)
(0.000562728 -0.000208882 0.00019718)
(0.000336713 -0.00022054 0.0001924)
(0.00012151 -0.000225011 0.000188517)
(-8.88681e-05 -0.000223541 0.000188413)
(-0.000304618 -0.000216165 0.000192064)
(-0.000531738 -0.000201863 0.000196607)
(-0.000772877 -0.000179885 0.000193505)
(-0.000999084 -0.000146185 0.00016395)
(-0.00118123 -0.000105509 0.000103056)
(-0.00123416 -5.98203e-05 -2.45343e-06)
(-0.0011458 -4.34416e-05 -6.28729e-05)
(-0.000984225 -6.52565e-05 -8.51705e-05)
(-0.00078304 -6.77427e-05 -8.96049e-05)
(-0.000593833 -6.67252e-05 -8.33537e-05)
(-0.000422145 -6.07237e-05 -7.39578e-05)
(-0.00027324 -5.46524e-05 -6.49946e-05)
(-0.000145609 -5.01671e-05 -5.5905e-05)
(-3.02197e-05 -4.76537e-05 -3.43873e-05)
(1.63747e-05 -4.42949e-05 1.56932e-05)
(-1.226e-05 -3.50243e-05 1.00975e-05)
(9.60279e-06 -3.80795e-05 -1.76108e-05)