/*--------------------------------*- C++ -*----------------------------------*\
| =========                 |                                                 |
| \\      /  F ield         | OpenFOAM: The Open Source CFD Toolbox           |
|  \\    /   O peration     | Version:  2112                                  |
|   \\  /    A nd           | Website:  www.openfoam.com                      |
|    \\/     M anipulation  |                                                 |
\*---------------------------------------------------------------------------*/
FoamFile
{
    version     2.0;
    format      ascii;
    arch        "LSB;label=32;scalar=64";
    class       volScalarField;
    location    "1.2";
    object      epsilon;
}
// * * * * * * * * * * * * * * * * * * * * * * * * * * * * * * * * * * * * * //

dimensions      [0 2 -3 0 0 0 0];

internalField   nonuniform List<scalar> 
64906
(
0.00445025
0.00470789
0.00480807
0.00483342
0.00483861
0.00483958
0.0048398
0.0048399
0.00483999
0.00484008
0.00484016
0.00484023
0.00484029
0.00484032
0.00484033
0.00484033
0.00484032
0.00484031
0.0048403
0.0048403
0.00484031
0.00484031
0.00484029
0.00484026
0.00484021
0.00484014
0.00484006
0.00483995
0.00483973
0.00483876
0.00483356
0.00480821
0.00470803
0.00445036
0.00470795
0.00693707
0.00780452
0.00805263
0.00811153
0.00812361
0.00812591
0.00812645
0.00812673
0.00812697
0.0081272
0.00812742
0.00812762
0.00812779
0.00812793
0.00812803
0.0081281
0.00812814
0.00812814
0.00812811
0.00812805
0.00812796
0.00812783
0.00812767
0.00812747
0.00812726
0.00812699
0.00812644
0.00812411
0.00811201
0.00805308
0.00780495
0.00693746
0.00470815
0.00480822
0.00780477
0.00909335
0.00950087
0.00960769
0.00963177
0.00963675
0.00963797
0.00963855
0.00963908
0.00963964
0.00964026
0.00964086
0.00964139
0.00964184
0.00964218
0.00964241
0.00964254
0.00964255
0.00964244
0.00964223
0.00964191
0.00964149
0.00964097
0.00964039
0.00963978
0.00963912
0.00963784
0.00963278
0.00960863
0.00950175
0.00909416
0.00780543
0.00480852
0.00483365
0.00805306
0.00950108
0.00998082
0.0101125
0.0101436
0.0101503
0.010152
0.0101528
0.0101534
0.0101541
0.0101552
0.0101563
0.0101573
0.0101581
0.0101587
0.0101591
0.0101593
0.0101593
0.0101592
0.0101588
0.0101582
0.0101574
0.0101565
0.0101554
0.0101543
0.0101534
0.0101518
0.010145
0.0101138
0.00998204
0.00950218
0.00805393
0.00483402
0.0048389
0.00811205
0.009608
0.0101126
0.0102537
0.0102877
0.0102952
0.0102969
0.0102972
0.0102967
0.0102966
0.0102983
0.0103003
0.0103021
0.0103034
0.0103043
0.0103049
0.0103051
0.0103052
0.0103049
0.0103044
0.0103036
0.0103022
0.0103005
0.0102985
0.0102968
0.0102968
0.0102961
0.0102891
0.0102553
0.0101141
0.00960934
0.00811308
0.00483934
0.0048399
0.00812415
0.00963211
0.0101437
0.0102877
0.0103226
0.01033
0.0103304
0.0103269
0.0103195
0.0103129
0.0103166
0.010322
0.010326
0.0103286
0.0103298
0.0103304
0.0103307
0.0103307
0.0103305
0.0103299
0.0103288
0.0103262
0.0103222
0.0103168
0.0103131
0.0103196
0.0103258
0.0103224
0.0102891
0.0101454
0.00963366
0.00812535
0.00484041
0.00484014
0.00812643
0.00963706
0.0101504
0.0102951
0.0103299
0.0103357
0.0103298
0.0103092
0.0102692
0.010231
0.0102474
0.0102694
0.0102823
0.0102888
0.0102903
0.0102906
0.0102908
0.0102909
0.0102907
0.0102904
0.0102889
0.0102826
0.0102696
0.0102477
0.0102312
0.0102693
0.010308
0.0103218
0.0102945
0.0101518
0.00963876
0.00812778
0.00484074
0.00484025
0.00812691
0.00963818
0.0101519
0.0102967
0.0103302
0.0103297
0.0103014
0.0102173
0.0100494
0.00987729
0.00997338
0.0100717
0.010119
0.0101374
0.0101401
0.01014
0.01014
0.01014
0.0101401
0.0101403
0.0101376
0.0101193
0.010072
0.00997373
0.00987755
0.0100495
0.0102162
0.0102934
0.0102886
0.010152
0.00963982
0.00812838
0.00484093
0.00484033
0.00812708
0.00963861
0.0101525
0.0102968
0.0103266
0.0103095
0.0102187
0.00994547
0.00935259
0.00866691
0.00917205
0.00956521
0.00972198
0.00977125
0.0097794
0.00978013
0.00978028
0.00978032
0.00978024
0.00977958
0.00977151
0.00972231
0.00956562
0.0091725
0.0086671
0.00935273
0.00994448
0.0102108
0.0102685
0.0101484
0.00963971
0.00812859
0.00484109
0.00484039
0.00812717
0.00963892
0.0101529
0.0102962
0.0103197
0.0102722
0.0100579
0.00936435
0.00765054
0.00543915
0.00737932
0.00863578
0.00905014
0.00915486
0.0091777
0.0091825
0.00918361
0.00918364
0.0091826
0.00917787
0.00915511
0.00905049
0.00863631
0.00737997
0.00543911
0.00765067
0.00936347
0.0100503
0.0102313
0.0101415
0.00963895
0.0081286
0.00484121
0.00484042
0.00812721
0.00963922
0.0101534
0.0102961
0.010315
0.0102422
0.00990903
0.00871896
0.0054617
0.00532508
0.00773947
0.00846203
0.00862297
0.0086517
0.00865584
0.00865639
0.0086564
0.00865588
0.00865177
0.00862309
0.00846228
0.00773998
0.00532541
0.00546182
0.00871812
0.00990144
0.0102014
0.0101368
0.0096386
0.0081286
0.00484129
0.00484043
0.00812721
0.00963954
0.0101542
0.0102982
0.0103226
0.0102758
0.0100611
0.00936283
0.00763554
0.00542964
0.00729027
0.00851796
0.00891816
0.00901829
0.00902923
0.00902693
0.00902543
0.00902541
0.00902688
0.00902916
0.00901819
0.00891808
0.00851794
0.00729007
0.00542921
0.00763475
0.00936146
0.0100532
0.0102348
0.010144
0.00964019
0.00812872
0.00484131
0.0048404
0.00812719
0.00963984
0.010155
0.0103006
0.010332
0.0103163
0.0102248
0.0099437
0.00932639
0.00858962
0.00897727
0.0092475
0.0093427
0.00936641
0.00936476
0.00936085
0.00935903
0.009359
0.00936077
0.00936462
0.00936621
0.00934243
0.00924714
0.00897669
0.00858867
0.00932563
0.00994219
0.0102167
0.0102749
0.0101531
0.00964212
0.00812889
0.00484128
0.00484035
0.00812715
0.00964008
0.0101557
0.0103024
0.010338
0.0103394
0.0103105
0.0102159
0.0100119
0.00975104
0.00967895
0.00958684
0.00954178
0.00952487
0.0095166
0.00951244
0.00951073
0.00951069
0.00951233
0.00951643
0.00952462
0.00954145
0.0095864
0.00967803
0.00975029
0.0100113
0.0102144
0.0103022
0.0102979
0.0101588
0.00964343
0.00812896
0.00484121
0.00484028
0.0081271
0.00964027
0.0101562
0.0103034
0.0103408
0.010349
0.0103426
0.0103098
0.0102263
0.0100792
0.00990079
0.00970043
0.00960863
0.00957691
0.00956582
0.0095613
0.00955943
0.00955938
0.00956115
0.0095656
0.00957663
0.00960828
0.00969999
0.00989995
0.0100786
0.0102257
0.0103083
0.0103343
0.0103073
0.0101615
0.00964415
0.00812897
0.0048411
0.0048402
0.00812705
0.00964041
0.0101565
0.010304
0.0103421
0.0103524
0.0103527
0.0103366
0.0102828
0.0101599
0.00995911
0.00973117
0.00962689
0.00959091
0.00957876
0.00957381
0.00957158
0.0095715
0.00957362
0.0095785
0.0095906
0.00962652
0.00973072
0.0099583
0.0101593
0.0102822
0.0103351
0.0103444
0.0103107
0.0101626
0.00964455
0.00812894
0.00484097
0.00484011
0.00812701
0.00964051
0.0101567
0.0103044
0.0103427
0.0103537
0.0103556
0.0103435
0.0102961
0.0101779
0.00997288
0.00973855
0.00963141
0.00959433
0.00958175
0.00957642
0.00957375
0.00957365
0.00957618
0.00958146
0.009594
0.00963103
0.00973809
0.00997209
0.0101774
0.0102956
0.010342
0.0103473
0.010312
0.0101632
0.00964479
0.00812892
0.00484084
0.00484003
0.00812698
0.00964058
0.0101569
0.0103046
0.0103431
0.0103542
0.0103566
0.0103453
0.0102991
0.0101818
0.00997604
0.00974027
0.00963253
0.00959515
0.00958236
0.00957676
0.00957371
0.00957357
0.00957649
0.00958204
0.0095948
0.00963213
0.00973981
0.00997526
0.0101813
0.0102986
0.0103438
0.0103483
0.0103125
0.0101635
0.00964494
0.0081289
0.00484071
0.00483997
0.00812697
0.00964061
0.010157
0.0103047
0.0103432
0.0103543
0.0103568
0.0103455
0.0102994
0.0101821
0.00997636
0.00974043
0.00963263
0.00959519
0.00958232
0.00957659
0.00957333
0.00957316
0.00957629
0.00958198
0.00959483
0.00963223
0.00973997
0.0099756
0.0101816
0.0102989
0.0103441
0.0103485
0.0103127
0.0101636
0.00964501
0.00812889
0.00484062
0.00483997
0.00812699
0.00964061
0.0101569
0.0103047
0.0103431
0.0103541
0.0103562
0.0103442
0.010297
0.0101789
0.00997387
0.00973907
0.00963174
0.00959446
0.00958163
0.00957593
0.00957275
0.00957258
0.00957562
0.00958128
0.00959409
0.00963134
0.00973862
0.00997315
0.0101785
0.0102965
0.0103428
0.010348
0.0103125
0.0101636
0.00964501
0.00812892
0.00484063
0.00484003
0.00812703
0.00964058
0.0101568
0.0103045
0.0103427
0.0103531
0.0103537
0.0103378
0.0102843
0.0101617
0.00996094
0.00973214
0.00962753
0.00959119
0.00957862
0.00957312
0.00957027
0.00957011
0.00957281
0.00957826
0.00959082
0.00962714
0.00973172
0.0099603
0.0101613
0.010284
0.0103365
0.0103455
0.0103116
0.0101633
0.00964491
0.00812897
0.00484073
0.00484011
0.0081271
0.00964051
0.0101566
0.010304
0.0103416
0.01035
0.010344
0.0103117
0.0102287
0.0100822
0.00990387
0.00970207
0.00960973
0.00957749
0.00956582
0.00956064
0.00955819
0.00955807
0.00956035
0.00956548
0.00957714
0.00960938
0.00970171
0.00990338
0.0100819
0.0102285
0.0103105
0.0103359
0.0103086
0.0101623
0.00964467
0.00812904
0.00484085
0.00484019
0.00812717
0.0096404
0.0101563
0.0103032
0.010339
0.0103408
0.0103124
0.0102186
0.0100157
0.00975606
0.00968396
0.00958944
0.00954356
0.00952595
0.00951701
0.00951221
0.00951006
0.00950998
0.00951199
0.00951672
0.00952565
0.00954329
0.00958923
0.00968377
0.00975602
0.0100157
0.0102175
0.0103044
0.0102995
0.0101599
0.00964412
0.00812909
0.00484098
0.00484025
0.00812724
0.00964024
0.0101557
0.0103016
0.0103333
0.010318
0.0102272
0.00994724
0.00933181
0.00859741
0.00898319
0.00925081
0.00934493
0.00936787
0.00936559
0.00936119
0.00935907
0.00935901
0.00936103
0.00936537
0.00936764
0.00934476
0.00925084
0.00898356
0.00859771
0.00933206
0.0099464
0.0102195
0.010277
0.0101546
0.00964299
0.0081291
0.00484108
0.00484029
0.0081273
0.00964003
0.010155
0.0102994
0.0103241
0.0102779
0.0100639
0.00936688
0.00764152
0.00543322
0.00729382
0.00851815
0.00891756
0.00901698
0.00902734
0.00902462
0.00902289
0.00902284
0.00902447
0.00902709
0.00901662
0.00891713
0.00851793
0.00729458
0.00543311
0.00764201
0.00936628
0.0100565
0.0102372
0.0101458
0.00964124
0.00812901
0.00484113
0.00484031
0.00812734
0.0096398
0.0101543
0.0102974
0.0103167
0.0102444
0.00991147
0.00872132
0.00546223
0.00532025
0.00772684
0.00844605
0.0086043
0.00863152
0.00863484
0.00863495
0.00863484
0.00863447
0.00863074
0.00860272
0.00844312
0.00772252
0.00531802
0.00546192
0.00872051
0.00990422
0.010204
0.0101388
0.00963982
0.00812896
0.00484114
0.00484029
0.0081273
0.00963948
0.0101539
0.0102976
0.0103216
0.0102747
0.0100611
0.009368
0.00765434
0.00544197
0.00736077
0.00859713
0.0089853
0.0090745
0.00909214
0.00909538
0.00909587
0.00909571
0.00909472
0.00909021
0.0090689
0.00897173
0.00857261
0.00734407
0.00543866
0.00765212
0.00936618
0.0100535
0.0102343
0.0101438
0.00964029
0.00812901
0.0048411
0.00484024
0.00812695
0.00963851
0.0101526
0.0102972
0.0103276
0.0103112
0.010221
0.00994769
0.00935192
0.00865502
0.00912093
0.00944733
0.00951807
0.00952192
0.00951846
0.0095171
0.00951674
0.00951652
0.00951601
0.00951439
0.00950774
0.00947788
0.00936562
0.00905657
0.00862288
0.00933823
0.00994211
0.0102124
0.0102705
0.0101499
0.00964053
0.00812879
0.00484102
0.00484005
0.00812477
0.00963368
0.0101461
0.0102907
0.0103246
0.0103248
0.0102969
0.0102116
0.0100359
0.00983701
0.00986133
0.00982667
0.009707
0.00965047
0.0096321
0.00962718
0.00962598
0.00962571
0.00962576
0.00962635
0.00962867
0.00963713
0.00966452
0.00972907
0.00976625
0.0100069
0.0102012
0.0102871
0.0102841
0.0101477
0.00963636
0.00812664
0.00484078
0.00483909
0.00811277
0.00960967
0.0101152
0.0102571
0.0102915
0.0102978
0.0102923
0.0102701
0.010221
0.0101518
0.0100893
0.00996594
0.00980247
0.00973107
0.00970913
0.00970368
0.00970252
0.00970228
0.00970235
0.00970324
0.00970791
0.0097273
0.00979217
0.00994434
0.0100728
0.0101888
0.010259
0.0102826
0.0102581
0.0101183
0.00961253
0.00811459
0.00483977
0.00483388
0.00805387
0.00950283
0.00998346
0.010116
0.0101479
0.0101553
0.0101562
0.0101519
0.0101385
0.010111
0.0100622
0.00997303
0.00986393
0.00981149
0.00979432
0.00979027
0.00978962
0.00978953
0.00978942
0.00978984
0.00979354
0.00980989
0.00986088
0.00996805
0.0100587
0.0101173
0.0101446
0.0101482
0.0101193
0.00998693
0.00950559
0.00805559
0.00483451
0.00480849
0.00780565
0.00909513
0.00950348
0.00961109
0.00963605
0.00964199
0.00964398
0.00964431
0.00964157
0.00963223
0.00961023
0.00956971
0.00952088
0.00949547
0.00948663
0.00948454
0.00948427
0.00948426
0.00948415
0.00948429
0.00948624
0.00949482
0.00951987
0.00956829
0.00960904
0.00963252
0.00964135
0.00963899
0.00961463
0.00950662
0.00909756
0.00780718
0.00480906
0.00470825
0.00693794
0.00780611
0.00805485
0.00811436
0.00812712
0.00813023
0.00813166
0.00813267
0.00813289
0.00813114
0.00812524
0.00811371
0.00809924
0.00809121
0.0080881
0.00808725
0.00808707
0.00808704
0.00808705
0.00808721
0.00808803
0.00809106
0.00809901
0.00811335
0.00812488
0.00813086
0.00813232
0.00812995
0.00811707
0.00805717
0.00780792
0.0069391
0.00470873
0.00445051
0.00470834
0.00480876
0.00483434
0.0048398
0.00484107
0.00484166
0.0048422
0.00484278
0.00484334
0.00484378
0.00484386
0.0048434
0.00484245
0.0048418
0.00484137
0.00484105
0.00484078
0.00484067
0.0048408
0.00484105
0.00484135
0.00484173
0.00484233
0.00484322
0.00484362
0.00484351
0.00484305
0.00484234
0.00484089
0.00483525
0.00480948
0.00470888
0.00445085
0.00568061
0.0069096
0.00743622
0.00759039
0.00762691
0.00763431
0.00763566
0.00763592
0.007636
0.00763605
0.00763608
0.0076361
0.00763609
0.00763608
0.00763606
0.00763604
0.00763601
0.007636
0.007636
0.00763601
0.00763602
0.00763604
0.00763606
0.00763607
0.00763607
0.00763605
0.00763599
0.00763574
0.00763439
0.007627
0.00759048
0.00743631
0.00690969
0.0056807
0.00690962
0.00747235
0.0080839
0.00830188
0.00836111
0.00837441
0.00837699
0.00837746
0.00837755
0.00837758
0.00837759
0.0083776
0.0083776
0.0083776
0.0083776
0.00837759
0.00837759
0.00837759
0.00837759
0.00837759
0.0083776
0.0083776
0.00837761
0.00837761
0.00837761
0.0083776
0.00837752
0.00837707
0.00837449
0.00836119
0.00830196
0.00808397
0.00747242
0.00690972
0.00743639
0.00808399
0.00881422
0.00909652
0.00918025
0.00920079
0.00920516
0.00920603
0.00920624
0.00920632
0.0092064
0.0092065
0.00920661
0.00920672
0.0092068
0.00920687
0.00920691
0.00920693
0.00920693
0.00920692
0.00920688
0.00920682
0.00920674
0.00920664
0.00920653
0.00920642
0.00920622
0.00920537
0.00920101
0.00918046
0.00909672
0.0088144
0.00808415
0.00743662
0.00759068
0.00830207
0.00909662
0.00941403
0.00951191
0.00953694
0.0095425
0.00954364
0.00954385
0.00954383
0.00954382
0.00954404
0.00954434
0.00954462
0.00954484
0.009545
0.0095451
0.00954514
0.00954515
0.00954511
0.00954502
0.00954488
0.00954466
0.00954439
0.00954409
0.00954386
0.0095437
0.00954272
0.00953725
0.00951225
0.00941436
0.00909692
0.00830232
0.00759104
0.00762729
0.00836134
0.0091804
0.00951196
0.00961585
0.00964289
0.00964895
0.00964997
0.00964956
0.00964843
0.00964743
0.00964773
0.0096485
0.00964916
0.00964961
0.00964987
0.00965
0.00965006
0.00965006
0.00965001
0.00964989
0.00964965
0.00964921
0.00964856
0.0096478
0.00964748
0.00964829
0.0096483
0.00964296
0.00961621
0.00951237
0.00918078
0.00836167
0.00762774
0.00763473
0.00837465
0.00920095
0.009537
0.0096429
0.00967055
0.0096764
0.00967614
0.00967243
0.0096657
0.00965978
0.00966055
0.00966347
0.00966556
0.00966663
0.00966705
0.00966717
0.00966721
0.00966721
0.00966719
0.00966709
0.00966668
0.00966563
0.00966354
0.00966063
0.00965984
0.00966557
0.00967114
0.0096689
0.0096428
0.00953736
0.00920137
0.00837502
0.00763527
0.00763611
0.00837722
0.0092053
0.00954254
0.00964893
0.00967638
0.00968063
0.00967503
0.00965807
0.00962866
0.00960348
0.00960815
0.00962153
0.0096297
0.00963289
0.009634
0.00963412
0.00963409
0.00963409
0.00963415
0.00963404
0.00963295
0.00962977
0.00962162
0.00960825
0.00960355
0.00962854
0.00965677
0.00966774
0.00964679
0.00954245
0.00920567
0.0083776
0.00763671
0.00763637
0.00837765
0.00920613
0.00954364
0.00964992
0.00967612
0.00967512
0.00965233
0.00959175
0.00948652
0.00940311
0.00942385
0.0094788
0.00950928
0.00951927
0.00952325
0.00952392
0.00952388
0.00952389
0.00952395
0.0095233
0.00951934
0.00950937
0.00947891
0.00942397
0.00940318
0.00948639
0.00959046
0.00964504
0.00964122
0.00954199
0.0092062
0.008378
0.00763703
0.00763643
0.00837769
0.00920627
0.00954379
0.0096495
0.0096726
0.00965889
0.00959339
0.00942087
0.00911988
0.00896649
0.00896177
0.00913827
0.00923324
0.00926097
0.00927365
0.00927659
0.00927694
0.00927695
0.00927663
0.0092737
0.00926105
0.00923336
0.00913842
0.00896192
0.00896653
0.00911975
0.00941959
0.00958611
0.00962499
0.0095384
0.0092056
0.00837791
0.00763709
0.00763643
0.00837765
0.00920628
0.00954372
0.00964849
0.00966668
0.00963233
0.00949548
0.00913372
0.00856775
0.0102908
0.00821612
0.00855931
0.00878169
0.00884549
0.00887221
0.00887875
0.00887986
0.00887987
0.00887879
0.00887227
0.00884558
0.00878183
0.00855953
0.00821632
0.0102904
0.00856757
0.00913241
0.00948818
0.00959839
0.00953239
0.00920442
0.00837763
0.00763702
0.00763639
0.00837759
0.00920628
0.00954372
0.00964793
0.00966292
0.00961476
0.00943366
0.00903326
0.0104592
0.00956559
0.00817645
0.00844532
0.00855544
0.00857316
0.00857409
0.00857376
0.00857377
0.0085741
0.00857319
0.0085555
0.00844543
0.00817665
0.0095663
0.0104587
0.00903186
0.00942629
0.00958073
0.00952849
0.00920364
0.00837738
0.00763691
0.00763631
0.00837751
0.00920631
0.009544
0.00964901
0.00966739
0.009633
0.00949526
0.00913037
0.00855643
0.0102256
0.00816214
0.00853169
0.00877914
0.00889533
0.00886456
0.00884806
0.00884379
0.00884377
0.00884802
0.0088645
0.00889527
0.00877908
0.00853164
0.0081619
0.0102243
0.0085559
0.00912887
0.00948784
0.00959891
0.00953281
0.00920445
0.00837736
0.00763683
0.00763621
0.00837744
0.00920636
0.00954436
0.00965053
0.00967398
0.00966018
0.00959294
0.00941393
0.00909525
0.00890315
0.00885341
0.00901534
0.0090958
0.00913013
0.0091177
0.00910923
0.0091065
0.00910649
0.0091092
0.00911764
0.00913004
0.00909568
0.00901518
0.00885313
0.00890275
0.00909477
0.00941243
0.00958551
0.00962604
0.00953926
0.00920572
0.00837744
0.00763673
0.0076361
0.00837737
0.00920639
0.00954463
0.00965158
0.00967828
0.00967718
0.00965198
0.00958223
0.0094523
0.00931827
0.00926985
0.00927558
0.00926113
0.00925381
0.00924603
0.00924199
0.00924057
0.00924056
0.00924195
0.00924597
0.00925373
0.00926101
0.00927541
0.0092696
0.00931799
0.00945191
0.00958077
0.00964454
0.00964298
0.00954344
0.00920657
0.00837747
0.00763659
0.00763598
0.00837731
0.00920641
0.0095448
0.00965214
0.00968026
0.00968444
0.00967604
0.00964814
0.00958928
0.00950459
0.00942577
0.0093717
0.00932162
0.0092999
0.0092919
0.00928905
0.00928812
0.00928811
0.00928902
0.00929185
0.00929983
0.00932151
0.00937155
0.00942554
0.00950437
0.00958894
0.0096467
0.00966859
0.0096502
0.00954534
0.00920697
0.00837746
0.00763641
0.00763586
0.00837726
0.00920643
0.0095449
0.00965241
0.00968104
0.00968694
0.00968376
0.00966832
0.00962987
0.00956006
0.00947101
0.00939937
0.00933888
0.00931311
0.00930472
0.0093021
0.00930127
0.00930126
0.00930206
0.00930466
0.00931304
0.00933877
0.00939923
0.00947079
0.00955987
0.00962955
0.00966689
0.00967631
0.00965268
0.00954605
0.00920714
0.00837742
0.00763624
0.00763576
0.00837723
0.00920644
0.00954497
0.00965255
0.00968134
0.00968773
0.00968591
0.00967356
0.00963995
0.00957356
0.009482
0.00940607
0.00934307
0.00931634
0.00930779
0.00930518
0.00930434
0.00930432
0.00930514
0.00930773
0.00931626
0.00934296
0.00940593
0.00948179
0.00957339
0.00963965
0.00967214
0.00967845
0.00965346
0.00954632
0.00920721
0.00837739
0.00763609
0.00763568
0.00837721
0.00920645
0.00954501
0.00965262
0.00968147
0.00968798
0.00968646
0.00967477
0.00964214
0.0095764
0.00948433
0.0094075
0.009344
0.00931706
0.00930845
0.00930582
0.00930494
0.00930492
0.00930577
0.0093084
0.00931698
0.00934389
0.00940737
0.00948413
0.00957624
0.00964185
0.00967336
0.00967902
0.0096537
0.00954643
0.00920724
0.00837737
0.00763598
0.00763564
0.00837721
0.00920646
0.00954503
0.00965265
0.0096815
0.00968802
0.00968652
0.00967485
0.00964223
0.0095765
0.00948443
0.00940757
0.00934404
0.00931708
0.00930846
0.00930581
0.0093049
0.00930488
0.00930576
0.00930841
0.00931701
0.00934394
0.00940744
0.00948424
0.00957634
0.00964195
0.00967345
0.00967908
0.00965376
0.00954647
0.00920726
0.00837737
0.00763592
0.00763565
0.00837722
0.00920646
0.00954502
0.00965263
0.00968145
0.00968786
0.00968608
0.00967378
0.00964022
0.00957386
0.0094823
0.00940628
0.00934323
0.00931644
0.00930784
0.00930517
0.00930427
0.00930425
0.00930513
0.00930778
0.00931637
0.00934313
0.00940616
0.00948213
0.00957373
0.00963995
0.0096724
0.00967866
0.00965361
0.00954643
0.00920726
0.00837739
0.00763594
0.00763571
0.00837725
0.00920647
0.009545
0.00965255
0.00968122
0.00968718
0.00968406
0.00966871
0.00963036
0.00956064
0.00947161
0.0093998
0.00933922
0.00931336
0.00930489
0.00930219
0.00930129
0.00930127
0.00930215
0.00930484
0.0093133
0.00933913
0.0093997
0.00947146
0.00956053
0.00963012
0.00966735
0.00967666
0.00965295
0.00954624
0.00920723
0.00837742
0.00763602
0.0076358
0.0083773
0.00920647
0.00954493
0.00965233
0.00968052
0.00968478
0.00967649
0.00964875
0.00959013
0.00950565
0.00942689
0.00937253
0.0093223
0.00930046
0.00929238
0.00928945
0.00928845
0.00928844
0.00928942
0.00929234
0.00930042
0.00932225
0.00937247
0.0094268
0.00950558
0.00958992
0.00964742
0.00966912
0.00965059
0.0095456
0.00920711
0.00837746
0.00763616
0.0076359
0.00837736
0.00920647
0.0095448
0.00965184
0.00967862
0.00967763
0.00965262
0.00958316
0.00945371
0.00932015
0.00927182
0.00927706
0.00926239
0.00925493
0.00924712
0.00924304
0.00924159
0.00924159
0.00924303
0.00924712
0.00925494
0.00926241
0.0092771
0.00927185
0.00932016
0.00945355
0.00958187
0.00964529
0.0096435
0.00954379
0.00920675
0.00837749
0.00763631
0.00763601
0.00837743
0.00920646
0.00954457
0.00965084
0.0096744
0.00966075
0.00959377
0.00941523
0.00909736
0.00890609
0.00885625
0.00901738
0.00909752
0.00913172
0.00911937
0.00911093
0.00910821
0.00910822
0.00911096
0.00911942
0.0091318
0.00909762
0.00901753
0.00885642
0.00890616
0.00909726
0.00941398
0.0095865
0.0096267
0.0095397
0.00920595
0.00837747
0.00763644
0.00763611
0.00837751
0.00920643
0.00954425
0.00964939
0.0096679
0.00963367
0.0094962
0.00913182
0.00855879
0.0102352
0.00816367
0.00853176
0.00877864
0.00889468
0.0088638
0.00884723
0.00884296
0.00884297
0.00884725
0.00886381
0.00889465
0.00877842
0.00853134
0.00816318
0.0102352
0.00855852
0.00913053
0.00948895
0.00959969
0.00953333
0.00920471
0.00837739
0.00763652
0.00763619
0.00837758
0.0092064
0.00954399
0.00964834
0.00966347
0.00961545
0.0094345
0.00903414
0.0104587
0.00954738
0.00816563
0.00843039
0.00853789
0.00855461
0.00855519
0.00855473
0.00855469
0.00855503
0.00855416
0.0085367
0.00842758
0.00816043
0.0095366
0.010456
0.00903243
0.00942714
0.00958151
0.00952905
0.00920391
0.0083774
0.0076366
0.0076362
0.00837758
0.0092063
0.00954386
0.00964878
0.00966713
0.00963294
0.00949622
0.00913439
0.00856753
0.0102824
0.00819711
0.0085245
0.00873023
0.00878372
0.0088065
0.00881217
0.00881308
0.008813
0.00881179
0.00880518
0.00877955
0.00871985
0.00850649
0.00817784
0.0102573
0.00856249
0.00913159
0.00948856
0.00959899
0.00953284
0.00920459
0.00837758
0.00763669
0.00763602
0.00837721
0.00920554
0.00954296
0.00964872
0.00967195
0.00965839
0.00959286
0.00941953
0.00911499
0.00894957
0.00891913
0.00905805
0.00911802
0.00912265
0.00912439
0.00912473
0.00912466
0.00912453
0.00912399
0.00912142
0.00911277
0.00909371
0.00902192
0.00887962
0.00892207
0.00910318
0.00941413
0.00958443
0.00962433
0.00953787
0.00920504
0.00837744
0.00763658
0.00763471
0.00837468
0.00920125
0.00953758
0.00964342
0.00966958
0.00966864
0.00964559
0.00958328
0.00947164
0.00936998
0.0093529
0.0093556
0.00934872
0.00932179
0.00930962
0.00930598
0.00930506
0.00930487
0.00930487
0.00930504
0.00930613
0.00931161
0.00931801
0.00929998
0.00933158
0.00945302
0.00957512
0.00963636
0.00963462
0.00953621
0.0092015
0.00837506
0.00763528
0.00762732
0.00836142
0.00918074
0.00951263
0.00961673
0.0096435
0.00964762
0.00964165
0.0096227
0.00958616
0.00954153
0.00950637
0.00946427
0.00943158
0.00939431
0.00937834
0.00937367
0.00937257
0.00937237
0.00937251
0.00937341
0.00937738
0.00939141
0.0094237
0.00945076
0.00950142
0.00956627
0.00961405
0.00963251
0.00961444
0.00951282
0.00918129
0.00836183
0.00762788
0.00759077
0.00830218
0.00909699
0.00941474
0.00951289
0.00953807
0.00954332
0.00954269
0.00953751
0.00952545
0.00950493
0.0094751
0.00943221
0.0093909
0.00936035
0.00934762
0.00934385
0.00934297
0.00934282
0.00934294
0.00934375
0.00934733
0.00935957
0.00938909
0.00942939
0.00947433
0.00951065
0.00953101
0.00953484
0.00951282
0.00941539
0.00909759
0.00830257
0.00759127
0.00743653
0.00808413
0.00881462
0.00909722
0.00918122
0.00920199
0.00920648
0.00920707
0.00920584
0.00920183
0.00919282
0.00917592
0.00914975
0.00912242
0.00910454
0.00909704
0.00909471
0.00909413
0.00909403
0.00909413
0.00909471
0.009097
0.0091044
0.00912209
0.00914926
0.00917585
0.00919388
0.00920224
0.00920141
0.00918175
0.0090979
0.00881512
0.00808444
0.00743693
0.00690981
0.0074725
0.00808429
0.00830254
0.00836199
0.0083755
0.00837827
0.00837883
0.00837867
0.00837747
0.00837409
0.00836678
0.00835472
0.00834129
0.00833294
0.00832937
0.00832818
0.00832783
0.00832777
0.00832786
0.00832824
0.00832945
0.00833301
0.00834134
0.00835474
0.00836686
0.00837428
0.00837722
0.00837575
0.00836258
0.00830309
0.00808467
0.00747272
0.00691009
0.00568081
0.00690983
0.00743678
0.00759129
0.00762812
0.00763584
0.00763755
0.00763816
0.00763847
0.00763828
0.00763688
0.00763303
0.00762586
0.00761715
0.00761201
0.00760977
0.00760886
0.00760848
0.00760838
0.00760852
0.00760893
0.00760984
0.00761206
0.00761715
0.00762581
0.00763294
0.00763678
0.00763793
0.00763676
0.00762906
0.00759206
0.00743731
0.00691012
0.00568108
0.0062017
0.00806377
0.00893156
0.00920895
0.00928084
0.00929669
0.00929976
0.0093003
0.00930038
0.00930038
0.00930035
0.00930029
0.00930023
0.00930016
0.0093001
0.00930005
0.00930001
0.00929999
0.00929998
0.0093
0.00930004
0.00930009
0.00930014
0.00930021
0.00930026
0.0093003
0.00930025
0.00929974
0.00929669
0.00928084
0.00920896
0.00893158
0.00806381
0.00620179
0.00806376
0.00836235
0.00900783
0.00926609
0.00934383
0.00936301
0.00936704
0.00936778
0.00936788
0.00936787
0.00936783
0.00936778
0.00936773
0.00936769
0.00936765
0.00936762
0.00936759
0.00936758
0.00936758
0.00936759
0.00936762
0.00936765
0.00936769
0.00936773
0.00936777
0.0093678
0.00936772
0.00936701
0.00936299
0.00934382
0.00926608
0.00900782
0.00836234
0.0080638
0.00893173
0.0090079
0.0096751
0.00997061
0.0100685
0.010095
0.0101011
0.0101023
0.0101025
0.0101025
0.0101024
0.0101024
0.0101024
0.0101024
0.0101024
0.0101024
0.0101024
0.0101024
0.0101024
0.0101024
0.0101024
0.0101024
0.0101024
0.0101024
0.0101024
0.0101024
0.0101022
0.0101011
0.010095
0.0100685
0.00997067
0.00967516
0.00900796
0.00893191
0.00920929
0.00926625
0.00997069
0.0102935
0.0104047
0.0104361
0.0104436
0.0104452
0.0104453
0.0104449
0.0104446
0.0104445
0.0104446
0.0104447
0.0104448
0.0104448
0.0104449
0.0104449
0.0104449
0.0104449
0.0104449
0.0104448
0.0104447
0.0104446
0.0104445
0.0104446
0.0104446
0.0104434
0.0104361
0.0104048
0.0102936
0.00997084
0.00926639
0.00920961
0.00928129
0.00934403
0.0100686
0.0104047
0.0105224
0.0105562
0.0105643
0.0105656
0.0105647
0.0105627
0.0105608
0.0105603
0.0105606
0.010561
0.0105612
0.0105613
0.0105613
0.0105613
0.0105613
0.0105613
0.0105613
0.0105612
0.010561
0.0105607
0.0105604
0.0105608
0.0105624
0.0105627
0.0105557
0.0105224
0.0104049
0.0100688
0.00934423
0.00928171
0.0092972
0.00936323
0.0100951
0.0104362
0.0105562
0.0105908
0.0105985
0.0105979
0.0105925
0.0105835
0.0105753
0.0105736
0.0105754
0.0105768
0.0105773
0.0105777
0.0105778
0.0105777
0.0105777
0.0105778
0.0105777
0.0105773
0.0105769
0.0105755
0.0105736
0.0105753
0.0105831
0.0105904
0.0105876
0.0105554
0.0104361
0.0100953
0.00936344
0.00929769
0.00930029
0.00936725
0.0101012
0.0104437
0.0105643
0.0105985
0.010604
0.0105963
0.0105752
0.0105414
0.0105131
0.0105085
0.0105188
0.010525
0.0105259
0.0105284
0.0105289
0.0105289
0.0105289
0.010529
0.0105284
0.0105259
0.0105251
0.0105188
0.0105086
0.0105131
0.0105411
0.010573
0.0105859
0.0105604
0.0104429
0.0101012
0.00936744
0.00930083
0.00930082
0.00936796
0.0101024
0.0104452
0.0105656
0.010598
0.0105966
0.0105689
0.010502
0.0103983
0.0103258
0.0103046
0.0103475
0.0103713
0.0103716
0.0103835
0.0103869
0.0103871
0.0103871
0.0103869
0.0103835
0.0103717
0.0103714
0.0103476
0.0103047
0.0103258
0.0103979
0.0104998
0.0105585
0.010553
0.010442
0.0101019
0.00936803
0.00930134
0.00930087
0.00936802
0.0101026
0.0104453
0.0105648
0.0105932
0.0105771
0.0105053
0.0103383
0.0100969
0.0100766
0.00984656
0.0099709
0.0100445
0.0100399
0.0100811
0.0100921
0.0100934
0.0100934
0.0100921
0.0100811
0.01004
0.0100446
0.00997102
0.00984665
0.0100765
0.0100965
0.0103362
0.0104948
0.0105334
0.0104371
0.0101009
0.00936783
0.00930126
0.00930081
0.00936795
0.0101025
0.010445
0.0105633
0.0105859
0.0105487
0.0104154
0.0101252
0.00989521
0.0130875
0.00917833
0.0093388
0.00952093
0.00952254
0.00960737
0.00962843
0.00963149
0.0096315
0.00962848
0.00960744
0.00952261
0.00952107
0.009339
0.00917841
0.0130869
0.0098947
0.0101229
0.0104048
0.0105049
0.0104296
0.0100991
0.00936735
0.00930094
0.00930069
0.00936785
0.0101024
0.0104449
0.0105625
0.0105818
0.0105334
0.0103806
0.0102159
0.0136001
0.0108675
0.00897483
0.00925083
0.00938978
0.00938642
0.00937937
0.00937739
0.0093774
0.0093794
0.00938646
0.00938986
0.00925098
0.00897505
0.0108682
0.0135983
0.0102135
0.0103698
0.0104894
0.0104253
0.010098
0.00936695
0.00930058
0.00930053
0.00936775
0.0101024
0.0104451
0.0105635
0.0105862
0.0105486
0.0104136
0.0101184
0.00987183
0.0129052
0.0091432
0.00956146
0.00990805
0.0103145
0.00999895
0.00990807
0.00989183
0.00989181
0.009908
0.00999881
0.0103144
0.00990795
0.00956136
0.00914281
0.0129037
0.00987113
0.0101161
0.0104029
0.0105045
0.0104296
0.0100989
0.00936695
0.00930041
0.00930035
0.00936766
0.0101024
0.0104455
0.0105653
0.0105936
0.0105766
0.0105013
0.0103238
0.0100556
0.00998115
0.009772
0.0101061
0.010216
0.0103086
0.0102327
0.0102021
0.0101949
0.0101949
0.0102021
0.0102326
0.0103085