/*--------------------------------*- C++ -*----------------------------------*\
| =========                 |                                                 |
| \\      /  F ield         | OpenFOAM: The Open Source CFD Toolbox           |
|  \\    /   O peration     | Version:  2112                                  |
|   \\  /    A nd           | Website:  www.openfoam.com                      |
|    \\/     M anipulation  |                                                 |
\*---------------------------------------------------------------------------*/
FoamFile
{
    version     2.0;
    format      ascii;
    arch        "LSB;label=32;scalar=64";
    class       volScalarField;
    location    "1.2";
    object      k;
}
// * * * * * * * * * * * * * * * * * * * * * * * * * * * * * * * * * * * * * //

dimensions      [0 2 -2 0 0 0 0];

internalField   nonuniform List<scalar> 
64906
(
0.00235977
0.00245544
0.00249315
0.00250299
0.00250509
0.00250549
0.00250558
0.00250562
0.00250565
0.00250569
0.00250572
0.00250574
0.00250576
0.00250577
0.00250577
0.00250577
0.00250577
0.00250576
0.00250576
0.00250576
0.00250576
0.00250576
0.00250576
0.00250575
0.00250573
0.00250571
0.00250568
0.00250564
0.00250554
0.00250514
0.00250304
0.0024932
0.00245549
0.00235981
0.00245546
0.00320237
0.00347657
0.00355574
0.00357519
0.00357934
0.00358017
0.00358036
0.00358044
0.00358052
0.00358059
0.00358066
0.00358072
0.00358077
0.00358081
0.00358084
0.00358086
0.00358087
0.00358087
0.00358086
0.00358085
0.00358082
0.00358078
0.00358073
0.00358067
0.00358061
0.00358052
0.00358033
0.0035795
0.00357533
0.00355588
0.00347671
0.00320249
0.00245553
0.00249321
0.00347666
0.00386678
0.0039902
0.00402355
0.00403137
0.00403305
0.00403346
0.00403364
0.00403379
0.00403395
0.00403413
0.0040343
0.00403446
0.00403459
0.00403468
0.00403475
0.00403479
0.00403479
0.00403476
0.0040347
0.00403461
0.00403448
0.00403433
0.00403417
0.00403399
0.00403379
0.00403337
0.00403167
0.00402382
0.00399046
0.00386702
0.00347686
0.00249332
0.00250308
0.00355588
0.00399026
0.00413389
0.0041745
0.00418448
0.00418672
0.00418727
0.0041875
0.00418766
0.00418785
0.00418815
0.00418847
0.00418876
0.00418899
0.00418917
0.00418928
0.00418934
0.00418934
0.00418929
0.00418919
0.00418902
0.0041888
0.00418852
0.00418821
0.0041879
0.00418766
0.00418712
0.00418488
0.00417488
0.00413424
0.00399059
0.00355614
0.00250321
0.00250519
0.00357535
0.00402364
0.00417454
0.00421803
0.00422893
0.00423142
0.00423197
0.004232
0.00423178
0.00423165
0.0042321
0.00423269
0.00423321
0.00423361
0.00423386
0.00423401
0.00423409
0.00423409
0.00423403
0.00423388
0.00423364
0.00423325
0.00423274
0.00423217
0.00423171
0.00423178
0.00423157
0.0042293
0.00421847
0.00417497
0.00402403
0.00357567
0.00250535
0.00250561
0.00357951
0.00403148
0.00418452
0.00422894
0.00424013
0.00424258
0.00424267
0.00424144
0.00423899
0.00423679
0.00423773
0.00423929
0.0042405
0.00424128
0.00424161
0.00424177
0.00424185
0.00424185
0.00424179
0.00424164
0.00424132
0.00424055
0.00423936
0.0042378
0.00423686
0.00423899
0.004241
0.00423992
0.00422927
0.00418498
0.00403193
0.00357988
0.0025058
0.00250571
0.00358033
0.00403314
0.00418675
0.0042314
0.00424255
0.00424441
0.00424242
0.00423575
0.0042233
0.00421161
0.00421593
0.00422227
0.00422616
0.00422811
0.00422855
0.00422862
0.00422865
0.00422866
0.00422864
0.00422859
0.00422816
0.00422622
0.00422235
0.00421602
0.00421168
0.00422331
0.00423532
0.00423966
0.00423102
0.0041871
0.00403363
0.00358074
0.00250592
0.00250575
0.0035805
0.00403352
0.00418726
0.00423191
0.00424261
0.00424241
0.00423331
0.00420729
0.00415689
0.00410616
0.00413254
0.00416082
0.00417486
0.00418048
0.00418128
0.0041812
0.00418116
0.00418117
0.00418123
0.00418133
0.00418054
0.00417494
0.00416091
0.00413264
0.00410624
0.00415691
0.00420688
0.00423057
0.00422901
0.0041871
0.00403396
0.00358095
0.002506
0.00250578
0.00358055
0.00403365
0.00418743
0.00423189
0.00424139
0.00423593
0.0042078
0.00412572
0.00395055
0.00374815
0.00389335
0.00400751
0.00405384
0.00406878
0.00407127
0.00407147
0.00407149
0.0040715
0.0040715
0.00407133
0.00406886
0.00405394
0.00400763
0.00389349
0.0037482
0.00395057
0.00412533
0.00420508
0.00422256
0.00418588
0.00403389
0.003581
0.00250605
0.0025058
0.00358058
0.00403374
0.00418752
0.00423165
0.00423913
0.0042244
0.0041598
0.00395447
0.00343734
0.00272087
0.00334728
0.00372807
0.00385186
0.00388366
0.00389075
0.00389224
0.00389258
0.00389259
0.00389227
0.0038908
0.00388374
0.00385196
0.00372823
0.00334749
0.00272086
0.00343737
0.00395411
0.00415713
0.00421107
0.00418363
0.00403359
0.00358099
0.00250609
0.00250581
0.00358059
0.00403383
0.00418765
0.00423159
0.00423765
0.0042155
0.00411663
0.00376542
0.00272945
0.00267869
0.00345604
0.0036751
0.00372419
0.00373318
0.00373452
0.0037347
0.0037347
0.00373453
0.00373321
0.00372422
0.00367518
0.0034562
0.0026788
0.00272948
0.00376507
0.00411397
0.00420218
0.00418213
0.00403345
0.00358098
0.00250612
0.00250581
0.00358059
0.00403392
0.00418789
0.00423223
0.00423995
0.00422543
0.00416064
0.00395383
0.00343225
0.00271711
0.00331713
0.00368983
0.00380955
0.00383993
0.0038435
0.00384287
0.00384242
0.00384242
0.00384286
0.00384348
0.00383991
0.00380952
0.00368982
0.00331707
0.00271695
0.00343198
0.00395332
0.00415789
0.00421204
0.00418433
0.00403395
0.00358102
0.00250613
0.0025058
0.00358058
0.00403401
0.00418815
0.004233
0.00424293
0.00423781
0.00420936
0.00412463
0.00394145
0.00372203
0.00383042
0.00390718
0.00393486
0.003942
0.0039416
0.00394045
0.00393991
0.0039399
0.00394043
0.00394156
0.00394194
0.00393478
0.00390707
0.00383024
0.00372173
0.0039412
0.00412409
0.00420656
0.00422435
0.00418721
0.00403458
0.00358108
0.00250612
0.00250578
0.00358057
0.00403408
0.00418835
0.00423356
0.00424485
0.00424513
0.00423563
0.00420596
0.0041437
0.00406462
0.00403884
0.00400889
0.00399453
0.00398923
0.00398671
0.00398546
0.00398495
0.00398494
0.00398543
0.00398666
0.00398915
0.00399443
0.00400876
0.00403857
0.00406439
0.00414348
0.00420541
0.00423279
0.00423161
0.00418905
0.00403501
0.00358111
0.00250609
0.00250575
0.00358055
0.00403413
0.0041885
0.00423388
0.00424578
0.00424824
0.00424581
0.00423482
0.00420798
0.00416171
0.00410559
0.00404371
0.0040151
0.00400517
0.00400174
0.00400037
0.00399982
0.00399981
0.00400033
0.00400168
0.00400509
0.00401499
0.00404358
0.00410534
0.00416152
0.00420779
0.00423427
0.00424296
0.00423469
0.00418993
0.00403525
0.00358112
0.00250605
0.00250572
0.00358054
0.00403417
0.0041886
0.00423407
0.0042462
0.00424937
0.00424909
0.00424332
0.00422544
0.00418627
0.00412362
0.00405341
0.00402088
0.00400959
0.00400582
0.00400432
0.00400367
0.00400364
0.00400427
0.00400574
0.0040095
0.00402077
0.00405328
0.00412338
0.00418609
0.00422526
0.00424277
0.00424624
0.00423581
0.00419032
0.00403537
0.00358111
0.002506
0.00250569
0.00358052
0.0040342
0.00418867
0.00423419
0.00424639
0.00424978
0.00425007
0.00424556
0.00422969
0.00419193
0.00412799
0.0040558
0.00402235
0.00401069
0.00400679
0.00400518
0.0040044
0.00400437
0.00400511
0.0040067
0.0040106
0.00402223
0.00405566
0.00412776
0.00419176
0.00422952
0.00424502
0.00424721
0.00423622
0.0041905
0.00403545
0.0035811
0.00250595
0.00250566
0.00358051
0.00403422
0.00418871
0.00423425
0.00424649
0.00424994
0.00425037
0.00424614
0.00423067
0.00419317
0.004129
0.00405636
0.00402271
0.00401096
0.00400699
0.00400531
0.00400442
0.00400437
0.00400523
0.0040069
0.00401086
0.00402259
0.00405622
0.00412877
0.00419301
0.0042305
0.0042456
0.00424752
0.00423638
0.00419059
0.00403549
0.0035811
0.0025059
0.00250564
0.00358051
0.00403423
0.00418873
0.00423428
0.00424652
0.00424999
0.00425042
0.00424621
0.00423075
0.00419326
0.00412909
0.00405641
0.00402274
0.00401097
0.00400698
0.00400526
0.00400431
0.00400425
0.00400517
0.00400688
0.00401086
0.00402262
0.00405627
0.00412887
0.00419311
0.0042306
0.00424568
0.00424758
0.00423643
0.00419062
0.00403551
0.0035811
0.00250587
0.00250564
0.00358052
0.00403423
0.00418872
0.00423426
0.00424649
0.00424991
0.00425023
0.00424577
0.00422995
0.00419222
0.00412828
0.00405595
0.00402245
0.00401073
0.00400675
0.00400504
0.00400411
0.00400406
0.00400495
0.00400665
0.00401063
0.00402233
0.00405582
0.00412807
0.00419208
0.0042298
0.00424526
0.0042474
0.00423637
0.0041906
0.00403551
0.0035811
0.00250587
0.00250566
0.00358053
0.00403422
0.00418869
0.0042342
0.00424636
0.00424959
0.00424937
0.00424368
0.0042259
0.0041868
0.00412416
0.0040537
0.00402108
0.00400968
0.00400578
0.00400413
0.00400329
0.00400324
0.00400404
0.00400568
0.00400957
0.00402096
0.00405358
0.00412397
0.00418668
0.00422577
0.00424319
0.00424656
0.00423606
0.0041905
0.00403548
0.00358112
0.00250591
0.00250569
0.00358055
0.00403421
0.00418863
0.00423406
0.00424602
0.00424855
0.00424622
0.00423537
0.0042087
0.0041626
0.0041065
0.00404421
0.00401544
0.00400535
0.00400175
0.0040002
0.00399947
0.00399944
0.00400011
0.00400166
0.00400525
0.00401533
0.0040441
0.00410636
0.00416252
0.00420861
0.0042349
0.00424344
0.00423505
0.00419019
0.0040354
0.00358114
0.00250596
0.00250572
0.00358057
0.00403417
0.00418852
0.00423379
0.00424516
0.00424554
0.00423618
0.00420674
0.00414482
0.00406611
0.00404034
0.00400969
0.00399507
0.00398957
0.00398686
0.00398542
0.00398478
0.00398476
0.00398536
0.00398677
0.00398948
0.00399499
0.00400963
0.00404028
0.0040661
0.00414479
0.00420632
0.00423344
0.00423209
0.00418939
0.00403521
0.00358115
0.002506
0.00250574
0.0035806
0.00403413
0.00418836
0.00423329
0.00424331
0.00423832
0.00421007
0.00412569
0.00394309
0.00372444
0.00383223
0.00390819
0.00393554
0.00394244
0.00394186
0.00394057
0.00393994
0.00393992
0.00394052
0.0039418
0.00394238
0.00393549
0.0039082
0.00383234
0.00372453
0.00394315
0.00412534
0.0042074
0.00422494
0.00418763
0.00403483
0.00358115
0.00250604
0.00250576
0.00358062
0.00403406
0.00418814
0.00423257
0.00424041
0.00422603
0.00416146
0.00395506
0.00343419
0.0027184
0.00331829
0.00368986
0.0038093
0.00383946
0.00384286
0.0038421
0.00384158
0.00384157
0.00384206
0.00384278
0.00383935
0.00380916
0.00368977
0.00331853
0.00271836
0.00343432
0.00395478
0.00415887
0.00421275
0.00418484
0.00403426
0.00358111
0.00250606
0.00250577
0.00358063
0.00403399
0.00418793
0.00423198
0.00423816
0.00421612
0.00411735
0.00376615
0.00272964
0.00267687
0.00345176
0.00366975
0.00371795
0.00372647
0.00372756
0.0037276
0.00372757
0.00372744
0.00372623
0.00371744
0.00366877
0.00345028
0.00267602
0.00272951
0.00376579
0.00411479
0.00420291
0.0041827
0.00403381
0.00358109
0.00250606
0.00250576
0.00358062
0.0040339
0.00418779
0.00423204
0.00423967
0.00422512
0.0041607
0.00395553
0.00343849
0.00272178
0.00334069
0.00371505
0.00383054
0.0038574
0.00386285
0.00386388
0.00386404
0.00386399
0.00386367
0.00386223
0.00385559
0.00382614
0.00370701
0.00333482
0.00272045
0.00343762
0.0039548
0.00415803
0.0042119
0.00418426
0.00403398
0.00358111
0.00250605
0.00250574
0.00358048
0.00403356
0.00418737
0.00423192
0.00424158
0.00423631
0.00420835
0.00412617
0.00394996
0.00374363
0.00387608
0.00396923
0.00398892
0.00398967
0.00398853
0.0039881
0.00398798
0.00398791
0.00398775
0.00398723
0.00398516
0.00397624
0.00394356
0.00385522
0.00373274
0.00394526
0.00412417
0.00420531
0.00422303
0.00418623
0.00403406
0.00358104
0.00250602
0.00250566
0.0035797
0.00403193
0.00418522
0.00422976
0.00424055
0.00424054
0.00423154
0.00420501
0.00415192
0.00409236
0.00409597
0.00408303
0.00404594
0.00402828
0.00402249
0.00402093
0.00402054
0.00402046
0.00402047
0.00402065
0.00402139
0.00402413
0.00403311
0.0040546
0.00406966
0.00414238
0.00420144
0.00422809
0.00422725
0.0041855
0.00403268
0.00358027
0.00250593
0.00250526
0.00357557
0.00402413
0.00417528
0.004219
0.00422998
0.00423196
0.00423004
0.00422274
0.00420713
0.00418529
0.00416461
0.00412582
0.00407553
0.00405323
0.00404628
0.00404452
0.00404414
0.00404407
0.00404409
0.00404439
0.00404589
0.00405204
0.00407235
0.00411945
0.00416014
0.00419657
0.00421889
0.00422663
0.00421903
0.00417613
0.00402495
0.00357613
0.00250551
0.00250316
0.00355613
0.00399078
0.00413466
0.00417552
0.00418574
0.0041881
0.00418827
0.0041867
0.00418211
0.00417295
0.00415695
0.00412864
0.00409462
0.00407806
0.00407255
0.00407121
0.00407099
0.00407095
0.00407093
0.00407109
0.00407232
0.00407758
0.00409368
0.00412715
0.00415602
0.00417499
0.00418409
0.00418548
0.00417638
0.00413564
0.00399158
0.00355666
0.00250339
0.00249331
0.00347693
0.00386731
0.00399097
0.00402455
0.00403264
0.00403459
0.00403517
0.00403516
0.00403406
0.00403073
0.00402325
0.00400991
0.00399415
0.00398585
0.00398292
0.00398219
0.00398208
0.00398207
0.00398205
0.00398212
0.0039828
0.00398566
0.00399385
0.00400949
0.00402292
0.00403088
0.00403401
0.00403337
0.00402556
0.00399189
0.00386804
0.00347741
0.00249351
0.00245557
0.00320265
0.00347708
0.00355644
0.00357607
0.00358044
0.00358151
0.00358197
0.00358226
0.00358224
0.00358151
0.00357931
0.00357519
0.00357014
0.00356731
0.00356621
0.0035659
0.00356583
0.00356582
0.00356583
0.00356589
0.00356619
0.00356727
0.00357007
0.00357508
0.00357921
0.00358143
0.00358205
0.00358129
0.00357691
0.00355716
0.00347764
0.00320303
0.00245575
0.00235986
0.0024556
0.0024934
0.00250333
0.00250552
0.00250604
0.00250627
0.00250647
0.00250668
0.00250688
0.00250703
0.00250702
0.0025068
0.0025064
0.00250613
0.00250596
0.00250583
0.00250573
0.00250569
0.00250574
0.00250583
0.00250595
0.0025061
0.00250635
0.00250674
0.00250693
0.00250693
0.00250677
0.00250651
0.00250592
0.00250366
0.00249367
0.0024558
0.00235999
0.00329943
0.00377803
0.00397888
0.00403871
0.00405339
0.00405649
0.00405708
0.00405719
0.00405722
0.00405724
0.00405725
0.00405726
0.00405726
0.00405725
0.00405724
0.00405723
0.00405722
0.00405722
0.00405722
0.00405722
0.00405723
0.00405723
0.00405724
0.00405725
0.00405725
0.00405724
0.00405722
0.00405711
0.00405652
0.00405342
0.00403874
0.00397891
0.00377806
0.00329947
0.00377803
0.00649921
0.0073298
0.00759797
0.00767334
0.00769153
0.00769534
0.00769602
0.0076961
0.00769604
0.00769596
0.00769585
0.00769575
0.00769566
0.00769558
0.00769552
0.00769547
0.00769545
0.00769545
0.00769547
0.00769552
0.00769558
0.00769566
0.00769575
0.00769585
0.00769593
0.0076959
0.00769525
0.00769147
0.00767329
0.00759793
0.00732976
0.00649919
0.00377807
0.00397894
0.00732995
0.00841207
0.00878946
0.0089048
0.00893515
0.00894212
0.00894355
0.0089438
0.00894381
0.00894377
0.00894378
0.00894382
0.00894387
0.00894391
0.00894393
0.00894394
0.00894395
0.00894395
0.00894395
0.00894394
0.00894392
0.00894389
0.00894385
0.0089438
0.00894376
0.00894355
0.00894218
0.00893526
0.00890492
0.00878958
0.00841218
0.00733005
0.00397903
0.00403882
0.00759822
0.00878958
0.00922154
0.0093591
0.00939684
0.00940587
0.00940774
0.00940792
0.00940762
0.00940732
0.00940734
0.00940755
0.00940778
0.00940797
0.00940808
0.00940813
0.00940816
0.00940817
0.00940815
0.0094081
0.009408
0.00940782
0.00940759
0.00940739
0.00940731
0.00940728
0.00940575
0.00939697
0.00935933
0.00922179
0.00878981
0.00759841
0.00403895
0.00405353
0.00767363
0.00890497
0.00935916
0.00950644
0.00954758
0.00955745
0.00955904
0.00955804
0.00955575
0.00955362
0.00955337
0.00955395
0.00955461
0.00955508
0.00955523
0.00955525
0.00955526
0.00955526
0.00955527
0.00955525
0.00955511
0.00955466
0.00955401
0.00955342
0.00955361
0.00955536
0.00955559
0.00954706
0.00950654
0.00935945
0.00890528
0.00767387
0.0040537
0.00405665
0.00769182
0.00893533
0.00939691
0.00954759
0.00958979
0.00959922
0.0095985
0.00959201
0.00958084
0.00957068
0.00957003
0.00957275
0.00957513
0.00957651
0.00957663
0.00957642
0.0095763
0.00957631
0.00957644
0.00957667
0.00957655
0.00957519
0.00957282
0.0095701
0.00957069
0.00958044
0.00958947
0.00958606
0.00954669
0.00939698
0.00893562
0.00769208
0.00405685
0.00405724
0.0076956
0.00894227
0.00940592
0.00955745
0.00959922
0.00960583
0.00959642
0.00956962
0.0095247
0.00948432
0.00948781
0.00950227
0.00951221
0.00951697
0.00951712
0.0095163
0.00951586
0.00951587
0.00951632
0.00951716
0.00951702
0.00951228
0.00950235
0.00948789
0.00948433
0.00952431
0.00956705
0.00958384
0.00955281
0.00940502
0.00894237
0.00769582
0.00405747
0.00405736
0.00769624
0.00894365
0.00940775
0.00955902
0.00959857
0.00959668
0.00956119
0.00947093
0.00931423
0.00917004
0.00921291
0.00928081
0.00931894
0.00933457
0.0093358
0.00933424
0.00933339
0.0093334
0.00933427
0.00933585
0.00933463
0.00931902
0.00928091
0.00921302
0.00917006
0.00931384
0.00946837
0.0095486
0.00954354
0.009404
0.00894311
0.00769633
0.0040576
0.00405738
0.00769626
0.00894384
0.00940789
0.0095581
0.00959259
0.00957137
0.00947385
0.00922027
0.0087358
0.00823164
0.00851148
0.00878275
0.00890662
0.00894913
0.00895627
0.00895573
0.00895504
0.00895504
0.00895575
0.00895631
0.0089492
0.00890673
0.0087829
0.00851165
0.00823165
0.00873542
0.00921774
0.00946128
0.00951821
0.0093979
0.00894191
0.00769604
0.00405762
0.00405738
0.00769613
0.00894379
0.00940762
0.00955624
0.00958314
0.00953157
0.00932863
0.00875408
0.00739307
0.00497854
0.00700371
0.00794393
0.00826667
0.00835569
0.0083794
0.00838402
0.00838463
0.00838464
0.00838405
0.00837944
0.00835576
0.0082668
0.00794417
0.00700407
0.00497842
0.00739269
0.00875155
0.00931604
0.00947835
0.00938831
0.0089398
0.00769545
0.00405759
0.00405737
0.00769597
0.00894371
0.00940748
0.00955515
0.00957715
0.00950418
0.00921647
0.00830929
0.00503799
0.0047245
0.00718269
0.00773708
0.00787572
0.00790246
0.00790599
0.00790616
0.00790617
0.007906
0.00790248
0.00787576
0.0077372
0.00718299
0.00472475
0.00503774
0.00830669
0.0092038
0.00945085
0.00938213
0.00893842
0.00769492
0.00405754
0.00405734
0.0076958
0.0089437
0.0094078
0.00955664
0.00958361
0.00953165
0.00932685
0.00874668
0.00737093
0.00495385
0.00690219
0.00782286
0.00813923
0.0082364
0.00823973
0.00823457
0.00823236
0.00823235
0.00823453
0.00823965
0.00823631
0.00813914
0.0078228
0.00690202
0.00495338
0.00737003
0.00874391
0.00931411
0.00947824
0.00938842
0.00893957
0.00769477
0.00405751
0.0040573
0.00769565
0.00894373
0.0094083
0.00955894
0.00959355
0.00957148
0.00946998
0.00920391
0.00868752
0.00811612
0.00828029
0.0084343
0.00850242
0.00852575
0.00852263
0.00851816
0.00851628
0.00851626
0.00851812
0.00852255
0.00852564
0.00850227
0.00843409
0.00827996
0.00811564
0.00868673
0.00920113
0.00945721
0.00951801
0.0093982
0.00894157
0.00769485
0.00405748
0.00405725
0.00769551
0.00894375
0.00940868
0.0095606
0.00960035
0.0095972
0.0095557
0.0094461
0.00923939
0.00899009
0.00886293
0.00874318
0.0086887
0.00867074
0.00866294
0.0086595
0.00865827
0.00865826
0.00865947
0.00866289
0.00867066
0.00868856
0.00874299
0.00886274
0.00898978
0.00923872
0.00944336
0.00954292
0.00954365
0.00940483
0.00894296
0.00769487
0.00405743
0.00405721
0.0076954
0.00894375
0.0094089
0.00956146
0.00960358
0.00960874
0.00959199
0.00954123
0.00943432
0.0092658
0.00906677
0.00885898
0.00875914
0.00872517
0.00871495
0.00871189
0.00871102
0.00871101
0.00871187
0.00871491
0.00872511
0.00875902
0.0088588
0.0090666
0.00926558
0.00943373
0.00953852
0.0095792
0.00955514
0.00940796
0.00894362
0.00769482
0.00405737
0.00405716
0.00769532
0.00894375
0.00940902
0.00956185
0.00960485
0.00961288
0.00960425
0.0095716
0.00949276
0.00934387
0.00912665
0.00889401
0.00878055
0.00874168
0.00873063
0.00872771
0.00872698
0.00872697
0.00872769
0.00873061
0.00874163
0.00878045
0.00889385
0.00912651
0.00934369
0.0094922
0.00956891
0.00959145
0.00955924
0.00940914
0.00894388
0.00769475
0.0040573
0.00405713
0.00769526
0.00894374
0.00940908
0.00956202
0.0096053
0.00961417
0.00960779
0.00957988
0.00950789
0.00936328
0.00914174
0.00890304
0.00878616
0.00874604
0.00873479
0.0087319
0.00873121
0.00873121
0.00873189
0.00873476
0.00874599
0.00878606
0.00890289
0.0091416
0.00936311
0.00950735
0.00957719
0.00959499
0.00956052
0.00940955
0.00894396
0.0076947
0.00405725
0.0040571
0.00769523
0.00894375
0.00940912
0.0095621
0.00960546
0.00961454
0.00960869
0.00958183
0.00951128
0.00936747
0.00914502
0.00890509
0.00878747
0.00874708
0.00873578
0.00873291
0.00873222
0.00873221
0.00873289
0.00873575
0.00874703
0.00878737
0.00890494
0.00914489
0.00936731
0.00951075
0.00957916
0.0095959
0.00956089
0.00940969
0.008944
0.00769467
0.0040572
0.00405708
0.00769522
0.00894375
0.00940914
0.00956213
0.00960549
0.00961459
0.00960874
0.0095819
0.00951136
0.00936754
0.00914509
0.00890517
0.00878753
0.00874712
0.00873581
0.00873293
0.00873223
0.00873222
0.00873291
0.00873578
0.00874708
0.00878744
0.00890503
0.00914497
0.00936739
0.00951084
0.00957923
0.00959596
0.00956094
0.00940973
0.00894401
0.00769466
0.00405718
0.00405709
0.00769524
0.00894376
0.00940913
0.0095621
0.0096054
0.0096143
0.00960795
0.00958008
0.00950814
0.00936353
0.00914199
0.00890332
0.00878636
0.00874619
0.00873491
0.008732
0.00873129
0.00873129
0.00873199
0.00873489
0.00874615
0.00878628
0.00890319
0.00914188
0.00936339
0.00950763
0.00957743
0.00959518
0.00956067
0.00940965
0.00894401
0.00769468
0.00405719
0.00405711
0.00769529
0.00894378
0.00940911
0.00956198
0.00960502
0.0096131
0.00960454
0.00957198
0.00949322
0.00934439
0.00912717
0.00889458
0.00878101
0.00874205
0.00873097
0.00872802
0.00872727
0.00872727
0.00872801
0.00873096
0.00874203
0.00878095
0.00889447
0.00912709
0.00934428
0.00949273
0.00956934
0.0095918
0.0095595
0.00940931
0.00894395
0.00769473
0.00405722
0.00405714
0.00769536
0.0089438
0.00940903
0.00956165
0.00960384
0.00960907
0.00959244
0.00954184
0.00943515
0.00926683
0.0090678
0.00886006
0.00876007
0.00872601
0.00871577
0.00871271
0.00871184
0.00871184
0.00871272
0.00871579
0.00872603
0.00876006
0.00886002
0.00906778
0.00926675
0.0094347
0.00953924
0.00957973
0.00955552
0.00940821
0.00894374
0.00769479
0.00405727
0.00405718
0.00769547
0.00894381
0.00940885
0.00956085
0.00960068
0.00959765
0.00955634
0.00944706
0.00924087
0.00899212
0.00886492
0.0087451
0.00869043
0.00867241
0.00866465
0.00866126
0.00866008
0.00866009
0.00866131
0.00866472
0.0086725
0.00869051
0.00874519
0.00886502
0.00899213
0.00924048
0.00944451
0.00954369
0.00954418
0.00940517
0.00894311
0.00769482
0.00405732
0.00405722
0.00769559
0.00894381
0.0094085
0.00955925
0.00959398
0.00957206
0.00947083
0.00920531
0.00868994
0.0081199
0.00828379
0.00843695
0.00850478
0.00852811
0.00852514
0.00852081
0.00851902
0.00851905
0.0085209
0.00852527
0.00852828
0.00850497
0.00843718
0.00828415
0.00812006
0.00868964
0.00920282
0.00945824
0.00951868
0.00939862
0.00894175
0.00769479
0.00405737
0.00405726
0.00769573
0.00894379
0.00940804
0.009557
0.00958411
0.00953232
0.00932783
0.00874829
0.007374
0.00495716
0.00690482
0.00782317
0.00813892
0.00823588
0.00823928
0.00823425
0.00823214
0.00823217
0.00823433
0.00823937
0.0082359
0.00813872
0.00782285
0.00690528
0.00495713
0.00737378
0.00874577
0.00931524
0.00947901
0.00938891
0.00893977
0.00769468
0.0040574
0.00405729
0.00769588
0.00894377
0.00940769
0.00955551
0.00957765
0.00950483
0.00921726
0.00831011
0.00503782
0.0047177
0.00716832
0.00771789
0.00785323
0.00787896
0.00788228
0.0078824
0.00788237
0.00788214
0.00787849
0.00785181
0.00771444
0.00716239
0.0047136
0.00503675
0.00830706
0.00920447
0.00945151
0.0093826
0.00893859
0.00769477
0.00405742
0.00405729
0.0076959
0.00894361
0.00940753
0.00955626
0.0095833
0.00953186
0.00932894
0.00875409
0.00739206
0.00497486
0.0069734
0.00789035
0.00818558
0.00825819
0.00827793
0.0082822
0.00828284
0.00828275
0.00828175
0.00827622
0.00825246
0.00817024
0.00786147
0.006947
0.0049653
0.00738584
0.00874891
0.00931546
0.00947846
0.00938844
0.00893972
0.00769511
0.00405746
0.00405721
0.00769532
0.00894232
0.009406
0.00955612
0.00959066
0.00956946
0.00947157
0.00921611
0.00872508
0.00820099
0.00843367
0.00863156
0.0086698
0.00866565
0.00866208
0.0086607
0.00866023
0.00866006
0.00865971
0.00865792
0.00865062
0.00862652
0.00854523
0.00835449
0.00815349
0.00870315
0.00920534
0.00945641
0.00951576
0.00939613
0.00894045
0.00769496
0.00405741
0.00405663
0.00769158
0.00893546
0.00939727
0.00954753
0.00958676
0.00958468
0.00954828
0.00945411
0.00928421
0.00910298
0.00906332
0.00899321
0.00887076
0.00880805
0.008787
0.00878139
0.00878009
0.00877984
0.00877989
0.00878039
0.00878297
0.00879424
0.00883186
0.00892066
0.00901726
0.00924464
0.00943697
0.00953134
0.00953098
0.00939353
0.00893496
0.00769151
0.00405685
0.00405354
0.00767344
0.00890516
0.00935968
0.00950702
0.00954732
0.00955336
0.00954278
0.00951141
0.00945129
0.00936925
0.00928123
0.00914289
0.00897828
0.0088991
0.00887302
0.00886618
0.00886466
0.0088644
0.00886457
0.00886583
0.00887177
0.00889507
0.00896812
0.00912639
0.0092757
0.0094078
0.00949297
0.00952591
0.0095012
0.00935875
0.00890529
0.00767349
0.00405375
0.00403885
0.00759807
0.00878981
0.00922212
0.00935991
0.00939759
0.00940562
0.0094038
0.00939384
0.00937135
0.0093306
0.00926385
0.00915848
0.00904175
0.00898188
0.00896083
0.00895496
0.00895358
0.00895334
0.00895356
0.00895488
0.00896053
0.00898094
0.00903952
0.00915524
0.00926377
0.00933991
0.00938013
0.00938955
0.00935823
0.00922223
0.00879012
0.00759814
0.00403904
0.00397899
0.00732984
0.00841233
0.00879004
0.00890563
0.00893612
0.00894295
0.00894341
0.00894045
0.00893213
0.00891385
0.00887894
0.00882333
0.00876254
0.00872904
0.00871627
0.00871241
0.00871141
0.00871123
0.00871144
0.00871246
0.00871631
0.00872896
0.00876224
0.00882289
0.00887924
0.00891581
0.00893294
0.00893343
0.0089054
0.00879039
0.0084126
0.00732986
0.00397915
0.00377811
0.00649917
0.00733007
0.00759849
0.00767405
0.00769237
0.00769623
0.00769673
0.00769591
0.00769318
0.00768658
0.00767313
0.00765139
0.00762723
0.00761315
0.00760732
0.00760533
0.00760472
0.00760461
0.0076048
0.00760548
0.00760752
0.00761338
0.00762747
0.00765162
0.00767351
0.00768711
0.00769297
0.00769165
0.00767414
0.00759873
0.0073302
0.0064991
0.00377822
0.00329951
0.00377812
0.00397909
0.00403905
0.00405385
0.00405707
0.00405779
0.00405803
0.00405813
0.004058
0.00405733
0.00405562
0.00405252
0.00404882
0.00404664
0.00404569
0.00404531
0.00404516
0.00404512
0.00404518
0.00404534
0.00404572
0.00404666
0.00404882
0.0040525
0.00405559
0.0040573
0.00405786
0.00405739
0.0040542
0.00403934
0.00397929
0.00377823
0.00329963
0.00350244
0.00419951
0.00451199
0.00461277
0.00463972
0.0046459
0.00464715
0.00464738
0.00464741
0.00464741
0.0046474
0.00464738
0.00464736
0.00464733
0.00464731
0.00464729
0.00464727
0.00464727
0.00464727
0.00464727
0.00464728
0.0046473
0.00464732
0.00464735
0.00464737
0.00464738
0.00464736
0.00464714
0.0046459
0.00463972
0.00461277
0.00451199
0.00419953
0.00350248
0.00419951
0.00770362
0.00880649
0.00918836
0.0093046
0.00933503
0.0093419
0.00934321
0.00934334
0.00934321
0.00934301
0.00934279
0.00934258
0.0093424
0.00934225
0.00934213
0.00934204
0.009342
0.009342
0.00934204
0.00934212
0.00934224
0.00934239
0.00934256
0.00934276
0.00934293
0.00934287
0.00934163
0.0093348
0.00930441
0.00918819
0.00880634
0.0077035
0.00419952
0.00451205
0.00880668
0.0102204
0.0107449
0.0109175
0.0109665
0.0109786
0.0109812
0.0109815
0.0109814
0.0109811
0.0109809
0.0109808
0.0109808
0.0109807
0.0109807
0.0109806
0.0109806
0.0109806
0.0109806
0.0109807
0.0109807
0.0109808
0.0109808
0.0109809
0.010981
0.0109808
0.0109784
0.0109664
0.0109175
0.0107449
0.0102204
0.00880669
0.00451211
0.00461289
0.00918868
0.010745
0.0113437
0.0115487
0.0116093
0.0116248
0.0116281
0.0116282
0.0116273
0.0116263
0.0116258
0.0116257
0.0116257
0.0116258
0.0116258
0.0116257
0.0116257
0.0116257
0.0116257
0.0116258
0.0116258
0.0116257
0.0116257
0.0116258
0.0116262
0.0116265
0.011624
0.011609
0.0115487
0.0113438
0.0107451
0.00918878
0.004613
0.00463988
0.00930498
0.0109177
0.0115488
0.0117688
0.011835
0.0118519
0.0118545
0.0118523
0.0118477
0.0118431
0.011841
0.0118406
0.0118409
0.0118412
0.0118411
0.0118408
0.0118407
0.0118407
0.0118408
0.0118411
0.0118412
0.0118409
0.0118406
0.011841
0.0118429
0.0118468
0.0118475
0.0118332
0.0117683
0.0115488
0.0109179
0.00930512
0.00464003
0.00464608
0.00933541
0.0109668
0.0116094
0.011835
0.0119029
0.0119189
0.0119174
0.0119057
0.0118862
0.0118674
0.011861
0.0118607
0.0118622
0.0118635
0.0118629
0.0118619
0.0118614
0.0118614
0.0118619
0.0118629
0.0118635
0.0118622
0.0118607
0.011861
0.0118673
0.0118852
0.0119007
0.0118952
0.0118325
0.0116089
0.0109668
0.00933553
0.00464626
0.00464734
0.00934226
0.0109788
0.0116249
0.0118519
0.011919
0.0119299
0.0119137
0.0118698
0.0117989
0.0117323
0.011719
0.0117254
0.0117336
0.0117389
0.011737
0.0117343
0.011733
0.011733
0.0117343
0.0117371
0.0117389
0.0117337
0.0117255
0.0117191
0.0117322
0.0117979
0.0118647
0.0118913
0.0118425
0.0116224
0.0109784
0.00934227
0.00464753
0.00464756
0.00934352
0.0109814
0.0116282
0.0118546
0.0119178
0.0119145
0.0118577
0.0117208
0.0114937
0.0112798
0.0112811
0.0113308
0.0113663
0.0113844
0.0113814
0.0113759
0.0113735
0.0113735
0.011376
0.0113814
0.0113845
0.0113664
0.0113309
0.0112812
0.0112797
0.0114927
0.0117157
0.0118351
0.0118268
0.0116204
0.0109796
0.00934322
0.00464774
0.00464759
0.00934358
0.0109817
0.0116283
0.0118528
0.0119075
0.0118742
0.0117276
0.0113687
0.0107158
0.0100343
0.0102383
0.0104832
0.0106056
0.0106522
0.0106552
0.0106504
0.0106479
0.0106479
0.0106504
0.0106552
0.0106523
0.0106057
0.0104833
0.0102384
0.0100342
0.0107149
0.0113636
0.011705
0.0117864
0.0116099
0.0109773
0.00934265
0.0046477
0.00464756
0.00934338
0.0109815
0.0116277
0.0118495
0.0118922
0.011815
0.011526
0.0107571
0.00900906
0.00586739
0.00810615
0.00908224
0.00941239
0.00948808
0.00953019
0.00953867
0.0095395
0.0095395
0.00953868
0.00953022
0.00948812
0.00941249
0.00908245
0.00810648
0.00586716
0.00900812
0.0107519
0.0115033
0.0117269
0.0115943
0.0109735
0.00934156
0.00464757
0.00464752
0.00934312
0.0109813
0.0116273
0.0118475
0.011883
0.0117768
0.0113812
0.0102088
0.00602944
0.00515451
0.00768738
0.00825253
0.00839975
0.00842105
0.00842189
0.00842137
0.00842138
0.00842191
0.00842107
0.00839981
0.00825267
0.00768769
0.00515477
0.00602872
0.0102036
0.0113582
0.0116885
0.0115848
0.0109711
0.00934065
0.00464743
0.00464746
0.00934286
0.0109813
0.0116277
0.0118496
0.0118922
0.0118137
0.0115206
0.0107404
0.00896563
0.00580474
0.00792915
0.00891814
0.00927341
0.00944865
0.0093787
0.00935029