/*--------------------------------*- C++ -*----------------------------------*\
| =========                 |                                                 |
| \\      /  F ield         | OpenFOAM: The Open Source CFD Toolbox           |
|  \\    /   O peration     | Version:  2112                                  |
|   \\  /    A nd           | Website:  www.openfoam.com                      |
|    \\/     M anipulation  |                                                 |
\*---------------------------------------------------------------------------*/
FoamFile
{
    version     2.0;
    format      ascii;
    arch        "LSB;label=32;scalar=64";
    class       volScalarField;
    location    "1.2";
    object      nut;
}
// * * * * * * * * * * * * * * * * * * * * * * * * * * * * * * * * * * * * * //

dimensions      [0 2 -1 0 0 0 0];

internalField   nonuniform List<scalar> 
64906
(
0.000112615
0.000115259
0.000116351
0.000116656
0.000116726
0.00011674
0.000116743
0.000116745
0.000116745
0.000116746
0.000116747
0.000116748
0.000116748
0.000116748
0.000116748
0.000116748
0.000116748
0.000116748
0.000116748
0.000116748
0.000116748
0.000116748
0.000116748
0.000116748
0.000116747
0.000116747
0.000116746
0.000116745
0.000116742
0.000116727
0.000116657
0.000116352
0.00011526
0.000112616
0.000115259
0.000133048
0.00013938
0.000141308
0.00014182
0.000141939
0.000141964
0.000141969
0.000141971
0.000141973
0.000141975
0.000141976
0.000141977
0.000141978
0.000141979
0.00014198
0.00014198
0.000141981
0.000141981
0.00014198
0.00014198
0.000141979
0.000141979
0.000141978
0.000141976
0.000141975
0.000141973
0.000141967
0.000141942
0.000141823
0.000141311
0.000139383
0.000133051
0.000115261
0.000116352
0.000139382
0.000147985
0.000150823
0.00015165
0.00015186
0.000151908
0.000151919
0.000151923
0.000151926
0.00015193
0.000151933
0.000151937
0.00015194
0.000151943
0.000151945
0.000151946
0.000151947
0.000151947
0.000151947
0.000151945
0.000151943
0.000151941
0.000151938
0.000151934
0.00015193
0.000151926
0.000151914
0.000151866
0.000151656
0.000150829
0.00014799
0.000139386
0.000116355
0.000116658
0.000141311
0.000150825
0.000154097
0.000155094
0.000155358
0.000155422
0.000155437
0.000155442
0.000155444
0.000155447
0.000155453
0.00015546
0.000155466
0.000155471
0.000155474
0.000155477
0.000155478
0.000155478
0.000155477
0.000155475
0.000155471
0.000155467
0.000155461
0.000155454
0.000155448
0.000155443
0.000155429
0.000155366
0.000155102
0.000154104
0.000150832
0.000141317
0.000116662
0.000116729
0.000141824
0.000151652
0.000155094
0.000156164
0.000156454
0.000156524
0.000156538
0.000156536
0.000156527
0.00015652
0.000156528
0.00015654
0.000156551
0.00015656
0.000156565
0.000156568
0.00015657
0.00015657
0.000156569
0.000156566
0.000156561
0.000156552
0.000156541
0.000156529
0.000156521
0.000156526
0.000156522
0.000156459
0.000156173
0.000155103
0.00015166
0.000141831
0.000116733
0.000116743
0.000141943
0.000151862
0.000155359
0.000156454
0.000156752
0.00015682
0.00015682
0.000156783
0.000156713
0.000156652
0.000156666
0.000156699
0.000156727
0.000156745
0.000156752
0.000156754
0.000156755
0.000156756
0.000156755
0.000156752
0.000156746
0.000156728
0.0001567
0.000156667
0.000156654
0.000156712
0.000156768
0.000156739
0.000156458
0.000155368
0.000151872
0.000141951
0.000116749
0.000116747
0.000141967
0.00015191
0.000155422
0.000156524
0.00015682
0.00015687
0.000156812
0.000156632
0.000156318
0.000156035
0.000156105
0.00015624
0.00015633
0.000156377
0.000156386
0.000156386
0.000156386
0.000156386
0.000156386
0.000156387
0.000156378
0.000156331
0.000156241
0.000156106
0.000156036
0.000156317
0.000156617
0.000156729
0.000156505
0.000155427
0.000151919
0.000141977
0.000116753
0.000116748
0.000141972
0.00015192
0.000155437
0.000156537
0.000156819
0.000156812
0.00015657
0.000155924
0.000154753
0.00015363
0.000154111
0.000154702
0.00015502
0.000155155
0.000155174
0.000155169
0.000155167
0.000155167
0.00015517
0.000155175
0.000155157
0.000155022
0.000154704
0.000154113
0.000153632
0.000154752
0.000155909
0.000156488
0.000156446
0.000155424
0.000151928
0.000141982
0.000116755
0.000116749
0.000141974
0.000151924
0.00015544
0.000156535
0.000156783
0.000156639
0.00015594
0.000154034
0.000150185
0.000145885
0.000148739
0.000151111
0.000152132
0.000152483
0.000152543
0.000152546
0.000152545
0.000152545
0.000152546
0.000152544
0.000152485
0.000152134
0.000151114
0.000148742
0.000145887
0.000150184
0.00015402
0.000155859
0.000156274
0.000155388
0.000151924
0.000141983
0.000116756
0.000116749
0.000141974
0.000151925
0.000155442
0.000156526
0.000156722
0.000156355
0.000154839
0.000150294
0.000138994
0.000122498
0.00013665
0.000144847
0.000147546
0.000148277
0.000148448
0.000148485
0.000148493
0.000148493
0.000148485
0.000148449
0.000148279
0.000147549
0.000144851
0.000136655
0.000122497
0.000138994
0.000150281
0.000154758
0.00015599
0.000155326
0.000151914
0.000141982
0.000116757
0.000116749
0.000141974
0.000151927
0.000155444
0.000156523
0.000156684
0.000156151
0.00015392
0.000146354
0.000122762
0.000121272
0.000138895
0.00014365
0.00014476
0.000144977
0.000145012
0.000145016
0.000145017
0.000145012
0.000144978
0.000144761
0.000143652
0.000138899
0.000121275
0.000122762
0.000146341
0.000153839
0.000155787
0.000155288
0.000151909
0.000141981
0.000116758
0.000116749
0.000141974
0.000151929
0.000155449
0.000156538
0.000156739
0.000156375
0.000154852
0.00015027
0.000138855
0.000122373
0.000135839
0.000143853
0.000146458
0.000147152
0.000147247
0.000147236
0.000147226
0.000147226
0.000147236
0.000147247
0.000147151
0.000146458
0.000143853
0.000135837
0.000122369
0.000138847
0.000150253
0.00015477
0.000156009
0.00015534
0.000151921
0.000141982
0.000116758
0.000116749
0.000141974
0.000151931
0.000155455
0.000156558
0.000156815
0.000156676
0.000155962
0.00015398
0.000149913
0.000145153
0.000147093
0.000148575
0.000149152
0.000149314
0.000149311
0.000149286
0.000149274
0.000149274
0.000149286
0.00014931
0.000149313
0.00014915
0.000148572
0.000147089
0.000145146
0.000149907
0.000153963
0.000155879
0.000156309
0.000155415
0.000151938
0.000141984
0.000116757
0.000116749
0.000141974
0.000151932
0.00015546
0.000156573
0.000156867
0.000156866
0.000156603
0.000155846
0.000154348
0.000152486
0.000151679
0.000150875
0.000150503
0.00015037
0.000150311
0.000150283
0.000150271
0.000150271
0.000150282
0.00015031
0.000150368
0.0001505
0.000150872
0.000151674
0.000152481
0.000154342
0.000155828
0.000156518
0.000156497
0.000155465
0.00015195
0.000141985
0.000116757
0.000116748
0.000141973
0.000151934
0.000155464
0.000156581
0.000156893
0.000156951
0.000156868
0.000156553
0.000155837
0.000154654
0.000153223
0.000151709
0.000150999
0.000150751
0.000150667
0.000150635
0.000150623
0.000150623
0.000150635
0.000150666
0.000150749
0.000150996
0.000151706
0.000153217
0.000154649
0.000155832
0.000156535
0.000156783
0.000156581
0.000155489
0.000151956
0.000141986
0.000116755
0.000116747
0.000141973
0.000151935
0.000155466
0.000156586
0.000156904
0.000156983
0.000156957
0.000156775
0.000156271
0.000155241
0.000153666
0.000151956
0.000151147
0.000150863
0.00015077
0.000150736
0.000150721
0.000150721
0.000150734
0.000150769
0.000150861
0.000151145
0.000151953
0.000153661
0.000155237
0.000156265
0.000156757
0.000156873
0.000156613
0.0001555
0.000151959
0.000141986
0.000116754
0.000116746
0.000141973
0.000151935
0.000155467
0.000156588
0.000156909
0.000156994
0.000156985
0.000156836
0.000156382
0.000155386
0.00015378
0.00015202
0.000151186
0.000150892
0.000150796
0.000150759
0.000150742
0.000150742
0.000150758
0.000150794
0.00015089
0.000151183
0.000152017
0.000153775
0.000155382
0.000156377
0.000156819
0.0001569
0.000156624
0.000155504
0.000151961
0.000141985
0.000116753
0.000116745
0.000141972
0.000151936
0.000155468
0.00015659
0.000156911
0.000156998
0.000156993
0.000156852
0.000156409
0.000155418
0.000153806
0.000152035
0.000151196
0.000150899
0.000150802
0.000150763
0.000150744
0.000150743
0.000150762
0.0001508
0.000150897
0.000151193
0.000152032
0.000153801
0.000155415
0.000156404
0.000156835
0.000156908
0.000156628
0.000155506
0.000151962
0.000141985
0.000116751
0.000116745
0.000141972
0.000151936
0.000155469
0.00015659
0.000156912
0.000156999
0.000156994
0.000156853
0.000156411
0.00015542
0.000153808
0.000152036
0.000151196
0.0001509
0.000150801
0.000150762
0.000150742
0.000150741
0.00015076
0.000150799
0.000150897
0.000151194
0.000152033
0.000153803
0.000155417
0.000156406
0.000156836
0.000156909
0.000156629
0.000155507
0.000151963
0.000141985
0.000116751
0.000116745
0.000141972
0.000151936
0.000155469
0.00015659
0.000156911
0.000156997
0.000156988
0.000156841
0.000156388
0.000155392
0.000153786
0.000152024
0.000151188
0.000150893
0.000150795
0.000150756
0.000150736
0.000150735
0.000150754
0.000150793
0.000150891
0.000151186
0.000152021
0.000153781
0.000155389
0.000156384
0.000156824
0.000156904
0.000156627
0.000155507
0.000151962
0.000141985
0.000116751
0.000116745
0.000141973
0.000151936
0.000155468
0.000156589
0.000156907
0.000156987
0.000156963
0.000156783
0.000156281
0.000155253
0.000153678
0.000151963
0.000151152
0.000150865
0.00015077
0.000150732
0.000150714
0.000150713
0.00015073
0.000150768
0.000150863
0.000151149
0.00015196
0.000153674
0.00015525
0.000156277
0.000156766
0.00015688
0.000156618
0.000155504
0.000151962
0.000141986
0.000116752
0.000116746
0.000141973
0.000151935
0.000155467
0.000156585
0.000156898
0.000156958
0.000156877
0.000156565
0.000155853
0.000154673
0.000153243
0.000151721
0.000151007
0.000150755
0.000150668
0.000150632
0.000150616
0.000150616
0.000150631
0.000150666
0.000150753
0.000151005
0.000151719
0.00015324
0.000154672
0.00015585
0.000156549
0.000156794
0.000156589
0.000155495
0.00015196
0.000141986
0.000116753
0.000116747
0.000141974
0.000151935
0.000155464
0.000156578
0.000156874
0.000156875
0.000156615
0.000155863
0.000154373
0.00015252
0.000151714
0.000150893
0.000150516
0.000150379
0.000150315
0.000150283
0.000150269
0.000150268
0.000150282
0.000150314
0.000150377
0.000150514
0.000150892
0.000151713
0.00015252
0.000154371
0.000155849
0.000156533
0.000156508
0.000155472
0.000151954
0.000141986
0.000116754
0.000116748
0.000141974
0.000151934
0.00015546
0.000156564
0.000156823
0.000156688
0.000155978
0.000154004
0.000149951
0.00014521
0.000147134
0.000148599
0.000149168
0.000149325
0.000149317
0.00014929
0.000149276
0.000149275
0.000149289
0.000149316
0.000149324
0.000149167
0.000148599
0.000147137
0.000145212
0.000149952
0.000153991
0.000155898
0.000156322
0.000155424
0.000151943
0.000141986
0.000116755
0.000116748
0.000141975
0.000151932
0.000155455
0.000156546
0.000156749
0.000156388
0.00015487
0.000150298
0.000138903
0.000122409
0.000135868
0.000143852
0.000146449
0.000147137
0.000147228
0.000147215
0.000147203
0.000147203
0.000147214
0.000147227
0.000147135
0.000146446
0.000143849
0.000135873
0.000122407
0.000138905
0.000150286
0.000154792
0.000156025
0.000155352
0.000151928
0.000141984
0.000116756
0.000116748
0.000141975
0.000151931
0.00015545
0.000156531
0.000156695
0.000156165
0.000153936
0.000146371
0.000122768
0.000121218
0.000138779
0.000143503
0.000144589
0.000144794
0.000144823
0.000144824
0.000144824
0.00014482
0.000144788
0.000144575
0.000143476
0.000138737
0.000121191
0.000122763
0.000146357
0.000153857
0.000155802
0.0001553
0.000151916
0.000141984
0.000116756
0.000116748
0.000141975
0.000151928
0.000155447
0.000156533
0.000156732
0.000156369
0.000154857
0.000150316
0.000139018
0.000122516
0.000136456
0.000144483
0.000146971
0.000147574
0.000147704
0.00014773
0.000147734
0.000147733
0.000147725
0.000147688
0.000147526
0.000146855
0.00014427
0.000136285
0.00012247
0.000138988
0.00015029
0.000154774
0.000156007
0.000155339
0.000151921
0.000141985
0.000116756
0.000116748
0.000141971
0.000151918
0.000155435
0.00015653
0.000156782
0.000156642
0.000155945
0.000154034
0.00015015
0.000145734
0.000148248
0.000150088
0.000150454
0.00015045
0.000150419
0.000150407
0.000150404
0.000150403
0.000150399
0.000150385
0.000150334
0.000150133
0.000149446
0.000147699
0.000145427
0.000150013
0.00015397
0.000155852
0.000156278
0.00015539
0.000151924
0.000141982
0.000116755
0.000116745
0.000141947
0.000151872
0.000155374
0.00015647
0.000156753
0.000156749
0.000156506
0.000155842
0.000154592
0.000153224
0.000153116
0.000152686
0.000151774
0.000151333
0.000151186
0.000151146
0.000151136
0.000151133
0.000151134
0.000151138
0.000151157
0.00015123
0.000151475
0.000152078
0.000152627
0.000154327
0.000155735
0.000156401
0.000156384
0.00015537
0.000151886
0.000141959
0.000116752
0.00011673
0.000141829
0.000151662
0.00015511
0.000156184
0.000156473
0.000156525
0.000156465
0.000156263
0.000155856
0.000155293
0.000154714
0.000153725
0.000152502
0.000151944
0.000151766
0.000151719
0.000151709
0.000151707
0.000151708
0.000151716
0.000151756
0.000151914
0.000152424
0.000153583
0.000154635
0.000155564
0.000156148
0.000156361
0.000156171
0.000155124
0.000151679
0.000141841
0.000116737
0.00011666
0.000141316
0.000150836
0.000154114
0.000155116
0.000155385
0.000155448
0.000155447
0.000155395
0.00015526
0.000155001
0.00015456
0.000153826
0.000152975
0.000152551
0.000152406
0.000152369
0.000152362
0.000152361
0.000152361
0.000152366
0.000152401
0.000152539
0.000152952
0.000153792
0.000154545
0.000155056
0.000155314
0.000155361
0.000155128
0.000154133
0.000150853
0.000141329
0.000116667
0.000116355
0.000139388
0.000147997
0.00015084
0.000151672
0.000151887
0.000151941
0.000151954
0.000151947
0.000151907
0.000151804
0.000151587
0.000151222
0.000150804
0.00015058
0.000150499
0.000150477
0.000150473
0.000150473
0.000150472
0.000150476
0.000150496
0.000150576
0.000150798
0.000151212
0.000151581
0.00015181
0.000151908
0.000151896
0.000151692
0.00015086
0.000148013
0.000139399
0.00011636
0.000115262
0.000133055
0.000139391
0.000141324
0.000141841
0.000141964
0.000141995
0.000142006
0.000142011
0.000142006
0.000141978
0.000141908
0.000141782
0.000141635
0.000141551
0.000141517
0.000141508
0.000141505
0.000141505
0.000141505
0.000141507
0.000141517
0.00014155
0.000141633
0.00014178
0.000141905
0.000141977
0.000142001
0.000141982
0.00014186
0.00014134
0.000139405
0.000133064
0.000115267
0.000112618
0.000115263
0.000116358
0.000116665
0.000116738
0.000116756
0.000116762
0.000116768
0.000116774
0.000116779
0.000116782
0.00011678
0.00011677
0.000116756
0.000116746
0.00011674
0.000116737
0.000116734
0.000116733
0.000116734
0.000116737
0.00011674
0.000116745
0.000116754
0.000116769
0.000116777
0.000116779
0.000116776
0.000116768
0.000116749
0.000116674
0.000116365
0.000115269
0.000112621
0.000172475
0.000185917
0.000191607
0.000193403
0.000193879
0.000193987
0.000194009
0.000194014
0.000194015
0.000194015
0.000194015
0.000194015
0.000194015
0.000194015
0.000194015
0.000194015
0.000194014
0.000194014
0.000194014
0.000194014
0.000194014
0.000194015
0.000194015
0.000194015
0.000194015
0.000194015
0.000194014
0.00019401
0.000193988
0.000193879
0.000193404
0.000191608
0.000185918
0.000172476
0.000185917
0.000508753
0.000598144
0.000625837
0.000633793
0.00063579
0.000636224
0.000636302
0.000636306
0.000636295
0.00063628
0.000636262
0.000636246
0.00063623
0.000636218
0.000636208
0.000636201
0.000636197
0.000636197
0.000636201
0.000636208
0.000636218
0.00063623
0.000636245
0.000636261
0.000636276
0.000636276
0.000636204
0.000635774
0.000633779
0.000625824
0.000598133
0.000508745
0.000185919
0.000191609
0.000598162
0.000722544
0.000764349
0.000777386
0.000780946
0.000781793
0.000781969
0.000781996
0.00078199
0.000781978
0.00078197
0.000781968
0.000781967
0.000781967
0.000781966
0.000781964
0.000781964
0.000781964
0.000781965
0.000781967
0.000781968
0.000781969
0.000781969
0.000781971
0.000781973
0.000781953
0.000781787
0.000780946
0.000777389
0.000764353
0.000722549
0.000598166
0.000191611
0.000193406
0.000625865
0.000764361
0.000812968
0.000828787
0.000833292
0.000834408
0.00083464
0.000834653
0.000834603
0.000834549
0.000834535
0.000834544
0.000834561
0.000834576
0.000834581
0.000834582
0.000834583
0.000834583
0.000834583
0.000834583
0.000834578
0.000834564
0.000834548
0.000834538
0.000834544
0.000834552
0.000834368
0.000833287
0.000828798
0.000812985
0.000764377
0.000625876
0.00019341
0.000193883
0.000633824
0.000777403
0.000828793
0.000845845
0.00085079
0.000852015
0.000852207
0.000852064
0.000851757
0.000851464
0.000851393
0.00085143
0.000851488
0.000851532
0.000851536
0.000851529
0.000851525
0.000851526
0.000851531
0.000851539
0.000851535
0.000851492
0.000851435
0.000851397
0.00085146
0.0008517
0.000851739
0.00085069
0.000845831
0.000828809
0.000777424
0.000633839
0.000193887
0.000193992
0.00063582
0.000780963
0.000833299
0.000850791
0.000855873
0.00085704
0.000856934
0.000856103
0.000854705
0.000853416
0.000853233
0.000853458
0.000853699
0.00085385
0.000853835
0.000853787
0.000853763
0.000853763
0.000853789
0.000853838
0.000853854
0.000853704
0.000853464
0.000853238
0.000853412
0.000854645
0.000855764
0.000855353
0.000850639
0.00083328
0.000780979
0.000635834
0.000193997
0.000194014
0.000636251
0.000781808
0.000834413
0.000852014
0.00085704
0.000857845
0.000856659
0.000853377
0.000847968
0.000842997
0.000843207
0.000844603
0.000845654
0.000846219
0.000846149
0.000845992
0.000845918
0.000845918
0.000845994
0.000846152
0.000846224
0.00084566
0.00084461
0.000843214
0.000842994
0.000847908
0.000853035
0.000855061
0.000851378
0.000834261
0.000781794
0.000636257
0.00019402
0.000194018
0.000636324
0.000781979
0.000834641
0.000852208
0.000856949
0.000856698
0.000852382
0.000841646
0.000823056
0.000804847
0.000810602
0.000817825
0.000821917
0.00082381
0.000823684
0.000823351
0.000823205
0.000823205
0.000823353
0.000823688
0.000823815
0.000821924
0.000817834
0.000810611
0.000804845
0.000822998
0.000841306
0.000850782
0.000850216
0.000834121
0.000781879
0.000636311
0.000194025
0.000194019
0.000636323
0.000782
0.000834653
0.000852082
0.000856192
0.000853617
0.000842022
0.000812155
0.00075311
0.000680131
0.000727544
0.000759696
0.00077324
0.000778301
0.000778478
0.000778136
0.000777987
0.000777987
0.000778138
0.000778481
0.000778306
0.000773248
0.000759708
0.000727561
0.00068013
0.000753055
0.000811819
0.000840427
0.000847135
0.000833352
0.000781719
0.00063627
0.000194025
0.000194019
0.000636305
0.00078199
0.000834612
0.000851838
0.000855028
0.000848868
0.000824823
0.00075512
0.000574149
0.00021677
0.000537319
0.000663552
0.000700368
0.000710372
0.000712257
0.000712517
0.000712532
0.000712533
0.000712518
0.000712259
0.000710376
0.000700378
0.000663575
0.000537361
0.000216766
0.000574103
0.000754791
0.000823232
0.000842384
0.000832177
0.000781452
0.000636194
0.000194023
0.000194018
0.000636284
0.000781976
0.000834586
0.000851693
0.000854292
0.000845539
0.000810385
0.0006879
0.000218403
0.000210011
0.000567874
0.000637942
0.0006525
0.000655581
0.000656096
0.000656149
0.000656149
0.000656096
0.000655582
0.000652503
0.000637953
0.000567907
0.000210018
0.000218393
0.000687578
0.00080879
0.000839046
0.000831422
0.000781276
0.000636125
0.000194022
0.000194017
0.000636261
0.000781972
0.00083462
0.000851863
0.00085505
0.000848823
0.000824528
0.000754121
0.000571472
0.000215993
0.000525306
0.000645563
0.000679137
0.000686365
0.000689304
0.000689726
0.000689689
0.000689687
0.000689722
0.000689296
0.000686355
0.000679126
0.000645556
0.000525296
0.00021598
0.000571367
0.000753765
0.000822921
0.000842318
0.00083216
0.000781409
0.000636103
0.000194021
0.000194016
0.000636241
0.000781973
0.000834677
0.00085214
0.000856242
0.000853524
0.000841372
0.000809872
0.000746826
0.00066588
0.000696984
0.000710164
0.000715298
0.000716524
0.000716975
0.00071689
0.000716788
0.000716787
0.000716886
0.000716968
0.000716513
0.000715282
0.000710141
0.00069695
0.00066583
0.00074673
0.000809512
0.000839757
0.000847007
0.00083333
0.000781649
0.000636109
0.00019402
0.000194015
0.000636223
0.000781974
0.000834721
0.000852343
0.000857073
0.00085661
0.000851435
0.000838071
0.000812814
0.000780611
0.000762649
0.000741721
0.000733648
0.000731197
0.000730497
0.000730235
0.00073014
0.000730139
0.000730232
0.000730492
0.00073119
0.000733634
0.000741701
0.000762636
0.000780581
0.000812731
0.000837713
0.000849814
0.000850081
0.000834141
0.000781821
0.00063611
0.000194019
0.000194014
0.00063621
0.000781972
0.000834745
0.000852448
0.000857476
0.000858027
0.000855781
0.000849195
0.000835367
0.000812971
0.000784929
0.000753687
0.000740754
0.000736736
0.000735644
0.000735353
0.00073528
0.000735279
0.000735352
0.000735642
0.000736731
0.000740743
0.00075367
0.00078492
0.000812951
0.000835292
0.00084884
0.000854158
0.000851491
0.00083453
0.000781903
0.000636104
0.000194018
0.000194013
0.000636199
0.00078197
0.000834756
0.000852493
0.000857633
0.000858544
0.000857285
0.000852826
0.000842184
0.000821932
0.000791533
0.000757424
0.000743005
0.000738478
0.000737278
0.000736991
0.000736932
0.000736933
0.000736991
0.000737277
0.000738475
0.000742995
0.000757409
0.000791526
0.000821915
0.000842113
0.000852472
0.000855661
0.000852003
0.000834677
0.000781933
0.000636095
0.000194016
0.000194011
0.000636193
0.000781969
0.000834762
0.000852511
0.000857687
0.000858705
0.000857726
0.000853839
0.000843988
0.000824185
0.000793232
0.000758423
0.00074362
0.000738959
0.000737735
0.000737455
0.000737405
0.000737405
0.000737456
0.000737735
0.000738957
0.000743611
0.000758409
0.000793226
0.00082417
0.000843918
0.000853486
0.000856102
0.000852163
0.000834727
0.000781942
0.000636088
0.000194014
0.000194011
0.000636189
0.000781969
0.000834765
0.000852518
0.000857705
0.00085875
0.000857838
0.00085408
0.000844398
0.000824678
0.000793606
0.000758656
0.000743768
0.000739078
0.00073785
0.000737574
0.000737527
0.000737528
0.000737575
0.000737851
0.000739076
0.00074376
0.000758642
0.0007936
0.000824664
0.000844329
0.000853728
0.000856214
0.000852207
0.000834742
0.000781945
0.000636084
0.000194013
0.00019401
0.000636188
0.000781969
0.000834766
0.000852521
0.000857708
0.000858754
0.000857843
0.000854086
0.000844404
0.000824684
0.000793611
0.000758664
0.000743774
0.000739082
0.000737854
0.000737578
0.000737532
0.000737533
0.000737579
0.000737855
0.000739081
0.000743767
0.000758651
0.000793606
0.00082467
0.000844336
0.000853734
0.00085622
0.000852211
0.000834745
0.000781946
0.000636083
0.000194013
0.00019401
0.00063619
0.00078197
0.000834766
0.000852518
0.000857696
0.000858717
0.000857741
0.000853856
0.000844007
0.000824204
0.00079325
0.000758452
0.000743642
0.000738976
0.000737751
0.000737473
0.000737424
0.000737425
0.000737474
0.000737752
0.000738975
0.000743635
0.00075844
0.000793246
0.000824192
0.00084394
0.000853506
0.000856119
0.000852176
0.000834735
0.000781945
0.000636085
0.000194013
0.000194011
0.000636196
0.000781973
0.000834764
0.000852504
0.000857648
0.000858564
0.00085731
0.000852859
0.000842223
0.000821973
0.000791573
0.000757485
0.000743055
0.000738521
0.00073732
0.000737036
0.000736981
0.000736982
0.000737039
0.000737323
0.000738522
0.000743051
0.000757476
0.000791571
0.000821962
0.000842158
0.00085251
0.000855691
0.000852026
0.000834692
0.000781938
0.00063609
0.000194014
0.000194012
0.000636205
0.000781975
0.000834755
0.000852464
0.000857499
0.000858057
0.00085582
0.00084925
0.000835441
0.00081306
0.000785016
0.000753805
0.000740858
0.000736834
0.000735745
0.000735459
0.000735392
0.000735393
0.000735464
0.000735751
0.000736839
0.00074086
0.000753803
0.000785019
0.000813053
0.00083538
0.000848905
0.000854205
0.000851525
0.000834551
0.000781911
0.000636097
0.000194015
0.000194013
0.000636217
0.000781978
0.000834734
0.000852365
0.000857103
0.00085665
0.000851493
0.000838161
0.000812954
0.000780806
0.000762828
0.000741928
0.00073384
0.00073139
0.000730699
0.00073045
0.000730364
0.000730366
0.000730457
0.000730711
0.000731404
0.000733853
0.00074194
0.000762844
0.000780808
0.000812898
0.000837821
0.000849885
0.000850128
0.00083417
0.000781831
0.000636101
0.000194016
0.000194014
0.000636232
0.000781978
0.000834694
0.000852167
0.00085628
0.000853576
0.000841452
0.000810007
0.000747069
0.00066628
0.000697351
0.000710449
0.00071556
0.000716796
0.000717267
0.000717203
0.000717115
0.000717119
0.000717215
0.000717285
0.000716818
0.000715583
0.000710477
0.000697398
0.000666302
0.000747026
0.000809675
0.000839853
0.000847068
0.000833366
0.000781662
0.000636096
0.000194017
0.000194015
0.00063625
0.000781977
0.000834639
0.000851895
0.000855094
0.000848884
0.000824619
0.000754279
0.00057179
0.000216078
0.000525607
0.000645608
0.000679124
0.000686329
0.000689288
0.000689737
0.000689716
0.00068972
0.000689749
0.000689303
0.000686334
0.000679108
0.000645588
0.00052571
0.000216077
0.000571774
0.000753951
0.000823024
0.000842386
0.000832201
0.000781422
0.000636085
0.000194018
0.000194016
0.000636268
0.000781976
0.0008346
0.000851721
0.000854333
0.000845593
0.000810452
0.000687969
0.000218399
0.000209806
0.000566353
0.000635905
0.000650113
0.000653101
0.000653607
0.000653662
0.00065366
0.000653596
0.000653057
0.000649968
0.000635547
0.000565777
0.000209679
0.000218362
0.000687596
0.000808835
0.000839096
0.000831457
0.000781283
0.000636098
0.000194018
0.000194016
0.000636272
0.000781957
0.000834583
0.000851817
0.000855018
0.000848866
0.000824815
0.000755067
0.000574008
0.000216625
0.000533914
0.000657303
0.000690741
0.000698769
0.000700298
0.000700569
0.000700605
0.000700597
0.000700522
0.000700114
0.000698131
0.000688975
0.000653882
0.000531128
0.000216322
0.00057338
0.000754404
0.000823097
0.000842349
0.00083216
0.000781422
0.000636141
0.00019402
0.000194013
0.000636204
0.000781796
0.000834391
0.000851798
0.000855904
0.000853322
0.000841663
0.000811538
0.000751668
0.000676352
0.000717718
0.000740264
0.000741925
0.000740838
0.000740087
0.000739824
0.000739749
0.000739731
0.000739715
0.000739617
0.000739072
0.0007365
0.000728436
0.000707438
0.000670601
0.000748862
0.000810107
0.000839709
0.000846758
0.000833084
0.000781512
0.000636127
0.000194018
0.000193991
0.000635778
0.000780961
0.000833313
0.000850733
0.000855419
0.00085513
0.000850675
0.000839401
0.000819045
0.000795923
0.000790444
0.000778036
0.000757551
0.000749037
0.000746435
0.000745774
0.000745627
0.0007456
0.000745607
0.000745679
0.000746029
0.000747505
0.000753396
0.000770113
0.000784217
0.000813676
0.000837073
0.000848471
0.000848562
0.000832769
0.000780853
0.000635737
0.000193997
0.000193883
0.000633786
0.000777407
0.000828826
0.000845871
0.000850689
0.000851402
0.000850043
0.000846127
0.000838648
0.000828007
0.000815529
0.000794918
0.000769209
0.000758699
0.000755545
0.000754755
0.000754584
0.000754555
0.000754574
0.000754717
0.000755408
0.000758247
0.000768111
0.000793184
0.000814981
0.000832676
0.000843607
0.000847845
0.000845037
0.000828646
0.000777383
0.000633763
0.000193889
0.000193407
0.000625831
0.000764369
0.00081301
0.000828845
0.000833326
0.000834292
0.000834023
0.000832711
0.000829776
0.000824352
0.000815157
0.000800343
0.000783502
0.000775685
0.000773104
0.000772403
0.000772237
0.000772208
0.000772237
0.000772398
0.000773077
0.000775586
0.000783267
0.000800015
0.00081521
0.000825501
0.000830847
0.000832181
0.000828554
0.000812972
0.000764374
0.000625813
0.000193412
0.00019161
0.000598134
0.000722556
0.000764392
0.000777448
0.000781014
0.000781828
0.000781858
0.000781443
0.00078033
0.000777901
0.000773241
0.00076577
0.000757517
0.000753212
0.00075163
0.000751155
0.000751031
0.000751009
0.000751037
0.000751165
0.000751639
0.00075321
0.000757492
0.000765735
0.000773299
0.000778154
0.000780436
0.000780593
0.000777363
0.000764394
0.000722562
0.000598114
0.000191615
0.00018592
0.000508736
0.000598159
0.000625874
0.000633843
0.000635846
0.000636274
0.000636314
0.000636191
0.000635831
0.000634997
0.000633328
0.000630654
0.000627687
0.000625999
0.000625307
0.00062507
0.000624996
0.000624982
0.000625006
0.00062509
0.000625335
0.000626031
0.000627723
0.000630691
0.000633385
0.00063507
0.000635815
0.000635707
0.000633813
0.000625871
0.000598152
0.000508711
0.000185923
0.000172477
0.00018592
0.000191613
0.000193413
0.000193892
0.000194004
0.00019403
0.000194037
0.000194039
0.000194031
0.000194003
0.000193936
0.000193822
0.00019369
0.000193612
0.000193578
0.000193565
0.00019356
0.000193559
0.000193561
0.000193566
0.000193579
0.000193612
0.00019369
0.000193822
0.000193936
0.000194002
0.000194026
0.000194012
0.000193901
0.000193421
0.000191619
0.000185923
0.000172481
0.000178022
0.000196835
0.00020514
0.000207948
0.000208756
0.000208956
0.000208999
0.000209007
0.000209009
0.000209009
0.000209008
0.000209008
0.000209007
0.000209006
0.000209006
0.000209005
0.000209005
0.000209004
0.000209004
0.000209004
0.000209005
0.000209005
0.000209006
0.000209007
0.000209007
0.000209008
0.000209007
0.000208999
0.000208955
0.000208755
0.000207948
0.00020514
0.000196835
0.000178023
0.000196835
0.000638711
0.000774869
0.000820016
0.000833899
0.000837641
0.000838515
0.000838684
0.000838697
0.000838675
0.000838643
0.000838608
0.000838576
0.000838547
0.000838523
0.000838504
0.00083849
0.000838483
0.000838483
0.00083849
0.000838502
0.000838521
0.000838544
0.000838572
0.000838603
0.000838631
0.000838627
0.000838469
0.000837603
0.000833865
0.000819985
0.000774842
0.000638691
0.000196835
0.000205142
0.000774897
0.000971679
0.00104213
0.00106543
0.0010722
0.00107391
0.00107428
0.00107434
0.00107431
0.00107427
0.00107423
0.00107421
0.0010742
0.00107419
0.00107418
0.00107417
0.00107417
0.00107417
0.00107417
0.00107418
0.00107419
0.0010742
0.00107421
0.00107423
0.00107425
0.00107422
0.00107387
0.00107217
0.00106542
0.00104212
0.000971674
0.000774893
0.000205143
0.000207952
0.000820058
0.00104215
0.0011251
0.00115366
0.0011623
0.00116456
0.00116505
0.00116506
0.00116492
0.00116475
0.00116466
0.00116462
0.00116462
0.00116463
0.00116462
0.00116461
0.0011646
0.0011646
0.00116461
0.00116462
0.00116463
0.00116462
0.00116463
0.00116466
0.00116473
0.00116479
0.00116442
0.00116224
0.00115365
0.0011251
0.00104216
0.000820064
0.000207955
0.00020876
0.000833947
0.00106546
0.00115367
0.00118465
0.00119418
0.00119667
0.00119706
0.00119672
0.00119601
0.00119529
0.00119493