/*--------------------------------*- C++ -*----------------------------------*\
| =========                 |                                                 |
| \\      /  F ield         | OpenFOAM: The Open Source CFD Toolbox           |
|  \\    /   O peration     | Version:  2112                                  |
|   \\  /    A nd           | Website:  www.openfoam.com                      |
|    \\/     M anipulation  |                                                 |
\*---------------------------------------------------------------------------*/
FoamFile
{
    version     2.0;
    format      ascii;
    arch        "LSB;label=32;scalar=64";
    class       volScalarField;
    location    "1.2";
    object      p;
}
// * * * * * * * * * * * * * * * * * * * * * * * * * * * * * * * * * * * * * //

dimensions      [0 2 -2 0 0 0 0];

internalField   nonuniform List<scalar> 
64906
(
-1.09837e-05
-1.09605e-05
-1.09665e-05
-1.10045e-05
-1.10777e-05
-1.11859e-05
-1.1328e-05
-1.15031e-05
-1.17081e-05
-1.19394e-05
-1.21872e-05
-1.24426e-05
-1.26885e-05
-1.29155e-05
-1.31122e-05
-1.32734e-05
-1.3394e-05
-1.3472e-05
-1.35063e-05
-1.34971e-05
-1.34457e-05
-1.33548e-05
-1.32294e-05
-1.30751e-05
-1.29034e-05
-1.27235e-05
-1.25524e-05
-1.2399e-05
-1.22728e-05
-1.21779e-05
-1.21171e-05
-1.20904e-05
-1.20933e-05
-1.21168e-05
-1.09326e-05
-1.08055e-05
-1.07463e-05
-1.07323e-05
-1.07656e-05
-1.08381e-05
-1.09432e-05
-1.10773e-05
-1.12362e-05
-1.14164e-05
-1.16076e-05
-1.18041e-05
-1.19891e-05
-1.21589e-05
-1.23044e-05
-1.24242e-05
-1.25154e-05
-1.25776e-05
-1.26104e-05
-1.26139e-05
-1.2589e-05
-1.25363e-05
-1.2459e-05
-1.23586e-05
-1.22444e-05
-1.21198e-05
-1.20018e-05
-1.18963e-05
-1.18152e-05
-1.17651e-05
-1.17564e-05
-1.17993e-05
-1.18915e-05
-1.20421e-05
-1.09486e-05
-1.07576e-05
-1.06507e-05
-1.05973e-05
-1.06028e-05
-1.06551e-05
-1.07446e-05
-1.08668e-05
-1.10178e-05
-1.11967e-05
-1.13898e-05
-1.15933e-05
-1.17771e-05
-1.19418e-05
-1.20765e-05
-1.21857e-05
-1.22678e-05
-1.23247e-05
-1.23566e-05
-1.23636e-05
-1.23462e-05
-1.23023e-05
-1.22343e-05
-1.21375e-05
-1.20233e-05
-1.18906e-05
-1.17706e-05
-1.16671e-05
-1.15973e-05
-1.15679e-05
-1.15939e-05
-1.16898e-05
-1.18499e-05
-1.20731e-05
-1.10378e-05
-1.0797e-05
-1.06536e-05
-1.05721e-05
-1.0562e-05
-1.06095e-05
-1.07039e-05
-1.08434e-05
-1.10268e-05
-1.12606e-05
-1.15243e-05
-1.18165e-05
-1.20677e-05
-1.22843e-05
-1.24499e-05
-1.25796e-05
-1.26728e-05
-1.27349e-05
-1.27665e-05
-1.27678e-05
-1.27386e-05
-1.26739e-05
-1.25746e-05
-1.2426e-05
-1.2245e-05
-1.20248e-05
-1.18368e-05
-1.16824e-05
-1.15869e-05
-1.15524e-05
-1.15943e-05
-1.1727e-05
-1.19387e-05
-1.22184e-05
-1.12117e-05
-1.09218e-05
-1.07579e-05
-1.06628e-05
-1.06519e-05
-1.0712e-05
-1.08341e-05
-1.10227e-05
-1.12856e-05
-1.16462e-05
-1.20763e-05
-1.2582e-05
-1.29959e-05
-1.33377e-05
-1.35835e-05
-1.37704e-05
-1.38984e-05
-1.39782e-05
-1.40102e-05
-1.39948e-05
-1.39317e-05
-1.38107e-05
-1.36324e-05
-1.33599e-05
-1.30187e-05
-1.25879e-05
-1.22395e-05
-1.19647e-05
-1.17987e-05
-1.17285e-05
-1.17639e-05
-1.1914e-05
-1.216e-05
-1.24914e-05
-1.14497e-05
-1.11322e-05
-1.09475e-05
-1.08471e-05
-1.08475e-05
-1.09353e-05
-1.11047e-05
-1.1372e-05
-1.17625e-05
-1.23356e-05
-1.30624e-05
-1.3988e-05
-1.4697e-05
-1.52575e-05
-1.5641e-05
-1.5929e-05
-1.61203e-05
-1.62328e-05
-1.62662e-05
-1.62205e-05
-1.60967e-05
-1.58767e-05
-1.55629e-05
-1.50739e-05
-1.4441e-05
-1.35937e-05
-1.29585e-05
-1.24796e-05
-1.21964e-05
-1.20618e-05
-1.20716e-05
-1.22244e-05
-1.24874e-05
-1.29003e-05
-1.17536e-05
-1.14074e-05
-1.12042e-05
-1.11049e-05
-1.11269e-05
-1.12558e-05
-1.149e-05
-1.18613e-05
-1.24241e-05
-1.3307e-05
-1.4487e-05
-1.62236e-05
-1.74086e-05
-1.83005e-05
-1.88853e-05
-1.93242e-05
-1.96104e-05
-1.97735e-05
-1.98094e-05
-1.9718e-05
-1.95035e-05
-1.91364e-05
-1.86244e-05
-1.78059e-05
-1.67006e-05
-1.50428e-05
-1.39725e-05
-1.31932e-05
-1.27482e-05
-1.25242e-05
-1.24935e-05
-1.26421e-05
-1.29275e-05
-1.34141e-05
-1.21179e-05
-1.17354e-05
-1.15157e-05
-1.14248e-05
-1.14816e-05
-1.1669e-05
-1.1988e-05
-1.24824e-05
-1.32431e-05
-1.44761e-05
-1.6215e-05
-1.95472e-05
-2.13954e-05
-2.27545e-05
-2.36296e-05
-2.42938e-05
-2.47247e-05
-2.49657e-05
-2.50057e-05
-2.48444e-05
-2.44926e-05
-2.3906e-05
-2.31077e-05
-2.18228e-05
-2.00564e-05
-1.67917e-05
-1.52036e-05
-1.40792e-05
-1.34446e-05
-1.31113e-05
-1.30227e-05
-1.31589e-05
-1.34733e-05
-1.40196e-05
-1.25322e-05
-1.21053e-05
-1.18703e-05
-1.17962e-05
-1.19041e-05
-1.21727e-05
-1.26014e-05
-1.3234e-05
-1.4167e-05
-1.57892e-05
-1.79493e-05
-2.44809e-05
-2.68625e-05
-2.87527e-05
-2.99906e-05
-3.09276e-05
-3.15387e-05
-3.18779e-05
-3.19242e-05
-3.16768e-05
-3.11563e-05
-3.03062e-05
-2.91507e-05
-2.73322e-05
-2.50367e-05
-1.85331e-05
-1.66259e-05
-1.50903e-05
-1.42861e-05
-1.3824e-05
-1.36528e-05
-1.37608e-05
-1.41004e-05
-1.47189e-05
-1.29852e-05
-1.25076e-05
-1.22617e-05
-1.222e-05
-1.24106e-05
-1.28121e-05
-1.34235e-05
-1.42375e-05
-1.5399e-05
-1.78519e-05
-1.57661e-05
-3.04549e-05
-3.32409e-05
-3.59604e-05
-3.77605e-05
-3.91313e-05
-4.00283e-05
-4.05138e-05
-4.05685e-05
-4.01915e-05
-3.94015e-05
-3.81323e-05
-3.64248e-05
-3.37764e-05
-3.11042e-05
-1.62307e-05
-1.87829e-05
-1.64033e-05
-1.53872e-05
-1.47487e-05
-1.44203e-05
-1.44545e-05
-1.48013e-05
-1.5502e-05
-1.34592e-05
-1.29248e-05
-1.26689e-05
-1.26688e-05
-1.29653e-05
-1.35468e-05
-1.44057e-05
-1.54374e-05
-1.64597e-05
-1.4052e-05
-4.50956e-05
-4.21981e-05
-4.40916e-05
-4.61586e-05
-4.78856e-05
-4.90651e-05
-4.96841e-05
-4.97487e-05
-4.92582e-05
-4.82059e-05
-4.66004e-05
-4.46428e-05
-4.28203e-05
-4.56452e-05
-1.55048e-05
-1.77326e-05
-1.67313e-05
-1.58408e-05
-1.52806e-05
-1.51963e-05
-1.5538e-05
-1.63355e-05
-1.3938e-05
-1.33459e-05
-1.30864e-05
-1.31465e-05
-1.35969e-05
-1.44841e-05
-1.59615e-05
-1.83096e-05
-2.22864e-05
-2.7951e-05
-4.16936e-05
-4.21633e-05
-4.70697e-05
-5.13576e-05
-5.49759e-05
-5.76496e-05
-5.93514e-05
-6.01941e-05
-6.02684e-05
-5.95748e-05
-5.80238e-05
-5.55031e-05
-5.20425e-05
-4.7918e-05
-4.31887e-05
-4.30757e-05
-2.91921e-05
-2.35729e-05
-1.96596e-05
-1.7471e-05
-1.63244e-05
-1.60031e-05
-1.62999e-05
-1.71933e-05
-1.43971e-05
-1.37463e-05
-1.3476e-05
-1.35766e-05
-1.4133e-05
-1.52078e-05
-1.69808e-05
-1.97171e-05
-2.38953e-05
-2.9421e-05
-3.86171e-05
-4.45312e-05
-5.08329e-05
-5.63866e-05
-6.10065e-05
-6.42692e-05
-6.6311e-05
-6.73082e-05
-6.73899e-05
-6.65569e-05
-6.46824e-05
-6.1591e-05
-5.71495e-05
-5.17719e-05
-4.56384e-05
-3.99106e-05
-3.0756e-05
-2.52506e-05
-2.11343e-05
-1.85675e-05
-1.7156e-05
-1.67136e-05
-1.70074e-05
-1.80054e-05
-1.48209e-05
-1.41166e-05
-1.38336e-05
-1.3963e-05
-1.45966e-05
-1.57992e-05
-1.77507e-05
-2.07055e-05
-2.50956e-05
-3.09568e-05
-3.88849e-05
-4.60238e-05
-5.34707e-05
-5.99194e-05
-6.51881e-05
-6.88181e-05
-7.10662e-05
-7.21509e-05
-7.2238e-05
-7.13286e-05
-6.92594e-05
-6.58129e-05
-6.07352e-05
-5.44737e-05
-4.72282e-05
-4.0194e-05
-3.23195e-05
-2.64938e-05
-2.21794e-05
-1.94102e-05
-1.78527e-05
-1.73443e-05
-1.76517e-05
-1.87445e-05
-1.51932e-05
-1.44415e-05
-1.41416e-05
-1.42821e-05
-1.49551e-05
-1.62183e-05
-1.82384e-05
-2.1257e-05
-2.56698e-05
-3.15597e-05
-3.91329e-05
-4.68467e-05
-5.49772e-05
-6.18555e-05
-6.74142e-05
-7.11966e-05
-7.35263e-05
-7.46432e-05
-7.47342e-05
-7.38002e-05
-7.16568e-05
-6.80644e-05
-6.27017e-05
-5.60093e-05
-4.80575e-05
-4.04554e-05
-3.29512e-05
-2.71084e-05
-2.27835e-05
-1.99674e-05
-1.83718e-05
-1.78564e-05
-1.81987e-05
-1.93769e-05
-1.55057e-05
-1.47157e-05
-1.43994e-05
-1.45429e-05
-1.52366e-05
-1.65307e-05
-1.85805e-05
-2.16202e-05
-2.60281e-05
-3.19242e-05
-3.94516e-05
-4.74573e-05
-5.59034e-05
-6.29922e-05
-6.86852e-05
-7.25238e-05
-7.48785e-05
-7.60032e-05
-7.60975e-05
-7.51622e-05
-7.29995e-05
-6.93556e-05
-6.38618e-05
-5.69593e-05
-4.86906e-05
-4.07949e-05
-3.33443e-05
-2.75032e-05
-2.31937e-05
-2.03718e-05
-1.87729e-05
-1.82698e-05
-1.86485e-05
-1.9895e-05
-1.57523e-05
-1.49338e-05
-1.46038e-05
-1.4746e-05
-1.54491e-05
-1.67581e-05
-1.88209e-05
-2.187e-05
-2.62793e-05
-3.21996e-05
-3.97627e-05
-4.79248e-05
-5.65406e-05
-6.37394e-05
-6.94998e-05
-7.33646e-05
-7.57301e-05
-7.68584e-05
-7.6956e-05
-7.60234e-05
-7.38552e-05
-7.01893e-05
-6.46309e-05
-5.76193e-05
-4.91814e-05
-4.11292e-05
-3.3647e-05
-2.77869e-05
-2.34838e-05
-2.06648e-05
-1.90732e-05
-1.8587e-05
-1.8997e-05
-2.02942e-05
-1.59304e-05
-1.50943e-05
-1.47558e-05
-1.48973e-05
-1.56071e-05
-1.69276e-05
-1.90038e-05
-2.20694e-05
-2.64991e-05
-3.24601e-05
-4.00816e-05
-4.83484e-05
-5.70736e-05
-6.43519e-05
-7.01667e-05
-7.40614e-05
-7.64441e-05
-7.75811e-05
-7.76823e-05
-7.67478e-05
-7.45685e-05
-7.08771e-05
-6.52669e-05
-5.81768e-05
-4.96296e-05
-4.14721e-05
-3.39328e-05
-2.80345e-05
-2.3716e-05
-2.08885e-05
-1.92967e-05
-1.88195e-05
-1.92484e-05
-2.05767e-05
-1.6039e-05
-1.51963e-05
-1.48555e-05
-1.49987e-05
-1.57151e-05
-1.70473e-05
-1.91416e-05
-2.2234e-05
-2.67024e-05
-3.27173e-05
-4.04072e-05
-4.87525e-05
-5.75549e-05
-6.49007e-05
-7.07699e-05
-7.47058e-05
-7.71167e-05
-7.82697e-05
-7.8375e-05
-7.74324e-05
-7.52317e-05
-7.15042e-05
-6.58424e-05
-5.86852e-05
-5.00601e-05
-4.1822e-05
-3.42133e-05
-2.82608e-05
-2.39056e-05
-2.10547e-05
-1.94507e-05
-1.89707e-05
-1.94043e-05
-2.07445e-05
-1.60784e-05
-1.52402e-05
-1.4903e-05
-1.50504e-05
-1.5773e-05
-1.71167e-05
-1.92329e-05
-2.23617e-05
-2.68865e-05
-3.29699e-05
-4.07406e-05
-4.91447e-05
-5.7994e-05
-6.53952e-05
-7.13175e-05
-7.53046e-05
-7.77538e-05
-7.89301e-05
-7.90405e-05
-7.80843e-05
-7.58535e-05
-7.20812e-05
-6.63699e-05
-5.91587e-05
-5.04827e-05
-4.21815e-05
-3.44884e-05
-2.84656e-05
-2.4052e-05
-2.11634e-05
-1.95358e-05
-1.90417e-05
-1.9466e-05
-2.07991e-05
-1.60505e-05
-1.52274e-05
-1.48992e-05
-1.50511e-05
-1.57765e-05
-1.71271e-05
-1.92633e-05
-2.24321e-05
-2.70294e-05
-3.31999e-05
-4.10861e-05
-4.95214e-05
-5.83614e-05
-6.57859e-05
-7.17446e-05
-7.57841e-05
-7.82767e-05
-7.94814e-05
-7.95981e-05
-7.86259e-05
-7.63626e-05
-7.25465e-05
-6.68032e-05
-5.95691e-05
-5.08974e-05
-4.25564e-05
-3.4741e-05
-2.8626e-05
-2.41361e-05
-2.12024e-05
-1.95462e-05
-1.90312e-05
-1.94348e-05
-2.0742e-05
-1.59585e-05
-1.51604e-05
-1.48436e-05
-1.4996e-05
-1.57127e-05
-1.70524e-05
-1.91882e-05
-2.23791e-05
-2.70484e-05
-3.33274e-05
-4.14318e-05
-4.98336e-05
-5.85339e-05
-6.58817e-05
-7.18052e-05
-7.58646e-05
-7.83858e-05
-7.96161e-05
-7.97416e-05
-7.87613e-05
-7.64848e-05
-7.26623e-05
-6.6962e-05
-5.98069e-05
-5.1265e-05
-4.29391e-05
-3.48959e-05
-2.86654e-05
-2.40973e-05
-2.11328e-05
-1.94616e-05
-1.89317e-05
-1.93099e-05
-2.05747e-05
-1.58096e-05
-1.50455e-05
-1.47417e-05
-1.48875e-05
-1.55783e-05
-1.68783e-05
-1.89727e-05
-2.21351e-05
-2.68348e-05
-3.3184e-05
-4.18303e-05
-5.00894e-05
-5.83152e-05
-6.53819e-05
-7.11234e-05
-7.51162e-05
-7.76184e-05
-7.88568e-05
-7.89955e-05
-7.80335e-05
-7.58013e-05
-7.20691e-05
-6.65662e-05
-5.96995e-05
-5.16139e-05
-4.33887e-05
-3.47942e-05
-2.84848e-05
-2.38776e-05
-2.09285e-05
-1.9276e-05
-1.87481e-05
-1.9101e-05
-2.03065e-05
-1.56128e-05
-1.48889e-05
-1.4595e-05
-1.47191e-05
-1.53499e-05
-1.65469e-05
-1.84919e-05
-2.1464e-05
-2.59641e-05
-3.20059e-05
-4.21489e-05
-5.02644e-05
-5.73767e-05
-6.37039e-05
-6.89254e-05
-7.26595e-05
-7.5038e-05
-7.62443e-05
-7.64033e-05
-7.55151e-05
-7.34477e-05
-7.00161e-05
-6.50617e-05
-5.89532e-05
-5.19622e-05
-4.37686e-05
-3.3682e-05
-2.76741e-05
-2.3254e-05
-2.04755e-05
-1.89412e-05
-1.84665e-05
-1.88113e-05
-1.99485e-05
-1.53851e-05
-1.4707e-05
-1.4424e-05
-1.4521e-05
-1.50737e-05
-1.61249e-05
-1.78301e-05
-2.0481e-05
-2.49141e-05
-3.14457e-05
-4.46528e-05
-4.89333e-05
-5.55501e-05
-6.10371e-05
-6.54939e-05
-6.88322e-05
-7.10118e-05
-7.21527e-05
-7.23419e-05
-7.15828e-05
-6.97815e-05
-6.68189e-05
-6.26791e-05
-5.74354e-05
-5.08241e-05
-4.62337e-05
-3.33063e-05
-2.67597e-05
-2.23654e-05
-1.98718e-05
-1.85328e-05
-1.81415e-05
-1.84823e-05
-1.95388e-05
-1.51408e-05
-1.45083e-05
-1.4231e-05
-1.42858e-05
-1.4721e-05
-1.5519e-05
-1.66517e-05
-1.7928e-05
-1.9017e-05
-1.53536e-05
-5.85571e-05
-5.4376e-05
-5.70167e-05
-6.003e-05
-6.26433e-05
-6.44832e-05
-6.55189e-05
-6.57473e-05
-6.5178e-05
-6.38088e-05
-6.16821e-05
-5.9071e-05
-5.6809e-05
-6.10411e-05
-1.72575e-05
-2.10246e-05
-1.99427e-05
-1.87825e-05
-1.79588e-05
-1.77481e-05
-1.81163e-05
-1.9099e-05
-1.49044e-05
-1.43183e-05
-1.40574e-05
-1.40983e-05
-1.44877e-05
-1.52249e-05
-1.63672e-05
-1.80398e-05
-2.07568e-05
-2.5294e-05
-2.81683e-05
-4.21999e-05
-4.72235e-05
-5.18601e-05
-5.53473e-05
-5.81413e-05
-6.00347e-05
-6.11208e-05
-6.13947e-05
-6.08785e-05
-5.95793e-05
-5.74265e-05
-5.44626e-05
-5.03362e-05
-4.52936e-05
-3.18777e-05
-2.82661e-05
-2.33323e-05
-2.03382e-05
-1.86281e-05
-1.77016e-05
-1.74693e-05
-1.77975e-05
-1.86969e-05
-1.46885e-05
-1.41448e-05
-1.39014e-05
-1.39347e-05
-1.42889e-05
-1.49701e-05
-1.60394e-05
-1.76376e-05
-1.99895e-05
-2.34015e-05
-2.92422e-05
-3.77931e-05
-4.27041e-05
-4.72013e-05
-5.07015e-05
-5.35082e-05
-5.53902e-05
-5.64756e-05
-5.67817e-05
-5.63457e-05
-5.51593e-05
-5.31319e-05
-5.02244e-05
-4.63057e-05
-4.1393e-05
-3.2925e-05
-2.64933e-05
-2.27212e-05
-2.00755e-05
-1.8381e-05
-1.74628e-05
-1.72176e-05
-1.75085e-05
-1.8337e-05
-1.451e-05
-1.4008e-05
-1.37893e-05
-1.38306e-05
-1.41742e-05
-1.48306e-05
-1.5861e-05
-1.74006e-05
-1.96791e-05
-2.29874e-05
-2.76719e-05
-3.37416e-05
-3.86306e-05
-4.31642e-05
-4.67441e-05
-4.96222e-05
-5.15298e-05
-5.26204e-05
-5.29403e-05
-5.25364e-05
-5.13816e-05
-4.93771e-05
-4.64429e-05
-4.25502e-05
-3.76658e-05
-3.1563e-05
-2.63627e-05
-2.25784e-05
-1.99381e-05
-1.82516e-05
-1.73231e-05
-1.70465e-05
-1.72887e-05
-1.80479e-05
-1.43786e-05
-1.39204e-05
-1.37336e-05
-1.37929e-05
-1.4135e-05
-1.47684e-05
-1.57438e-05
-1.7174e-05
-1.92319e-05
-2.2141e-05
-2.59758e-05
-3.06767e-05
-3.5079e-05
-3.93139e-05
-4.27261e-05
-4.54521e-05
-4.72578e-05
-4.82873e-05
-4.85977e-05
-4.82371e-05
-4.71716e-05
-4.53168e-05
-4.25674e-05
-3.89874e-05
-3.45959e-05
-2.98049e-05
-2.5497e-05
-2.21294e-05
-1.972e-05
-1.81382e-05
-1.72424e-05
-1.6948e-05
-1.71436e-05
-1.78342e-05
-1.43036e-05
-1.39021e-05
-1.3763e-05
-1.38586e-05
-1.42167e-05
-1.48415e-05
-1.57706e-05
-1.70855e-05
-1.89003e-05
-2.13508e-05
-2.44653e-05
-2.81897e-05
-3.194e-05
-3.56465e-05
-3.86902e-05
-4.11042e-05
-4.27261e-05
-4.3655e-05
-4.39424e-05
-4.36275e-05
-4.26808e-05
-4.1048e-05
-3.86359e-05
-3.55345e-05
-3.1813e-05
-2.7984e-05
-2.44919e-05
-2.16747e-05
-1.95783e-05
-1.81451e-05
-1.72933e-05
-1.69734e-05
-1.71061e-05
-1.77096e-05
-1.42886e-05
-1.39705e-05
-1.39041e-05
-1.40623e-05
-1.44605e-05
-1.51017e-05
-1.60169e-05
-1.7266e-05
-1.89158e-05
-2.10405e-05
-2.36416e-05
-2.66803e-05
-2.98378e-05
-3.29825e-05
-3.56158e-05
-3.77079e-05
-3.91417e-05
-3.99767e-05
-4.02428e-05
-3.99666e-05
-3.91294e-05
-3.77005e-05
-3.56308e-05
-3.3005e-05
-2.99128e-05
-2.68012e-05
-2.39415e-05
-2.15611e-05
-1.97148e-05
-1.83896e-05
-1.75516e-05
-1.7173e-05
-1.72062e-05
-1.76807e-05
-1.43245e-05
-1.4118e-05
-1.41432e-05
-1.4392e-05
-1.48525e-05
-1.55321e-05
-1.64731e-05
-1.77402e-05
-1.93581e-05
-2.13564e-05
-2.37187e-05
-2.6397e-05
-2.91852e-05
-3.19377e-05
-3.42975e-05
-3.61904e-05
-3.75212e-05
-3.83092e-05
-3.85642e-05
-3.83008e-05
-3.75111e-05
-3.61871e-05
-3.43203e-05
-3.1995e-05
-2.93191e-05
-2.66243e-05
-2.41108e-05
-2.19494e-05
-2.02011e-05
-1.88855e-05
-1.80155e-05
-1.75378e-05
-1.7438e-05
-1.77362e-05
-1.44082e-05
-1.43897e-05
-1.45319e-05
-1.48472e-05
-1.54024e-05
-1.62246e-05
-1.7323e-05
-1.87051e-05
-2.04281e-05
-2.25255e-05
-2.49744e-05
-2.77063e-05
-3.05395e-05
-3.33116e-05
-3.57302e-05
-3.76881e-05
-3.90897e-05
-3.99247e-05
-4.01909e-05
-3.98954e-05
-3.90379e-05
-3.76247e-05
-3.56765e-05
-3.32875e-05
-3.059e-05
-2.78679e-05
-2.53183e-05
-2.30989e-05
-2.128e-05
-1.98704e-05
-1.88307e-05
-1.81885e-05
-1.78817e-05
-1.78733e-05
-1.1071e-05
-1.10847e-05
-1.11217e-05
-1.11853e-05
-1.12817e-05
-1.14135e-05
-1.15822e-05
-1.17882e-05
-1.20293e-05
-1.23022e-05
-1.25952e-05
-1.28988e-05
-1.31914e-05
-1.34624e-05
-1.36967e-05
-1.38878e-05
-1.40292e-05
-1.41184e-05
-1.41536e-05
-1.41353e-05
-1.40652e-05
-1.39464e-05
-1.37856e-05
-1.35896e-05
-1.33736e-05
-1.31481e-05
-1.29346e-05
-1.2742e-05
-1.25819e-05
-1.24561e-05
-1.23644e-05
-1.23024e-05
-1.22616e-05
-1.22341e-05
-1.1035e-05
-1.09878e-05
-1.09836e-05
-1.10117e-05
-1.10783e-05
-1.11823e-05
-1.13221e-05
-1.14965e-05
-1.17007e-05
-1.19324e-05
-1.21758e-05
-1.24269e-05
-1.26627e-05
-1.28818e-05
-1.30689e-05
-1.32225e-05
-1.3337e-05
-1.3412e-05
-1.34464e-05
-1.34402e-05
-1.33952e-05
-1.33118e-05
-1.31963e-05
-1.305e-05
-1.28885e-05
-1.27129e-05
-1.25465e-05
-1.2393e-05
-1.22691e-05
-1.21781e-05
-1.21259e-05
-1.21131e-05
-1.21302e-05
-1.21793e-05
-1.10729e-05
-1.09995e-05
-1.09743e-05
-1.09803e-05
-1.10336e-05
-1.11328e-05
-1.12751e-05
-1.14607e-05
-1.16842e-05
-1.19494e-05
-1.22303e-05
-1.25339e-05
-1.2806e-05
-1.30578e-05
-1.32636e-05
-1.34308e-05
-1.35521e-05
-1.36304e-05
-1.36644e-05
-1.36544e-05
-1.3602e-05
-1.35046e-05
-1.337e-05
-1.31907e-05
-1.2993e-05
-1.27651e-05
-1.25626e-05
-1.23779e-05
-1.22395e-05
-1.21467e-05
-1.21085e-05
-1.2124e-05
-1.21679e-05
-1.22435e-05
-1.11819e-05
-1.1084e-05
-1.10421e-05
-1.10367e-05
-1.109e-05
-1.12018e-05
-1.13704e-05
-1.16009e-05
-1.18902e-05
-1.22563e-05
-1.26553e-05
-1.31151e-05
-1.35069e-05
-1.38653e-05
-1.41432e-05
-1.43649e-05
-1.45192e-05
-1.46143e-05
-1.46485e-05
-1.46221e-05
-1.45371e-05
-1.43857e-05
-1.41796e-05
-1.38946e-05
-1.3579e-05
-1.3197e-05
-1.28806e-05
-1.25999e-05
-1.24035e-05
-1.22777e-05
-1.22314e-05
-1.22578e-05
-1.23204e-05
-1.24203e-05
-1.13712e-05
-1.12457e-05
-1.11946e-05
-1.11902e-05
-1.12585e-05
-1.14013e-05
-1.16202e-05
-1.19307e-05
-1.23364e-05
-1.28854e-05
-1.35041e-05
-1.42696e-05
-1.48838e-05
-1.54365e-05
-1.58437e-05
-1.61638e-05
-1.63783e-05
-1.65048e-05
-1.654e-05
-1.64838e-05
-1.63403e-05
-1.60921e-05
-1.57587e-05
-1.52811e-05
-1.47464e-05
-1.40622e-05
-1.35334e-05
-1.30767e-05
-1.27736e-05
-1.25808e-05
-1.25022e-05
-1.25214e-05
-1.25936e-05
-1.27238e-05
-1.16343e-05
-1.1481e-05
-1.14242e-05
-1.14302e-05
-1.15268e-05
-1.17174e-05
-1.20086e-05
-1.24308e-05
-1.30012e-05
-1.38268e-05
-1.47968e-05
-1.61088e-05
-1.70783e-05
-1.79374e-05
-1.85405e-05
-1.90127e-05
-1.93208e-05
-1.9497e-05
-1.95338e-05
-1.94314e-05
-1.91975e-05
-1.88e-05
-1.82734e-05
-1.74918e-05
-1.66058e-05
-1.53784e-05
-1.45099e-05
-1.37849e-05
-1.33282e-05
-1.30373e-05
-1.2906e-05
-1.29037e-05
-1.29791e-05
-1.31542e-05
-1.19673e-05
-1.1781e-05
-1.17208e-05
-1.17451e-05
-1.18818e-05
-1.21348e-05
-1.25158e-05
-1.30736e-05
-1.38459e-05
-1.50547e-05
-1.65394e-05
-1.88301e-05
-2.03054e-05
-2.15817e-05
-2.24339e-05
-2.31042e-05
-2.35329e-05
-2.37751e-05
-2.38148e-05
-2.36518e-05
-2.33025e-05
-2.2711e-05
-2.19389e-05
-2.07417e-05
-1.93542e-05
-1.71491e-05
-1.57859e-05
-1.46866e-05
-1.40398e-05
-1.36273e-05
-1.34278e-05
-1.3395e-05
-1.34728e-05
-1.37015e-05
-1.23642e-05
-1.21367e-05
-1.20765e-05
-1.21293e-05
-1.23226e-05
-1.26582e-05
-1.31491e-05
-1.38504e-05
-1.48167e-05
-1.63682e-05
-1.8522e-05
-2.2579e-05
-2.46315e-05
-2.64304e-05
-2.76022e-05
-2.85396e-05
-2.9135e-05
-2.94702e-05
-2.95143e-05
-2.92669e-05
-2.87587e-05
-2.79062e-05
-2.6819e-05
-2.5099e-05
-2.31349e-05
-1.91542e-05
-1.71626e-05
-1.57258e-05
-1.48963e-05
-1.43542e-05
-1.40691e-05
-1.39929e-05
-1.40699e-05
-1.4359e-05
-1.28151e-05
-1.25358e-05
-1.24768e-05
-1.25672e-05
-1.28326e-05
-1.32677e-05
-1.38785e-05
-1.46993e-05
-1.57099e-05
-1.75021e-05
-1.99736e-05
-2.80605e-05
-3.01697e-05
-3.22557e-05
-3.36607e-05
-3.48006e-05
-3.55325e-05
-3.59522e-05
-3.60025e-05
-3.56824e-05
-3.50488e-05
-3.40024e-05
-3.26871e-05
-3.06748e-05
-2.86549e-05
-2.05966e-05
-1.84046e-05
-1.67098e-05
-1.5841e-05
-1.51883e-05
-1.48066e-05
-1.46752e-05
-1.47501e-05
-1.5119e-05
-1.33093e-05
-1.29703e-05
-1.2921e-05
-1.30726e-05
-1.34548e-05
-1.40596e-05
-1.48961e-05
-1.58595e-05
-1.69184e-05
-1.91864e-05
-1.46669e-05
-3.28632e-05
-3.50418e-05
-3.77415e-05
-3.95758e-05
-4.10884e-05
-4.20615e-05
-4.26062e-05
-4.26637e-05
-4.22331e-05
-4.13729e-05
-3.99669e-05
-3.82314e-05
-3.56032e-05
-3.35389e-05
-1.50858e-05
-2.01623e-05
-1.79859e-05
-1.70919e-05
-1.63057e-05
-1.57214e-05
-1.54695e-05
-1.55123e-05
-1.5975e-05
-1.38266e-05
-1.34173e-05
-1.3376e-05
-1.35932e-05
-1.41028e-05
-1.49e-05
-1.59921e-05
-1.71973e-05
-1.7835e-05
-1.25457e-05
-4.80371e-05
-4.1631e-05
-4.26626e-05
-4.44505e-05
-4.59015e-05
-4.69305e-05
-4.74962e-05
-4.75616e-05
-4.71259e-05
-4.62254e-05
-4.48967e-05
-4.32214e-05
-4.22511e-05
-4.85187e-05
-1.41195e-05
-1.91667e-05
-1.85654e-05
-1.75091e-05
-1.66796e-05
-1.62839e-05
-1.6297e-05
-1.68855e-05
-1.43511e-05
-1.38704e-05
-1.38523e-05
-1.41734e-05
-1.48986e-05
-1.60935e-05
-1.79519e-05
-2.06797e-05
-2.52146e-05
-3.03694e-05
-4.45104e-05
-4.03323e-05
-4.33007e-05
-4.66262e-05
-4.94993e-05
-5.16314e-05
-5.30286e-05
-5.3735e-05
-5.38085e-05
-5.32491e-05
-5.20006e-05
-5.00192e-05
-4.73046e-05
-4.41463e-05
-4.13548e-05
-4.59422e-05
-3.16119e-05
-2.65402e-05
-2.20956e-05
-1.95289e-05
-1.79555e-05
-1.72139e-05
-1.7116e-05
-1.78287e-05
-1.48532e-05
-1.43002e-05
-1.42901e-05
-1.46794e-05
-1.55403e-05
-1.69522e-05
-1.91327e-05
-2.22477e-05
-2.68671e-05
-3.19311e-05
-4.02322e-05
-4.28422e-05
-4.62021e-05
-4.94908e-05
-5.26638e-05
-5.50029e-05
-5.6565e-05
-5.73532e-05
-5.74329e-05
-5.68043e-05
-5.5404e-05
-5.32279e-05
-5.02241e-05
-4.70972e-05
-4.38939e-05
-4.15008e-05
-3.3261e-05
-2.82589e-05
-2.37299e-05
-2.07839e-05
-1.89108e-05
-1.80052e-05
-1.78729e-05
-1.87193e-05
-1.5317e-05
-1.47012e-05
-1.46995e-05
-1.51505e-05
-1.61312e-05
-1.77307e-05
-2.0172e-05
-2.36162e-05
-2.84899e-05
-3.40603e-05
-4.0941e-05
-4.51081e-05
-4.90015e-05
-5.26658e-05
-5.62534e-05
-5.8827e-05
-6.05552e-05
-6.14163e-05
-6.15016e-05
-6.08113e-05
-5.92564e-05
-5.68566e-05
-5.34481e-05
-4.99431e-05
-4.61718e-05
-4.21957e-05
-3.54173e-05
-2.99255e-05
-2.51568e-05
-2.18956e-05
-1.97875e-05
-1.87446e-05
-1.85798e-05
-1.95323e-05
-1.57228e-05
-1.50529e-05
-1.50497e-05
-1.55345e-05
-1.65811e-05
-1.82743e-05
-2.08229e-05
-2.43832e-05
-2.92953e-05
-3.50258e-05
-4.16645e-05
-4.65043e-05
-5.08272e-05
-5.47034e-05
-5.84804e-05
-6.11595e-05
-6.29647e-05
-6.38576e-05
-6.3947e-05
-6.32329e-05
-6.16087e-05
-5.91095e-05
-5.55163e-05
-5.18024e-05
-4.7643e-05
-4.29385e-05
-3.6415e-05
-3.07754e-05
-2.59812e-05
-2.26196e-05
-2.04302e-05
-1.93388e-05
-1.91795e-05
-2.02236e-05
-1.60621e-05
-1.53505e-05
-1.53446e-05
-1.58515e-05
-1.69416e-05
-1.86957e-05
-2.13108e-05
-2.4944e-05
-2.98896e-05
-3.57161e-05
-4.23308e-05
-4.75152e-05
-5.20968e-05
-5.61355e-05
-6.00418e-05
-6.27825e-05
-6.46286e-05
-6.55377e-05
-6.56308e-05
-6.49077e-05
-6.32492e-05
-6.06936e-05
-5.69752e-05
-5.30999e-05
-4.8685e-05
-4.36298e-05
-3.71392e-05
-3.1411e-05
-2.65944e-05
-2.31745e-05
-2.09415e-05
-1.98263e-05
-1.96768e-05
-2.07877e-05
-1.63278e-05
-1.55863e-05
-1.55762e-05
-1.60944e-05
-1.72085e-05
-1.89956e-05
-2.16453e-05
-2.53181e-05
-3.02897e-05
-3.61909e-05
-4.28511e-05
-4.8227e-05
-5.29686e-05
-5.71065e-05
-6.10869e-05
-6.38633e-05
-6.57335e-05
-6.66529e-05
-6.67496e-05
-6.6023e-05
-6.43465e-05
-6.17599e-05
-5.79709e-05
-5.39978e-05
-4.94245e-05
-4.41773e-05
-3.76464e-05
-3.18485e-05
-2.70143e-05
-2.35665e-05
-2.13169e-05
-2.01962e-05
-2.00601e-05
-2.12186e-05
-1.65177e-05
-1.57589e-05
-1.57466e-05
-1.62722e-05
-1.74019e-05
-1.92114e-05
-2.18877e-05
-2.55949e-05
-3.06024e-05
-3.65693e-05
-4.32942e-05
-4.879e-05
-5.36376e-05
-5.78519e-05
-6.18919e-05
-6.47045e-05
-6.65991e-05
-6.75311e-05
-6.76316e-05
-6.69e-05
-6.52056e-05
-6.25879e-05
-5.87428e-05
-5.4695e-05
-5.00167e-05
-4.46492e-05
-3.80556e-05
-3.21946e-05
-2.73293e-05
-2.38546e-05
-2.15899e-05
-2.0464e-05
-2.0335e-05
-2.15205e-05
-1.66307e-05
-1.5867e-05
-1.58551e-05
-1.63854e-05
-1.75246e-05
-1.93492e-05
-2.20477e-05
-2.57866e-05
-3.0838e-05
-3.68643e-05
-4.36598e-05
-4.9234e-05
-5.41519e-05
-5.84281e-05
-6.2519e-05
-6.53715e-05
-6.72939e-05
-6.82421e-05
-6.8347e-05
-6.76077e-05
-6.58929e-05
-6.32413e-05
-5.93489e-05
-5.52409e-05
-5.04923e-05
-4.50447e-05
-3.83799e-05
-3.24592e-05
-2.75515e-05
-2.40478e-05
-2.17657e-05
-2.06316e-05
-2.0502e-05
-2.16957e-05
-1.66669e-05
-1.59107e-05
-1.59019e-05
-1.64342e-05
-1.75767e-05
-1.94086e-05
-2.21238e-05
-2.58913e-05
-3.09939e-05
-3.7076e-05
-4.39517e-05
-4.95719e-05
-5.45258e-05
-5.88494e-05
-6.29814e-05
-6.58764e-05
-6.78293e-05
-6.87975e-05
-6.89078e-05
-6.81591e-05
-6.64226e-05
-6.37356e-05
-5.9806e-05
-5.56524e-05
-5.08664e-05
-4.53689e-05
-3.86208e-05
-3.26414e-05
-2.76802e-05
-2.41461e-05
-2.18449e-05
-2.07001e-05
-2.05624e-05
-2.17458e-05
-1.66286e-05
-1.58924e-05
-1.58888e-05
-1.64192e-05
-1.75562e-05
-1.93838e-05
-2.21056e-05
-2.5893e-05
-3.10539e-05
-3.71865e-05
-4.41733e-05
-4.97991e-05
-5.4738e-05
-5.90871e-05
-6.3243e-05
-6.61804e-05
-6.81641e-05
-6.91552e-05
-6.92724e-05
-6.85143e-05
-6.67588e-05
-6.40394e-05
-6.00911e-05
-5.59148e-05
-5.11401e-05
-4.5628e-05
-3.87624e-05
-3.27266e-05
-2.77023e-05
-2.41421e-05
-2.18255e-05
-2.06711e-05
-2.05194e-05
-2.16722e-05
-1.65186e-05
-1.58142e-05
-1.58146e-05
-1.63324e-05
-1.74441e-05
-1.92379e-05
-2.19304e-05
-2.56977e-05
-3.09014e-05
-3.70717e-05
-4.42673e-05
-4.98325e-05
-5.46653e-05
-5.89751e-05
-6.30931e-05
-6.60448e-05
-6.8042e-05
-6.90518e-05
-6.91785e-05
-6.84206e-05
-6.66679e-05
-6.39492e-05
-6.0047e-05
-5.59152e-05
-5.12398e-05
-4.57684e-05
-3.86842e-05
-3.26026e-05
-2.75288e-05
-2.39792e-05
-2.1677e-05
-2.05324e-05
-2.03706e-05
-2.14746e-05
-1.63454e-05
-1.56853e-05
-1.56895e-05
-1.61849e-05
-1.72513e-05
-1.89798e-05
-2.16003e-05
-2.52946e-05
-3.05151e-05
-3.66238e-05
-4.42817e-05
-4.96916e-05
-5.42031e-05
-5.84344e-05
-6.24618e-05
-6.53953e-05
-6.73796e-05
-6.84e-05
-6.85403e-05
-6.77995e-05
-6.60849e-05
-6.34096e-05
-5.96125e-05
-5.55723e-05
-5.12066e-05
-4.58446e-05
-3.82852e-05
-3.2258e-05
-2.71591e-05
-2.36695e-05
-2.14182e-05
-2.03044e-05
-2.0134e-05
-2.11643e-05
-1.61179e-05
-1.55105e-05
-1.55097e-05
-1.59572e-05
-1.6927e-05
-1.84976e-05
-2.08888e-05
-2.42785e-05
-2.92324e-05
-3.48358e-05
-4.41168e-05
-4.91436e-05
-5.31729e-05
-5.71319e-05
-6.08294e-05
-6.36158e-05
-6.55039e-05
-6.65025e-05
-6.66623e-05
-6.5984e-05
-6.44026e-05
-6.19145e-05
-5.84706e-05
-5.47329e-05
-5.08509e-05
-4.57327e-05
-3.6556e-05
-3.10367e-05
-2.61993e-05
-2.29985e-05
-2.09498e-05
-1.99504e-05
-1.98064e-05
-2.07501e-05
-1.58567e-05
-1.53124e-05
-1.5311e-05
-1.57121e-05
-1.65837e-05
-1.79898e-05
-2.01251e-05
-2.31763e-05
-2.81089e-05
-3.40795e-05
-4.71501e-05
-4.74937e-05
-5.19445e-05
-5.63309e-05
-5.99433e-05
-6.26943e-05
-6.45409e-05
-6.55376e-05
-6.57251e-05
-6.51078e-05
-6.36251e-05
-6.12386e-05
-5.79171e-05
-5.37982e-05
-4.9402e-05
-4.86775e-05
-3.59505e-05
-3.00372e-05
-2.52014e-05
-2.23112e-05
-2.04783e-05
-1.95878e-05
-1.94548e-05
-2.0282e-05
-1.55764e-05
-1.50936e-05
-1.50773e-05
-1.5399e-05
-1.60966e-05
-1.71611e-05
-1.85856e-05
-2.00918e-05
-2.06619e-05
-1.32477e-05
-6.24168e-05
-5.36471e-05
-5.50824e-05
-5.76027e-05
-5.9786e-05
-6.13721e-05
-6.23118e-05
-6.25316e-05
-6.20422e-05
-6.0887e-05
-5.91546e-05
-5.69643e-05
-5.58974e-05
-6.47156e-05
-1.51448e-05
-2.27915e-05
-2.22773e-05
-2.08879e-05
-1.97133e-05
-1.91024e-05
-1.90526e-05
-1.97767e-05
-1.53062e-05
-1.48857e-05
-1.48767e-05
-1.51722e-05
-1.58179e-05
-1.68309e-05
-1.8283e-05
-2.01714e-05
-2.28582e-05
-2.72357e-05
-2.78782e-05
-4.43043e-05
-4.82269e-05
-5.24259e-05
-5.55505e-05
-5.82611e-05
-6.00827e-05
-6.11656e-05
-6.14274e-05
-6.08909e-05
-5.95962e-05
-5.74452e-05
-5.46464e-05
-5.08517e-05
-4.70332e-05
-3.16109e-05
-3.02302e-05
-2.55913e-05
-2.26571e-05
-2.07328e-05
-1.94364e-05
-1.8797e-05
-1.87079e-05
-1.93194e-05
-1.50577e-05
-1.469e-05
-1.46842e-05
-1.49495e-05
-1.55312e-05
-1.64552e-05
-1.77961e-05
-1.96671e-05
-2.22232e-05
-2.57956e-05
-3.17484e-05
-4.11079e-05
-4.47813e-05
-4.83247e-05
-5.1127e-05
-5.36756e-05
-5.54034e-05
-5.64517e-05
-5.67358e-05
-5.62918e-05
-5.51413e-05
-5.32101e-05
-5.06011e-05
-4.73065e-05
-4.38445e-05
-3.51305e-05
-2.88342e-05
-2.50879e-05
-2.22879e-05
-2.03301e-05
-1.90844e-05
-1.84706e-05
-1.83726e-05
-1.8905e-05
-1.48499e-05
-1.45317e-05
-1.45407e-05
-1.48002e-05
-1.53585e-05
-1.62511e-05
-1.75596e-05
-1.94145e-05
-2.20108e-05
-2.55919e-05
-3.04099e-05
-3.64736e-05
-4.01896e-05
-4.34418e-05
-4.61181e-05
-4.86326e-05
-5.03309e-05
-5.13598e-05
-5.1647e-05
-5.12314e-05
-5.01121e-05
-4.82407e-05
-4.56691e-05
-4.25426e-05
-3.91575e-05
-3.37551e-05
-2.87947e-05
-2.49985e-05
-2.21296e-05
-2.01458e-05
-1.88858e-05
-1.82499e-05
-1.81151e-05
-1.85708e-05
-1.46902e-05
-1.44179e-05
-1.44458e-05
-1.47054e-05
-1.52414e-05
-1.60885e-05
-1.73177e-05
-1.90457e-05
-2.14148e-05
-2.46296e-05
-2.85407e-05
-3.31177e-05
-3.6491e-05
-3.94677e-05
-4.20232e-05
-4.43818e-05
-4.59863e-05
-4.69546e-05
-4.72348e-05
-4.68656e-05
-4.58318e-05
-4.41231e-05
-4.17228e-05
-3.88957e-05
-3.58231e-05
-3.18173e-05
-2.78111e-05
-2.43948e-05
-2.1768e-05
-1.99078e-05
-1.87082e-05
-1.8082e-05
-1.79231e-05
-1.83127e-05
-1.4585e-05
-1.43624e-05
-1.44209e-05
-1.46959e-05
-1.5225e-05
-1.60381e-05
-1.71913e-05
-1.87715e-05
-2.08699e-05
-2.35969e-05
-2.68209e-05
-3.04893e-05
-3.36335e-05
-3.65821e-05
-3.9092e-05
-4.13005e-05
-4.28373e-05
-4.37469e-05
-4.40196e-05
-4.36866e-05
-4.27233e-05
-4.11547e-05
-3.89163e-05
-3.62761e-05
-3.33331e-05
-3.00054e-05
-2.6669e-05
-2.37608e-05
-2.14478e-05
-1.97595e-05
-1.86359e-05
-1.80177e-05
-1.78248e-05
-1.81406e-05
-1.45337e-05
-1.43704e-05
-1.44729e-05
-1.47787e-05
-1.53167e-05
-1.61124e-05
-1.72104e-05
-1.86731e-05
-2.05538e-05
-2.29099e-05
-2.56449e-05
-2.87111e-05
-3.16096e-05
-3.44149e-05
-3.67946e-05
-3.88177e-05
-4.0238e-05
-4.10928e-05
-4.13588e-05
-4.10602e-05
-4.01825e-05
-3.87434e-05
-3.67257e-05
-3.43158e-05
-3.1571e-05
-2.86803e-05
-2.58379e-05
-2.33357e-05
-2.12966e-05
-1.97602e-05
-1.86981e-05
-1.8072e-05
-1.78277e-05
-1.80534e-05
-1.45226e-05
-1.44272e-05
-1.45705e-05
-1.49131e-05
-1.54727e-05
-1.62733e-05
-1.73543e-05
-1.87645e-05
-2.05349e-05
-2.26887e-05
-2.51596e-05
-2.78858e-05
-3.05995e-05
-3.32365e-05
-3.55142e-05
-3.74083e-05
-3.87592e-05
-3.95751e-05
-3.98353e-05
-3.95534e-05
-3.87239e-05
-3.7365e-05