/*--------------------------------*- C++ -*----------------------------------*\
| =========                 |                                                 |
| \\      /  F ield         | OpenFOAM: The Open Source CFD Toolbox           |
|  \\    /   O peration     | Version:  2112                                  |
|   \\  /    A nd           | Website:  www.openfoam.com                      |
|    \\/     M anipulation  |                                                 |
\*---------------------------------------------------------------------------*/
FoamFile
{
    version     2.0;
    format      ascii;
    arch        "LSB;label=32;scalar=64";
    class       surfaceScalarField;
    location    "1.2";
    object      phi;
}
// * * * * * * * * * * * * * * * * * * * * * * * * * * * * * * * * * * * * * //

dimensions      [0 3 -1 0 0 0 0];

oriented        oriented;

internalField   nonuniform List<scalar> 
188215
(
1.16538e-09
2.82733e-09
-3.99271e-09
3.21909e-09
2.27406e-09
-4.32777e-09
5.46401e-09
1.91106e-09
-4.15598e-09
7.68405e-09
1.78779e-09
-4.00783e-09
9.82048e-09
1.90357e-09
-4.04e-09
1.18581e-08
2.1932e-09
-4.23084e-09
1.37781e-08
2.62198e-09
-4.54192e-09
1.55194e-08
3.20252e-09
-4.94382e-09
1.6995e-08
3.94433e-09
-5.41998e-09
1.80034e-08
4.93482e-09
-5.94318e-09
1.84078e-08
6.09764e-09
-6.50204e-09
1.7901e-08
7.56755e-09
-7.06073e-09
1.65906e-08
8.89815e-09
-7.58776e-09
1.44995e-08
1.01369e-08
-8.04592e-09
1.18021e-08
1.11297e-08
-8.43227e-09
8.62291e-09
1.19107e-08
-8.73147e-09
5.13079e-09
1.24334e-08
-8.94126e-09
1.48409e-09
1.27029e-08
-9.05619e-09
-2.15024e-09
1.27095e-08
-9.07513e-09
-5.60564e-09
1.24534e-08
-8.99796e-09
-8.72439e-09
1.19448e-08
-8.82608e-09
-1.13384e-08
1.11792e-08
-8.56514e-09
-1.33258e-08
1.02049e-08
-8.2175e-09
-1.45145e-08
8.98796e-09
-7.79924e-09
-1.48879e-08
7.68736e-09
-7.31397e-09
-1.434e-08
6.25362e-09
-6.80156e-09
-1.31865e-08
5.14332e-09
-6.29682e-09
-1.15583e-08
4.21577e-09
-5.84392e-09
-9.65528e-09
3.56595e-09
-5.469e-09
-7.56026e-09
3.13505e-09
-5.23007e-09
-5.34541e-09
2.97583e-09
-5.19067e-09
-3.09459e-09
3.15052e-09
-5.40133e-09
-1.04509e-09
3.62542e-09
-5.67493e-09
4.27819e-09
-5.32328e-09
2.79339e-10
7.39303e-09
-4.84505e-09
2.69069e-09
7.54932e-09
-7.68661e-09
5.47874e-09
7.59034e-09
-8.46734e-09
8.083e-09
7.91047e-09
-8.72695e-09
1.04754e-08
8.63944e-09
-9.12832e-09
1.2711e-08
9.74947e-09
-9.79187e-09
1.48182e-08
1.12291e-08
-1.07143e-08
1.67612e-08
1.31391e-08
-1.18796e-08
1.84539e-08
1.55297e-08
-1.32781e-08
1.96647e-08
1.86218e-08
-1.48978e-08
2.02105e-08
2.22503e-08
-1.66985e-08
1.96633e-08
2.67259e-08
-1.86112e-08
1.82014e-08
3.08078e-08
-2.04478e-08
1.58737e-08
3.45653e-08
-2.21006e-08
1.28923e-08
3.76048e-08
-2.34937e-08
9.39293e-09
3.99944e-08
-2.45844e-08
5.55804e-09
4.1609e-08
-2.53408e-08
1.55786e-09
4.24486e-08
-2.57455e-08
-2.42882e-09
4.24848e-08
-2.57887e-08
-6.2232e-09
4.17182e-08
-2.54704e-08
-9.65565e-09
4.01784e-08
-2.48011e-08
-1.25445e-08
3.78668e-08
-2.37988e-08
-1.47567e-08
3.49132e-08
-2.24961e-08
-1.60822e-08
3.12511e-08
-2.09376e-08
-1.64794e-08
2.72862e-08
-1.92016e-08
-1.57706e-08
2.29453e-08
-1.74004e-08
-1.43934e-08
1.9495e-08
-1.57288e-08
-1.25138e-08
1.66031e-08
-1.4267e-08
-1.03396e-08
1.44675e-08
-1.30758e-08
-7.90524e-09
1.29005e-08
-1.21998e-08
-5.19159e-09
1.19189e-08
-1.16567e-08
-2.2518e-09
1.15089e-08
-1.12982e-08
1.73121e-10
1.14753e-08
-1.02748e-08
1.10403e-08
-6.58904e-09
-1.29558e-10
1.2426e-08
-4.90337e-09
2.50794e-09
1.34391e-08
-8.52731e-09
5.75177e-09
1.40312e-08
-9.68465e-09
8.77615e-09
1.49976e-08
-1.01116e-08
1.15342e-08
1.65319e-08
-1.06505e-08
1.41235e-08
1.86524e-08
-1.14922e-08
1.66238e-08
2.13917e-08
-1.26629e-08
1.90371e-08
2.4889e-08
-1.41632e-08
2.12897e-08
2.92742e-08
-1.59971e-08
2.30542e-08
3.5023e-08
-1.81657e-08
2.40361e-08
4.18904e-08
-2.0622e-08
2.33825e-08
5.06406e-08
-2.32611e-08
2.15502e-08
5.84423e-08
-2.58022e-08
1.86615e-08
6.5533e-08
-2.80789e-08
1.5056e-08
7.11996e-08
-2.99893e-08
1.08739e-08
7.56511e-08
-3.14747e-08
6.327e-09
7.86552e-08
-3.24992e-08
1.59856e-09
8.02202e-08
-3.30432e-08
-3.11557e-09
8.02928e-08
-3.30939e-08
-7.61934e-09
7.88735e-08
-3.26516e-08
-1.17294e-08
7.60176e-08
-3.17291e-08
-1.52337e-08
7.17181e-08
-3.0347e-08
-1.79939e-08
6.62152e-08
-2.85418e-08
-1.96706e-08
5.93024e-08
-2.63746e-08
-2.01504e-08
5.17162e-08
-2.39501e-08
-1.89738e-08
4.321e-08
-2.14413e-08
-1.70116e-08
3.66691e-08
-1.91364e-08
-1.45226e-08
3.12687e-08
-1.71546e-08
-1.17906e-08
2.73013e-08
-1.55657e-08
-8.80666e-09
2.43168e-08
-1.44003e-08
-5.49685e-09
2.22452e-08
-1.36361e-08
-1.91776e-09
2.09637e-08
-1.30339e-08
9.28097e-10
2.01707e-08
-1.15413e-08
1.8675e-08
-6.70658e-09
-1.96047e-10
1.74089e-08
-4.78685e-09
2.84634e-09
1.90672e-08
-8.67048e-09
6.65054e-09
2.01642e-08
-9.93721e-09
1.02479e-08
2.17919e-08
-1.03916e-08
1.35748e-08
2.41809e-08
-1.0976e-08
1.67728e-08
2.73729e-08
-1.19184e-08
1.99931e-08
3.1437e-08
-1.32657e-08
2.33145e-08
3.66084e-08
-1.50408e-08
2.67031e-08
4.31542e-08
-1.72686e-08
2.96709e-08
5.20333e-08
-1.99781e-08
3.16367e-08
6.30376e-08
-2.3113e-08
3.07113e-08
7.81244e-08
-2.65583e-08
2.80606e-08
9.09567e-08
-2.98637e-08
2.4027e-08
1.02367e-07
-3.28008e-08
1.9202e-08
1.1127e-07
-3.52458e-08
1.37053e-08
1.18266e-07
-3.71184e-08
7.79278e-09
1.22967e-07
-3.83993e-08
1.66909e-09
1.25417e-07
-3.90728e-08
-4.43956e-09
1.25528e-07
-3.91261e-08
-1.03062e-08
1.23299e-07
-3.85592e-08
-1.57253e-08
1.18821e-07
-3.73847e-08
-2.04378e-08
1.1205e-07
-3.5619e-08
-2.43239e-08
1.03383e-07
-3.32814e-08
-2.67883e-08
9.22215e-08
-3.04548e-08
-2.74997e-08
7.96931e-08
-2.72655e-08
-2.52843e-08
6.49454e-08
-2.39508e-08
-2.20763e-08
5.4431e-08
-2.09699e-08
-1.83904e-08
4.60391e-08
-1.84563e-08
-1.46546e-08
4.00576e-08
-1.64922e-08
-1.07988e-08
3.55473e-08
-1.50862e-08
-6.67587e-09
3.23132e-08
-1.41909e-08
-2.33855e-09
3.01394e-08
-1.3513e-08
1.04032e-09
2.86599e-08
-1.18681e-08
2.63627e-08
-6.64731e-09
3.49589e-11
2.21135e-08
-4.73956e-09
3.67819e-09
2.43265e-08
-8.90253e-09
8.23484e-09
2.58717e-08
-1.02641e-08
1.26048e-08
2.81677e-08
-1.07457e-08
1.6726e-08
3.14673e-08
-1.14075e-08
2.08085e-08
3.58089e-08
-1.25185e-08
2.51217e-08
4.12771e-08
-1.41533e-08
2.99201e-08
4.81885e-08
-1.63784e-08
3.53087e-08
5.70171e-08
-1.92515e-08
4.06262e-08
6.95757e-08
-2.28599e-08
4.46586e-08
8.61231e-08
-2.71179e-08
4.30541e-08
1.11718e-07
-3.19891e-08
3.8755e-08
1.31869e-07
-3.66132e-08
3.26858e-08
1.49145e-07
-4.07088e-08
2.58514e-08
1.62206e-07
-4.41016e-08
1.82345e-08
1.72513e-07
-4.66297e-08
1.01341e-08
1.7941e-07
-4.83429e-08
1.77798e-09
1.83007e-07
-4.92342e-08
-6.56282e-09
1.8316e-07
-4.9292e-08
-1.4616e-08
1.79869e-07
-4.8516e-08
-2.2151e-08
1.73273e-07
-4.69168e-08
-2.88616e-08
1.63262e-07
-4.45019e-08
-3.47607e-08
1.50501e-07
-4.12196e-08
-3.88308e-08
1.33527e-07
-3.72351e-08
-4.01602e-08
1.13747e-07
-3.27244e-08
-3.57891e-08
8.85559e-08
-2.79815e-08
-3.01865e-08
7.27075e-08
-2.38791e-08
-2.44379e-08
6.07667e-08
-2.04761e-08
-1.91241e-08
5.2632e-08
-1.78883e-08
-1.40134e-08
4.65132e-08
-1.60766e-08
-8.78568e-09
4.2047e-08
-1.49616e-08
-3.4311e-09
3.89619e-08
-1.41771e-08
7.35018e-10
3.68496e-08
-1.23558e-08
3.38383e-08
-6.74065e-09
3.82259e-10
2.64838e-08
-4.7526e-09
4.93209e-09
2.9148e-08
-9.37129e-09
1.05023e-08
3.11643e-08
-1.08628e-08
1.58874e-08
3.41913e-08
-1.14087e-08
2.10441e-08
3.85211e-08
-1.22105e-08
2.62808e-08
4.41666e-08
-1.35944e-08
3.20529e-08
5.11845e-08
-1.56796e-08
3.89904e-08
5.98577e-08
-1.86067e-08
4.76103e-08
7.08638e-08
-2.24666e-08
5.73871e-08
8.72301e-08
-2.74312e-08
6.5806e-08
1.10918e-07
-3.32139e-08
6.25589e-08
1.55286e-07
-4.03211e-08
5.50664e-08
1.86391e-07
-4.70299e-08
4.56146e-08
2.11658e-07
-5.30604e-08
3.57388e-08
2.30156e-07
-5.80736e-08
2.49648e-08
2.44908e-07
-6.16214e-08
1.36087e-08
2.54767e-07
-6.40006e-08
1.92863e-09
2.59913e-07
-6.52264e-08
-9.73734e-09
2.60119e-07
-6.52931e-08
-2.10487e-08
2.5538e-07
-6.42001e-08
-3.17433e-08
2.45919e-07
-6.19506e-08
-4.14917e-08
2.3154e-07
-5.85295e-08
-5.07556e-08
2.134e-07
-5.36351e-08
-5.79694e-08
1.8846e-07
-4.77191e-08
-6.08525e-08
1.57751e-07
-4.11214e-08
-5.19422e-08
1.13781e-07
-3.41354e-08
-4.18515e-08
9.11275e-08
-2.85107e-08
-3.28186e-08
7.54972e-08
-2.37634e-08
-2.52546e-08
6.52844e-08
-2.02164e-08
-1.84887e-08
5.75052e-08
-1.77579e-08
-1.18215e-08
5.16566e-08
-1.62767e-08
-5.11301e-09
4.75464e-08
-1.52929e-08
1.28677e-10
4.4788e-08
-1.31801e-08
4.09655e-08
-6.99846e-09
9.15936e-10
3.03872e-08
-4.81934e-09
6.62441e-09
3.3472e-08
-1.00325e-08
1.35041e-08
3.60063e-08
-1.17217e-08
2.01903e-08
3.98822e-08
-1.23771e-08
2.66481e-08
4.54486e-08
-1.33854e-08
3.32922e-08
5.26767e-08
-1.51542e-08
4.0824e-08
6.15211e-08
-1.78683e-08
5.05658e-08
7.18968e-08
-2.17809e-08
6.40278e-08
8.43932e-08
-2.69915e-08
8.18568e-08
1.03078e-07
-3.36764e-08
9.99398e-08
1.33842e-07
-4.10071e-08
9.25031e-08
2.13797e-07
-5.10738e-08
7.87868e-08
2.60582e-07
-6.04748e-08
6.39492e-08
2.95893e-07
-6.93981e-08
4.97337e-08
3.21336e-07
-7.69653e-08
3.45083e-08
3.41939e-07
-8.18051e-08
1.85368e-08
3.55781e-07
-8.50422e-08
2.12969e-09
3.63019e-07
-8.66985e-08
-1.4267e-08
3.63295e-07
-8.67795e-08
-3.02043e-08
3.56602e-07
-8.52845e-08
-4.53676e-08
3.43285e-07
-8.22029e-08
-5.9473e-08
3.23158e-07
-7.75128e-08
-7.41275e-08
2.98133e-07
-7.00781e-08
-8.75207e-08
2.63129e-07
-6.12765e-08
-9.447e-08
2.16685e-07
-5.19848e-08
-7.56049e-08
1.3694e-07
-4.20238e-08
-5.75002e-08
1.07879e-07
-3.4856e-08
-4.36091e-08
9.0003e-08
-2.83969e-08
-3.31167e-08
7.83234e-08
-2.35314e-08
-2.43368e-08
6.88779e-08
-2.01526e-08
-1.5869e-08
6.13313e-08
-1.81426e-08
-7.37225e-09
5.59116e-08
-1.6862e-08
-5.07738e-10
5.23053e-08
-1.43818e-08
4.77395e-08
-7.28178e-09
1.64507e-09
3.36518e-08
-4.9097e-09
8.82973e-09
3.71345e-08
-1.08472e-08
1.73913e-08
4.02448e-08
-1.28001e-08
2.57534e-08
4.51257e-08
-1.36057e-08
3.38423e-08
5.22441e-08
-1.48843e-08
4.20842e-08
6.15853e-08
-1.71505e-08
5.12953e-08
7.29855e-08
-2.06754e-08
6.36598e-08
8.54038e-08
-2.58715e-08
8.24876e-08
9.82661e-08
-3.27006e-08
1.13967e-07
1.1314e-07
-4.15417e-08
1.53568e-07
1.41888e-07
-4.76474e-08
1.36415e-07
2.90401e-07
-5.94507e-08
1.12111e-07
3.56973e-07
-7.20868e-08
8.96935e-08
4.03584e-07
-8.52726e-08
6.9667e-08
4.37976e-07
-9.6613e-08
4.82343e-08
4.66068e-07
-1.02697e-07
2.56365e-08
4.85145e-07
-1.06767e-07
2.39886e-09
4.95101e-07
-1.08844e-07
-2.08353e-08
4.95473e-07
-1.08943e-07
-4.3421e-08
4.8625e-07
-1.07063e-07
-6.48344e-08
4.67879e-07
-1.03181e-07
-8.48133e-08
4.40414e-07
-9.72775e-08
-1.07121e-07
4.0653e-07
-8.60888e-08
-1.31128e-07
3.60174e-07
-7.30381e-08
-1.47628e-07
2.93718e-07
-6.05328e-08
-1.06644e-07
1.44742e-07
-4.87863e-08
-7.51313e-08
1.192e-07
-4.28342e-08
-5.58987e-08
1.05e-07
-3.42301e-08
-4.26281e-08
9.28451e-08
-2.77923e-08
-3.18323e-08
8.1291e-08
-2.32089e-08
-2.12376e-08
7.12445e-08
-2.05079e-08
-1.04438e-08
6.39504e-08
-1.88325e-08
-1.45736e-09
5.91907e-08
-1.58719e-08
5.3859e-08
-7.57686e-09
2.57537e-09
3.60821e-08
-5.00563e-09
1.15906e-08
3.99155e-08
-1.17962e-08
2.22691e-08
4.36421e-08
-1.40758e-08
3.2786e-08
4.96772e-08
-1.50684e-08
4.29755e-08
5.8727e-08
-1.66724e-08
5.30841e-08
7.09964e-08
-1.95197e-08
6.36248e-08
8.64217e-08
-2.3977e-08
7.72227e-08
1.02409e-07
-3.06033e-08
9.95364e-08
1.1554e-07
-3.95877e-08
1.48711e-07
1.13522e-07
-4.95565e-08
2.34401e-07
1.14252e-07
-5.80536e-08
1.9442e-07
3.91208e-07
-6.08266e-08
1.53899e-07
4.71526e-07
-7.40314e-08
1.22892e-07
5.26804e-07
-9.22135e-08
9.59291e-08
5.72855e-07
-1.07916e-07
6.6586e-08
6.09874e-07
-1.14462e-07
3.51945e-08
6.3573e-07
-1.19194e-07
2.76506e-09
6.49108e-07
-1.21578e-07
-2.96714e-08
6.496e-07
-1.2169e-07
-6.10868e-08
6.37196e-07
-1.19531e-07
-9.04871e-08
6.12289e-07
-1.15009e-07
-1.17538e-07
5.76133e-07
-1.08667e-07
-1.48646e-07
5.30763e-07
-9.3125e-08
-1.89075e-07
4.75704e-07
-7.51009e-08
-2.28237e-07
3.94932e-07
-6.20524e-08
-1.40019e-07
1.16062e-07
-5.95388e-08
-9.15396e-08
1.21727e-07
-5.10056e-08
-6.8838e-08
1.2354e-07
-4.12412e-08
-5.41114e-08
1.10838e-07
-3.27199e-08
-4.15184e-08
9.55011e-08
-2.68031e-08
-2.8348e-08
8.13913e-08
-2.33172e-08
-1.45683e-08
7.13551e-08
-2.11845e-08
-2.81389e-09
6.50554e-08
-1.76191e-08
5.89217e-08
-7.87659e-09
3.77837e-09
3.73894e-08
-5.0857e-09
1.50888e-08
4.1468e-08
-1.2863e-08
2.85355e-08
4.57242e-08
-1.55287e-08
4.21013e-08
5.28541e-08
-1.67426e-08
5.55705e-08
6.39797e-08
-1.87219e-08
6.87068e-08
8.00643e-08
-2.22041e-08
8.05535e-08
1.02133e-07
-2.75578e-08
9.00753e-08
1.28766e-07
-3.58781e-08
9.79247e-08
1.53603e-07
-4.59125e-08
1.38062e-07
1.34169e-07
-6.07842e-08
3.36052e-07
-8.37385e-08
2.60061e-07
5.10534e-07
-4.33345e-08
2.07788e-07
5.7502e-07
-5.12207e-08
1.70984e-07
6.32952e-07
-6.93448e-08
1.35629e-07
6.93906e-07
-8.56963e-08
9.43544e-08
7.40733e-07
-8.95845e-08
4.95061e-08
7.73712e-07
-9.31335e-08
3.26446e-09
7.90337e-07
-9.49871e-08
-4.29914e-08
7.9094e-07
-9.50845e-08
-8.78931e-08
7.75523e-07
-9.34258e-08
-1.29309e-07
7.43753e-07
-9.00486e-08
-1.64941e-07
6.98114e-07
-8.63503e-08
-2.02309e-07
6.38262e-07
-7.01312e-08
-2.55445e-07
5.80998e-07
-5.21578e-08
-3.31249e-07
5.15384e-07
-4.46473e-08
-1.29154e-07
-8.60327e-08
-8.90103e-08
1.43566e-07
-6.19832e-08
-8.13712e-08
1.63441e-07
-4.75396e-08
-7.03916e-08
1.3804e-07
-3.81815e-08
-5.58472e-08
1.11675e-07
-3.07181e-08
-3.8752e-08
9.08247e-08
-2.65286e-08
-2.05594e-08
7.7085e-08
-2.39225e-08
-4.8935e-09
6.90206e-08
-1.96311e-08
6.21455e-08
-8.11726e-09
5.14667e-09
3.74083e-08
-5.16551e-09
1.90768e-08
4.15714e-08
-1.40335e-08
3.57925e-08
4.61562e-08
-1.71476e-08
5.32332e-08
5.40483e-08
-1.86349e-08
7.14534e-08
6.68251e-08
-2.10656e-08
9.01538e-08
8.65247e-08
-2.51609e-08
1.06592e-07
1.16848e-07
-3.11533e-08
1.11519e-07
1.62321e-07
-3.84814e-08
8.9271e-08
2.28678e-07
-5.2827e-08
3.07105e-07
-8.36656e-08
1.65462e-07
2.88101e-07
5.69706e-08
2.23952e-07
4.92246e-07
2.42839e-08
2.20769e-07
6.1705e-07
1.90857e-08
1.8194e-07
7.10878e-07
2.18567e-08
1.27581e-07
7.74709e-07
2.03829e-08
6.6983e-08
8.15667e-07
1.86427e-08
3.93244e-09
8.3547e-07
1.79175e-08
-5.91378e-08
8.36093e-07
1.79176e-08
-1.19811e-07
8.17555e-07
1.86417e-08
-1.74374e-07
7.77926e-07
2.039e-08
-2.13685e-07
7.1556e-07
2.1866e-08
-2.18036e-07
6.23464e-07
1.91481e-08
-1.61883e-07
5.00734e-07
2.4111e-08
2.97534e-07
5.59672e-08
-8.6402e-08
3.12446e-07
-8.24779e-08
-1.05137e-07
2.36303e-07
-5.41272e-08
-9.67831e-08
1.70644e-07
-4.0958e-08
-7.63696e-08
1.25965e-07
-3.47041e-08
-5.24946e-08
9.70732e-08
-3.01235e-08
-2.81498e-08
7.98539e-08
-2.71137e-08
-7.50203e-09
7.03314e-08
-2.19586e-08
6.30194e-08
-8.37599e-09
6.7815e-09
3.58602e-08
-5.23346e-09
2.37943e-08
3.982e-08
-1.52614e-08
4.46975e-08
4.41048e-08
-1.88519e-08
6.8013e-08
5.13867e-08
-2.06538e-08
9.55751e-08
6.29143e-08
-2.36514e-08
1.30765e-07
8.00315e-08
-2.86963e-08
1.78953e-07
1.04662e-07
-3.60027e-08
2.47445e-07
1.37743e-07
-4.39144e-08
3.49247e-07
1.76576e-07
-4.97001e-08
4.90497e-07
2.07789e-07
-4.19339e-08
3.79869e-07
8.07155e-08
2.99129e-08
4.0712e-07
2.17315e-07
4.35352e-08
3.9913e-07
3.75264e-07
1.24972e-07
3.44845e-07
4.84093e-07
1.87242e-07
2.65191e-07
5.67016e-07
2.23517e-07
1.78588e-07
6.23398e-07
2.37914e-07
9.1439e-08
6.5927e-07
2.43546e-07
4.63341e-09
6.76637e-07
2.45639e-07
-8.21576e-08
6.77173e-07
2.4571e-07
-1.69261e-07
6.60892e-07
2.43766e-07
-2.55789e-07
6.26147e-07
2.38307e-07
-3.35326e-07
5.70963e-07
2.24133e-07
-3.89478e-07
4.8933e-07
1.88286e-07
-3.9691e-07
3.81648e-07
1.26518e-07
-3.69978e-07
2.24477e-07
4.61248e-08
-4.85502e-07
8.30923e-08
3.24319e-08
-3.43963e-07
2.12449e-07
-4.15409e-08
-2.39907e-07
1.83128e-07
-5.08806e-08
-1.68249e-07
1.45307e-07
-4.63215e-08
-1.15636e-07
1.13233e-07
-3.98808e-08
-7.43132e-08
9.01185e-08
-3.4368e-08
-3.92076e-08
7.54611e-08
-3.07128e-08
-1.13767e-08
6.70731e-08
-2.45725e-08
6.02604e-08
-8.61765e-09
8.18537e-09
3.29843e-08
-5.30949e-09
2.78812e-08
3.65568e-08
-1.64327e-08
5.22079e-08
4.02727e-08
-2.04945e-08
7.97712e-08
4.64436e-08
-2.26203e-08
1.12976e-07
5.58933e-08
-2.61839e-08
1.55997e-07
6.92231e-08
-3.22127e-08
2.14778e-07
8.68746e-08
-4.09931e-08
2.95668e-07
1.08237e-07
-5.1384e-08
4.03111e-07
1.29041e-07
-5.99079e-08
5.26477e-07
1.4282e-07
-5.83975e-08
5.36746e-07
1.04452e-07
-3.40043e-08
5.5805e-07
1.81593e-07
1.44178e-08
5.154e-07
2.77172e-07
1.40742e-07
4.28873e-07
3.51376e-07
2.19244e-07
3.23963e-07
4.10671e-07
2.61255e-07
2.15835e-07
4.51781e-07
2.79745e-07
1.09601e-07
4.78491e-07
2.87013e-07
5.17478e-09
4.91543e-07
2.8952e-07
-9.92257e-08
4.91988e-07
2.89586e-07
-2.05379e-07
4.79828e-07
2.87217e-07
-3.13369e-07
4.54021e-07
2.80117e-07
-4.18086e-07
4.13818e-07
2.61862e-07
-5.04486e-07
3.55418e-07
2.20312e-07
-5.47163e-07
2.81925e-07
1.42401e-07
-5.26753e-07
1.86847e-07
1.72191e-08
-5.19368e-07
1.07901e-07
-3.21935e-08
-3.96468e-07
1.47596e-07
-5.80469e-08
-2.87266e-07
1.3492e-07
-6.09947e-08
-2.03158e-07
1.15059e-07
-5.38599e-08
-1.39463e-07
9.47268e-08
-4.51886e-08
-8.94018e-08
7.85651e-08
-3.85077e-08
-4.73535e-08
6.75244e-08
-3.41116e-08
-1.41762e-08
6.08862e-08
-2.69905e-08
5.49678e-08
-8.88359e-09
9.4233e-09
2.89383e-08
-5.3773e-09
3.14656e-08
3.19889e-08
-1.74744e-08
5.87073e-08
3.49752e-08
-2.19442e-08
8.96752e-08
3.98079e-08
-2.43322e-08
1.26936e-07
4.69845e-08
-2.83518e-08
1.7468e-07
5.66854e-08
-3.5207e-08
2.38142e-07
6.87765e-08
-4.53637e-08
3.22077e-07
8.26527e-08
-5.83499e-08
4.26809e-07
9.53256e-08
-7.10173e-08
5.40503e-07
1.05782e-07
-7.66564e-08
6.03309e-07
1.01194e-07
-5.95485e-08
6.42171e-07
1.45105e-07
-2.37348e-09
5.90196e-07
2.01007e-07
1.28139e-07
4.88256e-07
2.48491e-07
2.04825e-07
3.66283e-07
2.88023e-07
2.44621e-07
2.42924e-07
3.16097e-07
2.59044e-07
1.22969e-07
3.34801e-07
2.63645e-07
5.62238e-09
3.44078e-07
2.64812e-07
-1.11694e-07
3.44454e-07
2.64851e-07
-2.31558e-07
3.35925e-07
2.63767e-07
-3.54769e-07
3.17955e-07
2.59277e-07
-4.76566e-07
2.90583e-07
2.45032e-07
-5.78498e-07
2.51703e-07
2.05646e-07
-6.30771e-07
2.04693e-07
1.29504e-07
-5.93833e-07
1.49013e-07
8.96949e-10
-5.32735e-07
1.0481e-07
-5.80072e-08
-4.19189e-07
1.10228e-07
-7.61785e-08
-3.12771e-07
1.00529e-07
-7.2026e-08
-2.255e-07
8.8669e-08
-6.08818e-08
-1.56702e-07
7.5748e-08
-4.98193e-08
-1.0114e-07
6.50086e-08
-4.20049e-08
-5.39363e-08
5.72953e-08
-3.69748e-08
-1.64702e-08
5.24576e-08
-2.90375e-08
4.75959e-08
-9.09827e-09
1.03536e-08
2.40423e-08
-5.45754e-09
3.42021e-08
2.65009e-08
-1.83604e-08
6.35856e-08
2.87596e-08
-2.31679e-08
9.68293e-08
3.233e-08
-2.57657e-08
1.36443e-07
3.75117e-08
-3.01411e-08
1.86445e-07
4.43108e-08
-3.76274e-08
2.51548e-07
5.24777e-08
-4.88035e-08
3.36039e-07
6.16702e-08
-6.35084e-08
4.3964e-07
7.03239e-08
-7.85996e-08
5.53269e-07
7.94409e-08
-8.7288e-08
6.40619e-07
8.51852e-08
-7.13411e-08
6.91242e-07
1.11981e-07
-1.7499e-08
6.35221e-07
1.45805e-07
1.11223e-07
5.25342e-07
1.76007e-07
1.82363e-07
3.93814e-07
2.01905e-07
2.17645e-07
2.61124e-07
2.20877e-07
2.2791e-07
1.32134e-07
2.33762e-07
2.30029e-07
5.99202e-09
2.40266e-07
2.29954e-07
-1.20126e-07
2.40603e-07
2.29968e-07
-2.49042e-07
2.34765e-07
2.30076e-07
-3.81619e-07
2.22516e-07
2.28016e-07
-5.13038e-07
2.04127e-07
2.17874e-07
-6.23034e-07
1.78742e-07
1.82958e-07
-6.79646e-07
1.48921e-07
1.12385e-07
-6.30962e-07
1.15397e-07
-1.50686e-08
-5.44917e-07
8.86293e-08
-6.98647e-08
-4.31267e-07
8.34231e-08
-8.68449e-08
-3.25932e-07
7.48456e-08
-7.9652e-08
-2.37944e-07
6.68376e-08
-6.61561e-08
-1.67138e-07
5.84423e-08
-5.35006e-08
-1.0869e-07
5.13946e-08
-4.4834e-08
-5.82813e-08
4.61919e-08
-3.93052e-08
-1.79216e-08
4.28174e-08
-3.07195e-08
3.9024e-08
-9.34969e-09
1.1043e-08
1.85373e-08
-5.53812e-09
3.62467e-08
2.03688e-08
-1.90716e-08
6.72021e-08
2.19413e-08
-2.4137e-08
1.02038e-07
2.43808e-08
-2.68864e-08
1.43186e-07
2.78783e-08
-3.1515e-08
1.94532e-07
3.24089e-08
-3.94439e-08
2.60527e-07
3.78007e-08
-5.13184e-08
3.45377e-07
4.39442e-08
-6.71233e-08
4.49213e-07
5.01753e-08
-8.36879e-08
5.65216e-07
5.75803e-08
-9.41424e-08
6.64325e-07
6.49614e-08
-7.88851e-08
7.21339e-07
8.18407e-08
-2.6874e-08
6.64118e-07
1.0269e-07
1.00337e-07
5.50014e-07
1.21876e-07
1.68235e-07
4.12554e-07
1.38601e-07
2.00764e-07
2.73737e-07
1.5116e-07
2.08535e-07
1.38586e-07
1.59808e-07
2.09105e-07
6.32568e-09
1.64263e-07
2.08263e-07
-1.2592e-07
1.64585e-07
2.08264e-07
-2.61028e-07
1.6076e-07
2.09112e-07
-3.99784e-07
1.52699e-07
2.08573e-07
-5.3721e-07
1.4066e-07
2.00893e-07
-6.51537e-07
1.24365e-07
1.68703e-07
-7.09468e-07
1.0549e-07
1.01362e-07
-6.54454e-07
8.48773e-08
-2.44947e-08
-5.5643e-07
6.81038e-08
-7.74986e-08
-4.40296e-07
6.10518e-08
-9.37626e-08
-3.34629e-07
5.39995e-08
-8.48208e-08
-2.46118e-07
4.82219e-08
-6.98959e-08
-1.74114e-07
4.26622e-08
-5.62234e-08
-1.13837e-07
3.80916e-08
-4.69737e-08
-6.12656e-08
3.47135e-08
-4.10933e-08
-1.88966e-08
3.24803e-08
-3.20318e-08
2.97127e-08
-9.58537e-09
1.14972e-08
1.26615e-08
-5.62136e-09
3.76241e-08
1.38497e-08
-1.96079e-08
6.96341e-08
1.47869e-08
-2.48556e-08
1.05504e-07
1.6218e-08
-2.77073e-08
1.47616e-07
1.82691e-08
-3.25025e-08
1.99801e-07
2.09387e-08
-4.0715e-08
2.66453e-07
2.41693e-08
-5.30207e-08
3.51874e-07
2.79804e-08
-6.94566e-08
4.56674e-07
3.21936e-08
-8.68189e-08
5.74928e-07
3.74755e-08
-9.81489e-08
6.79773e-07
4.35067e-08
-8.33901e-08
7.40265e-07
5.3604e-08
-3.22551e-08
6.82464e-07
6.565e-08
9.48402e-08
5.6591e-07
7.68849e-08
1.61546e-07
4.2486e-07
8.67156e-08
1.92936e-07
2.82162e-07
9.42589e-08
1.99599e-07
1.42977e-07
9.95193e-08
1.99474e-07
6.64164e-09
1.02316e-07
1.98283e-07
-1.29694e-07
1.02641e-07
1.98279e-07
-2.68877e-07
1.00478e-07
1.99465e-07
-4.11582e-07
9.57952e-08
1.9961e-07
-5.52688e-07
8.87423e-08
1.93024e-07
-6.69565e-07
7.92847e-08
1.61957e-07
-7.28163e-07
6.82945e-08
9.5794e-08
-6.69711e-07
5.63829e-08
-2.9957e-08
-5.6585e-07
4.63339e-08
-8.20909e-08
-4.47389e-07
4.04453e-08
-9.78545e-08
-3.4067e-07
3.53304e-08
-8.80502e-08
-2.51452e-07
3.13583e-08
-7.23547e-08
-1.78565e-07
2.78791e-08
-5.81035e-08
-1.17106e-07
2.51312e-08
-4.84983e-08
-6.31425e-08
2.3143e-08
-4.23935e-08
-1.94767e-08
2.18224e-08
-3.30079e-08
2.00458e-08
-9.80979e-09
1.1755e-08
6.60677e-09
-5.7003e-09
3.84274e-08
7.14519e-09
-1.99678e-08
7.10634e-08
7.47594e-09
-2.53251e-08
1.07552e-07
7.96414e-09
-2.82351e-08
1.50259e-07
8.68707e-09
-3.31244e-08
2.03009e-07
9.68342e-09
-4.14952e-08
2.70208e-07
1.10084e-08
-5.4038e-08
3.5624e-07
1.27543e-08
-7.08063e-08
4.61975e-07
1.50332e-08
-8.85742e-08
5.81754e-07
1.80184e-08
-1.00322e-07
6.89291e-07
2.17572e-08
-8.5788e-08
7.51439e-07
2.63143e-08
-3.48581e-08
6.9332e-07
3.11652e-08
9.26043e-08
5.75383e-07
3.56908e-08
1.59131e-07
4.32289e-07
3.95812e-08
1.90228e-07
2.8732e-07
4.26909e-08
1.96537e-07
1.4574e-07
4.49241e-08
1.96175e-07
6.96015e-09
4.62348e-08
1.94861e-07
-1.31838e-07
4.65835e-08
1.94856e-07
-2.7347e-07
4.59487e-08
1.96161e-07
-4.18533e-07
4.43193e-08
1.96538e-07
-5.61795e-07
4.17038e-08
1.90301e-07
-6.80174e-07
3.81499e-08
1.59515e-07
-7.39195e-07
3.37999e-08
9.35149e-08
-6.79137e-07
2.89568e-08
-3.26313e-08
-5.72546e-07
2.43174e-08
-8.45752e-08
-4.52512e-07
2.05313e-08
-1.0012e-07
-3.44794e-07
1.75185e-08
-8.99066e-08
-2.54869e-07
1.52544e-08
-7.38205e-08
-1.81291e-07
1.35666e-08
-5.92659e-08
-1.19056e-07
1.2363e-08
-4.94669e-08
-6.4239e-08
1.15637e-08
-4.32375e-08
-1.98021e-08
1.10454e-08
-3.36598e-08
1.02399e-08
-9.99628e-09
1.18282e-08
5.52972e-10
-5.77445e-09
3.86875e-08
4.40056e-10
-2.01542e-08
7.15497e-08
1.64848e-10
-2.55511e-08
1.08284e-07
-2.90153e-10
-2.848e-08
1.51268e-07
-8.97372e-10
-3.33992e-08
2.04353e-07
-1.58163e-09
-4.18202e-08
2.71976e-07
-2.17702e-09
-5.44374e-08
3.58552e-07
-2.51595e-09
-7.13063e-08
4.64963e-07
-2.18334e-09
-8.9194e-08
5.85487e-07
-1.44514e-09
-1.01061e-07
6.93697e-07
1.3535e-10
-8.65877e-08
7.5612e-07
-4.91512e-10
-3.5618e-08
6.97752e-07
-2.65499e-09
9.21887e-08
5.79223e-07
-4.70505e-09
1.58924e-07
4.35362e-07
-6.67516e-09
1.90117e-07
2.89531e-07
-7.9335e-09
1.96456e-07
1.47034e-07
-8.6775e-09
1.96098e-07
7.29981e-09
-8.8143e-09
1.94783e-07
-1.32476e-07
-8.41781e-09
1.94777e-07
-2.75094e-07
-7.51318e-09
1.9608e-07
-4.21129e-07
-6.09276e-09
1.96447e-07
-5.65305e-07
-4.2938e-09
1.90173e-07
-6.84435e-07
-1.99844e-09
1.59278e-07
-7.43847e-07
1.61514e-10
9.30502e-08
-6.8359e-07
2.17871e-09
-3.34786e-08
-5.76326e-07
2.52976e-09
-8.54767e-08
-4.55519e-07
6.89153e-10
-1.00965e-07
-3.47089e-07
-2.76627e-10
-9.06345e-08
-2.56576e-07
-8.28523e-10
-7.44304e-08
-1.82512e-07
-7.15907e-10
-5.97819e-08
-1.19856e-07
-3.70553e-10
-4.99217e-08
-6.4659e-08
1.87153e-11
-4.36523e-08
-1.99129e-08
3.01693e-10
-3.40024e-08
4.69352e-10
-1.01424e-08
1.17186e-08
-5.32235e-09
-5.84325e-09
3.8406e-08
-6.07934e-09
-2.0168e-08
7.10938e-08
-6.98732e-09
-2.55356e-08
1.07696e-07
-8.44743e-09
-2.84454e-08
1.50635e-07
-1.05041e-08
-3.33323e-08
2.0382e-07
-1.30675e-08
-4.16986e-08
2.71743e-07
-1.58679e-08
-5.42327e-08
3.58813e-07
-1.86071e-08
-7.09785e-08
4.65694e-07
-2.03525e-08
-8.87117e-08
5.86279e-07
-2.16154e-08
-1.00415e-07
6.93244e-07
-2.09656e-08
-8.58645e-08
7.54502e-07
-2.70804e-08
-3.46689e-08
6.95888e-07
-3.74554e-08
9.34144e-08
5.77514e-07
-4.70353e-08
1.60704e-07
4.34141e-07
-5.56517e-08
1.92349e-07
2.88843e-07
-6.17136e-08
1.99079e-07
1.46895e-07
-6.56822e-08
1.98952e-07
7.68485e-09
-6.73516e-08
1.97747e-07
-1.31595e-07
-6.68733e-08
1.97735e-07
-2.73751e-07
-6.42739e-08
1.98917e-07
-4.19396e-07
-5.94875e-08
1.99039e-07
-5.63279e-07
-5.27689e-08
1.92358e-07
-6.82471e-07
-4.37932e-08
1.60987e-07
-7.42345e-07
-3.41418e-08
9.41776e-08
-6.83367e-07
-2.4134e-08
-3.26652e-08
-5.77353e-07
-1.85904e-08
-8.48942e-08
-4.56484e-07
-1.97125e-08
-1.00467e-07
-3.47574e-07
-1.8901e-08
-9.0286e-08
-2.5657e-07
-1.76134e-08
-7.42188e-08
-1.82225e-07
-1.53868e-08
-5.96735e-08
-1.19509e-07
-1.321e-08
-4.9877e-08
-6.4405e-08
-1.14376e-08
-4.36477e-08
-1.98109e-08
-1.02504e-08
-3.4042e-08
-9.0929e-09
-1.02487e-08
1.14124e-08
-1.08229e-08
-5.91191e-09
3.75525e-08
-1.22075e-08
-2.00119e-08
6.96364e-08
-1.37921e-08
-2.52792e-08
1.05686e-07
-1.63684e-08
-2.81285e-08
1.48196e-07
-2.00988e-08
-3.29157e-08
2.01183e-07
-2.4943e-08
-4.11111e-08
2.69278e-07
-3.05798e-08
-5.33835e-08
3.5691e-07
-3.65053e-08
-6.97338e-08
4.64375e-07
-4.08615e-08
-8.69556e-08
5.84636e-07
-4.37893e-08
-9.80871e-08
6.87694e-07
-4.07826e-08
-8.32407e-08
7.45722e-07
-5.37738e-08
-3.1335e-08
6.86916e-07
-7.59654e-08
9.73157e-08
5.6965e-07
-9.57732e-08
1.66004e-07
4.28255e-07
-1.13086e-07
1.98829e-07
2.85055e-07
-1.25134e-07
2.0662e-07
1.45251e-07
-1.33004e-07
2.07126e-07
8.14766e-09
-1.36471e-07
2.06222e-07
-1.29059e-07
-1.35861e-07
2.06194e-07
-2.69177e-07
-1.31197e-07
2.07042e-07
-4.12901e-07
-1.2226e-07
2.06497e-07
-5.55067e-07
-1.09319e-07
1.98717e-07
-6.73458e-07
-9.153e-08
1.66128e-07
-7.33856e-07
-7.16341e-08
9.78902e-08
-6.78292e-07
-5.01387e-08
-2.95599e-08
-5.76184e-07
-3.82194e-08
-8.24789e-08
-4.55614e-07
-4.19367e-08
-9.83459e-08
-3.46132e-07
-3.96764e-08
-8.87063e-08
-2.54616e-07
-3.6018e-08
-7.31111e-08
-1.80203e-07
-3.08905e-08
-5.89097e-08
-1.17846e-07
-2.62481e-08
-4.93182e-08
-6.33771e-08
-2.26903e-08
-4.32166e-08
-1.94547e-08
-2.03934e-08
-3.37795e-08
-1.82181e-08
-1.03295e-08
1.08744e-08
-1.57093e-08
-5.98798e-09
3.60402e-08
-1.7683e-08
-1.96903e-08
6.70044e-08
-1.99708e-08
-2.47854e-08
1.01934e-07
-2.37678e-08
-2.753e-08
1.43417e-07
-2.94431e-08
-3.21393e-08
1.95653e-07
-3.71589e-08
-4.00197e-08
2.63625e-07
-4.67636e-08
-5.17882e-08
3.52039e-07
-5.76025e-08
-6.73173e-08
4.61052e-07
-6.64601e-08
-8.34145e-08
5.81577e-07
-7.1161e-08
-9.31531e-08
6.75755e-07
-5.70632e-08
-7.7897e-08
7.26939e-07
-8.02882e-08
-2.46691e-08
6.68039e-07
-1.22517e-07
1.05452e-07
5.53442e-07
-1.58398e-07
1.77221e-07
4.16287e-07
-1.88516e-07
2.12585e-07
2.77373e-07
-2.08872e-07
2.22653e-07
1.41769e-07
-2.21925e-07
2.24525e-07
8.73593e-09
-2.27706e-07
2.24268e-07
-1.24437e-07
-2.26892e-07
2.24204e-07
-2.60474e-07
-2.19489e-07
2.24329e-07
-4.00126e-07
-2.04946e-07
2.22338e-07
-5.38403e-07
-1.83249e-07
2.12207e-07
-6.54566e-07
-1.52379e-07
1.77012e-07
-7.15613e-07
-1.16253e-07
1.05666e-07
-6.67196e-07
-7.52784e-08
-2.32778e-08
-5.73852e-07
-5.41046e-08
-7.7459e-08
-4.52957e-07
-6.90827e-08
-9.37481e-08
-3.41957e-07
-6.5236e-08
-8.54409e-08
-2.49753e-07
-5.73315e-08
-7.08901e-08
-1.75646e-07
-4.75878e-08
-5.741e-08
-1.1433e-07
-3.93491e-08
-4.82153e-08
-6.12672e-08
-3.34049e-08
-4.23478e-08
-1.87123e-08
-2.97321e-08
-3.32161e-08
-2.65152e-08
-1.04153e-08
1.01079e-08
-1.97478e-08
-6.06946e-09
3.3866e-08
-2.2234e-08
-1.9207e-08
6.31569e-08
-2.5206e-08
-2.40557e-08
9.62882e-08
-3.02548e-08
-2.66444e-08
1.35903e-07
-3.80718e-08
-3.09861e-08
1.86389e-07
-4.92587e-08
-3.83864e-08
2.533e-07
-6.43025e-08
-4.93715e-08
3.42035e-07
-8.27982e-08
-6.35393e-08
4.53862e-07
-1.00622e-07
-7.76658e-08
5.78353e-07
-1.10692e-07
-8.49607e-08
6.53567e-07
-6.38949e-08
-6.83821e-08
6.90831e-07
-1.04348e-07
-1.32045e-08
6.34027e-07
-1.83967e-07
1.18253e-07
5.25685e-07
-2.4471e-07
1.94654e-07
3.96308e-07
-2.93014e-07
2.33875e-07
2.64739e-07
-3.24887e-07
2.47583e-07
1.3602e-07
-3.44761e-07
2.51555e-07
9.52105e-09
-3.53515e-07
2.52307e-07
-1.17147e-07
-3.52399e-07
2.52175e-07
-2.46414e-07
-3.41377e-07
2.51155e-07
-3.78953e-07
-3.19332e-07
2.46924e-07
-5.09912e-07
-2.85319e-07
2.33029e-07
-6.20465e-07
-2.35712e-07
1.93886e-07
-6.80395e-07
-1.74243e-07
1.17921e-07
-6.46463e-07
-9.68608e-08
-1.23499e-08
-5.716e-07
-6.05835e-08
-6.83839e-08
-4.4663e-07
-1.07949e-07
-8.61042e-08
-3.32894e-07
-9.88476e-08
-8.01239e-08
-2.40508e-07
-8.23161e-08
-6.74019e-08
-1.67707e-07
-6.52757e-08
-5.5113e-08
-1.08537e-07
-5.19923e-08
-4.6527e-08
-5.78943e-08
-4.30385e-08
-4.10088e-08
-1.75357e-08
-3.77586e-08
-3.23322e-08
-3.35495e-08
-1.05014e-08
9.04896e-09
-2.26266e-08
-6.17015e-09
3.08841e-08
-2.54839e-08
-1.85853e-08
5.77556e-08
-2.89527e-08
-2.31248e-08
8.79801e-08
-3.49652e-08
-2.5514e-08
1.24013e-07
-4.46036e-08
-2.95009e-08
1.70183e-07
-5.91842e-08
-3.62448e-08
2.32685e-07
-8.0685e-08
-4.61193e-08
3.18596e-07
-1.10625e-07
-5.80844e-08
4.339e-07
-1.47273e-07
-6.86533e-08
5.74025e-07
-1.81595e-07
-6.92223e-08
6.09371e-07
-5.28129e-08
-4.64281e-08
6.20871e-07
-1.17245e-07
1.39655e-09