/*--------------------------------*- C++ -*----------------------------------*\
| =========                 |                                                 |
| \\      /  F ield         | OpenFOAM: The Open Source CFD Toolbox           |
|  \\    /   O peration     | Version:  2112                                  |
|   \\  /    A nd           | Website:  www.openfoam.com                      |
|    \\/     M anipulation  |                                                 |
\*---------------------------------------------------------------------------*/
FoamFile
{
    version     2.0;
    format      ascii;
    arch        "LSB;label=32;scalar=64";
    class       volVectorField;
    location    "1.2";
    object      U;
}
// * * * * * * * * * * * * * * * * * * * * * * * * * * * * * * * * * * * * * //

dimensions      [0 1 -1 0 0 0 0];

internalField   nonuniform List<vector> 
64906
(
(6.10272e-07 1.90505e-06 -2.74058e-06)
(3.05349e-06 1.17202e-06 -2.82728e-06)
(6.24566e-06 6.47816e-07 -2.57729e-06)
(9.45989e-06 3.90334e-07 -2.39465e-06)
(1.25966e-05 3.71264e-07 -2.35865e-06)
(1.55969e-05 5.01263e-07 -2.4333e-06)
(1.84504e-05 7.31643e-07 -2.58091e-06)
(2.10913e-05 1.06542e-06 -2.77383e-06)
(2.34413e-05 1.50037e-06 -3.00247e-06)
(2.52561e-05 2.10927e-06 -3.23801e-06)
(2.63451e-05 2.8189e-06 -3.49087e-06)
(2.63061e-05 3.7578e-06 -3.72124e-06)
(2.49745e-05 4.59122e-06 -3.94409e-06)
(2.25178e-05 5.38148e-06 -4.12209e-06)
(1.90363e-05 6.00662e-06 -4.27588e-06)
(1.47815e-05 6.50096e-06 -4.39059e-06)
(9.94351e-06 6.82798e-06 -4.47347e-06)
(4.77236e-06 6.99514e-06 -4.51982e-06)
(-5.05192e-07 6.99496e-06 -4.53092e-06)
(-5.64166e-06 6.82765e-06 -4.50651e-06)
(-1.04098e-05 6.5009e-06 -4.44558e-06)
(-1.45611e-05 6.00753e-06 -4.35301e-06)
(-1.79083e-05 5.38544e-06 -4.22138e-06)
(-2.02021e-05 4.60024e-06 -4.0662e-06)
(-2.135e-05 3.77752e-06 -3.86673e-06)
(-2.11881e-05 2.85279e-06 -3.66258e-06)
(-1.98904e-05 2.16936e-06 -3.44018e-06)
(-1.78624e-05 1.59479e-06 -3.24608e-06)
(-1.52859e-05 1.22032e-06 -3.08032e-06)
(-1.24036e-05 1.00459e-06 -2.99702e-06)
(-9.2906e-06 1.02193e-06 -3.05084e-06)
(-6.0735e-06 1.36532e-06 -3.30953e-06)
(-2.89827e-06 2.03908e-06 -3.68253e-06)
(-4.05009e-07 2.94358e-06 -3.65518e-06)
(-4.85798e-07 6.96471e-06 -3.26108e-06)
(1.66192e-06 6.4145e-06 -6.13952e-06)
(5.91471e-06 5.99583e-06 -6.82327e-06)
(9.78389e-06 5.98802e-06 -6.98988e-06)
(1.33672e-05 6.46685e-06 -7.29247e-06)
(1.66829e-05 7.34392e-06 -7.8181e-06)
(1.98136e-05 8.56991e-06 -8.55089e-06)
(2.27272e-05 1.01863e-05 -9.47169e-06)
(2.54017e-05 1.22276e-05 -1.05728e-05)
(2.75194e-05 1.48925e-05 -1.18413e-05)
(2.89196e-05 1.80114e-05 -1.3254e-05)
(2.89719e-05 2.18602e-05 -1.47501e-05)
(2.74608e-05 2.5374e-05 -1.61934e-05)
(2.47256e-05 2.86229e-05 -1.74906e-05)
(2.08435e-05 3.12453e-05 -1.85879e-05)
(1.61509e-05 3.33054e-05 -1.94474e-05)
(1.08195e-05 3.46923e-05 -2.00448e-05)
(5.13871e-06 3.54106e-05 -2.03647e-05)
(-6.60238e-07 3.54362e-05 -2.0399e-05)
(-6.30239e-06 3.47694e-05 -2.01478e-05)
(-1.15568e-05 3.3436e-05 -1.96196e-05)
(-1.61343e-05 3.14325e-05 -1.88304e-05)
(-1.98671e-05 2.88742e-05 -1.78051e-05)
(-2.24195e-05 2.56983e-05 -1.65831e-05)
(-2.37249e-05 2.22777e-05 -1.522e-05)
(-2.34446e-05 1.85381e-05 -1.38126e-05)
(-2.18065e-05 1.55686e-05 -1.2502e-05)
(-1.94386e-05 1.30781e-05 -1.13581e-05)
(-1.6466e-05 1.12743e-05 -1.0421e-05)
(-1.3161e-05 1.00107e-05 -9.73511e-06)
(-9.4621e-06 9.36039e-06 -9.32919e-06)
(-5.40889e-06 9.38627e-06 -9.09591e-06)
(-8.65462e-07 9.93139e-06 -8.19536e-06)
(1.15009e-06 1.0433e-05 -4.46276e-06)
(-1.11503e-06 1.42526e-05 -3.2007e-06)
(9.6033e-07 1.51371e-05 -6.86106e-06)
(6.00684e-06 1.56186e-05 -7.88448e-06)
(1.04885e-05 1.65437e-05 -8.17333e-06)
(1.46294e-05 1.81595e-05 -8.57904e-06)
(1.84485e-05 2.04655e-05 -9.24821e-06)
(2.21111e-05 2.34785e-05 -1.01855e-05)
(2.56261e-05 2.7338e-05 -1.13824e-05)
(2.90703e-05 3.21635e-05 -1.28411e-05)
(3.19777e-05 3.84112e-05 -1.45583e-05)
(3.42269e-05 4.57761e-05 -1.65073e-05)
(3.45519e-05 5.48927e-05 -1.85929e-05)
(3.25975e-05 6.31658e-05 -2.06119e-05)
(2.9195e-05 7.07436e-05 -2.2419e-05)
(2.44235e-05 7.68562e-05 -2.39404e-05)
(1.87965e-05 8.16599e-05 -2.51235e-05)
(1.24458e-05 8.49076e-05 -2.59414e-05)
(5.72602e-06 8.6599e-05 -2.63759e-05)
(-1.13062e-06 8.66771e-05 -2.64165e-05)
(-7.80931e-06 8.51426e-05 -2.60632e-05)
(-1.40778e-05 8.20554e-05 -2.53269e-05)
(-1.958e-05 7.74178e-05 -2.42265e-05)
(-2.41876e-05 7.14858e-05 -2.27895e-05)
(-2.73833e-05 6.41067e-05 -2.10706e-05)
(-2.91027e-05 5.60744e-05 -1.91452e-05)
(-2.85072e-05 4.72324e-05 -1.71643e-05)
(-2.59745e-05 4.02281e-05 -1.5336e-05)
(-2.27637e-05 3.43768e-05 -1.37682e-05)
(-1.89255e-05 3.00376e-05 -1.25068e-05)
(-1.48511e-05 2.67967e-05 -1.15889e-05)
(-1.03351e-05 2.46205e-05 -1.10152e-05)
(-5.42056e-06 2.34066e-05 -1.06007e-05)
(8.72689e-08 2.27782e-05 -9.27342e-06)
(1.93686e-06 2.1339e-05 -4.41317e-06)
(-1.31711e-06 2.14731e-05 -3.05802e-06)
(1.02112e-06 2.34122e-05 -6.91655e-06)
(6.89986e-06 2.46308e-05 -8.00223e-06)
(1.21892e-05 2.64849e-05 -8.28104e-06)
(1.71462e-05 2.92814e-05 -8.69909e-06)
(2.17938e-05 3.30679e-05 -9.42825e-06)
(2.64021e-05 3.79211e-05 -1.04842e-05)
(3.10437e-05 4.41101e-05 -1.18741e-05)
(3.60053e-05 5.19067e-05 -1.36147e-05)
(4.05511e-05 6.22657e-05 -1.57238e-05)
(4.47012e-05 7.47997e-05 -1.81724e-05)
(4.56171e-05 9.113e-05 -2.0846e-05)
(4.26235e-05 0.000105449 -2.34311e-05)
(3.78201e-05 0.000118351 -2.57214e-05)
(3.12812e-05 0.000128565 -2.76352e-05)
(2.38521e-05 0.000136583 -2.90984e-05)
(1.55463e-05 0.000141986 -3.01026e-05)
(6.83902e-06 0.000144801 -3.06309e-05)
(-2.04089e-06 0.000144932 -3.06727e-05)
(-1.07047e-05 0.000142379 -3.02282e-05)
(-1.8923e-05 0.000137243 -2.93076e-05)
(-2.62153e-05 0.000129495 -2.79285e-05)
(-3.25707e-05 0.00011957 -2.60993e-05)
(-3.71301e-05 0.000106978 -2.38966e-05)
(-3.98422e-05 9.30355e-05 -2.1403e-05)
(-3.85808e-05 7.7128e-05 -1.88328e-05)
(-3.40751e-05 6.51731e-05 -1.65045e-05)
(-2.91606e-05 5.54156e-05 -1.45504e-05)
(-2.36922e-05 4.83266e-05 -1.30207e-05)
(-1.8318e-05 4.29831e-05 -1.19398e-05)
(-1.25962e-05 3.92029e-05 -1.12946e-05)
(-6.57107e-06 3.67378e-05 -1.08634e-05)
(3.1284e-08 3.51051e-05 -9.44912e-06)
(2.21948e-06 3.2369e-05 -4.29146e-06)
(-1.23334e-06 2.84606e-05 -2.96875e-06)
(1.66241e-06 3.1261e-05 -7.08439e-06)
(8.63602e-06 3.31541e-05 -8.22946e-06)
(1.50142e-05 3.5954e-05 -8.50451e-06)
(2.109e-05 4.0008e-05 -8.9669e-06)
(2.69172e-05 4.53781e-05 -9.81669e-06)
(3.2927e-05 5.21814e-05 -1.10867e-05)
(3.93217e-05 6.08271e-05 -1.28187e-05)
(4.68486e-05 7.18349e-05 -1.50551e-05)
(5.4377e-05 8.70806e-05 -1.78615e-05)
(6.24681e-05 0.000106422 -2.11947e-05)
(6.45516e-05 0.000134075 -2.49773e-05)
(5.925e-05 0.000156927 -2.86011e-05)
(5.18398e-05 0.000176982 -3.17938e-05)
(4.2286e-05 0.000192427 -3.44503e-05)
(3.19472e-05 0.000204575 -3.6419e-05)
(2.04972e-05 0.000212723 -3.77612e-05)
(8.61374e-06 0.000216971 -3.84595e-05)
(-3.50277e-06 0.000217159 -3.85045e-05)
(-1.53416e-05 0.000213287 -3.7896e-05)
(-2.67012e-05 0.000205514 -3.66425e-05)
(-3.68922e-05 0.000193738 -3.47621e-05)
(-4.62421e-05 0.000178679 -3.2192e-05)
(-5.33588e-05 0.000159026 -2.90869e-05)
(-5.83153e-05 0.000136666 -2.55515e-05)
(-5.57622e-05 0.000109553 -2.18698e-05)
(-4.72125e-05 9.10478e-05 -1.86563e-05)
(-3.92577e-05 7.65969e-05 -1.60118e-05)
(-3.11036e-05 6.64973e-05 -1.40028e-05)
(-2.37936e-05 5.89013e-05 -1.26176e-05)
(-1.63925e-05 5.34151e-05 -1.18229e-05)
(-8.87099e-06 4.9672e-05 -1.13424e-05)
(-7.40582e-07 4.71112e-05 -9.80488e-06)
(2.19931e-06 4.32906e-05 -4.28351e-06)
(-9.62963e-07 3.50035e-05 -2.92191e-06)
(2.76207e-06 3.85223e-05 -7.4615e-06)
(1.11675e-05 4.10655e-05 -8.70896e-06)
(1.89946e-05 4.48547e-05 -9.0148e-06)
(2.65357e-05 5.02798e-05 -9.57568e-06)
(3.39006e-05 5.73831e-05 -1.06345e-05)
(4.17506e-05 6.62823e-05 -1.22558e-05)
(5.05431e-05 7.74698e-05 -1.45484e-05)
(6.19777e-05 9.18063e-05 -1.75817e-05)
(7.4593e-05 0.000112753 -2.15013e-05)
(9.08201e-05 0.0001412 -2.60748e-05)
(9.52648e-05 0.000188566 -3.16821e-05)
(8.49377e-05 0.000224075 -3.70457e-05)
(7.29469e-05 0.000253879 -4.18317e-05)
(5.86338e-05 0.000276063 -4.58275e-05)
(4.39862e-05 0.000293617 -4.86214e-05)
(2.78445e-05 0.000305348 -5.05148e-05)
(1.12405e-05 0.00031147 -5.14892e-05)
(-5.69702e-06 0.000311725 -5.15411e-05)
(-2.22591e-05 0.000306107 -5.06703e-05)
(-3.83157e-05 0.000294874 -4.88779e-05)
(-5.28146e-05 0.000277798 -4.61833e-05)
(-6.69155e-05 0.000256088 -4.22806e-05)
(-7.85603e-05 0.000226743 -3.75854e-05)
(-8.8471e-05 0.000191804 -3.23079e-05)
(-8.33435e-05 0.000145032 -2.67948e-05)
(-6.65091e-05 0.000117791 -2.23405e-05)
(-5.34534e-05 9.7819e-05 -1.85926e-05)
(-4.12666e-05 8.456e-05 -1.58083e-05)
(-3.13485e-05 7.45942e-05 -1.39094e-05)
(-2.17566e-05 6.72605e-05 -1.28409e-05)
(-1.22651e-05 6.21611e-05 -1.22322e-05)
(-2.07281e-06 5.87071e-05 -1.047e-05)
(1.99753e-06 5.38054e-05 -4.37484e-06)
(-5.77421e-07 4.09872e-05 -2.90145e-06)
(4.26474e-06 4.51449e-05 -7.99752e-06)
(1.45422e-05 4.84018e-05 -9.40915e-06)
(2.42369e-05 5.33262e-05 -9.78211e-06)
(3.36425e-05 6.03739e-05 -1.04953e-05)
(4.29181e-05 6.95345e-05 -1.18563e-05)
(5.29856e-05 8.08344e-05 -1.39828e-05)
(6.47191e-05 9.45292e-05 -1.71005e-05)
(8.16084e-05 0.000111674 -2.1302e-05)
(0.000102195 0.000137355 -2.67462e-05)
(0.000135216 0.000176656 -3.26808e-05)
(0.000144612 0.000259988 -4.0932e-05)
(0.000122985 0.000314139 -4.8705e-05)
(0.000103121 0.000357205 -5.60149e-05)
(8.17127e-05 0.000388426 -6.22336e-05)
(6.10632e-05 0.000413495 -6.61249e-05)
(3.8258e-05 0.000430263 -6.87799e-05)
(1.49592e-05 0.000439021 -7.01341e-05)
(-8.83915e-06 0.000439362 -7.01981e-05)
(-3.21056e-05 0.000431277 -6.89713e-05)
(-5.48477e-05 0.000415162 -6.64389e-05)
(-7.53725e-05 0.000390695 -6.26665e-05)
(-9.65964e-05 0.000360031 -5.65528e-05)
(-0.000116078 0.000317433 -4.93408e-05)
(-0.000137244 0.000263839 -4.16519e-05)
(-0.000126769 0.00018099 -3.34788e-05)
(-9.29076e-05 0.000143562 -2.76657e-05)
(-7.2008e-05 0.00011899 -2.23999e-05)
(-5.42453e-05 0.000103029 -1.84715e-05)
(-4.113e-05 9.06699e-05 -1.58019e-05)
(-2.88475e-05 8.11595e-05 -1.43191e-05)
(-1.68158e-05 7.44076e-05 -1.35019e-05)
(-4.01982e-06 6.98892e-05 -1.14408e-05)
(1.55366e-06 6.38534e-05 -4.46496e-06)
(-6.92805e-08 4.61809e-05 -2.88111e-06)
(6.22643e-06 5.09326e-05 -8.65561e-06)
(1.89167e-05 5.49677e-05 -1.02879e-05)
(3.10211e-05 6.11979e-05 -1.07581e-05)
(4.28139e-05 7.01829e-05 -1.16752e-05)
(5.44222e-05 8.18564e-05 -1.34387e-05)
(6.68095e-05 9.60478e-05 -1.62485e-05)
(8.12407e-05 0.000112194 -2.05351e-05)
(0.000103361 0.000130642 -2.63116e-05)
(0.000133949 0.000158703 -3.40433e-05)
(0.000201114 0.000205696 -3.84484e-05)
(0.000221851 0.000359236 -4.85944e-05)
(0.000176752 0.000437909 -5.98829e-05)
(0.000145309 0.000495981 -7.13354e-05)
(0.000114335 0.000537895 -8.11195e-05)
(8.55793e-05 0.000571969 -8.61562e-05)
(5.3257e-05 0.000594974 -8.96355e-05)
(2.03035e-05 0.000607018 -9.13998e-05)
(-1.34118e-05 0.000607477 -9.14798e-05)
(-4.63522e-05 0.000596335 -8.9875e-05)
(-7.86591e-05 0.000574197 -8.65474e-05)
(-0.000107361 0.000540898 -8.16582e-05)
(-0.000138263 0.000499633 -7.19975e-05)
(-0.000169383 0.000441962 -6.06572e-05)
(-0.000214121 0.000363733 -4.94745e-05)
(-0.000191505 0.000210171 -3.9344e-05)
(-0.000123099 0.00016649 -3.50535e-05)
(-9.26707e-05 0.000139497 -2.75093e-05)
(-6.95278e-05 0.000122183 -2.20411e-05)
(-5.33807e-05 0.000107347 -1.82677e-05)
(-3.81461e-05 9.50746e-05 -1.621e-05)
(-2.29301e-05 8.61771e-05 -1.50989e-05)
(-6.74017e-06 8.02866e-05 -1.26355e-05)
(8.74165e-07 7.31828e-05 -4.53417e-06)
(5.65943e-07 5.03425e-05 -2.85044e-06)
(8.6818e-06 5.567e-05 -9.42065e-06)
(2.43874e-05 6.06063e-05 -1.13264e-05)
(3.95613e-05 6.84607e-05 -1.19194e-05)
(5.44421e-05 8.00543e-05 -1.30843e-05)
(6.90096e-05 9.546e-05 -1.53262e-05)
(8.37916e-05 0.000114436 -1.89553e-05)
(9.97154e-05 0.000134273 -2.4651e-05)
(0.000125225 0.000153381 -3.28608e-05)
(0.000159474 0.000169297 -4.19303e-05)
(0.000290518 0.000179714 -4.93222e-05)
(0.00033771 0.000472623 -5.08901e-05)
(0.000242827 0.000584538 -6.38046e-05)
(0.000198613 0.000661855 -8.0915e-05)
(0.000157117 0.000719822 -9.51359e-05)
(0.000118176 0.000767346 -0.000100854)
(7.3422e-05 0.000799699 -0.000105151)
(2.75123e-05 0.000816477 -0.000107283)
(-1.95706e-05 0.000817089 -0.000107376)
(-6.54976e-05 0.00080152 -0.000105433)
(-0.000110315 0.000770338 -0.00010131)
(-0.000149345 0.000723862 -9.57642e-05)
(-0.000191034 0.000666727 -8.16782e-05)
(-0.000235135 0.000589776 -6.47075e-05)
(-0.000330249 0.000477881 -5.19156e-05)
(-0.000279594 0.000182859 -5.05503e-05)
(-0.000146614 0.000178673 -4.30924e-05)
(-0.00011383 0.000163764 -3.41601e-05)
(-8.69872e-05 0.000145632 -2.63139e-05)
(-6.8866e-05 0.00012696 -2.12097e-05)
(-5.03821e-05 0.000109941 -1.84653e-05)
(-3.10747e-05 9.76337e-05 -1.70072e-05)
(-1.04216e-05 8.9717e-05 -1.40351e-05)
(-5.16284e-08 8.13889e-05 -4.58363e-06)
(1.39177e-06 5.30785e-05 -2.78563e-06)
(1.17975e-05 5.88432e-05 -1.02758e-05)
(3.13295e-05 6.46007e-05 -1.25033e-05)
(5.06599e-05 7.40408e-05 -1.32391e-05)
(7.01096e-05 8.83868e-05 -1.46855e-05)
(8.95379e-05 0.000108215 -1.74473e-05)
(0.000107722 0.000133579 -2.1861e-05)
(0.000124628 0.000160007 -2.93635e-05)
(0.000139684 0.000176273 -3.8706e-05)
(0.000115773 0.000127665 -5.53473e-05)
(0.000353032 0.000179241 -6.45976e-05)
(0.000488448 0.00070137 -3.59904e-05)
(0.000319027 0.000785041 -4.77318e-05)
(0.000273082 0.00085216 -6.71357e-05)
(0.000221645 0.0009228 -8.3123e-05)
(0.000167543 0.000979919 -8.66306e-05)
(0.000103834 0.0010211 -9.01569e-05)
(3.82111e-05 0.00104235 -9.19247e-05)
(-2.88358e-05 0.00104314 -9.20115e-05)
(-9.44966e-05 0.00102349 -9.04184e-05)
(-0.000158343 0.000983855 -8.70437e-05)
(-0.000212713 0.000928172 -8.3708e-05)
(-0.00026473 0.000858682 -6.78391e-05)
(-0.000311238 0.000791825 -4.85709e-05)
(-0.000483751 0.000705876 -3.72129e-05)
(-0.00034221 0.000182272 -6.63086e-05)
(-0.00010094 0.000142817 -5.62446e-05)
(-0.000128244 0.000190126 -3.99722e-05)
(-0.000111206 0.00017312 -3.11869e-05)
(-9.14369e-05 0.000147166 -2.43904e-05)
(-6.84636e-05 0.000123567 -2.103e-05)
(-4.28622e-05 0.000107022 -1.92185e-05)
(-1.58319e-05 9.68542e-05 -1.56342e-05)
(-1.5062e-06 8.74464e-05 -4.52835e-06)
(2.31355e-06 5.41081e-05 -2.71573e-06)
(1.53305e-05 6.01787e-05 -1.1217e-05)
(3.9276e-05 6.6696e-05 -1.38186e-05)
(6.36493e-05 7.78088e-05 -1.47376e-05)
(8.92057e-05 9.56139e-05 -1.65285e-05)
(0.00011611 0.000122572 -1.97596e-05)
(0.000142224 0.000162677 -2.46558e-05)
(0.000162417 0.000219054 -3.06788e-05)
(0.00013944 0.000291478 -4.43249e-05)
(0.000144131 0.000333436 -6.32408e-05)
(0.000233629 0.000626777 4.97606e-05)
(0.000282208 0.000817027 1.87298e-05)
(0.000332993 0.000948211 1.00812e-05)
(0.000295877 0.00106434 1.20984e-05)
(0.000225074 0.00114696 9.80059e-06)
(0.000141068 0.00120242 7.9341e-06)
(5.13442e-05 0.00122971 7.19699e-06)
(-4.00491e-05 0.00123063 7.19748e-06)
(-0.000129828 0.00120519 7.93328e-06)
(-0.000214024 0.00115165 9.80652e-06)
(-0.00028524 0.00107105 1.2102e-05)
(-0.000323479 0.000957086 1.01323e-05)
(-0.000275378 0.000827974 1.85103e-05)
(-0.00022914 0.000638267 4.88117e-05)
(-0.000140522 0.00034519 -6.21834e-05)
(-0.000133355 0.00030449 -4.52975e-05)
(-0.000150791 0.000231943 -3.26611e-05)
(-0.000125481 0.000176245 -2.75073e-05)
(-9.28614e-05 0.000138018 -2.3881e-05)
(-5.79655e-05 0.000114541 -2.18152e-05)
(-2.25931e-05 0.000101314 -1.75035e-05)
(-3.25421e-06 9.07215e-05 -4.49306e-06)
(3.42989e-06 5.30184e-05 -2.616e-06)
(1.94879e-05 5.90107e-05 -1.21954e-05)
(4.87385e-05 6.55642e-05 -1.5186e-05)
(7.99945e-05 7.68247e-05 -1.62974e-05)
(0.000115799 9.50119e-05 -1.8476e-05)
(0.000160068 0.000122956 -2.2368e-05)
(0.000217888 0.000165636 -2.81803e-05)
(0.00030211 0.000228875 -3.43627e-05)
(0.000411172 0.000319567 -3.9027e-05)
(0.000635059 0.000426527 -2.9944e-05)
(0.000655041 0.000133397 3.47046e-05)
(0.000532548 0.000303112 3.60839e-05)
(0.000602247 0.000619522 0.00010685)
(0.00054463 0.000810426 0.000162909)
(0.000442541 0.000950071 0.000196118)
(0.000319377 0.00104392 0.000208475)
(0.000194368 0.00110293 0.000213674)
(6.90086e-05 0.00113124 0.000215693)
(-5.56922e-05 0.00113209 0.000215759)
(-0.000181004 0.0011055 0.000213875)
(-0.000305942 0.00104833 0.000208829)
(-0.000428939 0.000956503 0.000196662)
(-0.000530877 0.00081923 0.00016383)
(-0.000588132 0.000631076 0.000108154)
(-0.000516495 0.000317271 3.82249e-05)
(-0.000644141 0.000137004 3.63818e-05)
(-0.000629668 0.00043186 -2.94871e-05)
(-0.000401995 0.000329145 -3.99489e-05)
(-0.000289151 0.000240132 -3.62558e-05)
(-0.00019964 0.000178347 -3.12931e-05)
(-0.000134304 0.000137852 -2.70913e-05)
(-8.03881e-05 0.000113511 -2.46658e-05)
(-3.23241e-05 9.9979e-05 -1.95654e-05)
(-5.94532e-06 8.94019e-05 -4.35606e-06)
(4.36697e-06 4.97753e-05 -2.53815e-06)
(2.30933e-05 5.52822e-05 -1.31343e-05)
(5.68966e-05 6.10836e-05 -1.65173e-05)
(9.35137e-05 7.08009e-05 -1.78514e-05)
(0.000136209 8.58751e-05 -2.04587e-05)
(0.000189901 0.000107552 -2.51274e-05)
(0.000260545 0.000137116 -3.20945e-05)
(0.000360823 0.000173845 -4.04612e-05)
(0.000489243 0.000209775 -4.73759e-05)
(0.000686945 0.000227781 -4.61244e-05)
(0.000778096 0.000126891 -2.61316e-05)
(0.000793254 0.000287218 4.36858e-06)
(0.000797072 0.00045996 0.000118072)
(0.000683307 0.000587251 0.000183812)
(0.000544546 0.000687511 0.000219162)
(0.000387629 0.000756755 0.000234426)
(0.000233677 0.000801305 0.000240596)
(8.22168e-05 0.000823008 0.000242798)
(-6.73422e-05 0.000823704 0.000242856)
(-0.000218723 0.000803405 0.00024077)
(-0.000372535 0.000760289 0.000234739)
(-0.000529174 0.000692512 0.000219658)
(-0.000667753 0.000593735 0.000184689)
(-0.000781258 0.000467602 0.000119395)
(-0.000777586 0.000295285 6.81579e-06)
(-0.000766082 0.000130951 -2.4681e-05)
(-0.000677976 0.00023515 -4.58537e-05)
(-0.000478777 0.000218846 -4.82447e-05)
(-0.000346743 0.000184245 -4.24172e-05)
(-0.000240713 0.000148989 -3.54682e-05)
(-0.00016156 0.000121605 -3.03793e-05)
(-9.66703e-05 0.000103371 -2.74202e-05)
(-3.95155e-05 9.26002e-05 -2.15016e-05)
(-7.79586e-06 8.33315e-05 -4.30996e-06)
(5.19965e-06 4.47511e-05 -2.45655e-06)
(2.62642e-05 4.95927e-05 -1.39634e-05)
(6.40254e-05 5.4454e-05 -1.76838e-05)
(0.000105103 6.24131e-05 -1.91878e-05)
(0.000153113 7.44056e-05 -2.21219e-05)
(0.000213137 9.09464e-05 -2.74115e-05)
(0.000290915 0.000112131 -3.54126e-05)
(0.000397166 0.000136971 -4.593e-05)
(0.000529287 0.000159989 -5.65888e-05)
(0.000703316 0.000177321 -6.3034e-05)
(0.000828316 0.00015497 -5.0959e-05)
(0.000915392 0.000236458 -9.2026e-06)
(0.000914747 0.000337448 0.000106852)
(0.000780412 0.000422687 0.000168655)
(0.000617832 0.000492645 0.000201067)
(0.000436892 0.000541462 0.000212071)
(0.000262575 0.000573631 0.00021568)
(9.20153e-05 0.000589463 0.000216618)
(-7.5853e-05 0.000590046 0.000216651)
(-0.00024632 0.000575379 0.000215781)
(-0.000420481 0.000544373 0.000212259)
(-0.000601131 0.000496696 0.000201384)
(-0.000763614 0.000427832 0.000169301)
(-0.000897826 0.000343423 0.000107887)
(-0.000900098 0.000242979 -7.27539e-06)
(-0.000816317 0.000160234 -4.97729e-05)
(-0.000692795 0.00018403 -6.26449e-05)
(-0.000517547 0.000167944 -5.73934e-05)
(-0.000381751 0.000146206 -4.79286e-05)
(-0.000269383 0.000122818 -3.89984e-05)
(-0.000182239 0.000103706 -3.30891e-05)
(-0.000109699 9.02672e-05 -2.97021e-05)
(-4.53755e-05 8.19942e-05 -2.31135e-05)
(-9.34809e-06 7.41202e-05 -4.21032e-06)
(5.81273e-06 3.82491e-05 -2.40889e-06)
(2.86766e-05 4.22481e-05 -1.46706e-05)
(6.9454e-05 4.60089e-05 -1.8672e-05)
(0.000113682 5.20035e-05 -2.03148e-05)
(0.000165049 6.07704e-05 -2.35088e-05)
(0.000228439 7.23819e-05 -2.92796e-05)
(0.00030931 8.64678e-05 -3.80534e-05)
(0.000416972 0.000102336 -4.99413e-05)
(0.000549878 0.000116898 -6.26214e-05)
(0.00071682 0.00013129 -7.18495e-05)
(0.000860901 0.000135362 -6.08028e-05)
(0.000983547 0.000183405 -2.18994e-05)
(0.000985084 0.000244708 9.22224e-05)
(0.000840019 0.000298105 0.000148423)
(0.000664664 0.000343396 0.000176608)
(0.000469647 0.00037624 0.000183866)
(0.00028226 0.000398399 0.000185313)
(9.88186e-05 0.000409499 0.000185166)
(-8.15948e-05 0.000410005 0.000185178)
(-0.00026496 0.000399905 0.00018535)
(-0.000452228 0.000378713 0.000183945)
(-0.000647017 0.000346771 0.000176768)
(-0.000822428 0.000302293 0.000148873)
(-0.000967609 0.00024949 9.30809e-05)
(-0.000968118 0.000188589 -1.98104e-05)
(-0.000848415 0.000140474 -5.96662e-05)
(-0.000705201 0.000137359 -7.14929e-05)
(-0.000537048 0.000123893 -6.34644e-05)
(-0.000400324 0.000110388 -5.20339e-05)
(-0.000286187 9.57954e-05 -4.1836e-05)
(-0.000195237 8.35042e-05 -3.5302e-05)
(-0.000118282 7.44841e-05 -3.15701e-05)
(-4.91966e-05 6.86988e-05 -2.44463e-05)
(-1.02814e-05 6.24724e-05 -4.20685e-06)
(6.26426e-06 3.07198e-05 -2.38064e-06)
(3.04742e-05 3.38324e-05 -1.52365e-05)
(7.35062e-05 3.65808e-05 -1.94528e-05)
(0.00012 4.08744e-05 -2.11938e-05)
(0.000173648 4.70527e-05 -2.45714e-05)
(0.000239139 5.5082e-05 -3.06791e-05)
(0.000321785 6.46384e-05 -3.99866e-05)
(0.00043014 7.54253e-05 -5.27463e-05)
(0.000563801 8.59791e-05 -6.66291e-05)
(0.000729956 9.80317e-05 -7.74007e-05)
(0.000885117 0.000108665 -6.69223e-05)
(0.00102505 0.000138965 -2.98014e-05)
(0.00102903 0.000176648 8.32939e-05)
(0.000879167 0.000211063 0.000136588)
(0.00069626 0.000240929 0.000162468)
(0.000492203 0.000263124 0.000167598)
(0.000296023 0.00027832 0.000167757)
(0.000103683 0.000286069 0.00016697)
(-8.55021e-05 0.000286538 0.000166972)
(-0.000277794 0.000279709 0.000167763)
(-0.000473915 0.000265383 0.000167623)
(-0.000677832 0.000243969 0.000162549)
(-0.000860935 0.000214774 0.000136935)
(-0.00101106 0.000180856 8.40394e-05)
(-0.00100934 0.000143565 -2.77949e-05)
(-0.000872194 0.000113412 -6.58583e-05)
(-0.000717586 0.000103392 -7.70914e-05)
(-0.000550139 9.1976e-05 -6.7535e-05)
(-0.000412472 8.22179e-05 -5.49368e-05)
(-0.000297323 7.24353e-05 -4.39367e-05)
(-0.000204032 6.42866e-05 -3.69727e-05)
(-0.000124185 5.82425e-05 -3.29994e-05)
(-5.17966e-05 5.427e-05 -2.5482e-05)
(-1.09004e-05 4.95387e-05 -4.22541e-06)
(6.55369e-06 2.2486e-05 -2.37998e-06)
(3.16755e-05 2.46682e-05 -1.56635e-05)
(7.62414e-05 2.6461e-05 -2.00318e-05)
(0.000124234 2.92148e-05 -2.18386e-05)
(0.000179338 3.31495e-05 -2.53369e-05)
(0.00024613 3.82364e-05 -3.166e-05)
(0.000329918 4.43069e-05 -4.12961e-05)
(0.00043899 5.13201e-05 -5.45465e-05)
(0.000573844 5.87616e-05 -6.90609e-05)
(0.00074128 6.79568e-05 -8.05587e-05)
(0.000902623 7.80584e-05 -7.05153e-05)
(0.00105113 9.69469e-05 -3.42263e-05)
(0.00105674 0.000119894 7.89487e-05)
(0.000904211 0.000141204 0.000131243)
(0.000716806 0.000159851 0.000156234)
(0.000507171 0.00017403 0.000160464)
(0.000305298 0.000183864 0.000160075)
(0.000107071 0.000189001 0.00015901)
(-8.79839e-05 0.000189461 0.000159009)
(-0.000286204 0.000185221 0.000160069)
(-0.000488098 0.000176214 0.000160467)
(-0.000697706 0.00016275 0.000156283)
(-0.000885451 0.000144674 0.000131546)
(-0.00103838 0.000123764 7.96388e-05)
(-0.00103516 0.00010109 -3.22912e-05)
(-0.000889372 8.23375e-05 -6.95215e-05)
(-0.00072842 7.25736e-05 -8.03161e-05)
(-0.000559602 6.3755e-05 -7.0044e-05)
(-0.000420582 5.6818e-05 -5.68357e-05)
(-0.000304467 5.04707e-05 -4.53887e-05)
(-0.000209627 4.53451e-05 -3.81648e-05)
(-0.000127929 4.15811e-05 -3.40395e-05)
(-5.33967e-05 3.90773e-05 -2.62539e-05)
(-1.12437e-05 3.5819e-05 -4.28693e-06)
(6.71209e-06 1.38669e-05 -2.39959e-06)
(3.23689e-05 1.51131e-05 -1.59489e-05)
(7.78444e-05 1.60219e-05 -2.04086e-05)
(0.000126728 1.73943e-05 -2.22524e-05)
(0.000182711 1.93752e-05 -2.58185e-05)
(0.000250333 2.19901e-05 -3.22621e-05)
(0.00033494 2.52381e-05 -4.20802e-05)
(0.00044476 2.92059e-05 -5.55904e-05)
(0.000580745 3.38693e-05 -7.04271e-05)
(0.000749603 3.98264e-05 -8.22702e-05)
(0.000914175 4.69441e-05 -7.24202e-05)
(0.00106662 5.72835e-05 -3.63447e-05)
(0.00107306 6.92044e-05 7.72391e-05)
(0.00091907 8.03595e-05 0.000129399)
(0.000729112 9.00901e-05 0.000154181)
(0.000516275 9.76633e-05 0.000158133)
(0.000311034 0.000102995 0.000157565)
(0.000109295 0.000105918 0.000156407)
(-8.92957e-05 0.000106397 0.000156404)
(-0.00029108 0.000104401 0.000157556)
(-0.000496443 9.99069e-05 0.000158131)
(-0.0007094 9.30311e-05 0.000154219)
(-0.000899871 8.38046e-05 0.000129682)
(-0.00105442 7.29512e-05 7.78976e-05)
(-0.00105051 6.11399e-05 -3.44682e-05)
(-0.000900776 5.07931e-05 -7.14947e-05)
(-0.000736519 4.3746e-05 -8.20991e-05)
(-0.000566208 3.78924e-05 -7.14886e-05)
(-0.000425942 3.34163e-05 -5.79698e-05)
(-0.000308914 2.97333e-05 -4.62877e-05)
(-0.000212999 2.69239e-05 -3.89217e-05)
(-0.000130138 2.49434e-05 -3.47128e-05)
(-5.43157e-05 2.36343e-05 -2.67679e-05)
(-1.14255e-05 2.17781e-05 -4.3592e-06)
(6.74726e-06 5.1133e-06 -2.43999e-06)
(3.2583e-05 5.41773e-06 -1.60953e-05)
(7.83773e-05 5.46006e-06 -2.0588e-05)
(0.000127596 5.49069e-06 -2.24433e-05)
(0.00018395 5.5859e-06 -2.60308e-05)
(0.000252004 5.83113e-06 -3.25123e-05)
(0.000337149 6.38566e-06 -4.23877e-05)
(0.000447654 7.42883e-06 -5.59764e-05)
(0.000584523 9.31078e-06 -7.09085e-05)
(0.000754411 1.19423e-05 -8.2851e-05)
(0.000920068 1.55961e-05 -7.30527e-05)
(0.0010733 1.84075e-05 -3.69616e-05)
(0.00107974 2.04513e-05 7.69332e-05)
(0.000925082 2.23109e-05 0.000129264)
(0.000734116 2.37604e-05 0.000154124)
(0.000520097 2.51224e-05 0.000158101)
(0.000313568 2.62085e-05 0.000157538)
(0.000110479 2.70533e-05 0.00015638)
(-8.95069e-05 2.75807e-05 0.000156376)
(-0.000292707 2.7757e-05 0.000157526)
(-0.000499489 2.75754e-05 0.000158093)
(-0.000713817 2.69423e-05 0.000154152)
(-0.000905521 2.59597e-05 0.000129526)
(-0.00106097 2.43044e-05 7.7556e-05)
(-0.00105723 2.21654e-05 -3.51553e-05)
(-0.00090675 1.91163e-05 -7.22072e-05)
(-0.000741375 1.52621e-05 -8.27628e-05)
(-0.000569992 1.24424e-05 -7.20538e-05)
(-0.000428784 1.04134e-05 -5.84409e-05)
(-0.000310997 9.25056e-06 -4.66861e-05)
(-0.000214438 8.60503e-06 -3.92756e-05)
(-0.000131009 8.2911e-06 -3.5041e-05)
(-5.46532e-05 8.11168e-06 -2.70361e-05)
(-1.14725e-05 7.65335e-06 -4.44141e-06)
(6.66161e-06 -3.50584e-06 -2.49868e-06)
(3.23205e-05 -4.13887e-06 -1.61026e-05)
(7.78417e-05 -4.97868e-06 -2.05709e-05)
(0.000126835 -6.3278e-06 -2.24136e-05)
(0.000183046 -8.19065e-06 -2.59773e-05)
(0.000251128 -1.04359e-05 -3.24169e-05)
(0.000336527 -1.27441e-05 -4.22286e-05)
(0.00044766 -1.48022e-05 -5.57211e-05)
(0.000585213 -1.57381e-05 -7.05304e-05)
(0.000755834 -1.62138e-05 -8.23391e-05)
(0.000920621 -1.51618e-05 -7.24721e-05)
(0.00107153 -1.98285e-05 -3.61867e-05)
(0.00107701 -2.8281e-05 7.78866e-05)
(0.000922395 -3.61772e-05 0.000130658)
(0.000731919 -4.34027e-05 0.000155857)
(0.000518716 -4.84474e-05 0.000160141)
(0.000312959 -5.17115e-05 0.000159754)
(0.000110665 -5.29645e-05 0.000158681)
(-8.8591e-05 -5.23469e-05 0.000158674)
(-0.00029108 -4.98969e-05 0.000159729)
(-0.000497252 -4.55816e-05 0.00016011)
(-0.000711013 -3.97002e-05 0.000155851)
(-0.000902527 -3.19976e-05 0.000130867)
(-0.00105827 -2.39772e-05 7.84362e-05)
(-0.00105574 -1.58789e-05 -3.44883e-05)
(-0.000907653 -1.17858e-05 -7.17371e-05)
(-0.000743133 -1.33432e-05 -8.23678e-05)
(-0.00057101 -1.33619e-05 -7.17793e-05)
(-0.000429109 -1.29144e-05 -5.8275e-05)
(-0.000310711 -1.1388e-05 -4.66e-05)
(-0.000213941 -9.70795e-06 -3.92367e-05)
(-0.000130546 -8.24236e-06 -3.50306e-05)
(-5.44126e-05 -7.23266e-06 -2.70623e-05)
(-1.13866e-05 -6.28818e-06 -4.53119e-06)
(6.44351e-06 -1.17319e-05 -2.58114e-06)
(3.15511e-05 -1.33005e-05 -1.59733e-05)
(7.61776e-05 -1.509e-05 -2.03579e-05)
(0.000124335 -1.79707e-05 -2.21608e-05)
(0.000179811 -2.20779e-05 -2.56518e-05)
(0.00024742 -2.72956e-05 -3.19615e-05)
(0.000332715 -3.31723e-05 -4.15756e-05)
(0.000444495 -3.9145e-05 -5.47632e-05)
(0.000582791 -4.33367e-05 -6.91706e-05)
(0.000754573 -4.64559e-05 -8.05072e-05)
(0.000916232 -4.51022e-05 -7.03666e-05)
(0.0010603 -5.83209e-05 -3.34245e-05)
(0.00106354 -8.02874e-05 8.10091e-05)
(0.000909988 -0.000100454 0.000134949)
(0.000721816 -0.000118412 0.000161069)
(0.000511742 -0.00013105 0.000166214)
(0.000309018 -0.000139345 0.000166324)
(0.000109832 -0.000142956 0.000165492)
(-8.64312e-05 -0.00014219 0.000165473)
(-0.000285914 -0.000137085 0.000166263)
(-0.00048925 -0.000127471 0.000166119)
(-0.000700207 -0.000113763 0.000160971)
(-0.000889826 -9.5233e-05 0.000135034)
(-0.00104499 -7.49747e-05 8.14129e-05)
(-0.00104512 -5.37279e-05 -3.1909e-05)
(-0.000903968 -4.16194e-05 -6.97966e-05)
(-0.000742525 -4.38203e-05 -8.06989e-05)
(-0.000569236 -4.15078e-05 -7.05559e-05)
(-0.000426634 -3.81441e-05 -5.74215e-05)
(-0.000307696 -3.31116e-05 -4.6009e-05)
(-0.00021122 -2.83975e-05 -3.87943e-05)
(-0.000128558 -2.46736e-05 -3.46757e-05)
(-5.34951e-05 -2.22152e-05 -2.68467e-05)
(-1.11373e-05 -1.97959e-05 -4.63936e-06)
(6.06555e-06 -1.92503e-05 -2.69353e-06)
(3.01941e-05 -2.1703e-05 -1.5712e-05)
(7.32107e-05 -2.44805e-05 -1.9953e-05)
(0.00011976 -2.90223e-05 -2.16878e-05)
(0.000173652 -3.56764e-05 -2.50497e-05)
(0.000239935 -4.44664e-05 -3.11199e-05)
(0.000324411 -5.49501e-05 -4.03519e-05)
(0.000436791 -6.6257e-05 -5.28926e-05)
(0.000576425 -7.48847e-05 -6.63858e-05)
(0.000751939 -8.0554e-05 -7.64964e-05)
(0.000907264 -7.15346e-05 -6.60074e-05)
(0.0010361 -9.61147e-05 -2.78304e-05)
(0.00103497 -0.000139614 8.77474e-05)
(0.000884231 -0.000177269 0.000144468)
(0.000701206 -0.000209689 0.000172722)
(0.000497652 -0.000232098 0.000179815)
(0.000300963 -0.000246672 0.000181064)
(0.000107786 -0.000253137 0.000180774)
(-8.26983e-05 -0.000252137 0.000180726)
(-0.000276283 -0.000243697 0.000180913)
(-0.000473808 -0.000227339 0.000179566)
(-0.000678664 -0.000203393 0.00017241)
(-0.000863692 -0.000170142 0.000144283)
(-0.00101682 -0.000132298 8.78623e-05)
(-0.00102206 -9.00987e-05 -2.66296e-05)
(-0.000896164 -6.76092e-05 -6.57015e-05)
(-0.000740853 -7.78059e-05 -7.69634e-05)
(-0.000563839 -7.32448e-05 -6.79896e-05)
(-0.000419984 -6.57979e-05 -5.57025e-05)
(-0.000300639 -5.58464e-05 -4.48537e-05)
(-0.000205317 -4.70583e-05 -3.79284e-05)
(-0.000124452 -4.04697e-05 -3.39704e-05)
(-5.16024e-05 -3.62819e-05 -2.6394e-05)
(-1.06175e-05 -3.23943e-05 -4.79909e-06)