/*--------------------------------*- C++ -*----------------------------------*\
| =========                 |                                                 |
| \\      /  F ield         | OpenFOAM: The Open Source CFD Toolbox           |
|  \\    /   O peration     | Version:  2112                                  |
|   \\  /    A nd           | Website:  www.openfoam.com                      |
|    \\/     M anipulation  |                                                 |
\*---------------------------------------------------------------------------*/
FoamFile
{
    version     2.0;
    format      ascii;
    arch        "LSB;label=32;scalar=64";
    class       volScalarField;
    location    "4.9";
    object      epsilon;
}
// * * * * * * * * * * * * * * * * * * * * * * * * * * * * * * * * * * * * * //

dimensions      [0 2 -3 0 0 0 0];

internalField   nonuniform List<scalar> 
64906
(
7.6869e-05
9.33723e-05
0.000104791
0.000111064
0.000114295
0.000115879
0.000116608
0.00011691
0.000117006
0.000117006
0.000116966
0.000116914
0.00011687
0.00011684
0.000116819
0.000116803
0.000116791
0.000116783
0.000116781
0.000116785
0.000116795
0.00011681
0.000116828
0.000116852
0.000116878
0.000116882
0.000116805
0.00011653
0.000115828
0.000114267
0.000111051
0.000104789
9.33785e-05
7.68756e-05
9.33893e-05
0.000179963
0.000236626
0.000270044
0.000289178
0.000299628
0.000304926
0.000307285
0.000308053
0.000308021
0.000307653
0.000307214
0.000306841
0.000306579
0.000306417
0.000306322
0.000306267
0.000306242
0.000306242
0.000306266
0.000306318
0.000306404
0.000306537
0.000306722
0.0003069
0.000306872
0.000306197
0.000304046
0.000299008
0.000288803
0.00026986
0.000236565
0.000179963
9.34102e-05
0.000104832
0.000236667
0.000326313
0.000381504
0.000414483
0.000433202
0.000442939
0.000447213
0.000448325
0.000447769
0.000446517
0.000445185
0.000444103
0.000443376
0.000442946
0.000442699
0.000442563
0.000442502
0.000442503
0.000442566
0.000442699
0.000442923
0.000443286
0.000443834
0.000444475
0.000444801
0.000443915
0.000440226
0.000431238
0.000413245
0.000380847
0.000326043
0.000236618
0.000104868
0.000111125
0.000270134
0.000381556
0.000452229
0.000495574
0.000520601
0.000533511
0.000538633
0.000538995
0.000536762
0.000533525
0.000530398
0.000527969
0.000526399
0.000525497
0.000524975
0.000524677
0.00052454
0.000524542
0.000524682
0.000524973
0.000525458
0.000526251
0.000527535
0.000529277
0.000530875
0.000530958
0.000527134
0.000515921
0.000492552
0.000450551
0.000380804
0.000269932
0.000111164
0.000114367
0.000289311
0.000414608
0.000495679
0.000546094
0.000575146
0.000589381
0.000593543
0.000591201
0.000585251
0.000578157
0.000571828
0.000567154
0.000564306
0.000562756
0.000561834
0.000561277
0.000561015
0.000561018
0.000561284
0.000561831
0.000562707
0.000564116
0.000566594
0.000570381
0.000574752
0.000577861
0.000576308
0.000565518
0.000539819
0.000492116
0.000412935
0.00028879
0.000114392
0.000115957
0.000299808
0.000433447
0.000520924
0.000575455
0.000606125
0.000619371
0.000619989
0.000611925
0.000599013
0.000585216
0.000573912
0.000566087
0.000561732
0.000559584
0.000558191
0.000557276
0.000556834
0.000556839
0.000557285
0.000558192
0.000559538
0.000561534
0.00056548
0.000572302
0.000581359
0.000590574
0.000594923
0.000588215
0.000563795
0.000514247
0.000430233
0.000298726
0.000115941
0.000116691
0.000305176
0.000443408
0.000534288
0.000590444
0.000620392
0.00063002
0.000623716
0.000605537
0.000580654
0.000556084
0.000538596
0.00052763
0.000522393
0.000520301
0.000518514
0.000517191
0.000516548
0.000516553
0.000517205
0.000518525
0.000520273
0.000522229
0.000527075
0.000537031
0.00055216
0.000571789
0.00058738
0.000589658
0.000570666
0.000522989
0.000437906
0.000303237
0.0001166
0.000117004
0.00030766
0.00044809
0.000540284
0.000596162
0.000623373
0.000626734
0.000609455
0.000574891
0.000529814
0.00048806
0.000467153
0.000456627
0.000453171
0.000452789
0.000450974
0.0004494
0.000448651
0.000448658
0.000449418
0.000450995
0.000452789
0.000453074
0.00045622
0.000465867
0.000484523
0.000521191
0.000556462
0.000574326
0.000565329
0.000522876
0.0004396
0.000304585
0.000116798
0.000117118
0.000308643
0.000449882
0.000542144
0.000596593
0.000619778
0.000614843
0.000582451
0.000522729
0.000441602
0.000368036
0.000361504
0.000364331
0.000368467
0.000372023
0.000371078
0.000369906
0.000369367
0.000369374
0.000369925
0.000371107
0.00037205
0.000368447
0.000364134
0.000360724
0.000365497
0.000434007
0.000504797
0.00054713
0.000552553
0.000517771
0.000438059
0.000304304
0.000116777
0.000117146
0.00030894
0.000450341
0.000542182
0.000594957
0.000614109
0.00060071
0.000551158
0.000456342
0.000307973
0.000169093
0.000227441
0.000270049
0.000288476
0.000296446
0.000297611
0.00029765
0.000297605
0.000297611
0.000297668
0.00029764
0.000296486
0.000288513
0.000270051
0.000227318
0.000168364
0.000302493
0.000439513
0.000516129
0.000538165
0.000511462
0.000435561
0.000303486
0.000116678
0.000117143
0.000309007
0.000450424
0.000541962
0.000593728
0.000610508
0.000592003
0.000530733
0.000404762
0.000180032
0.000134398
0.000206811
0.000234057
0.000242795
0.000245941
0.000246929
0.00024718
0.000247183
0.00024694
0.000245961
0.000242827
0.000234104
0.000206871
0.000134419
0.000177634
0.000389203
0.000496046
0.000529416
0.000507602
0.000433959
0.000302922
0.000116597
0.000117131
0.000309064
0.000450609
0.000542287
0.000594225
0.000611455
0.00059469
0.000540172
0.00043951
0.000287042
0.000155211
0.00018505
0.000216101
0.000228991
0.000232125
0.000235533
0.000236704
0.000236946
0.000236946
0.000236705
0.000235534
0.000232122
0.000228984
0.000216065
0.000184856
0.000154428
0.000281663
0.000422809
0.000505145
0.000531916
0.000508339
0.000434196
0.000302985
0.00011657
0.000117125
0.000309176
0.000451003
0.000543209
0.000596165
0.000615514
0.00060346
0.000559916
0.00048495
0.000385736
0.000294391
0.000259119
0.000241025
0.00023431
0.000231673
0.000231933
0.000232151
0.000232174
0.000232172
0.000232143
0.000231917
0.000231639
0.000234238
0.000240829
0.00025846
0.000292119
0.000378564
0.000467319
0.00052447
0.000540449
0.000512181
0.000435875
0.000303578
0.000116623
0.000117122
0.000309322
0.000451516
0.000544421
0.00059869
0.000620513
0.000613119
0.000578225
0.000518364
0.000440972
0.000362681
0.000302653
0.000260872
0.00024194
0.000234827
0.000232683
0.000232033
0.000231826
0.00023182
0.000232017
0.000232653
0.000234774
0.000241831
0.000260591
0.000301763
0.000359766
0.000432985
0.000500125
0.000542381
0.000549821
0.000516912
0.000438088
0.000304388
0.000116698
0.000117119
0.000309463
0.000452015
0.000545583
0.000601037
0.000624909
0.000620913
0.000591325
0.000538847
0.000469303
0.000393562
0.000324615
0.000272661
0.000247546
0.000237706
0.000234283
0.00023314
0.000232775
0.000232767
0.000233116
0.000234245
0.000237641
0.000247419
0.000272343
0.000323622
0.000390378
0.000460928
0.000520228
0.000555157
0.00055733
0.000521023
0.000440111
0.000305143
0.000116758
0.000117113
0.000309572
0.000452411
0.000546495
0.000602828
0.000628113
0.000626233
0.00059952
0.000550361
0.00048349
0.000407782
0.000335061
0.000278718
0.000250731
0.000239498
0.000235456
0.000234059
0.000233592
0.000233581
0.000234029
0.000235411
0.000239427
0.000250597
0.000278384
0.000334017
0.000404473
0.00047491
0.0005315
0.000563105
0.000562403
0.000523969
0.000441611
0.000305703
0.000116793
0.000117104
0.000309637
0.000452674
0.000547095
0.000603977
0.000630097
0.000629372
0.000604063
0.000556286
0.000490243
0.000414164
0.00033974
0.0002815
0.000252256
0.000240386
0.00023606
0.000234535
0.000233996
0.00023398
0.000234498
0.00023601
0.000240311
0.000252117
0.000281157
0.000338659
0.000410792
0.000481552
0.000537279
0.000567481
0.000565363
0.000525761
0.000442545
0.000306045
0.000116803
0.000117094
0.000309662
0.000452805
0.000547393
0.000604538
0.00063104
0.000630816
0.00060607
0.000558787
0.000492957
0.000416633
0.000341546
0.000282571
0.000252848
0.000240729
0.000236287
0.000234699
0.000234109
0.000234088
0.000234657
0.000236233
0.000240651
0.000252706
0.000282223
0.000340432
0.000413235
0.000484218
0.000539711
0.000569405
0.000566713
0.0005266
0.000442988
0.000306198
0.000116796
0.000117084
0.000309654
0.000452813
0.000547411
0.000604566
0.000631081
0.000630871
0.000606143
0.000558876
0.000493058
0.000416738
0.000341641
0.000282639
0.000252887
0.000240744
0.000236284
0.000234676
0.000234056
0.00023403
0.00023463
0.000236227
0.000240664
0.000252744
0.000282291
0.000340521
0.000413342
0.000484321
0.000539802
0.000569479
0.000566768
0.000526639
0.000443009
0.000306194
0.00011678
0.00011708
0.000309618
0.000452697
0.000547146
0.000604059
0.000630215
0.000629534
0.000604276
0.000556552
0.00049055
0.000414489
0.000340031
0.000281713
0.000252379
0.000240436
0.000236056
0.000234472
0.000233854
0.000233826
0.000234423
0.000235997
0.000240356
0.000252238
0.000281372
0.000338938
0.00041113
0.000481871
0.000537553
0.000567698
0.000565524
0.000525872
0.000442606
0.000306039
0.000116763
0.000117083
0.000309551
0.000452444
0.000546569
0.000602946
0.000628288
0.000626484
0.000599863
0.000550805
0.000484024
0.000408365
0.000335554
0.0002791
0.000250955
0.000239596
0.00023546
0.000233971
0.000233403
0.000233377
0.000233922
0.000235401
0.000239517
0.00025082
0.000278777
0.000334522
0.000405087
0.000475468
0.000531957
0.000563452
0.000562652
0.000524138
0.000441706
0.000305704
0.000116742
0.000117087
0.000309439
0.000452039
0.000545645
0.000601145
0.000625087
0.000621196
0.000591755
0.000539457
0.000470094
0.00039448
0.000325391
0.000273244
0.000247872
0.000237844
0.000234283
0.000233021
0.000232558
0.000232537
0.000232975
0.000234225
0.000237769
0.00024775
0.000272953
0.000324444
0.000391358
0.000461761
0.00052085
0.000555581
0.000557609
0.000521205
0.000440213
0.000305148
0.000116703
0.000117088
0.000309277
0.000451485
0.000544391
0.000598676
0.000620558
0.000613291
0.000578618
0.000519078
0.000442057
0.000364025
0.000303807
0.000261601
0.000242244
0.000234857
0.000232515
0.000231729
0.000231439
0.000231423
0.000231689
0.000232458
0.000234783
0.00024213
0.000261359
0.000303012
0.000361223
0.000434135
0.000500818
0.000542719
0.000549967
0.000516984
0.000438127
0.000304372
0.000116638
0.000117085
0.00030906
0.000450799
0.000542893
0.000595763
0.000615099
0.000603157
0.000559912
0.000485497
0.000387006
0.000296181
0.000260614
0.000241395
0.000233934
0.000230881
0.000230847
0.00023091
0.00023086
0.000230846
0.000230867
0.000230774
0.000230766
0.000233769
0.000241168
0.0002601
0.000294086
0.000379901
0.000467692
0.000524238
0.000540046
0.000511847
0.000435678
0.00030347
0.000116554
0.000117072
0.000308756
0.000449959
0.000541258
0.000592865
0.000609884
0.000593114
0.000538949
0.000439205
0.000288212
0.000156
0.000185207
0.000213925
0.000225453
0.000227773
0.000230726
0.000231722
0.000231894
0.000231874
0.000231649
0.000230563
0.000227446
0.000224931
0.000213332
0.000184917
0.000155205
0.000282788
0.00042183
0.000503227
0.000530052
0.00050697
0.000433393
0.000302624
0.000116481
0.000117034
0.000308231
0.000448754
0.000539349
0.000590264
0.000606361
0.000587411
0.000526111
0.000401093
0.000178869
0.000129904
0.000195916
0.000219516
0.000225945
0.000228325
0.000229109
0.000229288
0.000229237
0.000228913
0.000227836
0.000224868
0.000217542
0.000193167
0.000128105
0.000175343
0.000383175
0.000489555
0.000524143
0.000503945
0.000431815
0.000301984
0.000116444
0.000116917
0.000307118
0.00044651
0.000536343
0.00058732
0.000604941
0.000590255
0.000539673
0.000444468
0.000297472
0.000162243
0.000204545
0.000236275
0.00024537
0.000246922
0.000246795
0.000246739
0.000246702
0.000246604
0.000246333
0.000245666
0.000244163
0.000239607
0.000226719
0.000194652
0.000156796
0.000284765
0.000421059
0.000500613
0.000526521
0.000503494
0.000430789
0.00030135
0.000116378
0.000116613
0.000304636
0.000441783
0.00053017
0.000581227
0.000601466
0.000593725
0.000558149
0.000494296
0.000407523
0.000325602
0.000300903
0.000284388
0.000268864
0.000260413
0.00025692
0.000255738
0.000255368
0.000255221
0.000255096
0.000254987
0.000255229
0.000256727
0.000261619
0.00027412
0.0003003
0.00038108
0.000463425
0.00051609
0.000530081
0.000502291
0.000428479
0.000299818
0.000116183
0.000115891
0.000299379
0.000432107
0.000517413
0.000567508
0.00058983
0.000588521
0.000565644
0.00052298
0.000465362
0.000404641
0.000356434
0.000313624
0.000278656
0.000261933
0.000255579
0.00025346
0.000252816
0.000252641
0.000252666
0.000253064
0.000254757
0.000260479
0.000276718
0.000313353
0.00036366
0.000428221
0.000486576
0.000522281
0.00052691
0.000495406
0.000421751
0.000295721
0.000115592
0.000114321
0.000289049
0.000413723
0.000493194
0.000540262
0.000562953
0.000566083
0.000552357
0.000523571
0.000482268
0.000433215
0.000382501
0.000332818
0.000291764
0.000271853
0.00026411
0.000261453
0.000260633
0.000260436
0.000260555
0.000261262
0.000263755
0.00027136
0.000291501
0.000334028
0.000387327
0.000442187
0.000486802
0.000511421
0.000509852
0.000477067
0.000406351
0.000286551
0.000114143
0.0001111
0.000270041
0.00038114
0.000450837
0.000492016
0.000512783
0.000518077
0.000510659
0.000491972
0.000463183
0.000426245
0.000384503
0.000342518
0.000307681
0.000289117
0.000281283
0.000278383
0.000277432
0.00027721
0.000277399
0.000278308
0.00028116
0.000289002
0.000307736
0.00034338
0.000386655
0.000428623
0.000460757
0.000476523
0.000471235
0.000440198
0.000376497
0.00026857
0.000111018
0.000104826
0.000236705
0.000326256
0.000381
0.000412849
0.000429202
0.000434517
0.000431232
0.000420411
0.000402585
0.000378559
0.000350297
0.000321479
0.000297539
0.00028368
0.000277288
0.000274793
0.000273953
0.00027376
0.000273939
0.000274763
0.000277242
0.000283651
0.000297638
0.000321896
0.000350998
0.000378501
0.000398686
0.000407263
0.000400764
0.000375123
0.000323876
0.00023604
0.000104816
9.34049e-05
0.000180049
0.000236762
0.000270102
0.000288876
0.00029843
0.000301895
0.000300927
0.00029623
0.000287954
0.000276271
0.000262051
0.000247277
0.000234816
0.000227188
0.000223455
0.000221917
0.000221372
0.000221244
0.000221375
0.000221921
0.000223461
0.000227208
0.00023489
0.00024745
0.000262239
0.000275886
0.000285444
0.000288764
0.000283853
0.000267869
0.000235986
0.000179897
9.34323e-05
7.68904e-05
9.34435e-05
0.000104927
0.000111255
0.000114515
0.000116079
0.00011669
0.000116698
0.000116215
0.000115222
0.000113759
0.000111867
0.000109768
0.0001079
0.000106707
0.000106092
0.000105808
0.000105677
0.000105633
0.000105682
0.000105814
0.000106095
0.000106708
0.000107901
0.000109773
0.000111868
0.000113689
0.000114913
0.0001152
0.000114178
0.000111193
0.000104968
9.34955e-05
7.69201e-05
0.000103653
0.000158451
0.000197511
0.000220733
0.000233835
0.000240857
0.000244354
0.000245888
0.00024638
0.000246355
0.000246112
0.000245818
0.000245562
0.000245374
0.00024525
0.00024517
0.000245121
0.000245097
0.000245095
0.000245117
0.000245162
0.000245234
0.00024534
0.000245479
0.000245611
0.000245608
0.000245181
0.00024378
0.000240444
0.000233574
0.000220591
0.000197447
0.000158432
0.000103659
0.000158457
0.000201488
0.000245023
0.000273385
0.00029025
0.000299619
0.00030441
0.00030655
0.000307237
0.000307188
0.000306825
0.000306393
0.000306021
0.000305754
0.000305583
0.000305479
0.000305419
0.000305391
0.000305391
0.000305418
0.000305476
0.000305571
0.000305714
0.000305907
0.000306093
0.000306088
0.000305486
0.000303538
0.000298989
0.000289853
0.000273178
0.000244948
0.000201492
0.00015844
0.000197542
0.000245039
0.000298356
0.000334799
0.000357376
0.000370348
0.000377114
0.000380077
0.000380837
0.000380436
0.000379549
0.000378601
0.000377819
0.000377274
0.000376934
0.000376732
0.000376616
0.000376563
0.000376563
0.000376615
0.000376726
0.000376912
0.000377202
0.000377618
0.000378088
0.000378329
0.000377717
0.000375151
0.000368902
0.00035644
0.000334285
0.00029814
0.000244997
0.000197487
0.000220796
0.000273426
0.000334828
0.000377915
0.000405251
0.000421204
0.000429449
0.00043272
0.000432964
0.000431572
0.000429554
0.000427597
0.000426064
0.000425039
0.000424423
0.000424061
0.000423853
0.000423756
0.000423756
0.000423852
0.000424052
0.000424388
0.000424932
0.000425769
0.000426858
0.000427831
0.000427824
0.000425332
0.000418134
0.000403226
0.000376752
0.000334279
0.000273241
0.000220651
0.000233933
0.000290321
0.000357451
0.000405314
0.000436038
0.000453917
0.00046271
0.000465324
0.000463988
0.000460503
0.000456367
0.000452677
0.000449948
0.000448219
0.000447225
0.000446651
0.000446313
0.000446152
0.000446153
0.000446312
0.000446641
0.000447182
0.000448084
0.000449577
0.000451746
0.000454216
0.00045588
0.000454719
0.000447931
0.000432047
0.000402966
0.000356267
0.000289838
0.000233594
0.000240996
0.000299733
0.000370505
0.000421404
0.000454106
0.000472686
0.000480789
0.000481338
0.000476788
0.000469493
0.000461784
0.000455453
0.000451126
0.000448574
0.000447191
0.000446414
0.000445932
0.000445692
0.000445693
0.000445932
0.000446405
0.000447148
0.000448429
0.000450714
0.000454404
0.000459336
0.00046423
0.0004663
0.00046186
0.000446884
0.000417106
0.000368263
0.000298732
0.000240316
0.000244546
0.000304598
0.000377429
0.000429937
0.000463352
0.000481387
0.000487372
0.000484026
0.000473941
0.0004603
0.000447047
0.000437239
0.000431425
0.00042836
0.000426804
0.000426023
0.000425467
0.000425159
0.00042516
0.000425469
0.000426019
0.000426769
0.000428228
0.000431022
0.000436164
0.00044446
0.000454652
0.000462648
0.000463137
0.000451283
0.000422754
0.000373619
0.000302814
0.000243347
0.000246161
0.000306866
0.000380677
0.000433756
0.000466886
0.000483294
0.000485741
0.0004764
0.000457715
0.000434084
0.000412989
0.000399177
0.000393686
0.000391489
0.000390294
0.000390206
0.000389871
0.000389586
0.000389588
0.000389876
0.000390208
0.000390277
0.000391394
0.000393349
0.000398184
0.000410416
0.000428268
0.000445945
0.000454621
0.000448276
0.000422775
0.000374827
0.000304058
0.000244275
0.000246783
0.000307766
0.000381909
0.000434927
0.000467172
0.000481284
0.000479202
0.000462037
0.000431382
0.000393249
0.000365247
0.000343295
0.000343856
0.000345922
0.000345526
0.000348008
0.000348681
0.000348657
0.00034866
0.00034869
0.00034802
0.00034553
0.000345882
0.000343642
0.000342512
0.00036274
0.000387344
0.000419302
0.000439688
0.000440889
0.000419651
0.000373793
0.000303822
0.000244124
0.000246953
0.000308032
0.000382207
0.000434927
0.000466185
0.000478064
0.00047161
0.000446562
0.000403215
0.000352792
0.000402249
0.000276912
0.00029205
0.000303279
0.000302769
0.000310936
0.000313534
0.000313988
0.000313992
0.000313546
0.000310955
0.00030279
0.000303295
0.000292001
0.000276449
0.000398302
0.000346342
0.000390727
0.000423778
0.000432762
0.000415788
0.000372086
0.000303085
0.000243603
0.000246968
0.000308082
0.000382233
0.000434743
0.000465408
0.000476004
0.00046712
0.000438175
0.000393825
0.000445903
0.000266343
0.000239636
0.000256118
0.000265546
0.000266207
0.000266125
0.000266106
0.000266108
0.000266131
0.000266219
0.000265568
0.000256149
0.000239667
0.00026626
0.000433574
0.000380597
0.000415075
0.000427979
0.000413394
0.000370949
0.000302548
0.000243211
0.000246967
0.000308119
0.000382319
0.000434882
0.000465602
0.000476321
0.000467812
0.000439501
0.000391112
0.000331443
0.000342283
0.000239972
0.000269654
0.00029126
0.000314455
0.000298827
0.000293461
0.000292413
0.00029241
0.000293453
0.00029881
0.000314447
0.000291236
0.000269568
0.000239508
0.000338486
0.000325009
0.000378573
0.000416528
0.00042864
0.000413602
0.000370996
0.000302547
0.000243185
0.000246997
0.000308207
0.000382551
0.000435401
0.000466681
0.000478512
0.000472235
0.000448276
0.000407361
0.000354121
0.000305077
0.000268046
0.000258591
0.000255663
0.000258024
0.000254023
0.000252363
0.000251963
0.000251961
0.000252359
0.000254015
0.000258012
0.000255606
0.000258386
0.000267309
0.000302669
0.00034824
0.00039509
0.000425448
0.000433121
0.000415788
0.000372033
0.000303027
0.000243483
0.000247049
0.000308333
0.000382872
0.000436116
0.00046815
0.000481378
0.000477624
0.000458038
0.000424043
0.000379293
0.000332096
0.000292209
0.000265944
0.000250052
0.000244048
0.000241381
0.000240451
0.000240192
0.000240189
0.000240445
0.000241367
0.000244015
0.000249958
0.000265659
0.000291336
0.000329628
0.000373392
0.000411802
0.000435249
0.000438531
0.000418645
0.000373473
0.000303722
0.000243918
0.000247102
0.000308461
0.000383192
0.000436816
0.000469545
0.000483978
0.000482208
0.000465673
0.000435862
0.000395581
0.000350249
0.000307471
0.000274579
0.0002529
0.00024361
0.000240282
0.000239224
0.00023893
0.000238927
0.000239215
0.000240264
0.000243567
0.000252789
0.000274257
0.000306524
0.000347686
0.000389593
0.000423566
0.000442848
0.000443081
0.000421204
0.00037482
0.000304386
0.000244326
0.000247141
0.000308564
0.000383449
0.00043737
0.000470618
0.0004859
0.00048542
0.000470668
0.000443001
0.000404664
0.000359945
0.00031561
0.000279849
0.000255584
0.000244852
0.000241003
0.000239783
0.000239446
0.000239442
0.000239773
0.000240983
0.000244806
0.000255465
0.00027951
0.000314625
0.000357317
0.000398599
0.000430631
0.000447778
0.00044623
0.000423063
0.00037583
0.00030489
0.000244625
0.000247161
0.000308631
0.00038362
0.000437733
0.000471307
0.000487096
0.000487335
0.000473496
0.000446805
0.000409211
0.000364579
0.000319446
0.000282413
0.000257023
0.000245659
0.000241549
0.00024024
0.000239875
0.000239871
0.000240229
0.000241528
0.000245611
0.0002569
0.000282066
0.000318438
0.000361913
0.000403094
0.000434376
0.000450545
0.000448085
0.000424198
0.000376461
0.000305205
0.000244801
0.000247163
0.000308663
0.000383704
0.000437911
0.000471639
0.00048766
0.000488213
0.00047475
0.000448425
0.000411069
0.000366409
0.000320936
0.000283413
0.000257597
0.000245993
0.000241779
0.000240431
0.000240052
0.000240047
0.00024042
0.000241757
0.000245943
0.000257473
0.000283062
0.000319916
0.000363725
0.000404926
0.000435964
0.000451763
0.000448927
0.000424726
0.000376759
0.000305352
0.000244873
0.000247153
0.000308662
0.000383707
0.000437917
0.000471649
0.000487675
0.000488236
0.000474781
0.000448466
0.000411118
0.000366464
0.00032099
0.000283459
0.000257627
0.000246007
0.000241785
0.000240432
0.000240048
0.000240042
0.00024042
0.000241762
0.000245958
0.000257503
0.000283108
0.00031997
0.000363781
0.000404976
0.000436004
0.000451793
0.000448947
0.000424739
0.000376766
0.000305353
0.000244861
0.000247134
0.000308628
0.000383626
0.000437748
0.000471334
0.000487139
0.0004874
0.000473589
0.000446928
0.000409363
0.000364752
0.000319615
0.000282558
0.000257118
0.000245707
0.000241571
0.000240246
0.000239869
0.000239863
0.000240234
0.000241549
0.000245659
0.000256996
0.000282214
0.00031861
0.00036209
0.000403248
0.000434496
0.000450632
0.000448143
0.000424235
0.000376482
0.00030521
0.000244769
0.000247103
0.000308559
0.000383455
0.000437387
0.000470653
0.000485961
0.000485518
0.000470816
0.000443207
0.00040493
0.000360256
0.000315917
0.00028011
0.000255755
0.000244942
0.000241048
0.000239804
0.00023945
0.000239445
0.000239793
0.000241027
0.000244897
0.000255641
0.000279783
0.000314943
0.000357639
0.000398868
0.00043083
0.000447912
0.000446315
0.000423114
0.000375858
0.000304897
0.00024458
0.000247053
0.000308448
0.000383184
0.000436816
0.00046956
0.000484024
0.000482306
0.000465848
0.000436141
0.000395975
0.000350734
0.000307952
0.000274966
0.000253126
0.000243704
0.000240313
0.000239224
0.000238914
0.00023891
0.000239214
0.000240295
0.000243663
0.000253024
0.000274667
0.000307035
0.000348193
0.000389986
0.000423821
0.000442992
0.000443153
0.000421238
0.000374835
0.000304387
0.000244269
0.000246979
0.000308293
0.000382816
0.000436044
0.000468074
0.000481323
0.000477628
0.000458153
0.000424331
0.0003798
0.000332778
0.000292867
0.000266336
0.000250118
0.000243875
0.000241133
0.00024017
0.000239894
0.00023989
0.000240158
0.00024111
0.000243828
0.000250018
0.000266071
0.000292041
0.00033034
0.00037387
0.000412012
0.000435279
0.000438479
0.000418579
0.000373423
0.000303688
0.000243833
0.000246876
0.000308093
0.000382364
0.000435132
0.000466349
0.000478154
0.000471912
0.000448082
0.000407431
0.000354593
0.000305919
0.000268677
0.00025839
0.000254753
0.000256621
0.000252555
0.000250857
0.000250436
0.000250428
0.000250831
0.000252498
0.000256514
0.000254575
0.000258089
0.000267952
0.000303518
0.000348554
0.000394901
0.000425018
0.000432667
0.000415423
0.000371792
0.00030289
0.000243326
0.000246718
0.000307814
0.000381808
0.000434142
0.000464657
0.000475221
0.000466637
0.000438377
0.000390253
0.000331135
0.000343788
0.000239093
0.00026709
0.000287494
0.000309925
0.000294063
0.000288583
0.000287513
0.000287506
0.000288546
0.000293943
0.000309684
0.00028698
0.000266345
0.000238083
0.000339877
0.000324018
0.0003769
0.000414791
0.000427169
0.000412519
0.000370297
0.000302154
0.000242856
0.000246415
0.000307331
0.000380993
0.000432973
0.000463141
0.000473298
0.000464031
0.000434738
0.000389944
0.000438687
0.000250062
0.000226563
0.000240288
0.000247646
0.000247551
0.000247296
0.000247246
0.000247204
0.000247123
0.000247083
0.000246565
0.000238157
0.000223127
0.000243873
0.000421603
0.000374364
0.000410195
0.000424288
0.000410791
0.000369275
0.000301594
0.000242502
0.000245721
0.000306303
0.00037944
0.000431068
0.000461302
0.000472232
0.000464816
0.000438608
0.000393499
0.000339116
0.000368156
0.000249331
0.000257656
0.000261756
0.000256855
0.000262627
0.000264763
0.000265189
0.000265103
0.000264396
0.000261564
0.000254176
0.000256091
0.000248173
0.000236934
0.000345489
0.000324384
0.000375982
0.000413027
0.000424974
0.00041034
0.000368522
0.000300989
0.00024211
0.000244117
0.000304028
0.000376146
0.000427116
0.000457483
0.000469849
0.000465922
0.000446354
0.000411963
0.000367345
0.000327939
0.000293896
0.000279602
0.000268061
0.00025916
0.000257724
0.00025749
0.000257371
0.000257237
0.000256896
0.000255923
0.000254399
0.000257555
0.000262552
0.000273297
0.000306825
0.000348278
0.000391639
0.000419733
0.000426433
0.000409351
0.000366825
0.00029954
0.000241087
0.000240646
0.000299257
0.000369406
0.000418945
0.00044895
0.000462557
0.000462122
0.000449078
0.000424753
0.000392031
0.000356975
0.000324991
0.000298938
0.000279193
0.000265133
0.000259427
0.000257515
0.000256924
0.000256751
0.00025673
0.000256968
0.000258382
0.000264088
0.000277719
0.000299039
0.00033167
0.000369394
0.00040249
0.000422273
0.000424002
0.000404747
0.000362041
0.000295781
0.000238317
0.000233692
0.000289992
0.00035666
0.000403487
0.000432119
0.000446113
0.000448225
0.000440213
0.000423335
0.000399196
0.000370458
0.000340334
0.000311872
0.000289429
0.000273244
0.000266031
0.000263426
0.000262596
0.000262394
0.000262521
0.000263235
0.000265692
0.000272879
0.000289325
0.000313028
0.000344069
0.000375856
0.000401302
0.000414931
0.000413098
0.00039285
0.000351266
0.000287528
0.000232068
0.00022066
0.00027325
0.00033437
0.000376776
0.00040268
0.0004159
0.000419352
0.000414851
0.000403441
0.000385953
0.000363581
0.000338233
0.000312793
0.000291532
0.000277307
0.000270524
0.000267866
0.000266961
0.000266746
0.000266938
0.00026781
0.000270435
0.000277248
0.000291695
0.000313604
0.000339925
0.000365135
0.00038412
0.000393071
0.000389107
0.000369398
0.000330756
0.00027168
0.000219665
0.000197492
0.00024499
0.000298178
0.00033425
0.000355977
0.000367244
0.000370909
0.000368673
0.000361371
0.000349426
0.000333383
0.000314458
0.000295003
0.00027848
0.000267642
0.000262203
0.000259939
0.000259129
0.000258936
0.000259129
0.000259936
0.000262201
0.000267674
0.00027864
0.000295428
0.000315075
0.000333343
0.000346541
0.00035192
0.000347168
0.000329647
0.000296032
0.000244126
0.000196997
0.00015846
0.000201516
0.000245025
0.000273236
0.000289683
0.000298134
0.000301155
0.000300191
0.000295871
0.000288387
0.000277952
0.00026531
0.000252125
0.000240859
0.000233547
0.000229802
0.000228195
0.000227603
0.000227462
0.000227612
0.000228211
0.000229828
0.000233598
0.000240975
0.000252341
0.000265519
0.000277578
0.000286017
0.000288956
0.000284639
0.000270744
0.000243944
0.000201129
0.000158307
0.000103674
0.000158459
0.000197521
0.000220683
0.000233554
0.00024001
0.000242344
0.00024175
0.000238695
0.000233266
0.00022557
0.000216141
0.000206274
0.00019792
0.000192749
0.000190183
0.000189089
0.000188678
0.000188578
0.000188687
0.000189104
0.000190205
0.000192786
0.000197993
0.000206405
0.000216264
0.000225298
0.000231597
0.000233716
0.000230258
0.000219163
0.000196932
0.000158295
0.00010369
0.000121727
0.000209398
0.000273607
0.00031313
0.000336319
0.000349245
0.000355918
0.000358925
0.000359885
0.000359784
0.000359215
0.000358535
0.000357941
0.000357506
0.000357221
0.000357043
0.000356938
0.000356889
0.000356888
0.000356934
0.000357032
0.000357193
0.000357433
0.000357753
0.000358068
0.000358105
0.000357284
0.000354569
0.000348255
0.000335671
0.000312755
0.000273422
0.000209329
0.000121731
0.000209401
0.000241937
0.000288347
0.000320656
0.000340709
0.000352231
0.000358297
0.000361078
0.000361992
0.00036193
0.000361437
0.000360842
0.00036032
0.000359938
0.000359689
0.000359536
0.000359449
0.000359409
0.000359408
0.000359447
0.000359529
0.000359666
0.000359872
0.000360143
0.000360395
0.000360381
0.000359576
0.000357051
0.000351311
0.000340112
0.000320328
0.000288213
0.000241914
0.00020933
0.000273643
0.000288358
0.000335413
0.000370782
0.000393817
0.00040751
0.000414847
0.000418139
0.000419019
0.000418593
0.000417603
0.000416521
0.000415608
0.000414953
0.000414532
0.000414279
0.000414135
0.000414069
0.000414068
0.000414132
0.000414267
0.000414496
0.000414851
0.000415341
0.00041587
0.000416112
0.000415385
0.000412523
0.000405762
0.000392652
0.000370114
0.000335108
0.000288259
0.000273446
0.000313212
0.000320691
0.000370809
0.000409878
0.000435974
0.000451716
0.000460062
0.000463467
0.000463791
0.000462418
0.000460372
0.000458349
0.000456723
0.000455592
0.000454884
0.000454469
0.000454236
0.000454128
0.000454127
0.000454231
0.000454453
0.000454833
0.000455449
0.000456356
0.00045747
0.000458403
0.000458282
0.000455631
0.000448335
0.000433673
0.000408498
0.000370105
0.000320377
0.000312766
0.000336459
0.000340782
0.000393896
0.000436042
0.000464487
0.000481572