/*--------------------------------*- C++ -*----------------------------------*\
| =========                 |                                                 |
| \\      /  F ield         | OpenFOAM: The Open Source CFD Toolbox           |
|  \\    /   O peration     | Version:  2112                                  |
|   \\  /    A nd           | Website:  www.openfoam.com                      |
|    \\/     M anipulation  |                                                 |
\*---------------------------------------------------------------------------*/
FoamFile
{
    version     2.0;
    format      ascii;
    arch        "LSB;label=32;scalar=64";
    class       volScalarField;
    location    "4.9";
    object      k;
}
// * * * * * * * * * * * * * * * * * * * * * * * * * * * * * * * * * * * * * //

dimensions      [0 2 -2 0 0 0 0];

internalField   nonuniform List<scalar> 
64906
(
0.000167137
0.000190411
0.000205742
0.00021395
0.000218133
0.000220178
0.000221121
0.000221512
0.000221637
0.000221637
0.000221584
0.000221516
0.000221458
0.000221418
0.000221391
0.00022137
0.000221354
0.000221343
0.00022134
0.000221346
0.00022136
0.000221378
0.000221402
0.000221434
0.000221468
0.000221474
0.000221373
0.000221017
0.000220111
0.000218095
0.000213933
0.000205739
0.000190419
0.000167147
0.000190434
0.00029515
0.000354435
0.000387233
0.000405453
0.000415268
0.000420218
0.000422421
0.000423137
0.000423105
0.000422757
0.000422341
0.000421987
0.000421737
0.000421583
0.000421492
0.00042144
0.000421415
0.000421415
0.000421438
0.000421488
0.00042157
0.000421697
0.000421873
0.000422041
0.000422017
0.000421386
0.000419378
0.000414671
0.000405086
0.000387047
0.000354369
0.000295147
0.000190463
0.000205797
0.000354477
0.000439351
0.000487792
0.000515687
0.000531235
0.000539258
0.00054277
0.000543682
0.00054322
0.000542182
0.000541074
0.000540171
0.000539562
0.0005392
0.000538992
0.000538876
0.000538825
0.000538826
0.000538879
0.000538991
0.00053918
0.000539485
0.000539943
0.000540477
0.00054075
0.000540021
0.000536986
0.000529574
0.00051462
0.000487206
0.000439094
0.000354422
0.000205843
0.00021403
0.00038732
0.000487837
0.00054657
0.000581147
0.000600701
0.000610689
0.000614638
0.000614914
0.000613184
0.000610669
0.000608229
0.000606326
0.00060509
0.000604377
0.000603964
0.000603728
0.00060362
0.000603622
0.000603731
0.000603961
0.000604345
0.000604971
0.00060598
0.000607342
0.000608587
0.000608653
0.000605695
0.000596998
0.00057871
0.000545168
0.000487166
0.000387114
0.00021408
0.000218226
0.00040558
0.000515793
0.000581233
0.000620196
0.000642149
0.000652793
0.000655896
0.000654149
0.000649694
0.000644354
0.000639561
0.000636002
0.00063382
0.000632628
0.000631918
0.000631489
0.000631288
0.00063129
0.000631494
0.000631915
0.000632588
0.000633671
0.000635566
0.000638445
0.000641751
0.00064409
0.000642923
0.00063481
0.000615317
0.000578361
0.000514353
0.000405069
0.000218256
0.000220278
0.000415438
0.000531441
0.000600957
0.000642386
0.000665153
0.000674886
0.000675345
0.000669427
0.000659882
0.00064959
0.000641077
0.000635134
0.000631802
0.000630149
0.000629077
0.000628375
0.000628037
0.00062804
0.000628382
0.000629077
0.000630111
0.000631646
0.000634661
0.000639836
0.000646654
0.000653531
0.00065675
0.000651765
0.000633504
0.000595684
0.00052873
0.000414398
0.000220254
0.000221227
0.000420455
0.000539651
0.000611301
0.000653601
0.000675645
0.000682675
0.000678098
0.000664775
0.000646302
0.000627772
0.000614368
0.000605856
0.000601749
0.000600092
0.000598686
0.000597649
0.000597145
0.000597149
0.000597659
0.000598693
0.000600068
0.000601616
0.000605413
0.000613136
0.000624732
0.000639557
0.000651181
0.000652851
0.000638683
0.000602473
0.00053506
0.000418611
0.000221104
0.000221633
0.000422776
0.000543503
0.000615931
0.000657874
0.000677853
0.000680324
0.00066772
0.000642118
0.000607929
0.000575337
0.000558554
0.000549938
0.000547052
0.000546696
0.000545197
0.000543906
0.000543292
0.000543297
0.00054392
0.000545214
0.000546695
0.000546968
0.000549597
0.000557491
0.000572473
0.000601159
0.000628068
0.000641452
0.000634684
0.000602394
0.000536458
0.00041987
0.00022136
0.000221782
0.000423697
0.000544981
0.000617374
0.000658213
0.000675252
0.000671679
0.000647813
0.000602606
0.000538332
0.000476501
0.000470552
0.00047277
0.000476237
0.000479269
0.000478414
0.000477382
0.000476909
0.000476915
0.000477398
0.000478438
0.000479291
0.000476216
0.000472589
0.000469848
0.00047424
0.000531992
0.000588482
0.000620975
0.000625042
0.000598442
0.000535193
0.000419609
0.000221334
0.000221819
0.000423976
0.000545363
0.000617411
0.000657008
0.000671112
0.000661312
0.000624346
0.000550375
0.00042327
0.000283589
0.000345231
0.000386897
0.000404237
0.000411655
0.000412693
0.00041271
0.000412663
0.000412668
0.000412727
0.00041272
0.000411692
0.000404271
0.000386895
0.000345097
0.000282746
0.000418106
0.000536495
0.000597214
0.000614085
0.000593531
0.000533133
0.000418845
0.000221206
0.000221815
0.00042404
0.000545433
0.000617243
0.000656093
0.000668463
0.000654863
0.00060876
0.000507994
0.000295808
0.000242941
0.000323592
0.000351388
0.000360076
0.000363181
0.000364154
0.000364402
0.000364405
0.000364166
0.000363201
0.000360108
0.000351435
0.000323654
0.000242965
0.000293103
0.000494633
0.00058154
0.000607354
0.000590503
0.000531803
0.000418314
0.0002211
0.000221801
0.000424094
0.000545584
0.000617488
0.00065645
0.000669132
0.000656802
0.000615885
0.000536556
0.000403601
0.000267621
0.000300377
0.000332909
0.000345967
0.000349081
0.000352518
0.000353699
0.000353943
0.000353943
0.000353699
0.000352519
0.000349078
0.00034596
0.000332871
0.000300159
0.000266692
0.000398415
0.000522605
0.000588562
0.000609222
0.000591051
0.000531984
0.000418368
0.000221065
0.000221793
0.000424198
0.000545905
0.000618191
0.000657876
0.000672078
0.000663212
0.000630741
0.00057283
0.000491388
0.000409937
0.000376014
0.000357957
0.000351125
0.00034842
0.000348683
0.000348907
0.000348933
0.00034893
0.000348899
0.000348666
0.000348385
0.000351052
0.000357757
0.000375356
0.000407762
0.000485124
0.000558583
0.000603428
0.000615697
0.000594018
0.000533355
0.000418916
0.000221133
0.00022179
0.000424335
0.000546325
0.000619117
0.000659738
0.000675712
0.000670257
0.000644386
0.000598801
0.000537204
0.000471101
0.000417086
0.000377364
0.000358668
0.000351514
0.000349345
0.000348688
0.000348478
0.000348473
0.000348672
0.000349315
0.000351459
0.000358558
0.000377085
0.000416241
0.000468498
0.000530534
0.00058439
0.00061707
0.000622791
0.000597676
0.000535169
0.000419669
0.00022123
0.000221786
0.000424468
0.000546733
0.000620006
0.000661472
0.000678908
0.000675928
0.000654076
0.00061446
0.000559967
0.000497493
0.000437067
0.000388679
0.000364191
0.000354368
0.000350918
0.000349762
0.000349392
0.000349384
0.000349738
0.000350879
0.000354303
0.000364064
0.000388368
0.000436145
0.000494726
0.000553118
0.000599942
0.000626725
0.000628459
0.000600856
0.000536829
0.000420373
0.000221308
0.000221779
0.00042457
0.000547059
0.000620707
0.000662797
0.000681239
0.000679795
0.000660114
0.00062319
0.000571208
0.000509429
0.000446424
0.00039444
0.000367322
0.000356149
0.000352084
0.000350672
0.0003502
0.000350188
0.000350642
0.000352038
0.000356078
0.000367188
0.000394115
0.000445466
0.000506586
0.000564261
0.000608588
0.000632706
0.000632283
0.000603135
0.000538063
0.000420897
0.000221354
0.000221768
0.000424632
0.000547276
0.000621169
0.000663649
0.000682684
0.000682076
0.000663456
0.000627668
0.00057653
0.00051475
0.000450591
0.000397079
0.00036882
0.000357034
0.000352687
0.000351146
0.000350601
0.000350585
0.000351109
0.000352637
0.000356958
0.000368681
0.000396746
0.000449605
0.00051187
0.000569527
0.000613007
0.000635994
0.000634514
0.000604523
0.000538832
0.000421217
0.000221367
0.000221754
0.000424656
0.000547384
0.000621398
0.000664065
0.000683372
0.000683126
0.000664933
0.000629556
0.000578667
0.000516806
0.000452197
0.000398095
0.000369403
0.000357376
0.000352914
0.00035131
0.000350713
0.000350692
0.000351268
0.00035286
0.000357298
0.000369261
0.000397758
0.000451183
0.000513908
0.000571638
0.000614865
0.00063744
0.000635532
0.000605174
0.000539198
0.000421362
0.000221359
0.000221742
0.000424649
0.000547391
0.000621412
0.000664086
0.000683401
0.000683167
0.000664986
0.000629624
0.000578747
0.000516894
0.000452282
0.00039816
0.000369441
0.000357391
0.000352911
0.000351287
0.000350659
0.000350633
0.00035124
0.000352853
0.000357311
0.000369299
0.000397823
0.000451263
0.000513999
0.00057172
0.000614934
0.000637495
0.000635574
0.000605203
0.000539216
0.000421358
0.000221338
0.000221737
0.000424615
0.000547295
0.000621208
0.000663709
0.000682769
0.000682194
0.000663613
0.00062787
0.000576774
0.000515023
0.000450851
0.000397283
0.000368942
0.000357085
0.000352683
0.000351082
0.000350457
0.000350428
0.000351033
0.000352623
0.000357004
0.000368802
0.000396953
0.000449855
0.000512154
0.000569781
0.000613217
0.000636157
0.000634635
0.000604608
0.000538883
0.000421212
0.000221316
0.00022174
0.00042455
0.000547086
0.000620762
0.000662883
0.000681365
0.000679976
0.000660367
0.000623528
0.000571633
0.000509921
0.000446868
0.000394807
0.000367544
0.000356248
0.000352088
0.000350583
0.000350007
0.00034998
0.000350533
0.000352028
0.000356169
0.00036741
0.000394492
0.000445922
0.000507106
0.000564708
0.00060894
0.000632967
0.00063247
0.000603265
0.00053814
0.000420897
0.000221289
0.000221745
0.000424445
0.000546752
0.000620052
0.000661549
0.000679034
0.000676132
0.000654393
0.000614927
0.000560602
0.000498276
0.000437773
0.000389242
0.000364516
0.000354507
0.000350917
0.00034964
0.000349169
0.000349148
0.000349593
0.000350858
0.000354431
0.000364393
0.000388956
0.000436894
0.000495564
0.00055379
0.000600422
0.000627044
0.000628667
0.000600994
0.000536912
0.000420377
0.000221238
0.000221745
0.000424292
0.000546296
0.000619088
0.00065972
0.000675736
0.000670375
0.000644672
0.000599351
0.000538092
0.000472278
0.000418161
0.000378077
0.000358971
0.000351541
0.000349169
0.000348374
0.00034808
0.000348063
0.000348333
0.000349112
0.000351465
0.000358856
0.000377835
0.000417404
0.000469776
0.000531479
0.000584928
0.00061732
0.000622894
0.000597725
0.000535196
0.000419653
0.000221152
0.000221741
0.000424087
0.00054573
0.000617936
0.000657562
0.000671754
0.000662968
0.00063072
0.000573252
0.000492471
0.000411615
0.000377479
0.000358325
0.000350736
0.000347604
0.000347565
0.000347631
0.000347582
0.000347567
0.000347587
0.00034749
0.000347486
0.000350567
0.000358093
0.000376962
0.000409609
0.00048627
0.000558866
0.000603229
0.000615368
0.00059374
0.000533181
0.00041881
0.000221044
0.000221723
0.0004238
0.000545037
0.000616675
0.000655408
0.000667939
0.000655591
0.000614909
0.000536277
0.000404697
0.000268538
0.000300541
0.000330624
0.000342324
0.00034462
0.000347613
0.000348623
0.000348798
0.000348777
0.000348548
0.000347446
0.000344284
0.000341786
0.000330002
0.000300217
0.000267594
0.000399471
0.000521755
0.000587014
0.000607744
0.000589946
0.000531299
0.000418019
0.00022095
0.000221674
0.000423306
0.00054404
0.000615196
0.00065346
0.00066534
0.00065137
0.000605115
0.000504828
0.000294493
0.000237392
0.000311945
0.000336459
0.000342971
0.000345375
0.000346167
0.000346348
0.000346296
0.000345967
0.000344874
0.000341865
0.000334412
0.000308981
0.000235161
0.000290515
0.000489389
0.000576327
0.000603202
0.000587576
0.00052999
0.000417418
0.000220902
0.00022152
0.000422261
0.000542186
0.000612862
0.000651239
0.000664257
0.000653435
0.000615442
0.000540575
0.000413392
0.000275727
0.000321326
0.000353521
0.000362426
0.000363912
0.00036375
0.000363681
0.000363642
0.000363544
0.000363277
0.000362626
0.000361165
0.000356667
0.000343823
0.000310767
0.000269423
0.000401327
0.000521092
0.000584939
0.000604993
0.000587197
0.000529126
0.000416817
0.000220815
0.000221125
0.000419939
0.000538289
0.000608077
0.000646652
0.000661639
0.000655923
0.000629337
0.000580175
0.000509837
0.000438638
0.000415759
0.000400076
0.000385166
0.000376944
0.000373513
0.000372347
0.000371981
0.000371836
0.000371716
0.000371615
0.000371872
0.000373372
0.000378235
0.000390474
0.000415363
0.000487238
0.000555387
0.000596862
0.000607661
0.000586212
0.000527191
0.000415374
0.00022056
0.000220193
0.000415024
0.000530305
0.000598177
0.000636329
0.000652973
0.000651986
0.000634863
0.000602317
0.00055693
0.000507001
0.000465492
0.000427059
0.000394395
0.000378296
0.000372088
0.000370004
0.000369369
0.000369196
0.000369221
0.000369616
0.000371287
0.000376896
0.000392582
0.000426871
0.000471838
0.000526539
0.000573638
0.000601542
0.00060516
0.000580771
0.000521592
0.000411531
0.000219796
0.000218165
0.000405321
0.000515026
0.000579222
0.000615656
0.00063285
0.000635183
0.000624767
0.000602671
0.000570264
0.000530566
0.000487935
0.000444346
0.0004067
0.000387812
0.00038034
0.000377757
0.000376958
0.000376765
0.000376881
0.000377572
0.000379998
0.000387345
0.000406469
0.000445452
0.000492059
0.000537854
0.000573728
0.000593081
0.000591932
0.000566252
0.000508722
0.000402901
0.000217926
0.000213997
0.000387222
0.000487459
0.000545399
0.00057827
0.000594514
0.000598601
0.000592788
0.000578065
0.000555042
0.000524826
0.000489652
0.00045301
0.000421482
0.000404198
0.000396788
0.000394026
0.000393116
0.000392904
0.000393085
0.000393954
0.000396672
0.000404092
0.000421539
0.000453782
0.000491483
0.000526746
0.000552997
0.000565688
0.000561544
0.00053657
0.000483367
0.000385758
0.000213883
0.000205788
0.00035451
0.000439287
0.000487331
0.000514269
0.000527848
0.000532214
0.000529469
0.00052044
0.000505425
0.000484868
0.000460163
0.000434314
0.000412267
0.000399233
0.000393146
0.000390755
0.000389947
0.000389761
0.000389934
0.000390726
0.000393103
0.000399207
0.000412362
0.000434694
0.000460774
0.000484788
0.000502067
0.000509355
0.000503946
0.000482159
0.000437068
0.000353813
0.000205771
0.000190455
0.000295243
0.000354566
0.000387276
0.000405143
0.000414104
0.000417327
0.000416401
0.000411972
0.000404134
0.000392964
0.000379183
0.000364623
0.000352127
0.000344367
0.000340535
0.000338948
0.000338384
0.000338252
0.000338387
0.000338953
0.000340542
0.000344388
0.000352203
0.000364795
0.000379362
0.000392579
0.000401723
0.0004049
0.000400297
0.000385061
0.000353754
0.000295063
0.000190491
0.000167169
0.000190509
0.000205922
0.000214198
0.000218415
0.000220429
0.000221214
0.000221221
0.000220592
0.000219302
0.0002174
0.000214935
0.00021219
0.000209736
0.00020816
0.000207345
0.000206968
0.000206792
0.000206734
0.000206799
0.000206975
0.00020735
0.000208162
0.000209738
0.000212198
0.000214936
0.000217307
0.000218897
0.000219275
0.000217965
0.000214109
0.000205974
0.000190579
0.000167212
0.000242188
0.000321682
0.000372808
0.000401662
0.00041754
0.000425958
0.000430135
0.000431967
0.000432555
0.000432524
0.00043223
0.000431875
0.000431564
0.000431336
0.000431185
0.000431088
0.000431028
0.000430999
0.000430997
0.000431023
0.000431078
0.000431166
0.000431294
0.000431462
0.000431623
0.00043162
0.000431109
0.000429436
0.000425451
0.000417215
0.00040148
0.000372723
0.000321655
0.000242197
0.00032169
0.000626218
0.000773015
0.000857144
0.000905718
0.000932862
0.000947012
0.000953438
0.000955449
0.000955114
0.000953733
0.000952104
0.000950686
0.000949645
0.000948964
0.00094854
0.000948294
0.00094818
0.00094818
0.000948291
0.000948526
0.000948911
0.000949486
0.000950253
0.000951017
0.000951175
0.000949467
0.000943708
0.000930388
0.000904048
0.000856129
0.000772466
0.000625965
0.000321666
0.000372848
0.000773094
0.000967327
0.00108185
0.0011499
0.00118887
0.00120944
0.00121854
0.00122076
0.00121917
0.00121592
0.0012124
0.00120945
0.00120735
0.00120601
0.0012052
0.00120474
0.00120452
0.00120452
0.00120473
0.00120517
0.00120591
0.00120705
0.00120866
0.00121048
0.00121156
0.00120989
0.00120215
0.00118334
0.00114611
0.00107952
0.000966059
0.000772525
0.000372774
0.000401739
0.000857303
0.00108195
0.00121712
0.00129887
0.00134612
0.00137065
0.00138038
0.0013808
0.00137596
0.00136894
0.00136198
0.0013564
0.00135259
0.00135026
0.00134886
0.00134804
0.00134767
0.00134767
0.00134804
0.00134882
0.00135011
0.00135216
0.00135527
0.00135928
0.00136292
0.00136342
0.00135628
0.00133514
0.00129128
0.00121238
0.00107933
0.000856099
0.000401553
0.000417659
0.000905975
0.00115017
0.0012991
0.0013899
0.00144198
0.00146756
0.00147496
0.00147039
0.00145892
0.001445
0.00143216
0.00142237
0.00141606
0.00141239
0.00141017
0.00140884
0.00140822
0.00140822
0.00140884
0.00141012
0.00141221
0.00141553
0.00142098
0.00142884
0.00143762
0.0014437
0.00144106
0.00142176
0.00137588
0.00129027
0.0011452
0.000903635
0.000417235
0.000426125
0.000933272
0.00118945
0.00134685
0.00144267
0.00149613
0.00151923
0.00152026
0.00150586
0.00148245
0.00145679
0.00143479
0.00141897
0.00140956
0.00140452
0.00140132
0.0013993
0.00139834
0.00139834
0.0013993
0.00140127
0.00140433
0.001409
0.00141746
0.00143108
0.00144848
0.00146525
0.0014729
0.00146107
0.0014185
0.00133162
0.00118079
0.000929101
0.000425291
0.000430367
0.000947699
0.00121062
0.00137244
0.00146985
0.00152131
0.00153797
0.00152735
0.00149605
0.00145232
0.00140763
0.00137314
0.00135047
0.00133854
0.001333
0.0013289
0.00132607
0.00132469
0.0013247
0.00132607
0.00132887
0.00133285
0.00133803
0.00134901
0.00136938
0.00139889
0.00143388
0.00146053
0.00146385
0.00143082
0.00134803
0.0011967
0.000940883
0.00042891
0.000432297
0.000954617
0.00122081
0.00138416
0.00148048
0.00152699
0.00153315
0.00150446
0.00144595
0.00136772
0.00129186
0.00124568
0.00122049
0.00121006
0.00120678
0.00120244
0.001199
0.00119734
0.00119734
0.00119901
0.00120244
0.00120669
0.00120968
0.00121927
0.00124226
0.0012833
0.00134875
0.00140874
0.00143792
0.00142156
0.00134785
0.00120019
0.000944425
0.000430017
0.000433044
0.000957431
0.0012248
0.0013879
0.00148149
0.00152116
0.00151369
0.00146031
0.00135992
0.00121904
0.0010819
0.0010463
0.00104082
0.00104328
0.00104683
0.0010445
0.00104181
0.00104047
0.00104048
0.00104183
0.00104452
0.00104681
0.00104308
0.00104005
0.00104375
0.0010744
0.00120028
0.00132163
0.00139158
0.00139901
0.00133818
0.00119681
0.000943542
0.000429837
0.000433249
0.00095827
0.0012258
0.00138797
0.00147854
0.00151142
0.00149013
0.0014089
0.00125019
0.000980689
0.000599998
0.000756863
0.000839507
0.000873595
0.0008859
0.000890326
0.000890859
0.000890679
0.000890686
0.000890881
0.000890361
0.000885934
0.000873583
0.000839303
0.000755986
0.000595958
0.000963148
0.00121117
0.00133854
0.00137333
0.001326
0.00119126
0.000941106
0.000429214
0.000433268
0.000958401
0.00122588
0.00138735
0.00147601
0.00150474
0.00147496
0.00137515
0.00116575
0.000642927
0.000454848
0.000671086
0.000731586
0.00075176
0.000757491
0.000759002
0.000759341
0.000759347
0.00075902
0.000757523
0.000751807
0.000731642
0.000671128
0.000454747
0.000630759
0.00112645
0.00130384
0.00135699
0.00131802
0.00118736
0.000939231
0.000428744
0.000433268
0.000958474
0.0012261
0.00138763
0.00147625
0.00150514
0.00147701
0.00138516
0.00121114
0.000920227
0.000538152
0.000629108
0.000701679
0.00073312
0.00074632
0.000747434
0.000747292
0.0007472
0.000747199
0.000747289
0.000747427
0.000746304
0.000733069
0.000701484
0.00062824
0.000534054
0.0009026
0.00117167
0.00131395
0.00135893
0.00131809
0.00118713
0.00093897
0.000428709
0.000433303
0.000958716
0.00122677
0.00138904
0.00147906
0.0015109
0.00148951
0.0014139
0.00128045
0.00109292
0.000896882
0.000793759
0.000735444
0.000713096
0.000705927
0.000704706
0.000704528
0.00070446
0.000704459
0.000704522
0.000704688
0.000705873
0.000712925
0.000734839
0.000791566
0.000889704
0.00107402
0.00124117
0.00134318
0.00137182
0.00132406
0.00118996
0.000940223
0.000429061
0.000433366
0.000959095
0.00122775
0.00139108
0.00148305
0.00151854
0.00150413
0.00144189
0.00133316
0.00118537
0.00102271
0.000882208
0.000773461
0.000720906
0.000701314
0.000695425
0.000693827
0.000693423
0.000693421
0.000693817
0.000695397
0.000701232
0.000720656
0.000772632
0.000879457
0.00101466
0.00116598
0.00129399
0.00137155
0.00138685
0.00133201
0.0011941
0.0009422
0.000429578
0.000433431
0.000959503
0.00122877
0.00139314
0.00148693
0.00152554
0.00151637
0.00146259
0.00136646
0.00123387
0.00107981
0.000927418
0.000799042
0.000732186
0.000705799
0.000697028
0.000694444
0.000693787
0.000693784
0.000694433
0.000696997
0.000705707
0.000731903
0.00079812
0.000924448
0.00107141
0.00121424
0.00132728
0.00139242
0.00139932
0.00133921
0.00119807
0.00094417
0.000430066
0.000433478
0.000959847
0.0012296
0.00139482
0.00148998
0.00153079
0.00152494
0.00147586
0.00138563
0.00125875
0.00110675
0.000949513
0.000812958
0.000739607
0.000709836
0.000699621
0.000696537
0.000695749
0.000695746
0.000696526
0.000699589
0.00070974
0.000739312
0.000812
0.000946446
0.00109818
0.00123896
0.00134639
0.00140572
0.00140796
0.00134451
0.00120112
0.000945712
0.000430424
0.000433503
0.000960081
0.00123018
0.00139594
0.00149198
0.0015341
0.0015301
0.00148338
0.00139571
0.00127085
0.00111911
0.00095963
0.000819572
0.000743378
0.000712061
0.000701187
0.000697876
0.000697025
0.000697022
0.000697864
0.000701155
0.000711963
0.000743076
0.000818599
0.000956524
0.00111045
0.00125096
0.00135639
0.00141319
0.0014131
0.00134781
0.00120307
0.000946706
0.000430636
0.000433506
0.000960197
0.00123046
0.0013965
0.00149296
0.00153569
0.00153249
0.00148673
0.0014
0.00127577
0.00112394
0.000963517
0.000822151
0.000744877
0.000712958
0.000701827
0.000698424
0.000697545
0.000697542
0.000698412
0.000701793
0.000712859
0.000744572
0.000821174
0.000960413
0.00111524
0.00125583
0.00136064
0.0014165
0.00141547
0.00134937
0.00120401
0.00094718
0.000430722
0.000433494
0.000960195
0.00123047
0.00139651
0.00149298
0.00153572
0.00153254
0.0014868
0.0014001
0.00127588
0.00112406
0.000963639
0.000822272
0.000744953
0.000712996
0.000701844
0.000698432
0.000697548
0.000697543
0.000698419
0.00070181
0.000712896
0.000744649
0.000821297
0.000960544
0.00111536
0.00125594
0.00136073
0.00141657
0.00141551
0.0013494
0.00120402
0.000947185
0.000430707
0.00043347
0.000960076
0.00123019
0.00139597
0.00149203
0.00153419
0.00153024
0.00148358
0.00139598
0.0012712
0.00111949
0.000960024
0.000819954
0.000743626
0.000712193
0.000701259
0.00069792
0.000697054
0.00069705
0.000697908
0.000701227
0.000712097
0.000743331
0.000818996
0.00095695
0.00111084
0.0012513
0.00135666
0.00141338
0.00141323
0.0013479
0.00120312
0.000946718
0.000430597
0.000433433
0.00095983
0.0012296
0.00139483
0.00149003
0.00153089
0.00152512
0.00147616
0.00138607
0.00125934
0.00110745
0.000950283
0.000813673
0.000740079
0.00071011
0.000699794
0.000696668
0.000695861
0.000695858
0.00069666
0.000699769
0.000710026
0.000739804
0.00081275
0.000947258
0.0010989
0.00123955
0.00134681
0.00140599
0.00140812
0.00134461
0.00120117
0.00094572
0.00043037
0.000433372
0.000959447
0.0012287
0.00139307
0.00148686
0.00152552
0.00151646
0.00146287
0.001367
0.00123473
0.00108093
0.000928681
0.000800158
0.000732895
0.000706211
0.000697291
0.00069465
0.000693975
0.000693975
0.000694649
0.000697278
0.000706146
0.000732654
0.000799307
0.000925794
0.00107257
0.00121509
0.00132777
0.00139262
0.00139936
0.00133919
0.00119804
0.000944133
0.000429997
0.000433282
0.000958926
0.00122748
0.00139071
0.0014826
0.0015181
0.0015038
0.00144184
0.00133361
0.00118647
0.00102438
0.00088407
0.000774797
0.000721491
0.000701441
0.000695316
0.000693638
0.000693217
0.00069322
0.000693643
0.000695309
0.000701381
0.000721272
0.000774053
0.000881467
0.00101641
0.00116702
0.00129423
0.00137126
0.00138638
0.00133157
0.00119378
0.000942009
0.000429476
0.000433157
0.000958258
0.00122599
0.00138792
0.00147765
0.00150933
0.00148797
0.00141272
0.00128014
0.00109403
0.000899198
0.000795957
0.000735646
0.000711689
0.000703694
0.00070203
0.000701717
0.000701626
0.000701625
0.000701706
0.000701974
0.000703522
0.000711312
0.00073489
0.000793892
0.000892126
0.0010749
0.00124019
0.00134132
0.0013699
0.0013225
0.0011889
0.000939625
0.000428869
0.000432966
0.00095733
0.00122412
0.00138482
0.00147269
0.001501
0.00147257
0.00138094
0.00120816
0.000920456
0.000539737
0.000628158
0.000694861
0.000722926
0.000734228
0.000734561
0.000734245
0.000734141
0.000734124
0.000734156
0.000734271
0.000733499
0.000721536
0.000692986
0.000626647
0.000535519
0.000901985
0.00116663
0.00130788
0.00135352
0.00131397
0.00118437
0.000937433
0.000428307
0.000432599
0.000955741
0.00122137
0.00138105
0.00146804
0.0014953
0.00146427
0.00136362
0.0011545
0.000635816
0.000435831
0.000636586
0.000688882
0.000703406
0.000707901
0.000709404
0.000709819
0.000709716
0.000708967
0.00070668
0.000700498
0.000683211
0.000627892
0.000428518
0.000618879
0.00110899
0.00128782
0.0013442
0.00130868
0.00118117
0.000935738
0.000427882
0.000431765
0.00095246
0.00121626
0.00137491
0.00146224
0.00149205
0.00146762
0.00138284
0.00121991
0.000945483
0.000565121
0.000681376
0.000743145
0.000756772
0.00075495
0.000756793
0.000757697
0.000757895
0.000757667
0.000756702
0.000753877
0.000747567
0.000740926
0.000715669
0.000648884
0.000541394
0.000906758
0.00116543
0.00130322
0.00134703
0.00130719
0.00117867
0.000933836
0.000427406
0.000429845
0.000945471
0.00120583
0.00136262
0.00145051
0.00148472
0.00147127
0.00141007
0.00129806
0.00113862
0.000971909
0.000894816
0.000844588
0.000800654
0.000776095
0.000767413
0.000764732
0.000763915
0.000763551
0.000763099
0.000762391
0.000762465
0.000768725
0.000786
0.00082728
0.000907527
0.00107754
0.00123239
0.00132645
0.00135142
0.00130387
0.00117325
0.000929449
0.000426177
0.000425697
0.000931308
0.00118517
0.00133798
0.00142516
0.00146319
0.00146011
0.00141916
0.00134199
0.00123407
0.00111278
0.00100465
0.000904753
0.000817501
0.000773221
0.000756334
0.000750763
0.000749084
0.000748628
0.000748676
0.000749687
0.000754241
0.00077017
0.000814137
0.000906676
0.00102367
0.00115662
0.0012682
0.0013341
0.00134387
0.0012899
0.00115875
0.000918496
0.000422859
0.00041736
0.000904466
0.00114684
0.0012921
0.00137591
0.00141548
0.00141993
0.00139382
0.00133954
0.00126014
0.00116214
0.00105522
0.000945616
0.000847773
0.000796633
0.000776177
0.000769074
0.000766854
0.000766323
0.000766669
0.000768623
0.000775386
0.000795718
0.000847857
0.000949717
0.00106657
0.00117876
0.00126558
0.00131279
0.00131201
0.00125488
0.00112679
0.000894963
0.000415356
0.000401566
0.000856291
0.00107972
0.00121229
0.00128896
0.00132693
0.00133564
0.00131998
0.00128223
0.00122388
0.00114762
0.0010588
0.000966195
0.000885893
0.000840346
0.00082024
0.000812628
0.000810078
0.000809477
0.000810015
0.000812483
0.000820026
0.000840268
0.000886648
0.000968909
0.00106385
0.00115176
0.00121706
0.00124944
0.00124172
0.00118545
0.00106568
0.000849859
0.000400311
0.00037278
0.000772519
0.000966079
0.00107903
0.00114383
0.00117668
0.0011865
0.00117797
0.0011531
0.00111274
0.00105821
0.000993193
0.000925371
0.000867326
0.000832186
0.000815377
0.000808504
0.000806043
0.000805457
0.000806052
0.00080852
0.000815427
0.000832387
0.000867983
0.000926819
0.000995013
0.00105762
0.00110298
0.00112322
0.00111211
0.00106161
0.00095734
0.000768702
0.00037213
0.000321694
0.000625977
0.000772524
0.00085592
0.000902829
0.000926638
0.000934683
0.000930744
0.000916379
0.000892044
0.000858377
0.00081767
0.000775134
0.00073877
0.000715896
0.000704398
0.000699475
0.000697646
0.000697209
0.000697686
0.000699556
0.000704535
0.000716144
0.000739257
0.000775932
0.000818365
0.000857108
0.000884592
0.000895465
0.000885015
0.000846607
0.000768134
0.000624199
0.000321474
0.000242222
0.000321692
0.000372816
0.00040159
0.000417182
0.000424911
0.000427686
0.00042696
0.00042328
0.000416721
0.000407357
0.000395761
0.000383466
0.000372914
0.000366307
0.000363003
0.000361588
0.000361056
0.000360926
0.000361068
0.000361608
0.000363032
0.000366354
0.000373007
0.000383631
0.000395909
0.000407012
0.000414679
0.000417264
0.00041313
0.000399677
0.000372042
0.000321457
0.000242245
0.000269685
0.000387573
0.0004635
0.000507346
0.000532278
0.000545969
0.000552993
0.000556155
0.000557164
0.000557055
0.000556451
0.000555728
0.000555095
0.000554631
0.000554326
0.000554135
0.000554023
0.000553971
0.00055397
0.000554019
0.000554124
0.000554296
0.000554552
0.000554893
0.000555227
0.000555267
0.000554404
0.000551549
0.000544899
0.000531567
0.000506924
0.000463279
0.000387484
0.00026969
0.000387577
0.000791129
0.00098344
0.00109625
0.00116306
0.00120131
0.0012217
0.00123111
0.00123404
0.00123341
0.00123114
0.00122846
0.00122609
0.00122434
0.00122317
0.00122244
0.00122201
0.00122182
0.00122181
0.001222
0.0012224
0.00122306
0.00122403
0.00122532
0.0012266
0.00122694
0.00122448
0.00121612
0.00119705
0.0011601
0.00109438
0.00098237
0.000790597
0.000387484
0.00046354
0.000983544
0.00123081
0.00137928
0.00146948
0.00152221
0.00155053
0.00156321
0.00156623
0.00156377
0.0015588
0.0015534
0.0015488
0.00154547
0.00154332
0.001542
0.00154124
0.00154089
0.00154088
0.00154122
0.00154193
0.00154313
0.00154494
0.00154748
0.00155031
0.00155204
0.00154983
0.00153916
0.00151344
0.00146332
0.00137533
0.00122854
0.000982426
0.000463307
0.000507436
0.00109647
0.00137943
0.00155208
0.00165854
0.00172115
0.00175413
0.0017673
0.00176771
0.00176071
0.00175051
0.00174024
0.00173188
0.00172608
0.00172247
0.00172027
0.001719
0.00171842
0.00171841
0.00171898
0.00172018
0.0017222
0.00172534
0.00173005
0.00173602
0.00174141
0.00174236
0.00173285
0.00170465
0.00164686
0.00154453
0.00137501
0.00109425
0.000506933
0.000532428
0.00116344
0.00146989
0.00165889
0.00177609
0.00184434
0.00187824
0.00188808
0.00188172
0.00186575
0.00184609
0.00182757
0.00181316
0.00180372
0.00179814
0.00179473
0.00179272
0.00179178
0.00179178
0.00179269
0.00179463
0.00179781
0.00180283
0.00181094
0.00182243
0.00183507
0.00184372
0.00184043
0.00181508
0.00175535
0.00164539
0.0014619
0.00115934
0.00053143
0.000546203
0.00120196
0.00152312
0.00172228
0.00184537
0.00191496
0.00194536
0.00194673
0.00192743
0.00189563
0.00186001
0.00182838
0.00180504
0.00179086
0.00178314
0.00177823
0.00177518
0.00177374
0.00177374
0.00177516
0.00177813
0.00178281
0.00178992
0.00180262
0.00182267
0.0018476
0.00187077
0.00188112
0.00186571
0.00181067
0.00169971
0.00150966
0.00119493
0.000544389