/*--------------------------------*- C++ -*----------------------------------*\
| =========                 |                                                 |
| \\      /  F ield         | OpenFOAM: The Open Source CFD Toolbox           |
|  \\    /   O peration     | Version:  2112                                  |
|   \\  /    A nd           | Website:  www.openfoam.com                      |
|    \\/     M anipulation  |                                                 |
\*---------------------------------------------------------------------------*/
FoamFile
{
    version     2.0;
    format      ascii;
    arch        "LSB;label=32;scalar=64";
    class       volScalarField;
    location    "4.9";
    object      nut;
}
// * * * * * * * * * * * * * * * * * * * * * * * * * * * * * * * * * * * * * //

dimensions      [0 2 -1 0 0 0 0];

internalField   nonuniform List<scalar> 
64906
(
3.27067e-05
3.49468e-05
3.63551e-05
3.70933e-05
3.74679e-05
3.76519e-05
3.77375e-05
3.77733e-05
3.77849e-05
3.77848e-05
3.77798e-05
3.77733e-05
3.77678e-05
3.77639e-05
3.77613e-05
3.77593e-05
3.77578e-05
3.77569e-05
3.77566e-05
3.77572e-05
3.77584e-05
3.77601e-05
3.77624e-05
3.77655e-05
3.77688e-05
3.77694e-05
3.77601e-05
3.77275e-05
3.76453e-05
3.74641e-05
3.70915e-05
3.63547e-05
3.49475e-05
3.27077e-05
3.49491e-05
4.35656e-05
4.77808e-05
4.9975e-05
5.11634e-05
5.17985e-05
5.21191e-05
5.22625e-05
5.23093e-05
5.23068e-05
5.22832e-05
5.2255e-05
5.22308e-05
5.22137e-05
5.2203e-05
5.21966e-05
5.2193e-05
5.21913e-05
5.21913e-05
5.21929e-05
5.21963e-05
5.2202e-05
5.22108e-05
5.22229e-05
5.22343e-05
5.2233e-05
5.21918e-05
5.20613e-05
5.17567e-05
5.1137e-05
4.99609e-05
4.77752e-05
4.3565e-05
3.49517e-05
3.63602e-05
4.77838e-05
5.32392e-05
5.61322e-05
5.77441e-05
5.86307e-05
5.90869e-05
5.9287e-05
5.93389e-05
5.93117e-05
5.92508e-05
5.91855e-05
5.91318e-05
5.90953e-05
5.90733e-05
5.90606e-05
5.90536e-05
5.90504e-05
5.90505e-05
5.90537e-05
5.90605e-05
5.9072e-05
5.90904e-05
5.91177e-05
5.91493e-05
5.91655e-05
5.91241e-05
5.89512e-05
5.853e-05
5.76777e-05
5.6094e-05
5.32209e-05
4.77788e-05
3.63643e-05
3.71005e-05
4.99809e-05
5.61349e-05
5.94532e-05
6.13348e-05
6.23812e-05
6.29129e-05
6.3123e-05
6.31374e-05
6.30438e-05
6.2907e-05
6.27733e-05
6.26681e-05
6.25991e-05
6.25588e-05
6.25354e-05
6.25221e-05
6.2516e-05
6.2516e-05
6.25222e-05
6.25352e-05
6.25568e-05
6.2592e-05
6.2648e-05
6.27229e-05
6.27907e-05
6.27946e-05
6.26368e-05
6.21735e-05
6.11945e-05
5.93688e-05
5.60912e-05
4.9965e-05
3.71047e-05
3.74762e-05
5.11718e-05
5.77504e-05
6.13397e-05
6.33918e-05
6.45263e-05
6.50726e-05
6.52318e-05
6.51419e-05
6.49109e-05
6.46317e-05
6.43786e-05
6.41886e-05
6.40709e-05
6.40058e-05
6.39669e-05
6.39436e-05
6.39327e-05
6.39328e-05
6.39438e-05
6.39666e-05
6.40033e-05
6.40622e-05
6.4164e-05
6.43169e-05
6.44904e-05
6.46118e-05
6.45513e-05
6.41333e-05
6.31237e-05
6.11747e-05
5.76611e-05
5.1135e-05
3.74783e-05
3.76608e-05
5.18099e-05
5.8643e-05
6.23957e-05
6.45393e-05
6.56937e-05
6.61839e-05
6.62079e-05
6.59099e-05
6.54243e-05
6.48942e-05
6.44492e-05
6.41343e-05
6.39552e-05
6.3865e-05
6.38068e-05
6.37691e-05
6.3751e-05
6.37511e-05
6.37694e-05
6.38067e-05
6.38627e-05
6.39461e-05
6.41076e-05
6.43807e-05
6.47354e-05
6.50878e-05
6.52503e-05
6.49962e-05
6.40649e-05
6.21015e-05
5.84798e-05
5.17374e-05
3.76576e-05
3.77471e-05
5.21352e-05
5.91105e-05
6.29473e-05
6.51162e-05
6.62238e-05
6.65758e-05
6.63499e-05
6.56827e-05
6.47436e-05
6.37832e-05
6.3072e-05
6.26113e-05
6.23844e-05
6.22907e-05
6.22128e-05
6.21561e-05
6.21287e-05
6.21289e-05
6.21566e-05
6.2213e-05
6.22891e-05
6.23764e-05
6.25856e-05
6.30024e-05
6.36158e-05
6.4382e-05
6.4972e-05
6.50533e-05
6.43325e-05
6.24633e-05
5.88391e-05
5.20094e-05
3.77344e-05
3.77844e-05
5.22868e-05
5.9331e-05
6.31952e-05
6.53376e-05
6.63386e-05
6.64646e-05
6.58399e-05
6.45486e-05
6.27804e-05
6.10399e-05
6.01053e-05
5.96086e-05
5.94343e-05
5.94072e-05
5.93196e-05
5.92456e-05
5.92107e-05
5.9211e-05
5.92464e-05
5.93204e-05
5.94069e-05
5.94289e-05
5.95877e-05
6.00422e-05
6.08749e-05
6.24056e-05
6.37999e-05
6.44782e-05
6.41294e-05
6.24605e-05
5.89191e-05
5.20911e-05
3.77577e-05
3.77983e-05
5.23476e-05
5.94165e-05
6.32739e-05
6.53577e-05
6.62122e-05
6.60391e-05
6.48459e-05
6.2522e-05
5.90626e-05
5.55238e-05
5.51244e-05
5.52135e-05
5.53974e-05
5.55688e-05
5.55118e-05
5.54477e-05
5.54187e-05
5.5419e-05
5.54486e-05
5.55132e-05
5.55699e-05
5.53957e-05
5.52013e-05
5.50785e-05
5.53803e-05
5.86888e-05
6.17437e-05
6.34309e-05
6.36336e-05
6.22513e-05
5.88479e-05
5.20744e-05
3.77555e-05
3.78018e-05
5.23664e-05
5.94392e-05
6.3277e-05
6.52977e-05
6.60066e-05
6.55225e-05
6.36528e-05
5.97405e-05
5.23558e-05
4.28051e-05
4.7162e-05
4.98873e-05
5.09806e-05
5.14475e-05
5.15047e-05
5.15023e-05
5.14983e-05
5.14986e-05
5.15033e-05
5.15064e-05
5.14498e-05
5.09826e-05
4.98864e-05
4.71511e-05
4.27352e-05
5.20117e-05
5.89389e-05
6.21935e-05
6.30644e-05
6.19891e-05
5.87306e-05
5.20247e-05
3.77439e-05
3.78015e-05
5.23708e-05
5.94435e-05
6.32683e-05
6.52507e-05
6.58726e-05
6.51958e-05
6.28432e-05
5.73799e-05
4.37435e-05
3.95231e-05
4.55685e-05
4.74781e-05
4.80607e-05
4.82678e-05
4.83327e-05
4.83493e-05
4.83496e-05
4.83335e-05
4.82693e-05
4.80629e-05
4.74813e-05
4.55728e-05
3.95248e-05
4.35268e-05
5.6576e-05
6.13594e-05
6.27089e-05
6.18249e-05
5.86536e-05
5.19896e-05
3.77343e-05
3.78003e-05
5.23743e-05
5.94519e-05
6.32807e-05
6.52673e-05
6.59025e-05
6.52861e-05
6.3199e-05
5.89528e-05
5.10742e-05
4.153e-05
4.38818e-05
4.61569e-05
4.70428e-05
4.72469e-05
4.74846e-05
4.75667e-05
4.75838e-05
4.75838e-05
4.75667e-05
4.74847e-05
4.72467e-05
4.70423e-05
4.61539e-05
4.38644e-05
4.14513e-05
5.07205e-05
5.8136e-05
6.17178e-05
6.27988e-05
6.18498e-05
5.86616e-05
5.19921e-05
3.77309e-05
3.77997e-05
5.23812e-05
5.947e-05
6.3317e-05
6.53379e-05
6.60456e-05
6.55993e-05
6.39473e-05
6.08973e-05
5.6338e-05
5.1375e-05
4.91079e-05
4.78457e-05
4.7356e-05
4.71599e-05
4.7178e-05
4.71945e-05
4.71967e-05
4.71965e-05
4.71939e-05
4.71769e-05
4.71574e-05
4.73508e-05
4.78312e-05
4.90609e-05
5.12267e-05
5.59511e-05
6.00902e-05
6.24846e-05
6.31279e-05
6.20037e-05
5.87372e-05
5.20268e-05
3.77368e-05
3.77995e-05
5.23902e-05
5.94937e-05
6.33655e-05
6.54311e-05
6.62239e-05
6.59449e-05
6.46306e-05
6.22548e-05
5.88992e-05
5.5074e-05
5.17308e-05
4.91288e-05
4.78542e-05
4.73564e-05
4.72048e-05
4.71592e-05
4.71447e-05
4.71443e-05
4.7158e-05
4.72027e-05
4.73526e-05
4.78464e-05
4.9109e-05
5.16733e-05
5.49083e-05
5.85054e-05
6.14568e-05
6.3184e-05
6.34901e-05
6.21953e-05
5.88387e-05
5.20751e-05
3.77456e-05
3.77992e-05
5.2399e-05
5.9517e-05
6.34124e-05
6.55185e-05
6.63815e-05
6.62237e-05
6.51137e-05
6.30616e-05
6.01331e-05
5.65983e-05
5.29626e-05
4.98657e-05
4.82221e-05
4.75458e-05
4.73057e-05
4.72249e-05
4.7199e-05
4.71984e-05
4.72232e-05
4.73029e-05
4.75412e-05
4.82131e-05
4.98439e-05
5.29013e-05
5.6427e-05
5.97372e-05
6.22684e-05
6.36767e-05
6.37799e-05
6.23628e-05
5.89323e-05
5.21206e-05
3.77529e-05
3.77987e-05
5.24059e-05
5.95358e-05
6.34497e-05
6.55859e-05
6.64972e-05
6.64144e-05
6.54148e-05
6.35091e-05
6.07356e-05
5.72771e-05
5.35321e-05
5.02389e-05
4.84316e-05
4.76657e-05
4.73833e-05
4.72846e-05
4.72515e-05
4.72507e-05
4.72825e-05
4.73801e-05
4.76606e-05
4.8422e-05
5.02163e-05
5.3469e-05
5.71032e-05
6.03382e-05
6.27172e-05
6.39819e-05
6.39761e-05
6.24836e-05
5.90023e-05
5.21548e-05
3.77572e-05
3.77978e-05
5.24101e-05
5.95484e-05
6.34744e-05
6.56295e-05
6.65694e-05
6.65275e-05
6.5582e-05
6.37388e-05
6.10204e-05
5.75789e-05
5.3785e-05
5.04101e-05
4.85323e-05
4.77257e-05
4.74241e-05
4.73164e-05
4.72782e-05
4.7277e-05
4.73138e-05
4.74205e-05
4.77204e-05
4.85225e-05
5.03871e-05
5.37207e-05
5.74036e-05
6.06217e-05
6.29467e-05
6.41501e-05
6.40911e-05
6.25575e-05
5.90463e-05
5.21759e-05
3.77586e-05
3.77966e-05
5.24118e-05
5.95547e-05
6.34868e-05
6.56508e-05
6.66039e-05
6.65798e-05
6.56561e-05
6.3836e-05
6.1135e-05
5.76957e-05
5.38826e-05
5.04763e-05
4.85717e-05
4.77492e-05
4.74396e-05
4.73275e-05
4.72856e-05
4.72841e-05
4.73245e-05
4.74357e-05
4.77437e-05
4.85617e-05
5.0453e-05
5.38169e-05
5.75198e-05
6.07356e-05
6.30435e-05
6.42244e-05
6.41438e-05
6.25924e-05
5.90673e-05
5.21855e-05
3.77579e-05
3.77955e-05
5.24113e-05
5.9555e-05
6.34875e-05
6.56519e-05
6.66053e-05
6.65818e-05
6.56588e-05
6.38395e-05
6.11394e-05
5.77008e-05
5.38879e-05
5.04807e-05
4.85744e-05
4.77503e-05
4.74394e-05
4.73258e-05
4.72818e-05
4.72799e-05
4.73225e-05
4.74353e-05
4.77446e-05
4.85643e-05
5.04574e-05
5.38218e-05
5.7525e-05
6.07402e-05
6.30472e-05
6.42272e-05
6.41459e-05
6.2594e-05
5.90683e-05
5.21853e-05
3.77561e-05
3.77951e-05
5.2409e-05
5.95494e-05
6.34764e-05
6.56324e-05
6.65736e-05
6.65333e-05
6.55899e-05
6.37494e-05
6.10338e-05
5.75948e-05
5.3801e-05
5.04237e-05
4.85407e-05
4.77293e-05
4.74237e-05
4.73119e-05
4.7268e-05
4.7266e-05
4.73084e-05
4.74195e-05
4.77236e-05
4.85308e-05
5.04009e-05
5.37362e-05
5.74202e-05
6.06357e-05
6.29578e-05
6.41585e-05
6.40973e-05
6.25621e-05
5.90491e-05
5.21756e-05
3.7754e-05
3.77953e-05
5.24046e-05
5.95372e-05
6.34525e-05
6.55901e-05
6.65034e-05
6.64233e-05
6.54275e-05
6.35268e-05
6.0759e-05
5.73058e-05
5.35597e-05
5.02635e-05
4.84469e-05
4.76726e-05
4.73835e-05
4.72782e-05
4.72378e-05
4.72359e-05
4.72747e-05
4.73792e-05
4.76669e-05
4.84374e-05
5.02416e-05
5.34976e-05
5.71336e-05
6.03628e-05
6.27358e-05
6.39953e-05
6.39856e-05
6.24903e-05
5.90066e-05
5.21548e-05
3.77514e-05
3.77956e-05
5.23974e-05
5.95179e-05
6.34145e-05
6.5522e-05
6.63874e-05
6.62334e-05
6.51295e-05
6.30859e-05
6.01682e-05
5.66445e-05
5.30072e-05
4.99035e-05
4.82446e-05
4.75553e-05
4.73053e-05
4.72159e-05
4.71829e-05
4.71814e-05
4.72126e-05
4.73011e-05
4.755e-05
4.82358e-05
4.98834e-05
5.29486e-05
5.64764e-05
5.97744e-05
6.22936e-05
6.36928e-05
6.37902e-05
6.23697e-05
5.89366e-05
5.21208e-05
3.77466e-05
3.77955e-05
5.23871e-05
5.94915e-05
6.33631e-05
6.5429e-05
6.62238e-05
6.59495e-05
6.46441e-05
6.22834e-05
5.8949e-05
5.51451e-05
5.18002e-05
4.91771e-05
4.78749e-05
4.73576e-05
4.71916e-05
4.7136e-05
4.71154e-05
4.71143e-05
4.7133e-05
4.71875e-05
4.73522e-05
4.78666e-05
4.91599e-05
5.17484e-05
5.49856e-05
5.85586e-05
6.14849e-05
6.31958e-05
6.34941e-05
6.21968e-05
5.88394e-05
5.20736e-05
3.77386e-05
3.77949e-05
5.23733e-05
5.94588e-05
6.33017e-05
6.53194e-05
6.60265e-05
6.5584e-05
6.39434e-05
6.09182e-05
5.6401e-05
5.14834e-05
4.92072e-05
4.78707e-05
4.73272e-05
4.71003e-05
4.70967e-05
4.71017e-05
4.70985e-05
4.70975e-05
4.70986e-05
4.70913e-05
4.70917e-05
4.7315e-05
4.78537e-05
4.91697e-05
5.1346e-05
5.60178e-05
6.01033e-05
6.24709e-05
6.31075e-05
6.19862e-05
5.87256e-05
5.2019e-05
3.77288e-05
3.77932e-05
5.2354e-05
5.94185e-05
6.32341e-05
6.52094e-05
6.58368e-05
6.52184e-05
6.31417e-05
5.89322e-05
5.11435e-05
4.16032e-05
4.38928e-05
4.59886e-05
4.67801e-05
4.69269e-05
4.71345e-05
4.72049e-05
4.72171e-05
4.72156e-05
4.71995e-05
4.71225e-05
4.69027e-05
4.67414e-05
4.59429e-05
4.38668e-05
4.15231e-05
5.0787e-05
5.80816e-05
6.16277e-05
6.27142e-05
6.17852e-05
5.8619e-05
5.19676e-05
3.77203e-05
3.77883e-05
5.23208e-05
5.93603e-05
6.31537e-05
6.5108e-05
6.5705e-05
6.50064e-05
6.26385e-05
5.71853e-05
4.36371e-05
3.90438e-05
4.47021e-05
4.64132e-05
4.6855e-05
4.70187e-05
4.7073e-05
4.70854e-05
4.70817e-05
4.70587e-05
4.6983e-05
4.67761e-05
4.62661e-05
4.44808e-05
3.88514e-05
4.33202e-05
5.62542e-05
6.10632e-05
6.24768e-05
6.16578e-05
5.85438e-05
5.19279e-05
3.77157e-05
3.77739e-05
5.22515e-05
5.92526e-05
6.30267e-05
6.49902e-05
6.56451e-05
6.5104e-05
6.31664e-05
5.91717e-05
5.17036e-05
4.21731e-05
4.54303e-05
4.76051e-05
4.81793e-05
4.82698e-05
4.82517e-05
4.82445e-05
4.82411e-05
4.82343e-05
4.82165e-05
4.81742e-05
4.80809e-05
4.77826e-05
4.69272e-05
4.46534e-05
4.16656e-05
5.09039e-05
5.80401e-05
6.15122e-05
6.25646e-05
6.16333e-05
5.84918e-05
5.18875e-05
3.77074e-05
3.77376e-05
5.20995e-05
5.9029e-05
6.2769e-05
6.47497e-05
6.55048e-05
6.52174e-05
6.38644e-05
6.12877e-05
5.74055e-05
5.31825e-05
5.17011e-05
5.06542e-05
4.96598e-05
4.91058e-05
4.88716e-05
4.87914e-05
4.87661e-05
4.87562e-05
4.87484e-05
4.8743e-05
4.87639e-05
4.88715e-05
4.92149e-05
5.00594e-05
5.17063e-05
5.60671e-05
5.99039e-05
6.21249e-05
6.26937e-05
6.1574e-05
5.8378e-05
5.17922e-05
3.76837e-05
3.76529e-05
5.17807e-05
5.85737e-05
6.22393e-05
6.42145e-05
6.50589e-05
6.50065e-05
6.41297e-05
6.2432e-05
5.99864e-05
5.71728e-05
5.47126e-05
5.23371e-05
5.02384e-05
4.91719e-05
4.87537e-05
4.86123e-05
4.85689e-05
4.85571e-05
4.8559e-05
4.85863e-05
4.87009e-05
4.9081e-05
5.01265e-05
5.23361e-05
5.50975e-05
5.82687e-05
6.08651e-05
6.23549e-05
6.25527e-05
6.12762e-05
5.80562e-05
5.15426e-05
3.76144e-05
3.74704e-05
5.11528e-05
5.77019e-05
6.12231e-05
6.31413e-05
6.40283e-05
6.41445e-05
6.36004e-05
6.24349e-05
6.06885e-05
5.84815e-05
5.60188e-05
5.33922e-05
5.10222e-05
4.9791e-05
4.92949e-05
4.91218e-05
4.90679e-05
4.90549e-05
4.90628e-05
4.91095e-05
4.92724e-05
4.97614e-05
5.101e-05
5.34639e-05
5.62599e-05
5.88796e-05
6.08559e-05
6.19003e-05
6.18503e-05
6.04898e-05
5.73194e-05
5.09844e-05
3.74467e-05
3.70972e-05
4.99727e-05
5.61092e-05
5.93815e-05
6.11682e-05
6.20344e-05
6.22477e-05
6.19313e-05
6.11302e-05
5.98607e-05
5.81586e-05
5.61201e-05
5.39231e-05
5.19636e-05
5.08576e-05
5.03752e-05
5.01936e-05
5.01335e-05
5.01194e-05
5.01315e-05
5.0189e-05
5.03678e-05
5.08513e-05
5.19683e-05
5.39712e-05
5.62259e-05
5.82598e-05
5.97333e-05
6.04385e-05
6.02243e-05
5.88636e-05
5.58516e-05
4.98671e-05
3.70854e-05
3.63592e-05
4.7785e-05
5.32329e-05
5.61004e-05
5.76544e-05
5.84251e-05
5.86689e-05
5.85075e-05
5.79841e-05
5.71082e-05
5.58929e-05
5.44038e-05
5.28078e-05
5.1411e-05
5.0567e-05
5.01671e-05
5.00087e-05
4.99548e-05
4.99423e-05
4.99539e-05
5.00068e-05
5.01644e-05
5.05655e-05
5.14176e-05
5.28317e-05
5.44394e-05
5.58828e-05
5.69029e-05
5.73335e-05
5.70323e-05
5.57763e-05
5.30838e-05
4.77313e-05
3.63565e-05
3.49509e-05
4.35723e-05
4.77888e-05
4.99754e-05
5.11385e-05
5.17153e-05
5.19205e-05
5.18568e-05
5.15644e-05
5.10469e-05
5.03053e-05
4.93804e-05
4.83889e-05
4.75239e-05
4.69787e-05
4.67064e-05
4.65928e-05
4.65522e-05
4.65427e-05
4.65524e-05
4.65931e-05
4.67069e-05
4.69803e-05
4.75295e-05
4.84007e-05
4.93915e-05
5.02767e-05
5.08833e-05
5.1097e-05
5.08058e-05
4.98172e-05
4.77264e-05
4.35559e-05
3.4954e-05
3.27099e-05
3.49562e-05
3.63716e-05
3.71154e-05
3.74923e-05
3.76727e-05
3.77429e-05
3.77425e-05
3.76841e-05
3.75657e-05
3.73917e-05
3.71668e-05
3.69163e-05
3.66916e-05
3.65465e-05
3.64709e-05
3.64358e-05
3.64194e-05
3.64139e-05
3.642e-05
3.64365e-05
3.64713e-05
3.65466e-05
3.66918e-05
3.6917e-05
3.71668e-05
3.73828e-05
3.75279e-05
3.75637e-05
3.74483e-05
3.71052e-05
3.63753e-05
3.49625e-05
3.27143e-05
5.09291e-05
5.87763e-05
6.33319e-05
6.57802e-05
6.7101e-05
6.77979e-05
6.81447e-05
6.82978e-05
6.83471e-05
6.83442e-05
6.83188e-05
6.82879e-05
6.82609e-05
6.8241e-05
6.82277e-05
6.82192e-05
6.8214e-05
6.82115e-05
6.82113e-05
6.82136e-05
6.82184e-05
6.8226e-05
6.82372e-05
6.82518e-05
6.82657e-05
6.82657e-05
6.82229e-05
6.80833e-05
6.77528e-05
6.70715e-05
6.57633e-05
6.33234e-05
5.87733e-05
5.093e-05
5.87771e-05
0.000175164
0.000219489
0.000241866
0.000254364
0.000261401
0.000265152
0.000266886
0.000267414
0.000267269
0.000266812
0.000266277
0.000265806
0.000265456
0.000265223
0.000265077
0.000264992
0.000264953
0.000264952
0.000264991
0.000265072
0.000265205
0.000265402
0.000265663
0.000265929
0.000266022
0.00026559
0.000264061
0.000260565
0.000253774
0.000241477
0.000219243
0.000175019
5.87744e-05
6.33354e-05
0.000219519
0.000282263
0.000314623
0.000332995
0.000343481
0.000349093
0.000351602
0.000352176
0.000351635
0.000350576
0.000349425
0.000348445
0.000347738
0.000347282
0.000347001
0.000346838
0.000346764
0.000346764
0.000346836
0.000346989
0.000347244
0.000347632
0.000348176
0.000348792
0.000349188
0.000348791
0.000346701
0.000341626
0.000331672
0.00031375
0.000281728
0.000219233
6.33278e-05
6.57869e-05
0.00024192
0.000314657
0.000352789
0.000374672
0.000387182
0.000393719
0.000396307
0.000396326
0.000394822
0.000392639
0.000390437
0.000388635
0.00038739
0.000386617
0.000386142
0.000385865
0.000385737
0.000385737
0.000385861
0.000386125
0.000386563
0.00038724
0.000388258
0.000389563
0.000390759
0.000391052
0.000389237
0.00038369
0.000372167
0.000351128
0.000313646
0.000241404
6.5769e-05
6.71112e-05
0.000254446
0.00033308
0.000374743
0.000398736
0.000412275
0.000418913
0.000420774
0.000419371
0.000415979
0.000411777
0.000407793
0.000404672
0.000402638
0.000401446
0.000400698
0.000400247
0.000400038
0.000400037
0.000400243
0.000400679
0.000401382
0.000402458
0.000404217
0.000406736
0.000409511
0.000411477
0.000411021
0.000406149
0.000394343
0.000371823
0.000331305
0.000253556
6.70724e-05
6.78122e-05
0.000261531
0.000343669
0.000387417
0.000412493
0.000426194
0.00043205
0.000432146
0.000428044
0.000421282
0.000413619
0.000406792
0.00040169
0.000398634
0.000397011
0.000395894
0.000395182
0.00039485
0.00039485
0.000395179
0.000395877
0.000396947
0.000398446
0.0004012
0.000405629
0.000411089
0.000416232
0.00041872
0.000415983
0.000405233
0.000382608
0.000340746
0.000260068
6.77379e-05
6.81646e-05
0.000265373
0.000349482
0.0003943
0.000419641
0.000432699
0.000436794
0.000433763
0.000425021
0.000412407
0.000398902
0.000388111
0.000380459
0.000376438
0.00037469
0.000373075
0.000371971
0.000371468
0.000371468
0.00037197
0.000373063
0.000374637
0.000376267
0.00037999
0.00038694
0.000396255
0.000406994
0.000414964
0.000416415
0.000408287
0.000386858
0.000344972
0.00026311
6.80373e-05
6.83264e-05
0.000267271
0.000352355
0.000397529
0.000422507
0.000434213
0.000435517
0.000427595
0.000411107
0.00038785
0.000363695
0.000349856
0.000340533
0.000336616
0.00033582
0.000333487
0.000331865
0.000331185
0.000331187
0.000331866
0.000333482
0.000335784
0.000336487
0.000340146
0.000348806
0.000361139
0.000382288
0.000400519
0.000409322
0.00040572
0.000386739
0.000345868
0.00026401
6.81295e-05
6.83897e-05
0.000268064
0.000353517
0.000398604
0.000422828
0.000432702
0.000430327
0.000415388
0.000385838
0.000340105
0.000288424
0.000287002
0.000283543
0.00028318
0.00028544
0.000282144
0.000280153
0.000279451
0.000279452
0.000280155
0.000282144
0.000285425
0.000283107
0.000283298
0.00028626
0.000286404
0.000334743
0.000374916
0.000396384
0.000399533
0.000384047
0.000344875
0.000263722
6.81147e-05
6.84075e-05
0.000268301
0.000353822
0.000398646
0.00042204
0.000430058
0.00042375
0.000400055
0.000348868
0.00024535
8.05467e-05
0.000186181
0.000217187
0.000226475
0.000233292
0.00022944
0.000227812
0.00022739
0.000227391
0.000227814
0.000229444
0.000233294
0.000226456
0.000217118
0.000186061
8.02531e-05
0.000241059
0.000337895
0.000380511
0.000392229
0.000380591
0.000343251
0.000262999
6.80627e-05
6.84094e-05
0.000268331
0.000353841
0.000398457
0.000421295
0.000428108
0.000419157
0.000388412
0.000310561
8.34306e-05
6.99092e-05
0.00016914
0.000188076
0.000191541
0.000193989
0.000194824
0.000195012
0.000195013
0.000194829
0.000193997
0.000191549
0.000188082
0.00016914
6.98998e-05
8.25859e-05
0.000300058
0.000368609
0.000387235
0.000378199
0.000342055
0.000262417
6.80229e-05
6.84094e-05
0.00026834
0.000353889
0.00039849
0.000421257
0.000428054
0.0004197
0.000392903
0.000337542
0.000229945
7.61496e-05
0.000148434
0.000164328
0.000166078
0.000159417
0.000168255
0.000171266
0.000171838
0.00017184
0.00017127
0.000168262
0.000159414
0.000166069
0.000164289
0.000148311
7.58354e-05
0.0002256
0.000326365
0.000373042
0.000387741
0.000378052
0.000341875
0.000262273
6.80191e-05
6.84125e-05
0.000268398
0.000354064
0.000398825
0.000421884
0.000429359
0.000422834
0.000401358
0.000362232
0.000303578
0.000237303
0.000211549
0.000188247
0.000179007
0.000173821
0.000175948
0.000177016
0.000177263
0.000177263
0.000177016
0.000175945
0.000173802
0.000178961
0.000188087
0.000210961
0.000235378
0.000298116
0.00035092
0.000381648
0.000391046
0.000379478
0.00034255
0.000262556
6.80475e-05
6.84179e-05
0.000268501
0.000354333
0.000399343
0.000422832
0.000431133
0.000426313
0.00040851
0.000377223
0.000333407
0.000283454
0.000239712
0.000202456
0.000187055
0.000181381
0.000180318
0.000180185
0.00018017
0.00018017
0.000180185
0.000180314
0.000181363
0.000186996
0.000202238
0.000238934
0.0002811
0.000327688
0.000365946
0.000388979
0.000394732
0.000381427
0.000343608
0.000263059
6.809e-05
6.84235e-05
0.000268618
0.000354621
0.000399885
0.000423784
0.000432777
0.000429157
0.000413433
0.000385553
0.000346375
0.000299612
0.000251762
0.000209273
0.000190782
0.000184039
0.000181979
0.000181431
0.000181311
0.000181311
0.000181432
0.000181976
0.000184023
0.000190718
0.000209036
0.000250924
0.000297145
0.000340597
0.000374326
0.00039403
0.000397733
0.000383217
0.000344656
0.000263584
6.81306e-05
6.84278e-05
0.000268721
0.000354867
0.000400338
0.000424554
0.000434034
0.000431151
0.000416504
0.00039006
0.000352391
0.000306269
0.000257095
0.000212547
0.000192624
0.000185206
0.000182787
0.000182101
0.000181945
0.000181946
0.000182103
0.000182786
0.000185191
0.00019256
0.000212303
0.000256237
0.000303764
0.000346594
0.00037886
0.000397171
0.000399819
0.000384563
0.000345483
0.000264008
6.81607e-05
6.843e-05
0.000268793
0.000355038
0.000400651
0.000425073
0.000434848
0.00043237
0.000418244
0.000392387
0.00035521
0.000309167
0.00025945
0.000214058
0.000193504
0.000185757
0.000183191
0.000182454
0.000182286
0.000182288
0.000182456
0.00018319
0.000185742
0.00019344
0.000213813
0.000258589
0.000306645
0.000349401
0.000381194
0.000398939
0.00040108
0.000385418
0.000346024
0.00026429
6.81787e-05
6.84304e-05
0.00026883
0.000355125
0.000400809
0.000425331
0.000435243
0.000432942
0.000419026
0.00039338
0.000356347
0.000310284
0.000260341
0.000214648
0.000193852
0.000185973
0.000183351
0.000182595
0.000182424
0.000182426
0.000182598
0.00018335
0.000185958
0.000193787
0.000214404
0.000259492
0.000307756
0.000350531
0.000382187
0.00039973
0.000401667
0.000385828
0.000346287
0.000264428
6.81862e-05
6.84294e-05
0.000268831
0.000355127
0.000400812
0.000425335
0.000435249
0.000432951
0.000419038
0.000393396
0.000356367
0.000310306
0.000260363
0.000214676
0.000193869
0.000185981
0.000183356
0.000182599
0.000182429
0.00018243
0.000182602
0.000183355
0.000185967
0.000193805
0.000214432
0.000259518
0.000307777
0.00035055
0.000382203
0.000399742
0.000401676
0.000385835
0.000346291
0.000264429
6.8185e-05
6.84274e-05
0.000268793
0.00035504
0.000400656
0.000425081
0.00043486
0.000432391
0.000418276
0.000392433
0.00035527
0.000309235
0.000259525
0.000214148
0.000193562
0.000185789
0.000183212
0.000182472
0.000182306
0.000182308
0.000182475
0.000183212
0.000185776
0.0001935
0.000213908
0.00025868
0.000306713
0.000349459
0.000381239
0.000398971
0.000401101
0.000385433
0.000346033
0.000264293
6.81755e-05
6.8424e-05
0.000268716
0.000354862
0.000400333
0.000424551
0.000434036
0.000431167
0.000416542
0.000390127
0.000352491
0.000306395
0.000257262
0.000212722
0.000192741
0.000185281
0.000182844
0.000182154
0.000182
0.000182003
0.000182158
0.000182846
0.000185271
0.000192684
0.000212489
0.000256417
0.00030389
0.00034669
0.000378921
0.000397204
0.000399834
0.000384569
0.000345485
0.000264007
6.81563e-05
6.84186e-05
0.000268598
0.000354589
0.000399841
0.000423731
0.000432726
0.000429122
0.000413436
0.000385616
0.000346513
0.00029982
0.000252054
0.000209563
0.000190981
0.000184183
0.000182093
0.000181539
0.000181421
0.000181425
0.000181546
0.0001821
0.000184179
0.000190932
0.000209345
0.000251237
0.000297356
0.000340728
0.000374372
0.000394015
0.000397691
0.000383174
0.000344624
0.000263562
6.81248e-05
6.84107e-05
0.000268441
0.000354228
0.000399194
0.000422645
0.000430928
0.000426122
0.000408382
0.000377219
0.000333581
0.000283798
0.000240184
0.000202857
0.000187309
0.000181576
0.000180447
0.000180298
0.000180286
0.00018029
0.000180309
0.000180461
0.000181579
0.000187271
0.000202669
0.000239448
0.000281459
0.000327854
0.000365892
0.000388791
0.000394509
0.000381235
0.000343472
0.000262981
6.80811e-05
6.83997e-05
0.000268241
0.000353783
0.000398426
0.000421382
0.000428788
0.000422251
0.000400866
0.000361995
0.000303788
0.000237874
0.000212223
0.000188497
0.000178938
0.000173667
0.00017563
0.000176661
0.000176912
0.000176917
0.000176674
0.000175642
0.000173654
0.000178874
0.000188329
0.000211694
0.000236
0.000298337
0.000350535
0.000380976
0.000390359
0.000378915
0.00034216
0.000262341
6.80306e-05
6.8383e-05
0.000267965
0.000353222
0.000397555
0.000420083
0.000426688
0.00041823
0.00039151
0.000336623
0.000230273
7.62633e-05
0.00014853
0.000162698
0.000163607
0.000156548
0.000165142
0.000168133
0.000168711
0.000168707
0.000168114
0.000165079
0.000156359
0.00016327
0.000162273
0.000148443
7.59402e-05
0.000225981
0.000325
0.000371151
0.000385987
0.000376679
0.000340934
0.000261755
6.79837e-05
6.83514e-05
0.000267496
0.000352388
0.000396458
0.0004188
0.00042517
0.000415853
0.000384948
0.000307628
8.29374e-05
6.83646e-05
0.000160979
0.000177746
0.000179813
0.00018219
0.000183153
0.000183403
0.000183381
0.000183055
0.000181905
0.000179113
0.000176396
0.000159023
6.7767e-05
8.17617e-05
0.000295666
0.000363884
0.000383275
0.000375221
0.000340029
0.000261293
6.79476e-05
6.82803e-05
0.000266553
0.000350874
0.000394681
0.000417153
0.000424281
0.000417052
0.000392381
0.00034037
0.000237247
7.80716e-05
0.000167587
0.000192907
0.000196914
0.000199706
0.000196272
0.000195153
0.000194942
0.000194888
0.000194912
0.000195553
0.000197883
0.000192929
0.000185743
0.000159937
7.63547e-05
0.000228121
0.000325121
0.000370083
0.000384269
0.00037478
0.000339284
0.000260755
6.79066e-05
6.81191e-05
0.000264622
0.000347901
0.000391241
0.000413913
0.000422254
0.00041813
0.000400906
0.000368109
0.000317635
0.000259239
0.000245198
0.00022961
0.000215228
0.000209172
0.000205659
0.000204409
0.000204067
0.000203979
0.000204008
0.000204404
0.000205668
0.000206497
0.000211774
0.000225378
0.000241585
0.000300046
0.000349025
0.000377272
0.000385452
0.000373777
0.000337727
0.00025956
6.78029e-05
6.77742e-05
0.000260846
0.000342213
0.000384577
0.000407166
0.00041656
0.000415198
0.000403629
0.000381595
0.000349623
0.000312193
0.000279512
0.000246446
0.000215434
0.000202948
0.000198451
0.000196991
0.000196562
0.000196455
0.000196496
0.000196845
0.000198153
0.000202147
0.000214799
0.000247411
0.000284353
0.000325938
0.000359637
0.000379337
0.000383342
0.000369973
0.000333782
0.0002567
6.7527e-05
6.70841e-05
0.000253887
0.000331891
0.000372397
0.000394293
0.000404206
0.000404838
0.000397187
0.000381481
0.000358006
0.00032811
0.000294459
0.000258045
0.000223491
0.00020903
0.000203813
0.000202078
0.000201548
0.000201424
0.000201509
0.000201988
0.000203657
0.000208829
0.000223615
0.000259327
0.000297562
0.000332714
0.000359209
0.000373816
0.000375028
0.000360764
0.000325306
0.000250711
6.69065e-05
6.57706e-05
0.000241505
0.000313788
0.000351054
0.00037133
0.000381024
0.000382865
0.000377995
0.000366769
0.000349292
0.000326016
0.000298298
0.000268606
0.000242281
0.000229191
0.00022383
0.000221876
0.000221232
0.000221082
0.000221217
0.000221843
0.000223787
0.000229198
0.000242558
0.000269418
0.000299652
0.000326972
0.000347055
0.000357441
0.000356633
0.000342387
0.000309021
0.000239264
6.56562e-05
6.33285e-05
0.000219237
0.000281704
0.000313499
0.000330784
0.000339313
0.000341596
0.000338744
0.000331151
0.000318916
0.000302306
0.000282323
0.000261245
0.000243116
0.000232879
0.000228203
0.000226326
0.000225654
0.000225493
0.00022566
0.000226338
0.000228233
0.000232963
0.000243344
0.000261685
0.000282805
0.000302
0.000315952
0.000322647
0.000320626
0.000307696
0.000278635
0.000217843
6.32661e-05
5.87769e-05
0.000175004
0.000219208
0.000241308
0.000253239
0.00025921
0.000261085
0.00025972
0.000255441
0.000248336
0.000238577
0.000226801
0.000214477
0.000203938
0.000197501
0.000194323
0.000192966
0.000192457
0.000192336
0.000192472
0.000192997
0.000194376
0.000197594
0.000204109
0.000214734
0.000227007
0.000238193
0.000246227
0.000249752
0.000247656
0.000238258
0.000217684
0.000174347
5.87537e-05
5.09327e-05
5.87767e-05
6.33314e-05
6.57717e-05
6.70665e-05
6.77031e-05
6.79297e-05
6.78657e-05
6.75546e-05
6.7001e-05
6.62079e-05
6.52187e-05
6.41583e-05
6.32368e-05
6.26526e-05
6.23578e-05
6.22307e-05
6.21828e-05
6.2171e-05
6.21838e-05
6.22326e-05
6.23605e-05
6.26569e-05
6.32452e-05
6.41727e-05
6.52304e-05
6.61757e-05
6.68242e-05
6.70465e-05
6.67117e-05
6.55986e-05
6.32573e-05
5.87519e-05
5.09349e-05
5.37736e-05
6.45621e-05
7.06664e-05
7.39822e-05
7.58172e-05
7.68153e-05
7.73273e-05
7.75587e-05
7.76327e-05
7.76241e-05
7.75786e-05
7.75239e-05
7.74758e-05
7.74403e-05
7.74169e-05
7.74023e-05
7.73937e-05
7.73897e-05
7.73896e-05
7.73934e-05
7.74014e-05
7.74146e-05
7.74341e-05
7.746e-05
7.74852e-05
7.74884e-05
7.74251e-05
7.72164e-05
7.67321e-05
7.57607e-05
7.39475e-05
7.06473e-05
6.45535e-05
5.3774e-05
6.45624e-05
0.000232828
0.000301872
0.000337304
0.000357325
0.000368744
0.000374908
0.000377777
0.000378618
0.000378297
0.000377418
0.000376396
0.000375493
0.000374815
0.000374359
0.00037407
0.000373901
0.000373822
0.000373821
0.000373896
0.000374055
0.000374315
0.000374699
0.000375204
0.000375724
0.00037595
0.000375283
0.000372791
0.000367095
0.000356135
0.000336498
0.000301355
0.000232536
6.45535e-05
7.06697e-05
0.000301924
0.000406485
0.000461772
0.00049349
0.000511743
0.000521575
0.000525963
0.000526887
0.000525768
0.000523675
0.000521401
0.000519454
0.000518043
0.000517127
0.000516557
0.000516226
0.000516074
0.000516072
0.000516218
0.000516528
0.000517041
0.000517817
0.000518902
0.000520144
0.000521
0.000520428
0.000516847
0.000508041
0.000490808
0.000459964
0.000405357
0.000301342
7.06493e-05
7.39891e-05
0.000337402
0.000461839
0.000528953
0.000567852
0.000590218
0.000601934
0.000606516
0.000606376
0.000603372
0.000599047
0.000594657
0.00059105
0.000588558
0.00058701
0.000586048
0.000585483
0.000585222
0.00058522
0.000585471
0.000586007
0.000586889
0.000588239
0.000590277
0.000592913
0.000595386
0.00059619
0.000593128
0.000583322
0.000562852
0.000525586
0.000459761
0.00033637
7.39475e-05
7.58286e-05
0.00035748
0.000493665
0.000568001
0.000611222
0.000635713
0.0006477