/*--------------------------------*- C++ -*----------------------------------*\
| =========                 |                                                 |
| \\      /  F ield         | OpenFOAM: The Open Source CFD Toolbox           |
|  \\    /   O peration     | Version:  2112                                  |
|   \\  /    A nd           | Website:  www.openfoam.com                      |
|    \\/     M anipulation  |                                                 |
\*---------------------------------------------------------------------------*/
FoamFile
{
    version     2.0;
    format      ascii;
    arch        "LSB;label=32;scalar=64";
    class       volScalarField;
    location    "4.9";
    object      p;
}
// * * * * * * * * * * * * * * * * * * * * * * * * * * * * * * * * * * * * * //

dimensions      [0 2 -2 0 0 0 0];

internalField   nonuniform List<scalar> 
64906
(
-4.36106e-06
-4.34391e-06
-4.33351e-06
-4.33363e-06
-4.35553e-06
-4.39519e-06
-4.45624e-06
-4.5397e-06
-4.64443e-06
-4.76774e-06
-4.90342e-06
-5.04561e-06
-5.18533e-06
-5.32732e-06
-5.44018e-06
-5.53025e-06
-5.59666e-06
-5.63849e-06
-5.6552e-06
-5.64688e-06
-5.61424e-06
-5.55782e-06
-5.47597e-06
-5.3757e-06
-5.27504e-06
-5.17351e-06
-5.08033e-06
-5.00085e-06
-4.94069e-06
-4.90107e-06
-4.88015e-06
-4.88174e-06
-4.89611e-06
-4.91058e-06
-4.312e-06
-4.25601e-06
-4.207e-06
-4.17064e-06
-4.15675e-06
-4.16416e-06
-4.19162e-06
-4.23744e-06
-4.29857e-06
-4.37176e-06
-4.45076e-06
-4.53218e-06
-4.6091e-06
-4.67203e-06
-4.73655e-06
-4.79162e-06
-4.83387e-06
-4.86282e-06
-4.87819e-06
-4.88013e-06
-4.86934e-06
-4.84714e-06
-4.82019e-06
-4.78894e-06
-4.74849e-06
-4.70519e-06
-4.66648e-06
-4.63597e-06
-4.62054e-06
-4.62422e-06
-4.65096e-06
-4.7031e-06
-4.76806e-06
-4.84125e-06
-4.28394e-06
-4.19488e-06
-4.10451e-06
-4.02444e-06
-3.97349e-06
-3.9507e-06
-3.95446e-06
-3.98266e-06
-4.03164e-06
-4.09871e-06
-4.17481e-06
-4.25641e-06
-4.3285e-06
-4.39097e-06
-4.44291e-06
-4.48572e-06
-4.51833e-06
-4.54177e-06
-4.5562e-06
-4.56177e-06
-4.5587e-06
-4.54642e-06
-4.52664e-06
-4.4964e-06
-4.45895e-06
-4.41463e-06
-4.3799e-06
-4.35925e-06
-4.36398e-06
-4.39881e-06
-4.46851e-06
-4.57788e-06
-4.69789e-06
-4.81365e-06
-4.27977e-06
-4.16005e-06
-4.02953e-06
-3.90707e-06
-3.82401e-06
-3.77986e-06
-3.77462e-06
-3.80808e-06
-3.87784e-06
-3.98349e-06
-4.11023e-06
-4.25213e-06
-4.37131e-06
-4.47013e-06
-4.54179e-06
-4.59574e-06
-4.6333e-06
-4.65833e-06
-4.67177e-06
-4.67372e-06
-4.66356e-06
-4.63769e-06
-4.59533e-06
-4.52718e-06
-4.44161e-06
-4.33711e-06
-4.25465e-06
-4.20154e-06
-4.19639e-06
-4.24273e-06
-4.34456e-06
-4.50258e-06
-4.67393e-06
-4.82986e-06
-4.3141e-06
-4.16794e-06
-4.00451e-06
-3.85004e-06
-3.7474e-06
-3.699e-06
-3.70859e-06
-3.78082e-06
-3.91753e-06
-4.12509e-06
-4.38059e-06
-4.67664e-06
-4.91544e-06
-5.10543e-06
-5.23548e-06
-5.32892e-06
-5.38951e-06
-5.42527e-06
-5.43797e-06
-5.42766e-06
-5.39277e-06
-5.32542e-06
-5.22259e-06
-5.06156e-06
-4.85574e-06
-4.59773e-06
-4.39102e-06
-4.2436e-06
-4.18376e-06
-4.20898e-06
-4.31818e-06
-4.51083e-06
-4.72008e-06
-4.91022e-06
-4.38981e-06
-4.21786e-06
-4.02642e-06
-3.84988e-06
-3.74015e-06
-3.70482e-06
-3.75272e-06
-3.89618e-06
-4.1451e-06
-4.52042e-06
-4.99402e-06
-5.57612e-06
-6.01614e-06
-6.35411e-06
-6.57785e-06
-6.73714e-06
-6.83753e-06
-6.89266e-06
-6.90496e-06
-6.87434e-06
-6.79845e-06
-6.66357e-06
-6.46512e-06
-6.15407e-06
-5.7464e-06
-5.20256e-06
-4.78413e-06
-4.47725e-06
-4.31806e-06
-4.29066e-06
-4.3868e-06
-4.59363e-06
-4.83423e-06
-5.05798e-06
-4.50938e-06
-4.30599e-06
-4.08865e-06
-3.8971e-06
-3.79108e-06
-3.78369e-06
-3.889e-06
-4.12833e-06
-4.5235e-06
-5.1272e-06
-5.89401e-06
-6.9766e-06
-7.69274e-06
-8.22382e-06
-8.56307e-06
-8.8059e-06
-8.95699e-06
-9.03742e-06
-9.04965e-06
-8.99344e-06
-8.86618e-06
-8.6463e-06
-8.33022e-06
-7.82311e-06
-7.13868e-06
-6.09222e-06
-5.39118e-06
-4.86377e-06
-4.57079e-06
-4.46627e-06
-4.53188e-06
-4.74229e-06
-5.01063e-06
-5.27134e-06
-4.66247e-06
-4.42504e-06
-4.18305e-06
-3.9819e-06
-3.88998e-06
-3.9246e-06
-4.10315e-06
-4.45104e-06
-5.00448e-06
-5.84889e-06
-6.91075e-06
-8.90306e-06
-9.90872e-06
-1.06665e-05
-1.11366e-05
-1.14809e-05
-1.16944e-05
-1.18063e-05
-1.18188e-05
-1.17314e-05
-1.15416e-05
-1.1219e-05
-1.07697e-05
-1.00307e-05
-9.05625e-06
-7.09097e-06
-6.11622e-06
-5.35327e-06
-4.91272e-06
-4.71762e-06
-4.73886e-06
-4.94512e-06
-5.24035e-06
-5.54761e-06
-4.84546e-06
-4.56702e-06
-4.29915e-06
-4.0916e-06
-4.02214e-06
-4.1096e-06
-4.36995e-06
-4.82306e-06
-5.46154e-06
-6.42601e-06
-7.8267e-06
-1.14747e-05
-1.24869e-05
-1.34424e-05
-1.40247e-05
-1.44544e-05
-1.47207e-05
-1.48599e-05
-1.48728e-05
-1.47587e-05
-1.45162e-05
-1.41073e-05
-1.3543e-05
-1.25946e-05
-1.16158e-05
-7.98837e-06
-6.73168e-06
-5.82723e-06
-5.30232e-06
-5.01653e-06
-4.98586e-06
-5.18428e-06
-5.50838e-06
-5.88105e-06
-5.05089e-06
-4.72299e-06
-4.43241e-06
-4.22386e-06
-4.19223e-06
-4.35728e-06
-4.73712e-06
-5.33574e-06
-6.16287e-06
-8.27788e-06
-6.5154e-06
-1.40103e-05
-1.50106e-05
-1.63468e-05
-1.70917e-05
-1.76548e-05
-1.80025e-05
-1.81808e-05
-1.8194e-05
-1.80414e-05
-1.7718e-05
-1.71757e-05
-1.64458e-05
-1.50861e-05
-1.41673e-05
-6.59311e-06
-8.54332e-06
-6.4904e-06
-5.81318e-06
-5.40025e-06
-5.28317e-06
-5.45789e-06
-5.80125e-06
-6.2539e-06
-5.26815e-06
-4.88415e-06
-4.56811e-06
-4.36061e-06
-4.3746e-06
-4.62841e-06
-5.09715e-06
-5.62595e-06
-6.13294e-06
-4.18535e-06
-2.05053e-05
-1.82381e-05
-1.90379e-05
-1.96725e-05
-2.02365e-05
-2.06098e-05
-2.07992e-05
-2.0812e-05
-2.06477e-05
-2.02984e-05
-1.97553e-05
-1.91352e-05
-1.83324e-05
-2.05383e-05
-4.74733e-06
-6.58085e-06
-6.13525e-06
-5.77354e-06
-5.59156e-06
-5.73342e-06
-6.09829e-06
-6.64879e-06
-5.48878e-06
-5.0457e-06
-4.70577e-06
-4.50871e-06
-4.59954e-06
-5.03871e-06
-5.91369e-06
-7.33921e-06
-9.64921e-06
-1.24996e-05
-1.85889e-05
-1.7301e-05
-1.95301e-05
-2.1021e-05
-2.2108e-05
-2.29261e-05
-2.3429e-05
-2.36687e-05
-2.3681e-05
-2.34661e-05
-2.2988e-05
-2.21952e-05
-2.11346e-05
-1.96754e-05
-1.74789e-05
-1.88394e-05
-1.27416e-05
-9.95081e-06
-7.75943e-06
-6.54578e-06
-6.00705e-06
-6.03397e-06
-6.39636e-06
-7.05721e-06
-5.69949e-06
-5.19816e-06
-4.82909e-06
-4.63019e-06
-4.76663e-06
-5.30918e-06
-6.34615e-06
-7.93745e-06
-1.01426e-05
-1.26226e-05
-1.67486e-05
-1.88987e-05
-2.06842e-05
-2.22244e-05
-2.34345e-05
-2.43026e-05
-2.48416e-05
-2.50995e-05
-2.5111e-05
-2.48762e-05
-2.43605e-05
-2.35159e-05
-2.23303e-05
-2.0811e-05
-1.90381e-05
-1.69358e-05
-1.28567e-05
-1.04114e-05
-8.31949e-06
-6.95633e-06
-6.2931e-06
-6.27779e-06
-6.66011e-06
-7.4516e-06
-5.89267e-06
-5.33905e-06
-4.9403e-06
-4.73321e-06
-4.89731e-06
-5.50762e-06
-6.65207e-06
-8.38676e-06
-1.076e-05
-1.359e-05
-1.69535e-05
-1.94072e-05
-2.15046e-05
-2.31596e-05
-2.44274e-05
-2.52907e-05
-2.58187e-05
-2.60676e-05
-2.60781e-05
-2.58504e-05
-2.53442e-05
-2.45032e-05
-2.32595e-05
-2.16262e-05
-1.95543e-05
-1.71194e-05
-1.37718e-05
-1.09864e-05
-8.73713e-06
-7.25029e-06
-6.5158e-06
-6.48958e-06
-6.91044e-06
-7.79811e-06
-6.06005e-06
-5.4622e-06
-5.0333e-06
-4.80957e-06
-4.97919e-06
-5.61638e-06
-6.80237e-06
-8.58573e-06
-1.09855e-05
-1.38407e-05
-1.69754e-05
-1.96894e-05
-2.19924e-05
-2.36977e-05
-2.49762e-05
-2.58146e-05
-2.63184e-05
-2.65523e-05
-2.6562e-05
-2.63478e-05
-2.58642e-05
-2.50469e-05
-2.37915e-05
-2.21068e-05
-1.9828e-05
-1.71233e-05
-1.40012e-05
-1.11908e-05
-8.92162e-06
-7.40341e-06
-6.65883e-06
-6.65359e-06
-7.12094e-06
-8.09133e-06
-6.19759e-06
-5.56527e-06
-5.10997e-06
-4.86815e-06
-5.03405e-06
-5.6804e-06
-6.88286e-06
-8.6862e-06
-1.10965e-05
-1.39713e-05
-1.70724e-05
-1.99171e-05
-2.23244e-05
-2.40672e-05
-2.53492e-05
-2.61653e-05
-2.66465e-05
-2.68661e-05
-2.68755e-05
-2.66749e-05
-2.62132e-05
-2.54176e-05
-2.41585e-05
-2.2436e-05
-2.00518e-05
-1.72114e-05
-1.41205e-05
-1.12912e-05
-9.01796e-06
-7.49462e-06
-6.75937e-06
-6.78256e-06
-7.29117e-06
-8.32864e-06
-6.30233e-06
-5.64523e-06
-5.16905e-06
-4.91082e-06
-5.06898e-06
-5.71516e-06
-6.92178e-06
-8.73307e-06
-1.11507e-05
-1.4047e-05
-1.7166e-05
-2.00834e-05
-2.25604e-05
-2.43319e-05
-2.5618e-05
-2.64221e-05
-2.68901e-05
-2.71014e-05
-2.71109e-05
-2.6919e-05
-2.64708e-05
-2.56877e-05
-2.44252e-05
-2.26753e-05
-2.02236e-05
-1.73048e-05
-1.41928e-05
-1.13423e-05
-9.06694e-06
-7.5471e-06
-6.82687e-06
-6.87702e-06
-7.41765e-06
-8.50728e-06
-6.37328e-06
-5.701e-06
-5.21132e-06
-4.94198e-06
-5.09438e-06
-5.74e-06
-6.95028e-06
-8.77014e-06
-1.12002e-05
-1.41197e-05
-1.72648e-05
-2.02138e-05
-2.27526e-05
-2.45503e-05
-2.58455e-05
-2.66485e-05
-2.71129e-05
-2.73217e-05
-2.73319e-05
-2.71438e-05
-2.67006e-05
-2.59198e-05
-2.46498e-05
-2.28774e-05
-2.03825e-05
-1.74108e-05
-1.42672e-05
-1.13927e-05
-9.10805e-06
-7.587e-06
-6.87527e-06
-6.9424e-06
-7.50235e-06
-8.62722e-06
-6.41023e-06
-5.73206e-06
-5.2368e-06
-4.96293e-06
-5.11353e-06
-5.76078e-06
-6.97697e-06
-8.80812e-06
-1.12555e-05
-1.4199e-05
-1.73716e-05
-2.03494e-05
-2.29134e-05
-2.47294e-05
-2.60363e-05
-2.6847e-05
-2.7316e-05
-2.75275e-05
-2.75389e-05
-2.73504e-05
-2.69046e-05
-2.6118e-05
-2.48378e-05
-2.30484e-05
-2.05292e-05
-1.75246e-05
-1.43506e-05
-1.1451e-05
-9.15025e-06
-7.62097e-06
-6.90836e-06
-6.98045e-06
-7.54734e-06
-8.6877e-06
-6.41366e-06
-5.73881e-06
-5.24586e-06
-4.97393e-06
-5.12669e-06
-5.77776e-06
-7.00164e-06
-8.84589e-06
-1.13143e-05
-1.42824e-05
-1.74843e-05
-2.04739e-05
-2.30431e-05
-2.48688e-05
-2.6188e-05
-2.70135e-05
-2.74944e-05
-2.77134e-05
-2.77264e-05
-2.75336e-05
-2.70787e-05
-2.62796e-05
-2.49882e-05
-2.31887e-05
-2.06627e-05
-1.76441e-05
-1.44398e-05
-1.15149e-05
-9.19224e-06
-7.6487e-06
-6.92653e-06
-6.99218e-06
-7.55458e-06
-8.68872e-06
-6.38515e-06
-5.72293e-06
-5.23938e-06
-4.97439e-06
-5.13073e-06
-5.78408e-06
-7.01357e-06
-8.86972e-06
-1.13631e-05
-1.43589e-05
-1.76076e-05
-2.06135e-05
-2.31437e-05
-2.49681e-05
-2.62997e-05
-2.71476e-05
-2.76478e-05
-2.7879e-05
-2.78942e-05
-2.76934e-05
-2.72231e-05
-2.64046e-05
-2.51022e-05
-2.33015e-05
-2.07939e-05
-1.77753e-05
-1.45272e-05
-1.15742e-05
-9.22473e-06
-7.66434e-06
-6.92772e-06
-6.9783e-06
-7.52525e-06
-8.63352e-06
-6.32681e-06
-5.68643e-06
-5.21746e-06
-4.96088e-06
-5.11629e-06
-5.7612e-06
-6.98081e-06
-8.83153e-06
-1.13397e-05
-1.43626e-05
-1.77172e-05
-2.07053e-05
-2.31752e-05
-2.49809e-05
-2.63164e-05
-2.71905e-05
-2.77156e-05
-2.79635e-05
-2.79816e-05
-2.77698e-05
-2.72799e-05
-2.64403e-05
-2.51369e-05
-2.33559e-05
-2.09029e-05
-1.78996e-05
-1.45497e-05
-1.15717e-05
-9.20558e-06
-7.64234e-06
-6.89996e-06
-6.93568e-06
-7.45919e-06
-8.52536e-06
-6.24317e-06
-5.63367e-06
-5.18311e-06
-4.93426e-06
-5.08062e-06
-5.70006e-06
-6.88368e-06
-8.69723e-06
-1.12097e-05
-1.4268e-05
-1.789e-05
-2.07816e-05
-2.31149e-05
-2.48896e-05
-2.62202e-05
-2.71217e-05
-2.76729e-05
-2.79387e-05
-2.79612e-05
-2.77408e-05
-2.7234e-05
-2.63765e-05
-2.50855e-05
-2.33412e-05
-2.10155e-05
-1.81037e-05
-1.45046e-05
-1.14888e-05
-9.11133e-06
-7.57175e-06
-6.84224e-06
-6.86991e-06
-7.366e-06
-8.36862e-06
-6.1394e-06
-5.56786e-06
-5.13569e-06
-4.88765e-06
-5.00533e-06
-5.56076e-06
-6.63997e-06
-8.29782e-06
-1.0585e-05
-1.32352e-05
-1.7881e-05
-2.11215e-05
-2.29135e-05
-2.45301e-05
-2.57955e-05
-2.67005e-05
-2.72666e-05
-2.75472e-05
-2.75763e-05
-2.73546e-05
-2.68467e-05
-2.60022e-05
-2.47917e-05
-2.32264e-05
-2.14622e-05
-1.81314e-05
-1.35122e-05
-1.0919e-05
-8.77655e-06
-7.37923e-06
-6.72344e-06
-6.77276e-06
-7.26236e-06
-8.15464e-06
-6.02558e-06
-5.49698e-06
-5.08471e-06
-4.83576e-06
-4.91543e-06
-5.38762e-06
-6.34891e-06
-7.92742e-06
-1.04838e-05
-1.38448e-05
-1.92004e-05
-1.96166e-05
-2.22241e-05
-2.40777e-05
-2.53109e-05
-2.6223e-05
-2.67905e-05
-2.70751e-05
-2.71163e-05
-2.69162e-05
-2.64334e-05
-2.56103e-05
-2.44506e-05
-2.26661e-05
-2.00863e-05
-1.94117e-05
-1.43665e-05
-1.10124e-05
-8.54918e-06
-7.17788e-06
-6.58859e-06
-6.66428e-06
-7.13476e-06
-7.94595e-06
-5.90926e-06
-5.42386e-06
-5.02839e-06
-4.76984e-06
-4.78302e-06
-5.07904e-06
-5.59846e-06
-6.08845e-06
-6.4735e-06
-3.47054e-06
-2.57172e-05
-2.2426e-05
-2.32772e-05
-2.40044e-05
-2.46685e-05
-2.51297e-05
-2.53847e-05
-2.54393e-05
-2.52984e-05
-2.4956e-05
-2.44261e-05
-2.38117e-05
-2.30934e-05
-2.63351e-05
-3.96287e-06
-7.09637e-06
-6.8113e-06
-6.52164e-06
-6.32905e-06
-6.51495e-06
-6.99252e-06
-7.73098e-06
-5.8048e-06
-5.36049e-06
-4.98914e-06
-4.741e-06
-4.74689e-06
-5.04948e-06
-5.7174e-06
-6.84159e-06
-8.6696e-06
-1.16239e-05
-1.23351e-05
-1.81304e-05
-1.99801e-05
-2.17655e-05
-2.29121e-05
-2.37838e-05
-2.43506e-05
-2.46658e-05
-2.47408e-05
-2.45847e-05
-2.41869e-05
-2.35093e-05
-2.25201e-05
-2.09549e-05
-1.91703e-05
-1.39263e-05
-1.29468e-05
-9.81966e-06
-7.86328e-06
-6.77807e-06
-6.33935e-06
-6.44786e-06
-6.87423e-06
-7.54604e-06
-5.71862e-06
-5.3115e-06
-4.96556e-06
-4.73026e-06
-4.72394e-06
-4.98557e-06
-5.55838e-06
-6.47366e-06
-7.74374e-06
-9.35952e-06
-1.27244e-05
-1.67724e-05
-1.85307e-05
-2.01793e-05
-2.13709e-05
-2.22843e-05
-2.28762e-05
-2.32098e-05
-2.32985e-05
-2.31568e-05
-2.27736e-05
-2.21111e-05
-2.11167e-05
-1.97328e-05
-1.80341e-05
-1.42101e-05
-1.0547e-05
-8.86914e-06
-7.5401e-06
-6.66562e-06
-6.28205e-06
-6.37611e-06
-6.76784e-06
-7.38363e-06
-5.65995e-06
-5.28973e-06
-4.97731e-06
-4.76713e-06
-4.76487e-06
-5.00903e-06
-5.55049e-06
-6.45192e-06
-7.80899e-06
-9.66311e-06
-1.20272e-05
-1.48361e-05
-1.68665e-05
-1.85769e-05
-1.98239e-05
-2.07795e-05
-2.1391e-05
-2.17324e-05
-2.18257e-05
-2.16891e-05
-2.13063e-05
-2.06393e-05
-1.9629e-05
-1.82305e-05
-1.63462e-05
-1.36477e-05
-1.11684e-05
-9.12668e-06
-7.62181e-06
-6.69685e-06
-6.29398e-06
-6.35583e-06
-6.70431e-06
-7.27289e-06
-5.62861e-06
-5.30279e-06
-5.03391e-06
-4.85966e-06
-4.86997e-06
-5.09703e-06
-5.5836e-06
-6.38197e-06
-7.55123e-06
-9.13196e-06
-1.11021e-05
-1.3295e-05
-1.51873e-05
-1.68328e-05
-1.80492e-05
-1.89674e-05
-1.95514e-05
-1.98764e-05
-1.99685e-05
-1.9847e-05
-1.94947e-05
-1.88756e-05
-1.79227e-05
-1.66139e-05
-1.48633e-05
-1.27181e-05
-1.06205e-05
-8.86625e-06
-7.55884e-06
-6.72592e-06
-6.34997e-06
-6.38922e-06
-6.69251e-06
-7.21461e-06
-5.64175e-06
-5.36091e-06
-5.15025e-06
-5.02943e-06
-5.07062e-06
-5.2975e-06
-5.73991e-06
-6.43409e-06
-7.41815e-06
-8.70996e-06
-1.0275e-05
-1.19997e-05
-1.36128e-05
-1.50677e-05
-1.61727e-05
-1.70017e-05
-1.75343e-05
-1.78324e-05
-1.79205e-05
-1.78158e-05
-1.75029e-05
-1.69518e-05
-1.61059e-05
-1.49574e-05
-1.34635e-05
-1.1769e-05
-1.01031e-05
-8.67022e-06
-7.57416e-06
-6.85446e-06
-6.50838e-06
-6.51264e-06
-6.7518e-06
-7.21034e-06
-5.68565e-06
-5.46556e-06
-5.33336e-06
-5.29008e-06
-5.38529e-06
-5.63439e-06
-6.05926e-06
-6.68318e-06
-7.52521e-06
-8.58661e-06
-9.8318e-06
-1.11874e-05
-1.25001e-05
-1.36978e-05
-1.46333e-05
-1.53396e-05
-1.58029e-05
-1.60659e-05
-1.61468e-05
-1.60584e-05
-1.57893e-05
-1.53193e-05
-1.46099e-05
-1.36626e-05
-1.24632e-05
-1.1142e-05
-9.83929e-06
-8.68913e-06
-7.77793e-06
-7.14651e-06
-6.8057e-06
-6.7462e-06
-6.88821e-06
-7.25965e-06
-5.74292e-06
-5.59436e-06
-5.54236e-06
-5.57957e-06
-5.74086e-06
-6.03921e-06
-6.48958e-06
-7.10297e-06
-7.88304e-06
-8.8205e-06
-9.89111e-06
-1.10346e-05
-1.21457e-05
-1.31604e-05
-1.39767e-05
-1.4602e-05
-1.5025e-05
-1.52696e-05
-1.53465e-05
-1.52637e-05
-1.50144e-05
-1.45875e-05
-1.39626e-05
-1.31471e-05
-1.21454e-05
-1.10529e-05
-9.96192e-06
-8.98364e-06
-8.17483e-06
-7.57396e-06
-7.19933e-06
-7.05264e-06
-7.08882e-06
-7.32731e-06
-5.79069e-06
-5.73016e-06
-5.74944e-06
-5.85503e-06
-6.08078e-06
-6.4452e-06
-6.96358e-06
-7.64733e-06
-8.49869e-06
-9.50169e-06
-1.0607e-05
-1.17579e-05
-1.28728e-05
-1.38923e-05
-1.4736e-05
-1.5395e-05
-1.58535e-05
-1.61211e-05
-1.62034e-05
-1.61048e-05
-1.58217e-05
-1.53486e-05
-1.46788e-05
-1.38278e-05
-1.28156e-05
-1.17239e-05
-1.06347e-05
-9.62166e-06
-8.76094e-06
-8.09572e-06
-7.64132e-06
-7.39408e-06
-7.31523e-06
-7.40009e-06
-4.4056e-06
-4.40805e-06
-4.41842e-06
-4.43806e-06
-4.46935e-06
-4.52304e-06
-4.60103e-06
-4.70465e-06
-4.83284e-06
-4.98289e-06
-5.14721e-06
-5.31915e-06
-5.487e-06
-5.64494e-06
-5.77936e-06
-5.88732e-06
-5.96594e-06
-6.0141e-06
-6.03117e-06
-6.01726e-06
-5.97327e-06
-5.90043e-06
-5.80181e-06
-5.68316e-06
-5.55581e-06
-5.42605e-06
-5.30572e-06
-5.20086e-06
-5.11812e-06
-5.05865e-06
-5.02197e-06
-4.99721e-06
-4.98022e-06
-4.96849e-06
-4.36746e-06
-4.34694e-06
-4.33756e-06
-4.33309e-06
-4.34502e-06
-4.3775e-06
-4.43246e-06
-4.50979e-06
-4.60602e-06
-4.71793e-06
-4.83614e-06
-4.95814e-06
-5.07401e-06
-5.18177e-06
-5.27663e-06
-5.35554e-06
-5.41429e-06
-5.45224e-06
-5.46867e-06
-5.46372e-06
-5.43851e-06
-5.39412e-06
-5.33552e-06
-5.26402e-06
-5.18664e-06
-5.10486e-06
-5.02892e-06
-4.96117e-06
-4.91088e-06
-4.88051e-06
-4.87146e-06
-4.88009e-06
-4.89249e-06
-4.91263e-06
-4.35385e-06
-4.32852e-06
-4.30975e-06
-4.28602e-06
-4.28242e-06
-4.30519e-06
-4.35797e-06
-4.44193e-06
-4.55298e-06
-4.69053e-06
-4.83833e-06
-4.99822e-06
-5.14182e-06
-5.27459e-06
-5.38328e-06
-5.4715e-06
-5.53473e-06
-5.5746e-06
-5.59057e-06
-5.58278e-06
-5.55214e-06
-5.49734e-06
-5.42339e-06
-5.32625e-06
-5.22059e-06
-5.10105e-06
-4.99734e-06
-4.90774e-06
-4.84937e-06
-4.82246e-06
-4.82788e-06
-4.85899e-06
-4.88196e-06
-4.90372e-06
-4.36389e-06
-4.32625e-06
-4.29226e-06
-4.24724e-06
-4.22963e-06
-4.24935e-06
-4.31323e-06
-4.42602e-06
-4.58399e-06
-4.79277e-06
-5.02339e-06
-5.28657e-06
-5.51047e-06
-5.71371e-06
-5.86877e-06
-5.98997e-06
-6.07197e-06
-6.12076e-06
-6.13613e-06
-6.11817e-06
-6.06739e-06
-5.978e-06
-5.85601e-06
-5.68725e-06
-5.50094e-06
-5.27888e-06
-5.09596e-06
-4.94143e-06
-4.84653e-06
-4.80534e-06
-4.81691e-06
-4.86795e-06
-4.90617e-06
-4.93862e-06
-4.41223e-06
-4.35853e-06
-4.31109e-06
-4.25158e-06
-4.23028e-06
-4.26177e-06
-4.3574e-06
-4.52811e-06
-4.77184e-06
-5.10833e-06
-5.48732e-06
-5.94504e-06
-6.31143e-06
-6.63812e-06
-6.87391e-06
-7.0536e-06
-7.16953e-06
-7.23494e-06
-7.24983e-06
-7.21417e-06
-7.12823e-06
-6.97877e-06
-6.77443e-06
-6.48072e-06
-6.15174e-06
-5.73617e-06
-5.40997e-06
-5.13532e-06
-4.96662e-06
-4.88361e-06
-4.88227e-06
-4.94105e-06
-4.98937e-06
-5.03813e-06
-4.50204e-06
-4.42754e-06
-4.36855e-06
-4.30214e-06
-4.28842e-06
-4.34701e-06
-4.49411e-06
-4.74874e-06
-5.1115e-06
-5.6292e-06
-6.22541e-06
-7.00618e-06
-7.57889e-06
-8.084e-06
-8.43175e-06
-8.69403e-06
-8.85788e-06
-8.94743e-06
-8.96202e-06
-8.90146e-06
-8.76655e-06
-8.53291e-06
-8.21475e-06
-7.74038e-06
-7.2045e-06
-6.46633e-06
-5.92986e-06
-5.48205e-06
-5.2073e-06
-5.05781e-06
-5.02618e-06
-5.07974e-06
-5.13418e-06
-5.20797e-06
-4.6304e-06
-4.53239e-06
-4.46397e-06
-4.39727e-06
-4.40108e-06
-4.49887e-06
-4.71057e-06
-5.06316e-06
-5.55925e-06
-6.30429e-06
-7.17667e-06
-8.48881e-06
-9.30988e-06
-1.0024e-05
-1.049e-05
-1.08418e-05
-1.10558e-05
-1.11717e-05
-1.11862e-05
-1.10989e-05
-1.09131e-05
-1.05883e-05
-1.01496e-05
-9.46268e-06
-8.67743e-06
-7.40679e-06
-6.60527e-06
-5.9378e-06
-5.54282e-06
-5.31337e-06
-5.24042e-06
-5.28108e-06
-5.34066e-06
-5.44626e-06
-4.79918e-06
-4.66918e-06
-4.59352e-06
-4.53412e-06
-4.56794e-06
-4.71996e-06
-5.01046e-06
-5.4651e-06
-6.08634e-06
-7.01498e-06
-8.19827e-06
-1.041e-05
-1.14457e-05
-1.2385e-05
-1.29769e-05
-1.34371e-05
-1.37143e-05
-1.38635e-05
-1.38782e-05
-1.37577e-05
-1.35083e-05
-1.30736e-05
-1.25065e-05
-1.15887e-05
-1.05851e-05
-8.40797e-06
-7.31629e-06
-6.46909e-06
-5.96184e-06
-5.64854e-06
-5.52251e-06
-5.54103e-06
-5.60252e-06
-5.74967e-06
-5.00066e-06
-4.82928e-06
-4.74628e-06
-4.69806e-06
-4.76844e-06
-4.97877e-06
-5.3409e-06
-5.86544e-06
-6.47806e-06
-7.4399e-06
-8.84855e-06
-1.30315e-05
-1.3824e-05
-1.4796e-05
-1.54248e-05
-1.59294e-05
-1.62298e-05
-1.6395e-05
-1.64098e-05
-1.62734e-05
-1.60001e-05
-1.55198e-05
-1.49138e-05
-1.39551e-05
-1.31863e-05
-9.02859e-06
-7.77361e-06
-6.87354e-06
-6.37978e-06
-6.01125e-06
-5.83923e-06
-5.83621e-06
-5.90188e-06
-6.10411e-06
-5.22774e-06
-5.00663e-06
-4.92191e-06
-4.89937e-06
-5.03453e-06
-5.34682e-06
-5.84971e-06
-6.48001e-06
-7.18642e-06
-9.07469e-06
-6.13086e-06
-1.50036e-05
-1.57e-05
-1.6999e-05
-1.77443e-05
-1.83929e-05
-1.87648e-05
-1.89624e-05
-1.89769e-05
-1.8808e-05
-1.84628e-05
-1.7839e-05
-1.71197e-05
-1.58498e-05
-1.51763e-05
-6.19361e-06
-9.34685e-06
-7.53583e-06
-6.9819e-06
-6.52707e-06
-6.24485e-06
-6.18326e-06
-6.23501e-06
-6.51164e-06
-5.46823e-06
-5.18786e-06
-5.09867e-06
-5.10122e-06
-5.30009e-06
-5.70747e-06
-6.30371e-06
-6.90581e-06
-7.0975e-06
-3.47932e-06
-2.13379e-05
-1.79503e-05
-1.85591e-05
-1.91824e-05
-1.96964e-05
-2.00325e-05
-2.02136e-05
-2.02269e-05
-2.00718e-05
-1.97599e-05
-1.92678e-05
-1.86625e-05
-1.80546e-05
-2.13449e-05
-4.12445e-06
-7.55526e-06
-7.42901e-06
-6.9907e-06
-6.6343e-06
-6.51957e-06
-6.56523e-06
-6.94503e-06
-5.71335e-06
-5.371e-06
-5.28684e-06
-5.33964e-06
-5.66409e-06
-6.3176e-06
-7.39347e-06
-8.93446e-06
-1.14032e-05
-1.38415e-05
-1.95473e-05
-1.67269e-05
-1.84495e-05
-1.98164e-05
-2.0819e-05
-2.14537e-05
-2.18717e-05
-2.20851e-05
-2.20972e-05
-2.1908e-05
-2.15138e-05
-2.09026e-05
-1.9924e-05
-1.85851e-05
-1.68888e-05
-1.97824e-05
-1.40423e-05
-1.16745e-05
-9.34968e-06
-8.01521e-06
-7.22411e-06
-6.91799e-06
-6.90366e-06
-7.39484e-06
-5.94772e-06
-5.54379e-06
-5.45473e-06
-5.53514e-06
-5.93323e-06
-6.71236e-06
-7.96231e-06
-9.66653e-06
-1.19538e-05
-1.40221e-05
-1.75213e-05
-1.83251e-05
-1.919e-05
-2.00871e-05
-2.08925e-05
-2.14862e-05
-2.19044e-05
-2.21195e-05
-2.21302e-05
-2.19364e-05
-2.15385e-05
-2.09627e-05
-2.01728e-05
-1.92833e-05
-1.84158e-05
-1.76593e-05
-1.42108e-05
-1.21933e-05
-1.00433e-05
-8.5604e-06
-7.62412e-06
-7.23866e-06
-7.21087e-06
-7.81992e-06
-6.16315e-06
-5.7062e-06
-5.61288e-06
-5.71803e-06
-6.18247e-06
-7.0763e-06
-8.48664e-06
-1.03876e-05
-1.28109e-05
-1.52449e-05
-1.78948e-05
-1.91117e-05
-2.00402e-05
-2.0847e-05
-2.15977e-05
-2.21555e-05
-2.25524e-05
-2.2754e-05
-2.27636e-05
-2.25811e-05
-2.22024e-05
-2.16599e-05
-2.09225e-05
-2.01208e-05
-1.92004e-05
-1.79985e-05
-1.53787e-05
-1.30069e-05
-1.07279e-05
-9.06684e-06
-7.99992e-06
-7.5446e-06
-7.50504e-06
-8.20536e-06
-6.3494e-06
-5.84844e-06
-5.74507e-06
-5.85786e-06
-6.35412e-06
-7.30316e-06
-8.7804e-06
-1.07546e-05
-1.31885e-05
-1.57001e-05
-1.81341e-05
-1.95962e-05
-2.06516e-05
-2.14336e-05
-2.21604e-05
-2.26914e-05
-2.30717e-05
-2.32631e-05
-2.32721e-05
-2.30983e-05
-2.27346e-05
-2.22169e-05
-2.15016e-05
-2.0722e-05
-1.96748e-05
-1.82174e-05
-1.58113e-05
-1.33661e-05
-1.10825e-05
-9.36411e-06
-8.25578e-06
-7.78348e-06
-7.75551e-06
-8.52969e-06
-6.50209e-06
-5.96839e-06
-5.85548e-06
-5.97036e-06
-6.4856e-06
-7.46984e-06
-8.99005e-06
-1.10139e-05
-1.34658e-05
-1.6023e-05
-1.84048e-05
-1.99973e-05
-2.11269e-05
-2.1928e-05
-2.26584e-05
-2.31781e-05
-2.3548e-05
-2.37319e-05
-2.37407e-05
-2.35739e-05
-2.32202e-05
-2.27132e-05
-2.19939e-05
-2.11936e-05
-2.00691e-05
-1.84782e-05
-1.61229e-05
-1.36341e-05
-1.13389e-05
-9.58489e-06
-8.45531e-06
-7.97886e-06
-7.96377e-06
-8.79017e-06
-6.61776e-06
-6.06129e-06
-5.93941e-06
-6.05145e-06
-6.57358e-06
-7.57371e-06
-9.11366e-06
-1.11625e-05
-1.36268e-05
-1.62203e-05
-1.8609e-05
-2.02899e-05
-2.14641e-05
-2.2285e-05
-2.30224e-05
-2.35382e-05
-2.39038e-05
-2.40842e-05
-2.40933e-05
-2.39305e-05
-2.35816e-05
-2.3079e-05
-2.23531e-05
-2.15319e-05
-2.03535e-05
-1.86797e-05
-1.63176e-05
-1.37943e-05
-1.1492e-05
-9.724e-06
-8.59104e-06
-8.12106e-06
-8.1202e-06
-8.9833e-06
-6.69559e-06
-6.126e-06
-5.99834e-06
-6.10767e-06
-6.63293e-06
-7.64212e-06
-9.19519e-06
-1.12627e-05
-1.3744e-05
-1.63689e-05
-1.87838e-05
-2.05382e-05
-2.17214e-05
-2.25573e-05
-2.33036e-05
-2.38218e-05
-2.41879e-05
-2.43683e-05
-2.43781e-05
-2.4217e-05
-2.38691e-05
-2.33654e-05
-2.26316e-05
-2.17934e-05
-2.05846e-05
-1.88553e-05
-1.64688e-05
-1.39151e-05
-1.15993e-05
-9.81962e-06
-8.68389e-06
-8.21837e-06
-8.22618e-06
-9.11107e-06
-6.73546e-06
-6.16168e-06
-6.03184e-06
-6.13978e-06
-6.66609e-06
-7.67956e-06
-9.24114e-06
-1.13224e-05
-1.38227e-05
-1.64734e-05
-1.89165e-05
-2.0701e-05
-2.19002e-05
-2.27486e-05
-2.35033e-05
-2.40282e-05
-2.43985e-05
-2.45816e-05
-2.45928e-05
-2.44315e-05
-2.40816e-05
-2.35736e-05
-2.2833e-05
-2.19834e-05
-2.07602e-05
-1.89966e-05
-1.65809e-05
-1.40009e-05
-1.16675e-05
-9.87679e-06
-8.73655e-06
-8.27138e-06
-8.28166e-06
-9.17463e-06
-6.73789e-06
-6.16886e-06
-6.04044e-06
-6.1482e-06
-6.67342e-06
-7.68644e-06
-9.25102e-06
-1.13402e-05
-1.38607e-05
-1.65327e-05
-1.9009e-05
-2.08054e-05
-2.20072e-05
-2.28625e-05
-2.36237e-05
-2.41579e-05
-2.45355e-05
-2.47239e-05
-2.47369e-05
-2.45739e-05
-2.422e-05
-2.37054e-05
-2.29604e-05
-2.21051e-05
-2.08767e-05
-1.91021e-05
-1.66523e-05
-1.40498e-05
-1.16957e-05
-9.89552e-06
-8.74977e-06
-8.28131e-06
-8.28816e-06
-9.17497e-06
-6.70451e-06
-6.14979e-06
-6.02595e-06
-6.13371e-06
-6.65387e-06
-7.65868e-06
-9.21845e-06
-1.13072e-05
-1.38501e-05
-1.65389e-05
-1.90666e-05
-2.08325e-05
-2.20437e-05
-2.29046e-05
-2.36719e-05
-2.42201e-05
-2.46086e-05
-2.48052e-05
-2.48206e-05
-2.46544e-05
-2.42941e-05
-2.37696e-05
-2.30213e-05
-2.21655e-05
-2.09502e-05
-1.91821e-05
-1.66781e-05
-1.40573e-05
-1.1679e-05
-9.87394e-06
-8.72453e-06
-8.25141e-06
-8.24948e-06
-9.11425e-06
-6.63742e-06
-6.10666e-06
-5.98797e-06
-6.09081e-06
-6.59358e-06
-7.56958e-06
-9.09788e-06
-1.11558e-05
-1.37083e-05
-1.6407e-05
-1.90591e-05
-2.07985e-05
-2.19818e-05
-2.28372e-05
-2.36041e-05
-2.41681e-05
-2.45703e-05
-2.47779e-05
-2.47967e-05
-2.46261e-05
-2.42579e-05
-2.37235e-05
-2.29796e-05
-2.2134e-05
-2.0955e-05
-1.91999e-05
-1.65751e-05
-1.39449e-05
-1.15562e-05
-9.77379e-06
-8.64164e-06
-8.17575e-06
-8.16685e-06
-8.99371e-06
-6.54184e-06
-6.04595e-06
-5.93376e-06
-6.02792e-06
-6.50292e-06
-7.43229e-06
-8.90569e-06
-1.09048e-05
-1.34675e-05
-1.61331e-05
-1.90712e-05
-2.07635e-05
-2.18405e-05
-2.27295e-05
-2.35229e-05
-2.41185e-05
-2.45407e-05
-2.47627e-05
-2.47863e-05
-2.46116e-05
-2.42329e-05
-2.36775e-05
-2.29148e-05
-2.20445e-05
-2.09713e-05
-1.9252e-05
-1.63552e-05
-1.37566e-05
-1.13557e-05
-9.61946e-06
-8.52168e-06
-8.07243e-06
-8.05572e-06
-8.82107e-06
-6.42332e-06
-5.97026e-06
-5.85944e-06
-5.92941e-06
-6.34391e-06
-7.16712e-06
-8.48564e-06
-1.02785e-05
-1.26441e-05
-1.48661e-05
-1.88747e-05
-2.08793e-05
-2.16052e-05
-2.25065e-05
-2.33184e-05
-2.39371e-05
-2.43777e-05
-2.46156e-05
-2.46449e-05
-2.44662e-05
-2.40804e-05
-2.35167e-05
-2.27497e-05
-2.1892e-05
-2.11909e-05
-1.90871e-05
-1.51378e-05
-1.30018e-05
-1.08116e-05
-9.26763e-06
-8.29749e-06
-7.9165e-06
-7.91626e-06
-8.60059e-06
-6.29396e-06
-5.89166e-06
-5.7864e-06
-5.83678e-06
-6.19671e-06
-6.92499e-06
-8.11751e-06
-9.80363e-06
-1.24613e-05
-1.53931e-05
-2.00543e-05
-1.92134e-05
-2.12324e-05
-2.28278e-05
-2.39026e-05
-2.46001e-05
-2.5069e-05
-2.53231e-05
-2.53638e-05
-2.51927e-05
-2.48005e-05
-2.41817e-05
-2.31656e-05
-2.16435e-05
-1.96585e-05
-2.02293e-05
-1.58832e-05
-1.29878e-05
-1.04742e-05
-8.99836e-06
-8.11195e-06
-7.7782e-06
-7.77887e-06
-8.36905e-06
-6.16152e-06
-5.80907e-06
-5.70063e-06
-5.71082e-06
-5.96422e-06
-6.46632e-06
-7.17198e-06
-7.78913e-06
-7.7235e-06
-2.44877e-06
-2.6823e-05
-2.18891e-05
-2.23825e-05
-2.29653e-05
-2.34918e-05
-2.38715e-05
-2.40986e-05
-2.4149e-05
-2.40261e-05
-2.37424e-05
-2.3323e-05
-2.2813e-05
-2.24299e-05
-2.73077e-05
-2.99253e-06
-8.4076e-06
-8.61149e-06
-8.18249e-06
-7.73408e-06
-7.57001e-06
-7.62024e-06
-8.12929e-06
-6.04229e-06
-5.73778e-06
-5.64265e-06
-5.65294e-06
-5.89619e-06
-6.41073e-06
-7.25199e-06
-8.40678e-06
-1.01152e-05
-1.28387e-05
-1.23862e-05
-1.87425e-05
-2.00482e-05
-2.15121e-05
-2.24024e-05
-2.31949e-05
-2.37021e-05
-2.39992e-05
-2.40663e-05
-2.3909e-05
-2.35259e-05
-2.28677e-05
-2.20286e-05
-2.07251e-05
-1.94978e-05
-1.39459e-05
-1.40637e-05
-1.12791e-05
-9.48145e-06
-8.38612e-06
-7.72412e-06
-7.48625e-06
-7.49305e-06
-7.92568e-06
-5.94238e-06
-5.67774e-06
-5.59304e-06
-5.59813e-06
-5.81015e-06
-6.26795e-06
-7.01263e-06
-8.04771e-06
-9.35063e-06
-1.08283e-05
-1.39572e-05
-1.79265e-05
-1.89243e-05
-1.99811e-05
-2.07568e-05
-2.14893e-05
-2.19769e-05
-2.22762e-05
-2.23532e-05
-2.22158e-05
-2.18659e-05
-2.12822e-05
-2.0517e-05
-1.95494e-05
-1.8688e-05
-1.51577e-05
-1.1896e-05
-1.04712e-05
-9.17137e-06
-8.19916e-06
-7.59802e-06
-7.36971e-06
-7.36628e-06
-7.75431e-06
-5.87313e-06
-5.64429e-06
-5.57965e-06
-5.59873e-06
-5.81002e-06
-6.25771e-06
-6.99268e-06
-8.04343e-06
-9.4593e-06
-1.12176e-05
-1.34276e-05
-1.59062e-05
-1.72159e-05
-1.83076e-05
-1.91238e-05
-1.98882e-05
-2.03929e-05
-2.06979e-05
-2.07778e-05
-2.06434e-05
-2.02866e-05
-1.96989e-05
-1.88962e-05
-1.78851e-05
-1.67027e-05
-1.45874e-05
-1.24407e-05
-1.06776e-05
-9.23408e-06
-8.21034e-06
-7.5808e-06
-7.32097e-06
-7.28565e-06
-7.62628e-06
-5.83959e-06
-5.63979e-06
-5.59824e-06
-5.63545e-06
-5.84456e-06
-6.26582e-06
-6.94366e-06
-7.9063e-06
-9.17419e-06
-1.07464e-05
-1.25277e-05
-1.43932e-05
-1.56627e-05
-1.67353e-05
-1.75747e-05
-1.83167e-05
-1.8809e-05
-1.91067e-05
-1.91885e-05
-1.90664e-05
-1.8731e-05
-1.81825e-05
-1.73985e-05
-1.64288e-05
-1.52635e-05
-1.36558e-05
-1.19516e-05
-1.0391e-05
-9.10503e-06
-8.1598e-06
-7.56456e-06
-7.29983e-06
-7.24378e-06
-7.54011e-06
-5.82743e-06
-5.66611e-06
-5.65577e-06
-5.72239e-06
-5.94152e-06
-6.34652e-06
-6.97202e-06
-7.83725e-06
-8.94563e-06
-1.0271e-05
-1.17165e-05
-1.31906e-05
-1.43502e-05
-1.53892e-05
-1.62223e-05
-1.69308e-05
-1.74161e-05
-1.7711e-05
-1.77962e-05
-1.76833e-05
-1.73627e-05
-1.68405e-05
-1.61006e-05
-1.51984e-05
-1.41165e-05
-1.28317e-05
-1.14518e-05
-1.0141e-05
-9.02053e-06
-8.16981e-06
-7.61183e-06
-7.33822e-06
-7.2554e-06
-7.50109e-06
-5.83982e-06
-5.71924e-06
-5.74474e-06
-5.8488e-06
-6.08629e-06
-6.48264e-06
-7.06383e-06
-7.84112e-06
-8.80808e-06
-9.93463e-06
-1.11386e-05
-1.23539e-05
-1.34062e-05
-1.43533e-05
-1.5131e-05
-1.57861e-05
-1.62423e-05
-1.65198e-05
-1.66042e-05
-1.65039e-05
-1.62122e-05
-1.57368e-05
-1.50684e-05
-1.42596e-05
-1.33075e-05
-1.22279e-05
-1.10787e-05
-9.96893e-06
-8.9987e-06
-8.23814e-06
-7.71449e-06
-7.4277e-06
-7.31324e-06
-7.50017e-06
-5.85889e-06
-5.77144e-06
-5.81274e-06
-5.94204e-06
-6.19278e-06
-6.58538e-06
-7.14058e-06
-7.86279e-06
-8.74235e-06
-9.75013e-06
-1.08253e-05
-1.19097e-05
-1.29052e-05
-1.38037e-05
-1.45488e-05
-1.51602e-05
-1.55929e-05
-1.58551e-05
-1.59373e-05
-1.58444e-05
-1.55726e-05
-1.51294e-05