/*--------------------------------*- C++ -*----------------------------------*\
| =========                 |                                                 |
| \\      /  F ield         | OpenFOAM: The Open Source CFD Toolbox           |
|  \\    /   O peration     | Version:  2112                                  |
|   \\  /    A nd           | Website:  www.openfoam.com                      |
|    \\/     M anipulation  |                                                 |
\*---------------------------------------------------------------------------*/
FoamFile
{
    version     2.0;
    format      ascii;
    arch        "LSB;label=32;scalar=64";
    class       surfaceScalarField;
    location    "4.9";
    object      phi;
}
// * * * * * * * * * * * * * * * * * * * * * * * * * * * * * * * * * * * * * //

dimensions      [0 3 -1 0 0 0 0];

oriented        oriented;

internalField   nonuniform List<scalar> 
188215
(
4.20289e-10
7.78691e-10
-1.19898e-09
2.40127e-09
-2.97727e-10
-1.68325e-09
5.39047e-09
-1.96709e-09
-1.02212e-09
8.95637e-09
-3.54479e-09
-2.11156e-11
1.26295e-08
-4.75652e-09
1.08341e-09
1.63605e-08
-5.56643e-09
1.8354e-09
2.00541e-08
-6.04194e-09
2.34837e-09
2.35402e-08
-6.18428e-09
2.69816e-09
2.6575e-08
-5.96265e-09
2.92788e-09
2.8725e-08
-5.20816e-09
3.05817e-09
2.96682e-08
-4.03368e-09
3.09047e-09
2.89173e-08
-2.30136e-09
3.05223e-09
2.66606e-08
-8.16077e-10
3.07284e-09
2.31024e-08
3.3283e-10
3.22537e-09
1.87534e-08
8.31775e-10
3.51716e-09
1.37773e-08
1.1807e-09
3.79548e-09
8.41491e-09
1.36033e-09
4.00202e-09
2.87364e-09
1.42911e-09
4.11216e-09
-2.64371e-09
1.39974e-09
4.11761e-09
-7.93573e-09
1.2725e-09
4.01952e-09
-1.27995e-08
1.03654e-09
3.82718e-09
-1.70092e-08
6.41311e-10
3.56841e-09
-2.03965e-08
6.87795e-11
3.31857e-09
-2.23761e-08
-1.24216e-09
3.2217e-09
-2.28734e-08
-2.71747e-09
3.21479e-09
-2.16753e-08
-4.44139e-09
3.24329e-09
-1.92873e-08
-5.54145e-09
3.15344e-09
-1.60416e-08
-6.12178e-09
2.87615e-09
-1.24039e-08
-5.98097e-09
2.34319e-09
-8.66504e-09
-5.18828e-09
1.44946e-09
-5.00324e-09
-3.68393e-09
2.21327e-11
-2.07131e-09
-1.58108e-09
-1.35085e-09
-2.25763e-10
5.06946e-10
-2.35249e-09
1.67916e-09
-1.90493e-09
-2.08668e-09
5.64937e-09
-2.78399e-09
1.88968e-10
5.59646e-09
-8.16983e-09
3.96349e-09
4.37457e-09
-1.01162e-08
8.04843e-09
3.10514e-09
-1.07349e-08
1.2081e-08
2.46023e-09
-1.12493e-08
1.60174e-08
2.57478e-09
-1.20776e-08
1.98397e-08
3.53017e-09
-1.33944e-08
2.34358e-08
5.49595e-09
-1.52763e-08
2.6568e-08
8.66393e-09
-1.77588e-08
2.87944e-08
1.34108e-08
-2.08454e-08
2.97316e-08
1.94407e-08
-2.44115e-08
2.89134e-08
2.67434e-08
-2.82266e-08
2.67154e-08
3.31748e-08
-3.17929e-08
2.32748e-08
3.86672e-08
-3.48939e-08
1.88897e-08
4.26783e-08
-3.74614e-08
1.38766e-08
4.55976e-08
-3.94037e-08
8.49613e-09
4.74414e-08
-4.07006e-08
2.94902e-09
4.83466e-08
-4.13704e-08
-2.57255e-09
4.83371e-08
-4.14158e-08
-7.87618e-09
4.74128e-08
-4.08366e-08
-1.27613e-08
4.55517e-08
-3.963e-08
-1.69572e-08
4.26182e-08
-3.7781e-08
-2.01583e-08
3.8597e-08
-3.53271e-08
-2.21423e-08
3.31009e-08
-3.23591e-08
-2.26885e-08
2.67548e-08
-2.8926e-08
-2.14509e-08
1.96132e-08
-2.52922e-08
-1.89098e-08
1.38968e-08
-2.19795e-08
-1.54247e-08
9.63077e-09
-1.92376e-08
-1.14149e-08
7.21422e-09
-1.7205e-08
-7.09747e-09
6.34281e-09
-1.58486e-08
-2.65638e-09
6.8399e-09
-1.49649e-08
1.39109e-09
8.384e-09
-1.40125e-08
3.51056e-09
9.80417e-09
-1.14167e-08
9.51314e-09
-4.32342e-09
-4.16172e-09
1.27644e-08
-2.95335e-09
-2.01341e-09
1.40077e-08
-1.05595e-08
2.27808e-09
1.3648e-08
-1.35649e-08
6.98497e-09
1.33243e-08
-1.49261e-08
1.16453e-08
1.3889e-08
-1.60891e-08
1.62173e-08
1.56055e-08
-1.76028e-08
2.07519e-08
1.87358e-08
-1.97401e-08
2.51963e-08
2.36978e-08
-2.26463e-08
2.93007e-08
3.09515e-08
-2.6392e-08
3.2413e-08
4.12994e-08
-3.10009e-08
3.38904e-08
5.42606e-08
-3.62973e-08
3.27651e-08
6.98617e-08
-4.1993e-08
2.98647e-08
8.34406e-08
-4.73654e-08
2.55693e-08
9.50414e-08
-5.20788e-08
2.0486e-08
1.03687e-07
-5.59256e-08
1.48676e-08
1.10061e-07
-5.88448e-08
8.95335e-09
1.14155e-07
-6.07995e-08
2.90716e-09
1.16205e-07
-6.18119e-08
-3.11257e-09
1.16239e-07
-6.18817e-08
-8.94676e-09
1.14256e-07
-6.10091e-08
-1.44316e-08
1.10231e-07
-5.91942e-08
-1.93235e-08
1.03929e-07
-5.64186e-08
-2.33761e-08
9.53754e-08
-5.27258e-08
-2.59912e-08
8.39024e-08
-4.81864e-08
-2.67763e-08
7.05587e-08
-4.30189e-08
-2.48901e-08
5.53122e-08
-3.75851e-08
-2.13063e-08
4.29456e-08
-3.26326e-08
-1.66072e-08
3.33877e-08
-2.8456e-08
-1.14027e-08
2.72318e-08
-2.52221e-08
-5.93536e-09
2.37086e-08
-2.28332e-08
-4.45338e-10
2.23185e-08
-2.09687e-08
4.42518e-09
2.24668e-08
-1.89533e-08
6.38085e-09
2.27148e-08
-1.48663e-08
2.06757e-08
-4.78175e-09
-5.7025e-09
2.07406e-08
-2.27364e-09
-3.5262e-09
2.29607e-08
-1.11293e-08
1.42718e-09
2.3369e-08
-1.46744e-08
7.02146e-09
2.40863e-08
-1.63562e-08
1.27149e-08
2.60193e-08
-1.78237e-08
1.84862e-08
2.95145e-08
-1.96802e-08
2.44898e-08
3.49764e-08
-2.22442e-08
3.07678e-08
4.31117e-08
-2.56918e-08
3.70147e-08
5.47992e-08
-3.00946e-08
4.21396e-08
7.16747e-08
-3.55002e-08
4.48041e-08
9.32825e-08
-4.16863e-08
4.28765e-08
1.20256e-07
-4.84664e-08
3.83175e-08
1.42827e-07
-5.48276e-08
3.205e-08
1.6173e-07
-6.0421e-08
2.51679e-08
1.75548e-07
-6.49783e-08
1.78943e-08
1.85756e-07
-6.84215e-08
1.0435e-08
1.92323e-07
-7.07084e-08
2.89387e-09
1.95636e-07
-7.18901e-08
-4.62084e-09
1.95722e-07
-7.19682e-08
-1.19993e-08
1.92577e-07
-7.09427e-08
-1.91355e-08
1.86178e-07
-6.88112e-08
-2.58141e-08
1.76134e-07
-6.55267e-08
-3.18084e-08
1.62506e-07
-6.11363e-08
-3.60093e-08
1.43835e-07
-5.5732e-08
-3.74896e-08
1.2164e-07
-4.96013e-08
-3.42561e-08
9.51932e-08
-4.31144e-08
-2.84645e-08
7.44651e-08
-3.73111e-08
-2.13497e-08
5.86455e-08
-3.23726e-08
-1.39567e-08
4.8342e-08
-2.85032e-08
-6.62268e-09
4.19417e-08
-2.55671e-08
3.59791e-10
3.8547e-08
-2.32109e-08
6.33262e-09
3.72178e-08
-2.07239e-08
8.42684e-09
3.6505e-08
-1.58845e-08
3.3199e-08
-4.09637e-09
-6.63925e-09
2.8747e-08
-1.3672e-09
-4.07807e-09
3.16986e-08
-1.1299e-08
1.8606e-09
3.27314e-08
-1.5301e-08
8.71486e-09
3.44455e-08
-1.72135e-08
1.58946e-08
3.77513e-08
-1.89118e-08
2.3466e-08
4.30115e-08
-2.10685e-08
3.17773e-08
5.06983e-08
-2.40333e-08
4.10982e-08
6.17904e-08
-2.79996e-08
5.11194e-08
7.77754e-08
-3.29974e-08
6.00793e-08
1.01822e-07
-3.91071e-08
6.51671e-08
1.34202e-07
-4.60073e-08
6.14496e-08
1.77917e-07
-5.39437e-08
5.36116e-08
2.11949e-07
-6.12837e-08
4.37385e-08
2.39437e-07
-6.78343e-08
3.36756e-08
2.58809e-07
-7.31982e-08
2.34626e-08
2.73158e-07
-7.71891e-08
1.32137e-08
2.82366e-07
-7.97942e-08
2.94159e-09
2.87041e-07
-8.11328e-08
-7.30583e-09
2.87184e-07
-8.12146e-08
-1.74777e-08
2.82788e-07
-8.00393e-08
-2.75557e-08
2.73851e-07
-7.75953e-08
-3.74058e-08
2.59753e-07
-7.37683e-08
-4.69713e-08
2.40647e-07
-6.85754e-08
-5.43682e-08
2.13454e-07
-6.22214e-08
-5.75048e-08
1.79905e-07
-5.51283e-08
-5.16435e-08
1.36839e-07
-4.75074e-08
-4.18206e-08
1.05671e-07
-4.10291e-08
-3.06587e-08
8.29086e-08
-3.54249e-08
-1.98673e-08
6.85517e-08
-3.10011e-08
-9.81484e-09
5.94732e-08
-2.7584e-08
-6.72269e-10
5.42412e-08
-2.48367e-08
6.87812e-09
5.16434e-08
-2.1976e-08
9.65069e-09
5.0217e-08
-1.64846e-08
4.59636e-08
-3.11399e-09
-7.15036e-09
3.63586e-08
-4.61182e-10
-3.76329e-09
3.98501e-08
-1.15385e-08
3.60067e-09
4.14187e-08
-1.60513e-08
1.21673e-08
4.40914e-08
-1.82125e-08
2.12948e-08
4.87798e-08
-2.0156e-08
3.12053e-08
5.57537e-08
-2.26526e-08
4.25684e-08
6.54046e-08
-2.60695e-08
5.61749e-08
7.87789e-08
-3.05949e-08
7.20206e-08
9.80472e-08
-3.61175e-08
8.78131e-08
1.28747e-07
-4.27174e-08
9.79729e-08
1.73656e-07
-4.96136e-08
9.05724e-08
2.4395e-07
-5.86329e-08
7.69143e-08
2.92531e-07
-6.69247e-08
6.13069e-08
3.29829e-07
-7.47838e-08
4.65185e-08
3.54944e-07
-8.13473e-08
3.19473e-08
3.73756e-07
-8.60265e-08
1.74928e-08
3.85808e-07
-8.8988e-08
3.05873e-09
3.91972e-07
-9.04977e-08
-1.1356e-08
3.9218e-07
-9.05822e-08
-2.57479e-08
3.86421e-07
-8.92408e-08
-4.02044e-08
3.74751e-07
-8.64435e-08
-5.47922e-08
3.56273e-07
-8.19323e-08
-7.00765e-08
3.31474e-07
-7.55429e-08
-8.32103e-08
2.94478e-07
-6.78902e-08
-8.98703e-08
2.46434e-07
-5.98688e-08
-7.86586e-08
1.76812e-07
-5.11841e-08
-6.18416e-08
1.33614e-07
-4.47598e-08
-4.45869e-08
1.04371e-07
-3.87167e-08
-2.91172e-08
8.69195e-08
-3.38374e-08
-1.55169e-08
7.58125e-08
-2.99396e-08
-3.51425e-09
6.90412e-08
-2.68026e-08
6.25247e-09
6.53954e-08
-2.35187e-08
1.03288e-08
6.34081e-08
-1.72674e-08
5.84088e-08
-2.11642e-09
-7.4063e-09
4.32365e-08
5.28344e-10
-2.67874e-09
4.71376e-08
-1.20151e-08
6.6486e-09
4.92454e-08
-1.71541e-08
1.74285e-08
5.29315e-08
-1.962e-08
2.89336e-08
5.91258e-08
-2.18512e-08
4.15488e-08
6.78743e-08
-2.47357e-08
5.63712e-08
7.92193e-08
-2.86371e-08
7.52057e-08
9.36526e-08
-3.37082e-08
9.9207e-08
1.13599e-07
-3.95527e-08
1.26285e-07
1.47717e-07
-4.60482e-08
1.47757e-07
2.03424e-07
-5.12406e-08
1.32521e-07
3.19949e-07
-6.07634e-08
1.08874e-07
3.85628e-07
-6.94498e-08
8.49134e-08
4.32991e-07
-7.92016e-08
6.38859e-08
4.63677e-07
-8.77051e-08
4.35402e-08
4.87204e-07
-9.31024e-08
2.33925e-08
5.0236e-07
-9.64037e-08
3.25816e-09
5.10183e-07
-9.80758e-08
-1.68675e-08
5.10468e-07
-9.81619e-08
-3.69846e-08
5.03199e-07
-9.66612e-08
-5.72676e-08
4.88559e-07
-9.35249e-08
-7.81518e-08
4.65456e-07
-8.82997e-08
-1.01825e-07
4.35121e-07
-7.99736e-08
-1.24881e-07
3.8798e-07
-7.04471e-08
-1.39188e-07
3.22817e-07
-6.2076e-08
-1.16235e-07
2.06765e-07
-5.29061e-08
-8.80754e-08
1.53707e-07
-4.82528e-08
-6.24226e-08
1.21085e-07
-4.23671e-08
-4.12614e-08
1.03023e-07
-3.72643e-08
-2.35489e-08
9.10337e-08
-3.29337e-08
-8.09435e-09
8.29884e-08
-2.94018e-08
4.61994e-09
7.83149e-08
-2.56338e-08
1.06828e-08
7.57671e-08
-1.84219e-08
7.01895e-08
-1.09779e-09
-7.44152e-09
4.89908e-08
1.68729e-09
-7.43057e-10
5.32133e-08
-1.27742e-08
1.12076e-08
5.59948e-08
-1.87e-08
2.48541e-08
6.083e-08
-2.1545e-08
3.92458e-08
6.88595e-08
-2.41253e-08
5.47393e-08
7.98468e-08
-2.74661e-08
7.2631e-08
9.32495e-08
-3.19219e-08
9.59945e-08
1.07918e-07
-3.76289e-08
1.28573e-07
1.24652e-07
-4.36314e-08
1.73938e-07
1.52322e-07
-4.99694e-08
2.21049e-07
2.041e-07
-4.77862e-08
1.89871e-07
4.0604e-07
-5.49127e-08
1.51129e-07
4.88074e-07
-6.37042e-08
1.16354e-07
5.45092e-07
-7.73256e-08
8.7739e-08
5.81602e-07
-8.93108e-08
5.97932e-08
6.1062e-07
-9.54707e-08
3.17374e-08
6.29523e-07
-9.91075e-08
3.56381e-09
6.39309e-07
-1.00953e-07
-2.46177e-08
6.3969e-07
-1.0104e-07
-5.26964e-08
6.30645e-07
-9.9367e-08
-8.06783e-08
6.12436e-07
-9.58946e-08
-1.09289e-07
5.8398e-07
-8.9913e-08
-1.43938e-07
5.47882e-07
-7.81117e-08
-1.82137e-07
4.90929e-07
-6.47496e-08
-2.12131e-07
4.09194e-07
-5.63826e-08
-1.62817e-07
2.07011e-07
-4.95598e-08
-1.16547e-07
1.59721e-07
-5.22842e-08
-8.20953e-08
1.33282e-07
-4.66487e-08
-5.58186e-08
1.18292e-07
-4.15464e-08
-3.41587e-08
1.06124e-07
-3.67504e-08
-1.47577e-08
9.63835e-08
-3.2796e-08
1.75083e-09
9.02695e-08
-2.84632e-08
1.07251e-08
8.68146e-08
-2.00217e-08
8.09548e-08
-4.02932e-11
-7.27548e-09
5.33545e-08
2.91174e-09
1.91261e-09
5.78387e-08
-1.38135e-08
1.73816e-08
6.12885e-08
-2.07628e-08
3.47016e-08
6.75553e-08
-2.40453e-08
5.26047e-08
7.79779e-08
-2.70215e-08
7.10324e-08
9.2257e-08
-3.08378e-08
9.07402e-08
1.094e-07
-3.58583e-08
1.152e-07
1.25636e-07
-4.21772e-08
1.51442e-07
1.37246e-07
-4.8837e-08
2.25995e-07
1.31184e-07
-5.34152e-08
3.24821e-07
1.56394e-07
-5.11212e-08
2.61209e-07
5.11471e-07
-4.18184e-08
2.00191e-07
5.95429e-07
-4.63377e-08
1.53782e-07
6.5711e-07
-6.56086e-08
1.16999e-07
7.00609e-07
-8.22236e-08
8.00769e-08
7.35954e-07
-8.84118e-08
4.2267e-08
7.59956e-07
-9.26234e-08
4.00455e-09
7.72322e-07
-9.47505e-08
-3.4287e-08
7.72814e-07
-9.48324e-08
-7.21912e-08
7.61415e-07
-9.28657e-08
-1.09293e-07
7.38337e-07
-8.87993e-08
-1.46317e-07
7.03781e-07
-8.27774e-08
-1.92958e-07
6.60847e-07
-6.63237e-08
-2.53723e-07
5.99019e-07
-4.7325e-08
-3.15608e-07
5.14443e-07
-4.33637e-08
-2.1341e-07
1.58186e-07
-5.33726e-08
-1.39319e-07
1.4164e-07
-5.60098e-08
-1.007e-07
1.46796e-07
-5.21334e-08
-7.25029e-08
1.36677e-07
-4.65823e-08
-4.78372e-08
1.22859e-07
-4.1401e-08
-2.40001e-08
1.09625e-07
-3.70782e-08
-2.44226e-09
1.00892e-07
-3.21806e-08
1.05135e-08
9.60307e-08
-2.21719e-08
8.98862e-08
1.5821e-09
-6.71622e-09
5.58348e-08
4.23596e-09
5.85464e-09
6.04589e-08
-1.51911e-08
2.60379e-08
6.44884e-08
-2.33831e-08
4.86526e-08
7.2155e-08
-2.72143e-08
7.2105e-08
8.52322e-08
-3.07067e-08
9.54686e-08
1.04045e-07
-3.51516e-08
1.1784e-07
1.27989e-07
-4.09599e-08
1.39171e-07
1.53548e-07
-4.92436e-08
1.56334e-07
1.77413e-07
-5.73297e-08
2.11538e-07
1.48272e-07
-7.22918e-08
4.47226e-07
-7.92939e-08
3.56382e-07
6.09854e-07
-7.53862e-09
2.69913e-07
6.79979e-07
1.91859e-09
2.11606e-07
7.31254e-07
-1.58375e-08
1.64396e-07
7.82509e-07
-3.46889e-08
1.12952e-07
8.23333e-07
-3.59346e-08
5.90419e-08
8.52042e-07
-3.81761e-08
4.63566e-09
8.66473e-07
-3.97441e-08
-4.98107e-08
8.67058e-07
-3.97975e-08
-1.03864e-07
8.53804e-07
-3.83359e-08
-1.55627e-07
8.26268e-07
-3.61678e-08
-2.03378e-07
7.86599e-07
-3.50669e-08
-2.62554e-07
7.36325e-07
-1.63021e-08
-3.50216e-07
6.85705e-07
9.74685e-10
-4.40506e-07
6.13656e-07
-8.92362e-09
-1.99873e-07
-8.24466e-08
-1.42722e-07
1.58603e-07
-7.41135e-08
-1.24201e-07
1.88609e-07
-6.0334e-08
-9.84939e-08
1.65055e-07
-5.40844e-08
-6.97933e-08
1.41591e-07
-4.7432e-08
-3.91157e-08
1.21615e-07
-4.26675e-08
-9.87618e-09
1.08778e-07
-3.71257e-08
9.14298e-09
1.02113e-07
-2.51016e-08
9.57119e-08
3.31726e-09
-5.93504e-09
5.6179e-08
5.59084e-09
1.06517e-08
6.07659e-08
-1.68938e-08
3.64633e-08
6.51859e-08
-2.65091e-08
6.57493e-08
7.3872e-08
-3.10031e-08
9.67939e-08
8.92694e-08
-3.50817e-08
1.27377e-07
1.1332e-07
-3.98575e-08
1.51181e-07
1.49527e-07
-4.53431e-08
1.523e-07
2.0271e-07
-5.02812e-08
1.16622e-07
2.80409e-07
-6.73177e-08
3.80402e-07
-1.15508e-07
1.98202e-07
3.28431e-07
8.32213e-08
2.64124e-07
5.60336e-07
5.37209e-08
2.60633e-07
6.88338e-07
4.64069e-08
2.12944e-07
7.82468e-07
4.77296e-08
1.4748e-07
8.44802e-07
4.39949e-08
7.71543e-08
8.8369e-07
3.86783e-08
5.43489e-09
9.02266e-07
3.59263e-08
-6.63317e-08
9.02896e-07
3.59278e-08
-1.36821e-07
8.85618e-07
3.86746e-08
-2.02673e-07
8.48122e-07
4.39983e-08
-2.51255e-07
7.87403e-07
4.77779e-08
-2.56781e-07
6.95267e-07
4.65841e-08
-1.94092e-07
5.69368e-07
5.3648e-08
3.37692e-07
8.18719e-08
-1.12522e-07
3.83169e-07
-1.12044e-07
-1.41776e-07
2.87741e-07
-6.98779e-08
-1.33078e-07
2.12312e-07
-5.59554e-08
-1.00342e-07
1.62072e-07
-5.3217e-08
-5.97846e-08
1.30257e-07
-4.92004e-08
-2.02584e-08
1.12583e-07
-4.33311e-08
6.861e-09
1.03979e-07
-2.89854e-08
9.76098e-08
4.96311e-09
-4.65392e-09
5.39081e-08
6.92482e-09
1.67067e-08
5.82428e-08
-1.88375e-08
4.96962e-08
6.22239e-08
-3.00275e-08
8.89473e-08
7.00402e-08
-3.54193e-08
1.35126e-07
8.36909e-08
-4.06004e-08
1.91051e-07
1.04258e-07
-4.68633e-08
2.61751e-07
1.32888e-07
-5.40607e-08
3.53587e-07
1.6991e-07
-5.90347e-08
4.79492e-07
2.1413e-07
-5.96258e-08
6.33106e-07
2.67499e-07
-4.07126e-08
4.95406e-07
8.78114e-08
4.9889e-08
4.96115e-07
2.30676e-07
9.70467e-08
4.73129e-07
4.19717e-07
1.63604e-07
4.02981e-07
5.38378e-07
2.20109e-07
3.06796e-07
6.26409e-07
2.52244e-07
2.03955e-07
6.84375e-07
2.63268e-07
1.03861e-07
7.2029e-07
2.63495e-07
6.2526e-09
7.37513e-07
2.6236e-07
-9.13363e-08
7.38079e-07
2.62406e-07
-1.91366e-07
7.22009e-07
2.63639e-07
-2.94108e-07
6.87307e-07
2.63557e-07
-3.90223e-07
6.30647e-07
2.52872e-07
-4.60388e-07
5.43983e-07
2.21448e-07
-4.83154e-07
4.26294e-07
1.65841e-07
-4.84786e-07
2.38383e-07
1.00942e-07
-6.27577e-07
8.92181e-08
5.35728e-08
-4.73899e-07
2.69709e-07
-4.02179e-08
-3.43156e-07
2.20007e-07
-6.30094e-08
-2.43674e-07
1.78471e-07
-6.56405e-08
-1.62639e-07
1.44643e-07
-6.36064e-08
-9.44362e-08
1.2048e-07
-5.84254e-08
-3.6817e-08
1.0618e-07
-5.12157e-08
1.83763e-09
9.9225e-08
-3.39005e-08
9.31148e-08
6.33261e-09
-3.80538e-09
4.94752e-08
8.23827e-09
2.1697e-08
5.33995e-08
-2.0659e-08
6.06687e-08
5.66248e-08
-3.33726e-08
1.07481e-07
6.28542e-08
-3.96258e-08
1.63459e-07
7.34948e-08
-4.57826e-08
2.32196e-07
8.87938e-08
-5.32729e-08
3.18389e-07
1.083e-07
-6.16047e-08
4.2504e-07
1.30635e-07
-6.73764e-08
5.54561e-07
1.50905e-07
-6.6296e-08
7.02332e-07
1.67466e-07
-4.77377e-08
6.95754e-07
1.06453e-07
-1.20632e-08
6.72028e-07
1.93826e-07
6.05759e-08
6.09339e-07
3.08189e-07
1.74216e-07
5.02501e-07
3.93802e-07
2.51415e-07
3.77031e-07
4.58869e-07
2.93009e-07
2.48719e-07
5.00975e-07
3.11711e-07
1.25688e-07
5.27064e-07
3.16256e-07
6.92399e-09
5.39527e-07
3.16751e-07
-1.118e-07
5.39994e-07
3.16809e-07
-2.34703e-07
5.28472e-07
3.1644e-07
-3.62824e-07
5.03336e-07
3.12092e-07
-4.88166e-07
4.6218e-07
2.93808e-07
-5.95295e-07
3.98006e-07
2.53106e-07
-6.59099e-07
3.12996e-07
1.77101e-07
-6.8486e-07
1.98754e-07
6.53897e-08
-6.95521e-07
1.08891e-07
-9.01134e-09
-5.48884e-07
1.71062e-07
-4.79906e-08
-4.15025e-07
1.56503e-07
-7.03543e-08
-3.00083e-07
1.38559e-07
-7.50295e-08
-2.02012e-07
1.19272e-07
-7.26999e-08
-1.18715e-07
1.04013e-07
-6.68295e-08
-4.86023e-08
9.44954e-08
-5.84283e-08
-9.25871e-10
8.98589e-08
-3.83104e-08
8.42797e-08
7.90924e-09
-3.22533e-09
4.32091e-08
9.49137e-09
2.57378e-08
4.6632e-08
-2.21957e-08
6.96566e-08
4.8972e-08
-3.6266e-08
1.22401e-07
5.34072e-08
-4.32973e-08
1.85386e-07
6.08799e-08
-5.03701e-08
2.62152e-07
7.12322e-08
-5.9205e-08
3.56341e-07
8.35566e-08
-6.94449e-08
4.68778e-07
9.6664e-08
-7.84664e-08
5.94814e-07
1.06788e-07
-8.19192e-08
7.17996e-07
1.1606e-07
-7.17754e-08
7.632e-07
1.03599e-07
-4.23504e-08
7.64007e-07
1.54263e-07
3.87565e-08
6.90699e-07
2.22883e-07
1.58614e-07
5.678e-07
2.79213e-07
2.37489e-07
4.22676e-07
3.2269e-07
2.81302e-07
2.77387e-07
3.50641e-07
2.95624e-07
1.39656e-07
3.68098e-07
2.96697e-07
7.4397e-09
3.7645e-07
2.95293e-07
-1.24729e-07
3.76845e-07
2.95317e-07
-2.62313e-07
3.69275e-07
2.96782e-07
-4.07405e-07
3.52579e-07
2.95848e-07
-5.52467e-07
3.25338e-07
2.81904e-07
-6.7594e-07
2.82492e-07
2.38988e-07
-7.50842e-07
2.26568e-07
1.61331e-07
-7.53667e-07
1.58146e-07
4.34323e-08
-7.11929e-07
1.06691e-07
-3.95389e-08
-5.88805e-07
1.19997e-07
-7.2059e-08
-4.58219e-07
1.12167e-07
-8.62494e-08
-3.36896e-07
1.04016e-07
-8.678e-08
-2.29579e-07
9.36116e-08
-8.1657e-08
-1.36353e-07
8.50308e-08
-7.42441e-08
-5.69915e-08
7.96163e-08
-6.44827e-08
-2.2119e-09
7.6983e-08
-4.19036e-08
7.23345e-08
9.73331e-09
-3.108e-09
3.5729e-08
1.05881e-08
2.83455e-08
3.8567e-08
-2.33884e-08
7.57367e-08
4.01524e-08
-3.85716e-08
1.32295e-07
4.30874e-08
-4.62383e-08
1.99193e-07
4.80203e-08
-5.40391e-08
2.79657e-07
5.47037e-08
-6.39352e-08
3.76525e-07
6.23485e-08
-7.56597e-08
4.89739e-07
7.03257e-08
-8.68754e-08
6.12707e-07
7.66921e-08
-9.28721e-08
7.29854e-07
8.46255e-08
-8.57131e-08
8.01985e-07
8.85364e-08
-5.7069e-08
8.15584e-07
1.20634e-07
2.00296e-08
7.37214e-07
1.63379e-07
1.37874e-07
6.05623e-07
1.99769e-07
2.11035e-07
4.49841e-07
2.28097e-07
2.50375e-07
2.94873e-07
2.46641e-07
2.58968e-07
1.48347e-07
2.58352e-07
2.56271e-07
7.84505e-09
2.64032e-07
2.5292e-07
-1.32619e-07
2.64401e-07
2.52907e-07
-2.79033e-07
2.59447e-07
2.56242e-07
-4.33869e-07
2.48414e-07
2.59e-07
-5.89709e-07
2.30471e-07
2.50707e-07
-7.2209e-07
2.02649e-07
2.12223e-07
-8.02426e-07
1.66606e-07
1.40298e-07
-7.92937e-07
1.2415e-07
2.4507e-08
-7.23744e-07
9.19096e-08
-5.44114e-08
-6.06208e-07
8.8648e-08
-8.6187e-08
-4.78326e-07
8.17663e-08
-9.74809e-08
-3.55588e-07
7.69724e-08
-9.56949e-08
-2.44521e-07
7.12077e-08
-8.86634e-08
-1.46105e-07
6.66046e-08
-7.99893e-08
-6.12375e-08
6.38186e-08
-6.907e-08
-2.2471e-09
6.24733e-08
-4.44808e-08
5.87787e-08
1.13087e-08
-3.208e-09
2.74632e-08
1.14739e-08
2.99675e-08
2.96603e-08
-2.42688e-08
7.97586e-08
3.06622e-08
-4.0301e-08
1.3882e-07
3.24767e-08
-4.84503e-08
2.08062e-07
3.55722e-08
-5.67939e-08
2.90456e-07
3.97844e-08
-6.74746e-08
3.88446e-07
4.46469e-08
-8.0289e-08
5.01803e-07
4.99803e-08
-9.3011e-08
6.24144e-07
5.50304e-08
-1.0068e-07
7.41825e-07
6.22799e-08
-9.53354e-08
8.26843e-07
7.02408e-08
-6.67229e-08
8.47082e-07
9.14924e-08
8.90345e-09
7.66707e-07
1.18651e-07
1.25103e-07
6.29892e-07
1.42333e-07
1.94251e-07
4.67338e-07
1.60911e-07
2.29741e-07
3.06154e-07
1.73428e-07
2.34397e-07
1.53999e-07
1.8146e-07
2.29047e-07
8.21464e-09
1.85464e-07
2.24352e-07
-1.37549e-07
1.85846e-07
2.24319e-07
-2.89641e-07
1.82585e-07
2.28954e-07
-4.50777e-07
1.7523e-07
2.3432e-07
-6.13511e-07
1.6329e-07
2.29915e-07
-7.51285e-07
1.45166e-07
1.95258e-07
-8.3382e-07
1.218e-07
1.27341e-07
-8.17935e-07
9.49705e-08
1.3295e-08
-7.35532e-07
7.36768e-08
-6.41705e-08
-6.17105e-07
6.61402e-08
-9.5919e-08
-4.89453e-07
5.96056e-08
-1.05491e-07
-3.6599e-07
5.56905e-08
-1.02182e-07
-2.52945e-07
5.19861e-08
-9.38232e-08
-1.51507e-07
4.93507e-08
-8.41839e-08
-6.32568e-08
4.79261e-08
-7.23575e-08
-1.78923e-09
4.72461e-08
-4.62403e-08
4.44627e-08
1.25268e-08
-3.42172e-09
1.87862e-08
1.20986e-08
3.0839e-08
2.02952e-08
-2.48956e-08
8.21554e-08
2.08656e-08
-4.15196e-08
1.42753e-07
2.18771e-08
-4.99984e-08
2.13356e-07
2.36677e-08
-5.86978e-08
2.96814e-07
2.62025e-08
-6.98762e-08
3.95495e-07
2.93248e-08
-8.33593e-08
5.09321e-07
3.30942e-08
-9.69395e-08
6.32485e-07
3.73727e-08
-1.05507e-07
7.52163e-07
4.35766e-08
-1.00974e-07
8.43536e-07
5.13391e-08
-7.2472e-08
8.67849e-07
6.51062e-08
2.07364e-09
7.86029e-07
8.15396e-08
1.18932e-07
6.45794e-07
9.61572e-08
1.86411e-07
4.7897e-07
1.07747e-07
2.19987e-07
3.1379e-07
1.15883e-07
2.22725e-07
1.57921e-07
1.21231e-07
2.16098e-07
8.58885e-09
1.24028e-07
2.10768e-07
-1.40745e-07
1.2445e-07
2.1073e-07
-2.96619e-07
1.22471e-07
2.15988e-07
-4.61857e-07
1.17854e-07
2.22614e-07
-6.28999e-07
1.10319e-07
2.20112e-07
-7.70345e-07
9.91557e-08
1.87356e-07
-8.54387e-07
8.47764e-08
1.21066e-07
-8.3471e-07
6.8452e-08
6.84126e-09
-7.45682e-07
5.4695e-08
-7.0046e-08
-6.24991e-07
4.71355e-08
-1.01687e-07
-4.96184e-07
4.13103e-08
-1.10512e-07
-3.71794e-07
3.76956e-08
-1.06394e-07
-2.57441e-07
3.49123e-08
-9.72796e-08
-1.54206e-07
3.31471e-08
-8.70314e-08
-6.39766e-08
3.22899e-08
-7.45931e-08
-1.1868e-09
3.18754e-08
-4.74191e-08
2.99735e-08
1.33024e-08
-3.6098e-09
9.9461e-09
1.24499e-08
3.12626e-08
1.07416e-08
-2.53188e-08
8.34692e-08
1.0957e-08
-4.2298e-08
1.44985e-07
1.13286e-08
-5.0967e-08
2.16441e-07
1.20754e-08
-5.98639e-08
3.00661e-07
1.32935e-08
-7.1311e-08
4.00036e-07
1.5097e-08
-8.51475e-08
5.1462e-07
1.76687e-08
-9.91581e-08
6.38939e-07
2.12064e-08
-1.08153e-07
7.60393e-07
2.60589e-08
-1.03936e-07
8.54926e-07
3.22013e-08
-7.53959e-08
8.81138e-07
3.97776e-08
-8.83006e-10
7.98405e-07
4.74721e-08
1.16801e-07
6.56043e-07
5.44624e-08
1.84057e-07
4.86609e-07
6.00941e-08
2.17087e-07
3.18908e-07
6.4389e-08
2.19196e-07
1.60648e-07
6.73643e-08
2.12127e-07
8.99955e-09
6.9099e-08
2.06577e-07
-1.42679e-07
6.95868e-08
2.06541e-07
-3.01028e-07
6.8795e-08
2.12024e-07
-4.68922e-07
6.66526e-08
2.19096e-07
-6.38849e-07
6.30241e-08
2.17222e-07
-7.82512e-07
5.78191e-08
1.84999e-07
-8.67634e-07
5.10019e-08
1.18897e-07
-8.46112e-07
4.32147e-08
3.71513e-09
-7.5382e-07
3.54983e-08
-7.30957e-08
-6.3119e-07
2.92943e-08
-1.04789e-07
-5.00999e-07
2.44664e-08
-1.13347e-07
-3.7555e-07
2.11052e-08
-1.08858e-07
-2.6012e-07
1.88504e-08
-9.93689e-08
-1.55692e-07
1.75141e-08
-8.87946e-08
-6.42738e-08
1.68801e-08
-7.60084e-08
-7.68258e-10
1.65665e-08
-4.81966e-08
1.55226e-08
1.36827e-08
-3.72467e-09
1.15019e-09
1.25206e-08
3.13599e-08
1.22549e-09
-2.55685e-08
8.39176e-08
1.07935e-09
-4.268e-08
1.45851e-07
8.02899e-10
-5.14082e-08
2.17796e-07
4.88034e-10
-6.03571e-08
3.02609e-07
3.48968e-10
-7.18686e-08
4.02723e-07
7.68244e-10
-8.57848e-08
5.18218e-07
2.05593e-09
-9.98825e-08
6.43608e-07
4.77425e-09
-1.08958e-07
7.66147e-07
8.31213e-09
-1.04792e-07
8.6157e-07
1.30497e-08
-7.62715e-08
8.87948e-07
1.49538e-08
-1.55409e-09
8.0465e-07
1.42586e-08
1.16511e-07
6.61281e-07
1.37122e-08
1.84119e-07
4.90692e-07
1.33655e-08
2.17317e-07
3.21792e-07
1.3791e-08
2.19499e-07
1.62332e-07
1.43834e-08
2.1244e-07
9.47137e-09
1.50679e-08
2.06892e-07
-1.43455e-07
1.56528e-08
2.06861e-07
-3.03108e-07
1.61e-08
2.12348e-07
-4.7237e-07
1.65023e-08
2.19412e-07
-6.43676e-07
1.6865e-08
2.17464e-07
-7.8859e-07
1.76754e-08
1.85058e-07
-8.74519e-07
1.83515e-08
1.1858e-07
-8.5284e-07
1.88085e-08
2.72692e-09
-7.59651e-07
1.64142e-08
-7.41052e-08
-6.3586e-07
1.13255e-08
-1.05822e-07
-5.04488e-07
7.45982e-09
-1.14365e-07
-3.77999e-07
4.44001e-09
-1.09823e-07
-2.6168e-07
2.7994e-09
-1.00268e-07
-1.56496e-07
1.9519e-09
-8.96217e-08
-6.4459e-08
1.57803e-09
-7.67349e-08
-6.10496e-10
1.39374e-09
-4.86758e-08
1.21382e-09
1.36983e-08
-3.77056e-09
-7.38962e-09
1.23104e-08
3.11258e-08
-8.02144e-09
-2.56494e-08
8.34921e-08
-8.61368e-09
-4.26732e-08
1.45339e-07
-9.71173e-09
-5.13327e-08
2.17393e-07
-1.13714e-08
-6.01938e-08
3.02594e-07
-1.32791e-08
-7.15735e-08
4.03451e-07
-1.47834e-08
-8.53053e-08
5.20004e-07
-1.53393e-08
-9.91576e-08
6.46441e-07
-1.36866e-08
-1.07976e-07
7.69509e-07
-1.11384e-08
-1.03617e-07
8.63615e-07
-5.84515e-09
-7.52113e-08
8.88462e-07
-9.21858e-09
-6.75218e-10
8.04751e-07
-1.9729e-08
1.17698e-07
6.61444e-07
-2.90596e-08
1.8608e-07
4.91166e-07
-3.64245e-08
2.20067e-07
3.22418e-07
-4.04235e-08
2.22963e-07
1.62977e-07
-4.25087e-08
2.16333e-07
1.00306e-08
-4.29714e-08
2.10986e-07
-1.43023e-07
-4.22447e-08
2.10951e-07
-3.02785e-07
-4.03688e-08
2.1623e-07
-4.721e-07
-3.70349e-08
2.22853e-07
-6.43374e-07
-3.20299e-08
2.20168e-07
-7.88529e-07
-2.41042e-08
1.86935e-07
-8.7513e-07
-1.46856e-08
1.19638e-07
-8.55197e-07
-4.79337e-09
3.66851e-09
-7.6329e-07
-2.22885e-09
-7.32635e-08
-6.38953e-07
-8.11152e-09
-1.04901e-07
-5.06545e-07
-1.13018e-08
-1.13646e-07
-3.79046e-07
-1.37075e-08
-1.09351e-07
-2.6206e-07
-1.41651e-08
-1.00022e-07
-1.5658e-07
-1.39838e-08
-8.95443e-08
-6.45048e-08
-1.37001e-08
-7.67967e-08
-6.82758e-10
-1.35515e-08
-4.88768e-08
-1.28224e-08
1.33534e-08
-3.8017e-09
-1.54112e-08
1.18233e-08
3.04339e-08
-1.67134e-08
-2.55437e-08
8.19667e-08
-1.78954e-08
-4.2251e-08
1.43077e-07
-2.0111e-08
-5.07108e-08
2.14669e-07
-2.36262e-08
-5.93375e-08
2.99871e-07
-2.81051e-08
-7.03764e-08
4.01379e-07
-3.26487e-08
-8.36426e-08
5.1924e-07
-3.63249e-08
-9.68756e-08
6.47177e-07
-3.65902e-08
-1.05033e-07
7.70992e-07
-3.48829e-08
-1.00071e-07
8.61179e-07
-2.42698e-08
-7.1762e-08
8.81805e-07
-3.3169e-08
3.32405e-09
7.97872e-07
-5.74156e-08
1.2162e-07
6.55842e-07
-7.88159e-08
1.91786e-07
4.87585e-07
-9.57962e-08
2.27629e-07
3.20529e-07
-1.05714e-07
2.32347e-07
1.62485e-07
-1.11319e-07
2.26855e-07
1.07251e-08
-1.13259e-07
2.22047e-07
-1.4119e-07
-1.12314e-07
2.21985e-07
-2.99704e-07
-1.08518e-07
2.26663e-07
-4.67574e-07
-1.01244e-07
2.32079e-07
-6.37185e-07
-8.99214e-08
2.27502e-07
-7.81467e-07
-7.21641e-08
1.92342e-07
-8.68722e-07
-5.06702e-08
1.23239e-07
-8.53163e-07
-2.7565e-08
7.21273e-09
-7.65174e-07
-2.00688e-08
-7.0149e-08
-6.40133e-07
-3.14046e-08
-1.01748e-07
-5.06358e-07
-3.40128e-08
-1.11064e-07
-3.77782e-07
-3.49201e-08
-1.07363e-07
-2.60471e-07
-3.29082e-08
-9.8568e-08
-1.55373e-07
-3.05864e-08
-8.84951e-08
-6.40758e-08
-2.88777e-08
-7.61197e-08
-8.80909e-10
-2.80104e-08
-4.87361e-08
-2.63177e-08
1.26144e-08
-3.95519e-09
-2.25241e-08
1.10681e-08
2.89941e-08
-2.44473e-08
-2.52153e-08
7.88185e-08
-2.63546e-08
-4.13652e-08
1.3819e-07
-2.9996e-08
-4.94863e-08
2.08242e-07
-3.59679e-08
-5.77107e-08
2.92403e-07
-4.41141e-08
-6.81515e-08
3.93891e-07
-5.35597e-08
-8.05772e-08
5.13226e-07
-6.30436e-08
-9.26162e-08
6.44291e-07
-6.82239e-08
-9.94316e-08
7.71329e-07
-6.8966e-08
-9.29549e-08
8.52835e-07
-4.08075e-08
-6.49682e-08
8.65071e-07
-5.65628e-08
1.11574e-08
7.80615e-07
-1.02715e-07
1.29756e-07
6.41543e-07
-1.42873e-07
2.03128e-07
4.77987e-07
-1.74358e-07
2.42118e-07
3.15025e-07
-1.93052e-07
2.50299e-07
1.60397e-07
-2.03771e-07
2.4708e-07
1.16132e-08
-2.0785e-07
2.43375e-07
-1.37374e-07
-2.06562e-07
2.43236e-07
-2.92629e-07
-1.99917e-07
2.46654e-07
-4.5668e-07
-1.86821e-07
2.49628e-07
-6.22034e-07
-1.65994e-07
2.41426e-07
-7.6391e-07
-1.33273e-07
2.02985e-07
-8.5241e-07
-9.28358e-08
1.30667e-07
-8.45402e-07
-4.85661e-08
1.39931e-08
-7.65887e-07
-3.56813e-08
-6.39028e-08
-6.3773e-07
-6.43273e-08
-9.52339e-08
-5.01108e-07
-6.46665e-08
-1.05969e-07
-3.71478e-07
-6.11026e-08
-1.03447e-07
-2.54762e-07
-5.39671e-08
-9.56575e-08
-1.51407e-07
-4.76549e-08
-8.62856e-08
-6.23229e-08
-4.34261e-08
-7.45361e-08
-9.06467e-10
-4.13135e-08
-4.81134e-08
-3.86527e-08
1.14286e-08
-4.30398e-09
-2.83116e-08
1.00914e-08
2.66427e-08
-3.07662e-08
-2.46278e-08
7.37413e-08
-3.34675e-08
-3.99858e-08
1.30087e-07
-3.87007e-08
-4.7641e-08
1.96974e-07
-4.75392e-08
-5.5316e-08
2.78115e-07
-6.03079e-08
-6.49469e-08
3.77586e-07
-7.67795e-08
-7.62514e-08
4.97293e-07
-9.61111e-08
-8.6639e-08
6.33726e-07
-1.12999e-07
-9.1659e-08
7.71191e-07
-1.23237e-07
-8.31938e-08
8.33726e-07
-4.97739e-08
-5.35685e-08
8.29928e-07
-7.79367e-08
2.51725e-08
7.4683e-07
-1.62945e-07
1.43328e-07
6.14444e-07
-2.30553e-07
2.20066e-07
4.59561e-07
-2.81605e-07
2.6213e-07
3.04088e-07
-3.1258e-07
2.75001e-07
1.55864e-07
-3.30301e-07
2.74754e-07
1.28389e-08
-3.37341e-07
2.72516e-07
-1.30424e-07
-3.35538e-07
2.72239e-07
-2.79407e-07
-3.24842e-07
2.73908e-07
-4.36247e-07
-3.036e-07
2.73619e-07
-5.93503e-07
-2.69212e-07
2.60474e-07
-7.29482e-07
-2.1605e-07
2.18755e-07
-8.17915e-07
-1.47483e-07
1.43081e-07
-8.27192e-07
-6.62188e-08
2.69293e-08
-7.65841e-07
-4.37039e-08
-5.33284e-08
-6.27712e-07
-1.15955e-07
-8.65009e-08
-4.86149e-07
-1.07279e-07
-9.89503e-08
-3.56682e-07
-9.27073e-08
-9.78629e-08
-2.42752e-07
-7.65216e-08
-9.13749e-08
-1.43402e-07
-6.41397e-08
-8.28656e-08
-5.85461e-08
-5.63658e-08
-7.19163e-08
-5.55015e-10
-5.24448e-08
-4.68597e-08
-4.91112e-08
9.90347e-09
-5.07327e-09
-3.21771e-08
8.93873e-09
2.29898e-08
-3.50514e-08
-2.37779e-08
6.59914e-08
-3.83293e-08
-3.81397e-08
1.17278e-07
-4.47733e-08
-4.52135e-08
1.7792e-07
-5.60017e-08
-5.21802e-08
2.51495e-07
-7.31388e-08
-6.07433e-08
3.42787e-07
-9.75545e-08
-7.05177e-08
4.55818e-07
-1.31022e-07
-7.81197e-08
5.95912e-07
-1.73781e-07
-7.93125e-08
7.71644e-07
-2.35861e-07
-6.31082e-08
8.01516e-07
-5.01856e-08
-2.94608e-08
7.51462e-07
-6.79241e-08
4.00423e-08
6.78228e-07
-2.40499e-07
1.50786e-07
5.61047e-07
-3.36884e-07
2.23513e-07