/*--------------------------------*- C++ -*----------------------------------*\
| =========                 |                                                 |
| \\      /  F ield         | OpenFOAM: The Open Source CFD Toolbox           |
|  \\    /   O peration     | Version:  2112                                  |
|   \\  /    A nd           | Website:  www.openfoam.com                      |
|    \\/     M anipulation  |                                                 |
\*---------------------------------------------------------------------------*/
FoamFile
{
    version     2.0;
    format      ascii;
    arch        "LSB;label=32;scalar=64";
    class       volVectorField;
    location    "4.9";
    object      U;
}
// * * * * * * * * * * * * * * * * * * * * * * * * * * * * * * * * * * * * * //

dimensions      [0 1 -1 0 0 0 0];

internalField   nonuniform List<vector> 
64906
(
(-2.13576e-07 -6.59683e-07 3.2013e-08)
(1.57112e-06 -2.49248e-06 9.76297e-09)
(5.47695e-06 -4.45147e-06 9.58277e-07)
(1.02428e-05 -6.2861e-06 2.22107e-06)
(1.54967e-05 -7.77937e-06 3.20034e-06)
(2.0829e-05 -8.97098e-06 3.99841e-06)
(2.61912e-05 -9.99171e-06 4.71175e-06)
(3.13849e-05 -1.09088e-05 5.42115e-06)
(3.61683e-05 -1.17584e-05 6.15978e-06)
(3.99824e-05 -1.2437e-05 6.94702e-06)
(4.23576e-05 -1.30389e-05 7.73177e-06)
(4.25312e-05 -1.33941e-05 8.51777e-06)
(4.02849e-05 -1.39852e-05 9.29684e-06)
(3.60511e-05 -1.44919e-05 1.01311e-05)
(3.02751e-05 -1.49958e-05 1.09339e-05)
(2.35191e-05 -1.54368e-05 1.15897e-05)
(1.60222e-05 -1.58061e-05 1.20413e-05)
(8.13424e-06 -1.60253e-05 1.22775e-05)
(1.28076e-07 -1.60787e-05 1.22906e-05)
(-7.69264e-06 -1.59669e-05 1.20818e-05)
(-1.50579e-05 -1.57063e-05 1.1659e-05)
(-2.16322e-05 -1.53721e-05 1.10358e-05)
(-2.71858e-05 -1.49469e-05 1.02832e-05)
(-3.10957e-05 -1.44739e-05 9.52539e-06)
(-3.29604e-05 -1.3965e-05 8.78861e-06)
(-3.24167e-05 -1.36833e-05 8.0357e-06)
(-2.9682e-05 -1.31039e-05 7.26167e-06)
(-2.55434e-05 -1.2364e-05 6.43289e-06)
(-2.04891e-05 -1.128e-05 5.54799e-06)
(-1.51396e-05 -9.8364e-06 4.51087e-06)
(-9.73064e-06 -7.87066e-06 3.20469e-06)
(-4.92571e-06 -5.40144e-06 1.44085e-06)
(-1.20321e-06 -2.72451e-06 4.93532e-08)
(4.64101e-07 -5.26904e-07 -1.28679e-07)
(-3.12782e-06 3.25818e-06 -9.55148e-07)
(-2.36211e-06 1.8948e-06 -6.13597e-06)
(2.93945e-06 -4.35227e-07 -7.86085e-06)
(8.61647e-06 -2.79667e-06 -8.24461e-06)
(1.44807e-05 -4.5012e-06 -8.52413e-06)
(2.01918e-05 -5.41158e-06 -9.06641e-06)
(2.57889e-05 -5.5446e-06 -9.99835e-06)
(3.11488e-05 -4.82837e-06 -1.1369e-05)
(3.61207e-05 -3.15417e-06 -1.32084e-05)
(4.00779e-05 -2.06453e-07 -1.55252e-05)
(4.25823e-05 3.72768e-06 -1.82385e-05)
(4.27064e-05 8.68316e-06 -2.11525e-05)
(4.03968e-05 1.28517e-05 -2.3875e-05)
(3.62813e-05 1.6382e-05 -2.62583e-05)
(3.05223e-05 1.88909e-05 -2.82219e-05)
(2.37118e-05 2.06555e-05 -2.9697e-05)
(1.61587e-05 2.17019e-05 -3.06787e-05)
(8.25005e-06 2.21838e-05 -3.11849e-05)
(2.27097e-07 2.21342e-05 -3.12188e-05)
(-7.60761e-06 2.15525e-05 -3.07797e-05)
(-1.50134e-05 2.04071e-05 -2.98643e-05)
(-2.15942e-05 1.85485e-05 -2.84568e-05)
(-2.70448e-05 1.59743e-05 -2.65753e-05)
(-3.08301e-05 1.24175e-05 -2.43028e-05)
(-3.27891e-05 8.23731e-06 -2.16805e-05)
(-3.22495e-05 3.34081e-06 -1.88996e-05)
(-2.93029e-05 -3.73909e-07 -1.63769e-05)
(-2.48743e-05 -2.89734e-06 -1.43281e-05)
(-1.93529e-05 -3.7979e-06 -1.28536e-05)
(-1.33483e-05 -3.25564e-06 -1.19345e-05)
(-6.98723e-06 -1.30745e-06 -1.14107e-05)
(-8.10077e-07 1.72023e-06 -1.08035e-05)
(4.72412e-06 4.66139e-06 -8.54414e-06)
(4.63578e-06 6.00674e-06 -1.70679e-06)
(-5.36631e-06 1.30355e-05 -7.71778e-07)
(-5.77995e-06 1.40263e-05 -8.25534e-06)
(1.38263e-07 1.29794e-05 -1.09513e-05)
(6.63039e-06 1.18583e-05 -1.19589e-05)
(1.34103e-05 1.1787e-05 -1.27798e-05)
(2.00022e-05 1.30878e-05 -1.39035e-05)
(2.65514e-05 1.6027e-05 -1.55547e-05)
(3.30087e-05 2.10165e-05 -1.78487e-05)
(3.93472e-05 2.84875e-05 -2.08489e-05)
(4.46737e-05 3.91968e-05 -2.45858e-05)
(4.84048e-05 5.25572e-05 -2.89272e-05)
(4.86961e-05 6.84766e-05 -3.36165e-05)
(4.54916e-05 8.25403e-05 -3.80389e-05)
(4.02321e-05 9.46236e-05 -4.18968e-05)
(3.32929e-05 0.000103644 -4.50313e-05)
(2.55645e-05 0.000110277 -4.74002e-05)
(1.71856e-05 0.000114525 -4.89831e-05)
(8.54723e-06 0.000116638 -4.98029e-05)
(-1.90862e-07 0.000116655 -4.9859e-05)
(-8.75235e-06 0.000114576 -4.9151e-05)
(-1.69783e-05 0.000110365 -4.76792e-05)
(-2.4472e-05 0.000103775 -4.5424e-05)
(-3.11004e-05 9.48158e-05 -4.24106e-05)
(-3.59759e-05 8.28275e-05 -3.86911e-05)
(-3.87348e-05 6.89983e-05 -3.44293e-05)
(-3.79003e-05 5.34568e-05 -2.99455e-05)
(-3.35402e-05 4.0754e-05 -2.58783e-05)
(-2.74671e-05 3.09757e-05 -2.24961e-05)
(-2.01591e-05 2.48586e-05 -1.99315e-05)
(-1.24965e-05 2.17115e-05 -1.81037e-05)
(-4.47744e-06 2.10546e-05 -1.67353e-05)
(3.0197e-06 2.22118e-05 -1.52231e-05)
(9.45878e-06 2.32522e-05 -1.15738e-05)
(7.75854e-06 2.13807e-05 -1.6354e-06)
(-7.07589e-06 2.40072e-05 2.93926e-08)
(-8.26809e-06 2.65389e-05 -8.59352e-06)
(-1.61481e-06 2.6609e-05 -1.17e-05)
(5.98694e-06 2.69014e-05 -1.29107e-05)
(1.4177e-05 2.8688e-05 -1.39365e-05)
(2.23354e-05 3.24248e-05 -1.53069e-05)
(3.07752e-05 3.86051e-05 -1.72872e-05)
(3.95559e-05 4.80299e-05 -2.00226e-05)
(4.88634e-05 6.16078e-05 -2.35746e-05)
(5.72382e-05 8.09301e-05 -2.79965e-05)
(6.37577e-05 0.000105209 -3.31048e-05)
(6.43299e-05 0.000134658 -3.87331e-05)
(5.89411e-05 0.000159985 -4.40065e-05)
(5.10245e-05 0.000181492 -4.86004e-05)
(4.12548e-05 0.000197452 -5.23223e-05)
(3.10938e-05 0.000209237 -5.51201e-05)
(2.04015e-05 0.000216823 -5.69726e-05)
(9.60164e-06 0.000220637 -5.79302e-05)
(-1.28416e-06 0.000220722 -5.79927e-05)
(-1.20065e-05 0.000217075 -5.71597e-05)
(-2.25444e-05 0.000209658 -5.543e-05)
(-3.24599e-05 0.000198044 -5.27569e-05)
(-4.18924e-05 0.000182291 -4.91645e-05)
(-4.93506e-05 0.000161051 -4.47163e-05)
(-5.41735e-05 0.00013617 -3.96194e-05)
(-5.286e-05 0.000107361 -3.42177e-05)
(-4.54556e-05 8.41349e-05 -2.94127e-05)
(-3.60115e-05 6.61466e-05 -2.53733e-05)
(-2.52768e-05 5.43594e-05 -2.22773e-05)
(-1.47466e-05 4.7215e-05 -2.00111e-05)
(-4.21475e-06 4.3747e-05 -1.82703e-05)
(5.12081e-06 4.2853e-05 -1.64491e-05)
(1.27135e-05 4.24517e-05 -1.22149e-05)
(1.0072e-05 3.85612e-05 -7.24945e-07)
(-8.21835e-06 3.56357e-05 1.00304e-06)
(-9.64296e-06 3.93968e-05 -8.60343e-06)
(-1.7509e-06 4.04576e-05 -1.20606e-05)
(7.4567e-06 4.22188e-05 -1.34066e-05)
(1.76272e-05 4.59896e-05 -1.45856e-05)
(2.80859e-05 5.23022e-05 -1.61871e-05)
(3.94238e-05 6.18147e-05 -1.85062e-05)
(5.19322e-05 7.57553e-05 -2.17111e-05)
(6.63041e-05 9.57608e-05 -2.58197e-05)
(8.0203e-05 0.000125008 -3.09209e-05)
(9.23279e-05 0.000163075 -3.67147e-05)
(9.33743e-05 0.000211854 -4.34416e-05)
(8.33818e-05 0.000251602 -4.9627e-05)
(7.04681e-05 0.000284483 -5.50846e-05)
(5.5634e-05 0.000308207 -5.95255e-05)
(4.12009e-05 0.000325748 -6.28031e-05)
(2.63653e-05 0.000337026 -6.4933e-05)
(1.16355e-05 0.000342733 -6.60279e-05)
(-3.18191e-06 0.000342896 -6.60936e-05)
(-1.78381e-05 0.000337508 -6.5129e-05)
(-3.25264e-05 0.000326544 -6.31262e-05)
(-4.67101e-05 0.000309303 -5.99768e-05)
(-6.11829e-05 0.000285914 -5.56666e-05)
(-7.35523e-05 0.000253425 -5.03573e-05)
(-8.2841e-05 0.000214305 -4.4357e-05)
(-8.0792e-05 0.00016638 -3.78686e-05)
(-6.74859e-05 0.000129792 -3.24065e-05)
(-5.22097e-05 0.000102231 -2.77176e-05)
(-3.59482e-05 8.43949e-05 -2.40993e-05)
(-2.114e-05 7.31463e-05 -2.14042e-05)
(-7.11786e-06 6.68625e-05 -1.93535e-05)
(4.8581e-06 6.39783e-05 -1.72672e-05)
(1.44234e-05 6.23908e-05 -1.25204e-05)
(1.16258e-05 5.69101e-05 4.26573e-07)
(-9.03623e-06 4.69205e-05 2.01278e-06)
(-1.01354e-05 5.1582e-05 -8.6995e-06)
(-3.06692e-07 5.34476e-05 -1.25713e-05)
(1.11505e-05 5.65765e-05 -1.40791e-05)
(2.39326e-05 6.22819e-05 -1.54375e-05)
(3.73849e-05 7.10502e-05 -1.73308e-05)
(5.24975e-05 8.35614e-05 -2.00754e-05)
(7.00182e-05 0.000101377 -2.38521e-05)
(9.1806e-05 0.000127136 -2.85329e-05)
(0.000114686 0.000166917 -3.42173e-05)
(0.000137858 0.000221719 -4.00424e-05)
(0.000140007 0.000300115 -4.79166e-05)
(0.000120982 0.000358136 -5.5091e-05)
(9.98074e-05 0.000404095 -6.18248e-05)
(7.72204e-05 0.000435838 -6.74137e-05)
(5.65484e-05 0.000459401 -7.13373e-05)
(3.54988e-05 0.000474493 -7.38047e-05)
(1.48072e-05 0.00048218 -7.50617e-05)
(-6.01866e-06 0.000482428 -7.51306e-05)
(-2.66503e-05 0.000475227 -7.401e-05)
(-4.75814e-05 0.0004606 -7.16739e-05)
(-6.80276e-05 0.000437455 -6.7883e-05)
(-9.02635e-05 0.000406138 -6.2427e-05)
(-0.00011082 0.000360627 -5.58474e-05)
(-0.000129008 0.000303366 -4.88738e-05)
(-0.000125497 0.000225942 -4.12429e-05)
(-0.000100803 0.000173183 -3.57866e-05)
(-7.63e-05 0.000135386 -3.05551e-05)
(-5.21319e-05 0.000112117 -2.64228e-05)
(-3.1678e-05 9.73824e-05 -2.32315e-05)
(-1.31525e-05 8.86935e-05 -2.08296e-05)
(2.40969e-06 8.41999e-05 -1.84052e-05)
(1.49728e-05 8.17498e-05 -1.30098e-05)
(1.27849e-05 7.50809e-05 1.62009e-06)
(-9.73508e-06 5.741e-05 3.03166e-06)
(-9.98173e-06 6.27754e-05 -9.00653e-06)
(2.64032e-06 6.5411e-05 -1.34094e-05)
(1.71089e-05 6.99467e-05 -1.51347e-05)
(3.31733e-05 7.77147e-05 -1.67195e-05)
(5.01851e-05 8.89819e-05 -1.89691e-05)
(6.95768e-05 0.000104158 -2.22062e-05)
(9.28191e-05 0.000124585 -2.66135e-05)
(0.000124226 0.000153834 -3.17827e-05)
(0.000160152 0.000201454 -3.76028e-05)
(0.000205206 0.000274599 -4.18751e-05)
(0.000210455 0.000401678 -5.06463e-05)
(0.000173303 0.000482286 -5.83588e-05)
(0.000139432 0.000543345 -6.70143e-05)
(0.000106194 0.000583707 -7.45273e-05)
(7.74691e-05 0.000614236 -7.9148e-05)
(4.80348e-05 0.000633815 -8.19637e-05)
(1.92211e-05 0.00064386 -8.33825e-05)
(-9.86202e-06 0.000644209 -8.34547e-05)
(-3.86448e-05 0.000634843 -8.21786e-05)
(-6.8025e-05 0.0006159 -7.94983e-05)
(-9.66017e-05 0.00058591 -7.50172e-05)
(-0.000129576 0.000546032 -6.76413e-05)
(-0.000162794 0.000485376 -5.91557e-05)
(-0.00019904 0.00040555 -5.16799e-05)
(-0.00019187 0.000279345 -4.3149e-05)
(-0.000144866 0.000209184 -3.93033e-05)
(-0.000107264 0.000163724 -3.39734e-05)
(-7.29317e-05 0.000137183 -2.94323e-05)
(-4.59666e-05 0.000120175 -2.57131e-05)
(-2.21378e-05 0.000109452 -2.29156e-05)
(-2.0268e-06 0.000103496 -2.00742e-05)
(1.46911e-05 0.000100254 -1.38229e-05)
(1.38255e-05 9.25952e-05 2.94733e-06)
(-1.04168e-05 6.65561e-05 4.0692e-06)
(-9.21066e-06 7.24507e-05 -9.54959e-06)
(7.26476e-06 7.59258e-05 -1.46339e-05)
(2.57296e-05 8.19395e-05 -1.66402e-05)
(4.59546e-05 9.1946e-05 -1.8512e-05)
(6.70981e-05 0.000105778 -2.12029e-05)
(9.0654e-05 0.0001231 -2.5049e-05)
(0.000118722 0.000143911 -3.03005e-05)
(0.000158598 0.000170757 -3.59827e-05)
(0.000209946 0.000219507 -4.24262e-05)
(0.000299522 0.00030632 -3.84796e-05)
(0.000314065 0.000520299 -4.56681e-05)
(0.000241893 0.000623149 -5.41039e-05)
(0.000191743 0.000697134 -6.69891e-05)
(0.000145378 0.000744399 -7.81696e-05)
(0.000106665 0.000780898 -8.35577e-05)
(6.57235e-05 0.000804504 -8.67328e-05)
(2.54981e-05 0.00081676 -8.83198e-05)
(-1.52637e-05 0.000817228 -8.83959e-05)
(-5.55043e-05 0.000805883 -8.69583e-05)
(-9.65037e-05 0.00078312 -8.3924e-05)
(-0.000135231 0.000747303 -7.8689e-05)
(-0.000181578 0.000700566 -6.76583e-05)
(-0.00023119 0.000626782 -5.49791e-05)
(-0.00030262 0.000524654 -4.68913e-05)
(-0.000285101 0.000311237 -3.98326e-05)
(-0.000192966 0.000229399 -4.41935e-05)
(-0.000140362 0.000182446 -3.83224e-05)
(-9.68762e-05 0.000158216 -3.33971e-05)
(-6.40602e-05 0.000140971 -2.8987e-05)
(-3.46434e-05 0.00012866 -2.57165e-05)
(-8.90123e-06 0.000121252 -2.23631e-05)
(1.35005e-05 0.000117115 -1.49851e-05)
(1.48435e-05 0.00010888 4.54972e-06)
(-1.11439e-05 7.3958e-05 5.22916e-06)
(-7.78951e-06 8.0327e-05 -1.03065e-05)
(1.3702e-05 8.48302e-05 -1.63132e-05)
(3.72559e-05 9.28094e-05 -1.86321e-05)
(6.27402e-05 0.000106021 -2.08227e-05)
(8.86854e-05 0.000124011 -2.39683e-05)
(0.000115832 0.000145672 -2.84553e-05)
(0.000145007 0.000167586 -3.4608e-05)
(0.000188506 0.000191136 -4.17998e-05)
(0.000247892 0.000233268 -4.71177e-05)
(0.000423415 0.000256844 -4.54234e-05)
(0.000462422 0.000635335 -3.56727e-05)
(0.000317167 0.000771337 -4.05832e-05)
(0.000252711 0.000865084 -6.05184e-05)
(0.000193137 0.000924066 -7.68567e-05)
(0.000142928 0.000972225 -8.27016e-05)
(8.79484e-05 0.00100374 -8.67298e-05)
(3.34862e-05 0.00101994 -8.86766e-05)
(-2.19884e-05 0.00102056 -8.87523e-05)
(-7.65258e-05 0.00100558 -8.69536e-05)
(-0.000131714 0.000975215 -8.30585e-05)
(-0.000182192 0.000928001 -7.73671e-05)
(-0.000242262 0.0008697 -6.11739e-05)
(-0.000306481 0.000775993 -4.14854e-05)
(-0.00045156 0.000640474 -3.70417e-05)
(-0.000407443 0.000259682 -4.73047e-05)
(-0.000228931 0.000243996 -4.92042e-05)
(-0.000170073 0.000203507 -4.43696e-05)
(-0.000121779 0.000182881 -3.81011e-05)
(-8.64594e-05 0.000164671 -3.29842e-05)
(-5.14866e-05 0.000148522 -2.92714e-05)
(-1.88698e-05 0.000138065 -2.54305e-05)
(1.12571e-05 0.000132149 -1.65659e-05)
(1.60775e-05 0.000123368 6.20922e-06)
(-1.17431e-05 7.89679e-05 6.53861e-06)
(-5.39605e-06 8.56329e-05 -1.13351e-05)
(2.2726e-05 9.10248e-05 -1.84531e-05)
(5.33748e-05 0.000100988 -2.11707e-05)
(8.67354e-05 0.000117612 -2.37715e-05)
(0.000120753 0.000140474 -2.7494e-05)
(0.000153638 0.00016718 -3.27951e-05)
(0.000185488 0.000188848 -4.14724e-05)
(0.000226545 0.00019212 -5.05819e-05)
(0.000185993 0.000102178 -7.35831e-05)
(0.000496139 0.000223513 -7.17637e-05)
(0.000673086 0.000885245 -4.49916e-06)
(0.000414327 0.000956026 1.486e-06)
(0.000345654 0.00101668 -2.11948e-05)
(0.000269941 0.00107661 -4.15688e-05)
(0.000201937 0.00112696 -4.27652e-05)
(0.000123682 0.001163 -4.53223e-05)
(4.60194e-05 0.00118162 -4.68497e-05)
(-3.27084e-05 0.0011824 -4.69032e-05)
(-0.000110476 0.00116533 -4.54848e-05)
(-0.000189063 0.00113077 -4.30036e-05)
(-0.000257611 0.00108171 -4.19593e-05)
(-0.000334469 0.00102265 -2.17091e-05)
(-0.000403692 0.000961629 8.0007e-07)
(-0.000666681 0.000887274 -6.11134e-06)
(-0.000482282 0.000226745 -7.42791e-05)
(-0.00016567 0.000121476 -7.47136e-05)
(-0.000208159 0.000208946 -5.27329e-05)
(-0.000160979 0.000205815 -4.52574e-05)
(-0.000121807 0.000186966 -3.80883e-05)
(-7.8771e-05 0.000165817 -3.39036e-05)
(-3.53788e-05 0.00015126 -2.95297e-05)
(6.26717e-06 0.000143275 -1.87651e-05)
(1.68475e-05 0.000134183 8.1892e-06)
(-1.23489e-05 8.11463e-05 7.89979e-06)
(-2.41984e-06 8.79724e-05 -1.26426e-05)
(3.35142e-05 9.42705e-05 -2.10343e-05)
(7.28331e-05 0.000106472 -2.42424e-05)
(0.000116424 0.000127802 -2.73015e-05)
(0.000161379 0.000160245 -3.12175e-05)
(0.000202362 0.000206623 -3.60304e-05)
(0.000230499 0.000269099 -4.01055e-05)
(0.000184666 0.000351757 -5.95911e-05)
(0.000181097 0.00039948 -9.86748e-05)
(0.000292986 0.000743839 7.43872e-05)
(0.000320975 0.000952849 4.20308e-05)
(0.00040203 0.00107201 2.87581e-05)
(0.000347409 0.00117783 2.83864e-05)
(0.000261783 0.00125266 2.33751e-05)
(0.000162192 0.0013021 1.76837e-05)
(5.97188e-05 0.00132622 1.4914e-05)
(-4.411e-05 0.00132713 1.49153e-05)
(-0.000146713 0.00130486 1.76765e-05)
(-0.00024668 0.00125735 2.33647e-05)
(-0.00033307 0.00118465 2.83992e-05)
(-0.000389664 0.0010811 2.88628e-05)
(-0.000312981 0.000964205 4.17543e-05)
(-0.000288155 0.000754556 7.27552e-05)
(-0.000176812 0.000410152 -9.49902e-05)
(-0.000175625 0.000365891 -6.12522e-05)
(-0.000210112 0.000284611 -4.47232e-05)
(-0.000170451 0.000225597 -4.2578e-05)
(-0.000115688 0.000185228 -3.92867e-05)
(-5.77213e-05 0.000161747 -3.47709e-05)
(-9.30864e-07 0.000150048 -2.18223e-05)
(1.74583e-05 0.000140405 1.01613e-05)
(-1.26848e-05 7.9776e-05 9.29339e-06)
(1.56216e-06 8.64077e-05 -1.41372e-05)
(4.6888e-05 9.27077e-05 -2.39292e-05)
(9.796e-05 0.000105111 -2.78123e-05)
(0.000158668 0.000127084 -3.17705e-05)
(0.000231163 0.000161382 -3.69937e-05)
(0.000319936 0.000212878 -4.35054e-05)
(0.000437833 0.000288612 -4.79814e-05)
(0.000572953 0.00040099 -4.96022e-05)
(0.000842132 0.000569751 -3.0074e-05)
(0.000870301 0.000154486 5.28539e-05)
(0.000652516 0.000297388 8.62037e-05)
(0.000718865 0.000689541 0.000137479)
(0.000646518 0.000901922 0.000186547)
(0.000513667 0.00104905 0.000214121)
(0.000366913 0.00114564 0.000222721)
(0.000220534 0.00120458 0.000222214)
(7.8886e-05 0.00123251 0.000220962)
(-6.09144e-05 0.0012334 0.000221009)
(-0.000202498 0.0012073 0.000222351)
(-0.000348763 0.00115036 0.000222975)
(-0.000495331 0.00105608 0.000214645)
(-0.000628105 0.000911699 0.000187681)
(-0.000700798 0.000702664 0.000139346)
(-0.000633453 0.000312829 8.94114e-05)
(-0.000858628 0.0001568 5.54638e-05)
(-0.000837206 0.000569585 -2.92016e-05)
(-0.000562051 0.000409052 -5.21118e-05)
(-0.000418041 0.000301197 -5.32721e-05)
(-0.000287415 0.000230251 -5.14579e-05)
(-0.000182019 0.0001853 -4.7025e-05)
(-9.28662e-05 0.00016024 -4.14381e-05)
(-1.32122e-05 0.000148137 -2.57064e-05)
(1.65837e-05 0.000138629 1.21411e-05)
(-1.33244e-05 7.48148e-05 1.06351e-05)
(4.59517e-06 8.08864e-05 -1.55287e-05)
(5.80891e-05 8.61302e-05 -2.66751e-05)
(0.000118601 9.62967e-05 -3.12127e-05)
(0.000191477 0.000113774 -3.59578e-05)
(0.000279853 0.000139304 -4.22384e-05)
(0.000388718 0.000172715 -4.96989e-05)
(0.000527742 0.000211319 -5.49079e-05)
(0.000688313 0.00024397 -5.40921e-05)
(0.000926658 0.000263048 -3.62183e-05)
(0.00104064 0.000123453 -7.69893e-06)
(0.000988519 0.000316774 4.43402e-05)
(0.000941482 0.000511974 0.000142779)
(0.000807228 0.000655446 0.000208958)
(0.000635484 0.000765922 0.0002434)
(0.00044863 0.00083856 0.000257688)
(0.000267549 0.000883773 0.000260475)
(9.46692e-05 0.000905529 0.000260523)
(-7.47675e-05 0.000906274 0.000260579)
(-0.000247523 0.00088602 0.000260638)
(-0.000428375 0.000842344 0.000257999)
(-0.000614896 0.000771261 0.000244025)
(-0.000786748 0.000662253 0.00021032)
(-0.000921754 0.000519529 0.000145147)
(-0.000970128 0.000323935 4.85078e-05)
(-0.0010283 0.000125776 -5.02071e-06)
(-0.000919452 0.000268419 -3.63093e-05)
(-0.000678197 0.000252488 -5.72987e-05)
(-0.000508363 0.000223242 -6.11538e-05)
(-0.000354969 0.000189126 -5.90357e-05)
(-0.000226763 0.000162039 -5.40761e-05)
(-0.000118263 0.000145265 -4.75375e-05)
(-2.13083e-05 0.000137001 -2.92416e-05)
(1.69883e-05 0.00012843 1.4188e-05)
(-1.40103e-05 6.70149e-05 1.19101e-05)
(6.89557e-06 7.24109e-05 -1.66675e-05)
(6.72865e-05 7.64514e-05 -2.90072e-05)
(0.000135457 8.41534e-05 -3.41238e-05)
(0.000217578 9.7186e-05 -3.95925e-05)
(0.000316771 0.000115543 -4.70363e-05)
(0.000437804 0.000138059 -5.62332e-05)
(0.000587474 0.000162688 -6.47775e-05)
(0.000756787 0.000182891 -6.89724e-05)
(0.000954568 0.000201155 -6.18672e-05)
(0.00108422 0.00016312 -4.0585e-05)
(0.00112028 0.000252239 2.43313e-05)
(0.00107071 0.000373476 0.000127822)
(0.000914563 0.000473419 0.0001933)
(0.000715563 0.000550291 0.000228184)
(0.000501089 0.0005993 0.000237292)
(0.000297734 0.00062972 0.000236361)
(0.00010483 0.000644219 0.000234436)
(-8.34438e-05 0.000644824 0.000234457)
(-0.0002762 0.000631537 0.000236421)
(-0.000479299 0.000602318 0.000237434)
(-0.000693445 0.000554471 0.000228581)
(-0.000892747 0.00047866 0.000194414)
(-0.00105001 0.000379416 0.000129942)
(-0.00110338 0.000258581 2.82842e-05)
(-0.00107375 0.000167389 -3.82332e-05)
(-0.000947099 0.000206548 -6.19238e-05)
(-0.000746057 0.000190719 -7.23835e-05)
(-0.000567015 0.000173668 -7.15546e-05)
(-0.000401715 0.00015323 -6.65202e-05)
(-0.000259077 0.000136528 -6.01793e-05)
(-0.000136853 0.000125946 -5.25246e-05)
(-2.6726e-05 0.000120748 -3.20041e-05)
(1.76986e-05 0.000113214 1.63824e-05)
(-1.48241e-05 5.69806e-05 1.30037e-05)
(8.09324e-06 6.15301e-05 -1.75352e-05)
(7.34949e-05 6.43052e-05 -3.0843e-05)
(0.000146857 6.94755e-05 -3.64257e-05)
(0.000234602 7.81341e-05 -4.24568e-05)
(0.000339327 8.99034e-05 -5.07988e-05)
(0.000465432 0.000103444 -6.1317e-05)
(0.000617385 0.000117455 -7.19921e-05)
(0.000787488 0.000128 -7.87785e-05)
(0.000970506 0.000139994 -7.48034e-05)
(0.00111368 0.000138403 -5.38197e-05)
(0.00119167 0.000194725 7.38664e-06)
(0.00114527 0.000271218 0.000108743)
(0.000976204 0.000334575 0.000167901)
(0.000762717 0.000383809 0.000197808)
(0.00053284 0.000415827 0.000201174)
(0.00031644 0.000436021 0.000196591)
(0.000111254 0.000445767 0.000192801)
(-8.87038e-05 0.000446304 0.000192787)
(-0.00029377 0.000437614 0.000196541)
(-0.000509984 0.00041842 0.000201128)
(-0.000739649 0.000387304 0.000197934)
(-0.000953687 0.000338845 0.000168692)
(-0.00112421 0.000276001 0.000110541)
(-0.00117533 0.000199904 1.1171e-05)
(-0.00110366 0.000143121 -5.16196e-05)
(-0.000962478 0.000145814 -7.50444e-05)
(-0.000775836 0.000135581 -8.24234e-05)
(-0.000595333 0.000127583 -7.91856e-05)
(-0.000426563 0.000117132 -7.22744e-05)
(-0.000277001 0.000108501 -6.48293e-05)
(-0.000147054 0.000103102 -5.6229e-05)
(-2.85548e-05 0.000100478 -3.3909e-05)
(1.92834e-05 9.44815e-05 1.81667e-05)
(-1.55645e-05 4.55703e-05 1.3886e-05)
(8.64189e-06 4.92229e-05 -1.8162e-05)
(7.75609e-05 5.10476e-05 -3.22006e-05)
(0.000154439 5.43717e-05 -3.81323e-05)
(0.000245746 5.99817e-05 -4.45776e-05)
(0.000353582 6.75633e-05 -5.3579e-05)
(0.000482151 7.621e-05 -6.50663e-05)
(0.000634709 8.54113e-05 -7.71751e-05)
(0.000805153 9.34307e-05 -8.55958e-05)
(0.000984672 0.000104498 -8.34128e-05)
(0.00113756 0.000114738 -6.21311e-05)
(0.00123529 0.000152052 -2.22546e-06)
(0.00119123 0.000200051 9.7776e-05)
(0.00101574 0.000241648 0.000152933)
(0.000793087 0.00027419 0.000179131)
(0.000553348 0.000295786 0.000178759)
(0.000328555 0.000309522 0.000171726)
(0.000115522 0.000316268 0.000166704)
(-9.191e-05 0.000316798 0.000166671)
(-0.000304871 0.000311088 0.000171617)
(-0.000529574 0.000298308 0.000178611)
(-0.000769242 0.000277542 0.000179108)
(-0.000992661 0.00024568 0.000153546)
(-0.00116985 0.000204567 9.93638e-05)
(-0.00121911 0.000157037 1.28264e-06)
(-0.00112757 0.000119672 -6.0044e-05)
(-0.000976082 0.000110216 -8.37375e-05)
(-0.000792484 0.000100408 -8.93941e-05)
(-0.000610946 9.43428e-05 -8.46422e-05)
(-0.00044057 8.79212e-05 -7.64572e-05)
(-0.000287124 8.30798e-05 -6.81672e-05)
(-0.000152542 8.03048e-05 -5.88245e-05)
(-2.86911e-05 7.8973e-05 -3.51449e-05)
(2.09385e-05 7.4308e-05 1.95366e-05)
(-1.61811e-05 3.33095e-05 1.45118e-05)
(8.76014e-06 3.5982e-05 -1.86067e-05)
(7.99326e-05 3.7078e-05 -3.31507e-05)
(0.000159015 3.90329e-05 -3.93164e-05)
(0.000252456 4.24177e-05 -4.60262e-05)
(0.000362035 4.70842e-05 -5.54342e-05)
(0.000491965 5.25983e-05 -6.74982e-05)
(0.000645084 5.89283e-05 -8.03872e-05)
(0.000816648 6.55731e-05 -8.96373e-05)
(0.000996855 7.53758e-05 -8.8182e-05)
(0.00115602 8.73396e-05 -6.68577e-05)
(0.00126387 0.000111954 -6.76124e-06)
(0.00122135 0.000142323 9.28837e-05)
(0.00104161 0.000169072 0.000146428)
(0.000813081 0.000190162 0.00017089)
(0.000567134 0.000204673 0.000168785)
(0.000336851 0.000214103 0.000160638)
(0.000118587 0.00021891 0.000155065)
(-9.39003e-05 0.00021948 0.000155028)
(-0.000312158 0.000215777 0.000160515)
(-0.000542478 0.000207343 0.000168609)
(-0.000788532 0.000193664 0.000170823)
(-0.00101805 0.000173199 0.000146984)
(-0.00119963 0.000146852 9.43705e-05)
(-0.00124769 0.000116819 -3.64864e-06)
(-0.00114599 9.22271e-05 -6.48955e-05)
(-0.000987803 8.07239e-05 -8.86082e-05)
(-0.000803118 7.17126e-05 -9.3586e-05)
(-0.000619895 6.63673e-05 -8.80773e-05)
(-0.000448205 6.19261e-05 -7.92026e-05)
(-0.000292405 5.89941e-05 -7.03982e-05)
(-0.000155106 5.75288e-05 -6.05647e-05)
(-2.80316e-05 5.68359e-05 -3.59525e-05)
(2.24173e-05 5.34947e-05 2.04224e-05)
(-1.65949e-05 2.06652e-05 1.48799e-05)
(8.72264e-06 2.23251e-05 -1.89098e-05)
(8.11918e-05 2.28817e-05 -3.37568e-05)
(0.000161572 2.38567e-05 -4.00564e-05)
(0.000256308 2.56506e-05 -4.69115e-05)
(0.000367035 2.83106e-05 -5.6537e-05)
(0.000498036 3.18152e-05 -6.89041e-05)
(0.000652051 3.63549e-05 -8.21786e-05)
(0.000825044 4.20058e-05 -9.18148e-05)
(0.0010069 5.00018e-05 -9.06219e-05)
(0.00116984 6.01367e-05 -6.91999e-05)
(0.00128242 7.52271e-05 -8.61808e-06)
(0.00124051 9.2253e-05 9.1411e-05)
(0.0010582 0.000107561 0.000144779)
(0.00082605 0.000119794 0.00016878)
(0.000576292 0.000128652 0.000166132)
(0.000342486 0.000134586 0.000157619)
(0.000120838 0.000137816 0.000151868)
(-9.49733e-05 0.000138461 0.000151834)
(-0.000316697 0.000136478 0.000157506)
(-0.000550697 0.000131651 0.000165969)
(-0.000800792 0.00012369 0.000168726)
(-0.00103421 0.000112064 0.000145341)
(-0.00121862 9.70552e-05 9.2917e-05)
(-0.00126629 8.00636e-05 -5.51547e-06)
(-0.00115978 6.49021e-05 -6.73046e-05)
(-0.000997604 5.48717e-05 -9.11517e-05)
(-0.000811003 4.71663e-05 -9.59075e-05)
(-0.000625968 4.21199e-05 -9.00591e-05)
(-0.000452901 3.85198e-05 -8.08496e-05)
(-0.000295428 3.63288e-05 -7.17734e-05)
(-0.00015643 3.52913e-05 -6.16633e-05)
(-2.74444e-05 3.47858e-05 -3.64874e-05)
(2.34111e-05 3.26738e-05 2.09052e-05)
(-1.67878e-05 7.93012e-06 1.49866e-05)
(8.63365e-06 8.55062e-06 -1.90964e-05)
(8.15754e-05 8.61064e-06 -3.40581e-05)
(0.000162501 8.70162e-06 -4.0399e-05)
(0.000257882 9.05486e-06 -4.72911e-05)
(0.000369371 9.89824e-06 -5.69674e-05)
(0.00050132 1.15698e-05 -6.94024e-05)
(0.000656501 1.44018e-05 -8.27526e-05)
(0.000830949 1.88931e-05 -9.24577e-05)
(0.00101436 2.48332e-05 -9.13012e-05)
(0.00117885 3.23641e-05 -6.98841e-05)
(0.00129235 3.90417e-05 -9.15267e-06)
(0.00125011 4.41869e-05 9.12812e-05)
(0.00106657 4.89465e-05 0.000144985)
(0.00083278 5.28646e-05 0.000169135)
(0.000581322 5.63184e-05 0.000166548)
(0.000345776 5.8915e-05 0.000158043)
(0.000122401 6.06592e-05 0.000152295)
(-9.51822e-05 6.14158e-05 0.000152266)
(-0.000318735 6.11337e-05 0.000157943)
(-0.000554673 5.98235e-05 0.000166403)
(-0.00080676 5.73914e-05 0.000169102)
(-0.00104216 5.41016e-05 0.000145557)
(-0.00122818 4.95619e-05 9.27979e-05)
(-0.00127638 4.42027e-05 -5.99663e-06)
(-0.00116893 3.70993e-05 -6.80715e-05)
(-0.00100512 2.92658e-05 -9.19654e-05)
(-0.000816836 2.30998e-05 -9.67158e-05)
(-0.000630173 1.85072e-05 -9.08229e-05)
(-0.000455745 1.56438e-05 -8.15578e-05)
(-0.000297094 1.40057e-05 -7.24251e-05)
(-0.000157125 1.32307e-05 -6.22382e-05)
(-2.72377e-05 1.28466e-05 -3.68393e-05)
(2.38322e-05 1.19708e-05 2.10206e-05)
(-1.67638e-05 -4.58734e-06 1.48339e-05)
(8.48693e-06 -4.99765e-06 -1.91688e-05)
(8.10751e-05 -5.4939e-06 -3.4059e-05)
(0.000161785 -6.40535e-06 -4.03509e-05)
(0.00025715 -7.68798e-06 -4.71783e-05)
(0.000368978 -8.94654e-06 -5.67487e-05)
(0.000501694 -9.45508e-06 -6.9024e-05)
(0.000658267 -8.64918e-06 -8.2149e-05)
(0.000834232 -5.37167e-06 -9.1613e-05)
(0.00101923 -1.13825e-06 -9.02812e-05)
(0.00118328 5.181e-06 -6.89947e-05)
(0.00129395 4.08879e-06 -8.38451e-06)
(0.00125024 -3.27768e-06 9.21957e-05)
(0.00106664 -9.67089e-06 0.000146592)
(0.000833178 -1.46169e-05 0.000171415)
(0.000582164 -1.68553e-05 0.000169436)
(0.000346703 -1.77569e-05 0.000161279)
(0.000123294 -1.75412e-05 0.000155696)
(-9.44707e-05 -1.66172e-05 0.000155669)
(-0.000318181 -1.50422e-05 0.000161181)
(-0.000554271 -1.25655e-05 0.000169286)
(-0.000806274 -9.07528e-06 0.000171363)
(-0.00104178 -3.41532e-06 0.000147113)
(-0.00122829 3.13076e-06 9.36067e-05)
(-0.00127833 9.9327e-06 -5.47086e-06)
(-0.00117379 1.01332e-05 -6.73649e-05)
(-0.00101037 3.11833e-06 -9.11457e-05)
(-0.000820494 -1.83581e-06 -9.60776e-05)
(-0.000632353 -5.8923e-06 -9.04177e-05)
(-0.000456625 -7.69002e-06 -8.13608e-05)
(-0.000297334 -8.43437e-06 -7.23756e-05)
(-0.000157148 -8.68588e-06 -6.23049e-05)
(-2.73879e-05 -8.80902e-06 -3.70207e-05)
(2.369e-05 -8.42899e-06 2.07771e-05)
(-1.6549e-05 -1.65779e-05 1.44259e-05)
(8.16915e-06 -1.80075e-05 -1.91102e-05)
(7.94478e-05 -1.9256e-05 -3.37327e-05)
(0.000159012 -2.15627e-05 -3.98815e-05)
(0.000253456 -2.51408e-05 -4.65334e-05)
(0.00036492 -2.94952e-05 -5.58245e-05)
(0.000497975 -3.34891e-05 -6.76997e-05)
(0.000656143 -3.6094e-05 -8.02607e-05)
(0.000833975 -3.47658e-05 -8.91073e-05)
(0.00102184 -3.16855e-05 -8.72157e-05)
(0.00118393 -2.22473e-05 -6.60571e-05)
(0.00128658 -3.10868e-05 -5.73122e-06)
(0.00123949 -5.41758e-05 9.54418e-05)
(0.00105728 -7.49063e-05 0.000151537)
(0.000826411 -9.13891e-05 0.000178045)
(0.000578333 -0.000100786 0.000177703)
(0.000345018 -0.000105956 0.000170533)
(0.000123487 -0.000107536 0.000165418)
(-9.267e-05 -0.000106364 0.00016537)
(-0.000314644 -0.000102498 0.000170369)
(-0.000548866 -9.52967e-05 0.000177434)
(-0.000798383 -8.42418e-05 0.000177816)
(-0.00103185 -6.68472e-05 0.000151819)
(-0.00121765 -4.60081e-05 9.6556e-05)
(-0.00127151 -2.40935e-05 -3.09997e-06)
(-0.00117503 -1.67725e-05 -6.47255e-05)
(-0.00101354 -2.7169e-05 -8.84081e-05)
(-0.000820951 -3.13808e-05 -9.38693e-05)
(-0.000631199 -3.40977e-05 -8.87682e-05)
(-0.000454279 -3.34135e-05 -8.01991e-05)
(-0.000295166 -3.19599e-05 -7.15578e-05)
(-0.000155851 -3.07496e-05 -6.1789e-05)
(-2.75567e-05 -3.01214e-05 -3.69688e-05)
(2.30907e-05 -2.83448e-05 2.01475e-05)
(-1.62275e-05 -2.75491e-05 1.37635e-05)
(7.41089e-06 -2.99217e-05 -1.88896e-05)
(7.61372e-05 -3.21071e-05 -3.30325e-05)
(0.000153224 -3.62111e-05 -3.89341e-05)
(0.00024523 -4.28028e-05 -4.52755e-05)
(0.000354772 -5.14323e-05 -5.40595e-05)
(0.000486756 -6.06786e-05 -6.51823e-05)
(0.000646116 -6.88926e-05 -7.6596e-05)
(0.000826583 -7.11027e-05 -8.41169e-05)
(0.00102204 -6.93112e-05 -8.06906e-05)
(0.00118129 -4.64786e-05 -6.0076e-05)
(0.0012668 -6.395e-05 2.90746e-08)
(0.00121296 -0.000111666 0.000102541)
(0.00103373 -0.00015259 0.000161994)
(0.00080889 -0.000185097 0.000191589)
(0.000567716 -0.000204386 0.000194558)
(0.000339649 -0.000215495 0.00018949)
(0.000122716 -0.000219593 0.000185392)
(-8.93466e-05 -0.00021803 0.000185282)
(-0.000306872 -0.000210845 0.000189133)
(-0.000536135 -0.000196922 0.000193952)
(-0.000779284 -0.000175202 0.000190887)
(-0.00100743 -0.000141331 0.000161682)
(-0.00119126 -0.000100202 0.000103062)
(-0.00125264 -5.46135e-05 2.32947e-06)
(-0.00117308 -3.97906e-05 -5.91897e-05)
(-0.00101426 -6.35604e-05 -8.24066e-05)
(-0.000814434 -6.68897e-05 -8.93131e-05)
(-0.000622536 -6.67151e-05 -8.53927e-05)
(-0.000445135 -6.13744e-05 -7.77983e-05)
(-0.000288012 -5.59682e-05 -6.97776e-05)
(-0.000151596 -5.21419e-05 -6.05265e-05)
(-2.68883e-05 -5.02008e-05 -3.65549e-05)
(2.23616e-05 -4.70497e-05 1.9054e-05)
(-1.58373e-05 -3.69806e-05 1.28951e-05)
(6.05283e-06 -4.02517e-05 -1.84633e-05)