/*--------------------------------*- C++ -*----------------------------------*\
| =========                 |                                                 |
| \\      /  F ield         | OpenFOAM: The Open Source CFD Toolbox           |
|  \\    /   O peration     | Version:  2112                                  |
|   \\  /    A nd           | Website:  www.openfoam.com                      |
|    \\/     M anipulation  |                                                 |
\*---------------------------------------------------------------------------*/
FoamFile
{
    version     2.0;
    format      ascii;
    arch        "LSB;label=32;scalar=64";
    class       volScalarField;
    location    "2.5";
    object      epsilon;
}
// * * * * * * * * * * * * * * * * * * * * * * * * * * * * * * * * * * * * * //

dimensions      [0 2 -3 0 0 0 0];

internalField   nonuniform List<scalar> 
64906
(
0.000537607
0.000608975
0.000649451
0.000666343
0.000672546
0.000674626
0.000675278
0.000675475
0.000675539
0.000675564
0.000675577
0.000675582
0.000675583
0.000675579
0.00067557
0.000675557
0.00067554
0.000675523
0.000675513
0.000675524
0.000675539
0.000675553
0.000675561
0.000675565
0.000675562
0.000675545
0.000675488
0.000675296
0.00067465
0.000672574
0.000666376
0.000649488
0.000609012
0.000537635
0.000609005
0.00105727
0.00130291
0.00141689
0.00146528
0.00148399
0.00149058
0.00149269
0.00149327
0.00149337
0.00149334
0.00149329
0.00149328
0.00149329
0.00149331
0.00149333
0.00149334
0.00149334
0.00149334
0.00149334
0.00149333
0.00149332
0.00149329
0.00149328
0.00149325
0.00149314
0.0014926
0.00149057
0.00148406
0.0014654
0.00141704
0.00130307
0.00105739
0.000609071
0.000649536
0.00130301
0.00168492
0.0018751
0.00196201
0.00199817
0.00201178
0.00201628
0.00201738
0.00201729
0.00201691
0.00201661
0.0020165
0.00201653
0.00201663
0.00201672
0.00201677
0.00201679
0.0020168
0.00201678
0.00201674
0.00201667
0.00201657
0.00201651
0.00201652
0.00201642
0.00201544
0.00201127
0.00199801
0.00196211
0.00187534
0.0016852
0.00130324
0.000649649
0.000666474
0.00141707
0.00187522
0.00211391
0.00222805
0.00227761
0.00229676
0.00230275
0.00230332
0.0023018
0.00229988
0.0022985
0.00229783
0.00229771
0.00229784
0.00229793
0.00229795
0.00229795
0.00229796
0.00229797
0.00229797
0.00229789
0.00229777
0.00229784
0.00229834
0.00229908
0.00229888
0.00229405
0.00227618
0.00222759
0.002114
0.00187553
0.00141738
0.000666624
0.000672701
0.00146551
0.00196221
0.00222815
0.00235872
0.00241651
0.00243841
0.00244349
0.00244064
0.00243431
0.00242779
0.00242346
0.00242135
0.00242085
0.00242099
0.00242097
0.00242081
0.00242071
0.00242072
0.00242085
0.00242102
0.00242106
0.00242092
0.00242137
0.00242325
0.00242674
0.00243058
0.00242908
0.00241115
0.00235633
0.0022275
0.00196234
0.00146584
0.00067288
0.000674793
0.00148425
0.00199841
0.00227777
0.0024166
0.00247778
0.00249858
0.00249809
0.00248527
0.00246621
0.00244824
0.00243789
0.00243352
0.00243288
0.00243343
0.00243316
0.00243255
0.00243218
0.00243219
0.00243259
0.00243322
0.00243352
0.00243297
0.00243355
0.00243767
0.00244708
0.00246207
0.00247244
0.00246249
0.00240933
0.00227513
0.00199793
0.00148447
0.000674991
0.000675445
0.00149083
0.00201203
0.00229699
0.00243869
0.00249893
0.00251341
0.00249891
0.00246276
0.0024138
0.00237023
0.00235194
0.00234745
0.00234923
0.00235195
0.00235146
0.00235009
0.00234929
0.00234931
0.00235014
0.00235153
0.00235205
0.00234935
0.00234751
0.00235175
0.00236909
0.00240958
0.0024495
0.00246195
0.00242093
0.00229007
0.00201013
0.00149074
0.000675648
0.000675634
0.00149293
0.00201655
0.00230317
0.00244435
0.00249966
0.00250083
0.00245857
0.00237417
0.00225928
0.00215978
0.00214542
0.00215602
0.00216941
0.00217873
0.00217883
0.00217689
0.00217578
0.0021758
0.00217694
0.00217892
0.00217885
0.00216955
0.00215613
0.00214532
0.00215879
0.00225532
0.00236112
0.00242147
0.00240742
0.00228858
0.0020121
0.00149223
0.000675816
0.00067568
0.00149349
0.00201774
0.00230423
0.00244291
0.00249002
0.0024704
0.00238216
0.00220857
0.00195126
0.00171693
0.00177998
0.00185926
0.00190593
0.00192859
0.0019321
0.00193128
0.0019306
0.00193062
0.00193134
0.00193219
0.00192873
0.0019061
0.00185943
0.00178004
0.00171625
0.00194788
0.0021962
0.00234563
0.00237719
0.00227856
0.00200965
0.0014919
0.000675811
0.000675682
0.00149359
0.00201788
0.00230371
0.00243949
0.00247771
0.00243425
0.00228685
0.0019741
0.00142524
0.000869459
0.00123449
0.00150414
0.00161494
0.00165399
0.00166525
0.00166791
0.00166841
0.00166842
0.00166796
0.00166534
0.00165413
0.00161512
0.00150439
0.00123477
0.00086925
0.00142285
0.00196266
0.00225106
0.00234152
0.0022664
0.00200607
0.00149106
0.000675742
0.000675674
0.00149358
0.00201791
0.00230347
0.00243789
0.00247153
0.00241444
0.0022263
0.00178573
0.000891882
0.000791074
0.00124923
0.00141293
0.00146157
0.00147529
0.00147856
0.00147919
0.0014792
0.00147859
0.00147534
0.00146165
0.00141308
0.00124947
0.000791219
0.000890904
0.0017751
0.0021909
0.00232188
0.00226021
0.00200429
0.00149058
0.000675701
0.000675656
0.00149358
0.00201816
0.00230429
0.00244013
0.00247767
0.002432
0.00227958
0.00195841
0.00139954
0.000850633
0.00114925
0.00138721
0.00148172
0.00151082
0.00152084
0.0015226
0.00152257
0.00152257
0.00152258
0.00152082
0.00151079
0.00148169
0.0013872
0.00114911
0.000850206
0.0013967
0.00194669
0.00224355
0.00233894
0.00226585
0.00200601
0.00149089
0.000675704
0.000675632
0.00149361
0.00201859
0.00230581
0.00244464
0.00249022
0.00246538
0.00236494
0.00216804
0.00187299
0.00158696
0.0015607
0.00156288
0.00156837
0.00157083
0.00157158
0.00157095
0.00157043
0.00157042
0.00157092
0.00157152
0.00157074
0.00156823
0.00156265
0.00156022
0.00158573
0.00186919
0.00215541
0.00232809
0.00237154
0.00227764
0.00200978
0.00149173
0.000675724
0.000675602
0.00149363
0.00201902
0.00230735
0.00244914
0.00250224
0.00249512
0.00243281
0.00230865
0.00212614
0.00192725
0.00178393
0.00167638
0.00162829
0.00161125
0.00160549
0.00160331
0.0016025
0.00160249
0.00160326
0.00160541
0.00161112
0.00162809
0.00167609
0.00178341
0.00192585
0.00212191
0.00229539
0.00239522
0.00240048
0.00228885
0.00201351
0.00149257
0.000675729
0.000675567
0.00149364
0.00201935
0.00230851
0.0024524
0.00251056
0.00251447
0.00247337
0.0023836
0.00224292
0.00206568
0.00188452
0.00173286
0.00165974
0.00163241
0.00162322
0.00162014
0.00161912
0.00161909
0.00162007
0.00162312
0.00163226
0.00165953
0.00173255
0.00188391
0.00206422
0.00223849
0.00236998
0.00243527
0.00241922
0.00229652
0.00201615
0.00149316
0.000675707
0.000675529
0.00149364
0.00201956
0.00230923
0.00245435
0.00251528
0.00252484
0.00249371
0.00241821
0.00229199
0.00211942
0.00192522
0.00175653
0.00167331
0.00164156
0.00163084
0.00162727
0.00162606
0.00162603
0.00162718
0.00163072
0.00164141
0.0016731
0.00175621
0.00192455
0.00211795
0.00228747
0.00240439
0.0024553
0.0024292
0.00230081
0.00201766
0.00149348
0.000675664
0.00067549
0.00149362
0.00201968
0.00230962
0.00245534
0.00251757
0.00252962
0.00250257
0.00243236
0.00231073
0.00213884
0.00193998
0.00176518
0.00167833
0.00164493
0.00163359
0.00162977
0.00162839
0.00162834
0.00162966
0.00163346
0.00164477
0.0016781
0.00176485
0.00193931
0.00213736
0.00230617
0.00241845
0.002464
0.00243377
0.00230285
0.0020184
0.00149361
0.000675612
0.000675453
0.0014936
0.00201973
0.0023098
0.00245576
0.00251848
0.00253143
0.00250576
0.00243722
0.00231685
0.00214492
0.00194457
0.00176786
0.00167989
0.00164596
0.00163439
0.00163044
0.00162893
0.00162887
0.00163032
0.00163425
0.00164579
0.00167966
0.00176754
0.0019439
0.00214345
0.00231228
0.00242327
0.00246713
0.00243549
0.00230366
0.0020187
0.00149365
0.000675557
0.000675422
0.00149359
0.00201975
0.00230983
0.00245582
0.00251856
0.00253153
0.00250589
0.00243738
0.00231704
0.00214512
0.00194476
0.00176798
0.00167996
0.00164599
0.00163438
0.00163038
0.00162879
0.00162871
0.00163025
0.00163423
0.00164581
0.00167973
0.00176766
0.0019441
0.00214366
0.00231249
0.00242345
0.00246727
0.0024356
0.00230374
0.00201874
0.00149365
0.000675509
0.000675419
0.0014936
0.00201973
0.00230972
0.00245551
0.0025178
0.00252993
0.00250297
0.00243286
0.00231131
0.00213946
0.00194058
0.00176557
0.00167857
0.00164504
0.00163357
0.0016296
0.00162802
0.00162794
0.00162947
0.00163342
0.00164486
0.00167834
0.00176525
0.00193994
0.00213803
0.00230681
0.002419
0.00246444
0.0024341
0.00230308
0.00201852
0.00149361
0.000675504
0.000675451
0.00149361
0.00201965
0.00230941
0.00245462
0.00251567
0.00252537
0.0024944
0.00241909
0.00229305
0.00212059
0.00192637
0.00175727
0.00167378
0.0016418
0.00163088
0.00162708
0.00162561
0.00162554
0.00162695
0.00163072
0.00164163
0.00167357
0.00175698
0.00192579
0.00211923
0.00228864
0.00240538
0.00245607
0.00242976
0.00230119
0.00201786
0.00149348
0.00067555
0.000675488
0.00149363
0.00201948
0.00230876
0.0024528
0.00251111
0.00251522
0.00247439
0.00238493
0.00224459
0.00206762
0.00188645
0.0017341
0.00166054
0.00163287
0.0016234
0.00162004
0.00161877
0.00161872
0.00161992
0.00162326
0.00163271
0.00166035
0.00173386
0.00188597
0.00206639
0.00224038
0.00237149
0.00243641
0.00242004
0.00229707
0.00201644
0.0014932
0.000675595
0.000675525
0.00149363
0.00201918
0.00230767
0.00244964
0.00250295
0.0024961
0.00243416
0.00231051
0.00212864
0.0019303
0.00178646
0.00167815
0.00162937
0.00161186
0.00160576
0.0016033
0.00160231
0.00160228
0.00160321
0.00160564
0.00161173
0.00162923
0.00167801
0.00178623
0.0019293
0.00212477
0.00229751
0.00239674
0.00240154
0.00228955
0.00201389
0.00149265
0.000675622
0.000675559
0.00149361
0.00201877
0.00230616
0.00244519
0.00249102
0.0024665
0.00236653
0.00217036
0.00187629
0.00159127
0.00156422
0.00156452
0.00156889
0.00157068
0.00157103
0.00157016
0.00156951
0.00156949
0.00157009
0.00157092
0.00157054
0.00156871
0.00156441
0.00156427
0.00159068
0.00187303
0.00215799
0.0023298
0.00237271
0.00227842
0.00201022
0.00149183
0.000675622
0.000675585
0.00149357
0.00201827
0.00230454
0.00244055
0.00247832
0.00243297
0.00228105
0.00196071
0.00140302
0.000852538
0.00115068
0.00138495
0.00147744
0.00150526
0.00151466
0.00151616
0.00151603
0.001516
0.00151606
0.00151443
0.00150478
0.00147665
0.00138411
0.0011507
0.000852237
0.00140073
0.00194889
0.00224479
0.00233979
0.00226648
0.00200639
0.00149098
0.000675604
0.000675596
0.00149343
0.00201767
0.00230313
0.00243754
0.00247127
0.00241427
0.00222616
0.00178569
0.000891837
0.000785324
0.00123193
0.00138831
0.00143225
0.00144417
0.00144687
0.00144729
0.00144721
0.00144654
0.00144331
0.00143023
0.00138435
0.00122633
0.00078237
0.000889817
0.001773
0.00218926
0.0023211
0.00225996
0.00200424
0.00149052
0.000675597
0.000675564
0.00149289
0.00201632
0.00230132
0.00243655
0.00247448
0.00243079
0.00228288
0.00196921
0.00141965
0.00086435
0.00119981
0.00144237
0.00152672
0.00154903
0.00155529
0.00155701
0.00155735
0.00155718
0.00155624
0.0015529
0.00154253
0.00151225
0.00141802
0.0011782
0.000856946
0.00140748
0.00194988
0.00224274
0.00233662
0.00226358
0.00200456
0.00149042
0.000675599
0.000675395
0.00149089
0.00201195
0.00229554
0.00243217
0.00247797
0.00245715
0.00236659
0.00218765
0.0019191
0.00166271
0.00167746
0.00169552
0.001677
0.00166157
0.00165514
0.0016531
0.00165248
0.0016522
0.00165173
0.00165054
0.00164782
0.00164255
0.0016302
0.00161059
0.0016125
0.00188184
0.00215567
0.00232106
0.00236178
0.00226862
0.00200372
0.00148933
0.000675495
0.000674766
0.00148441
0.00199863
0.00227723
0.00241283
0.00246469
0.0024631
0.00241625
0.00232122
0.00218271
0.00203682
0.00194269
0.00184575
0.0017482
0.00170088
0.00168366
0.00167835
0.00167689
0.00167653
0.00167653
0.00167716
0.00168041
0.0016931
0.0017323
0.00182469
0.00194504
0.00212073
0.00227725
0.00236659
0.00236872
0.00226065
0.00199388
0.00148374
0.000674919
0.000672697
0.00146578
0.00196272
0.00222847
0.00235748
0.00241032
0.00241995
0.0023993
0.00234986
0.00227154
0.00217098
0.00205875
0.0019292
0.00180683
0.00174771
0.00172597
0.0017192
0.00171736
0.00171696
0.00171718
0.00171869
0.00172468
0.00174491
0.00180212
0.00192525
0.00206627
0.00220201
0.00230325
0.00235117
0.00233196
0.00221949
0.00196055
0.00146575
0.000672883
0.000666496
0.00141741
0.00187592
0.00211482
0.00222851
0.00227597
0.00228934
0.0022824
0.00225791
0.00221374
0.00214754
0.00205935
0.00195428
0.00185649
0.00180473
0.00178419
0.00177747
0.00177565
0.00177528
0.00177555
0.00177723
0.00178373
0.0018037
0.00185506
0.00195386
0.0020632
0.00215744
0.00222022
0.00224308
0.00221538
0.00211082
0.0018754
0.00141775
0.000666693
0.000649593
0.00130338
0.00168571
0.00187626
0.00196329
0.00199892
0.00201042
0.00200951
0.00199904
0.0019773
0.0019411
0.00188887
0.00182533
0.00176633
0.00173256
0.00171808
0.00171306
0.00171162
0.00171133
0.00171159
0.00171298
0.0017179
0.00173224
0.00176596
0.00182536
0.00189015
0.00194338
0.00197608
0.00198387
0.00195807
0.00187524
0.00168607
0.00130387
0.000649781
0.000609089
0.0010576
0.00130358
0.00141788
0.00146653
0.00148534
0.00149158
0.00149228
0.00148926
0.00148178
0.00146803
0.00144686
0.00142028
0.00139509
0.00137984
0.00137291
0.00137038
0.0013696
0.00136944
0.00136961
0.00137039
0.00137291
0.0013798
0.00139505
0.00142034
0.00144719
0.0014683
0.00148022
0.00148108
0.00146561
0.0014182
0.00130416
0.00105803
0.000609245
0.000537679
0.000609144
0.000649763
0.000666798
0.000673138
0.000675356
0.000676131
0.000676387
0.000676332
0.000675894
0.000674928
0.00067316
0.000670685
0.000668142
0.000666538
0.000665748
0.000665386
0.000665197
0.000665127
0.000665209
0.000665396
0.00066575
0.000666526
0.000668113
0.000670642
0.000673114
0.000674863
0.000675683
0.000675491
0.000673483
0.000667161
0.000650057
0.000609334
0.000537781
0.00070644
0.000975984
0.00113808
0.001214
0.0012457
0.0012577
0.00126183
0.00126311
0.00126344
0.00126347
0.00126341
0.00126333
0.00126326
0.00126322
0.00126318
0.00126316
0.00126313
0.00126312
0.00126312
0.00126313
0.00126315
0.00126317
0.0012632
0.00126324
0.00126328
0.00126326
0.00126297
0.00126174
0.00125766
0.00124569
0.00121401
0.0011381
0.000976011
0.000706467
0.000975991
0.00117098
0.00135565
0.00145324
0.00149744
0.00151526
0.00152172
0.00152379
0.00152432
0.00152434
0.00152421
0.00152407
0.00152397
0.00152391
0.00152388
0.00152386
0.00152384
0.00152383
0.00152383
0.00152384
0.00152386
0.00152388
0.00152391
0.00152396
0.00152402
0.00152398
0.00152351
0.00152153
0.00151516
0.00149741
0.00145325
0.00135568
0.00117101
0.000976021
0.00113814
0.00135569
0.00158098
0.00170803
0.00176943
0.00179582
0.00180594
0.00180927
0.00181
0.0018098
0.00180935
0.00180896
0.00180871
0.0018086
0.00180856
0.00180853
0.00180851
0.0018085
0.0018085
0.00180851
0.00180854
0.00180857
0.00180861
0.0018087
0.00180886
0.00180893
0.00180831
0.00180525
0.00179543
0.00176927
0.00170801
0.00158104
0.00135576
0.00113822
0.00121413
0.00145333
0.00170808
0.00185691
0.00193165
0.00196498
0.00197805
0.00198211
0.00198237
0.00198116
0.00197966
0.00197852
0.00197788
0.00197762
0.00197754
0.0019775
0.00197745
0.00197741
0.00197742
0.00197745
0.00197751
0.00197756
0.00197763
0.00197786
0.00197836
0.00197903
0.00197901
0.00197578
0.00196364
0.00193102
0.00185672
0.00170811
0.00145342
0.00121425
0.00124588
0.00149756
0.00176953
0.0019317
0.00201493
0.00205264
0.00206708
0.00207039
0.00206838
0.0020641
0.00205975
0.0020568
0.00205534
0.00205484
0.00205473
0.00205463
0.0020545
0.00205441
0.00205441
0.00205451
0.00205465
0.00205475
0.00205486
0.00205531
0.0020566
0.00205897
0.00206147
0.00206043
0.00204861
0.00201293
0.00193093
0.00176936
0.00149762
0.00124601
0.00125791
0.0015154
0.00179594
0.00196508
0.00205271
0.00209213
0.00210567
0.00210534
0.00209711
0.00208512
0.00207408
0.00206754
0.002065
0.00206451
0.00206458
0.00206449
0.00206422
0.00206401
0.00206402
0.00206423
0.00206451
0.00206461
0.00206453
0.00206498
0.00206733
0.00207321
0.0020822
0.00208835
0.0020816
0.00204737
0.00196285
0.00179524
0.0015153
0.00125799
0.00126205
0.00152186
0.00180608
0.00197821
0.0020673
0.00210592
0.00211536
0.00210631
0.00208405
0.00205488
0.0020299
0.00201778
0.00201557
0.00201671
0.00201782
0.00201819
0.00201784
0.0020175
0.00201751
0.00201786
0.00201822
0.00201786
0.00201675
0.00201557
0.00201758
0.00202902
0.00205185
0.00207492
0.00208162
0.00205502
0.00197296
0.00180424
0.00152139
0.00126195
0.00126334
0.00152393
0.00180947
0.00198244
0.00207102
0.00210643
0.00210759
0.0020819
0.0020321
0.00196831
0.00191806
0.00189869
0.0019038
0.00191181
0.00191604
0.00191841
0.00191852
0.00191818
0.00191819
0.00191854
0.00191844
0.00191609
0.00191186
0.00190382
0.00189853
0.00191722
0.0019653
0.00202289
0.00205684
0.00204641
0.00197191
0.00180564
0.00152279
0.00126289
0.00126367
0.00152448
0.00181031
0.00198308
0.00207
0.00210029
0.00208902
0.00203735
0.00194151
0.0018167
0.00174124
0.001697
0.001728
0.00175484
0.00176536
0.00177344
0.00177554
0.00177568
0.00177568
0.00177556
0.00177348
0.00176542
0.00175491
0.00172806
0.0016969
0.00174042
0.00181374
0.00193229
0.00201218
0.00202751
0.00196516
0.00180373
0.0015224
0.00126271
0.0012637
0.00152454
0.00181034
0.00198262
0.00206767
0.0020926
0.002068
0.00198682
0.00183502
0.00164556
0.00193239
0.00143992
0.00151512
0.00157678
0.00159585
0.00161414
0.00161983
0.00162089
0.0016209
0.00161985
0.00161418
0.00159592
0.00157688
0.00151524
0.0014399
0.00193078
0.00164231
0.00182566
0.00196149
0.00200628
0.00195716
0.001801
0.0015215
0.00126221
0.00126366
0.00152449
0.00181027
0.00198232
0.00206649
0.0020888
0.00205757
0.00196269
0.00180443
0.00204594
0.00155814
0.00136734
0.00144474
0.00148412
0.00149155
0.00149233
0.00149229
0.0014923
0.00149234
0.00149157
0.00148416
0.00144482
0.00136745
0.00155839
0.00203857
0.00179454
0.00193713
0.00199564
0.00195313
0.00179956
0.00152096
0.00126188
0.00126362
0.00152447
0.00181036
0.00198272
0.00206767
0.00209198
0.00206573
0.00198095
0.00182203
0.00161695
0.00182648
0.0013695
0.00146902
0.00154915
0.00160723
0.0015834
0.00157251
0.00156981
0.0015698
0.00157249
0.00158336
0.0016072
0.00154912
0.00146897
0.00136922
0.00182435
0.00161348
0.00181249
0.00195543
0.00200373
0.00195615
0.00180053
0.00152119
0.00126197
0.00126359
0.00152449
0.0018106
0.00198362
0.00207038
0.00209939
0.00208452
0.00202485
0.00191326
0.00175956
0.00163613
0.00155099
0.00155766
0.00156955
0.00158251
0.00157402
0.00156904
0.00156748
0.00156747
0.00156902
0.00157399
0.00158247
0.00156948
0.00155753
0.00155064
0.00163506
0.00175637
0.00190381
0.00199933
0.00202244
0.00196341
0.00180305
0.00152194
0.00126233
0.00126356
0.00152452
0.00181086
0.00198458
0.00207318
0.0021068
0.00210244
0.00206421
0.00199008
0.00188446
0.00177259
0.00168411
0.00163306
0.00160153
0.00158993
0.00158355
0.0015808
0.00157991
0.0015799
0.00158079
0.00158352
0.00158988
0.00160144
0.0016329
0.00168375
0.00177154
0.00188124
0.00198057
0.00203859
0.0020402
0.00197063
0.00180565
0.00152275
0.00126271
0.00126352
0.00152454
0.00181107
0.0019853
0.00207525
0.00211206
0.00211455
0.00208925
0.00203547
0.00195349
0.00185301
0.0017538
0.00167706
0.00162528
0.0016032
0.00159527
0.00159269
0.00159195
0.00159195
0.00159268
0.00159524
0.00160315
0.00162519
0.00167689
0.00175343
0.00185195
0.00195023
0.00202587
0.00206349
0.00205215
0.00197569
0.00180753
0.00152334
0.00126296
0.00126347
0.00152455
0.00181119
0.00198575
0.00207647
0.00211506
0.00212118
0.00210223
0.00205761
0.00198519
0.00188888
0.00178424
0.00169701
0.00163693
0.00161068
0.00160161
0.00159886
0.00159812
0.00159812
0.00159885
0.00160158
0.00161062
0.00163683
0.00169684
0.00178384
0.0018878
0.00198189
0.00204794
0.00207637
0.00205864
0.00197855
0.00180861
0.00152367
0.00126307
0.00126343
0.00152454
0.00181126
0.00198598
0.00207709
0.00211652
0.00212425
0.00210798
0.00206693
0.00199786
0.00190268
0.00179575
0.00170459
0.00164146
0.00161368
0.00160412
0.00160125
0.00160049
0.00160048
0.00160123
0.00160409
0.00161363
0.00164136
0.00170441
0.00179536
0.0019016
0.00199455
0.00205722
0.00208206
0.00206163
0.00197991
0.00180913
0.00152382
0.00126309
0.00126339
0.00152454
0.00181129
0.00198607
0.00207734
0.00211709
0.0021254
0.00211005
0.00207015
0.00200207
0.00190711
0.00179938
0.00170696
0.00164288
0.00161463
0.00160489
0.00160197
0.00160119
0.00160118
0.00160195
0.00160486
0.00161457
0.00164278
0.00170678
0.00179899
0.00190603
0.00199875
0.00206042
0.0020841
0.00206274
0.00198043
0.00180934
0.00152388
0.00126307
0.00126337
0.00152454
0.00181129
0.00198609
0.00207736
0.00211712
0.00212544
0.0021101
0.00207022
0.00200215
0.00190719
0.00179946
0.00170702
0.00164293
0.00161465
0.0016049
0.00160198
0.00160118
0.00160117
0.00160195
0.00160487
0.00161459
0.00164283
0.00170685
0.00179908
0.00190612
0.00199883
0.00206049
0.00208415
0.00206278
0.00198045
0.00180935
0.00152388
0.00126304
0.00126338
0.00152454
0.00181127
0.00198601
0.00207715
0.0021166
0.00212437
0.00210814
0.00206713
0.0019981
0.00190295
0.00179602
0.0017048
0.00164161
0.00161377
0.00160417
0.00160128
0.00160048
0.00160047
0.00160125
0.00160414
0.00161372
0.00164152
0.00170464
0.00179565
0.0019019
0.00199481
0.00205744
0.00208222
0.00206175
0.00197998
0.00180917
0.00152383
0.00126302
0.0012634
0.00152454
0.00181122
0.0019858
0.00207657
0.00211521
0.00212138
0.0021025
0.00205797
0.00198564
0.0018894
0.00178478
0.00169744
0.00163725
0.00161088
0.00160176
0.00159897
0.00159819
0.00159818
0.00159895
0.00160173
0.00161084
0.00163716
0.0016973
0.00178443
0.00188838
0.00198239
0.00204833
0.00207667
0.00205884
0.00197868
0.00180867
0.00152368
0.00126297
0.00126344
0.00152454
0.0018111
0.00198538
0.00207539
0.00211226
0.00211484
0.00208966
0.00203603
0.00195423
0.00185391
0.00175472
0.0016778
0.00162582
0.00160358
0.00159557
0.00159295
0.00159218
0.00159218
0.00159294
0.00159556
0.00160355
0.00162576
0.00167769
0.00175442
0.00185294
0.00195106
0.00202649
0.00206394
0.00205245
0.00197588
0.00180762
0.00152336
0.00126285
0.00126347
0.00152452
0.00181091
0.00198468
0.00207335
0.00210706
0.00210282
0.00206476
0.00199088
0.00188557
0.00177398
0.0016855
0.0016341
0.0016022
0.00159034
0.00158389
0.00158113
0.00158022
0.00158022
0.00158113
0.00158389
0.00159032
0.00160217
0.00163404
0.00168529
0.0017731
0.00188248
0.00198144
0.00203917
0.00204058
0.00197085
0.00180577
0.00152278
0.0012626
0.0012635
0.00152448
0.00181063
0.00198371
0.00207054
0.00209966
0.00208493
0.00202547
0.00191421
0.00176099
0.00163803
0.00155271
0.00155838
0.0015695
0.00158198
0.00157346
0.00156848
0.00156691
0.00156691
0.00156848
0.00157344
0.00158194
0.0015694
0.00155825
0.00155251
0.00163718
0.0017579
0.00190475
0.0019999
0.00202279
0.00196362
0.00180316
0.00152197
0.00126221
0.0012635
0.00152442
0.00181031
0.00198269
0.00206769
0.00209208
0.00206594
0.00198133
0.00182269
0.00161813
0.00183103
0.00136906
0.00146636
0.00154484
0.00160198
0.00157777
0.00156672
0.001564
0.001564
0.00156669
0.00157764
0.00160167
0.00154411
0.00146525
0.00136787
0.00182927
0.00161421
0.00181266
0.00195544
0.00200374
0.00195617
0.00180052
0.00152116
0.00126181
0.00126345
0.00152427
0.0018099
0.00198183
0.00206593
0.00208821
0.00205695
0.00196194
0.0018033
0.002042
0.00153274
0.00134802
0.00141961
0.00145481
0.00146061
0.00146098
0.00146086
0.0014608
0.00146073
0.00145986
0.00145291
0.00141556
0.0013412
0.00151964
0.00202846
0.00179099
0.00193508
0.00199446
0.00195244
0.00179914
0.00152073
0.0012616
0.00126313
0.00152371
0.00180891
0.00198062
0.00206526
0.00208987
0.00206491
0.00198298
0.00182936
0.00163457
0.00188979
0.00139951
0.00145778
0.00150145
0.00150891
0.00152218
0.00152681
0.00152776
0.00152763
0.00152618
0.00152017
0.00150341
0.00148924
0.00143722
0.00137408
0.00184912
0.0016183
0.0018134
0.00195446
0.00200204
0.0019545
0.00179935
0.0015206
0.00126154
0.00126189
0.00152168
0.00180561
0.00197663
0.00206224
0.00209156
0.00207927
0.00202564
0.00192525
0.00178991
0.00169167
0.00161692
0.00160927
0.0016001
0.00158724
0.00158503
0.00158473
0.00158457
0.00158433
0.00158357
0.00158115
0.0015762
0.00157517
0.00156979
0.00157127
0.00165133
0.00176299
0.00190328
0.00199468
0.00201615
0.00195741
0.0017986
0.00151946
0.00126081
0.00125781
0.00151531
0.00179568
0.0019641
0.00204939
0.00208256
0.00208171
0.00205268
0.00199555
0.00191595
0.00183569
0.0017707
0.00172024
0.0016802
0.0016485
0.00163519
0.00163088
0.00162965
0.00162932
0.00162924
0.00162952
0.0016319
0.00164266
0.00166891
0.00170973
0.00178375
0.00187979
0.00196844
0.00202005
0.00201959
0.00195173
0.00179125
0.00151397
0.00125722
0.00124585
0.00149754
0.00176947
0.00193131
0.00201328
0.00204745
0.00205363
0.0020403
0.00200937
0.00196227
0.00190444
0.00184208
0.0017787
0.00172638
0.00168699
0.00166952
0.00166357
0.00166185
0.00166147
0.0016617
0.0016631
0.00166838
0.00168482
0.001723
0.00177708
0.00184947
0.00192373
0.00198138
0.00200883
0.00199534
0.00192408
0.001767
0.00149686
0.00124561
0.00121415
0.00145336
0.00170818
0.00185694
0.00193115
0.00196278
0.00197161
0.00196674
0.00195056
0.00192269
0.00188295
0.00183256
0.001776
0.00172569
0.00169141
0.00167561
0.00166989
0.00166816
0.00166779
0.00166812
0.00166976
0.00167528
0.00169077
0.00172488
0.00177623
0.00183601
0.00188984
0.00192684
0.00194004
0.00192109
0.00185311
0.00170697
0.0014531
0.00121412
0.0011382
0.00135577
0.00158116
0.00170829
0.00176957
0.00179529
0.00180351
0.0018025
0.00179458
0.00177908
0.0017545
0.00172056
0.00168072
0.00164427
0.00162025
0.00160877
0.00160441
0.00160301
0.00160272
0.00160302
0.0016044
0.00160873
0.00162014
0.00164419
0.00168106
0.0017219
0.00175641
0.00177816
0.00178315
0.00176455
0.00170655
0.00158071
0.00135571
0.00113827
0.000976071
0.00117106
0.00135585
0.00145356
0.00149782
0.00151548
0.00152125
0.00152151
0.00151805
0.00151037
0.00149712
0.00147765
0.00145395
0.00143182
0.0014175
0.00141059
0.00140789
0.00140701
0.00140682
0.00140703
0.00140793
0.00141064
0.00141755
0.0014319
0.00145417
0.00147815
0.00149751
0.00150885
0.00150999
0.00149579
0.00145299
0.00135577
0.00117109
0.000976162
0.000706508
0.00097607
0.00113831
0.00121442
0.00124627
0.0012583
0.00126217
0.00126254
0.0012606
0.00125589
0.00124726
0.00123392
0.00121711
0.00120117
0.00119141
0.00118688
0.00118511
0.0011845
0.00118437
0.00118453
0.00118515
0.00118692
0.00119144
0.00120122
0.00121722
0.00123416
0.0012474
0.00125485
0.00125538
0.00124541
0.00121434
0.00113842
0.000976157
0.000706601
0.000799386
0.00122262
0.00148976
0.00162227
0.00168121
0.001705
0.0017137
0.00171652
0.00171724
0.00171724
0.00171702
0.00171677
0.00171657
0.00171644
0.00171635
0.00171628
0.00171623
0.00171621
0.00171621
0.00171623
0.00171628
0.00171634
0.00171642
0.00171654
0.00171667
0.00171667
0.00171604
0.00171335
0.00170479
0.0016811
0.00162221
0.00148974
0.00122262
0.000799414
0.00122262
0.00136522
0.00156136
0.00167402
0.00172853
0.00175187
0.00176081
0.00176382
0.0017646
0.0017646
0.00176437
0.00176412
0.00176393
0.00176381
0.00176374
0.00176369
0.00176366
0.00176364
0.00176364
0.00176366
0.00176369
0.00176374
0.00176381
0.00176391
0.00176402
0.00176399
0.00176328
0.00176042
0.00175164
0.00172841
0.00167398
0.00156136
0.00136522
0.00122261
0.00148983
0.00156139
0.00176277
0.00188899
0.00195448
0.00198437
0.00199645
0.0020006
0.00200151
0.00200119
0.00200052
0.0019999
0.00199947
0.00199923
0.0019991
0.00199902
0.00199896
0.00199894
0.00199894
0.00199897
0.00199902
0.0019991
0.00199922
0.00199943
0.00199973
0.00199989
0.00199914
0.00199536
0.0019837
0.00195414
0.00188887
0.00176276
0.00156141
0.00148986
0.00162243
0.00167409
0.00188904
0.00202917
0.00210466
0.00214033
0.00215502
0.00215974
0.00216002
0.00215849
0.00215656
0.00215498
0.002154
0.00215348
0.00215323
0.0021531
0.002153
0.00215294
0.00215294
0.002153
0.0021531
0.00215324
0.00215348
0.00215394
0.00215474
0.00215568
0.00215571
0.00215197
0.00213841
0.00210366
0.00202876
0.00188894
0.00167412
0.00162248
0.00168144
0.00172864
0.00195457
0.00210471
0.00218716
0.00222662
0.00224243
0.00224617
0.00224392
0.00223908
0.00223405
0.00223038
0.00222834
0.00222737
0.00222692
0.00222671
0.00222654
0.00222643
0.00222643
0.00222655
0.00222672
0.00222693
0.00222737
0.00222827
0.00223007
0.00223298
0.00223573
0.00223441
0.00222152
0.00218444
0.0021035
0.00195416
0.00172857
0.00168145
0.00170528
0.00175201
0.00198449
0.00214044
0.00222671
0.00226758
0.00228221
0.00228207
0.00227345
0.00226095
0.00224929
0.00224167
0.00223827
0.00223688
0.00223618
0.0022361
0.00223589
0.0022357
0.0022357
0.0022359
0.00223611
0.0022362
0.00223688
0.0022382
0.00224133
0.0022481
0.00225724
0.002263
0.00225532
0.0022201
0.0021374
0.00198333
0.00175166
0.00170507
0.001714
0.00176096
0.00199662
0.00215524
0.00224273
0.00228256
0.00229289
0.00228405
0.00226211
0.00223407
0.00220998
0.00219564
0.00219217
0.00219139
0.00219042
0.00219153
0.00219165
0.00219141
0.00219141
0.00219167
0.00219155
0.00219044
0.0021914
0.0021921
0.00219529
0.00220873
0.00223017
0.00225114
0.00225612
0.00222851
0.00214863
0.00199396
0.00176001
0.00171329
0.00171685
0.00176399
0.00200086
0.00216022
0.00224705
0.0022835
0.00228565
0.00226135
0.00221561
0.00216013
0.00211782
0.0020891
0.00209197
0.00209558
0.00209344
0.0020998
0.00210156
0.00210148
0.00210149
0.00210158
0.00209983
0.00209348
0.00209561
0.00209194
0.00208878
0.00211655
0.00215611
0.00220434
0.00223278
0.0022201
0.0021477
0.00199573
0.00176204
0.00171526
0.00171761
0.00176483
0.00200197
0.00216105
0.00224609
0.00227745
0.00226813
0.00222194
0.00214183
0.00205052
0.00201719
0.00191809
0.00194577
0.00196399
0.0019548
0.00197954
0.0019867
0.00198755
0.00198756
0.00198673
0.00197958
0.00195485
0.00196405
0.00194579
0.00191782
0.00201578
0.00204626
0.00213021
0.00219286
0.00220186
0.00214067
0.00199356
0.00176152
0.00171478
0.00171769
0.00176494
0.00200202
0.00216054
0.00224366
0.00226998
0.00224948
0.00218239
0.00207514
0.00200703
0.00268487
0.00171025
0.00179514
0.00184844
0.00181126
0.00188581
0.00190614
0.0019093
0.00190931
0.00190618
0.00188587
0.00181132
0.00184855
0.00179526
0.00171002
0.00268107
0.00200154
0.00206278
0.00215271
0.0021826
0.00213257
0.00199046
0.00176031
0.00171362
0.00171761
0.0017649
0.00200192
0.00216016
0.00224236
0.00226632
0.00224108
0.00216994
0.00210615
0.00293352
0.0018511
0.00158377
0.00167282