/*--------------------------------*- C++ -*----------------------------------*\
| =========                 |                                                 |
| \\      /  F ield         | OpenFOAM: The Open Source CFD Toolbox           |
|  \\    /   O peration     | Version:  2112                                  |
|   \\  /    A nd           | Website:  www.openfoam.com                      |
|    \\/     M anipulation  |                                                 |
\*---------------------------------------------------------------------------*/
FoamFile
{
    version     2.0;
    format      ascii;
    arch        "LSB;label=32;scalar=64";
    class       volScalarField;
    location    "2.5";
    object      k;
}
// * * * * * * * * * * * * * * * * * * * * * * * * * * * * * * * * * * * * * //

dimensions      [0 2 -2 0 0 0 0];

internalField   nonuniform List<scalar> 
64906
(
0.00059992
0.000652778
0.000682034
0.000694183
0.000698673
0.000700196
0.000700678
0.000700825
0.000700872
0.00070089
0.000700898
0.000700901
0.000700901
0.000700898
0.000700891
0.000700881
0.000700869
0.000700857
0.00070085
0.000700858
0.000700869
0.000700879
0.000700885
0.000700888
0.000700886
0.000700874
0.000700832
0.000700689
0.000700211
0.000698691
0.000694206
0.000682061
0.000652805
0.000599941
0.0006528
0.000945235
0.00108807
0.0011518
0.00117863
0.00118907
0.00119278
0.00119398
0.00119432
0.00119437
0.00119435
0.00119431
0.0011943
0.0011943
0.00119431
0.00119432
0.00119433
0.00119433
0.00119433
0.00119433
0.00119433
0.00119432
0.00119431
0.0011943
0.00119429
0.00119423
0.00119392
0.00119277
0.0011891
0.0011787
0.00115188
0.00108816
0.00094531
0.000652849
0.000682097
0.00108813
0.00129348
0.00139059
0.00143432
0.00145254
0.00145945
0.00146176
0.00146233
0.00146227
0.00146206
0.00146189
0.00146182
0.00146183
0.00146187
0.00146191
0.00146193
0.00146194
0.00146194
0.00146194
0.00146192
0.00146189
0.00146184
0.00146183
0.00146184
0.0014618
0.0014613
0.00145916
0.00145243
0.00143435
0.00139071
0.00129362
0.00108826
0.000682177
0.000694277
0.0011519
0.00139065
0.00150806
0.00156316
0.00158707
0.00159637
0.0015993
0.00159958
0.00159881
0.00159784
0.00159713
0.00159677
0.00159669
0.00159673
0.00159677
0.00159677
0.00159677
0.00159678
0.00159678
0.00159679
0.00159676
0.00159671
0.00159677
0.00159705
0.00159743
0.00159734
0.00159498
0.00158632
0.0015629
0.00150808
0.0013908
0.00115207
0.000694384
0.000698784
0.00117876
0.00143442
0.00156321
0.00162514
0.0016525
0.00166291
0.00166535
0.00166398
0.00166093
0.00165777
0.00165564
0.00165456
0.00165427
0.00165431
0.00165428
0.0016542
0.00165414
0.00165415
0.00165421
0.0016543
0.00165434
0.0016543
0.00165456
0.00165552
0.00165725
0.00165909
0.00165836
0.00164984
0.00162393
0.00156284
0.00143446
0.00117893
0.000698911
0.000700315
0.00118921
0.00145266
0.00158714
0.00165254
0.00168126
0.00169107
0.00169086
0.00168482
0.00167583
0.00166729
0.00166226
0.00166004
0.00165964
0.00165984
0.00165968
0.00165938
0.0016592
0.00165921
0.0016594
0.00165971
0.00165988
0.00165968
0.00166005
0.00166214
0.0016667
0.00167378
0.00167861
0.00167388
0.00164895
0.00158578
0.00145237
0.00118931
0.000700455
0.000700798
0.00119292
0.00145958
0.00159648
0.00166306
0.00169124
0.00169806
0.00169132
0.00167444
0.0016515
0.0016309
0.00162193
0.00161948
0.00162012
0.00162131
0.00162104
0.00162038
0.00161999
0.00162
0.0016204
0.00162108
0.00162136
0.00162018
0.0016195
0.00162182
0.00163032
0.00164941
0.001668
0.00167368
0.00165446
0.00159301
0.00145855
0.00119284
0.00070094
0.000700939
0.00119411
0.00146191
0.00159952
0.00166578
0.00169163
0.00169226
0.00167264
0.00163324
0.00157907
0.00153136
0.00152368
0.00152814
0.00153426
0.00153862
0.00153862
0.00153766
0.00153712
0.00153713
0.00153769
0.00153867
0.00153868
0.00153433
0.00152819
0.00152362
0.00153084
0.00157706
0.00162682
0.00165482
0.00164811
0.0015923
0.00145956
0.00119368
0.000701064
0.000700974
0.00119444
0.00146252
0.00160004
0.00166511
0.00168714
0.00167814
0.00163711
0.0015553
0.00143056
0.00131225
0.00134307
0.00138209
0.00140501
0.00141619
0.00141788
0.00141745
0.0014171
0.00141711
0.00141748
0.00141793
0.00141625
0.00140509
0.00138217
0.00134309
0.00131186
0.00142875
0.00154905
0.00161937
0.00163389
0.00158747
0.00145831
0.00119349
0.000701059
0.000700974
0.0011945
0.0014626
0.00159979
0.0016635
0.0016814
0.00166137
0.00159253
0.00144218
0.00115861
0.000831351
0.00104993
0.00119775
0.00125603
0.00127637
0.00128222
0.0012836
0.00128385
0.00128386
0.00128362
0.00128226
0.00127644
0.00125613
0.00119789
0.00105009
0.000831203
0.00115719
0.00143617
0.0015749
0.00161711
0.00158162
0.00145649
0.00119301
0.000701005
0.000700968
0.00119449
0.00146261
0.00159967
0.00166273
0.00167852
0.00165216
0.00156397
0.00134835
0.000846101
0.000779007
0.0010567
0.0011474
0.00117376
0.00118122
0.00118302
0.00118337
0.00118337
0.00118303
0.00118125
0.0011738
0.00114748
0.00105684
0.000779105
0.00084542
0.00134258
0.00154638
0.00160786
0.00157863
0.00145558
0.00119274
0.000700973
0.000700955
0.00119449
0.00146274
0.00160007
0.00166378
0.00168133
0.0016602
0.00158885
0.00143401
0.00114389
0.000818667
0.000999132
0.00113251
0.00118343
0.00119888
0.00120434
0.00120534
0.00120534
0.00120534
0.00120533
0.00120433
0.00119886
0.00118342
0.00113251
0.000999043
0.000818374
0.00114221
0.00142786
0.0015711
0.00161578
0.0015813
0.00145644
0.00119292
0.000700975
0.000700938
0.00119451
0.00146296
0.0016008
0.0016659
0.00168714
0.00167558
0.00162859
0.00153506
0.00139014
0.0012424
0.00122648
0.00122634
0.00122873
0.00122984
0.00123025
0.00122994
0.00122967
0.00122966
0.00122992
0.00123022
0.00122979
0.00122865
0.00122621
0.00122622
0.00124172
0.0013881
0.00152865
0.00161066
0.001631
0.00158692
0.00145834
0.00119339
0.000700992
0.000700917
0.00119453
0.00146318
0.00160156
0.00166804
0.00169275
0.00168933
0.00166005
0.00160131
0.0015135
0.00141511
0.00134168
0.00128545
0.00125987
0.00125073
0.00124765
0.00124649
0.00124607
0.00124606
0.00124647
0.00124761
0.00125066
0.00125977
0.00128529
0.00134141
0.00141436
0.00151132
0.00159473
0.00164193
0.00164455
0.00159231
0.00146023
0.00119387
0.000700998
0.000700893
0.00119454
0.00146335
0.00160213
0.0016696
0.00169666
0.00169833
0.00167885
0.00163631
0.00156904
0.00148274
0.00139226
0.00131456
0.00127623
0.00126173
0.00125683
0.00125518
0.00125464
0.00125463
0.00125514
0.00125677
0.00126165
0.00127612
0.00131439
0.00139195
0.00148198
0.0015668
0.00162962
0.00166059
0.00165338
0.00159603
0.00146158
0.00119421
0.000700984
0.000700866
0.00119454
0.00146346
0.00160249
0.00167053
0.00169889
0.00170319
0.00168833
0.00165249
0.00159228
0.00150878
0.00141262
0.00132676
0.00128333
0.00126652
0.0012608
0.0012589
0.00125826
0.00125824
0.00125885
0.00126074
0.00126644
0.00128321
0.00132659
0.00141227
0.00150802
0.00159
0.00164573
0.00166997
0.00165811
0.00159812
0.00146236
0.0011944
0.000700955
0.000700839
0.00119453
0.00146352
0.00160268
0.00167102
0.00169999
0.00170545
0.00169249
0.00165915
0.00160119
0.00151822
0.00142003
0.00133124
0.00128597
0.0012683
0.00126225
0.00126021
0.00125948
0.00125946
0.00126016
0.00126218
0.00126821
0.00128585
0.00133108
0.00141968
0.00151746
0.0015989
0.00165236
0.00167408
0.0016603
0.00159913
0.00146275
0.00119448
0.000700918
0.000700812
0.00119452
0.00146355
0.00160277
0.00167122
0.00170043
0.00170631
0.001694
0.00166145
0.00160412
0.0015212
0.00142235
0.00133265
0.0012868
0.00126885
0.00126268
0.00126057
0.00125977
0.00125974
0.00126051
0.00126261
0.00126875
0.00128667
0.00133248
0.001422
0.00152044
0.00160183
0.00165464
0.00167557
0.00166113
0.00159953
0.00146291
0.00119451
0.00070088
0.00070079
0.00119451
0.00146356
0.00160278
0.00167125
0.00170046
0.00170636
0.00169406
0.00166152
0.00160421
0.0015213
0.00142244
0.00133271
0.00128683
0.00126886
0.00126268
0.00126054
0.00125969
0.00125965
0.00126047
0.0012626
0.00126877
0.00128671
0.00133254
0.0014221
0.00152054
0.00160192
0.00165473
0.00167563
0.00166118
0.00159956
0.00146293
0.0011945
0.000700845
0.000700788
0.00119451
0.00146355
0.00160273
0.00167109
0.00170009
0.00170559
0.00169268
0.00165938
0.00160147
0.00151852
0.00142033
0.00133145
0.00128609
0.00126836
0.00126225
0.00126013
0.00125929
0.00125924
0.00126006
0.00126217
0.00126826
0.00128597
0.00133128
0.00142
0.00151779
0.0015992
0.00165261
0.00167428
0.00166045
0.00159924
0.00146281
0.00119448
0.000700842
0.00070081
0.00119452
0.00146351
0.00160257
0.00167066
0.00169907
0.00170343
0.00168865
0.0016529
0.00159278
0.00150935
0.0014132
0.00132715
0.00128358
0.00126665
0.00126082
0.0012588
0.00125802
0.00125798
0.00125873
0.00126074
0.00126656
0.00128346
0.001327
0.00141289
0.00150865
0.00159056
0.0016462
0.00167033
0.00165838
0.0015983
0.00146246
0.0011944
0.000700874
0.000700837
0.00119453
0.00146342
0.00160225
0.00166978
0.00169691
0.00169868
0.00167933
0.00163694
0.00156985
0.0014837
0.00139324
0.0013152
0.00127665
0.00126197
0.00125692
0.00125513
0.00125445
0.00125443
0.00125506
0.00125684
0.00126189
0.00127656
0.00131508
0.00139298
0.00148305
0.00156771
0.00163033
0.00166112
0.00165376
0.00159629
0.00146173
0.00119423
0.000700904
0.000700863
0.00119453
0.00146326
0.00160171
0.00166827
0.00169307
0.00168979
0.00166068
0.0016022
0.00151472
0.00141664
0.00134299
0.00128638
0.00126045
0.00125105
0.00124779
0.00124648
0.00124596
0.00124594
0.00124643
0.00124773
0.00125098
0.00126037
0.0012863
0.00134286
0.0014161
0.00151272
0.00159574
0.00164264
0.00164505
0.00159264
0.00146042
0.00119391
0.000700921
0.000700886
0.00119452
0.00146304
0.00160097
0.00166615
0.00168751
0.0016761
0.00162933
0.00153617
0.00139181
0.00124471
0.00122838
0.00122721
0.00122898
0.00122973
0.00122992
0.00122948
0.00122914
0.00122913
0.00122944
0.00122986
0.00122965
0.00122888
0.00122715
0.0012284
0.00124437
0.00139004
0.00152989
0.00161145
0.00163154
0.00158729
0.00145855
0.00119345
0.000700918
0.000700904
0.00119448
0.00146279
0.00160017
0.00166395
0.00168162
0.00166063
0.00158953
0.00143515
0.00114584
0.000819924
0.000999969
0.00113119
0.001181
0.00119575
0.00120087
0.00120173
0.00120167
0.00120166
0.00120167
0.00120075
0.00119548
0.00118056
0.00113071
0.000999972
0.000819713
0.00114446
0.00142893
0.00157165
0.00161615
0.00158158
0.00145662
0.00119296
0.000700904
0.000700911
0.0011944
0.00146247
0.00159948
0.00166253
0.00167834
0.00165202
0.00156383
0.00134826
0.000846048
0.000775022
0.00104643
0.00113338
0.00115726
0.00116377
0.00116526
0.0011655
0.00116545
0.00116507
0.00116328
0.00115613
0.00113113
0.00104313
0.000772982
0.000844662
0.00134138
0.00154547
0.00160741
0.00157846
0.00145553
0.0011927
0.000700897
0.000700887
0.00119409
0.00146176
0.00159857
0.00166202
0.00167977
0.0016596
0.00159045
0.00143951
0.00115526
0.000827811
0.00102916
0.00116326
0.001208
0.00121966
0.00122293
0.00122384
0.00122401
0.00122392
0.00122341
0.00122162
0.00121611
0.00120009
0.00114968
0.00101628
0.000822824
0.00114823
0.00142942
0.00157064
0.0016146
0.00158014
0.00145567
0.00119263
0.000700898
0.00070076
0.00119294
0.00145952
0.00159573
0.00165986
0.00168127
0.00167164
0.00162939
0.0015447
0.00141374
0.00128295
0.00128868
0.00129661
0.00128628
0.00127796
0.00127452
0.00127342
0.00127309
0.00127293
0.00127269
0.00127206
0.00127068
0.00126809
0.00126215
0.0012531
0.001256
0.00139449
0.0015287
0.00160721
0.00162625
0.00158247
0.0014552
0.001192
0.00070082
0.000700293
0.00118929
0.00145275
0.00158683
0.00165065
0.00167492
0.00167418
0.00165221
0.00160739
0.0015412
0.00146989
0.00142229
0.00137281
0.00132263
0.00129794
0.00128888
0.00128607
0.0012853
0.0012851
0.0012851
0.00128544
0.00128718
0.00129392
0.00131457
0.00136252
0.00142395
0.00151066
0.00158593
0.00162822
0.00162933
0.00157855
0.00145021
0.00118886
0.000700394
0.000698779
0.00117891
0.00143466
0.00156332
0.00162447
0.00164939
0.00165391
0.00164406
0.00162049
0.00158296
0.00153424
0.00147906
0.00141452
0.00135253
0.00132204
0.00131071
0.00130715
0.00130618
0.00130596
0.00130608
0.00130688
0.00131003
0.00132061
0.00135018
0.00141269
0.00148292
0.00154917
0.00159786
0.00162078
0.00161189
0.00155873
0.00143345
0.00117885
0.000698906
0.000694291
0.00115209
0.001391
0.00150847
0.00156332
0.00158615
0.00159257
0.00158912
0.00157712
0.00155551
0.00152303
0.00147951
0.00142718
0.00137785
0.00135134
0.00134072
0.00133721
0.00133626
0.00133606
0.00133621
0.00133709
0.00134048
0.00135082
0.00137714
0.00142703
0.00148147
0.00152785
0.00155854
0.00156978
0.00155664
0.00150634
0.00139066
0.00115225
0.000694429
0.000682136
0.00108834
0.00129389
0.00139117
0.00143493
0.00145284
0.00145863
0.00145811
0.00145269
0.00144151
0.00142296
0.00139621
0.00136356
0.00133303
0.00131538
0.00130775
0.00130508
0.00130431
0.00130416
0.0013043
0.00130504
0.00130765
0.00131521
0.00133285
0.0013636
0.00139689
0.00142411
0.00144084
0.00144492
0.0014321
0.00139055
0.00129404
0.00108861
0.00068227
0.000652861
0.00094544
0.00108846
0.00115235
0.00117932
0.00118978
0.00119327
0.00119363
0.00119187
0.00118758
0.00117975
0.00116777
0.00115275
0.00113849
0.00112981
0.00112584
0.00112438
0.00112393
0.00112384
0.00112394
0.00112439
0.00112584
0.00112979
0.00113847
0.00115279
0.00116796
0.0011799
0.00118668
0.00118725
0.00117871
0.00115249
0.00108877
0.000945695
0.000652975
0.000599975
0.000652902
0.00068226
0.00069451
0.000699096
0.000700716
0.000701284
0.000701466
0.000701413
0.00070107
0.000700338
0.00069902
0.000697192
0.000695323
0.000694142
0.00069356
0.000693294
0.000693157
0.000693105
0.000693165
0.000693302
0.000693562
0.000694134
0.000695303
0.000697162
0.000698989
0.000700293
0.000700916
0.000700789
0.000699333
0.000694766
0.000682471
0.000653042
0.000600052
0.000854706
0.0010625
0.00117878
0.00123177
0.00125382
0.00126222
0.00126515
0.00126607
0.00126631
0.00126633
0.00126628
0.00126622
0.00126617
0.00126614
0.00126612
0.00126609
0.00126608
0.00126607
0.00126607
0.00126607
0.00126609
0.00126611
0.00126613
0.00126616
0.00126619
0.00126617
0.00126596
0.00126508
0.00126219
0.00125381
0.00123178
0.00117879
0.00106252
0.000854728
0.00106251
0.00197219
0.00234616
0.00252356
0.00260419
0.00263808
0.00265103
0.00265539
0.00265649
0.00265643
0.00265602
0.00265557
0.00265523
0.002655
0.00265485
0.00265476
0.00265469
0.00265465
0.00265465
0.00265469
0.00265476
0.00265486
0.00265499
0.00265519
0.00265542
0.00265545
0.00265449
0.00265037
0.00263767
0.00260397
0.00252345
0.00234611
0.00197216
0.00106253
0.00117883
0.00234627
0.0028391
0.00308462
0.00320246
0.00325489
0.003276
0.00328329
0.00328486
0.00328425
0.00328298
0.00328181
0.00328099
0.00328054
0.00328032
0.00328017
0.00328007
0.00328002
0.00328002
0.00328008
0.00328019
0.00328033
0.00328054
0.00328093
0.0032815
0.00328186
0.0032806
0.00327402
0.00325366
0.00320184
0.00308437
0.00283904
0.0023463
0.00117888
0.00123187
0.00252376
0.00308472
0.00337359
0.00351711
0.0035831
0.00361013
0.00361882
0.00361925
0.00361623
0.00361237
0.00360916
0.00360709
0.00360605
0.00360559
0.00360529
0.00360505
0.00360492
0.00360492
0.00360506
0.00360531
0.00360561
0.00360605
0.00360699
0.0036087
0.00361073
0.00361103
0.00360429
0.00357945
0.0035152
0.00337278
0.00308449
0.00252377
0.00123195
0.00125394
0.00260444
0.00320263
0.0035172
0.00367672
0.003751
0.00378054
0.00378742
0.00378286
0.00377306
0.00376259
0.00375464
0.00374988
0.00374772
0.00374688
0.00374621
0.00374563
0.0037453
0.00374531
0.00374565
0.00374624
0.00374691
0.00374772
0.00374976
0.00375406
0.00376054
0.00376668
0.00376487
0.00374111
0.00367145
0.00351485
0.00320181
0.00260429
0.00125403
0.00126237
0.00263835
0.00325512
0.0035833
0.00375116
0.00382853
0.00385591
0.00385514
0.00383762
0.00381165
0.00378631
0.00376918
0.00376007
0.00375665
0.00375569
0.00375445
0.00375318
0.00375246
0.00375247
0.00375321
0.00375449
0.00375573
0.00375667
0.00375995
0.00376855
0.00378404
0.00380456
0.00381777
0.00380457
0.00373831
0.00357741
0.00325288
0.00263775
0.00126241
0.0012653
0.00265131
0.0032763
0.00361053
0.00378112
0.0038566
0.00387549
0.00385711
0.0038115
0.00375032
0.00369419
0.0036634
0.00365081
0.00364837
0.00364904
0.0036473
0.003645
0.00364369
0.0036437
0.00364503
0.00364734
0.00364909
0.0036484
0.00365071
0.00366279
0.00369187
0.00374295
0.00379073
0.0038043
0.0037534
0.00359777
0.00327128
0.00264976
0.00126521
0.00126622
0.00265569
0.00328375
0.0036197
0.00378914
0.00385797
0.0038603
0.00380914
0.00370864
0.00357393
0.00345467
0.00341584
0.00341326
0.00342137
0.00342872
0.00342761
0.00342453
0.00342275
0.00342276
0.00342456
0.00342766
0.00342878
0.00342143
0.00341322
0.00341533
0.0034525
0.00356661
0.00368756
0.00375531
0.00373609
0.00359555
0.00327414
0.00265255
0.00126588
0.00126647
0.00265687
0.00328569
0.00362122
0.00378716
0.00384566
0.00382348
0.00372068
0.00352255
0.00323229
0.002962
0.00297766
0.00304188
0.00308622
0.00310887
0.00311263
0.0031111
0.00310982
0.00310983
0.00311113
0.00311269
0.00310895
0.00308631
0.00304192
0.00297737
0.00296016
0.00322526
0.00350141
0.00366635
0.00369821
0.00358157
0.00326995
0.00265156
0.00126575
0.00126649
0.00265698
0.00328577
0.00362023
0.0037823
0.00383002
0.00378103
0.00361477
0.00326849
0.0026313
0.0016839
0.00227206
0.00257928
0.00270409
0.00274717
0.00276428
0.00276843
0.00276898
0.00276899
0.00276846
0.00276433
0.00274725
0.00270422
0.00257946
0.0022722
0.00168287
0.0026248
0.00324725
0.00355995
0.00365503
0.003565
0.00326401
0.00264953
0.00126539
0.00126647
0.00265685
0.00328559
0.00361953
0.00377967
0.00382183
0.00375796
0.00355089
0.0030757
0.00175083
0.00145385
0.00221025
0.00241056
0.00247327
0.00249084
0.00249482
0.00249547
0.00249548
0.00249484
0.00249087
0.00247333
0.00241068
0.00221047
0.001454
0.00174628
0.00305426
0.00349561
0.00363144
0.00355625
0.00326078
0.00264826
0.00126516
0.00126644
0.00265677
0.00328578
0.0036203
0.00378184
0.00382774
0.00377441
0.00359951
0.0032381
0.00257606
0.0016192
0.00211131
0.00239686
0.00251279
0.00255751
0.00256252
0.00256155
0.00256076
0.00256075
0.00256153
0.00256248
0.00255746
0.00251273
0.00239678
0.00211101
0.00161784
0.00256914
0.00321657
0.00354435
0.0036479
0.00356199
0.00326264
0.00264861
0.00126522
0.00126642
0.0026568
0.00328632
0.00362218
0.00378721
0.00384194
0.00381033
0.00368795
0.00345351
0.00310117
0.00273643
0.00263305
0.00259746
0.00259185
0.00259384
0.00259186
0.00258986
0.0025889
0.0025889
0.00258984
0.00259181
0.00259377
0.00259171
0.00259719
0.00263235
0.00273425
0.00309381
0.00343199
0.00363298
0.00368396
0.00357618
0.00326782
0.00265014
0.00126549
0.0012664
0.00265687
0.00328694
0.00362426
0.00379294
0.00385639
0.00384422
0.00376207
0.00360359
0.00337185
0.00311055
0.00289936
0.00273491
0.0026581
0.00263114
0.00262206
0.00261894
0.00261795
0.00261794
0.00261892
0.00262202
0.00263106
0.00265794
0.00273458
0.00289861
0.00310821
0.0033643
0.00358199
0.0037071
0.00371784
0.00359054
0.00327333
0.00265187
0.00126576
0.00126637
0.00265692
0.00328744
0.00362589
0.00379732
0.00386694
0.00386749
0.00380874
0.00368742
0.00350157
0.0032673
0.00302287
0.00280823
0.00269837
0.00265662
0.00264311
0.00263913
0.00263809
0.00263809
0.00263911
0.00264308
0.00265655
0.0026982
0.00280791
0.00302215
0.00326491
0.00349392
0.00366569
0.00375364
0.00374098
0.00360091
0.00327745
0.00265317
0.00126594
0.00126634
0.00265695
0.00328776
0.00362692
0.00380001
0.0038732
0.00388061
0.00383339
0.00372821
0.00355905
0.00333175
0.00307491
0.00284104
0.0027175
0.00266932
0.00265369
0.00264925
0.00264818
0.00264817
0.00264924
0.00265366
0.00266924
0.00271734
0.00284073
0.0030742
0.00332933
0.00355131
0.00370637
0.00377815
0.00375393
0.00360697
0.00327991
0.00265395
0.00126603
0.00126631
0.00265695
0.00328792
0.00362747
0.00380141
0.00387634
0.00388692
0.00384467
0.00374578
0.00358224
0.00335639
0.00309473
0.00285375
0.00272508
0.00267443
0.00265796
0.00265332
0.00265222
0.00265221
0.00265331
0.00265793
0.00267436
0.00272492
0.00285344
0.00309403
0.00335396
0.00357447
0.00372387
0.00378933
0.00376012
0.00360996
0.00328115
0.00265433
0.00126605
0.00126629
0.00265695
0.00328799
0.0036277
0.00380199
0.00387759
0.00388936
0.00384885
0.00375202
0.00359011
0.00336443
0.0031011
0.00285785
0.00272753
0.00267607
0.00265932
0.00265461
0.0026535
0.00265349
0.0026546
0.00265929
0.002676
0.00272737
0.00285754
0.00310039
0.00336199
0.00358232
0.00373008
0.00379346
0.00376249
0.00361114
0.00328164
0.00265447
0.00126603
0.00126627
0.00265695
0.003288
0.00362772
0.00380202
0.00387764
0.00388942
0.00384893
0.00375212
0.00359022
0.00336455
0.00310121
0.00285796
0.0027276
0.00267612
0.00265935
0.00265463
0.0026535
0.0026535
0.00265461
0.00265932
0.00267605
0.00272745
0.00285766
0.00310051
0.00336212
0.00358244
0.00373019
0.00379355
0.00376255
0.00361118
0.00328166
0.00265447
0.00126601
0.00126628
0.00265695
0.00328795
0.00362752
0.0038015
0.00387648
0.00388711
0.00384491
0.00374608
0.00358259
0.00335677
0.00309511
0.00285413
0.00272534
0.00267459
0.00265807
0.00265341
0.00265229
0.00265229
0.0026534
0.00265804
0.00267452
0.00272519
0.00285384
0.00309442
0.00335437
0.00357485
0.0037242
0.00378959
0.00376031
0.00361008
0.00328121
0.00265433
0.001266
0.00126629
0.00265694
0.0032878
0.00362701
0.00380017
0.00387343
0.00388093
0.00383381
0.00372875
0.00355971
0.00333249
0.00307566
0.00284179
0.00271805
0.00266971
0.00265401
0.00264954
0.00264845
0.00264844
0.00264953
0.00265399
0.00266966
0.00271793
0.00284153
0.00307502
0.00333013
0.00355204
0.00370697
0.00377861
0.00375426
0.00360718
0.00328001
0.00265396
0.00126596
0.00126632
0.00265691
0.00328749
0.00362602
0.00379753
0.00386726
0.00386795
0.00380937
0.00368827
0.00350268
0.00326861
0.00302419
0.00280954
0.00269936
0.0026574
0.0026438
0.0026398
0.00263876
0.00263876
0.00263981
0.00264381
0.00265739
0.00269929
0.00280935
0.00302362
0.00326636
0.00349515
0.00366664
0.00375432
0.00374144
0.0036012
0.00327759
0.00265319
0.00126587
0.00126634
0.00265684
0.003287
0.0036244
0.0037932
0.00385677
0.00384479
0.0037629
0.00360479
0.00337356
0.00311277
0.00290173
0.00273684
0.00265948
0.00263221
0.00262304
0.00261993
0.00261897
0.00261898
0.00261996
0.00262309
0.00263224
0.00265946
0.00273674
0.00290129
0.00311071
0.00336623
0.00358329
0.00370794
0.00371839
0.00359088
0.0032735
0.00265188
0.00126569
0.00126635
0.00265675
0.00328633
0.00362226
0.00378739
0.00384225
0.00381085
0.0036888
0.00345494
0.00310356
0.00273991
0.00263632
0.00259901
0.00259219
0.00259361
0.00259148
0.00258951
0.0025886
0.00258862
0.00258955
0.00259153
0.0025936
0.00259207
0.00259882
0.00263607
0.00273819
0.00309647
0.00343336
0.00363365
0.00368434
0.00357641
0.00326792
0.00265011
0.0012654
0.00126635
0.00265659
0.00328556
0.00362004
0.00378159
0.00382755
0.00377435
0.00359972
0.00323897
0.00257863
0.00162194
0.00211205
0.00239223
0.00250506
0.00254803
0.00255245
0.00255141
0.00255067
0.00255067
0.0025514
0.00255228
0.00254745
0.00250378
0.00239051
0.00211143
0.0016208
0.0025717
0.00321648
0.00354366
0.00364732
0.00356163
0.0032624
0.0026484
0.00126511
0.00126631
0.00265624
0.00328456
0.00361809
0.00377792
0.00381987
0.00375577
0.00354839
0.00307292
0.00174839
0.00143721
0.00217597
0.00236538
0.0024208
0.00243605
0.00243966
0.00244029
0.00244021
0.00243925
0.00243479
0.00241748
0.00235837
0.0021649
0.00142867
0.0017401
0.00304697
0.0034901
0.00362785
0.00355404
0.00325947
0.00264751
0.00126496
0.00126608
0.00265498
0.0032822
0.00361523
0.00377615
0.00382293
0.00377285
0.0036047
0.00325496
0.00261191
0.00165765
0.00219461
0.00246659
0.00255577
0.00257564
0.00258666
0.00259034
0.00259114
0.0025909
0.00258922
0.00258303
0.00256556
0.00253262
0.00242583
0.00214964
0.0016328
0.00258332
0.00321942
0.00354223
0.0036439
0.00355797
0.00325969
0.0026472
0.00126491
0.00126519
0.00265068
0.00327491
0.00360642
0.00376926
0.00382529
0.00380032
0.00369252
0.00348386
0.00317152
0.00285769
0.00280383
0.0027847
0.00274265
0.00271396
0.00270429
0.00270155
0.00270074
0.00270032
0.00269946
0.00269716
0.00269295
0.00269109
0.00268928
0.00270006
0.00277319
0.00311082
0.00343258
0.00362388
0.00367067
0.00356301
0.0032578
0.00264483
0.00126438
0.0012623
0.00263789
0.00325417
0.00358046
0.00374279
0.00380641
0.00380357
0.00374381
0.00362534
0.00345356
0.00326531
0.00311829
0.00297436
0.00283576
0.00276445
0.00273796
0.00272974
0.00272747
0.0027269
0.00272686
0.00272779
0.00273309
0.00275446
0.00281761
0.00295734
0.00313749
0.00336546
0.00356021
0.0036707
0.00367581
0.00355102
0.0032427
0.00263403
0.00126184
0.00125392
0.00260414
0.00320216
0.0035157
0.00367194
0.00373785
0.00374887
0.00371949
0.00365219
0.00354736
0.00341196
0.00325727
0.00308279
0.00291652
0.00282999
0.00279665
0.00278589
0.00278285
0.00278218
0.0027826
0.00278513
0.00279482
0.00282641
0.0029115
0.00308189
0.00327269
0.00345172
0.00358426
0.00364858
0.00362892
0.00349727
0.0031952
0.00260186
0.00125372
0.00123188
0.00252358
0.0030846
0.00337308
0.00351499
0.00357652
0.00359327
0.00358104
0.00354346
0.00347847
0.00338373
0.00326022
0.0031164
0.00298326
0.00290876
0.00287765
0.00286681
0.00286351
0.0028628
0.00286345
0.00286659
0.0028771
0.00290782
0.00298234
0.00311783
0.00326783
0.00339773
0.00348591
0.00352073
0.00348919
0.00336251
0.0030808
0.00252238
0.00123184
0.00117887
0.00234619
0.0028392
0.00308471
0.00320195
0.00325236
0.00326845
0.00326483
0.00324531
0.00320787
0.00314886
0.00306736
0.00297128
0.00288316
0.00283066
0.00280704
0.00279823
0.0027954
0.00279479
0.00279542
0.00279825
0.002807
0.00283057
0.00288325
0.00297237
0.00307046
0.00315282
0.00320553
0.00322113
0.00318823
0.00307943
0.00283743
0.00234563
0.00117891
0.00106257
0.00197218
0.00234637
0.00252392
0.00260446
0.00263768
0.00264867
0.00264839
0.00263983
0.00262179
0.00259156
0.00254805
0.00249585
0.0024476
0.0024177
0.00240359
0.00239808
0.00239623
0.00239583
0.00239629
0.0023982
0.00240374
0.00241789
0.00244792
0.00249653
0.00254931
0.0025925
0.00261868
0.00262359
0.00259869
0.0025219
0.00234577
0.00197197
0.00106263
0.000854762
0.00106257
0.00117895
0.00123207
0.0012542
0.00126262
0.00126535
0.00126559
0.00126417
0.00126077
0.0012546
0.00124513
0.00123323
0.00122194
0.00121499
0.00121175
0.00121049
0.00121005
0.00120995
0.00121007
0.00121052
0.00121178
0.00121502
0.00122197
0.00123331
0.0012453
0.0012547
0.00126002
0.00126045
0.00125354
0.00123198
0.00117901
0.00106263
0.000854839
0.00092877
0.00123613
0.00141242
0.00149654
0.0015336
0.00154862
0.00155417
0.00155599
0.00155646
0.00155646
0.00155631
0.00155615
0.00155601
0.00155592
0.00155586
0.00155582
0.00155579
0.00155578
0.00155578
0.00155579
0.00155582
0.00155586
0.00155591
0.00155599
0.00155608
0.00155607
0.00155567
0.00155393
0.00154848
0.00153352
0.0014965
0.0014124
0.00123613
0.000928792
0.00123613
0.00242675
0.00291769
0.00316006
0.00327551
0.00332651
0.00334699
0.00335418
0.00335603
0.00335585
0.00335502
0.00335411
0.00335339
0.0033529
0.00335258
0.00335237
0.00335223
0.00335216
0.00335216
0.00335223
0.00335237
0.00335258
0.00335287
0.00335329
0.00335378
0.00335391
0.00335233
0.00334559
0.00332557
0.00327494
0.00315972
0.00291749
0.00242663
0.00123613
0.00141246
0.00291783
0.00354835
0.00387286
0.00403515
0.00411059
0.00414231
0.00415363
0.00415604
0.00415483
0.00415245
0.00415015
0.00414845
0.00414743
0.00414687
0.00414651
0.00414626
0.00414614
0.00414614
0.00414627
0.00414651
0.00414686
0.00414739
0.00414829
0.00414954
0.00415042
0.00414861
0.00413852
0.00410813
0.00403377
0.00387217
0.00354806
0.00291772
0.00141248
0.00149664
0.0031603
0.00387298
0.00425036
0.00444503
0.00453816
0.00457777
0.00459082
0.00459126
0.00458616
0.00457948
0.0045736
0.00456951
0.00456723
0.00456608
0.00456534
0.00456481
0.00456454
0.00456454
0.00456482
0.00456535
0.00456608
0.00456718
0.00456927
0.00457271
0.00457657
0.00457751
0.00456764
0.00453159
0.00444136
0.0042486
0.00387228
0.00316009
0.00149667
0.00153375
0.00327583
0.00403539
0.00444516
0.00466039
0.00476433
0.00480703
0.00481711
0.00480997
0.00479458
0.00477754
0.00476361
0.00475449
0.00474979
0.00474764
0.00474611
0.00474494
0.00474432
0.00474432
0.00474496
0.00474613
0.00474765
0.00474974
0.0047542
0.00476251
0.00477396
0.00478407
0.0047818
0.00474794
0.0046512
0.0044407
0.00403355
0.00327524
0.00153374
0.00154879
0.00332688
0.00411093
0.00453849
0.00476462
0.00487241
0.00491164
0.00491052
0.00488479
0.00484609
0.00480673
0.00477711
0.00475914
0.00475096
0.0047478
0.00474494
0.00474251
0.00474121
0.00474122
0.00474253
0.00474497
0.00474782
0.00475092
0.00475883
0.0047759
0.00480275
0.0048344
0.00485367
0.00483499
0.0047437
0.00452827
0.00410661
0.00332539
0.00154864
0.00155436
0.00334741
0.00414282
0.00457851
0.00480813
0.0049129
0.00493992
0.00491425
0.00485
0.00476301
0.0046792
0.00462394
0.00459457
0.00458411
0.00458179
0.00457713
0.00457262
0.00457025
0.00457026
0.00457264
0.00457717
0.00458183
0.00458409
0.00459429
0.00462275
0.0046751
0.00475076
0.00481727
0.00483511
0.00476518
0.00455759
0.00413385
0.00334417
0.00155387
0.0015562
0.00335471
0.00415451
0.00459252
0.00482028
0.00491552
0.0049197
0.00485009
0.00471387
0.004531
0.00436027
0.00427682
0.00424566
0.00424225
0.00424688
0.004241
0.00423424
0.00423081
0.00423082
0.00423426
0.00424104
0.00424693
0.00424226
0.00424546
0.00427576
0.00435632
0.00451864
0.00468034
0.00476898
0.00474134
0.00455454
0.00413819
0.00334865
0.00155513
0.00155669
0.00335677
0.00415769
0.00459498
0.00481768
0.00489858
0.00487003
0.00473378
0.00447486
0.0040985
0.00373004
0.00367745
0.00370758
0.00374054
0.00376043
0.00376097
0.00375617
0.00375336
0.00375336
0.00375619
0.00376101
0.00376049
0.00374058
0.0037075
0.00367672
0.00372654
0.00408629
0.0044408
0.00465135
0.00468951
0.0045346
0.00413188
0.00334704
0.00155483
0.00155675
0.00335701
0.00415785
0.00459353
0.00481068
0.00487694
0.00481356
0.00459812
0.00415928
0.00335869
0.0020993
0.00272663
0.00305573
0.00317891
0.00319896
0.00323904
0.00324844
0.0032494
0.00324941
0.00324847
0.00323909
0.00319903
0.00317902
0.00305587
0.00272659
0.00209714
0.00334685
0.00412447
0.00451438
0.00463142
0.00451112
0.00412293
0.00334373
0.00155408
0.0015567
0.00335682
0.00415754
0.00459237
0.00480667
0.00486524
0.00478253
0.00451704
0.0039223
0.00222907
0.00163194
0.00241514
0.00262002
0.00268718