/*--------------------------------*- C++ -*----------------------------------*\
| =========                 |                                                 |
| \\      /  F ield         | OpenFOAM: The Open Source CFD Toolbox           |
|  \\    /   O peration     | Version:  2112                                  |
|   \\  /    A nd           | Website:  www.openfoam.com                      |
|    \\/     M anipulation  |                                                 |
\*---------------------------------------------------------------------------*/
FoamFile
{
    version     2.0;
    format      ascii;
    arch        "LSB;label=32;scalar=64";
    class       volScalarField;
    location    "2.5";
    object      nut;
}
// * * * * * * * * * * * * * * * * * * * * * * * * * * * * * * * * * * * * * //

dimensions      [0 2 -1 0 0 0 0];

internalField   nonuniform List<scalar> 
64906
(
6.0251e-05
6.29758e-05
6.44627e-05
6.50867e-05
6.53233e-05
6.5406e-05
6.54331e-05
6.54415e-05
6.5444e-05
6.54449e-05
6.54452e-05
6.54452e-05
6.54451e-05
6.54449e-05
6.54445e-05
6.5444e-05
6.54433e-05
6.54427e-05
6.54423e-05
6.54427e-05
6.54433e-05
6.54438e-05
6.54442e-05
6.54444e-05
6.54444e-05
6.54438e-05
6.54415e-05
6.54333e-05
6.54066e-05
6.5324e-05
6.50878e-05
6.4464e-05
6.29771e-05
6.02521e-05
6.2977e-05
7.60567e-05
8.17794e-05
8.42677e-05
8.53258e-05
8.57479e-05
8.5903e-05
8.59546e-05
8.59692e-05
8.59712e-05
8.59697e-05
8.59677e-05
8.59667e-05
8.59665e-05
8.59667e-05
8.59669e-05
8.5967e-05
8.5967e-05
8.5967e-05
8.5967e-05
8.5967e-05
8.59668e-05
8.59666e-05
8.59665e-05
8.59665e-05
8.59641e-05
8.59507e-05
8.59013e-05
8.57484e-05
8.53279e-05
8.42707e-05
8.17827e-05
7.60599e-05
6.29795e-05
6.4466e-05
8.17814e-05
8.93681e-05
9.28151e-05
9.43696e-05
9.5031e-05
9.52891e-05
9.53775e-05
9.53992e-05
9.53963e-05
9.53869e-05
9.53788e-05
9.53746e-05
9.53739e-05
9.53748e-05
9.53758e-05
9.53764e-05
9.53766e-05
9.53767e-05
9.53766e-05
9.53762e-05
9.53754e-05
9.53744e-05
9.53746e-05
9.53764e-05
9.53756e-05
9.53566e-05
9.52752e-05
9.50247e-05
9.43692e-05
9.28183e-05
8.9373e-05
8.17867e-05
6.44701e-05
6.50916e-05
8.42716e-05
9.28172e-05
9.68258e-05
9.87017e-05
9.953e-05
9.98603e-05
9.99667e-05
9.99763e-05
9.9947e-05
9.99093e-05
9.98803e-05
9.98642e-05
9.9859e-05
9.98591e-05
9.98595e-05
9.98592e-05
9.98589e-05
9.9859e-05
9.98596e-05
9.98601e-05
9.98599e-05
9.98597e-05
9.9864e-05
9.98764e-05
9.98924e-05
9.98898e-05
9.98047e-05
9.94983e-05
9.86888e-05
9.68244e-05
9.28215e-05
8.4278e-05
6.5097e-05
6.5329e-05
8.53308e-05
9.43731e-05
9.87033e-05
0.000100775
0.000101703
0.000102065
0.000102151
0.000102102
0.000101993
0.000101878
0.000101797
0.000101754
0.000101739
0.000101737
0.000101735
0.000101731
0.000101729
0.000101729
0.000101732
0.000101736
0.000101738
0.00010174
0.000101753
0.000101792
0.000101857
0.000101923
0.000101896
0.000101601
0.000100725
9.86862e-05
9.43724e-05
8.53367e-05
6.53354e-05
6.54122e-05
8.57534e-05
9.50353e-05
9.95328e-05
0.000101705
0.000102672
0.000103008
0.000103003
0.000102796
0.000102487
0.00010219
0.000102006
0.000101917
0.000101894
0.000101896
0.000101888
0.000101877
0.00010187
0.00010187
0.000101877
0.000101889
0.000101897
0.000101895
0.000101917
0.000102
0.000102167
0.00010241
0.000102569
0.000102404
0.000101569
9.94772e-05
9.50206e-05
8.57557e-05
6.54191e-05
6.54393e-05
8.59085e-05
9.52939e-05
9.98649e-05
0.000102071
0.000103015
0.000103249
0.000103025
0.000102462
0.000101695
0.000100997
0.000100665
0.000100553
0.000100557
0.000100589
0.000100576
0.000100552
0.000100538
0.000100539
0.000100553
0.000100577
0.00010059
0.000100559
0.000100554
0.00010066
0.000100973
0.000101615
0.000102225
0.000102402
0.000101759
9.97309e-05
9.52492e-05
8.59021e-05
6.5446e-05
6.54474e-05
8.59599e-05
9.53833e-05
9.99756e-05
0.000102168
0.000103032
0.00010306
0.000102415
0.000101119
9.93293e-05
9.77211e-05
9.73911e-05
9.74805e-05
9.76564e-05
9.77922e-05
9.77875e-05
9.77526e-05
9.77329e-05
9.77332e-05
9.77535e-05
9.7789e-05
9.77942e-05
9.76585e-05
9.74818e-05
9.73877e-05
9.76991e-05
9.92497e-05
0.000100879
0.000101781
0.000101546
9.9707e-05
9.5287e-05
8.59374e-05
6.54529e-05
6.54493e-05
8.59744e-05
9.54076e-05
9.99956e-05
0.000102146
0.000102883
0.000102596
0.000101258
9.85734e-05
9.43928e-05
9.0266e-05
9.12066e-05
9.24643e-05
9.32169e-05
9.35929e-05
9.36465e-05
9.3629e-05
9.36157e-05
9.3616e-05
9.363e-05
9.36482e-05
9.35952e-05
9.32198e-05
9.24671e-05
9.12064e-05
9.02482e-05
9.43175e-05
9.83338e-05
0.000100618
0.00010107
9.95388e-05
9.52403e-05
8.59292e-05
6.54525e-05
6.54493e-05
8.5977e-05
9.54105e-05
9.99867e-05
0.000102091
0.000102692
0.000102049
9.98108e-05
9.48221e-05
8.4767e-05
7.15422e-05
8.03668e-05
8.58398e-05
8.79205e-05
8.86471e-05
8.88556e-05
8.89048e-05
8.89138e-05
8.89142e-05
8.89058e-05
8.88572e-05
8.86496e-05
8.79242e-05
8.58449e-05
8.0373e-05
7.15339e-05
8.47013e-05
9.45826e-05
9.91656e-05
0.000100514
9.93363e-05
9.51724e-05
8.5909e-05
6.54492e-05
6.54488e-05
8.59769e-05
9.54109e-05
9.99821e-05
0.000102064
0.000102595
0.000101749
9.88815e-05
9.1628e-05
7.22403e-05
6.90412e-05
8.04464e-05
8.38591e-05
8.48362e-05
8.51191e-05
8.51894e-05
8.52034e-05
8.52036e-05
8.51899e-05
8.51201e-05
8.48379e-05
8.38622e-05
8.0452e-05
6.90458e-05
7.22032e-05
9.13899e-05
9.82313e-05
0.000100207
9.92329e-05
9.51384e-05
8.58974e-05
6.54472e-05
6.54482e-05
8.5977e-05
9.54156e-05
9.99956e-05
0.000102099
0.000102685
0.000102
9.9668e-05
9.45032e-05
8.4145e-05
7.09112e-05
7.81759e-05
8.32121e-05
8.50672e-05
8.56207e-05
8.58334e-05
8.58764e-05
8.58784e-05
8.58783e-05
8.58761e-05
8.5833e-05
8.56201e-05
8.50668e-05
8.32118e-05
7.81719e-05
7.08961e-05
8.40687e-05
9.42577e-05
9.90175e-05
0.000100458
9.93203e-05
9.51685e-05
8.59045e-05
6.54473e-05
6.54473e-05
8.59779e-05
9.5424e-05
0.000100022
0.00010217
0.000102875
0.000102492
0.000100936
9.78189e-05
9.28593e-05
8.75391e-05
8.6745e-05
8.66043e-05
8.66369e-05
8.66585e-05
8.66747e-05
8.66656e-05
8.66563e-05
8.66561e-05
8.66649e-05
8.66735e-05
8.66566e-05
8.66339e-05
8.65993e-05
8.67343e-05
8.751e-05
9.27751e-05
9.75723e-05
0.000100288
0.000100953
9.95108e-05
9.52379e-05
8.59246e-05
6.54484e-05
6.54463e-05
8.5979e-05
9.54328e-05
0.000100049
0.000102244
0.000103062
0.00010294
0.000101947
9.99625e-05
9.69654e-05
9.35153e-05
9.08166e-05
8.87108e-05
8.77335e-05
8.73794e-05
8.72615e-05
8.72178e-05
8.7202e-05
8.72017e-05
8.72169e-05
8.72598e-05
8.73768e-05
8.77296e-05
8.87046e-05
9.08056e-05
9.34852e-05
9.6879e-05
9.9715e-05
0.000101299
0.000101401
9.9697e-05
9.53086e-05
8.59455e-05
6.5449e-05
6.54451e-05
8.59796e-05
9.54396e-05
0.00010007
0.0001023
0.000103195
0.000103238
0.00010256
0.000101098
9.87869e-05
9.57874e-05
9.25726e-05
8.97505e-05
8.83204e-05
8.77695e-05
8.7582e-05
8.75191e-05
8.74985e-05
8.7498e-05
8.75178e-05
8.758e-05
8.77666e-05
8.83161e-05
8.97441e-05
9.25611e-05
9.57573e-05
9.86996e-05
0.000100849
0.000101911
0.000101698
9.98282e-05
9.53601e-05
8.59606e-05
6.54486e-05
6.54438e-05
8.59797e-05
9.5444e-05
0.000100084
0.000102333
0.000103273
0.000103403
0.000102876
0.000101631
9.9556e-05
9.66669e-05
9.32851e-05
9.01929e-05
8.85808e-05
8.79445e-05
8.77257e-05
8.76526e-05
8.76281e-05
8.76274e-05
8.76509e-05
8.77234e-05
8.79414e-05
8.85763e-05
9.01864e-05
9.32715e-05
9.66367e-05
9.94679e-05
0.000101381
0.000102225
0.000101861
9.99038e-05
9.53906e-05
8.59691e-05
6.54473e-05
6.54424e-05
8.59795e-05
9.54465e-05
0.000100091
0.000102351
0.000103313
0.000103482
0.000103017
0.000101855
9.98569e-05
9.69917e-05
9.35493e-05
9.03588e-05
8.868e-05
8.80112e-05
8.77796e-05
8.77013e-05
8.76734e-05
8.76725e-05
8.76993e-05
8.77771e-05
8.80079e-05
8.86755e-05
9.03523e-05
9.35358e-05
9.69614e-05
9.97685e-05
0.000101605
0.000102366
0.000101938
9.99409e-05
9.54059e-05
8.5973e-05
6.54456e-05
6.54411e-05
8.59791e-05
9.54476e-05
0.000100094
0.000102359
0.000103328
0.000103512
0.00010307
0.000101935
9.99579e-05
9.70963e-05
9.36337e-05
9.04117e-05
8.87117e-05
8.80321e-05
8.77959e-05
8.77149e-05
8.76843e-05
8.76831e-05
8.77126e-05
8.77931e-05
8.80287e-05
8.87071e-05
9.04051e-05
9.36202e-05
9.70661e-05
9.98694e-05
0.000101683
0.000102418
0.000101968
9.99559e-05
9.54122e-05
8.59743e-05
6.54437e-05
6.544e-05
8.59789e-05
9.54479e-05
0.000100095
0.00010236
0.00010333
0.000103514
0.000103072
0.000101937
9.99609e-05
9.70997e-05
9.36371e-05
9.04141e-05
8.87132e-05
8.80327e-05
8.77957e-05
8.77137e-05
8.76815e-05
8.768e-05
8.77111e-05
8.77927e-05
8.80292e-05
8.87085e-05
9.04076e-05
9.36238e-05
9.70697e-05
9.98726e-05
0.000101686
0.00010242
0.00010197
9.9957e-05
9.54129e-05
8.59742e-05
6.54419e-05
6.54399e-05
8.59789e-05
9.54473e-05
0.000100093
0.000102354
0.000103316
0.000103487
0.000103024
0.000101863
9.98663e-05
9.70023e-05
9.35602e-05
9.03665e-05
8.86849e-05
8.80134e-05
8.77794e-05
8.76981e-05
8.76661e-05
8.76645e-05
8.76954e-05
8.77764e-05
8.80098e-05
8.86802e-05
9.03601e-05
9.35473e-05
9.69729e-05
9.97787e-05
0.000101613
0.000102372
0.000101943
9.99445e-05
9.5408e-05
8.59729e-05
6.54417e-05
6.5441e-05
8.59792e-05
9.54455e-05
0.000100087
0.000102338
0.000103279
0.000103411
0.000102886
0.000101645
9.9573e-05
9.66868e-05
9.3306e-05
9.02075e-05
8.85903e-05
8.79494e-05
8.77266e-05
8.76489e-05
8.76191e-05
8.76178e-05
8.76463e-05
8.77235e-05
8.79459e-05
8.85859e-05
9.02016e-05
9.3294e-05
9.66584e-05
9.94868e-05
0.000101396
0.000102237
0.00010187
9.99099e-05
9.53941e-05
8.59693e-05
6.54431e-05
6.54423e-05
8.59793e-05
9.54418e-05
0.000100074
0.000102306
0.000103204
0.00010325
0.000102576
0.000101119
9.88143e-05
9.5821e-05
9.26078e-05
8.97748e-05
8.83364e-05
8.77787e-05
8.75855e-05
8.7517e-05
8.74915e-05
8.74904e-05
8.75146e-05
8.75826e-05
8.77755e-05
8.83326e-05
8.97699e-05
9.25977e-05
9.57945e-05
9.87303e-05
0.000100873
0.000101929
0.000101711
9.98369e-05
9.53653e-05
8.59614e-05
6.54445e-05
6.54435e-05
8.59789e-05
9.54355e-05
0.000100054
0.000102252
0.000103072
0.000102954
0.000101968
9.99921e-05
9.70074e-05
9.35699e-05
9.08646e-05
8.87458e-05
8.77549e-05
8.73909e-05
8.72658e-05
8.72165e-05
8.7197e-05
8.71962e-05
8.72147e-05
8.72634e-05
8.73882e-05
8.77519e-05
8.87426e-05
9.0859e-05
9.3547e-05
9.6927e-05
9.97485e-05
0.000101322
0.000101417
9.9708e-05
9.53152e-05
8.59471e-05
6.54451e-05
6.54446e-05
8.5978e-05
9.54268e-05
0.000100027
0.000102178
0.000102886
0.000102509
0.00010096
9.78567e-05
9.29192e-05
8.76268e-05
8.68182e-05
8.66368e-05
8.66444e-05
8.66516e-05
8.66588e-05
8.66445e-05
8.66326e-05
8.66321e-05
8.6643e-05
8.66565e-05
8.66483e-05
8.66403e-05
8.66338e-05
8.68179e-05
8.76104e-05
9.28445e-05
9.7614e-05
0.000100313
0.00010097
9.95226e-05
9.52452e-05
8.59267e-05
6.54446e-05
6.54455e-05
8.59763e-05
9.54166e-05
9.99981e-05
0.000102103
0.000102692
0.000102012
9.96891e-05
9.4542e-05
8.42215e-05
7.09702e-05
7.82098e-05
8.31537e-05
8.49639e-05
8.5489e-05
8.5688e-05
8.57255e-05
8.5725e-05
8.57244e-05
8.57232e-05
8.56829e-05
8.54781e-05
8.49454e-05
8.31329e-05
7.82089e-05
7.09587e-05
8.41566e-05
9.42924e-05
9.90328e-05
0.000100468
9.93279e-05
9.51738e-05
8.59059e-05
6.54435e-05
6.54458e-05
8.59723e-05
9.54038e-05
9.99725e-05
0.000102053
0.000102585
0.000101739
9.88707e-05
9.16187e-05
7.22349e-05
6.8837e-05
7.99985e-05
8.3274e-05
8.41564e-05
8.44026e-05
8.44613e-05
8.44711e-05
8.44691e-05
8.44536e-05
8.43827e-05
8.41096e-05
8.3181e-05
7.98564e-05
6.87336e-05
7.21619e-05
9.13343e-05
9.81902e-05
0.000100185
9.9222e-05
9.51336e-05
8.58945e-05
6.54431e-05
6.54443e-05
8.5958e-05
9.53757e-05
9.99379e-05
0.000102032
0.000102626
0.000101977
9.97239e-05
9.47072e-05
8.46105e-05
7.13535e-05
7.9451e-05
8.4434e-05
8.60232e-05
8.64285e-05
8.65433e-05
8.65759e-05
8.65825e-05
8.65787e-05
8.6559e-05
8.64914e-05
8.62887e-05
8.57129e-05
8.3891e-05
7.88945e-05
7.11054e-05
8.43052e-05
9.43086e-05
9.89959e-05
0.000100412
9.92749e-05
9.51364e-05
8.58906e-05
6.5443e-05
6.54369e-05
8.59085e-05
9.5289e-05
9.9833e-05
0.000101952
0.000102665
0.000102353
0.000100964
9.81647e-05
9.37316e-05
8.90933e-05
8.91006e-05
8.92393e-05
8.87938e-05
8.84627e-05
8.83282e-05
8.82851e-05
8.82719e-05
8.82659e-05
8.82566e-05
8.82339e-05
8.81866e-05
8.81098e-05
8.79475e-05
8.77466e-05
8.80482e-05
9.30019e-05
9.75675e-05
0.000100162
0.000100781
9.93462e-05
9.51155e-05
8.58631e-05
6.54385e-05
6.54108e-05
8.57561e-05
9.50364e-05
9.95168e-05
0.00010163
0.00010244
0.000102415
0.000101679
0.000100177
9.79411e-05
9.54687e-05
9.37164e-05
9.18948e-05
9.00591e-05
8.91411e-05
8.87999e-05
8.8693e-05
8.86631e-05
8.86555e-05
8.86555e-05
8.8669e-05
8.87369e-05
8.89972e-05
8.9782e-05
9.15667e-05
9.38212e-05
9.68481e-05
9.94028e-05
0.00010082
0.000100866
9.9203e-05
9.49299e-05
8.57328e-05
6.54148e-05
6.53285e-05
8.5336e-05
9.43802e-05
9.87035e-05
0.000100743
0.000101582
0.000101732
0.000101389
0.000100575
9.928e-05
9.75832e-05
9.56331e-05
9.33435e-05
9.11214e-05
9.00041e-05
8.95816e-05
8.94471e-05
8.94097e-05
8.94015e-05
8.94061e-05
8.94368e-05
8.95566e-05
8.99528e-05
9.10423e-05
9.32932e-05
9.57838e-05
9.80893e-05
9.97647e-05
0.000100555
0.000100275
9.85215e-05
9.43256e-05
8.53294e-05
6.53342e-05
6.50921e-05
8.42788e-05
9.2829e-05
9.6838e-05
9.87018e-05
9.94869e-05
9.97077e-05
9.95788e-05
9.91443e-05
9.83696e-05
9.72118e-05
9.56638e-05
9.38029e-05
9.20345e-05
9.1067e-05
9.06729e-05
9.05402e-05
9.05035e-05
9.0496e-05
9.05017e-05
9.05361e-05
9.06643e-05
9.10487e-05
9.20115e-05
9.38029e-05
9.5739e-05
9.73788e-05
9.84652e-05
9.88726e-05
9.84397e-05
9.67469e-05
9.28094e-05
8.42828e-05
6.50987e-05
6.44679e-05
8.17901e-05
8.93831e-05
9.28347e-05
9.43885e-05
9.50351e-05
9.52459e-05
9.52207e-05
9.50088e-05
9.45808e-05
9.38814e-05
9.28843e-05
9.16749e-05
9.05421e-05
8.98785e-05
8.95874e-05
8.94843e-05
8.94538e-05
8.94475e-05
8.94532e-05
8.94827e-05
8.9584e-05
8.98726e-05
9.05362e-05
9.16784e-05
9.29116e-05
9.39232e-05
9.4551e-05
9.4715e-05
9.42667e-05
9.28028e-05
8.93848e-05
8.17996e-05
6.44745e-05
6.29801e-05
7.60655e-05
8.17946e-05
8.42889e-05
8.53515e-05
8.57732e-05
8.59159e-05
8.59278e-05
8.58482e-05
8.5661e-05
8.53274e-05
8.4826e-05
8.4205e-05
8.36181e-05
8.32579e-05
8.30913e-05
8.30292e-05
8.30097e-05
8.30057e-05
8.301e-05
8.30295e-05
8.30913e-05
8.32572e-05
8.36177e-05
8.42074e-05
8.48345e-05
8.53334e-05
8.56213e-05
8.56535e-05
8.53176e-05
8.42901e-05
8.1806e-05
7.60762e-05
6.29859e-05
6.02539e-05
6.29823e-05
6.44744e-05
6.51035e-05
6.53449e-05
6.54325e-05
6.54635e-05
6.54727e-05
6.54681e-05
6.54466e-05
6.54035e-05
6.53287e-05
6.52272e-05
6.51248e-05
6.50601e-05
6.5028e-05
6.50135e-05
6.50062e-05
6.50035e-05
6.50066e-05
6.50139e-05
6.50282e-05
6.50597e-05
6.51239e-05
6.52258e-05
6.53273e-05
6.54013e-05
6.54383e-05
6.54331e-05
6.53557e-05
6.51162e-05
6.44852e-05
6.29896e-05
6.02581e-05
9.30681e-05
0.000104102
0.000109884
0.000112483
0.000113579
0.000114009
0.000114163
0.000114213
0.000114226
0.000114227
0.000114224
0.000114221
0.000114218
0.000114216
0.000114215
0.000114214
0.000114213
0.000114212
0.000114212
0.000114213
0.000114213
0.000114214
0.000114216
0.000114217
0.000114219
0.000114218
0.000114206
0.000114159
0.000114006
0.000113578
0.000112483
0.000109885
0.000104103
9.30693e-05
0.000104102
0.000298943
0.000365436
0.000394398
0.000407606
0.000413363
0.000415659
0.00041646
0.000416661
0.000416638
0.000416544
0.000416441
0.00041636
0.000416304
0.000416269
0.000416244
0.000416227
0.000416218
0.000416218
0.000416227
0.000416244
0.000416269
0.000416303
0.000416352
0.000416408
0.000416426
0.000416255
0.000415505
0.00041326
0.000407543
0.000394359
0.00036541
0.000298929
0.000104103
0.000109887
0.000365458
0.000458855
0.000501362
0.000521647
0.000530947
0.000534846
0.000536236
0.000536535
0.000536393
0.000536113
0.000535846
0.000535652
0.000535538
0.000535478
0.000535439
0.000535412
0.000535398
0.000535398
0.000535413
0.000535441
0.000535479
0.000535536
0.000535635
0.000535776
0.000535874
0.000535645
0.000534401
0.000530663
0.000521489
0.000501285
0.000458821
0.000365448
0.000109889
0.000112488
0.000394434
0.000501378
0.000551614
0.000576351
0.000588034
0.000592996
0.000594633
0.000594695
0.000594068
0.00059325
0.000592536
0.000592047
0.000591783
0.000591656
0.00059157
0.000591507
0.000591474
0.000591474
0.000591509
0.000591573
0.000591658
0.00059178
0.000592022
0.000592432
0.000592897
0.000593002
0.000591757
0.000587237
0.000575911
0.000551406
0.000501296
0.000394413
0.000112491
0.000113585
0.000407649
0.000521675
0.000576365
0.000603815
0.000616913
0.00062229
0.00062356
0.00062266
0.000620724
0.000618586
0.00061686
0.000615735
0.000615174
0.000614931
0.000614742
0.00061459
0.000614509
0.00061451
0.000614593
0.000614746
0.000614935
0.000615171
0.000615703
0.000616729
0.000618148
0.000619418
0.000619133
0.000614872
0.000602682
0.000575823
0.000521456
0.000407587
0.000113589
0.000114016
0.00041341
0.000530986
0.000588068
0.000616944
0.000630548
0.000635489
0.000635329
0.000632043
0.000627099
0.000622084
0.000618416
0.000616189
0.000615216
0.00061488
0.000614501
0.000614167
0.000613991
0.000613992
0.000614171
0.000614506
0.000614885
0.000615214
0.000616155
0.000618274
0.000621599
0.000625648
0.000628144
0.000625828
0.000614324
0.000586803
0.000530464
0.000413247
0.000114016
0.000114171
0.000415709
0.000534901
0.000593076
0.000622416
0.000635639
0.000639015
0.000635688
0.000627376
0.000616017
0.000605069
0.0005986
0.000595143
0.000594015
0.000593907
0.00059323
0.000592584
0.000592258
0.000592259
0.000592587
0.000593236
0.000593913
0.000594015
0.000595113
0.000598461
0.000604575
0.000614505
0.000623284
0.000625737
0.000616987
0.00059046
0.000533808
0.000415351
0.000114163
0.000114221
0.000416517
0.00053633
0.000594826
0.000623936
0.000635936
0.000636354
0.000627245
0.000609153
0.000584039
0.000560007
0.000553073
0.000550758
0.000551059
0.000552206
0.00055117
0.000550146
0.000549671
0.000549672
0.000550149
0.000551176
0.000552214
0.000551062
0.000550737
0.000552957
0.000559549
0.000582541
0.000604989
0.000617069
0.000613882
0.000590044
0.000534325
0.000415841
0.000114199
0.000114234
0.000416738
0.000536715
0.000595129
0.000623591
0.00063373
0.000629822
0.000611535
0.000575198
0.000517584
0.000453476
0.00047023
0.000481929
0.000488494
0.000492737
0.000491681
0.000490615
0.000490174
0.000490175
0.000490618
0.000491686
0.000492745
0.000488501
0.000481925
0.000470165
0.000453125
0.000516177
0.000571027
0.000601232
0.000607103
0.000587477
0.000533523
0.000415642
0.000114192
0.000114236
0.000416756
0.000536732
0.000594944
0.000622689
0.000630897
0.000622176
0.000591894
0.000523955
0.000378677
0.000132062
0.00032266
0.000395177
0.000417364
0.000425618
0.000426054
0.000425834
0.000425723
0.000425724
0.000425837
0.000426058
0.000425627
0.000417377
0.000395202
0.000322703
0.000132011
0.000377553
0.000519822
0.00058149
0.000599284
0.000584432
0.000532395
0.000415249
0.000114173
0.000114235
0.000416727
0.000536695
0.000594802
0.000622179
0.000629346
0.00061772
0.000578181
0.000471834
0.000134846
0.000122088
0.000321549
0.000361982
0.000370952
0.000374366
0.000375368
0.000375573
0.000375574
0.00037537
0.00037437
0.000370959
0.000361998
0.000321589
0.000122095
0.000134631
0.000467846
0.000567714
0.000594728
0.000582769
0.000531766
0.000414997
0.00011416
0.000114233
0.000416709
0.000536729
0.000594935
0.000622541
0.000630331
0.000620678
0.000588648
0.000517926
0.000369366
0.000129189
0.000292943
0.000351966
0.000366827
0.000366269
0.000373236
0.000375539
0.000375952
0.000375951
0.000375537
0.000373234
0.000366261
0.000366817
0.000351955
0.000292921
0.000129123
0.000368174
0.000513751
0.000578195
0.000597709
0.000583749
0.000532086
0.000415045
0.000114164
0.000114233
0.000416712
0.000536834
0.000595284
0.000623494
0.000632775
0.000626847
0.000604532
0.000561033
0.000491912
0.000411903
0.000402299
0.000389824
0.000385202
0.000382634
0.000384111
0.000384735
0.000384834
0.000384833
0.000384731
0.000384104
0.00038262
0.000385176
0.000389774
0.000402179
0.000411515
0.000490471
0.000556815
0.000594132
0.000603946
0.000586234
0.00053303
0.00041532
0.000114178
0.000114232
0.000416725
0.000536958
0.000595679
0.000624537
0.000635302
0.00063261
0.000617081
0.000587275
0.000542989
0.000491258
0.000449236
0.000412215
0.000397055
0.00039188
0.000390749
0.000390495
0.000390421
0.00039042
0.000390492
0.000390744
0.000391868
0.000397028
0.000412159
0.000449101
0.000490808
0.000541486
0.000583044
0.000606709
0.00060975
0.000588786
0.000534058
0.00041564
0.000114194
0.000114231
0.000416737
0.00053706
0.000595997
0.000625354
0.000637194
0.000636623
0.000624906
0.000601205
0.000564881
0.000518493
0.000468922
0.000423212
0.000403195
0.0003962
0.000394129
0.000393579
0.000393453
0.000393453
0.000393578
0.000394126
0.00039619
0.000403171
0.00042316
0.000468798
0.00051803
0.000563355
0.000596958
0.000614533
0.000613768
0.000590673
0.000534846
0.00041589
0.000114204
0.000114229
0.000416743
0.000537126
0.000596203
0.000625871
0.000638349
0.000638948
0.000629111
0.000607967
0.000574259
0.000528911
0.000476931
0.000428067
0.000406022
0.000398138
0.000395718
0.000395074
0.000394935
0.000394935
0.000395074
0.000395717
0.00039813
0.000406
0.000428017
0.000476817
0.000528443
0.000572719
0.000603703
0.000618724
0.000616078
0.000591807
0.00053533
0.000416042
0.000114209
0.000114228
0.000416745
0.000537162
0.000596314
0.000626146
0.000638945
0.000640101
0.000631092
0.000610944
0.000578077
0.000532872
0.000480002
0.000429987
0.000407165
0.000398921
0.000396372
0.000395697
0.000395557
0.000395557
0.000395697
0.000396371
0.000398914
0.000407143
0.000429939
0.000479888
0.000532401
0.000576528
0.000606668
0.00062069
0.000617215
0.000592383
0.000535578
0.000416118
0.000114211
0.000114227
0.000416745
0.000537177
0.000596362
0.000626261
0.000639187
0.000640556
0.000631846
0.000612028
0.0005794
0.000534184
0.000481007
0.000430623
0.000407544
0.000399178
0.000396588
0.000395904
0.000395765
0.000395766
0.000395905
0.000396587
0.000399172
0.000407523
0.000430575
0.000480893
0.000533711
0.000577848
0.000607746
0.000621435
0.00061766
0.000592613
0.000535678
0.000416148
0.000114211
0.000114226
0.000416745
0.000537178
0.000596365
0.000626265
0.000639194
0.000640565
0.000631856
0.000612041
0.000579413
0.000534197
0.00048102
0.000430641
0.000407555
0.000399185
0.000396592
0.000395908
0.00039577
0.000395771
0.00039591
0.000396592
0.000399178
0.000407534
0.000430593
0.000480906
0.000533725
0.000577862
0.00060776
0.000621447
0.000617668
0.000592619
0.000535681
0.000416148
0.00011421
0.000114226
0.000416744
0.000537166
0.000596323
0.00062616
0.000638964
0.000640127
0.000631125
0.000610983
0.000578121
0.000532916
0.000480045
0.000430046
0.000407204
0.000398946
0.000396392
0.000395717
0.00039558
0.000395581
0.000395719
0.000396392
0.00039894
0.000407185
0.00043
0.000479933
0.000532447
0.000576576
0.000606711
0.000620725
0.000617241
0.0005924
0.000535587
0.000416118
0.000114209
0.000114227
0.000416741
0.000537132
0.000596217
0.000625894
0.000638382
0.000638992
0.000629169
0.000608038
0.000574343
0.000529
0.00047702
0.000428184
0.000406109
0.000398203
0.000395777
0.000395134
0.000395
0.000395001
0.000395137
0.000395779
0.000398201
0.000406094
0.000428144
0.000476913
0.000528539
0.000572811
0.000603782
0.000618786
0.000616124
0.000591837
0.000535344
0.000416042
0.000114206
0.000114228
0.000416733
0.000537068
0.000596016
0.000625385
0.000637239
0.000636685
0.00062499
0.000601317
0.000565024
0.000518659
0.000469088
0.00042342
0.000403359
0.000396337
0.00039426
0.000393715
0.000393595
0.000393597
0.000393721
0.000394268
0.000396342
0.000403353
0.00042339
0.00046899
0.000518214
0.000563514
0.000597081
0.000614623
0.000613832
0.000590714
0.000534866
0.000415889
0.000114201
0.000114229
0.000416718
0.000536964
0.000595697
0.000624569
0.000635352
0.000632682
0.000617188
0.000587434
0.000543222
0.000491574
0.000449601
0.000412537
0.0003973
0.000392097
0.000390956
0.000390709
0.000390646
0.000390649
0.000390719
0.00039097
0.00039211
0.000397304
0.000412521
0.000449521
0.000491166
0.00054175
0.000583213
0.000606814
0.000609817
0.000588828
0.000534078
0.000415636
0.00011419
0.00011423
0.000416697
0.000536827
0.000595285
0.000623504
0.0006328
0.000626897
0.000604627
0.000561221
0.000492275
0.00041247
0.000402855
0.000390109
0.000385314
0.000382693
0.000384135
0.000384768
0.000384882
0.000384887
0.000384781
0.000384151
0.0003827
0.000385301
0.000390085
0.000402831
0.000412165
0.000490888
0.000556984
0.000594185
0.000603964
0.000586243
0.000533031
0.000415303
0.000114174
0.000114229
0.000416666
0.00053667
0.000594859
0.000622453
0.000630239
0.000620595
0.000588602
0.000518016
0.000369835
0.000129306
0.000293244
0.000351243
0.000365588
0.00036475
0.000371632
0.00037395
0.000374382
0.000374384
0.000373951
0.000371611
0.000364653
0.00036539
0.000351005
0.000293326
0.000129248
0.000368741
0.000513675
0.000577964
0.000597516
0.000583624
0.000532009
0.000414988
0.000114158
0.000114226
0.000416597
0.000536465
0.000594476
0.000621774
0.000628877
0.000617188
0.000577587
0.000471278
0.000134729
0.000121287
0.00031612
0.000354711
0.000362537
0.000365664
0.000366652
0.000366875
0.000366863
0.000366593
0.000365472
0.000362018
0.000353619
0.000314501
0.000120884
0.000134346
0.000466538
0.000566523
0.000593903
0.000582251
0.000531459
0.000414827
0.000114149
0.000114213
0.000416355
0.00053599
0.000593898
0.000621393
0.000629385
0.000620413
0.000589744
0.000521238
0.000375624
0.000130863
0.000309729
0.000375616
0.00039154
0.000395685
0.000395598
0.000395524
0.000395519
0.00039548
0.000395343
0.00039501
0.00039403
0.000387631
0.000368501
0.000302664
0.000129761
0.000371142
0.000514405
0.000577791
0.000596902
0.000582921
0.000531472
0.000414765
0.000114146
0.000114164
0.00041556
0.000534584
0.000592201
0.000620036
0.000629653
0.000625135
0.000605795
0.000567383
0.000505764
0.000434467
0.000437578
0.000433683
0.000423093
0.000417646
0.000415251
0.000414489
0.000414284
0.000414215
0.000414149
0.000414078
0.000414083
0.000413781
0.000414641
0.00041758
0.000419147
0.000494019
0.000557161
0.00059254
0.000601465
0.000583706
0.000531077
0.000414334
0.000114116
0.000114012
0.00041329
0.000530754
0.000587429
0.000615188
0.000626146
0.000625468
0.000614539
0.000592759
0.000560263
0.000522748
0.000494231
0.000462851
0.000430746
0.000417224
0.000412597
0.00041121
0.000410836
0.000410746
0.000410755
0.000410964
0.000411962
0.000415688
0.000428125
0.000460381
0.000496675
0.000542279
0.000579525
0.000600314
0.000602125
0.000581471
0.000528324
0.000412448
0.000113984
0.000113584
0.00040756
0.000521537
0.000575987
0.000602737
0.000614146
0.000615914
0.000610261
0.000597433
0.000577157
0.000550153
0.000518369
0.00048087
0.00044344
0.000427267
0.000421626
0.000419884
0.0004194
0.000419296
0.000419362
0.000419773
0.000421362
0.000426738
0.000442782
0.000481028
0.000521202
0.000557405
0.000583544
0.000596411
0.00059399
0.000572106
0.000519999
0.000407032
0.00011357
0.000112488
0.000394369
0.000501313
0.000551438
0.000575803
0.000586534
0.000589388
0.000586833
0.000579346
0.00056638
0.00054726
0.000522009
0.00049216
0.000464154
0.000450205
0.000444779
0.000442947
0.000442388
0.000442267
0.00044238
0.000442915
0.000444698
0.000450082
0.000464086
0.000492548
0.000523464
0.000549787
0.000567584
0.000575039
0.000570354
0.000549121
0.00050043
0.000394065
0.000112484
0.000109889
0.000365412
0.000458836
0.000501314
0.000521439
0.000530282
0.000533099
0.000532216
0.00052819
0.000520575
0.000508621
0.000492156
0.000472753
0.000454993
0.000445078
0.000440803
0.000439233
0.000438726
0.000438615
0.000438731
0.00043924
0.000440805
0.00044508
0.000455047
0.000473004
0.000492766
0.000509348
0.000520081
0.000523685
0.000518452
0.000500108
0.000458398
0.000365252
0.00010989
0.000104105
0.00029892
0.000365448
0.000394419
0.000407584
0.000413178
0.000415049
0.00041489
0.000413152
0.000409597
0.000403746
0.000395445
0.000385593
0.000376561
0.000371128
0.000368605
0.00036762
0.000367285
0.000367212
0.000367299
0.000367645
0.000368641
0.000371175
0.00037664
0.000385745
0.000395703
0.000403932
0.000409034
0.000410263
0.000406333
0.000393944
0.000365282
0.000298848
0.000104109
9.30713e-05
0.000104105
0.000109893
0.000112497
0.000113597
0.000114026
0.000114167
0.000114177
0.000114097
0.00011391
0.000113579
0.00011308
0.00011246
0.000111876
0.000111514
0.000111344
0.000111277
0.000111253
0.000111248
0.000111254
0.000111278
0.000111345
0.000111515
0.000111878
0.000112465
0.000113089
0.000113584
0.000113869
0.0001139
0.000113555
0.000112489
0.000109895
0.000104108
9.30758e-05
9.71185e-05
0.000112482
0.000120517
0.00012425
0.000125906
0.000126592
0.000126854
0.000126942
0.000126966
0.000126965
0.000126958
0.000126949
0.000126943
0.000126938
0.000126935
0.000126933
0.000126931
0.000126931
0.000126931
0.000126931
0.000126933
0.000126935
0.000126937
0.000126941
0.000126946
0.000126946
0.000126925
0.000126841
0.000126585
0.000125901
0.000124248
0.000120517
0.000112482
9.71197e-05
0.000112482
0.000388231
0.000490702
0.000536873
0.000558627
0.000568482
0.000572583
0.000574067
0.000574444
0.000574383
0.000574172
0.000573943
0.000573757
0.000573629
0.000573546
0.000573489
0.00057345
0.000573431
0.00057343
0.00057345
0.000573487
0.000573543
0.000573621
0.000573733
0.000573864
0.000573919
0.000573606
0.000572229
0.000568239
0.000558472
0.000536773
0.000490635
0.000388192
0.000112481
0.00012052
0.000490739
0.000642837
0.00071462
0.000749775
0.000766353
0.000773517
0.000776136
0.000776685
0.000776354
0.000775727
0.000775107
0.00077464
0.000774353
0.000774192
0.000774088
0.000774018
0.000773982
0.000773982
0.000774018
0.000774088
0.00077419
0.000774341
0.000774594
0.000774946
0.00077521
0.000774826
0.00077252
0.000765695
0.000749391
0.000714414
0.000642733
0.000490694
0.00012052
0.000124254
0.000536933
0.000714651
0.000801264
0.00084491
0.000866007
0.000875183
0.000878255
0.000878313
0.000876983
0.000875215
0.000873603
0.000872441
0.000871778
0.00087144
0.000871213
0.000871053
0.00087097
0.000870971
0.000871055
0.000871215
0.000871439
0.000871763
0.000872374
0.000873364
0.000874458
0.000874803
0.000872551
0.000864277
0.000843916
0.00080076
0.000714425
0.000536853
0.000124255
0.000125912
0.000558702
0.00074983
0.00084494
0.000893728
0.000917487
0.000927425
0.000929766
0.00092794
0.000924007