/*--------------------------------*- C++ -*----------------------------------*\
| =========                 |                                                 |
| \\      /  F ield         | OpenFOAM: The Open Source CFD Toolbox           |
|  \\    /   O peration     | Version:  2112                                  |
|   \\  /    A nd           | Website:  www.openfoam.com                      |
|    \\/     M anipulation  |                                                 |
\*---------------------------------------------------------------------------*/
FoamFile
{
    version     2.0;
    format      ascii;
    arch        "LSB;label=32;scalar=64";
    class       volScalarField;
    location    "2.5";
    object      p;
}
// * * * * * * * * * * * * * * * * * * * * * * * * * * * * * * * * * * * * * //

dimensions      [0 2 -2 0 0 0 0];

internalField   nonuniform List<scalar> 
64906
(
-6.80772e-06
-6.7878e-06
-6.77975e-06
-6.78029e-06
-6.80975e-06
-6.8664e-06
-6.95132e-06
-7.06626e-06
-7.22167e-06
-7.38954e-06
-7.56084e-06
-7.73722e-06
-7.90817e-06
-8.06644e-06
-8.20359e-06
-8.31556e-06
-8.399e-06
-8.45258e-06
-8.47565e-06
-8.46837e-06
-8.43178e-06
-8.36753e-06
-8.27933e-06
-8.17152e-06
-8.05295e-06
-7.93114e-06
-7.81742e-06
-7.71148e-06
-7.62245e-06
-7.56803e-06
-7.54882e-06
-7.54023e-06
-7.5496e-06
-7.56999e-06
-6.74661e-06
-6.66174e-06
-6.59686e-06
-6.5629e-06
-6.55662e-06
-6.57881e-06
-6.62631e-06
-6.69553e-06
-6.77257e-06
-6.8729e-06
-6.9881e-06
-7.10675e-06
-7.21734e-06
-7.31867e-06
-7.4052e-06
-7.47671e-06
-7.53155e-06
-7.56982e-06
-7.59136e-06
-7.59632e-06
-7.58522e-06
-7.55822e-06
-7.51728e-06
-7.46276e-06
-7.40049e-06
-7.33161e-06
-7.26802e-06
-7.22042e-06
-7.1981e-06
-7.19495e-06
-7.21699e-06
-7.28527e-06
-7.37739e-06
-7.48522e-06
-6.72705e-06
-6.59794e-06
-6.48556e-06
-6.40124e-06
-6.35689e-06
-6.34898e-06
-6.37215e-06
-6.42221e-06
-6.49341e-06
-6.58758e-06
-6.69412e-06
-6.80805e-06
-6.908e-06
-6.99589e-06
-7.06542e-06
-7.12142e-06
-7.1639e-06
-7.19507e-06
-7.21534e-06
-7.22488e-06
-7.22359e-06
-7.20953e-06
-7.18306e-06
-7.13951e-06
-7.08572e-06
-7.01998e-06
-6.96517e-06
-6.92735e-06
-6.92085e-06
-6.94946e-06
-7.02232e-06
-7.14693e-06
-7.30241e-06
-7.46969e-06
-6.74942e-06
-6.5823e-06
-6.42402e-06
-6.29765e-06
-6.22202e-06
-6.19456e-06
-6.2104e-06
-6.26769e-06
-6.36392e-06
-6.50223e-06
-6.66522e-06
-6.84788e-06
-6.99868e-06
-7.12335e-06
-7.21203e-06
-7.27879e-06
-7.32561e-06
-7.35804e-06
-7.37721e-06
-7.38327e-06
-7.37542e-06
-7.34839e-06
-7.30064e-06
-7.21837e-06
-7.11246e-06
-6.97759e-06
-6.8685e-06
-6.79195e-06
-6.77123e-06
-6.80974e-06
-6.91595e-06
-7.09146e-06
-7.30511e-06
-7.52372e-06
-6.82644e-06
-6.62702e-06
-6.4352e-06
-6.27841e-06
-6.18536e-06
-6.15623e-06
-6.18944e-06
-6.28933e-06
-6.46002e-06
-6.71529e-06
-7.02889e-06
-7.39644e-06
-7.68755e-06
-7.91792e-06
-8.07265e-06
-8.18437e-06
-8.25732e-06
-8.30216e-06
-8.32068e-06
-8.31298e-06
-8.27764e-06
-8.20417e-06
-8.08901e-06
-7.89982e-06
-7.65334e-06
-7.33407e-06
-7.07861e-06
-6.89204e-06
-6.80876e-06
-6.82301e-06
-6.93751e-06
-7.14561e-06
-7.40503e-06
-7.66642e-06
-6.95919e-06
-6.72869e-06
-6.51063e-06
-6.33383e-06
-6.23712e-06
-6.22452e-06
-6.29993e-06
-6.47812e-06
-6.77608e-06
-7.23119e-06
-7.81356e-06
-8.54261e-06
-9.08648e-06
-9.50218e-06
-9.77271e-06
-9.96636e-06
-1.00888e-05
-1.01583e-05
-1.01767e-05
-1.01441e-05
-1.00587e-05
-9.90258e-06
-9.67081e-06
-9.29533e-06
-8.79629e-06
-8.11573e-06
-7.59833e-06
-7.21961e-06
-7.02138e-06
-6.97606e-06
-7.07462e-06
-7.29636e-06
-7.59954e-06
-7.90008e-06
-7.14438e-06
-6.88012e-06
-6.6385e-06
-6.44936e-06
-6.36084e-06
-6.38095e-06
-6.51997e-06
-6.80592e-06
-7.27548e-06
-8.0129e-06
-8.98088e-06
-1.03748e-05
-1.12948e-05
-1.19721e-05
-1.23995e-05
-1.27066e-05
-1.2898e-05
-1.30026e-05
-1.30215e-05
-1.29546e-05
-1.28009e-05
-1.25312e-05
-1.2142e-05
-1.15036e-05
-1.06289e-05
-9.28057e-06
-8.39033e-06
-7.7367e-06
-7.37861e-06
-7.24456e-06
-7.30929e-06
-7.54116e-06
-7.86559e-06
-8.21891e-06
-7.37623e-06
-7.07251e-06
-6.80803e-06
-6.61311e-06
-6.54499e-06
-6.61456e-06
-6.83689e-06
-7.24868e-06
-7.90975e-06
-8.94862e-06
-1.03491e-05
-1.29945e-05
-1.43639e-05
-1.5374e-05
-1.60018e-05
-1.64607e-05
-1.67459e-05
-1.68992e-05
-1.69193e-05
-1.68059e-05
-1.65602e-05
-1.61395e-05
-1.55494e-05
-1.45755e-05
-1.32519e-05
-1.0639e-05
-9.34637e-06
-8.39389e-06
-7.8535e-06
-7.61177e-06
-7.62516e-06
-7.8545e-06
-8.20526e-06
-8.61905e-06
-7.64696e-06
-7.29491e-06
-7.00698e-06
-6.81143e-06
-6.77512e-06
-6.90982e-06
-7.23052e-06
-7.77314e-06
-8.57527e-06
-9.874e-06
-1.16495e-05
-1.66471e-05
-1.81904e-05
-1.9532e-05
-2.03711e-05
-2.09828e-05
-2.13641e-05
-2.15683e-05
-2.15902e-05
-2.14295e-05
-2.10907e-05
-2.0519e-05
-1.97176e-05
-1.84056e-05
-1.69111e-05
-1.19218e-05
-1.03317e-05
-9.09037e-06
-8.41182e-06
-8.05439e-06
-8.00244e-06
-8.22e-06
-8.60061e-06
-9.09014e-06
-7.95046e-06
-7.5367e-06
-7.22834e-06
-7.04243e-06
-7.06014e-06
-7.29569e-06
-7.7648e-06
-8.46789e-06
-9.48504e-06
-1.19349e-05
-9.86438e-06
-2.05967e-05
-2.2233e-05
-2.41624e-05
-2.53164e-05
-2.61703e-05
-2.67052e-05
-2.69854e-05
-2.70096e-05
-2.67773e-05
-2.62895e-05
-2.54794e-05
-2.43652e-05
-2.24603e-05
-2.09033e-05
-1.0021e-05
-1.23893e-05
-9.99147e-06
-9.13005e-06
-8.62698e-06
-8.46093e-06
-8.63803e-06
-9.04057e-06
-9.62282e-06
-8.27958e-06
-7.77995e-06
-7.45535e-06
-7.2839e-06
-7.36931e-06
-7.73314e-06
-8.36318e-06
-9.11779e-06
-9.86038e-06
-7.58196e-06
-3.04911e-05
-2.76939e-05
-2.89004e-05
-3.00474e-05
-3.10274e-05
-3.1678e-05
-3.20098e-05
-3.20361e-05
-3.17566e-05
-3.11576e-05
-3.0226e-05
-2.91199e-05
-2.7931e-05
-3.06413e-05
-8.39498e-06
-1.05303e-05
-9.83811e-06
-9.26098e-06
-8.95981e-06
-9.07162e-06
-9.48124e-06
-1.02105e-05
-8.5971e-06
-8.03907e-06
-7.69039e-06
-7.54351e-06
-7.73404e-06
-8.33664e-06
-9.47923e-06
-1.13521e-05
-1.44628e-05
-1.85353e-05
-2.78059e-05
-2.69643e-05
-3.02414e-05
-3.27964e-05
-3.47964e-05
-3.62804e-05
-3.71995e-05
-3.76407e-05
-3.76687e-05
-3.72841e-05
-3.64232e-05
-3.49997e-05
-3.30647e-05
-3.05832e-05
-2.7382e-05
-2.84132e-05
-1.90522e-05
-1.50313e-05
-1.20204e-05
-1.03618e-05
-9.59783e-06
-9.55e-06
-9.95413e-06
-1.07869e-05
-8.91727e-06
-8.287e-06
-7.90669e-06
-7.76726e-06
-8.02223e-06
-8.76212e-06
-1.01296e-05
-1.22728e-05
-1.53883e-05
-1.91711e-05
-2.53864e-05
-2.89501e-05
-3.24024e-05
-3.54162e-05
-3.78466e-05
-3.9559e-05
-4.06128e-05
-4.11156e-05
-4.11443e-05
-4.06996e-05
-3.9706e-05
-3.80569e-05
-3.56947e-05
-3.27466e-05
-2.93484e-05
-2.58862e-05
-1.97046e-05
-1.59424e-05
-1.29234e-05
-1.10132e-05
-1.00673e-05
-9.95576e-06
-1.03878e-05
-1.13243e-05
-9.22028e-06
-8.51565e-06
-8.10345e-06
-7.96285e-06
-8.25838e-06
-9.08609e-06
-1.05905e-05
-1.2913e-05
-1.62267e-05
-2.0389e-05
-2.56326e-05
-2.9882e-05
-3.39326e-05
-3.73145e-05
-3.99932e-05
-4.18142e-05
-4.29203e-05
-4.34401e-05
-4.34686e-05
-4.30067e-05
-4.1961e-05
-4.02041e-05
-3.75952e-05
-3.428e-05
-3.02958e-05
-2.61033e-05
-2.08805e-05
-1.67506e-05
-1.35485e-05
-1.14825e-05
-1.04419e-05
-1.03094e-05
-1.07811e-05
-1.18104e-05
-9.4715e-06
-8.71229e-06
-8.26947e-06
-8.11636e-06
-8.4234e-06
-9.28491e-06
-1.08382e-05
-1.32176e-05
-1.65679e-05
-2.07757e-05
-2.57364e-05
-3.04052e-05
-3.48066e-05
-3.83504e-05
-4.11154e-05
-4.29537e-05
-4.40581e-05
-4.45708e-05
-4.45987e-05
-4.41426e-05
-4.30972e-05
-4.13216e-05
-3.86249e-05
-3.51434e-05
-3.07857e-05
-2.61803e-05
-2.12457e-05
-1.70761e-05
-1.38497e-05
-1.17494e-05
-1.06978e-05
-1.05881e-05
-1.11154e-05
-1.2247e-05
-9.67632e-06
-8.87564e-06
-8.40644e-06
-8.238e-06
-8.54435e-06
-9.41714e-06
-1.09873e-05
-1.3386e-05
-1.67447e-05
-2.0973e-05
-2.58958e-05
-3.07416e-05
-3.53432e-05
-3.89728e-05
-4.17688e-05
-4.35935e-05
-4.46777e-05
-4.51755e-05
-4.52029e-05
-4.47606e-05
-4.37342e-05
-4.19707e-05
-3.92423e-05
-3.56781e-05
-3.11492e-05
-2.63312e-05
-2.14312e-05
-1.72454e-05
-1.40219e-05
-1.1922e-05
-1.0885e-05
-1.0809e-05
-1.13866e-05
-1.25947e-05
-9.83362e-06
-9.00274e-06
-8.51268e-06
-8.32963e-06
-8.62993e-06
-9.50319e-06
-1.10765e-05
-1.34817e-05
-1.68468e-05
-2.1102e-05
-2.60531e-05
-3.10016e-05
-3.57074e-05
-3.93817e-05
-4.21884e-05
-4.39994e-05
-4.50675e-05
-4.55543e-05
-4.55816e-05
-4.515e-05
-4.41393e-05
-4.23884e-05
-3.96479e-05
-3.60368e-05
-3.14003e-05
-2.64798e-05
-2.15537e-05
-1.73456e-05
-1.4125e-05
-1.20342e-05
-1.10178e-05
-1.09738e-05
-1.15915e-05
-1.28536e-05
-9.94283e-06
-9.09294e-06
-8.58947e-06
-8.39675e-06
-8.69292e-06
-9.56701e-06
-1.11449e-05
-1.35603e-05
-1.69417e-05
-2.12296e-05
-2.62229e-05
-3.12404e-05
-3.60107e-05
-3.97197e-05
-4.25407e-05
-4.43517e-05
-4.54158e-05
-4.58995e-05
-4.59274e-05
-4.55e-05
-4.44937e-05
-4.27429e-05
-3.99871e-05
-3.63394e-05
-3.16359e-05
-2.66465e-05
-2.16797e-05
-1.7442e-05
-1.42115e-05
-1.21206e-05
-1.11149e-05
-1.10906e-05
-1.17331e-05
-1.30277e-05
-1.00036e-05
-9.14588e-06
-8.63705e-06
-8.44098e-06
-8.73723e-06
-9.61572e-06
-1.12033e-05
-1.36351e-05
-1.70431e-05
-2.13673e-05
-2.64039e-05
-3.14679e-05
-3.62789e-05
-4.00188e-05
-4.28615e-05
-4.46875e-05
-4.5761e-05
-4.62499e-05
-4.62791e-05
-4.5849e-05
-4.48353e-05
-4.30707e-05
-4.02932e-05
-3.66137e-05
-3.18678e-05
-2.68308e-05
-2.18206e-05
-1.75476e-05
-1.42938e-05
-1.21904e-05
-1.11816e-05
-1.11617e-05
-1.18129e-05
-1.31195e-05
-1.00165e-05
-9.16195e-06
-8.65576e-06
-8.4626e-06
-8.76328e-06
-9.64952e-06
-1.12519e-05
-1.3708e-05
-1.71489e-05
-2.15126e-05
-2.65954e-05
-3.16866e-05
-3.65148e-05
-4.02804e-05
-4.31504e-05
-4.50049e-05
-4.61e-05
-4.66021e-05
-4.66335e-05
-4.61945e-05
-4.51626e-05
-4.33721e-05
-4.05688e-05
-3.68638e-05
-3.20992e-05
-2.70324e-05
-2.19742e-05
-1.766e-05
-1.43708e-05
-1.22433e-05
-1.12184e-05
-1.11881e-05
-1.18318e-05
-1.31298e-05
-9.98223e-06
-9.1426e-06
-8.64633e-06
-8.46067e-06
-8.76674e-06
-9.65961e-06
-1.12753e-05
-1.37544e-05
-1.72374e-05
-2.16473e-05
-2.67963e-05
-3.18944e-05
-3.67029e-05
-4.04805e-05
-4.33763e-05
-4.52691e-05
-4.6396e-05
-4.69182e-05
-4.69531e-05
-4.65008e-05
-4.54432e-05
-4.36194e-05
-4.07935e-05
-3.70782e-05
-3.23318e-05
-2.72531e-05
-2.21257e-05
-1.77626e-05
-1.4428e-05
-1.22703e-05
-1.12215e-05
-1.11699e-05
-1.17915e-05
-1.30582e-05
-9.90204e-06
-9.08925e-06
-8.60846e-06
-8.43089e-06
-8.73644e-06
-9.62329e-06
-1.12349e-05
-1.37182e-05
-1.72338e-05
-2.16966e-05
-2.6989e-05
-3.20527e-05
-3.67672e-05
-4.05096e-05
-4.34022e-05
-4.53273e-05
-4.6487e-05
-4.70328e-05
-4.70729e-05
-4.66073e-05
-4.55265e-05
-4.36795e-05
-4.08631e-05
-3.71876e-05
-3.25337e-05
-2.74778e-05
-2.22043e-05
-1.77851e-05
-1.44121e-05
-1.22388e-05
-1.11753e-05
-1.11023e-05
-1.1692e-05
-1.29006e-05
-9.7693e-06
-9.00539e-06
-8.54582e-06
-8.37453e-06
-8.6685e-06
-9.52723e-06
-1.11006e-05
-1.35433e-05
-1.70552e-05
-2.15457e-05
-2.72229e-05
-3.21775e-05
-3.66139e-05
-4.02405e-05
-4.30751e-05
-4.50043e-05
-4.61816e-05
-4.67463e-05
-4.67947e-05
-4.6327e-05
-4.52451e-05
-4.34106e-05
-4.06646e-05
-3.71133e-05
-3.27242e-05
-2.77597e-05
-2.21087e-05
-1.76566e-05
-1.42785e-05
-1.21287e-05
-1.10757e-05
-1.09911e-05
-1.15483e-05
-1.27083e-05
-9.60454e-06
-8.89646e-06
-8.45863e-06
-8.28386e-06
-8.54001e-06
-9.31959e-06
-1.07669e-05
-1.3034e-05
-1.63155e-05
-2.03872e-05
-2.72825e-05
-3.23923e-05
-3.60753e-05
-3.93531e-05
-4.19738e-05
-4.38252e-05
-4.49763e-05
-4.55442e-05
-4.56055e-05
-4.51614e-05
-4.41324e-05
-4.24041e-05
-3.98942e-05
-3.67141e-05
-3.30866e-05
-2.78789e-05
-2.10199e-05
-1.69957e-05
-1.38437e-05
-1.18465e-05
-1.08813e-05
-1.0823e-05
-1.13588e-05
-1.24622e-05
-9.44174e-06
-8.7768e-06
-8.36155e-06
-8.17985e-06
-8.38385e-06
-9.0507e-06
-1.03155e-05
-1.23833e-05
-1.58252e-05
-2.05705e-05
-2.90333e-05
-3.0711e-05
-3.4871e-05
-3.80553e-05
-4.03858e-05
-4.21072e-05
-4.31938e-05
-4.37443e-05
-4.38262e-05
-4.34431e-05
-4.25246e-05
-4.09756e-05
-3.87882e-05
-3.57202e-05
-3.15624e-05
-2.96052e-05
-2.1452e-05
-1.6697e-05
-1.33327e-05
-1.1485e-05
-1.06474e-05
-1.06347e-05
-1.11502e-05
-1.21867e-05
-9.2837e-06
-8.65056e-06
-8.25416e-06
-8.05353e-06
-8.17117e-06
-8.6251e-06
-9.37333e-06
-1.01701e-05
-1.08216e-05
-7.2744e-06
-3.88949e-05
-3.47233e-05
-3.61165e-05
-3.75793e-05
-3.88797e-05
-3.9782e-05
-4.0281e-05
-4.03892e-05
-4.01148e-05
-3.94445e-05
-3.8391e-05
-3.7126e-05
-3.59364e-05
-4.00745e-05
-8.13913e-06
-1.18358e-05
-1.12606e-05
-1.06582e-05
-1.02761e-05
-1.03977e-05
-1.09175e-05
-1.18989e-05
-9.13428e-06
-8.53713e-06
-8.16805e-06
-7.97122e-06
-8.06705e-06
-8.49725e-06
-9.33644e-06
-1.07038e-05
-1.30037e-05
-1.68013e-05
-1.82381e-05
-2.74097e-05
-3.04376e-05
-3.3274e-05
-3.52291e-05
-3.67719e-05
-3.77948e-05
-3.83635e-05
-3.85071e-05
-3.82455e-05
-3.75594e-05
-3.63669e-05
-3.4671e-05
-3.21513e-05
-2.91285e-05
-2.06283e-05
-1.87204e-05
-1.46377e-05
-1.21263e-05
-1.07775e-05
-1.01987e-05
-1.02595e-05
-1.07244e-05
-1.16435e-05
-8.98557e-06
-8.45668e-06
-8.10467e-06
-7.91305e-06
-7.98886e-06
-8.37295e-06
-9.12891e-06
-1.03426e-05
-1.20951e-05
-1.44777e-05
-1.89684e-05
-2.49185e-05
-2.78406e-05
-3.05325e-05
-3.25508e-05
-3.41397e-05
-3.51827e-05
-3.57773e-05
-3.59443e-05
-3.57085e-05
-3.50548e-05
-3.39163e-05
-3.22392e-05
-2.99402e-05
-2.70533e-05
-2.1283e-05
-1.63673e-05
-1.3797e-05
-1.18817e-05
-1.06543e-05
-1.00971e-05
-1.0135e-05
-1.05551e-05
-1.14227e-05
-8.8695e-06
-8.41339e-06
-8.08498e-06
-7.91312e-06
-7.9893e-06
-8.35177e-06
-9.06434e-06
-1.02247e-05
-1.19833e-05
-1.44831e-05
-1.78679e-05
-2.20443e-05
-2.51724e-05
-2.79472e-05
-3.00523e-05
-3.17068e-05
-3.27833e-05
-3.33931e-05
-3.35699e-05
-3.33446e-05
-3.26935e-05
-3.15521e-05
-2.98437e-05
-2.75171e-05
-2.44706e-05
-2.03701e-05
-1.67046e-05
-1.3886e-05
-1.18796e-05
-1.06468e-05
-1.00786e-05
-1.00807e-05
-1.04518e-05
-1.12526e-05
-8.81324e-06
-8.40172e-06
-8.11732e-06
-7.98048e-06
-8.06879e-06
-8.41316e-06
-9.06635e-06
-1.01117e-05
-1.16595e-05
-1.38193e-05
-1.65849e-05
-1.98073e-05
-2.26793e-05
-2.5309e-05
-2.73457e-05
-2.89338e-05
-2.99669e-05
-3.0546e-05
-3.0719e-05
-3.05178e-05
-2.99138e-05
-2.885e-05
-2.72368e-05
-2.50721e-05
-2.22938e-05
-1.90788e-05
-1.60478e-05
-1.35833e-05
-1.17927e-05
-1.06616e-05
-1.01227e-05
-1.00988e-05
-1.04203e-05
-1.11398e-05
-8.8173e-06
-8.43709e-06
-8.22363e-06
-8.14506e-06
-8.26782e-06
-8.61434e-06
-9.22233e-06
-1.01503e-05
-1.14711e-05
-1.32477e-05
-1.54603e-05
-1.79963e-05
-2.04451e-05
-2.27595e-05
-2.45951e-05
-2.60234e-05
-2.69821e-05
-2.74898e-05
-2.7648e-05
-2.74763e-05
-2.69348e-05
-2.59901e-05
-2.45628e-05
-2.26762e-05
-2.03201e-05
-1.77692e-05
-1.53415e-05
-1.3317e-05
-1.17991e-05
-1.08042e-05
-1.02984e-05
-1.02343e-05
-1.04861e-05
-1.10943e-05
-8.84668e-06
-8.55194e-06
-8.41972e-06
-8.4215e-06
-8.60434e-06
-8.98325e-06
-9.58489e-06
-1.04445e-05
-1.16033e-05
-1.30922e-05
-1.48923e-05
-1.69239e-05
-1.89575e-05
-2.08992e-05
-2.24758e-05
-2.37028e-05
-2.45281e-05
-2.49989e-05
-2.51488e-05
-2.49977e-05
-2.45264e-05
-2.37073e-05
-2.24929e-05
-2.0912e-05
-1.89839e-05
-1.69515e-05
-1.50113e-05
-1.33515e-05
-1.20585e-05
-1.11624e-05
-1.06549e-05
-1.05144e-05
-1.06584e-05
-1.11187e-05
-8.899e-06
-8.71235e-06
-8.67369e-06
-8.76825e-06
-9.0293e-06
-9.47138e-06
-1.01112e-05
-1.09739e-05
-1.20759e-05
-1.34117e-05
-1.5018e-05
-1.67818e-05
-1.85545e-05
-2.02406e-05
-2.16457e-05
-2.27502e-05
-2.35125e-05
-2.39588e-05
-2.41035e-05
-2.39585e-05
-2.35143e-05
-2.27568e-05
-2.16656e-05
-2.0274e-05
-1.86216e-05
-1.68901e-05
-1.52193e-05
-1.37676e-05
-1.25879e-05
-1.17144e-05
-1.11551e-05
-1.09027e-05
-1.09091e-05
-1.11932e-05
-8.96661e-06
-8.9025e-06
-8.95651e-06
-9.13656e-06
-9.47795e-06
-1.00042e-05
-1.07408e-05
-1.17123e-05
-1.29393e-05
-1.44323e-05
-1.60856e-05
-1.78745e-05
-1.96713e-05
-2.13749e-05
-2.28265e-05
-2.39833e-05
-2.48008e-05
-2.5284e-05
-2.54375e-05
-2.52675e-05
-2.47702e-05
-2.39418e-05
-2.27826e-05
-2.13356e-05
-1.966e-05
-1.79119e-05
-1.62181e-05
-1.46802e-05
-1.34067e-05
-1.24309e-05
-1.17576e-05
-1.13709e-05
-1.12235e-05
-1.13013e-05
-6.87321e-06
-6.87895e-06
-6.89619e-06
-6.92676e-06
-6.98037e-06
-7.06042e-06
-7.16988e-06
-7.31062e-06
-7.48344e-06
-7.68203e-06
-7.89437e-06
-8.11425e-06
-8.32677e-06
-8.52377e-06
-8.6938e-06
-8.83182e-06
-8.93319e-06
-8.99628e-06
-9.02016e-06
-9.005e-06
-8.95213e-06
-8.86353e-06
-8.74422e-06
-8.59947e-06
-8.44113e-06
-8.27736e-06
-8.12334e-06
-7.98486e-06
-7.8723e-06
-7.78931e-06
-7.73432e-06
-7.69733e-06
-7.67253e-06
-7.65593e-06
-6.8288e-06
-6.79595e-06
-6.78286e-06
-6.7837e-06
-6.80832e-06
-6.85993e-06
-6.93953e-06
-7.04631e-06
-7.17436e-06
-7.32434e-06
-7.48403e-06
-7.64882e-06
-7.80366e-06
-7.94826e-06
-8.0717e-06
-8.17327e-06
-8.24886e-06
-8.29848e-06
-8.3214e-06
-8.31779e-06
-8.28871e-06
-8.23446e-06
-8.15949e-06
-8.06465e-06
-7.96122e-06
-7.84944e-06
-7.74484e-06
-7.65174e-06
-7.58292e-06
-7.53896e-06
-7.52257e-06
-7.53388e-06
-7.55567e-06
-7.59044e-06
-6.82823e-06
-6.78251e-06
-6.75425e-06
-6.73064e-06
-6.73607e-06
-6.77576e-06
-6.85144e-06
-6.96369e-06
-7.1071e-06
-7.28434e-06
-7.47462e-06
-7.6815e-06
-7.86513e-06
-8.03488e-06
-8.17152e-06
-8.28191e-06
-8.36114e-06
-8.4122e-06
-8.43449e-06
-8.42817e-06
-8.39418e-06
-8.32977e-06
-8.2403e-06
-8.11901e-06
-7.98595e-06
-7.83166e-06
-7.69772e-06
-7.58081e-06
-7.50411e-06
-7.46647e-06
-7.47118e-06
-7.51154e-06
-7.5521e-06
-7.59997e-06
-6.86885e-06
-6.80453e-06
-6.75691e-06
-6.71138e-06
-6.70368e-06
-6.74276e-06
-6.83326e-06
-6.98051e-06
-7.18081e-06
-7.44567e-06
-7.73792e-06
-8.07527e-06
-8.35842e-06
-8.61551e-06
-8.80949e-06
-8.96156e-06
-9.06478e-06
-9.12754e-06
-9.14928e-06
-9.1301e-06
-9.07094e-06
-8.9636e-06
-8.81565e-06
-8.60594e-06
-8.37312e-06
-8.0888e-06
-7.85618e-06
-7.65741e-06
-7.53432e-06
-7.4773e-06
-7.48773e-06
-7.54978e-06
-7.61102e-06
-7.67891e-06
-6.96452e-06
-6.8781e-06
-6.81516e-06
-6.75698e-06
-6.74922e-06
-6.80567e-06
-6.93604e-06
-7.15453e-06
-7.46169e-06
-7.89025e-06
-8.3756e-06
-8.97098e-06
-9.44172e-06
-9.86175e-06
-1.01623e-05
-1.03929e-05
-1.05424e-05
-1.06284e-05
-1.06499e-05
-1.0607e-05
-1.0501e-05
-1.03144e-05
-1.00592e-05
-9.68582e-06
-9.26586e-06
-8.72439e-06
-8.30387e-06
-7.9483e-06
-7.73015e-06
-7.61875e-06
-7.61087e-06
-7.67873e-06
-7.75505e-06
-7.84756e-06
-7.11718e-06
-7.00363e-06
-6.92883e-06
-6.86723e-06
-6.87312e-06
-6.96543e-06
-7.16012e-06
-7.4837e-06
-7.94406e-06
-8.61502e-06
-9.39811e-06
-1.04402e-05
-1.11986e-05
-1.18676e-05
-1.23257e-05
-1.26742e-05
-1.28933e-05
-1.30152e-05
-1.30369e-05
-1.29585e-05
-1.27832e-05
-1.24784e-05
-1.20653e-05
-1.14419e-05
-1.07348e-05
-9.74687e-06
-9.03643e-06
-8.44563e-06
-8.08684e-06
-7.88808e-06
-7.83926e-06
-7.89807e-06
-7.98546e-06
-8.10927e-06
-7.32518e-06
-7.17823e-06
-7.09392e-06
-7.03673e-06
-7.06845e-06
-7.21204e-06
-7.48911e-06
-7.93936e-06
-8.57926e-06
-9.56563e-06
-1.07484e-05
-1.25451e-05
-1.36725e-05
-1.46508e-05
-1.52888e-05
-1.57745e-05
-1.60721e-05
-1.62361e-05
-1.62587e-05
-1.61396e-05
-1.58867e-05
-1.54449e-05
-1.48515e-05
-1.3917e-05
-1.28416e-05
-1.10967e-05
-1.00005e-05
-9.10092e-06
-8.57518e-06
-8.26796e-06
-8.16296e-06
-8.20388e-06
-8.29574e-06
-8.46209e-06
-7.58397e-06
-7.39558e-06
-7.30417e-06
-7.26057e-06
-7.33345e-06
-7.54705e-06
-7.92474e-06
-8.50737e-06
-9.31522e-06
-1.05601e-05
-1.22176e-05
-1.53113e-05
-1.67962e-05
-1.81276e-05
-1.89733e-05
-1.96301e-05
-2.00287e-05
-2.02475e-05
-2.02714e-05
-2.01e-05
-1.97481e-05
-1.91359e-05
-1.83344e-05
-1.70431e-05
-1.56084e-05
-1.25561e-05
-1.10141e-05
-9.85789e-06
-9.17635e-06
-8.75504e-06
-8.57825e-06
-8.58882e-06
-8.68231e-06
-8.90369e-06
-7.88566e-06
-7.64461e-06
-7.54589e-06
-7.52162e-06
-7.64584e-06
-7.93863e-06
-8.4151e-06
-9.09683e-06
-9.92001e-06
-1.12883e-05
-1.32059e-05
-1.91573e-05
-2.04441e-05
-2.18872e-05
-2.28334e-05
-2.35801e-05
-2.40322e-05
-2.42861e-05
-2.43116e-05
-2.41078e-05
-2.37047e-05
-2.30035e-05
-2.21005e-05
-2.06888e-05
-1.94517e-05
-1.35119e-05
-1.17969e-05
-1.04932e-05
-9.80259e-06
-9.297e-06
-9.05038e-06
-9.02702e-06
-9.12573e-06
-9.42441e-06
-8.22214e-06
-7.91793e-06
-7.81804e-06
-7.8319e-06
-8.04397e-06
-8.47311e-06
-9.13489e-06
-9.93836e-06
-1.08339e-05
-1.30143e-05
-9.24206e-06
-2.21469e-05
-2.33718e-05
-2.5276e-05
-2.64571e-05
-2.74358e-05
-2.80181e-05
-2.83352e-05
-2.83618e-05
-2.80974e-05
-2.7567e-05
-2.66361e-05
-2.54989e-05
-2.36201e-05
-2.24753e-05
-9.37099e-06
-1.34957e-05
-1.13869e-05
-1.06578e-05
-1.00478e-05
-9.64775e-06
-9.53993e-06
-9.62209e-06
-1.00178e-05
-8.58074e-06
-8.1969e-06
-8.09326e-06
-8.14603e-06
-8.4494e-06
-9.02162e-06
-9.85571e-06
-1.07474e-05
-1.1131e-05
-6.55629e-06
-3.21134e-05
-2.72193e-05
-2.79512e-05
-2.89772e-05
-2.98315e-05
-3.04033e-05
-3.07103e-05
-3.07373e-05
-3.04836e-05
-2.99641e-05
-2.91586e-05
-2.81754e-05
-2.74553e-05
-3.22149e-05
-7.46668e-06
-1.18342e-05
-1.15122e-05
-1.07984e-05
-1.02479e-05
-1.00493e-05
-1.01207e-05
-1.0653e-05
-8.94279e-06
-8.48197e-06
-8.38497e-06
-8.50721e-06
-8.97762e-06
-9.8767e-06
-1.13489e-05
-1.34879e-05
-1.69347e-05
-2.04611e-05
-2.9479e-05
-2.57572e-05
-2.78661e-05
-2.99165e-05
-3.15234e-05
-3.26754e-05
-3.34254e-05
-3.37995e-05
-3.38269e-05
-3.35075e-05
-3.28133e-05
-3.17186e-05
-3.01735e-05
-2.8194e-05
-2.61585e-05
-3.00973e-05
-2.0953e-05
-1.75039e-05
-1.41795e-05
-1.2251e-05
-1.11064e-05
-1.06453e-05
-1.06416e-05
-1.1308e-05
-9.27605e-06
-8.75017e-06
-8.64853e-06
-8.81046e-06
-9.38034e-06
-1.04525e-05
-1.21817e-05
-1.46038e-05
-1.79702e-05
-2.12364e-05
-2.65642e-05
-2.78353e-05
-2.94284e-05
-3.10669e-05
-3.26156e-05
-3.37829e-05
-3.45778e-05
-3.49775e-05
-3.50045e-05
-3.4659e-05
-3.39192e-05
-3.28064e-05
-3.13139e-05
-2.97237e-05
-2.81709e-05
-2.70167e-05
-2.17364e-05
-1.85179e-05
-1.52712e-05
-1.30773e-05
-1.1711e-05
-1.11364e-05
-1.11202e-05
-1.19268e-05
-9.57608e-06
-8.99977e-06
-8.89549e-06
-9.09292e-06
-9.7505e-06
-1.09747e-05
-1.29236e-05
-1.56246e-05
-1.92013e-05
-2.29387e-05
-2.71624e-05
-2.9283e-05
-3.10498e-05
-3.27154e-05
-3.43572e-05
-3.55673e-05
-3.63967e-05
-3.68079e-05
-3.68347e-05
-3.64773e-05
-3.57027e-05
-3.45465e-05
-3.29607e-05
-3.13417e-05
-2.96296e-05
-2.75697e-05
-2.33934e-05
-1.97162e-05
-1.62727e-05
-1.3821e-05
-1.22704e-05
-1.15995e-05
-1.15711e-05
-1.24922e-05
-9.84515e-06
-9.2182e-06
-9.10331e-06
-9.31412e-06
-1.00142e-05
-1.13107e-05
-1.33514e-05
-1.61602e-05
-1.97782e-05
-2.36514e-05
-2.76346e-05
-3.01373e-05
-3.21445e-05
-3.38403e-05
-3.55161e-05
-3.67322e-05
-3.75693e-05
-3.79799e-05
-3.80062e-05
-3.76485e-05
-3.68648e-05
-3.57004e-05
-3.40783e-05
-3.24264e-05
-3.04955e-05
-2.80159e-05
-2.40838e-05
-2.02792e-05
-1.68069e-05
-1.42685e-05
-1.26586e-05
-1.19631e-05
-1.19506e-05
-1.29513e-05
-1.00682e-05
-9.4019e-06
-9.27679e-06
-9.49353e-06
-1.0219e-05
-1.15603e-05
-1.36575e-05
-1.65358e-05
-2.01914e-05
-2.41451e-05
-2.80893e-05
-3.08336e-05
-3.29383e-05
-3.46822e-05
-3.63924e-05
-3.76108e-05
-3.84467e-05
-3.88526e-05
-3.88787e-05
-3.8525e-05
-3.77416e-05
-3.65735e-05
-3.49154e-05
-3.32144e-05
-3.12023e-05
-2.84576e-05
-2.45667e-05
-2.06873e-05
-1.71893e-05
-1.46001e-05
-1.29612e-05
-1.22594e-05
-1.22644e-05
-1.33251e-05
-1.02392e-05
-9.54482e-06
-9.41001e-06
-9.62615e-06
-1.0362e-05
-1.17242e-05
-1.38477e-05
-1.67616e-05
-2.0442e-05
-2.44566e-05
-2.84242e-05
-3.12852e-05
-3.34751e-05
-3.52524e-05
-3.69805e-05
-3.81978e-05
-3.90315e-05
-3.94338e-05
-3.94601e-05
-3.911e-05
-3.83286e-05
-3.71605e-05
-3.5483e-05
-3.37426e-05
-3.161e-05
-2.87812e-05
-2.48742e-05
-2.09396e-05
-1.74265e-05
-1.48166e-05
-1.31724e-05
-1.24778e-05
-1.25016e-05
-1.36053e-05
-1.03569e-05
-9.64608e-06
-9.50515e-06
-9.7203e-06
-1.0462e-05
-1.1837e-05
-1.39789e-05
-1.69198e-05
-2.06284e-05
-2.46924e-05
-2.87002e-05
-3.1633e-05
-3.38779e-05
-3.56841e-05
-3.74297e-05
-3.8653e-05
-3.94894e-05
-3.98923e-05
-3.99193e-05
-3.957e-05
-3.87868e-05
-3.76129e-05
-3.59173e-05
-3.41459e-05
-3.19528e-05
-2.90566e-05
-2.51125e-05
-2.1132e-05
-1.75971e-05
-1.49699e-05
-1.33207e-05
-1.26304e-05
-1.26656e-05
-1.37945e-05
-1.04212e-05
-9.70481e-06
-9.56179e-06
-9.77689e-06
-1.0522e-05
-1.19051e-05
-1.40608e-05
-1.70231e-05
-2.07617e-05
-2.48659e-05
-2.89176e-05
-3.18952e-05
-3.41729e-05
-3.60036e-05
-3.77667e-05
-3.90034e-05
-3.98486e-05
-4.02568e-05
-4.02853e-05
-3.99338e-05
-3.9144e-05
-3.79583e-05
-3.62456e-05
-3.44496e-05
-3.22226e-05
-2.92815e-05
-2.52945e-05
-2.12748e-05
-1.77126e-05
-1.50677e-05
-1.34101e-05
-1.27185e-05
-1.27566e-05
-1.3895e-05
-1.04325e-05
-9.72154e-06
-9.5804e-06
-9.79624e-06
-1.05423e-05
-1.19281e-05
-1.40925e-05
-1.70706e-05
-2.08399e-05
-2.49764e-05
-2.90782e-05
-3.20795e-05
-3.43683e-05
-3.62178e-05
-3.79973e-05
-3.92536e-05
-4.01133e-05
-4.0531e-05
-4.05621e-05
-4.02056e-05
-3.94055e-05
-3.82035e-05
-3.64764e-05
-3.46629e-05
-3.24248e-05
-2.94581e-05
-2.542e-05
-2.13665e-05
-1.77721e-05
-1.51101e-05
-1.34415e-05
-1.27433e-05
-1.27763e-05
-1.3909e-05
-1.03926e-05
-9.69851e-06
-9.56281e-06
-9.77895e-06
-1.05209e-05
-1.19005e-05
-1.40632e-05
-1.70447e-05
-2.0845e-05
-2.50045e-05
-2.91813e-05
-3.21845e-05
-3.44533e-05
-3.63143e-05
-3.8106e-05
-3.93872e-05
-4.02652e-05
-4.06968e-05
-4.07318e-05
-4.03693e-05
-3.95576e-05
-3.8337e-05
-3.66015e-05
-3.478e-05
-3.25648e-05
-2.95891e-05
-2.54739e-05
-2.13941e-05
-1.77646e-05
-1.50917e-05
-1.34141e-05
-1.27076e-05
-1.27285e-05
-1.38398e-05
-1.03044e-05
-9.63783e-06
-9.50796e-06
-9.71782e-06
-1.04402e-05
-1.17876e-05
-1.39144e-05
-1.68584e-05
-2.06684e-05
-2.48361e-05
-2.91724e-05
-3.21515e-05
-3.43514e-05
-3.61981e-05
-3.79762e-05
-3.92742e-05
-4.01672e-05
-4.06138e-05
-4.06546e-05
-4.02889e-05
-3.94728e-05
-3.82457e-05
-3.65309e-05
-3.47322e-05
-3.26063e-05
-2.96236e-05
-2.53454e-05
-2.12536e-05
-1.7609e-05
-1.49619e-05
-1.33023e-05
-1.26022e-05
-1.26137e-05
-1.36942e-05
-1.01835e-05
-9.54812e-06
-9.42459e-06
-9.62238e-06
-1.03103e-05
-1.15996e-05
-1.36539e-05
-1.65134e-05
-2.03122e-05
-2.44035e-05
-2.91089e-05
-3.20082e-05
-3.40345e-05
-3.58939e-05
-3.76623e-05
-3.89784e-05
-3.98818e-05
-4.03432e-05
-4.03929e-05
-4.00307e-05
-3.92211e-05
-3.79943e-05
-3.63018e-05
-3.45016e-05
-3.25208e-05
-2.96196e-05
-2.49778e-05
-2.09595e-05
-1.73192e-05
-1.47395e-05
-1.31263e-05
-1.2447e-05
-1.24457e-05
-1.34506e-05
-1.00288e-05
-9.43171e-06
-9.30817e-06
-9.47359e-06
-1.00839e-05
-1.12356e-05
-1.30836e-05
-1.56663e-05
-1.92076e-05
-2.27687e-05
-2.87927e-05
-3.17975e-05
-3.34399e-05
-3.5247e-05
-3.69205e-05
-3.82082e-05
-3.90939e-05
-3.95602e-05
-3.96222e-05
-3.92805e-05
-3.85122e-05
-3.73407e-05
-3.57624e-05
-3.40424e-05
-3.24576e-05
-2.93589e-05
-2.34186e-05
-1.99451e-05
-1.6564e-05
-1.42413e-05
-1.28e-05
-1.22103e-05
-1.22246e-05
-1.31399e-05
-9.84339e-06
-9.30391e-06
-9.18676e-06
-9.32379e-06
-9.85901e-06
-1.08748e-05
-1.25179e-05
-1.48634e-05
-1.85752e-05
-2.27461e-05
-3.0529e-05
-2.98111e-05
-3.2652e-05
-3.51755e-05
-3.70154e-05
-3.83657e-05
-3.92643e-05
-3.97423e-05
-3.98229e-05
-3.95095e-05
-3.87657e-05
-3.75742e-05
-3.58547e-05
-3.34576e-05
-3.0646e-05
-3.10553e-05
-2.36174e-05
-1.94921e-05
-1.59136e-05
-1.37887e-05
-1.25014e-05
-1.19869e-05
-1.20016e-05
-1.28046e-05
-9.6448e-06
-9.1659e-06
-9.04454e-06
-9.12608e-06
-9.52096e-06
-1.0244e-05
-1.12665e-05
-1.22701e-05
-1.24162e-05
-5.78635e-06
-4.1057e-05
-3.3987e-05
-3.46507e-05
-3.58129e-05
-3.68551e-05
-3.75971e-05
-3.8037e-05
-3.81371e-05
-3.79033e-05
-3.73528e-05
-3.65212e-05
-3.55013e-05
-3.50246e-05
-4.20431e-05
-6.66653e-06
-1.35356e-05
-1.35153e-05
-1.26946e-05
-1.19653e-05
-1.16729e-05
-1.17485e-05
-1.24544e-05
-9.46021e-06
-9.04175e-06
-8.93571e-06
-9.00906e-06
-9.3761e-06
-1.00817e-05
-1.11966e-05
-1.27032e-05
-1.49047e-05
-1.84595e-05
-1.82537e-05
-2.85633e-05
-3.07624e-05
-3.31879e-05
-3.48207e-05
-3.62231e-05
-3.7131e-05
-3.76804e-05
-3.78096e-05
-3.75258e-05
-3.68489e-05
-3.57198e-05
-3.42189e-05
-3.20375e-05
-2.99642e-05
-2.06247e-05
-2.03288e-05
-1.66276e-05
-1.42629e-05
-1.27868e-05
-1.18681e-05
-1.15133e-05
-1.15407e-05
-1.21484e-05
-9.29488e-06
-8.93497e-06
-8.83892e-06
-8.89807e-06
-9.21923e-06
-9.85109e-06
-1.08602e-05
-1.22942e-05
-1.41785e-05
-1.65271e-05
-2.08877e-05
-2.70065e-05
-2.88381e-05
-3.06988e-05
-3.21072e-05
-3.34187e-05
-3.43032e-05
-3.48543e-05
-3.5003e-05
-3.47651e-05
-3.41546e-05
-3.31355e-05
-3.17642e-05
-3.00335e-05
-2.83784e-05
-2.28592e-05
-1.83085e-05
-1.59485e-05
-1.39681e-05
-1.25397e-05
-1.16713e-05
-1.13273e-05
-1.13395e-05
-1.18802e-05
-9.16706e-06
-8.86329e-06
-8.78875e-06
-8.85696e-06
-9.16926e-06
-9.78001e-06
-1.0764e-05
-1.21919e-05
-1.41584e-05
-1.67099e-05
-2.00126e-05
-2.38807e-05
-2.59683e-05
-2.77321e-05
-2.91297e-05
-3.04731e-05
-3.13784e-05
-3.19373e-05
-3.20931e-05
-3.18659e-05
-3.12505e-05
-3.02319e-05
-2.8841e-05
-2.71405e-05
-2.52869e-05
-2.19316e-05
-1.86524e-05
-1.6046e-05
-1.39612e-05
-1.25e-05
-1.16093e-05
-1.12329e-05
-1.12052e-05
-1.16771e-05
-9.08475e-06
-8.82748e-06
-8.78097e-06
-8.86563e-06
-9.17024e-06
-9.7444e-06
-1.06537e-05
-1.19657e-05
-1.37417e-05
-1.60358e-05
-1.86871e-05
-2.15728e-05
-2.35167e-05
-2.51822e-05
-2.65748e-05
-2.78666e-05
-2.87409e-05
-2.92836e-05
-2.94415e-05
-2.92369e-05
-2.86598e-05
-2.77123e-05
-2.6381e-05
-2.47959e-05
-2.30289e-05
-2.05685e-05
-1.79792e-05
-1.56454e-05
-1.37609e-05
-1.24048e-05
-1.15627e-05
-1.11842e-05
-1.11281e-05
-1.15336e-05
-9.04835e-06
-8.83508e-06
-8.82834e-06
-8.94521e-06
-9.25867e-06
-9.80982e-06
-1.065e-05
-1.18297e-05
-1.33831e-05
-1.53189e-05
-1.7491e-05
-1.97934e-05
-2.16234e-05
-2.32845e-05
-2.46918e-05
-2.5912e-05
-2.67434e-05
-2.72987e-05
-2.74647e-05
-2.72688e-05
-2.67155e-05
-2.58215e-05
-2.45644e-05
-2.30703e-05
-2.13775e-05
-1.93683e-05
-1.72348e-05
-1.52583e-05
-1.36114e-05
-1.23924e-05
-1.16071e-05
-1.1222e-05
-1.11276e-05
-1.14543e-05
-9.04498e-06
-8.88739e-06
-8.92621e-06
-9.08571e-06
-9.42107e-06
-9.9644e-06
-1.07533e-05
-1.18216e-05
-1.31851e-05
-1.48379e-05
-1.66716e-05
-1.86031e-05
-2.03206e-05
-2.19161e-05
-2.32594e-05
-2.44093e-05
-2.52154e-05
-2.57126e-05
-2.58691e-05
-2.56998e-05
-2.51964e-05
-2.43718e-05
-2.32184e-05
-2.18435e-05
-2.02628e-05
-1.85164e-05
-1.67011e-05
-1.50088e-05
-1.35744e-05
-1.24811e-05
-1.17426e-05
-1.13401e-05
-1.11966e-05
-1.14313e-05
-9.05787e-06
-8.95397e-06
-9.023e-06
-9.21784e-06
-9.57707e-06
-1.0126e-05
-1.08922e-05
-1.18985e-05
-1.31511e-05
-1.46346e-05
-1.62851e-05
-1.80208e-05
-1.96713e-05
-2.12161e-05
-2.25297e-05
-2.36206e-05
-2.4397e-05
-2.4869e-05
-2.5021e-05
-2.48616e-05
-2.43853e-05
-2.3603e-05