/*--------------------------------*- C++ -*----------------------------------*\
| =========                 |                                                 |
| \\      /  F ield         | OpenFOAM: The Open Source CFD Toolbox           |
|  \\    /   O peration     | Version:  2112                                  |
|   \\  /    A nd           | Website:  www.openfoam.com                      |
|    \\/     M anipulation  |                                                 |
\*---------------------------------------------------------------------------*/
FoamFile
{
    version     2.0;
    format      ascii;
    arch        "LSB;label=32;scalar=64";
    class       surfaceScalarField;
    location    "2.5";
    object      phi;
}
// * * * * * * * * * * * * * * * * * * * * * * * * * * * * * * * * * * * * * //

dimensions      [0 3 -1 0 0 0 0];

oriented        oriented;

internalField   nonuniform List<scalar> 
188215
(
8.76244e-10
1.98733e-09
-2.86357e-09
3.01145e-09
1.12544e-09
-3.26064e-09
5.62562e-09
2.63164e-10
-2.87734e-09
8.40378e-09
-4.93253e-10
-2.2849e-09
1.12165e-08
-9.43969e-10
-1.86875e-09
1.39709e-08
-1.07373e-09
-1.68065e-09
1.66159e-08
-9.7675e-10
-1.66825e-09
1.90266e-08
-6.33515e-10
-1.77723e-09
2.10199e-08
-2.95736e-11
-1.96365e-09
2.24419e-08
6.94308e-10
-2.1163e-09
2.30335e-08
1.68679e-09
-2.27844e-09
2.2408e-08
3.06995e-09
-2.4444e-09
2.07319e-08
4.24663e-09
-2.57053e-09
1.80799e-08
5.2891e-09
-2.63717e-09
1.47121e-08
6.03681e-09
-2.669e-09
1.07986e-08
6.59439e-09
-2.68083e-09
6.54468e-09
6.94037e-09
-2.68648e-09
2.12694e-09
7.10943e-09
-2.69168e-09
-2.2745e-09
7.10037e-09
-2.69893e-09
-6.48008e-09
6.91333e-09
-2.70775e-09
-1.03144e-08
6.54988e-09
-2.71557e-09
-1.35737e-08
5.97573e-09
-2.71643e-09
-1.60919e-08
5.21469e-09
-2.69653e-09
-1.76127e-08
4.16306e-09
-2.64221e-09
-1.807e-08
2.98866e-09
-2.53133e-09
-1.73001e-08
1.62037e-09
-2.39031e-09
-1.56968e-08
6.71493e-10
-2.27477e-09
-1.3499e-08
1.92271e-11
-2.21705e-09
-1.09199e-08
-3.5041e-10
-2.22873e-09
-8.1645e-09
-3.11378e-10
-2.44397e-09
-5.39872e-09
1.79101e-10
-2.94488e-09
-2.75628e-09
1.04341e-09
-3.68585e-09
-6.95098e-10
2.22468e-09
-4.28586e-09
3.20818e-09
-3.90327e-09
-8.69396e-10
6.85673e-09
-4e-09
1.52232e-09
6.86681e-09
-8.13309e-09
4.88234e-09
6.32126e-09
-9.41812e-09
8.21899e-09
5.95398e-09
-9.78387e-09
1.1325e-08
6.10701e-09
-1.0157e-08
1.42474e-08
6.80958e-09
-1.08057e-08
1.70206e-08
8.05357e-09
-1.18035e-08
1.96216e-08
9.92415e-09
-1.31587e-08
2.19555e-08
1.25144e-08
-1.48779e-08
2.35941e-08
1.60878e-08
-1.7032e-08
2.43006e-08
2.04864e-08
-1.95061e-08
2.3604e-08
2.59344e-08
-2.21679e-08
2.1779e-08
3.07542e-08
-2.46825e-08
1.8935e-08
3.50288e-08
-2.68957e-08
1.53722e-08
3.83087e-08
-2.87091e-08
1.12632e-08
4.08057e-08
-3.01023e-08
6.81356e-09
4.24411e-08
-3.10512e-08
2.20079e-09
4.32745e-08
-3.15523e-08
-2.3942e-09
4.3294e-08
-3.15986e-08
-6.79059e-09
4.24998e-08
-3.11901e-08
-1.08124e-08
4.09056e-08
-3.03339e-08
-1.42559e-08
3.84533e-08
-2.90341e-08
-1.69531e-08
3.52283e-08
-2.73164e-08
-1.86072e-08
3.10219e-08
-2.52047e-08
-1.91178e-08
2.63033e-08
-2.28041e-08
-1.82072e-08
2.0989e-08
-2.02792e-08
-1.63547e-08
1.68017e-08
-1.79826e-08
-1.37801e-08
1.3509e-08
-1.60643e-08
-1.0835e-08
1.13553e-08
-1.46509e-08
-7.56497e-09
1.0131e-08
-1.37124e-08
-4.01615e-09
9.80281e-09
-1.31725e-08
-5.01322e-10
1.02246e-08
-1.2696e-08
1.84754e-09
1.08991e-08
-1.10233e-08
1.0671e-08
-5.61525e-09
-2.10249e-09
1.29896e-08
-4.03035e-09
4.64559e-10
1.4021e-08
-9.72121e-09
4.33753e-09
1.41716e-08
-1.17233e-08
8.197e-09
1.45985e-08
-1.2504e-08
1.17882e-08
1.5732e-08
-1.32162e-08
1.51695e-08
1.76734e-08
-1.42451e-08
1.84496e-08
2.05106e-08
-1.57372e-08
2.1656e-08
2.44742e-08
-1.77565e-08
2.46736e-08
2.98349e-08
-2.0338e-08
2.70157e-08
3.72601e-08
-2.35145e-08
2.82084e-08
4.64748e-08
-2.71811e-08
2.73115e-08
5.79886e-08
-3.11573e-08
2.4983e-08
6.80165e-08
-3.49338e-08
2.14744e-08
7.68017e-08
-3.82642e-08
1.72626e-08
8.35174e-08
-4.09969e-08
1.25142e-08
8.86454e-08
-4.30913e-08
7.4421e-09
9.20251e-08
-4.45118e-08
2.21293e-09
9.37619e-08
-4.52582e-08
-2.99742e-09
9.38247e-08
-4.53203e-08
-8.013e-09
9.22135e-08
-4.46981e-08
-1.2668e-08
8.89622e-08
-4.34016e-08
-1.67493e-08
8.39668e-08
-4.14321e-08
-2.00939e-08
7.73997e-08
-3.88269e-08
-2.22245e-08
6.87841e-08
-3.56316e-08
-2.28981e-08
5.89831e-08
-3.20061e-08
-2.14461e-08
4.7748e-08
-2.8211e-08
-1.88161e-08
3.89472e-08
-2.47755e-08
-1.54193e-08
3.20112e-08
-2.1899e-08
-1.16678e-08
2.73073e-08
-1.97034e-08
-7.60743e-09
2.42167e-08
-1.81461e-08
-3.26479e-09
2.25132e-08
-1.7053e-08
1.00557e-09
2.18745e-08
-1.59203e-08
3.55692e-09
2.16242e-08
-1.32765e-08
2.00345e-08
-5.80662e-09
-2.80701e-09
1.93957e-08
-3.5991e-09
4.26061e-11
2.11899e-08
-1.00185e-08
4.53083e-09
2.19949e-08
-1.23115e-08
9.10234e-09
2.32608e-08
-1.32339e-08
1.34398e-08
2.5475e-08
-1.40805e-08
1.76411e-08
2.87764e-08
-1.53042e-08
2.19188e-08
3.33327e-08
-1.70998e-08
2.64104e-08
3.95573e-08
-1.95746e-08
3.10163e-08
4.80119e-08
-2.2783e-08
3.49768e-08
6.00783e-08
-2.67786e-08
3.72864e-08
7.55848e-08
-3.14196e-08
3.58654e-08
9.59626e-08
-3.65529e-08
3.23234e-08
1.12959e-07
-4.14002e-08
2.72958e-08
1.27491e-07
-4.56613e-08
2.16195e-08
1.38335e-07
-4.91409e-08
1.54207e-08
1.46623e-07
-5.17793e-08
8.91729e-09
1.52078e-07
-5.35497e-08
2.25958e-09
1.54893e-07
-5.4473e-08
-4.3785e-09
1.55004e-07
-5.45412e-08
-1.08223e-08
1.52411e-07
-5.37539e-08
-1.69207e-08
1.47179e-07
-5.21184e-08
-2.24519e-08
1.39112e-07
-4.96142e-08
-2.72896e-08
1.28507e-07
-4.62694e-08
-3.05898e-08
1.14233e-07
-4.21491e-08
-3.17258e-08
9.75781e-08
-3.7459e-08
-2.90669e-08
7.76056e-08
-3.25164e-08
-2.47241e-08
6.27291e-08
-2.81247e-08
-1.95941e-08
5.13369e-08
-2.44558e-08
-1.43485e-08
4.37301e-08
-2.16684e-08
-9.01656e-09
3.85718e-08
-1.9687e-08
-3.57215e-09
3.53617e-08
-1.82929e-08
1.59255e-09
3.36042e-08
-1.68944e-08
4.52314e-09
3.25322e-08
-1.38386e-08
2.99292e-08
-5.37159e-09
-3.05384e-09
2.5587e-08
-3.13745e-09
3.286e-10
2.79716e-08
-1.01641e-08
5.67395e-09
2.93439e-08
-1.26943e-08
1.12082e-08
3.14358e-08
-1.37092e-08
1.65903e-08
3.47759e-08
-1.4683e-08
2.20093e-08
3.94997e-08
-1.61423e-08
2.78616e-08
4.58111e-08
-1.83307e-08
3.45304e-08
5.42939e-08
-2.14055e-08
4.20273e-08
6.59404e-08
-2.54253e-08
4.91806e-08
8.34111e-08
-3.04861e-08
5.38283e-08
1.07291e-07
-3.63544e-08
5.11766e-08
1.41728e-07
-4.31138e-08
4.5164e-08
1.68386e-07
-4.94151e-08
3.73374e-08
1.90311e-07
-5.49941e-08
2.91197e-08
2.06103e-07
-5.95506e-08
2.04369e-08
2.18233e-07
-6.2927e-08
1.14769e-08
2.26194e-07
-6.51559e-08
2.35812e-09
2.30319e-07
-6.63074e-08
-6.74101e-09
2.30485e-07
-6.63816e-08
-1.56406e-08
2.26688e-07
-6.53775e-08
-2.42188e-08
2.1905e-07
-6.32931e-08
-3.22776e-08
2.07229e-07
-6.00581e-08
-3.98842e-08
1.91753e-07
-5.56394e-08
-4.55957e-08
1.70146e-07
-5.0201e-08
-4.78742e-08
1.43912e-07
-4.40559e-08
-4.27456e-08
1.09966e-07
-3.74888e-08
-3.51158e-08
8.6985e-08
-3.18857e-08
-2.6956e-08
7.03541e-08
-2.71771e-08
-1.93277e-08
5.972e-08
-2.36182e-08
-1.21446e-08
5.24787e-08
-2.109e-08
-5.18744e-09
4.77575e-08
-1.93529e-08
1.20487e-09
4.49282e-08
-1.77163e-08
4.89491e-09
4.31349e-08
-1.42928e-08
3.97341e-08
-4.90996e-09
-3.00406e-09
3.13358e-08
-2.74472e-09
1.22913e-09
3.42085e-08
-1.04701e-08
7.75365e-09
3.61127e-08
-1.32934e-08
1.45595e-08
3.90612e-08
-1.44313e-08
2.13031e-08
4.36231e-08
-1.55907e-08
2.83193e-08
4.98765e-08
-1.7393e-08
3.62994e-08
5.79657e-08
-2.01347e-08
4.61416e-08
6.84753e-08
-2.40237e-08
5.82765e-08
8.28658e-08
-2.90604e-08
7.13374e-08
1.05714e-07
-3.53634e-08
8.08952e-08
1.40045e-07
-4.23112e-08
7.55394e-08
1.98158e-07
-5.1074e-08
6.49386e-08
2.38191e-07
-5.92035e-08
5.25287e-08
2.69412e-07
-6.66904e-08
4.04657e-08
2.91047e-07
-7.28817e-08
2.80562e-08
3.07891e-07
-7.72478e-08
1.53789e-08
3.18935e-07
-8.00635e-08
2.51329e-09
3.24686e-07
-8.15022e-08
-1.03349e-08
3.24918e-07
-8.15855e-08
-2.29577e-08
3.19623e-07
-8.03116e-08
-3.52697e-08
3.09018e-07
-7.76555e-08
-4.71732e-08
2.92575e-07
-7.34428e-08
-5.93429e-08
2.71317e-07
-6.73949e-08
-6.95771e-08
2.4043e-07
-6.005e-08
-7.44407e-08
2.00854e-07
-5.20777e-08
-6.41944e-08
1.43222e-07
-4.3502e-08
-5.05904e-08
1.10221e-07
-3.68403e-08
-3.76676e-08
8.83514e-08
-3.09202e-08
-2.66444e-08
7.50957e-08
-2.63989e-08
-1.70054e-08
6.5973e-08
-2.31334e-08
-8.06048e-09
5.97365e-08
-2.09239e-08
1.01993e-11
5.58164e-08
-1.89589e-08
4.90808e-09
5.3289e-08
-1.5052e-08
4.92005e-08
-4.55831e-09
-2.74671e-09
3.64752e-08
-2.39273e-09
2.68773e-09
3.97738e-08
-1.09997e-08
1.07755e-08
4.22428e-08
-1.42178e-08
1.92149e-08
4.61622e-08
-1.55404e-08
2.7643e-08
5.2158e-08
-1.6963e-08
3.65563e-08
6.0187e-08
-1.92237e-08
4.70336e-08
7.01556e-08
-2.26671e-08
6.09056e-08
8.21419e-08
-2.75386e-08
7.97419e-08
9.77005e-08
-3.3671e-08
1.02923e-07
1.23565e-07
-4.10327e-08
1.23253e-07
1.67776e-07
-4.80614e-08
1.11699e-07
2.68446e-07
-5.87333e-08
9.28172e-08
3.25619e-07
-6.85468e-08
7.34927e-08
3.67364e-07
-7.86276e-08
5.61768e-08
3.95597e-07
-8.7234e-08
3.86757e-08
4.18059e-07
-9.26673e-08
2.0842e-08
4.32873e-07
-9.61041e-08
2.73564e-09
4.40634e-07
-9.78413e-08
-1.53597e-08
4.40951e-07
-9.79371e-08
-3.31575e-08
4.33809e-07
-9.63888e-08
-5.05912e-08
4.19585e-07
-9.3133e-08
-6.77799e-08
3.97636e-07
-8.78715e-08
-8.68796e-08
3.69835e-07
-7.94175e-08
-1.0534e-07
3.28376e-07
-6.94852e-08
-1.1625e-07
2.71603e-07
-5.98401e-08
-9.48613e-08
1.71177e-07
-4.93444e-08
-7.11653e-08
1.29159e-07
-4.26336e-08
-5.14553e-08
1.04325e-07
-3.56834e-08
-3.61454e-08
8.99219e-08
-3.01361e-08
-2.35793e-08
7.93925e-08
-2.59855e-08
-1.21721e-08
7.15085e-08
-2.31793e-08
-1.83481e-09
6.62633e-08
-2.07842e-08
4.69966e-09
6.29214e-08
-1.61668e-08
5.81635e-08
-4.2633e-09
-2.27875e-09
4.07913e-08
-2.03732e-09
4.76756e-09
4.44671e-08
-1.17397e-08
1.49124e-08
4.75737e-08
-1.54758e-08
2.54721e-08
5.26561e-08
-1.70536e-08
3.59854e-08
6.04655e-08
-1.88209e-08
4.69713e-08
7.08537e-08
-2.16526e-08
5.97142e-08
8.3345e-08
-2.59322e-08
7.71743e-08
9.66265e-08
-3.19448e-08
1.03101e-07
1.10889e-07
-3.91156e-08
1.42819e-07
1.31388e-07
-4.75416e-08
1.87257e-07
1.73362e-07
-5.00239e-08
1.62417e-07
3.53482e-07
-6.01957e-08
1.30607e-07
4.28994e-07
-7.15657e-08
1.02177e-07
4.81532e-07
-8.57381e-08
7.82201e-08
5.17568e-07
-9.80136e-08
5.38175e-08
5.4685e-07
-1.04389e-07
2.86742e-08
5.66375e-07
-1.08359e-07
3.04939e-09
5.76606e-07
-1.10347e-07
-2.25757e-08
5.77032e-07
-1.10456e-07
-4.77196e-08
5.67637e-07
-1.08684e-07
-7.21232e-08
5.48907e-07
-1.04919e-07
-9.60514e-08
5.20303e-07
-9.87392e-08
-1.24374e-07
4.84786e-07
-8.66296e-08
-1.55807e-07
4.32432e-07
-7.26226e-08
-1.798e-07
3.57075e-07
-6.14785e-08
-1.33587e-07
1.76389e-07
-5.14246e-08
-9.36603e-08
1.38496e-07
-4.92648e-08
-6.67897e-08
1.18743e-07
-4.12889e-08
-4.75571e-08
1.05495e-07
-3.48059e-08
-3.21487e-08
9.36261e-08
-2.9642e-08
-1.78893e-08
8.33803e-08
-2.61312e-08
-4.66484e-09
7.62174e-08
-2.31785e-08
4.18711e-09
7.17172e-08
-1.76478e-08
6.62847e-08
-3.93417e-09
-1.58384e-09
4.40346e-08
-1.65953e-09
7.51637e-09
4.80366e-08
-1.26696e-08
2.02923e-08
5.18581e-08
-1.70603e-08
3.3589e-08
5.83219e-08
-1.89624e-08
4.6737e-08
6.84594e-08
-2.11419e-08
5.99774e-08
8.22253e-08
-2.46121e-08
7.42167e-08
9.89069e-08
-2.98013e-08
9.2971e-08
1.14886e-07
-3.70135e-08
1.22862e-07
1.26844e-07
-4.58458e-08
1.85437e-07
1.22956e-07
-5.4142e-08
2.79844e-07
1.36474e-07
-5.7519e-08
2.26437e-07
4.61189e-07
-5.43002e-08
1.75755e-07
5.43418e-07
-6.37413e-08
1.37634e-07
6.02929e-07
-8.32767e-08
1.06226e-07
6.49081e-07
-1.00105e-07
7.33704e-08
6.86394e-07
-1.06687e-07
3.88755e-08
7.1216e-07
-1.1129e-07
3.48931e-09
7.25531e-07
-1.13539e-07
-3.19133e-08
7.2609e-07
-1.13655e-07
-6.64635e-08
7.13823e-07
-1.11635e-07
-9.94326e-08
6.89122e-07
-1.07247e-07
-1.31009e-07
6.52752e-07
-1.00873e-07
-1.69322e-07
6.07307e-07
-8.42076e-08
-2.19912e-07
5.47888e-07
-6.48648e-08
-2.72154e-07
4.65037e-07
-5.57208e-08
-1.74732e-07
1.38339e-07
-5.9372e-08
-1.13021e-07
1.32877e-07
-5.60918e-08
-8.19809e-08
1.35898e-07
-4.81945e-08
-6.09886e-08
1.24702e-07
-4.01987e-08
-4.32962e-08
1.09934e-07
-3.40002e-08
-2.57174e-08
9.55535e-08
-2.97521e-08
-8.72791e-09
8.53994e-08
-2.61715e-08
3.27954e-09
7.92038e-08
-1.9494e-08
7.30935e-08
-3.52921e-09
-4.03893e-10
4.5687e-08
-1.24847e-09
1.12461e-08
5.01554e-08
-1.37688e-08
2.75526e-08
5.45252e-08
-1.89736e-08
4.48474e-08
6.231e-08
-2.12828e-08
6.22851e-08
7.49908e-08
-2.39691e-08
7.94267e-08
9.32672e-08
-2.81835e-08
9.54947e-08
1.17186e-07
-3.43471e-08
1.10227e-07
1.43646e-07
-4.34918e-08
1.23358e-07
1.67354e-07
-5.36411e-08
1.73414e-07
1.43003e-07
-7.01039e-08
3.9579e-07
-8.59016e-08
3.07863e-07
5.76537e-07
-2.74213e-08
2.38685e-07
6.40547e-07
-2.79507e-08
1.92028e-07
6.96664e-07
-4.70771e-08
1.51094e-07
7.55377e-07
-6.53619e-08
1.04635e-07
8.01023e-07
-6.81706e-08
5.49288e-08
8.33149e-07
-7.12824e-08
4.11102e-09
8.49296e-07
-7.29471e-08
-4.6733e-08
8.49969e-07
-7.30358e-08
-9.65366e-08
8.35175e-07
-7.15485e-08
-1.43227e-07
8.04401e-07
-6.85877e-08
-1.84586e-07
7.60082e-07
-6.59706e-08
-2.32021e-07
7.02556e-07
-4.78131e-08
-3.02431e-07
6.47162e-07
-2.88638e-08
-3.90097e-07
5.81602e-07
-2.88993e-08
-1.63e-07
-8.87576e-08
-1.12175e-07
1.53582e-07
-7.15298e-08
-9.88875e-08
1.78425e-07
-5.58144e-08
-8.14652e-08
1.54244e-07
-4.69648e-08
-6.0949e-08
1.28562e-07
-3.91439e-08
-3.81159e-08
1.06903e-07
-3.41825e-08
-1.53474e-08
9.25327e-08
-2.99019e-08
1.21976e-09
8.44161e-08
-2.17795e-08
7.73173e-08
-3.004e-09
6.85625e-10
4.5756e-08
-7.54657e-10
1.55583e-08
5.03942e-08
-1.51115e-08
3.61531e-08
5.51352e-08
-2.12047e-08
5.86153e-08
6.38513e-08
-2.40035e-08
8.23091e-08
7.85986e-08
-2.73016e-08
1.06329e-07
1.01426e-07
-3.21783e-08
1.26524e-07
1.35799e-07
-3.88082e-08
1.30257e-07
1.85961e-07
-4.60486e-08
1.02405e-07
2.58235e-07
-6.30289e-08
3.49045e-07
-1.03637e-07
1.83887e-07
3.17185e-07
7.54642e-08
2.48809e-07
5.38217e-07
3.7408e-08
2.45509e-07
6.70043e-07
2.99206e-08
2.01451e-07
7.67831e-07
3.16037e-08
1.40315e-07
8.33672e-07
2.8487e-08
7.35931e-08
8.75295e-07
2.45758e-08
4.9289e-09
8.95239e-07
2.27206e-08
-6.37675e-08
8.9594e-07
2.27256e-08
-1.30607e-07
8.77428e-07
2.45863e-08
-1.92042e-07
8.37325e-07
2.85112e-08
-2.36805e-07
7.73193e-07
3.16513e-08
-2.41762e-07
6.77452e-07
3.00605e-08
-1.79825e-07
5.47966e-07
3.72592e-08
3.27638e-07
7.41384e-08
-9.93312e-08
3.5414e-07
-1.01228e-07
-1.22433e-07
2.66299e-07
-6.47723e-08
-1.13306e-07
1.95084e-07
-4.99666e-08
-8.67113e-08
1.46418e-07
-4.44511e-08
-5.51276e-08
1.14667e-07
-3.93478e-08
-2.41406e-08
9.60356e-08
-3.44898e-08
-1.26366e-09
8.62277e-08
-2.46885e-08
7.84615e-08
-2.40794e-09
2.0999e-09
4.39113e-08
-2.5515e-10
2.08394e-08
4.8276e-08
-1.66213e-08
4.69755e-08
5.26565e-08
-2.36574e-08
7.72837e-08
6.06127e-08
-2.70696e-08
1.13368e-07
7.38085e-08
-3.12945e-08
1.589e-07
9.34996e-08
-3.76054e-08
2.19738e-07
1.21043e-07
-4.60827e-08
3.03191e-07
1.56419e-07
-5.39111e-08
4.22687e-07
1.96887e-07
-5.81477e-08
5.77224e-07
2.37866e-07
-4.33575e-08
4.50422e-07
8.33362e-08
4.34658e-08
4.66482e-07
2.30278e-07
7.08466e-08
4.50431e-07
4.07544e-07
1.46724e-07
3.85376e-07
5.25859e-07
2.09239e-07
2.94157e-07
6.14809e-07
2.44242e-07
1.96316e-07
6.74271e-07
2.57242e-07
1.00156e-07
7.11556e-07
2.59899e-07
5.76614e-09
7.2948e-07
2.60149e-07
-8.86025e-08
7.3009e-07
2.60219e-07
-1.84695e-07
7.13406e-07
2.60115e-07
-2.82426e-07
6.77419e-07
2.57636e-07
-3.73509e-07
6.19342e-07
2.44934e-07
-4.38455e-07
5.3186e-07
2.10538e-07
-4.53994e-07
4.14721e-07
1.48784e-07
-4.39332e-07
2.38599e-07
7.43773e-08
-5.71853e-07
8.55434e-08
4.6977e-08
-4.17178e-07
2.42079e-07
-4.26136e-08
-2.94384e-07
2.03619e-07
-6.01137e-08
-2.05796e-07
1.64663e-07
-5.81667e-08
-1.37759e-07
1.31045e-07
-5.26638e-08
-8.31176e-08
1.06203e-07
-4.61774e-08
-3.76168e-08
9.06301e-08
-4.00953e-08
-5.23771e-09
8.21683e-08
-2.83196e-08
7.49598e-08
-1.73597e-09
3.23743e-09
4.0417e-08
2.56846e-10
2.52723e-08
4.42832e-08
-1.80421e-08
5.59338e-08
4.79786e-08
-2.59836e-08
9.1994e-08
5.45313e-08
-2.99788e-08
1.35794e-07
6.5061e-08
-3.50527e-08
1.91993e-07
7.99963e-08
-4.2695e-08
2.66769e-07
9.9151e-08
-5.2884e-08
3.65009e-07
1.21054e-07
-6.28752e-08
4.89147e-07
1.40732e-07
-6.79827e-08
6.29578e-07
1.54776e-07
-5.7341e-08
6.33633e-07
1.04989e-07
-2.57083e-08
6.35896e-07
1.90762e-07
3.72527e-08
5.82107e-07
2.98548e-07
1.62786e-07
4.80774e-07
3.80754e-07
2.46439e-07
3.60486e-07
4.44675e-07
2.90421e-07
2.38115e-07
4.87431e-07
3.09212e-07
1.20437e-07
5.1462e-07
3.14613e-07
6.41267e-09
5.27744e-07
3.15761e-07
-1.07574e-07
5.28245e-07
3.15831e-07
-2.25129e-07
5.16128e-07
3.14833e-07
-3.47301e-07
4.89961e-07
3.0963e-07
-4.6737e-07
4.48229e-07
2.91181e-07
-5.68715e-07
3.85298e-07
2.47907e-07
-6.2302e-07
3.03817e-07
1.65209e-07
-6.2219e-07
1.96406e-07
4.13637e-08
-6.21976e-07
1.08318e-07
-2.29881e-08
-4.8254e-07
1.59531e-07
-5.68886e-08
-3.55678e-07
1.46877e-07
-7.01203e-08
-2.52033e-07
1.28594e-07
-6.75772e-08
-1.69129e-07
1.0844e-07
-6.02989e-08
-1.02327e-07
9.18789e-08
-5.24782e-08
-4.72182e-08
8.07221e-08
-4.52005e-08
-7.88375e-09
7.43657e-08
-3.15319e-08
6.81353e-08
-1.05929e-09
4.15176e-09
3.54211e-08
8.44102e-10
2.90174e-08
3.87e-08
-1.92825e-08
6.3439e-08
4.15604e-08
-2.80033e-08
1.03976e-07
4.64844e-08
-3.24901e-08
1.53162e-07
5.41729e-08
-3.82978e-08
2.15747e-07
6.4623e-08
-4.72123e-08
2.97141e-07
7.71837e-08
-5.94261e-08
4.00397e-07
9.06929e-08
-7.28948e-08
5.22428e-07
1.01548e-07
-8.28478e-08
6.47071e-07
1.10574e-07
-8.04414e-08
7.05276e-07
1.02199e-07
-5.54141e-08
7.27229e-07
1.51193e-07
1.76165e-08
6.63132e-07
2.14465e-07
1.48179e-07
5.44993e-07
2.6695e-07
2.31944e-07
4.05364e-07
3.089e-07
2.75403e-07
2.66319e-07
3.37242e-07
2.89234e-07
1.34212e-07
3.5565e-07
2.91077e-07
6.92639e-09
3.64639e-07
2.90391e-07
-1.20313e-07
3.65058e-07
2.90427e-07
-2.5228e-07
3.56905e-07
2.91191e-07
-3.9111e-07
3.39315e-07
2.89476e-07
-5.30547e-07
3.11749e-07
2.75918e-07
-6.4888e-07
2.7051e-07
2.3312e-07
-7.13915e-07
2.18533e-07
1.5032e-07
-6.9458e-07
1.55585e-07
2.14866e-08
-6.39181e-07
1.05926e-07
-5.30079e-08
-5.14915e-07
1.15178e-07
-7.99125e-08
-3.90171e-07
1.0714e-07
-8.50067e-08
-2.81214e-07
9.74943e-08
-7.78575e-08
-1.90925e-07
8.55802e-08
-6.74296e-08
-1.16488e-07
7.53304e-08
-5.78882e-08
-5.44531e-08
6.8113e-08
-4.94258e-08
-9.81064e-09
6.38275e-08
-3.41043e-08
5.87515e-08
-4.26817e-10
4.72163e-09
2.9397e-08
1.30247e-09
3.16706e-08
3.20417e-08
-2.02907e-08
6.87503e-08
3.41262e-08
-2.96455e-08
1.1214e-07
3.76086e-08
-3.45141e-08
1.64256e-07
4.29327e-08
-4.08761e-08
2.29674e-07
4.99585e-08
-5.07526e-08
3.13262e-07
5.80809e-08
-6.44853e-08
4.17597e-07
6.66707e-08
-8.03127e-08
5.38376e-07
7.38692e-08
-9.31002e-08
6.60817e-07
8.19484e-08
-9.38154e-08
7.454e-07
8.68023e-08
-6.91864e-08
7.79227e-07
1.16817e-07
5.49166e-10
7.10107e-07
1.55275e-07
1.28309e-07
5.83112e-07
1.88368e-07
2.05577e-07
4.33035e-07
2.15347e-07
2.4363e-07
2.84305e-07
2.34067e-07
2.51905e-07
1.43198e-07
2.46446e-07
2.50312e-07
7.34114e-09
2.526e-07
2.47896e-07
-1.28478e-07
2.5298e-07
2.47898e-07
-2.69468e-07
2.47574e-07
2.50321e-07
-4.18026e-07
2.35906e-07
2.51968e-07
-5.67993e-07
2.1783e-07
2.43885e-07
-6.95326e-07
1.91411e-07
2.06433e-07
-7.65646e-07
1.58726e-07
1.30126e-07
-7.3483e-07
1.20611e-07
4.15762e-09
-6.52454e-07
9.04903e-08
-6.69401e-08
-5.30108e-07
8.62271e-08
-9.33954e-08
-4.06452e-07
7.88636e-08
-9.53789e-08
-2.96073e-07
7.26375e-08
-8.55223e-08
-2.02934e-07
6.53742e-08
-7.29327e-08
-1.24681e-07
5.9145e-08
-6.20679e-08
-5.85825e-08
5.46846e-08
-5.26701e-08
-1.0631e-08
5.19352e-08
-3.60592e-08
4.79878e-08
1.32738e-10
5.08238e-09
2.26768e-08
1.63783e-09
3.35302e-08
2.4665e-08
-2.1071e-08
7.249e-08
2.60758e-08
-3.09095e-08
1.1778e-07
2.83735e-08
-3.60545e-08
1.71661e-07
3.18586e-08
-4.28076e-08
2.38557e-07
3.64201e-08
-5.33576e-08
3.23095e-07
4.16879e-08
-6.81446e-08
4.27846e-07
4.74461e-08
-8.55262e-08
5.48874e-07
5.29431e-08
-1.00102e-07
6.73403e-07
6.00615e-08
-1.02642e-07
7.7061e-07
6.76959e-08
-7.81007e-08
8.10868e-07
8.69162e-08
-1.03569e-08
7.39805e-07
1.10734e-07
1.15604e-07
6.0782e-07
1.31806e-07
1.88548e-07
4.51244e-07
1.49219e-07
2.22704e-07
2.96302e-07
1.61636e-07
2.27373e-07
1.49284e-07
1.69973e-07
2.23491e-07
7.71689e-09
1.74221e-07
2.19946e-07
-1.33825e-07
1.74592e-07
2.19929e-07
-2.80765e-07
1.7107e-07
2.23444e-07
-4.35602e-07
1.63405e-07
2.27338e-07
-5.92159e-07
1.51573e-07
2.22815e-07
-7.24602e-07
1.34635e-07
1.89219e-07
-7.96996e-07
1.13892e-07
1.17228e-07
-7.59942e-07
9.03048e-08
-6.74763e-09
-6.64636e-07
7.11604e-08
-7.59757e-08
-5.39995e-07
6.39033e-08
-1.02318e-07
-4.15883e-07
5.72606e-08
-1.02508e-07
-3.04763e-07
5.24596e-08
-9.09423e-08
-2.10148e-07
4.76809e-08
-7.69219e-08
-1.29681e-07
4.38038e-08
-6.51254e-08
-6.10298e-08
4.10866e-08
-5.50535e-08
-1.09653e-08
3.93757e-08
-3.75051e-08
3.64708e-08
5.51688e-10
5.27052e-09
1.55601e-08
1.84623e-09
3.47008e-08
1.68811e-08
-2.16464e-08
7.48863e-08
1.77158e-08
-3.18255e-08
1.21367e-07
1.90468e-08
-3.71541e-08
1.76296e-07
2.10845e-08
-4.41544e-08
2.44033e-07
2.38004e-08
-5.51181e-08
3.29193e-07
2.70623e-08
-7.05338e-08
4.34547e-07
3.08801e-08
-8.87884e-08
5.56732e-07
3.50817e-08
-1.04324e-07
6.83766e-07
4.07458e-08
-1.07718e-07
7.87246e-07
4.76052e-08
-8.33893e-08
8.31046e-07
5.95301e-08
-1.64141e-08
7.58824e-07
7.36259e-08
1.0933e-07
6.23782e-07
8.63284e-08
1.80519e-07
4.63232e-07
9.68993e-08
2.1287e-07
3.04352e-07
1.04673e-07
2.15843e-07
1.53461e-07
1.09976e-07
2.10887e-07
8.08093e-09
1.12786e-07
2.06815e-07
-1.37293e-07
1.13173e-07
2.06793e-07
-2.88159e-07
1.11116e-07
2.10821e-07
-4.4702e-07
1.06494e-07
2.15772e-07
-6.07666e-07
9.92911e-08
2.12928e-07
-7.43294e-07
8.91442e-08
1.81119e-07
-8.16969e-07
7.67031e-08
1.10863e-07
-7.76398e-07
6.27327e-08
-1.29989e-08
-6.74692e-07
5.08234e-08
-8.13686e-08
-5.47406e-07
4.41206e-08
-1.07503e-07
-4.21963e-07
3.86869e-08
-1.0687e-07
-3.09981e-07
3.48734e-08
-9.43955e-08
-2.1436e-07
3.16357e-08
-7.95762e-08
-1.32546e-07
2.92139e-08
-6.72237e-08
-6.23402e-08
2.76067e-08
-5.67262e-08
-1.10133e-08
2.65979e-08
-3.85491e-08
2.46873e-08
7.70165e-10
5.35644e-09
8.26516e-09
1.93846e-09
3.53584e-08
8.91404e-09
-2.20348e-08
7.62721e-08
9.22416e-09
-3.24221e-08
1.23474e-07
9.70125e-09
-3.78565e-08
1.79069e-07
1.04827e-08
-4.49932e-08
2.47416e-07
1.16337e-08
-5.618e-08
3.33172e-07
1.32341e-08
-7.19281e-08
4.39258e-07
1.54193e-08
-9.06251e-08
5.62621e-07
1.8351e-08
-1.06632e-07
6.91483e-07
2.22877e-08
-1.10405e-07
7.97999e-07
2.72345e-08
-8.61449e-08
8.43471e-07
3.32756e-08
-1.92172e-08
7.70559e-07
3.95398e-08
1.06998e-07
6.33705e-07
4.52911e-08
1.77891e-07
4.70804e-07
5.00692e-08
2.09732e-07
3.09523e-07
5.38048e-08
2.12149e-07
1.56232e-07
5.64432e-08
2.06824e-07
8.45905e-09
5.79912e-08
2.02568e-07
-1.39331e-07
5.84178e-08
2.02546e-07
-2.92666e-07
5.76954e-08
2.06756e-07
-4.54038e-07
5.57907e-08
2.12075e-07
-6.17177e-07
5.26488e-08
2.09782e-07
-7.54771e-07
4.8265e-08
1.78473e-07
-8.29269e-07
4.27022e-08
1.08499e-07
-7.87077e-07
3.64158e-08
-1.58755e-08
-6.82275e-07
3.02357e-08
-8.42138e-08
-5.5307e-07
2.52186e-08
-1.10303e-07
-4.26322e-07
2.12577e-08
-1.09319e-07
-3.13433e-07
1.83902e-08
-9.64059e-08
-2.1697e-07
1.63585e-08
-8.11863e-08
-1.3424e-07
1.50254e-08
-6.85413e-08
-6.30706e-08
1.42461e-08
-5.78087e-08
-1.10023e-08
1.37863e-08
-3.92567e-08
1.28489e-08
8.36172e-10
5.36311e-09
9.85663e-10
1.91639e-09
3.55662e-08
9.59192e-10
-2.22482e-08
7.67652e-08
7.43065e-10
-3.2718e-08
1.24292e-07
3.63339e-10
-3.8189e-08
1.80263e-07
-1.20624e-10
-4.53676e-08
2.4907e-07
-5.53701e-10
-5.66193e-08
3.35414e-07
-6.50903e-10
-7.24596e-08
4.42259e-07
-1.5544e-10
-9.12696e-08
5.66541e-07
1.46812e-09
-1.07399e-07
6.96356e-07
3.73821e-09
-1.11266e-07
8.03668e-07
6.96218e-09
-8.70391e-08
8.49362e-07
7.60145e-09
-2.00206e-08
7.76026e-07
6.23805e-09
1.06639e-07
6.38348e-07
5.13163e-09
1.77837e-07
4.74461e-07
4.13629e-09
2.0982e-07
3.12127e-07
3.8508e-09
2.12288e-07
1.57756e-07
3.84217e-09
2.06972e-07
8.87343e-09
4.15984e-09
2.02714e-07
-1.40055e-07
4.65432e-09
2.02692e-07
-2.94559e-07
5.29716e-09
2.06902e-07
-4.57126e-07
6.14739e-09
2.1221e-07
-6.21437e-07
7.09669e-09
2.09863e-07
-7.60054e-07
8.48266e-09
1.784e-07
-8.35156e-07
9.70438e-09
1.081e-07
-7.92827e-07
1.08481e-08
-1.67615e-08
-6.87213e-07
9.8399e-09
-8.52187e-08
-5.57005e-07
6.31123e-09
-1.113e-07
-4.29272e-07
3.76416e-09
-1.1024e-07
-3.15542e-07
1.88053e-09
-9.72201e-08
-2.18383e-07
1.09835e-09
-8.18997e-08
-1.35067e-07
8.84048e-10
-6.91746e-08
-6.34002e-08
9.47756e-10
-5.8368e-08
-1.0994e-08
1.04533e-09
-3.96652e-08
1.09096e-09
7.63917e-10
5.29015e-09
-6.08291e-09
1.77842e-09
3.53228e-08
-6.78418e-09
-2.22893e-08
7.63624e-08
-7.57878e-09
-3.27177e-08
1.23813e-07
-8.92905e-09
-3.81584e-08
1.79859e-07
-1.08768e-08
-4.52892e-08
2.48966e-07
-1.32078e-08
-5.64536e-08
3.35889e-07
-1.5417e-08
-7.21569e-08
4.43517e-07
-1.70123e-08
-9.07708e-08
5.68504e-07
-1.68425e-08
-1.06677e-07
6.98525e-07
-1.59129e-08
-1.10369e-07
8.04518e-07
-1.28552e-08
-8.61762e-08
8.48905e-07
-1.77501e-08
-1.90349e-08
7.75318e-07
-2.81216e-08
1.07946e-07
6.37763e-07
-3.72531e-08
1.79939e-07
4.7424e-07
-4.49696e-08
2.12629e-07
3.12193e-07
-4.97953e-08
2.15693e-07
1.5805e-07
-5.27373e-08
2.10723e-07
9.34029e-09
-5.37664e-08
2.06636e-07
-1.39449e-07
-5.31696e-08
2.06614e-07
-2.93831e-07
-5.09801e-08
2.10659e-07
-4.5628e-07
-4.70169e-08
2.15612e-07
-6.20461e-07
-4.13705e-08
2.12649e-07
-7.59217e-07
-3.32033e-08
1.80442e-07
-8.34827e-07
-2.39934e-08
1.09308e-07
-7.93953e-07
-1.40951e-08
-1.59307e-08
-6.89668e-07
-9.92113e-09
-8.45239e-08
-5.59238e-07
-1.35322e-08
-1.10587e-07
-4.30777e-07
-1.49979e-08
-1.09699e-07
-3.16271e-07
-1.57358e-08
-9.68891e-08
-2.18578e-07
-1.48424e-08
-8.17526e-08
-1.35015e-07
-1.35303e-08
-6.91482e-08
-6.33208e-08
-1.23257e-08
-5.84209e-08
-1.09829e-08
-1.15063e-08
-3.97862e-08
-1.04407e-08
5.48821e-10
5.11451e-09
-1.27164e-08
1.51896e-09
3.45658e-08
-1.40827e-08
-2.21527e-08
7.49434e-08
-1.55444e-08
-3.2412e-08
1.2183e-07
-1.80662e-08
-3.77498e-08
1.77534e-07
-2.18513e-08
-4.47296e-08
2.46653e-07
-2.66956e-08
-5.56304e-08
3.34065e-07
-3.19079e-08
-7.09212e-08
4.42618e-07
-3.66272e-08
-8.89382e-08
5.68499e-07
-3.85376e-08
-1.04186e-07
6.98459e-07
-3.85822e-08
-1.0729e-07
8.00336e-07
-3.16798e-08
-8.30529e-08
8.41157e-07
-4.31722e-08
-1.53984e-08
7.67488e-07
-6.67082e-08
1.12256e-07
6.31201e-07
-8.71494e-08
1.86183e-07
4.69666e-07
-1.04114e-07
2.20679e-07
3.0946e-07
-1.1495e-07
2.25361e-07
1.57031e-07
-1.21671e-07
2.21362e-07
9.91354e-09
-1.24374e-07
2.17726e-07
-1.37326e-07
-1.2361e-07
2.1768e-07
-2.90121e-07
-1.19407e-07
2.21222e-07
-4.50946e-07
-1.11342e-07
2.25151e-07
-6.13455e-07
-9.93765e-08
2.20514e-07
-7.51309e-07
-8.1798e-08
1.86449e-07
-8.2739e-07
-6.12582e-08
1.13346e-07
-7.90289e-07
-3.86049e-08
-1.25914e-08
-6.901e-07
-2.84364e-08
-8.16742e-08
-5.59719e-07
-3.61173e-08
-1.07796e-07
-4.30412e-07
-3.68335e-08
-1.07471e-07
-3.15091e-07
-3.5783e-08
-9.52741e-08
-2.17086e-07
-3.21794e-08
-8.06669e-08
-1.33755e-07
-2.84481e-08
-6.84136e-08
-6.26436e-08
-2.55022e-08
-5.79351e-08
-1.08964e-08
-2.36462e-08
-3.96073e-08
-2.15013e-08
1.6412e-10
4.76855e-09
-1.86016e-08
1.11669e-09
3.31266e-08
-2.06129e-08
-2.18279e-08
7.21861e-08
-2.28201e-08
-3.17838e-08
1.17777e-07
-2.67228e-08
-3.69344e-08
1.7236e-07
-3.28017e-08
-4.36329e-08
2.40744e-07
-4.10471e-08
-5.40316e-08
3.28176e-07
-5.0822e-08
-6.85185e-08
4.37777e-07
-6.09134e-08
-8.53151e-08
5.65701e-07
-6.73091e-08
-9.9152e-08
6.96875e-07
-6.89686e-08
-1.00788e-07
7.89595e-07
-4.76949e-08
-7.67042e-08
8.22941e-07
-6.85023e-08
-8.01615e-09
7.49231e-07
-1.14212e-07
1.21213e-07
6.15983e-07
-1.5284e-07
1.98939e-07
4.58992e-07
-1.84e-07
2.36878e-07
3.02948e-07
-2.0371e-07
2.44804e-07
1.54283e-07
-2.15808e-07
2.42802e-07
1.06393e-08
-2.20839e-07
2.40108e-07
-1.33169e-07
-2.19806e-07
2.40004e-07
-2.82343e-07
-2.12718e-07
2.42484e-07
-4.39255e-07
-1.98721e-07
2.44291e-07
-5.97626e-07
-1.77297e-07
2.36291e-07
-7.32948e-07
-1.45162e-07
1.98686e-07
-8.09696e-07
-1.0627e-07
1.2176e-07
-7.80411e-07
-6.22207e-08
-5.6691e-09
-6.89198e-07
-4.38898e-08
-7.57597e-08
-5.57579e-07
-6.59733e-08
-1.01763e-07
-4.26335e-07
-6.52368e-08
-1.0284e-07
-3.10178e-07
-5.99961e-08
-9.19443e-08
-2.12487e-07
-5.14527e-08
-7.84176e-08
-1.30339e-07
-4.37549e-08
-6.6841e-08
-6.08277e-08
-3.81856e-08
-5.68278e-08
-1.05039e-08
-3.48785e-08
-3.90916e-08
-3.15819e-08
-4.23242e-10
4.23286e-09
-2.33891e-08
5.54662e-10
3.09401e-08
-2.60175e-08
-2.13027e-08
6.79324e-08
-2.89939e-08
-3.08185e-08
1.11282e-07
-3.43818e-08
-3.56904e-08
1.63532e-07
-4.30843e-08
-4.1967e-08
2.29666e-07
-5.55676e-08
-5.16145e-08
3.15526e-07
-7.17828e-08
-6.4899e-08
4.2505e-07
-9.06401e-08
-7.9797e-08
5.56329e-07
-1.07211e-07
-9.13773e-08
6.94332e-07
-1.16265e-07
-9.07065e-08
7.67788e-07
-5.54334e-08
-6.57169e-08
7.85683e-07
-9.15749e-08
5.17705e-09
7.14338e-07
-1.78096e-07
1.3523e-07
5.88092e-07
-2.44334e-07
2.1774e-07
4.39612e-07
-2.95497e-07
2.59978e-07
2.91113e-07
-3.27816e-07
2.72605e-07
1.49131e-07
-3.47235e-07
2.73409e-07
1.16233e-08
-3.554e-07
2.72069e-07
-1.26082e-07
-3.5396e-07
2.71859e-07
-2.68699e-07
-3.42867e-07
2.72766e-07
-4.18326e-07
-3.20636e-07
2.71542e-07
-5.68713e-07
-2.85561e-07
2.58651e-07
-6.97766e-07
-2.32715e-07
2.16607e-07
-7.73295e-07
-1.65642e-07
1.349e-07
-7.59992e-07
-8.21398e-08
6.61605e-09
-6.87417e-07
-5.1075e-08
-6.53902e-08
-5.48991e-07
-1.11936e-07
-9.24632e-08
-4.146e-07
-1.03946e-07
-9.56815e-08
-2.98828e-07
-8.89449e-08
-8.6823e-08
-2.03172e-07
-7.21686e-08
-7.49402e-08
-1.23906e-07
-5.86779e-08
-6.43428e-08
-5.74579e-08
-4.96319e-08
-5.50022e-08
-9.64398e-09
-4.4523e-08
-3.81695e-08
-4.0156e-08
-1.06986e-09
3.35056e-09
-2.6688e-08
-5.17213e-11
2.77293e-08
-2.97993e-08
-2.05969e-08
6.16099e-08
-3.33395e-08
-2.9535e-08
1.01134e-07
-3.98733e-08
-3.40328e-08
1.48582e-07
-5.08035e-08
-3.97282e-08
2.0875e-07
-6.73979e-08
-4.83381e-08
2.88085e-07
-9.11709e-08
-5.99475e-08
3.92372e-07
-1.23079e-07
-7.18475e-08
5.26182e-07
-1.61729e-07
-7.92919e-08
6.89445e-07
-2.08617e-07
-7.09116e-08
7.24831e-07
-4.97574e-08
-4.10614e-08
7.08578e-07
-9.51575e-08
1.98355e-08
6.46106e-07
-2.59367e-07
1.43742e-07