/*--------------------------------*- C++ -*----------------------------------*\
| =========                 |                                                 |
| \\      /  F ield         | OpenFOAM: The Open Source CFD Toolbox           |
|  \\    /   O peration     | Version:  2112                                  |
|   \\  /    A nd           | Website:  www.openfoam.com                      |
|    \\/     M anipulation  |                                                 |
\*---------------------------------------------------------------------------*/
FoamFile
{
    version     2.0;
    format      ascii;
    arch        "LSB;label=32;scalar=64";
    class       volVectorField;
    location    "2.5";
    object      U;
}
// * * * * * * * * * * * * * * * * * * * * * * * * * * * * * * * * * * * * * //

dimensions      [0 1 -1 0 0 0 0];

internalField   nonuniform List<vector> 
64906
(
(2.38596e-07 8.3864e-07 -1.57863e-06)
(2.52163e-06 -5.31161e-07 -1.62107e-06)
(6.18125e-06 -1.8587e-06 -1.0856e-06)
(1.00779e-05 -2.88704e-06 -4.48578e-07)
(1.41138e-05 -3.51882e-06 4.58565e-08)
(1.81159e-05 -3.93372e-06 3.72625e-07)
(2.20099e-05 -4.24826e-06 5.95544e-07)
(2.56592e-05 -4.4931e-06 7.77641e-07)
(2.88848e-05 -4.64244e-06 9.74079e-07)
(3.13899e-05 -4.50327e-06 1.27416e-06)
(3.29467e-05 -4.24477e-06 1.59897e-06)
(3.29594e-05 -3.71761e-06 1.96169e-06)
(3.12552e-05 -3.38172e-06 2.32526e-06)
(2.81177e-05 -3.09119e-06 2.70816e-06)
(2.37288e-05 -2.96235e-06 3.04435e-06)
(1.84556e-05 -2.88035e-06 3.3222e-06)
(1.25313e-05 -2.85861e-06 3.51281e-06)
(6.25278e-06 -2.85855e-06 3.61171e-06)
(-1.37768e-07 -2.8797e-06 3.61292e-06)
(-6.37024e-06 -2.92204e-06 3.51709e-06)
(-1.22029e-05 -2.9862e-06 3.33031e-06)
(-1.73406e-05 -3.11082e-06 3.05731e-06)
(-2.15554e-05 -3.28106e-06 2.72752e-06)
(-2.44835e-05 -3.61253e-06 2.35176e-06)
(-2.5955e-05 -3.98362e-06 1.99531e-06)
(-2.56906e-05 -4.54188e-06 1.63441e-06)
(-2.38736e-05 -4.80855e-06 1.29905e-06)
(-2.10924e-05 -4.93036e-06 9.54657e-07)
(-1.75964e-05 -4.71313e-06 6.31068e-07)
(-1.37443e-05 -4.22633e-06 2.06121e-07)
(-9.74169e-06 -3.31897e-06 -4.10985e-07)
(-5.8243e-06 -1.8576e-06 -1.25054e-06)
(-2.22659e-06 -1.1298e-07 -2.06291e-06)
(1.26267e-08 1.49725e-06 -2.14673e-06)
(-1.81803e-06 5.53207e-06 -2.29278e-06)
(-2.71067e-07 4.4553e-06 -6.38378e-06)
(4.63725e-06 3.03609e-06 -7.53581e-06)
(9.45221e-06 1.95003e-06 -7.73379e-06)
(1.40838e-05 1.52317e-06 -7.95264e-06)
(1.83973e-05 1.65762e-06 -8.41196e-06)
(2.24997e-05 2.26252e-06 -9.15328e-06)
(2.63695e-05 3.36685e-06 -1.01726e-05)
(3.00083e-05 5.05691e-06 -1.14825e-05)
(3.29256e-05 7.66785e-06 -1.31252e-05)
(3.48e-05 1.0956e-05 -1.50235e-05)
(3.4855e-05 1.51381e-05 -1.70735e-05)
(3.29371e-05 1.87675e-05 -1.90116e-05)
(2.95493e-05 2.19742e-05 -2.07072e-05)
(2.48475e-05 2.4369e-05 -2.20955e-05)
(1.92924e-05 2.61721e-05 -2.3161e-05)
(1.30696e-05 2.73277e-05 -2.3888e-05)
(6.50426e-06 2.79061e-05 -2.42726e-05)
(-1.78087e-07 2.79022e-05 -2.43088e-05)
(-6.69222e-06 2.73163e-05 -2.39965e-05)
(-1.28141e-05 2.61546e-05 -2.33418e-05)
(-1.82198e-05 2.43481e-05 -2.23491e-05)
(-2.27301e-05 2.19584e-05 -2.10353e-05)
(-2.58864e-05 1.87676e-05 -1.94186e-05)
(-2.75479e-05 1.51822e-05 -1.75686e-05)
(-2.72089e-05 1.10726e-05 -1.56248e-05)
(-2.50343e-05 7.9312e-06 -1.3865e-05)
(-2.17986e-05 5.54141e-06 -1.24114e-05)
(-1.7745e-05 4.22576e-06 -1.13571e-05)
(-1.32842e-05 3.79311e-06 -1.07001e-05)
(-8.3672e-06 4.32804e-06 -1.03939e-05)
(-3.27825e-06 5.8162e-06 -1.01358e-05)
(1.80644e-06 7.64113e-06 -8.64329e-06)
(2.86337e-06 8.73644e-06 -3.2676e-06)
(-3.1565e-06 1.42116e-05 -2.10285e-06)
(-2.14975e-06 1.50483e-05 -7.80384e-06)
(3.52012e-06 1.48332e-05 -9.63335e-06)
(9.05938e-06 1.48986e-05 -1.01856e-05)
(1.44114e-05 1.58218e-05 -1.06805e-05)
(1.93803e-05 1.77143e-05 -1.14544e-05)
(2.41631e-05 2.06408e-05 -1.26142e-05)
(2.88061e-05 2.48199e-05 -1.41994e-05)
(3.34129e-05 3.04887e-05 -1.62366e-05)
(3.73382e-05 3.82479e-05 -1.87545e-05)
(4.02482e-05 4.7763e-05 -2.16823e-05)
(4.05294e-05 5.94432e-05 -2.4868e-05)
(3.79656e-05 6.97829e-05 -2.78985e-05)
(3.37278e-05 7.89262e-05 -3.05581e-05)
(2.80311e-05 8.59762e-05 -3.27381e-05)
(2.15636e-05 9.13572e-05 -3.44078e-05)
(1.44199e-05 9.49024e-05 -3.55419e-05)
(6.96777e-06 9.67191e-05 -3.61388e-05)
(-6.06945e-07 9.6778e-05 -3.61889e-05)
(-8.00473e-06 9.50796e-05 -3.5692e-05)
(-1.50412e-05 9.16567e-05 -3.46578e-05)
(-2.13468e-05 8.64044e-05 -3.30887e-05)
(-2.68329e-05 7.95031e-05 -3.10113e-05)
(-3.08065e-05 7.05346e-05 -2.84604e-05)
(-3.30702e-05 6.04342e-05 -2.55511e-05)
(-3.24362e-05 4.90552e-05 -2.25108e-05)
(-2.91348e-05 3.99892e-05 -1.97694e-05)
(-2.47478e-05 3.27895e-05 -1.74984e-05)
(-1.94874e-05 2.79145e-05 -1.57896e-05)
(-1.39135e-05 2.48336e-05 -1.46193e-05)
(-7.85837e-06 2.33698e-05 -1.38534e-05)
(-1.67636e-06 2.3177e-05 -1.30431e-05)
(4.46518e-06 2.33834e-05 -1.06423e-05)
(4.71326e-06 2.19597e-05 -3.13047e-06)
(-3.98863e-06 2.32884e-05 -1.61521e-06)
(-3.15074e-06 2.53487e-05 -7.94808e-06)
(3.35316e-06 2.60551e-05 -9.99141e-06)
(9.84159e-06 2.7272e-05 -1.06123e-05)
(1.62386e-05 2.9661e-05 -1.11723e-05)
(2.23024e-05 3.3405e-05 -1.20633e-05)
(2.83681e-05 3.86958e-05 -1.34301e-05)
(3.45955e-05 4.59933e-05 -1.53487e-05)
(4.13402e-05 5.58598e-05 -1.78586e-05)
(4.75791e-05 6.96408e-05 -2.10142e-05)
(5.28886e-05 8.69101e-05 -2.47099e-05)
(5.36425e-05 0.000108766 -2.8818e-05)
(4.94818e-05 0.000127532 -3.27015e-05)
(4.3263e-05 0.000143828 -3.60915e-05)
(3.53286e-05 0.000156186 -3.88521e-05)
(2.68051e-05 0.000165622 -4.09393e-05)
(1.75659e-05 0.00017184 -4.23409e-05)
(8.06744e-06 0.000175043 -4.30735e-05)
(-1.57277e-06 0.000175167 -4.31277e-05)
(-1.10142e-05 0.000172212 -4.25031e-05)
(-2.01401e-05 0.000166245 -4.12083e-05)
(-2.84862e-05 0.000157064 -3.92276e-05)
(-3.61838e-05 0.000144987 -3.65736e-05)
(-4.20865e-05 0.000129006 -3.3295e-05)
(-4.58772e-05 0.000110653 -2.95346e-05)
(-4.46539e-05 8.92939e-05 -2.55766e-05)
(-3.88192e-05 7.27661e-05 -2.20788e-05)
(-3.19602e-05 5.98239e-05 -1.91904e-05)
(-2.43068e-05 5.1042e-05 -1.70388e-05)
(-1.68049e-05 4.51388e-05 -1.5569e-05)
(-9.04785e-06 4.16178e-05 -1.46125e-05)
(-1.45541e-06 3.98879e-05 -1.36499e-05)
(5.84165e-06 3.8911e-05 -1.0955e-05)
(5.85434e-06 3.58752e-05 -2.57584e-06)
(-4.41641e-06 3.24035e-05 -1.12346e-06)
(-3.31523e-06 3.54386e-05 -7.98561e-06)
(4.38556e-06 3.70095e-05 -1.02035e-05)
(1.21621e-05 3.94133e-05 -1.08523e-05)
(1.9991e-05 4.33802e-05 -1.14742e-05)
(2.76328e-05 4.91199e-05 -1.25237e-05)
(3.56593e-05 5.69166e-05 -1.41868e-05)
(4.44607e-05 6.7504e-05 -1.65894e-05)
(5.49516e-05 8.19584e-05 -1.97733e-05)
(6.55233e-05 0.000102974 -2.38436e-05)
(7.57987e-05 0.000130577 -2.86011e-05)
(7.74476e-05 0.000168007 -3.41322e-05)
(6.97951e-05 0.00019838 -3.928e-05)
(5.97849e-05 0.000223999 -4.37987e-05)
(4.78679e-05 0.000242859 -4.74752e-05)
(3.58359e-05 0.000257293 -5.01783e-05)
(2.30035e-05 0.000266781 -5.19644e-05)
(9.98905e-06 0.000271685 -5.28889e-05)
(-3.21159e-06 0.000271882 -5.29477e-05)
(-1.61684e-05 0.000267369 -5.21398e-05)
(-2.88857e-05 0.000258271 -5.04675e-05)
(-4.07276e-05 0.000244219 -4.78759e-05)
(-5.23819e-05 0.00022576 -4.43072e-05)
(-6.20088e-05 0.000200566 -3.98979e-05)
(-6.91996e-05 0.000170753 -3.48697e-05)
(-6.69031e-05 0.000133975 -2.94863e-05)
(-5.59323e-05 0.000107447 -2.49362e-05)
(-4.46003e-05 8.75207e-05 -2.11524e-05)
(-3.29489e-05 7.44081e-05 -1.83603e-05)
(-2.25325e-05 6.54824e-05 -1.64585e-05)
(-1.23871e-05 5.97882e-05 -1.52643e-05)
(-2.85776e-06 5.64981e-05 -1.41675e-05)
(6.11819e-06 5.4437e-05 -1.12015e-05)
(6.47639e-06 5.01011e-05 -2.01239e-06)
(-4.64249e-06 4.10145e-05 -6.84113e-07)
(-2.8666e-06 4.48138e-05 -8.18241e-06)
(6.54101e-06 4.7154e-05 -1.06383e-05)
(1.60533e-05 5.07375e-05 -1.13453e-05)
(2.57588e-05 5.63523e-05 -1.2085e-05)
(3.54598e-05 6.41694e-05 -1.33995e-05)
(4.60802e-05 7.44786e-05 -1.55252e-05)
(5.84417e-05 8.82106e-05 -1.86526e-05)
(7.46267e-05 0.000107151 -2.27675e-05)
(9.25152e-05 0.000136375 -2.80183e-05)
(0.000112796 0.000177485 -3.3762e-05)
(0.000116277 0.000240577 -4.11962e-05)
(0.000101438 0.00028706 -4.80842e-05)
(8.49295e-05 0.000324498 -5.43831e-05)
(6.67728e-05 0.000350984 -5.95715e-05)
(4.95387e-05 0.000371395 -6.31661e-05)
(3.12749e-05 0.000384772 -6.54884e-05)
(1.29263e-05 0.000391719 -6.66759e-05)
(-5.70374e-06 0.000392 -6.67428e-05)
(-2.40004e-05 0.000385608 -6.56874e-05)
(-4.2161e-05 0.000372773 -6.34926e-05)
(-5.92094e-05 0.000352868 -6.00205e-05)
(-7.70985e-05 0.000326883 -5.49449e-05)
(-9.31572e-05 0.000289929 -4.8756e-05)
(-0.000107439 0.000244103 -4.1986e-05)
(-0.000103027 0.000181731 -3.46885e-05)
(-8.18298e-05 0.000142172 -2.91653e-05)
(-6.31026e-05 0.000114259 -2.42245e-05)
(-4.54996e-05 9.68733e-05 -2.05465e-05)
(-3.11409e-05 8.50401e-05 -1.79912e-05)
(-1.78663e-05 7.7205e-05 -1.64203e-05)
(-5.75619e-06 7.24127e-05 -1.51003e-05)
(5.62318e-06 6.93495e-05 -1.17271e-05)
(6.8776e-06 6.39735e-05 -1.5193e-06)
(-4.77323e-06 4.88884e-05 -2.48858e-07)
(-1.94573e-06 5.33593e-05 -8.57212e-06)
(9.77934e-06 5.64869e-05 -1.1368e-05)
(2.15687e-05 6.13768e-05 -1.21886e-05)
(3.36477e-05 6.88862e-05 -1.31184e-05)
(4.58514e-05 7.90591e-05 -1.48151e-05)
(5.9507e-05 9.19943e-05 -1.75711e-05)
(7.60984e-05 0.000108357 -2.16526e-05)
(9.99423e-05 0.000130522 -2.68934e-05)
(0.000128854 0.000166295 -3.33077e-05)
(0.000169132 0.000223166 -3.92225e-05)
(0.000176681 0.00033051 -4.87899e-05)
(0.000146768 0.000398755 -5.74546e-05)
(0.000119827 0.000451084 -6.63371e-05)
(9.2806e-05 0.000486878 -7.38948e-05)
(6.86219e-05 0.000515003 -7.85024e-05)
(4.28275e-05 0.000533468 -8.14404e-05)
(1.70512e-05 0.000543104 -8.29221e-05)
(-9.19135e-06 0.000543491 -8.30012e-05)
(-3.49326e-05 0.000534615 -8.16751e-05)
(-6.06621e-05 0.000516878 -7.88857e-05)
(-8.47035e-05 0.000489401 -7.44193e-05)
(-0.000111508 0.00045419 -6.69838e-05)
(-0.000137962 0.000402327 -5.82181e-05)
(-0.000167268 0.000334728 -4.96789e-05)
(-0.000158294 0.000227963 -4.02266e-05)
(-0.000116783 0.000173497 -3.45591e-05)
(-8.71364e-05 0.000139174 -2.84727e-05)
(-6.16032e-05 0.000118693 -2.37236e-05)
(-4.25404e-05 0.000104405 -2.03006e-05)
(-2.54925e-05 9.43168e-05 -1.82045e-05)
(-1.01232e-05 8.7821e-05 -1.65499e-05)
(4.52448e-06 8.3661e-05 -1.25576e-05)
(7.21197e-06 7.72883e-05 -1.02267e-06)
(-4.83452e-06 5.57343e-05 2.31495e-07)
(-5.36786e-07 6.07857e-05 -9.12887e-06)
(1.4264e-05 6.47582e-05 -1.23817e-05)
(2.90463e-05 7.11312e-05 -1.33755e-05)
(4.41642e-05 8.08602e-05 -1.45717e-05)
(5.93525e-05 9.37734e-05 -1.67726e-05)
(7.60375e-05 0.00010947 -2.03349e-05)
(9.62916e-05 0.000127444 -2.56496e-05)
(0.00012705 0.000149314 -3.2161e-05)
(0.000169266 0.000187466 -4.02044e-05)
(0.000249746 0.000255981 -4.10205e-05)
(0.000267608 0.000444557 -5.07538e-05)
(0.000208001 0.000537091 -6.1652e-05)
(0.000167147 0.000603932 -7.49949e-05)
(0.000128894 0.000648976 -8.64137e-05)
(9.57439e-05 0.00068503 -9.19781e-05)
(5.93682e-05 0.000708923 -9.5497e-05)
(2.29715e-05 0.000721485 -9.72422e-05)
(-1.42124e-05 0.000722008 -9.73354e-05)
(-5.06058e-05 0.000710471 -9.57738e-05)
(-8.69936e-05 0.000687548 -9.24292e-05)
(-0.000120115 0.000652326 -8.7033e-05)
(-0.000158326 0.000607944 -7.57525e-05)
(-0.000198786 0.000541435 -6.25457e-05)
(-0.000257953 0.000449441 -5.18334e-05)
(-0.000237675 0.00026091 -4.21183e-05)
(-0.000155466 0.000196642 -4.15576e-05)
(-0.000113071 0.00015973 -3.38673e-05)
(-8.02604e-05 0.000139465 -2.79301e-05)
(-5.69068e-05 0.000123575 -2.33856e-05)
(-3.58301e-05 0.000111003 -2.06117e-05)
(-1.63649e-05 0.000102408 -1.84885e-05)
(2.69566e-06 9.69401e-05 -1.36726e-05)
(7.45619e-06 8.96338e-05 -4.2113e-07)
(-4.84382e-06 6.1262e-05 7.74167e-07)
(1.37517e-06 6.68686e-05 -9.83639e-06)
(2.01088e-05 7.18701e-05 -1.36689e-05)
(3.87479e-05 8.01681e-05 -1.48878e-05)
(5.77818e-05 9.30152e-05 -1.64043e-05)
(7.66249e-05 0.0001102 -1.91718e-05)
(9.61377e-05 0.000130812 -2.36358e-05)
(0.000117751 0.000151271 -3.03325e-05)
(0.000152266 0.00017151 -3.91754e-05)
(0.000199981 0.000199208 -4.75934e-05)
(0.000356152 0.000218265 -5.08774e-05)
(0.000399639 0.000563855 -4.70955e-05)
(0.000277963 0.000689615 -5.70926e-05)
(0.000224245 0.000776458 -7.70438e-05)
(0.000174518 0.000836155 -9.34999e-05)
(0.000130587 0.000885361 -9.9617e-05)
(8.08554e-05 0.00091828 -0.000104004)
(3.07242e-05 0.000935405 -0.000106087)
(-2.0704e-05 0.000936105 -0.00010619)
(-7.08779e-05 0.000920355 -0.00010431)
(-0.000120738 0.000888757 -0.000100113)
(-0.000164846 0.000840686 -9.41813e-05)
(-0.000214924 0.00078184 -7.78676e-05)
(-0.000268513 0.000695244 -5.80921e-05)
(-0.000390494 0.000569632 -4.83471e-05)
(-0.000342602 0.000221402 -5.2457e-05)
(-0.000184066 0.000209792 -4.91992e-05)
(-0.000137855 0.000183278 -4.10216e-05)
(-0.000100575 0.000164643 -3.28777e-05)
(-7.49894e-05 0.000146177 -2.70923e-05)
(-4.97338e-05 0.000128884 -2.35833e-05)
(-2.50632e-05 0.000116643 -2.09304e-05)
(-8.07815e-08 0.000109013 -1.50703e-05)
(7.62279e-06 0.000100606 3.11474e-07)
(-4.68273e-06 6.48473e-05 1.41353e-06)
(4.06993e-06 7.10357e-05 -1.06862e-05)
(2.79257e-05 7.69449e-05 -1.52266e-05)
(5.19372e-05 8.71531e-05 -1.67252e-05)
(7.69654e-05 0.000103348 -1.86278e-05)
(0.000102125 0.00012565 -2.20358e-05)
(0.000126074 0.000152698 -2.74158e-05)
(0.000149438 0.000177229 -3.63696e-05)
(0.000176654 0.000186341 -4.6749e-05)
(0.000144774 0.000115788 -6.83577e-05)
(0.000429049 0.000206298 -7.20836e-05)
(0.000583907 0.000813897 -2.27222e-05)
(0.000365251 0.000887386 -2.79284e-05)
(0.000309841 0.000952443 -5.02579e-05)
(0.000247362 0.0010202 -6.94917e-05)
(0.000186454 0.00107583 -7.20933e-05)
(0.000114973 0.00111585 -7.5366e-05)
(4.27618e-05 0.00113654 -7.69763e-05)
(-3.09564e-05 0.00113744 -7.706e-05)
(-0.000103237 0.00111853 -7.56189e-05)
(-0.000174952 0.00108024 -7.24864e-05)
(-0.000236281 0.00102618 -7.00684e-05)
(-0.000299636 0.000959586 -5.09579e-05)
(-0.0003557 0.000894542 -2.88123e-05)
(-0.000578639 0.000817834 -2.42485e-05)
(-0.000416511 0.000209565 -7.43539e-05)
(-0.000126977 0.000133938 -6.9372e-05)
(-0.000162303 0.000202417 -4.83703e-05)
(-0.000131389 0.000192508 -3.91435e-05)
(-0.000103128 0.00016908 -3.13755e-05)
(-7.17719e-05 0.000145226 -2.71952e-05)
(-3.87893e-05 0.000128324 -2.39759e-05)
(-5.02002e-06 0.000118252 -1.68011e-05)
(7.27064e-06 0.000108681 1.28382e-06)
(-4.28301e-06 6.61956e-05 2.20868e-06)
(7.36419e-06 7.29269e-05 -1.17602e-05)
(3.7036e-05 7.96849e-05 -1.70612e-05)
(6.77093e-05 9.19543e-05 -1.88959e-05)
(0.000100845 0.000112465 -2.12591e-05)
(0.000135572 0.000143526 -2.51481e-05)
(0.000168612 0.000188328 -3.08151e-05)
(0.0001933 0.000248795 -3.69583e-05)
(0.000159597 0.000326311 -5.49237e-05)
(0.000164765 0.000373783 -8.38697e-05)
(0.000267406 0.000706292 6.80248e-05)
(0.000306456 0.000903848 2.89515e-05)
(0.000374014 0.00103437 1.60741e-05)
(0.000328187 0.00115058 1.63594e-05)
(0.000248421 0.00123301 1.20179e-05)
(0.000154761 0.00128784 7.80173e-06)
(5.68382e-05 0.00131461 5.93714e-06)
(-4.26815e-05 0.00131564 5.94263e-06)
(-0.000140694 0.00129095 7.8122e-06)
(-0.000234636 0.0012383 1.20387e-05)
(-0.000315004 0.00115819 1.63932e-05)
(-0.000362419 0.00104447 1.61839e-05)
(-0.000298596 0.000916359 2.86813e-05)
(-0.000262414 0.00071904 6.66057e-05)
(-0.000161173 0.00038651 -8.15199e-05)
(-0.000152861 0.00034074 -5.6135e-05)
(-0.000178244 0.000263258 -4.01709e-05)
(-0.000145395 0.000204304 -3.55253e-05)
(-0.000102305 0.000162997 -3.13611e-05)
(-5.70971e-05 0.000137801 -2.77851e-05)
(-1.18765e-05 0.000124199 -1.91378e-05)
(6.40128e-06 0.000113033 2.43027e-06)
(-3.55355e-06 6.49313e-05 3.11031e-06)
(1.15494e-05 7.15991e-05 -1.29548e-05)
(4.81806e-05 7.83897e-05 -1.90616e-05)
(8.79981e-05 9.08471e-05 -2.13108e-05)
(0.000134802 0.000111886 -2.43615e-05)
(0.000192424 0.000144373 -2.9384e-05)
(0.0002665 0.000192956 -3.66276e-05)
(0.000370864 0.000263194 -4.32535e-05)
(0.000498743 0.00036411 -4.75243e-05)
(0.000757465 0.000501471 -3.12441e-05)
(0.000783822 0.000143342 4.86946e-05)
(0.00061259 0.000309914 6.30433e-05)
(0.000681378 0.000672278 0.000126195)
(0.000614061 0.000881217 0.000183544)
(0.000492211 0.00103048 0.000215927)
(0.000352543 0.00112981 0.000226399)
(0.000212763 0.00119124 0.000228403)
(7.59578e-05 0.00122044 0.000228588)
(-5.93844e-05 0.00122141 0.000228657)
(-0.000196123 0.00119418 0.000228611)
(-0.000335787 0.00113487 0.000226766)
(-0.000475231 0.00103793 0.00021655)
(-0.000596909 0.000891478 0.000184708)
(-0.0006641 0.000685831 0.000127978)
(-0.000593427 0.000326357 6.60402e-05)
(-0.000771874 0.000146937 5.12083e-05)
(-0.000752355 0.000505314 -3.03245e-05)
(-0.000488615 0.000373725 -4.90252e-05)
(-0.000354875 0.000275353 -4.66903e-05)
(-0.000241898 0.000207722 -4.21308e-05)
(-0.000156027 0.000163084 -3.6839e-05)
(-8.53653e-05 0.00013667 -3.23887e-05)
(-2.29319e-05 0.000122693 -2.20309e-05)
(4.03769e-06 0.000111393 3.84228e-06)
(-3.10861e-06 6.09956e-05 3.91876e-06)
(1.49626e-05 6.70295e-05 -1.4073e-05)
(5.75717e-05 7.28976e-05 -2.09626e-05)
(0.000104539 8.3393e-05 -2.3615e-05)
(0.000160709 0.000100462 -2.72979e-05)
(0.000231165 0.000125127 -3.3389e-05)
(0.000322544 0.000157689 -4.20372e-05)
(0.000447128 0.000195691 -5.07253e-05)
(0.000599275 0.000228601 -5.54599e-05)
(0.000825877 0.000244611 -4.56044e-05)
(0.000932236 0.000123553 -2.02879e-05)
(0.000919308 0.000306193 2.38023e-05)
(0.000900084 0.00049686 0.00013733)
(0.000770743 0.000637432 0.000210573)
(0.000607738 0.000746408 0.0002482)
(0.000429257 0.000819687 0.000263375)
(0.000256602 0.000866038 0.000267425)
(9.06573e-05 0.000888431 0.000268261)
(-7.2223e-05 0.000889224 0.000268328)
(-0.000238049 0.000868431 0.000267624)
(-0.000410486 0.000823721 0.000263738)
(-0.000588598 0.000752115 0.000248834)
(-0.000751474 0.000644778 0.000211805)
(-0.000880956 0.000505302 0.000139351)
(-0.000900842 0.000314681 2.74359e-05)
(-0.000918923 0.000127206 -1.79578e-05)
(-0.000816972 0.000252016 -4.51645e-05)
(-0.000588462 0.000238105 -5.71583e-05)
(-0.000430427 0.000207121 -5.45655e-05)
(-0.000296277 0.000171638 -4.82747e-05)
(-0.00019138 0.000142912 -4.19316e-05)
(-0.000105512 0.000123973 -3.65868e-05)
(-3.05233e-05 0.000113354 -2.45791e-05)
(2.91548e-06 0.000103535 5.17722e-06)
(-2.80472e-06 5.48205e-05 4.58452e-06)
(1.77783e-05 6.00549e-05 -1.5031e-05)
(6.55154e-05 6.48126e-05 -2.25922e-05)
(0.000118276 7.31082e-05 -2.55705e-05)
(0.000181458 8.62309e-05 -2.97777e-05)
(0.00026035 0.000104426 -3.68748e-05)
(0.000361548 0.000126935 -4.7232e-05)
(0.000495082 0.000151724 -5.92819e-05)
(0.000654619 0.000172256 -6.91672e-05)
(0.000850624 0.000188389 -6.95328e-05)
(0.000985086 0.000158521 -5.17917e-05)
(0.00105215 0.000247601 6.19901e-06)
(0.00102812 0.000360984 0.000123619)
(0.000876446 0.000455301 0.000194394)
(0.000686298 0.00053012 0.000229929)
(0.000480836 0.000579937 0.000239478)
(0.000286415 0.000611966 0.000239849)
(0.000100721 0.000627497 0.000238834)
(-8.08077e-05 0.000628148 0.000238867)
(-0.000266363 0.00061392 0.000239945)
(-0.000460537 0.000583191 0.000239667)
(-0.000665611 0.000534641 0.000230314)
(-0.000855752 0.000461018 0.000195318)
(-0.00100782 0.000367563 0.000125323)
(-0.00103445 0.000254728 9.5398e-06)
(-0.000972294 0.000163852 -4.98024e-05)
(-0.000840355 0.000195161 -6.90016e-05)
(-0.000642595 0.00018067 -7.08743e-05)
(-0.000476967 0.000162044 -6.33294e-05)
(-0.000333145 0.000139696 -5.39682e-05)
(-0.000216981 0.000120756 -4.62024e-05)
(-0.000120717 0.000107643 -3.9972e-05)
(-3.61326e-05 9.99889e-05 -2.65422e-05)
(2.18745e-06 9.17106e-05 6.54162e-06)
(-2.73003e-06 4.67915e-05 5.10324e-06)
(1.96689e-05 5.10913e-05 -1.5808e-05)
(7.12056e-05 5.46178e-05 -2.39135e-05)
(0.000127891 6.05726e-05 -2.71402e-05)
(0.000195268 6.97314e-05 -3.17328e-05)
(0.000278335 8.19147e-05 -3.95714e-05)
(0.000383494 9.61151e-05 -5.1176e-05)
(0.000519147 0.000111062 -6.53853e-05)
(0.000680351 0.000123059 -7.80653e-05)
(0.000866815 0.000135506 -8.17505e-05)
(0.0010191 0.000136893 -6.41101e-05)
(0.00112482 0.000190468 -9.19405e-06)
(0.0011026 0.000259893 0.000105544)
(0.0009384 0.000318296 0.000169241)
(0.000733937 0.000365594 0.00019911)
(0.000513383 0.000398153 0.000203222)
(0.000305752 0.000419583 0.000200353)
(0.00010739 0.000430159 0.000197716)
(-8.62857e-05 0.000430724 0.000197717)
(-0.000284529 0.000421263 0.000200352)
(-0.000491962 0.000400905 0.000203245)
(-0.000712205 0.000369334 0.000199254)
(-0.000916834 0.000322917 0.000169865)
(-0.00108163 0.000265148 0.000106929)
(-0.00110722 0.000196243 -6.08927e-06)
(-0.00100613 0.000142277 -6.22694e-05)
(-0.000855487 0.000141927 -8.13232e-05)
(-0.000667155 0.000130694 -7.98751e-05)
(-0.000499526 0.000120274 -6.96379e-05)
(-0.0003529 0.000107449 -5.82889e-05)
(-0.000231592 9.6295e-05 -4.94616e-05)
(-0.00012965 8.8295e-05 -4.25452e-05)
(-3.89999e-05 8.34226e-05 -2.80142e-05)
(2.21547e-06 7.69465e-05 7.55212e-06)
(-2.74305e-06 3.75624e-05 5.50289e-06)
(2.09378e-05 4.09218e-05 -1.64058e-05)
(7.52335e-05 4.34142e-05 -2.49256e-05)
(0.000134629 4.75107e-05 -2.8329e-05)
(0.000204691 5.37289e-05 -3.31894e-05)
(0.000290112 6.18677e-05 -4.15425e-05)
(0.000397205 7.12175e-05 -5.40081e-05)
(0.000533542 8.12347e-05 -6.96101e-05)
(0.000695707 9.02314e-05 -8.39907e-05)
(0.000880886 0.000101375 -8.95159e-05)
(0.00104446 0.000111767 -7.17981e-05)
(0.00116877 0.000145942 -1.85207e-05)
(0.00114856 0.00018869 9.45834e-05)
(0.000978247 0.0002262 0.0001541)
(0.000765129 0.000257082 0.000180338)
(0.000535004 0.000278829 0.000181101)
(0.000318759 0.000293331 0.000176163)
(0.000111997 0.00030063 0.000172508)
(-8.98139e-05 0.000301163 0.000172494)
(-0.000296492 0.000294908 0.000176115)
(-0.000512617 0.000281386 0.00018104)
(-0.000742539 0.000260508 0.000180356)
(-0.00095599 0.000230361 0.00015456)
(-0.00112705 0.000193381 9.58096e-05)
(-0.00115098 0.000151064 -1.54198e-05)
(-0.00103118 0.000116931 -7.00473e-05)
(-0.000868768 0.000107229 -8.91649e-05)
(-0.000681514 9.69334e-05 -8.59031e-05)
(-0.000512548 8.91439e-05 -7.40294e-05)
(-0.000364653 8.08007e-05 -6.13958e-05)
(-0.000240495 7.38278e-05 -5.18264e-05)
(-0.000135114 6.88657e-05 -4.44184e-05)
(-4.04965e-05 6.57585e-05 -2.90867e-05)
(2.4554e-06 6.08311e-05 8.2782e-06)
(-2.8167e-06 2.75499e-05 5.77143e-06)
(2.16846e-05 2.99375e-05 -1.68473e-05)
(7.7813e-05 3.15288e-05 -2.56587e-05)
(0.000138946 3.40844e-05 -2.91776e-05)
(0.000210649 3.79619e-05 -3.4203e-05)
(0.000297422 4.30529e-05 -4.28638e-05)
(0.000405632 4.90043e-05 -5.5827e-05)
(0.000542605 5.57147e-05 -7.21748e-05)
(0.000706161 6.26436e-05 -8.74144e-05)
(0.000892833 7.19612e-05 -9.37362e-05)
(0.00106318 8.29349e-05 -7.61789e-05)
(0.00119682 0.000104735 -2.36042e-05)
(0.00117785 0.000131118 8.94849e-05)
(0.00100386 0.000154694 0.000147413)
(0.00078545 0.000174272 0.000172082)
(0.00054941 0.000188471 0.000171355)
(0.000327583 0.00019809 0.000165504)
(0.000115254 0.00020308 0.0001614)
(-9.2026e-05 0.000203618 0.000161382)
(-0.000304325 0.000199676 0.00016544)
(-0.000526133 0.000191016 0.000171267)
(-0.000762116 0.000177635 0.000172059)
(-0.000981042 0.000158696 0.000147817)
(-0.00115596 0.000135546 9.06371e-05)
(-0.00117881 0.000109429 -2.06489e-05)
(-0.00104957 8.77308e-05 -7.45142e-05)
(-0.000880158 7.71413e-05 -9.34737e-05)
(-0.000691222 6.83346e-05 -8.94408e-05)
(-0.000520555 6.2191e-05 -7.67486e-05)
(-0.000371579 5.66116e-05 -6.3435e-05)
(-0.000245657 5.22721e-05 -5.34406e-05)
(-0.000138199 4.93043e-05 -4.57313e-05)
(-4.11255e-05 4.74281e-05 -2.98648e-05)
(2.79192e-06 4.39908e-05 8.71706e-06)
(-2.89019e-06 1.71425e-05 5.92045e-06)
(2.20774e-05 1.85626e-05 -1.71452e-05)
(7.929e-05 1.938e-05 -2.61354e-05)
(0.000141462 2.06663e-05 -2.97207e-05)
(0.000214175 2.26706e-05 -3.48369e-05)
(0.00030185 2.54197e-05 -4.36634e-05)
(0.00041094 2.8882e-05 -5.68892e-05)
(0.000548739 3.3175e-05 -7.36096e-05)
(0.000713701 3.83216e-05 -8.92633e-05)
(0.000902156 4.52587e-05 -9.59256e-05)
(0.00107625 5.38576e-05 -7.841e-05)
(0.00121425 6.65324e-05 -2.5868e-05)
(0.00119582 8.08896e-05 8.77524e-05)
(0.0010197 9.39526e-05 0.000145447)
(0.000798158 0.000104843 0.000169707)
(0.000558595 0.000113033 0.000168515)
(0.000333318 0.000118687 0.000162366)
(0.000117521 0.000121791 0.000158116)
(-9.3209e-05 0.000122368 0.000158098)
(-0.000309042 0.000120382 0.000162304)
(-0.000534431 0.00011573 0.000168427)
(-0.000774122 0.000108365 0.000169682)
(-0.000996405 9.80562e-05 0.000145841)
(-0.00117367 8.53178e-05 8.88831e-05)
(-0.00119613 7.10465e-05 -2.29746e-05)
(-0.00106252 5.83052e-05 -7.6817e-05)
(-0.000889221 4.97703e-05 -9.57526e-05)
(-0.00069836 4.29834e-05 -9.14015e-05)
(-0.000526071 3.81641e-05 -7.83216e-05)
(-0.000375975 3.44029e-05 -6.46732e-05)
(-0.000248772 3.1741e-05 -5.44576e-05)
(-0.000139977 3.00573e-05 -4.65833e-05)
(-4.1422e-05 2.90198e-05 -3.03964e-05)
(3.04072e-06 2.69773e-05 8.93832e-06)
(-2.9478e-06 6.61279e-06 5.95031e-06)
(2.21747e-05 7.05717e-06 -1.73094e-05)
(7.97891e-05 7.13029e-06 -2.63713e-05)
(0.000142393 7.2142e-06 -2.99799e-05)
(0.000215602 7.45492e-06 -3.51244e-05)
(0.000303866 8.00998e-06 -4.4e-05)
(0.000413699 9.14347e-06 -5.72999e-05)
(0.000552451 1.11312e-05 -7.41153e-05)
(0.000718638 1.44015e-05 -8.98748e-05)
(0.000908454 1.87717e-05 -9.6622e-05)
(0.00108391 2.44078e-05 -7.9133e-05)
(0.00122276 2.91478e-05 -2.65169e-05)
(0.00120416 3.28167e-05 8.75255e-05)
(0.00102706 3.629e-05 0.000145498)
(0.000804157 3.91341e-05 0.000169884)
(0.00056312 4.16795e-05 0.000168736)
(0.000336296 4.36074e-05 0.000162596)
(0.000118925 4.49454e-05 0.000158345)
(-9.34258e-05 4.5589e-05 0.000158329)
(-0.000310919 4.54973e-05 0.000162534)
(-0.000538019 4.46698e-05 0.000168649)
(-0.000779427 4.30082e-05 0.000169858)
(-0.00100335 4.07233e-05 0.000145882)
(-0.00118189 3.74779e-05 8.8631e-05)
(-0.00120474 3.36661e-05 -2.36879e-05)
(-0.0010703 2.85872e-05 -7.76259e-05)
(-0.000895577 2.26789e-05 -9.65552e-05)
(-0.000703276 1.80821e-05 -9.2134e-05)
(-0.000529653 1.46758e-05 -7.89606e-05)
(-0.000378473 1.26081e-05 -6.52286e-05)
(-0.000250357 1.14429e-05 -5.49533e-05)
(-0.000140798 1.08909e-05 -4.70279e-05)
(-4.15505e-05 1.06124e-05 -3.07107e-05)
(3.16442e-06 9.97234e-06 8.95851e-06)
(-2.98976e-06 -3.75076e-06 5.86257e-06)
(2.19753e-05 -4.28132e-06 -1.73414e-05)
(7.9308e-05 -4.98589e-06 -2.63693e-05)
(0.000141732 -6.17798e-06 -2.99601e-05)
(0.000214913 -7.83089e-06 -3.50745e-05)
(0.000303433 -9.66957e-06 -4.38881e-05)
(0.000413863 -1.11231e-05 -5.70843e-05)
(0.000553682 -1.16876e-05 -7.37366e-05)
(0.000720947 -1.03168e-05 -8.92998e-05)
(0.000911812 -8.18897e-06 -9.58857e-05)
(0.00108648 -4.3964e-06 -7.84385e-05)
(0.00122274 -7.33996e-06 -2.57368e-05)
(0.00120305 -1.50752e-05 8.85327e-05)
(0.00102602 -2.1792e-05 0.000147187)
(0.000803505 -2.75173e-05 0.000172145)
(0.000563029 -3.08888e-05 0.000171488)
(0.000336552 -3.2841e-05 0.000165623)
(0.000119491 -3.33037e-05 0.000161512)
(-9.26513e-05 -3.25418e-05 0.000161497)
(-0.000309935 -3.06008e-05 0.000165574)
(-0.000536885 -2.73506e-05 0.000171411)
(-0.000778032 -2.29441e-05 0.000172116)
(-0.00100194 -1.66278e-05 0.000147538)
(-0.0011808 -9.76976e-06 8.95697e-05)
(-0.00120506 -2.48829e-06 -2.30306e-05)
(-0.0010733 -2.81374e-07 -7.70632e-05)
(-0.00089933 -4.69436e-06 -9.59624e-05)
(-0.000705951 -7.42172e-06 -9.16983e-05)
(-0.000531236 -9.3887e-06 -7.87114e-05)
(-0.000379029 -9.52251e-06 -6.51333e-05)
(-0.00025039 -8.93829e-06 -5.49477e-05)
(-0.000140649 -8.17028e-06 -4.70772e-05)
(-4.14995e-05 -7.5869e-06 -3.08153e-05)
(3.17093e-06 -6.8052e-06 8.77511e-06)
(-3.03538e-06 -1.36662e-05 5.65271e-06)
(2.14202e-05 -1.51842e-05 -1.72369e-05)
(7.77223e-05 -1.67919e-05 -2.61211e-05)
(0.000139252 -1.95271e-05 -2.96488e-05)
(0.000211738 -2.35475e-05 -3.46653e-05)
(0.000299997 -2.85257e-05 -4.3288e-05)
(0.000410693 -3.35817e-05 -5.61652e-05)
(0.000551706 -3.77814e-05 -7.23109e-05)
(0.000720181 -3.88091e-05 -8.72802e-05)
(0.000912727 -3.827e-05 -9.3309e-05)
(0.00108444 -3.2706e-05 -7.58246e-05)
(0.00121319 -4.41163e-05 -2.26609e-05)
(0.00119099 -6.67201e-05 9.21069e-05)
(0.00101536 -8.67139e-05 0.000152531)
(0.000795318 -0.000103543 0.000179062)
(0.000557818 -0.000114269 0.000179823)
(0.000333842 -0.000120909 0.000174781)
(0.000119202 -0.000123471 0.000171053)
(-9.0718e-05 -0.000122516 0.000171021)
(-0.000305704 -0.000118091 0.000174672)
(-0.000530395 -0.000109804 0.000179642)
(-0.000768958 -9.77351e-05 0.000178886)
(-0.00099089 -8.0182e-05 0.00015269)
(-0.00116893 -6.00877e-05 9.29244e-05)
(-0.00119619 -3.83963e-05 -2.01997e-05)
(-0.001072 -2.83639e-05 -7.46712e-05)
(-0.000900933 -3.48863e-05 -9.36213e-05)
(-0.000705906 -3.63686e-05 -8.9889e-05)
(-0.000530089 -3.63701e-05 -7.74551e-05)
(-0.000376894 -3.34754e-05 -6.43237e-05)
(-0.000248296 -3.01247e-05 -5.44012e-05)
(-0.000139163 -2.73139e-05 -4.6704e-05)
(-4.10884e-05 -2.54709e-05 -3.0699e-05)
(3.11024e-06 -2.31428e-05 8.36204e-06)
(-3.14363e-06 -2.27323e-05 5.31152e-06)
(2.03482e-05 -2.52041e-05 -1.69887e-05)
(7.47007e-05 -2.78205e-05 -2.56131e-05)
(0.00013435 -3.2364e-05 -2.90232e-05)
(0.00020504 -3.92796e-05 -3.38503e-05)
(0.000291917 -4.83305e-05 -4.20948e-05)
(0.000401874 -5.84408e-05 -5.43218e-05)
(0.000543832 -6.80888e-05 -6.93721e-05)
(0.00071405 -7.28743e-05 -8.29862e-05)
(0.000911608 -7.39424e-05 -8.7499e-05)
(0.00107794 -5.77796e-05 -7.026e-05)
(0.0011903 -7.97538e-05 -1.62262e-05)
(0.00116293 -0.000126443 9.99464e-05)
(0.000990662 -0.000165855 0.000164125)
(0.000776385 -0.000198276 0.000193895)
(0.000545615 -0.000219074 0.000197685)
(0.000327205 -0.000232014 0.000194452)
(0.000117811 -0.000237349 0.000191578)
(-8.72433e-05 -0.000236092 0.000191499)
(-0.000297118 -0.000228272 0.000194196)
(-0.000516502 -0.000213079 0.000197249)
(-0.000748823 -0.000190331 0.000193362)
(-0.00096563 -0.000156836 0.000163839)
(-0.0011412 -0.000117217 0.000100299)
(-0.00117446 -7.22095e-05 -1.41741e-05)
(-0.00106664 -5.27564e-05 -6.94761e-05)
(-0.000900719 -7.01315e-05 -8.8216e-05)
(-0.000700778 -7.03128e-05 -8.59292e-05)
(-0.000523439 -6.69758e-05 -7.47519e-05)
(-0.000369687 -5.92332e-05 -6.25908e-05)
(-0.000242389 -5.16731e-05 -5.3202e-05)
(-0.000135295 -4.59068e-05 -4.58394e-05)
(-3.97887e-05 -4.23535e-05 -3.03351e-05)
(3.17529e-06 -3.8436e-05 7.6304e-06)
(-3.33388e-06 -3.05135e-05 4.84439e-06)