/*--------------------------------*- C++ -*----------------------------------*\
| =========                 |                                                 |
| \\      /  F ield         | OpenFOAM: The Open Source CFD Toolbox           |
|  \\    /   O peration     | Version:  2112                                  |
|   \\  /    A nd           | Website:  www.openfoam.com                      |
|    \\/     M anipulation  |                                                 |
\*---------------------------------------------------------------------------*/
FoamFile
{
    version     2.0;
    format      ascii;
    arch        "LSB;label=32;scalar=64";
    class       volScalarField;
    location    "4.6";
    object      epsilon;
}
// * * * * * * * * * * * * * * * * * * * * * * * * * * * * * * * * * * * * * //

dimensions      [0 2 -3 0 0 0 0];

internalField   nonuniform List<scalar> 
64906
(
9.22229e-05
0.000111285
0.000124282
0.000131281
0.000134796
0.000136472
0.000137222
0.000137524
0.000137619
0.00013762
0.000137583
0.000137535
0.000137497
0.00013747
0.000137451
0.000137436
0.000137424
0.000137415
0.000137413
0.000137417
0.000137428
0.000137441
0.000137458
0.000137479
0.000137502
0.000137506
0.000137429
0.000137153
0.000136429
0.000134774
0.000131273
0.000124283
0.000111293
9.22306e-05
0.000111303
0.000212728
0.000278234
0.00031623
0.000337546
0.00034892
0.000354547
0.000356999
0.000357789
0.000357771
0.000357425
0.000357013
0.000356666
0.000356428
0.000356285
0.000356201
0.000356153
0.00035613
0.00035613
0.000356152
0.000356198
0.000356274
0.000356394
0.000356564
0.000356728
0.000356691
0.000355993
0.000353745
0.000348367
0.000337224
0.000316084
0.000278198
0.000212741
0.000111327
0.000124327
0.000278277
0.000381781
0.000444597
0.000481479
0.000502002
0.00051246
0.00051697
0.000518142
0.000517601
0.00051637
0.000515074
0.000514039
0.000513358
0.000512965
0.000512745
0.000512622
0.000512567
0.000512569
0.000512627
0.000512747
0.000512951
0.000513285
0.000513803
0.000514423
0.000514735
0.000513795
0.000509876
0.000500164
0.000480354
0.000444027
0.00038157
0.00027826
0.000124368
0.000131347
0.000316324
0.000444652
0.000525015
0.000573549
0.000601093
0.000615059
0.000620521
0.000620921
0.00061863
0.000615337
0.000612196
0.000609794
0.000608274
0.000607422
0.000606935
0.000606653
0.000606523
0.000606526
0.00060666
0.000606938
0.000607396
0.000608152
0.00060941
0.000611158
0.000612791
0.00061286
0.000608753
0.000596537
0.000570675
0.000523475
0.000444
0.000316178
0.000131396
0.000134875
0.000337684
0.000481606
0.000573651
0.000630104
0.00066215
0.000677621
0.000682084
0.000679587
0.00067331
0.000665904
0.000659384
0.000654645
0.00065182
0.000650321
0.00064943
0.000648882
0.000648621
0.000648625
0.000648892
0.000649434
0.000650288
0.000651662
0.000654147
0.000658038
0.00066262
0.000665946
0.000664284
0.00065247
0.000623925
0.000570244
0.000480073
0.000337246
0.000134914
0.000136557
0.000349101
0.000502239
0.000601397
0.000662442
0.000696322
0.000710754
0.000711359
0.000702598
0.000688697
0.000673989
0.00066213
0.000654065
0.000649687
0.000647594
0.000646214
0.000645284
0.00064483
0.000644835
0.000645298
0.000646224
0.000647565
0.000649524
0.000653525
0.000660631
0.000670268
0.00068029
0.000685142
0.000677823
0.000650636
0.000594814
0.000499181
0.000348128
0.000136561
0.00013731
0.000354788
0.000512902
0.00061579
0.00067864
0.000711753
0.000722213
0.000715152
0.00069513
0.000667875
0.000641212
0.000622666
0.000611321
0.000606095
0.000604121
0.000602331
0.000600956
0.000600279
0.000600285
0.000600974
0.000602349
0.000604109
0.000605963
0.00061083
0.000621213
0.000637433
0.000659062
0.000676529
0.000679285
0.000658149
0.000604376
0.000507521
0.000352975
0.000137244
0.00013762
0.000357349
0.000517789
0.000622089
0.000684635
0.000714733
0.000718224
0.000698853
0.000660327
0.000610172
0.000564074
0.000542011
0.000531508
0.000528438
0.000528409
0.000526616
0.000524969
0.000524173
0.00052418
0.000524989
0.000526643
0.000528422
0.000528366
0.000531153
0.000540823
0.000560679
0.000601624
0.000641499
0.000661951
0.000652096
0.000604168
0.000509313
0.000354396
0.000137445
0.00013773
0.000358333
0.000519601
0.000623956
0.000684928
0.000710563
0.000704755
0.00066827
0.000601022
0.000509467
0.000426693
0.000421552
0.000426751
0.00043245
0.000436844
0.000436076
0.000434892
0.000434329
0.000434336
0.000434913
0.000436109
0.00043688
0.000432447
0.00042659
0.000420844
0.000424266
0.000501963
0.00058275
0.00063125
0.000637801
0.000598514
0.000507623
0.000354092
0.000137422
0.000137754
0.000358616
0.000520037
0.000623929
0.000683068
0.000704232
0.000688906
0.000632883
0.000525322
0.000356058
0.000196988
0.000267198
0.000318749
0.000340973
0.000350339
0.000352013
0.000352196
0.000352181
0.000352187
0.000352216
0.000352046
0.000350386
0.000341022
0.000318774
0.00026711
0.000196301
0.000350662
0.000508201
0.000596222
0.000621763
0.000591596
0.000504938
0.000353234
0.000137319
0.000137748
0.000358676
0.000520111
0.000623686
0.000681754
0.00070034
0.00067934
0.00061004
0.000466697
0.000208955
0.000158917
0.00024597
0.000278613
0.000289035
0.000292755
0.000293914
0.000294204
0.000294208
0.000293926
0.000292778
0.000289071
0.000278667
0.000246043
0.000158948
0.000206619
0.00045087
0.000573751
0.000612186
0.000587473
0.000503271
0.000352661
0.000137237
0.000137736
0.000358732
0.000520311
0.000624069
0.000682396
0.00070162
0.000682809
0.000621544
0.000507701
0.000333894
0.000182223
0.000220772
0.000259148
0.000274984
0.000279005
0.000282885
0.000284192
0.000284454
0.000284454
0.000284191
0.000282885
0.000279
0.000274976
0.000259116
0.000220583
0.000181469
0.000328563
0.000490697
0.000584893
0.000615455
0.00058853
0.000503638
0.000352763
0.000137213
0.000137728
0.000358845
0.000520735
0.000625099
0.000684628
0.000706375
0.000693155
0.000644812
0.000561047
0.000449497
0.00034651
0.000308661
0.000289617
0.000282661
0.000279958
0.000280259
0.000280475
0.000280487
0.000280483
0.000280465
0.00028024
0.000279921
0.000282585
0.00028942
0.000308018
0.000344292
0.000442373
0.000543076
0.000607698
0.00062552
0.000593026
0.000505568
0.000353423
0.000137272
0.000137723
0.000358991
0.000521275
0.000626421
0.000687458
0.000712091
0.000704341
0.00066616
0.000600115
0.000514177
0.000426866
0.000360053
0.000313334
0.000292152
0.000284222
0.000281815
0.000281074
0.000280834
0.000280828
0.000281056
0.000281783
0.000284164
0.000292037
0.000313053
0.00035919
0.000424022
0.000506233
0.000581501
0.0006286
0.000636366
0.00059842
0.000508035
0.000354296
0.000137347
0.000137718
0.000359128
0.00052179
0.000627664
0.000690039
0.000717029
0.000713238
0.000681276
0.000623908
0.000547229
0.00046304
0.000385834
0.000327249
0.000298884
0.000287795
0.000283947
0.000282662
0.000282252
0.000282243
0.000282636
0.000283904
0.000287725
0.000298751
0.000326934
0.000384874
0.000459935
0.00053889
0.000604888
0.000643351
0.000644929
0.000603022
0.000510242
0.000355092
0.000137406
0.00013771
0.000359231
0.000522191
0.000628622
0.000691972
0.000720567
0.000719218
0.000690608
0.000637138
0.00056363
0.000479546
0.000397979
0.000334306
0.000302628
0.000289943
0.000285398
0.000283834
0.000283314
0.0002833
0.000283801
0.000285348
0.000289866
0.000302488
0.000333975
0.00039697
0.000476318
0.000555081
0.000617859
0.000652406
0.000650625
0.000606263
0.000511848
0.000355669
0.000137438
0.000137699
0.000359291
0.000522453
0.00062924
0.000693191
0.000722721
0.000722689
0.000695704
0.000643855
0.000571336
0.000486858
0.000403361
0.000337499
0.000304386
0.000290981
0.000286121
0.000284416
0.000283816
0.000283798
0.000284375
0.000286066
0.0002909
0.000304241
0.000337158
0.000402302
0.000483568
0.000562675
0.00062442
0.00065732
0.000653896
0.000608201
0.00051283
0.000356015
0.000137444
0.000137686
0.000359313
0.000522582
0.000629544
0.000693779
0.000723733
0.000724266
0.000697928
0.000646653
0.000574395
0.00048965
0.000405411
0.000338708
0.000305058
0.000291375
0.000286387
0.000284613
0.000283956
0.000283933
0.000284567
0.000286327
0.000291291
0.00030491
0.000338363
0.000404316
0.000486333
0.000565684
0.000627146
0.000659454
0.00065537
0.000609098
0.000513291
0.000356167
0.000137434
0.000137676
0.000359304
0.000522591
0.000629564
0.00069381
0.000723778
0.000724327
0.000698007
0.000646749
0.000574503
0.000489762
0.000405514
0.000338781
0.0003051
0.000291391
0.000286383
0.000284588
0.000283898
0.000283869
0.000284536
0.00028632
0.000291305
0.00030495
0.000338436
0.000404415
0.000486449
0.000565796
0.000627245
0.000659534
0.00065543
0.00060914
0.000513313
0.000356163
0.000137417
0.000137672
0.000359272
0.000522479
0.000629298
0.000693282
0.000722852
0.000722868
0.000695937
0.000644143
0.000571668
0.000487209
0.000403682
0.000337727
0.000304519
0.000291037
0.000286117
0.000284347
0.00028366
0.000283629
0.000284293
0.000286051
0.000290949
0.000304372
0.00033739
0.000402609
0.000483934
0.000563021
0.000624719
0.000657558
0.000654074
0.000608323
0.000512897
0.000356009
0.000137401
0.000137677
0.00035921
0.00052223
0.000628707
0.000692108
0.000720767
0.000719499
0.000690988
0.000637625
0.00056421
0.000480177
0.000398519
0.000334719
0.000302871
0.000290052
0.000285406
0.000283741
0.000283108
0.00028308
0.000283687
0.00028534
0.000289966
0.000302731
0.000334399
0.000397518
0.000476985
0.000555691
0.000618364
0.000652794
0.000650906
0.000606453
0.000511954
0.000355672
0.000137384
0.000137683
0.000359107
0.000521827
0.00062775
0.000690182
0.000717253
0.000713577
0.000681768
0.000624588
0.000548096
0.000464039
0.000386673
0.000327882
0.000299244
0.000287953
0.000283957
0.000282543
0.000282025
0.000282002
0.000282493
0.000283894
0.000287873
0.000299117
0.000327597
0.000385767
0.000461007
0.000539811
0.000605589
0.000643842
0.000645262
0.000603242
0.000510366
0.000355103
0.000137348
0.000137686
0.000358954
0.000521269
0.000626435
0.000687506
0.000712214
0.000704605
0.000666653
0.000600937
0.00051538
0.000428338
0.000361308
0.000314134
0.000292501
0.000284278
0.00028166
0.000280774
0.000280444
0.000280427
0.00028073
0.0002816
0.000284199
0.000292384
0.0003139
0.000360555
0.000425628
0.000507519
0.000582314
0.000629042
0.000636599
0.000598556
0.000508113
0.000354294
0.000137285
0.000137686
0.000358747
0.000520575
0.000624858
0.000684329
0.000706088
0.000692997
0.000644963
0.000561752
0.000450929
0.00034848
0.000310299
0.00029005
0.0002823
0.000279153
0.000279143
0.000279196
0.00027913
0.000279115
0.000279151
0.000279066
0.000279031
0.000282129
0.000289825
0.000309824
0.000346469
0.000443899
0.000543616
0.000607618
0.000625249
0.000592795
0.000505437
0.000353343
0.0001372
0.000137677
0.000358458
0.000519737
0.000623158
0.000681194
0.000700241
0.000681447
0.000620538
0.000507603
0.000335246
0.000183092
0.000220988
0.000256859
0.00027123
0.00027437
0.000277766
0.000278886
0.000279075
0.000279054
0.000278809
0.000277593
0.00027402
0.000270667
0.000256225
0.00022071
0.000182333
0.000329898
0.000489908
0.000583159
0.000613768
0.000587311
0.000502941
0.000352452
0.000137125
0.000137645
0.000357955
0.000518544
0.000621222
0.000678482
0.000696424
0.000675
0.000605654
0.000463204
0.000207855
0.000154198
0.000234239
0.000262853
0.000270728
0.000273581
0.0002745
0.000274707
0.000274653
0.000274289
0.000273049
0.000269552
0.000260685
0.000231218
0.000152262
0.000204345
0.000444881
0.000567373
0.000607085
0.000583993
0.000501267
0.000351799
0.000137091
0.000137534
0.00035685
0.000516283
0.00061818
0.000675541
0.000695201
0.000678599
0.000621509
0.000513453
0.000345428
0.000189943
0.000242561
0.000281834
0.000293475
0.000295636
0.000295748
0.000295774
0.000295756
0.000295649
0.000295329
0.000294503
0.00029257
0.000287039
0.000271159
0.00023161
0.000184167
0.000332227
0.000489241
0.000580499
0.000610124
0.000583732
0.000500287
0.000351183
0.000137032
0.000137233
0.0003543
0.000511369
0.000611738
0.000669245
0.000691901
0.000683248
0.000643446
0.000571719
0.000473815
0.000381441
0.00035572
0.000338736
0.000321885
0.000312587
0.000308781
0.000307506
0.000307107
0.000306945
0.000306794
0.000306623
0.000306764
0.000308209
0.000313069
0.000325849
0.000353723
0.000445567
0.000539307
0.000599082
0.000614759
0.000582771
0.000497956
0.000349616
0.000136842
0.000136493
0.000348727
0.000501009
0.000598014
0.00065449
0.000679528
0.000678214
0.000652981
0.000605714
0.000541669
0.000474176
0.000421007
0.00037343
0.000334117
0.000315257
0.000308109
0.000305738
0.000305022
0.000304827
0.00030485
0.000305278
0.000307137
0.000313503
0.000331648
0.000372641
0.000428872
0.000501486
0.000567094
0.000607043
0.000611796
0.000575446
0.000490714
0.00034523
0.00013623
0.000134833
0.000337475
0.000480837
0.000571337
0.000624423
0.000649876
0.000653575
0.000638736
0.000607321
0.000561994
0.000507886
0.000451624
0.000395965
0.00034956
0.000327005
0.00031825
0.000315262
0.000314346
0.000314127
0.000314258
0.000315043
0.000317833
0.000326398
0.000349148
0.000397156
0.000457049
0.000518463
0.000568163
0.000595294
0.000592893
0.000555054
0.000473638
0.000335142
0.000134684
0.000131326
0.000316276
0.000444341
0.000523802
0.000570221
0.000593462
0.000599537
0.000591741
0.000571671
0.000540452
0.000500012
0.000453837
0.000406898
0.000367648
0.000346698
0.000337884
0.000334641
0.000333586
0.000333343
0.000333549
0.000334556
0.000337738
0.000346544
0.000367661
0.000407815
0.000456309
0.000503029
0.00053851
0.000555587
0.000549017
0.000513258
0.00043991
0.000314948
0.000131267
0.000124324
0.00027835
0.000381808
0.000444242
0.000480069
0.000498277
0.000504276
0.000500977
0.00048957
0.00047051
0.000444488
0.000413483
0.00038151
0.000354751
0.000339251
0.000332128
0.000329367
0.000328446
0.000328236
0.000328431
0.000329333
0.000332073
0.000339207
0.000354841
0.000381961
0.00041432
0.000444656
0.000466682
0.000475749
0.000467985
0.00043856
0.000379615
0.000277787
0.000124331
0.000111322
0.000212835
0.000278418
0.000316376
0.000337386
0.000347925
0.000351768
0.000350883
0.000346054
0.000337376
0.000324926
0.000309543
0.000293363
0.00027961
0.00027119
0.000267086
0.000265409
0.00026482
0.000264684
0.000264824
0.000265414
0.000267092
0.000271207
0.000279684
0.000293549
0.000309777
0.000324613
0.000334865
0.00033824
0.00033251
0.000314303
0.000277755
0.000212736
0.000111359
9.22469e-05
0.000111363
0.000124431
0.000131493
0.000135049
0.000136718
0.000137367
0.000137396
0.000136926
0.000135929
0.000134433
0.000132461
0.00013024
0.000128247
0.000126976
0.000126325
0.000126027
0.000125889
0.000125843
0.000125895
0.000126033
0.000126328
0.000126977
0.000128247
0.000130245
0.000132463
0.00013437
0.000135629
0.000135895
0.000134762
0.000131467
0.000124495
0.000111425
9.22807e-05
0.000124075
0.000188029
0.000233053
0.000259377
0.000273923
0.000281534
0.00028523
0.000286814
0.000287316
0.000287298
0.000287068
0.00028679
0.00028655
0.000286376
0.000286261
0.000286188
0.000286142
0.000286118
0.000286117
0.000286137
0.00028618
0.000286247
0.000286345
0.000286476
0.000286602
0.000286595
0.000286157
0.000284703
0.000281161
0.000273693
0.000259255
0.000233001
0.000188016
0.000124082
0.000188035
0.000238041
0.000288303
0.000320565
0.000339389
0.00034962
0.000354731
0.000356966
0.000357674
0.000357633
0.000357283
0.000356869
0.000356517
0.000356267
0.00035611
0.000356014
0.000355958
0.000355932
0.000355932
0.000355958
0.000356012
0.0003561
0.000356233
0.000356416
0.000356595
0.000356584
0.000355961
0.000353917
0.000349041
0.000339034
0.000320389
0.000288251
0.000238062
0.000188025
0.000233086
0.000288321
0.000349862
0.000391366
0.000416649
0.0004309
0.000438187
0.000441321
0.00044212
0.00044172
0.000440836
0.000439901
0.000439141
0.00043862
0.000438301
0.000438112
0.000438004
0.000437954
0.000437954
0.000438004
0.000438109
0.000438284
0.000438559
0.000438962
0.000439426
0.000439664
0.000439019
0.000436289
0.000429523
0.000415779
0.000390906
0.000349687
0.000288311
0.000233047
0.000259445
0.000320608
0.000391395
0.000440457
0.000471116
0.000488706
0.000497643
0.000501135
0.000501396
0.000499954
0.000497886
0.000495907
0.000494381
0.000493379
0.000492788
0.000492443
0.000492244
0.00049215
0.00049215
0.000492244
0.000492438
0.000492761
0.000493287
0.000494116
0.000495216
0.00049622
0.000496211
0.000493537
0.000485688
0.000469165
0.000439372
0.000390912
0.000320474
0.000259329
0.000274025
0.000339462
0.000416723
0.000471176
0.000505648
0.000525409
0.00053498
0.000537778
0.000536336
0.000532637
0.000528299
0.000524484
0.000521713
0.000519993
0.000519025
0.000518468
0.000518136
0.000517976
0.000517977
0.000518137
0.000518462
0.000518991
0.000519877
0.000521378
0.000523612
0.000526214
0.000528011
0.000526782
0.000519351
0.000501688
0.000468907
0.000415626
0.000339051
0.000273735
0.000281674
0.000349732
0.000431051
0.000488896
0.000525589
0.000546154
0.00055499
0.000555527
0.000550547
0.000542653
0.000534403
0.000527742
0.000523286
0.000520726
0.000519372
0.000518612
0.00051813
0.000517885
0.000517886
0.000518131
0.000518607
0.000519338
0.000520602
0.000522915
0.000526758
0.000532031
0.00053739
0.000539746
0.000534917
0.000518232
0.000484625
0.000428897
0.000348821
0.000281063
0.000285418
0.000354909
0.000438483
0.000498106
0.000535599
0.000555579
0.000562077
0.000558277
0.000547099
0.000532086
0.000517657
0.000507192
0.000501185
0.000498141
0.000496646
0.000495899
0.000495338
0.000495019
0.000495021
0.000495341
0.000495898
0.00049662
0.00049803
0.000500822
0.000506187
0.000515154
0.00052645
0.000535494
0.000536222
0.000523036
0.000490803
0.000434726
0.000353223
0.000284301
0.000287074
0.000357259
0.000441884
0.000502127
0.000539311
0.000557489
0.000560033
0.000549468
0.000528519
0.000502123
0.000478811
0.000463899
0.000458369
0.000456407
0.000455384
0.00045541
0.000455092
0.000454797
0.0004548
0.000455099
0.000455416
0.000455375
0.00045633
0.000458069
0.000462975
0.000476328
0.000496334
0.000516457
0.000526529
0.000519591
0.000490762
0.000436001
0.000354537
0.000285273
0.000287692
0.000358162
0.000443134
0.000503303
0.000539509
0.000555131
0.000552572
0.000533094
0.000498392
0.000455255
0.000424051
0.00039984
0.000401152
0.000404098
0.000404099
0.000406932
0.000407718
0.00040771
0.000407713
0.000407728
0.000406946
0.000404109
0.000404072
0.000400969
0.000399121
0.000421636
0.000449385
0.000486038
0.000509604
0.000511292
0.000487284
0.000434858
0.000354275
0.000285111
0.000287852
0.000358417
0.000443415
0.000503257
0.00053838
0.000551517
0.000544017
0.000515514
0.000466112
0.000408509
0.000467141
0.000323622
0.000340948
0.000354255
0.000354446
0.000363354
0.000366227
0.000366742
0.000366746
0.00036624
0.000363375
0.000354471
0.000354283
0.000340921
0.000323206
0.000463292
0.000402089
0.000453352
0.0004916
0.000502215
0.000483036
0.000433015
0.000353496
0.000284568
0.000287861
0.000358458
0.00044343
0.000503054
0.000537544
0.000549283
0.000539086
0.000506179
0.000455597
0.000515788
0.000315454
0.00028278
0.000301866
0.00031266
0.000313686
0.00031369
0.000313688
0.00031369
0.000313698
0.000313699
0.000312684
0.000301903
0.000282825
0.000315398
0.000503388
0.000442078
0.000481947
0.000496996
0.000480476
0.000431825
0.000352945
0.000284171
0.000287857
0.000358494
0.000443524
0.000503222
0.000537815
0.000549772
0.000540135
0.000508173
0.000453344
0.000385677
0.000401861
0.000283213
0.000315848
0.000340047
0.000365079
0.000348852
0.000343194
0.000342072
0.000342068
0.000343184
0.000348833
0.00036507
0.000340023
0.000315767
0.00028277
0.00039812
0.000379262
0.000440542
0.00048408
0.000498018
0.000480856
0.000431949
0.000352975
0.000284165
0.000287886
0.000358583
0.000443774
0.000503806
0.000539065
0.000552362
0.00054542
0.00051871
0.000472909
0.000413204
0.00035868
0.000317663
0.000307949
0.000305183
0.000307911
0.000303597
0.000301762
0.000301305
0.000301303
0.000301757
0.000303587
0.000307897
0.000305125
0.000307749
0.000316951
0.000356335
0.000407356
0.000460377
0.000494762
0.000503359
0.000483435
0.00043315
0.000353516
0.000284496
0.000287935
0.00035871
0.000444113
0.000504589
0.000540718
0.000555654
0.000551701
0.000530194
0.000492627
0.000443003
0.000390683
0.000346639
0.000317914
0.000300493
0.000293897
0.000290939
0.000289891
0.000289593
0.00028959
0.000289884
0.000290924
0.000293862
0.000300398
0.000317636
0.000345798
0.000388281
0.00043713
0.000480118
0.000506276
0.000509649
0.000486705
0.000434761
0.00035427
0.000284962
0.000287984
0.000358836
0.000444444
0.00050534
0.000542256
0.000558583
0.000556952
0.000539042
0.000506424
0.000462082
0.000411976
0.000364603
0.000328224
0.000304179
0.00029385
0.000290145
0.000288962
0.000288633
0.000288629
0.000288953
0.000290125
0.000293806
0.000304066
0.00032791
0.000363692
0.00040948
0.000456119
0.000493849
0.000515074
0.00051485
0.000489576
0.000436235
0.000354974
0.000285387
0.000288018
0.000358935
0.000444705
0.000505922
0.000543416
0.000560708
0.000560567
0.00054474
0.000514641
0.000472589
0.000423215
0.000374041
0.000334344
0.000307345
0.00029538
0.000291092
0.000289736
0.000289361
0.000289357
0.000289725
0.00029107
0.000295331
0.000307224
0.000334015
0.000373092
0.000420655
0.000466547
0.000501985
0.000520695
0.000518388
0.000491624
0.00043732
0.000355497
0.000285691
0.000288033
0.000358999
0.000444876
0.000506298
0.000544148
0.000562007
0.000562687
0.000547915
0.000518953
0.000477774
0.000428511
0.000378423
0.00033727
0.000308996
0.000296322
0.000291746
0.000290293
0.000289889
0.000289885
0.000290281
0.000291723
0.000296271
0.000308872
0.000336932
0.000377452
0.000425914
0.000471678
0.000506233
0.000523802
0.000520439
0.000492853
0.000437985
0.000355818
0.000285865
0.000288032
0.000359028
0.000444959
0.000506479
0.000544496
0.000562613
0.000563647
0.000549303
0.000520765
0.000479865
0.000430574
0.000380102
0.000338393
0.000309643
0.000296703
0.000292013
0.000290519
0.000290099
0.000290094
0.000290506
0.000291989
0.000296651
0.000309518
0.000338051
0.000379118
0.000427959
0.000473742
0.000508012
0.000525152
0.000521358
0.000493417
0.000438294
0.000355966
0.000285934
0.000288021
0.000359027
0.000444961
0.000506486
0.000544507
0.00056263
0.000563671
0.000549337
0.000520808
0.000479917
0.000430632
0.00038016
0.000338441
0.000309675
0.000296719
0.00029202
0.00029052
0.000290095
0.000290089
0.000290506
0.000291995
0.000296667
0.000309549
0.0003381
0.000379176
0.000428019
0.000473795
0.000508055
0.000525184
0.00052138
0.000493431
0.000438302
0.000355968
0.000285921
0.000288004
0.000358996
0.000444883
0.000506315
0.000544179
0.000562056
0.000562759
0.000548015
0.000519085
0.000477937
0.000428695
0.000378604
0.000337422
0.000309096
0.000296374
0.00029177
0.000290301
0.000289883
0.000289877
0.000290287
0.000291746
0.000296324
0.000308974
0.000337089
0.000377635
0.000426103
0.000471844
0.000506364
0.000523897
0.000520504
0.000492894
0.000438007
0.000355824
0.000285831
0.000287978
0.000358931
0.000444714
0.000505946
0.00054346
0.000560781
0.000560679
0.000544904
0.000514866
0.000472877
0.000423548
0.000374369
0.000334623
0.000307528
0.000295479
0.000291144
0.000289762
0.00028937
0.000289364
0.00028975
0.000291122
0.000295432
0.000307414
0.000334306
0.000373434
0.000421003
0.00046684
0.000502205
0.000520847
0.000518487
0.000491684
0.000437352
0.000355506
0.000285644
0.000287935
0.000358826
0.000444443
0.000505351
0.000542288
0.00055865
0.000557075
0.000539247
0.000506736
0.000462514
0.000412501
0.000365121
0.000328642
0.000304428
0.000293962
0.000290191
0.000288977
0.00028863
0.000288626
0.000288966
0.000290172
0.000293921
0.000304327
0.000328354
0.000364245
0.000410033
0.000456555
0.000494141
0.000515249
0.000514947
0.000489628
0.000436261
0.00035498
0.00028533
0.000287868
0.000358678
0.000444071
0.00050454
0.000540674
0.000555638
0.000551752
0.00053036
0.000492972
0.000443571
0.000391431
0.000347357
0.000318352
0.000300594
0.00029375
0.000290716
0.000289635
0.000289321
0.000289317
0.000289624
0.000290693
0.000293704
0.000300495
0.0003181
0.000346572
0.000389069
0.000437677
0.000480388
0.000506357
0.00050964
0.000486671
0.000434731
0.000354247
0.000284881
0.000287773
0.000358485
0.000443613
0.000503578
0.000538788
0.000552071
0.000545174
0.000518599
0.000473066
0.000413769
0.00035962
0.00031837
0.000307792
0.000304294
0.000306516
0.000302134
0.00030026
0.000299783
0.000299776
0.000300235
0.000302077
0.00030641
0.000304116
0.000307499
0.000317683
0.000357295
0.000407765
0.000460273
0.000494409
0.000502973
0.000483124
0.000432947
0.000353401
0.000284351
0.000287627
0.000358218
0.000443057
0.000502547
0.000536954
0.000548774
0.000539074
0.00050717
0.000452606
0.000385487
0.000403569
0.000282309
0.000313165
0.000336089
0.000360312
0.000343827
0.000338048
0.000336903
0.000336896
0.000338009
0.000343701
0.000360054
0.00033554
0.000312374
0.000281273
0.000399728
0.000378364
0.000438952
0.000482435
0.000496639
0.000479853
0.000431311
0.000352622
0.000283861
0.00028734
0.00035775
0.000442249
0.000501361
0.000535374
0.000546695
0.000536126
0.000502867
0.000451811
0.000508556
0.000297948
0.000268805
0.000284863
0.000293389
0.000293563
0.000293365
0.000293325
0.000293281
0.00029318
0.000293059
0.000292215
0.000282542
0.000265055
0.000291138
0.000491036
0.000435792
0.000477105
0.000493387
0.000477963
0.000430229
0.000352049
0.000283504
0.000286656
0.000356724
0.000440679
0.000499428
0.000533533
0.00054573
0.000537269
0.000507572
0.000456292
0.000394408
0.000430892
0.00029407
0.000303833
0.000309199
0.000304453
0.000310718
0.000313059
0.000313533
0.00031344
0.000312659
0.000309556
0.000301512
0.000302971
0.000293424
0.000280496
0.000406319
0.000378974
0.000438116
0.000480658
0.000494388
0.000477618
0.000429505
0.000351456
0.000283125
0.000285017
0.000354373
0.000437242
0.000495294
0.000529575
0.000543427
0.000538989
0.000517011
0.000478314
0.000428093
0.00038428
0.000346536
0.000331255
0.000319008
0.000309433
0.000307866
0.000307618
0.000307494
0.000307347
0.000306965
0.000305874
0.000304153
0.000307377
0.000312461
0.000323867
0.00036129
0.000407785
0.000456986
0.000488898
0.000496427
0.000476763
0.000427783
0.000349965
0.000282079
0.000281353
0.000349293
0.000430007
0.000486485
0.000520382
0.000535659
0.00053523
0.000520791
0.000493796
0.000457452
0.000418649
0.000383405
0.000354811
0.000333188
0.000317675
0.000311345
0.000309225
0.000308574
0.000308382
0.000308356
0.000308606
0.000310144
0.000316397
0.00033133
0.000354706
0.000390937
0.000433111
0.000470244
0.000492385
0.000494082
0.000471859
0.000422628
0.000345928
0.000279127
0.000273809
0.000339169
0.000415995
0.000469431
0.000501781
0.000517493
0.000519957
0.000511267
0.00049282
0.000466347
0.000434758
0.000401567
0.00037011
0.000345285
0.000327309
0.000319272
0.000316374
0.000315455
0.000315233
0.000315372
0.000316157
0.000318876
0.000326852
0.000345071
0.000371304
0.000405797
0.000441163
0.000469432
0.000484435
0.000482005
0.000458631
0.000410674
0.000336827
0.000272286
0.000259328
0.000320463
0.000390996
0.000439412
0.000468655
0.000483465
0.000487413
0.000482667
0.000470395
0.000451447
0.000427038
0.000399185
0.00037105
0.000347452
0.000331625
0.00032408
0.000321134
0.000320137
0.000319902
0.000320111
0.000321069
0.000323972
0.000331537
0.000347592
0.000371921
0.00040113
0.000429026
0.000449922
0.000459588
0.000454753
0.000432042
0.000387496
0.000319005
0.000258416
0.00023305
0.000288296
0.000349734
0.000390903
0.000415375
0.000427939
0.000432074
0.000429813
0.000422096
0.000409322
0.000391984
0.000371323
0.000349904
0.000331621
0.000319616
0.000313604
0.000311114
0.00031023
0.00031002
0.000310229
0.000311109
0.000313598
0.000319641
0.000331782
0.000350368
0.000372056
0.000392116
0.000406484
0.000412152
0.000406505
0.000386392
0.0003477
0.000287517
0.000232611
0.000188047
0.000238089
0.000288345
0.000320485
0.00033893
0.000348283
0.000351645
0.000350734
0.000346258
0.000338376
0.000327235
0.000313563
0.000299158
0.000286775
0.000278733
0.000274629
0.000272879
0.000272239
0.000272088
0.000272248
0.000272896
0.000274657
0.000278786
0.000286895
0.000299395
0.000313825
0.000326931
0.000335999
0.000339
0.000333957
0.000318101
0.000287348
0.000237751
0.00018792
0.000124099
0.000188045
0.000233087
0.000259375
0.000273725
0.00028081
0.000283379
0.00028284
0.000279714
0.000274051
0.00026589
0.000255737
0.000244981
0.000235805
0.000230125
0.000227319
0.000226131
0.000225689
0.000225582
0.000225699
0.000226148
0.000227343
0.000230163
0.00023588
0.000245123
0.00025589
0.000265663
0.000272384
0.000274524
0.000270527
0.000257954
0.000232561
0.000187908
0.000124121
0.000145189
0.000247363
0.000321389
0.000366279
0.00039213
0.000406231
0.000413347
0.000416488
0.000417481
0.000417392
0.000416841
0.000416185
0.000415617
0.000415205
0.000414938
0.000414771
0.000414673
0.000414626
0.000414625
0.000414669
0.000414762
0.000414914
0.000415142
0.00041545
0.000415755
0.000415785
0.000414935
0.000412083
0.000405315
0.000391541
0.000365946
0.000321228
0.000247306
0.000145195
0.000247366
0.000285127
0.000338695
0.000375479
0.00039792
0.00041056
0.000417075
0.000420003
0.000420954
0.000420901
0.000420417
0.000419836
0.000419334
0.00041897
0.000418735
0.000418593
0.000418511
0.000418472
0.000418472
0.000418509
0.000418587
0.000418717
0.000418913
0.000419175
0.000419422
0.000419403
0.000418564
0.000415892
0.000409699
0.000397374
0.000375191
0.000338591
0.000285129
0.000247306
0.000321426
0.000338706
0.000393075
0.000433419
0.000459292
0.000474405
0.000482357
0.000485866
0.000486794
0.000486361
0.000485357
0.000484272
0.000483369
0.00048273
0.000482325
0.000482083
0.000481945
0.000481882
0.000481882
0.000481943
0.000482074
0.000482295
0.000482641
0.000483127
0.00048366
0.000483907
0.000483141
0.000480078
0.000472714
0.000458189
0.000432808
0.000392819
0.000338649
0.000321261
0.000366366
0.000375515
0.000433446
0.000478051
0.000507426
0.000524871
0.000533975
0.000537633
0.000537973
0.000536528
0.0005344
0.000532323
0.000530679
0.000529553
0.000528859
0.000528456
0.000528228
0.000528123
0.000528122
0.000528225
0.000528443
0.000528816
0.000529427
0.000530342
0.00053149
0.000532473
0.000532354
0.000529499
0.000521501
0.000505176
0.00047674
0.000432813
0.000375266
0.000365979
0.000392273
0.000397993
0.000459369
0.000507491
0.000539546
0.00055853
0.000567975