/*--------------------------------*- C++ -*----------------------------------*\
| =========                 |                                                 |
| \\      /  F ield         | OpenFOAM: The Open Source CFD Toolbox           |
|  \\    /   O peration     | Version:  2112                                  |
|   \\  /    A nd           | Website:  www.openfoam.com                      |
|    \\/     M anipulation  |                                                 |
\*---------------------------------------------------------------------------*/
FoamFile
{
    version     2.0;
    format      ascii;
    arch        "LSB;label=32;scalar=64";
    class       volScalarField;
    location    "4.6";
    object      k;
}
// * * * * * * * * * * * * * * * * * * * * * * * * * * * * * * * * * * * * * //

dimensions      [0 2 -2 0 0 0 0];

internalField   nonuniform List<scalar> 
64906
(
0.000188469
0.000213779
0.000230245
0.000238902
0.000243209
0.000245259
0.000246178
0.00024655
0.000246667
0.000246668
0.000246622
0.000246562
0.000246513
0.000246481
0.000246456
0.000246437
0.000246422
0.000246412
0.000246409
0.000246415
0.000246427
0.000246444
0.000246465
0.000246491
0.00024652
0.000246525
0.000246431
0.000246091
0.000245204
0.00024318
0.00023889
0.000230246
0.00021379
0.00018848
0.000213803
0.000329589
0.000394423
0.000429763
0.000449032
0.000459187
0.000464191
0.000466371
0.000467074
0.000467055
0.000466743
0.00046637
0.000466056
0.000465839
0.000465708
0.000465631
0.000465587
0.000465567
0.000465567
0.000465587
0.000465629
0.000465699
0.000465808
0.000465962
0.000466111
0.000466079
0.000465458
0.000463459
0.000458677
0.00044873
0.000429621
0.000394383
0.0003296
0.000213834
0.000230302
0.000394464
0.000487322
0.000539654
0.000569313
0.000585542
0.000593756
0.000597292
0.000598209
0.00059778
0.000596804
0.000595774
0.000594948
0.000594403
0.000594087
0.000593908
0.000593809
0.000593765
0.000593766
0.000593813
0.00059391
0.000594074
0.000594343
0.000594757
0.000595251
0.0005955
0.000594763
0.000591688
0.000584057
0.000568386
0.000539168
0.000487129
0.000394442
0.000230353
0.000238983
0.00042985
0.0005397
0.000603178
0.000640032
0.000660543
0.000670854
0.000674875
0.000675167
0.000673472
0.000671026
0.000668684
0.000666885
0.000665741
0.000665097
0.000664727
0.000664514
0.000664416
0.000664418
0.000664519
0.000664729
0.000665076
0.000665647
0.000666591
0.000667898
0.000669113
0.000669167
0.000666135
0.0006571
0.000637817
0.000601947
0.000539143
0.000429705
0.000239042
0.000243305
0.000449156
0.000569416
0.00064011
0.000681684
0.000704788
0.000715837
0.000719016
0.000717237
0.000712746
0.000707419
0.000702702
0.000699253
0.000697185
0.000696082
0.000695425
0.000695022
0.000694831
0.000694834
0.000695029
0.000695427
0.000696055
0.000697066
0.000698882
0.000701709
0.000705018
0.000707406
0.000706213
0.000697736
0.000677094
0.000637486
0.000568154
0.000448744
0.00024335
0.000245362
0.000459349
0.000585732
0.000660774
0.000705003
0.000729015
0.00073915
0.000739581
0.000733437
0.00072362
0.000713141
0.000704611
0.000698762
0.000695562
0.000694021
0.000693007
0.000692327
0.000691995
0.000691999
0.000692336
0.000693013
0.000693998
0.000695439
0.000698359
0.000703506
0.000710431
0.000717568
0.000720995
0.0007158
0.000696409
0.000655807
0.000583268
0.000458455
0.000245363
0.000246285
0.000464408
0.000594109
0.000671404
0.000716578
0.000739862
0.000747164
0.000742265
0.000728246
0.000708923
0.000689731
0.000676166
0.000667764
0.000663849
0.000662351
0.000661007
0.000659982
0.000659477
0.000659482
0.000659995
0.00066102
0.00066234
0.000663746
0.000667388
0.000675072
0.000686931
0.00070251
0.00071493
0.000716854
0.000701812
0.000662886
0.000589822
0.000462762
0.000246199
0.000246667
0.000466687
0.000597946
0.000676051
0.000720861
0.000741977
0.000744434
0.000730934
0.00070368
0.000667376
0.000633068
0.000616179
0.000607972
0.000605506
0.000605431
0.000604019
0.000602735
0.000602115
0.000602121
0.000602751
0.00060404
0.000605439
0.000605446
0.000607687
0.000615241
0.000630441
0.000660961
0.000689958
0.000704564
0.000697489
0.000662744
0.000591232
0.000464025
0.000246446
0.000246803
0.000467566
0.000599374
0.000677436
0.000721089
0.000739092
0.000735077
0.000709401
0.000660808
0.000591635
0.00052538
0.00052081
0.000524821
0.000529367
0.000532917
0.000532247
0.000531257
0.000530789
0.000530795
0.000531275
0.000532274
0.000532946
0.000529362
0.00052468
0.000520201
0.000523318
0.00058565
0.000647055
0.000682525
0.000687202
0.000658571
0.000589911
0.000463756
0.000246417
0.000246833
0.000467821
0.000599721
0.000677424
0.000719781
0.000734674
0.00072397
0.000684064
0.000603998
0.000465812
0.000313641
0.000383966
0.000431664
0.000451433
0.000459671
0.000461093
0.000461234
0.000461215
0.000461221
0.000461251
0.000461122
0.000459712
0.000451477
0.000431683
0.000383873
0.000312883
0.000460957
0.00059051
0.000656941
0.000675561
0.000653439
0.000587801
0.000462993
0.000246292
0.000246827
0.000467875
0.00059978
0.000677247
0.000718845
0.000731936
0.000717202
0.000667426
0.000558076
0.000326356
0.000271345
0.000362845
0.000394241
0.00040401
0.000407475
0.000408552
0.000408823
0.000408827
0.000408564
0.000407496
0.000404044
0.000394293
0.000362917
0.000271379
0.000323843
0.000545102
0.000640237
0.00066854
0.000650357
0.000586482
0.00046248
0.000246191
0.000246812
0.000467926
0.000599936
0.000677523
0.000719289
0.000732806
0.000719596
0.000675711
0.000590182
0.000445965
0.000297506
0.000337502
0.000375346
0.000390425
0.000394181
0.000397862
0.000399103
0.000399354
0.000399354
0.000399103
0.000397862
0.000394177
0.000390418
0.000375313
0.000337302
0.000296655
0.00044107
0.000576631
0.000648423
0.000670873
0.000651112
0.000586756
0.000462566
0.000246161
0.000246803
0.000468027
0.000600266
0.000678273
0.000720857
0.000736103
0.000726816
0.000692408
0.000630727
0.000543623
0.000456519
0.000422068
0.000404129
0.000397457
0.000394844
0.000395129
0.000395339
0.000395353
0.00039535
0.00039533
0.000395111
0.000394808
0.000397384
0.00040394
0.000421461
0.000454504
0.000537701
0.000616879
0.00066512
0.000678147
0.000654421
0.000588258
0.000463147
0.000246232
0.000246798
0.000468157
0.000600688
0.000679239
0.000722852
0.000740074
0.000734607
0.000707579
0.00065963
0.000594559
0.000524626
0.000467776
0.000425922
0.00040626
0.000398772
0.000396488
0.000395785
0.000395558
0.000395552
0.000395768
0.000396456
0.000398716
0.000406152
0.000425659
0.000467001
0.000522215
0.000588246
0.00064561
0.00068027
0.000685966
0.000658395
0.000590184
0.00046392
0.000246325
0.000246792
0.000468281
0.000601091
0.000680149
0.000724674
0.000743506
0.00074079
0.000718243
0.000676946
0.000619775
0.000553888
0.000489899
0.000438479
0.000412484
0.000402093
0.000398454
0.000397236
0.000396846
0.000396838
0.000397211
0.000398414
0.000402027
0.000412359
0.000438188
0.000489057
0.000551326
0.000613285
0.000662808
0.000690882
0.000692124
0.000661788
0.000591911
0.000464627
0.000246398
0.000246782
0.000468373
0.000601407
0.000680852
0.000726043
0.000745967
0.000744942
0.000724803
0.000686497
0.000632119
0.000567007
0.000500167
0.000444793
0.000415938
0.000404095
0.000399807
0.000398324
0.00039783
0.000397817
0.000398293
0.000399759
0.000404022
0.000415806
0.00044449
0.000499291
0.000564375
0.000625531
0.000672269
0.000697371
0.000696217
0.000664179
0.000593171
0.000465142
0.000246437
0.000246769
0.000468427
0.000601613
0.000681308
0.000726908
0.000747468
0.000747355
0.000728382
0.000691333
0.00063789
0.000572783
0.000504691
0.000447643
0.00041756
0.000405065
0.000400483
0.000398868
0.000398298
0.000398281
0.000398829
0.00040043
0.000404988
0.000417424
0.000447332
0.000503779
0.000570115
0.000631246
0.000677041
0.000700888
0.000698568
0.000665611
0.000593943
0.000465451
0.000246446
0.000246754
0.000468447
0.000601715
0.000681532
0.000727325
0.000748174
0.000748451
0.000729945
0.000693347
0.000640179
0.000574986
0.000506414
0.000448723
0.000418181
0.000405434
0.000400732
0.000399053
0.000398429
0.000398407
0.000399009
0.000400676
0.000405354
0.000418042
0.000448408
0.000505471
0.000572301
0.000633509
0.000679024
0.000702416
0.000699628
0.000666275
0.000594305
0.000465588
0.000246435
0.000246741
0.00046844
0.000601722
0.000681547
0.000727348
0.000748205
0.000748494
0.00073
0.000693416
0.00064026
0.000575076
0.000506501
0.000448789
0.00041822
0.000405449
0.000400729
0.000399028
0.000398374
0.000398346
0.00039898
0.000400669
0.000405367
0.00041808
0.000448474
0.000505555
0.000572393
0.000633594
0.000679096
0.000702474
0.000699672
0.000666306
0.000594323
0.000465584
0.000246413
0.000246737
0.00046841
0.000601633
0.00068135
0.000726972
0.000747559
0.000747479
0.000728546
0.000691542
0.00063814
0.000573062
0.000504963
0.000447849
0.000417684
0.000405117
0.000400479
0.000398803
0.00039815
0.00039812
0.000398751
0.000400417
0.000405035
0.000417546
0.00044754
0.000504038
0.000570406
0.000631509
0.00067726
0.000701059
0.000698696
0.000665701
0.000593995
0.000465446
0.000246393
0.000246742
0.000468355
0.000601437
0.000680914
0.000726138
0.000746106
0.000745138
0.000725071
0.00068685
0.000632557
0.000567511
0.000500626
0.000445166
0.000416165
0.000404198
0.000399813
0.000398235
0.000397634
0.000397607
0.000398183
0.000399751
0.000404117
0.000416033
0.000444873
0.000499758
0.000564909
0.000625995
0.000672639
0.000697648
0.000696418
0.000664319
0.000593254
0.000465144
0.000246372
0.000246749
0.000468261
0.000601119
0.00068021
0.000724773
0.000743659
0.000741023
0.00071859
0.000677441
0.000620437
0.000554695
0.000490621
0.000439054
0.00041282
0.000402242
0.000398462
0.000397121
0.000396628
0.000396606
0.000397072
0.000398402
0.000402166
0.000412701
0.000438791
0.000489825
0.000552194
0.000613991
0.000663323
0.000691234
0.000692362
0.000661948
0.000592007
0.000464637
0.000246327
0.000246753
0.000468123
0.00060068
0.000679244
0.000722879
0.000740151
0.000734784
0.000707924
0.000660233
0.000595494
0.000525846
0.00046888
0.000426658
0.000406586
0.000398821
0.000396335
0.000395493
0.00039518
0.000395163
0.000395451
0.000396277
0.000398745
0.000406476
0.000426438
0.000468202
0.000523548
0.00058925
0.000646211
0.000680584
0.000686127
0.000658489
0.00059024
0.000463917
0.000246249
0.000246752
0.000467937
0.000600134
0.000678085
0.000720629
0.000735883
0.000726685
0.000692498
0.000631247
0.000544784
0.000458268
0.000423582
0.000404533
0.000397104
0.000394063
0.000394049
0.000394103
0.000394042
0.000394027
0.000394059
0.000393975
0.000393946
0.000396939
0.000404317
0.000423129
0.000456439
0.000538942
0.000617275
0.00066504
0.000677928
0.000654233
0.000588144
0.000463071
0.000246144
0.00024674
0.000467677
0.000599473
0.000676833
0.000718403
0.000731798
0.000718588
0.000674936
0.000590075
0.00044717
0.000298461
0.000337717
0.000373081
0.000386786
0.00038971
0.000392945
0.000394015
0.000394196
0.000394175
0.000393941
0.000392779
0.000389372
0.000386241
0.000372454
0.000337423
0.000297606
0.000442261
0.000575968
0.000647082
0.000669591
0.00065017
0.000586185
0.000462278
0.000246053
0.000246699
0.000467223
0.00059853
0.000675399
0.000716463
0.000729109
0.000714036
0.000664112
0.000555192
0.000325168
0.000265833
0.000351009
0.00037898
0.000386485
0.000389196
0.00039007
0.000390268
0.000390216
0.000389867
0.000388682
0.000385346
0.000376861
0.00034794
0.000263565
0.000321395
0.000540131
0.000635344
0.000664702
0.000647695
0.000584863
0.000461694
0.00024601
0.000246561
0.000466235
0.000596746
0.00067314
0.000714339
0.000728208
0.000716534
0.000675624
0.000594634
0.000456271
0.000305949
0.000359605
0.000397185
0.000407925
0.000409878
0.000409942
0.000409951
0.000409931
0.000409831
0.000409534
0.000408773
0.000407002
0.000401867
0.000386975
0.000348565
0.000299606
0.000444339
0.000575416
0.000645067
0.000666884
0.00064747
0.000584074
0.000461137
0.000245936
0.00024619
0.000463962
0.000592882
0.000668373
0.000709808
0.00072582
0.000719726
0.000691353
0.000638724
0.000563208
0.000486972
0.000464348
0.000449067
0.000433798
0.000425278
0.00042176
0.000420576
0.000420205
0.000420056
0.000419918
0.000419767
0.000419918
0.00042129
0.000425861
0.000437701
0.0004628
0.000540253
0.000613927
0.000658684
0.000670196
0.000646706
0.000582212
0.000459732
0.000245701
0.000245283
0.000459004
0.000584735
0.000658214
0.000699209
0.000717019
0.000716072
0.000698059
0.000663701
0.000615698
0.000562992
0.00051961
0.000479249
0.000444645
0.000427568
0.000421004
0.000418813
0.000418149
0.000417969
0.000417991
0.00041839
0.000420114
0.000425981
0.000442473
0.000478643
0.000526157
0.000584456
0.000634732
0.000664412
0.000667952
0.000641191
0.000576476
0.000455821
0.000244951
0.000243252
0.000448958
0.000568777
0.00063832
0.000677456
0.000695842
0.000698471
0.000687735
0.00066476
0.000630924
0.000589342
0.000544533
0.00049839
0.000458285
0.000438156
0.000430214
0.000427485
0.000426645
0.000426444
0.000426565
0.000427285
0.000429837
0.000437615
0.000457939
0.000499424
0.000548924
0.000597494
0.000635428
0.000655701
0.000654006
0.000625834
0.000562908
0.000446802
0.000243062
0.000238955
0.000429798
0.000539426
0.000602199
0.000637458
0.000654772
0.000659241
0.000653416
0.000638354
0.000614606
0.000583196
0.000546331
0.000507608
0.000474104
0.000455734
0.00044789
0.000444983
0.000444034
0.000443815
0.000444001
0.000444907
0.000447761
0.000455602
0.000474123
0.000508387
0.000548325
0.000585514
0.000613023
0.000626088
0.000621192
0.000593859
0.000535705
0.000428537
0.000238876
0.000230297
0.000394529
0.000487333
0.000539337
0.00056814
0.000582527
0.000587218
0.000584587
0.000575524
0.000560258
0.000539121
0.000513442
0.000486324
0.000463064
0.000449322
0.000442932
0.00044044
0.000439605
0.000439414
0.000439591
0.000440408
0.000442883
0.000449284
0.000463146
0.000486714
0.000514134
0.000539228
0.00055712
0.000564444
0.000558306
0.000534574
0.000485383
0.000393965
0.000230302
0.000213828
0.000329699
0.000394593
0.000429884
0.000448863
0.000458257
0.000461656
0.000460846
0.000456512
0.0004487
0.000437404
0.000423279
0.000408197
0.000395173
0.000387092
0.00038312
0.000381488
0.000380914
0.000380781
0.000380917
0.000381493
0.000383126
0.000387109
0.000395244
0.000408373
0.000423492
0.000437103
0.000446409
0.00044948
0.000444383
0.000427926
0.000393929
0.000329584
0.000213875
0.000188502
0.000213881
0.000230432
0.000239162
0.000243514
0.000245552
0.000246343
0.000246374
0.000245793
0.000244564
0.00024272
0.000240287
0.00023754
0.000235065
0.000233479
0.000232664
0.000232289
0.000232116
0.000232058
0.000232124
0.000232297
0.000232668
0.00023348
0.000235065
0.000237546
0.00024029
0.000242641
0.000244191
0.000244524
0.000243148
0.000239121
0.000230508
0.000213961
0.000188549
0.000272692
0.000360136
0.000415819
0.000446783
0.000463499
0.000472162
0.000476359
0.00047816
0.000478731
0.000478709
0.000478443
0.000478123
0.000477846
0.000477645
0.000477512
0.000477426
0.000477373
0.000477346
0.000477345
0.000477368
0.000477417
0.000477495
0.000477609
0.00047776
0.000477905
0.000477898
0.0004774
0.000475747
0.000471726
0.000463225
0.000446635
0.000415754
0.000360119
0.000272703
0.000360144
0.000698465
0.000859601
0.000950753
0.00100255
0.00103096
0.00104549
0.00105197
0.00105398
0.00105368
0.00105238
0.00105086
0.00104955
0.0010486
0.00104799
0.00104761
0.00104738
0.00104728
0.00104728
0.00104738
0.0010476
0.00104795
0.00104847
0.00104918
0.0010499
0.00105004
0.00104832
0.00104249
0.00102875
0.00100108
0.000949878
0.000859139
0.000698257
0.00036013
0.000415859
0.000859681
0.00107282
0.00119708
0.0012699
0.00131095
0.00133227
0.00134157
0.00134383
0.00134231
0.00133916
0.0013358
0.001333
0.00133105
0.00132982
0.00132908
0.00132865
0.00132845
0.00132845
0.00132865
0.00132906
0.00132974
0.0013308
0.00133232
0.00133407
0.00133511
0.00133339
0.00132545
0.00130584
0.00126647
0.00119501
0.00107174
0.000859214
0.000415809
0.000446861
0.000950912
0.00119718
0.00134386
0.00143151
0.00148148
0.00150708
0.00151711
0.00151758
0.00151275
0.00150579
0.00149897
0.00149357
0.00148994
0.00148775
0.00148643
0.00148567
0.00148531
0.00148531
0.00148566
0.0014864
0.00148763
0.00148957
0.00149258
0.00149652
0.00150015
0.00150064
0.00149324
0.00147105
0.00142443
0.00133954
0.00119485
0.000949889
0.000446719
0.000463616
0.0010028
0.00127015
0.00143172
0.00152917
0.00158442
0.00161122
0.0016189
0.00161419
0.00160248
0.0015884
0.00157557
0.00156589
0.00155976
0.00155626
0.00155414
0.00155286
0.00155225
0.00155226
0.00155286
0.0015541
0.00155612
0.00155932
0.00156467
0.00157254
0.00158147
0.00158776
0.00158503
0.00156467
0.00151572
0.00142344
0.00126562
0.00100074
0.000463269
0.000472323
0.00103135
0.00131148
0.00148214
0.00158504
0.00164187
0.00166615
0.00166714
0.00165205
0.00162774
0.00160134
0.00157899
0.00156317
0.00155392
0.00154906
0.00154596
0.00154398
0.00154302
0.00154302
0.00154398
0.00154593
0.00154892
0.00155345
0.00156184
0.00157562
0.00159353
0.0016111
0.00161929
0.00160684
0.00156131
0.00146751
0.00130338
0.00102757
0.000471607
0.000476575
0.00104611
0.00133334
0.00150872
0.00161337
0.00166814
0.0016856
0.00167417
0.00164099
0.00159491
0.00154826
0.0015129
0.00149011
0.0014784
0.00147312
0.00146912
0.00146629
0.0014649
0.00146491
0.0014663
0.00146911
0.00147301
0.00147798
0.00148883
0.00150948
0.00154006
0.0015771
0.00160574
0.0016096
0.00157428
0.00148479
0.00132004
0.00103979
0.00047528
0.000478459
0.00105302
0.00134362
0.00152063
0.00162415
0.00167367
0.00167991
0.00164899
0.00158633
0.00150282
0.00142254
0.00137514
0.00135024
0.00134047
0.0013377
0.00133352
0.00133007
0.00132837
0.00132838
0.00133008
0.00133352
0.00133763
0.00134016
0.00134918
0.00137204
0.00141453
0.00148454
0.00154949
0.00158148
0.00156419
0.00148446
0.0013236
0.0010434
0.000476384
0.000479165
0.00105575
0.00134753
0.00152427
0.00162491
0.00166713
0.00165869
0.00160093
0.00149249
0.00134031
0.00119301
0.00115815
0.00115555
0.00116005
0.00116464
0.00116272
0.00116012
0.00115878
0.00115879
0.00116014
0.00116274
0.00116463
0.0011599
0.00115489
0.00115586
0.00118601
0.00132228
0.00145467
0.00153134
0.00153998
0.00147417
0.00132004
0.00104248
0.000476201
0.000479349
0.00105652
0.00134846
0.00152421
0.00162168
0.00165666
0.0016333
0.00154518
0.00137269
0.00107864
0.000662263
0.000841366
0.000936045
0.000975132
0.000989146
0.000994557
0.000995419
0.000995312
0.00099532
0.000995442
0.000994595
0.000989189
0.000975142
0.000935893
0.000840615
0.000658507
0.00106179
0.00133418
0.00147403
0.00151256
0.00146135
0.00131429
0.00104
0.000475584
0.00047936
0.00105663
0.0013485
0.00152355
0.00161906
0.0016497
0.0016173
0.00150906
0.00128104
0.000707802
0.000508606
0.000753397
0.000821551
0.000844142
0.000850777
0.000852573
0.000852979
0.000852985
0.000852592
0.00085081
0.000844192
0.000821617
0.000753462
0.000508538
0.000696127
0.00124228
0.00143701
0.00149547
0.00145316
0.00131038
0.00103816
0.00047513
0.000479357
0.00105669
0.00134874
0.00152391
0.00161949
0.00165053
0.00162026
0.00152129
0.00133298
0.00101667
0.000598284
0.000707793
0.000791033
0.000826707
0.000841484
0.000843045
0.000843037
0.000842967
0.000842965
0.000843032
0.000843036
0.000841465
0.000826658
0.000790856
0.000706995
0.00059445
0.000999741
0.00129408
0.00144938
0.00149836
0.0014537
0.00131037
0.001038
0.000475119
0.000479389
0.00105693
0.00134945
0.00152546
0.00162266
0.00165711
0.00163455
0.00155394
0.00141108
0.00120978
0.000999688
0.00089262
0.00083325
0.000810801
0.00080378
0.000802495
0.000802252
0.000802149
0.000802147
0.000802244
0.000802475
0.000803725
0.000810637
0.000832688
0.0008906
0.000992972
0.00119164
0.0013724
0.00148255
0.00151307
0.0014605
0.00131357
0.00103938
0.000475492
0.000479446
0.00105731
0.00135046
0.00152764
0.00162701
0.00166559
0.00165092
0.00158535
0.00147019
0.00131317
0.00114028
0.000991646
0.000876782
0.000821317
0.000800694
0.000794443
0.000792715
0.000792267
0.000792264
0.000792704
0.000794414
0.000800612
0.000821079
0.000876016
0.000989119
0.00113275
0.00129456
0.00143161
0.00151433
0.00152983
0.00146928
0.00131806
0.00104147
0.000476019
0.000479503
0.0010577
0.00135148
0.00152979
0.00163116
0.00167321
0.00166441
0.00160835
0.00150728
0.00136722
0.0012039
0.001042
0.000905415
0.000834261
0.000806203
0.00079688
0.000794129
0.000793427
0.000793424
0.000794118
0.000796849
0.000806113
0.000833993
0.000904568
0.00103927
0.00119604
0.00134837
0.00146868
0.00153747
0.00154353
0.00147707
0.00132228
0.00104351
0.000476503
0.000479543
0.00105802
0.00135231
0.0015315
0.00163437
0.00167883
0.00167373
0.00162292
0.00152844
0.00139474
0.00123369
0.00106639
0.000920781
0.000842524
0.000810792
0.000799931
0.000796661
0.000795828
0.000795825
0.00079665
0.000799899
0.000810699
0.000842246
0.000919902
0.00106358
0.00122567
0.00137573
0.00148975
0.00155204
0.00155289
0.00148273
0.00132545
0.00104506
0.000476849
0.000479561
0.00105824
0.00135287
0.00153263
0.00163644
0.00168233
0.00167927
0.00163106
0.00153943
0.00140798
0.00124722
0.00107742
0.000927983
0.000846646
0.000813255
0.000801697
0.000798192
0.000797296
0.000797292
0.00079818
0.000801665
0.00081316
0.000846363
0.000927094
0.00107459
0.00123911
0.00138887
0.00150066
0.00156013
0.00155839
0.00148619
0.00132745
0.00104605
0.000477049
0.00047956
0.00105834
0.00135315
0.00153319
0.00163744
0.00168399
0.0016818
0.00163465
0.00154407
0.0014133
0.00125245
0.00108161
0.000930756
0.000848261
0.000814232
0.000802404
0.000798805
0.000797881
0.000797877
0.000798793
0.00080237
0.000814135
0.000847975
0.000929862
0.00107878
0.0012443
0.00139413
0.00150524
0.00156367
0.00156089
0.0014878
0.00132839
0.00104651
0.000477128
0.000479548
0.00105834
0.00135315
0.0015332
0.00163747
0.00168403
0.00168186
0.00163473
0.00154416
0.00141342
0.00125257
0.00108174
0.000930878
0.000848338
0.00081427
0.000802422
0.000798814
0.000797884
0.000797879
0.000798801
0.000802388
0.000814174
0.000848052
0.000929984
0.00107891
0.00124443
0.00139425
0.00150533
0.00156374
0.00156094
0.00148784
0.00132841
0.00104652
0.000477113
0.000479528
0.00105824
0.00135289
0.00153267
0.00163651
0.00168244
0.00167942
0.00163128
0.00153972
0.00140833
0.00124761
0.00107782
0.000928369
0.000846898
0.000813391
0.000801773
0.000798241
0.000797329
0.000797325
0.000798229
0.000801741
0.000813299
0.000846621
0.000927493
0.00107501
0.00123952
0.00138922
0.00150094
0.00156033
0.00155853
0.00148628
0.0013275
0.00104606
0.00047701
0.000479498
0.00105801
0.00135233
0.00153154
0.00163444
0.00167896
0.00167395
0.00162325
0.00152891
0.00139535
0.00123442
0.00106717
0.000921504
0.000843007
0.000811078
0.000800118
0.000796807
0.000795955
0.000795952
0.000796799
0.000800093
0.000810998
0.000842752
0.000920666
0.00106441
0.00122642
0.00137635
0.00149021
0.00155235
0.00155308
0.00148284
0.00132552
0.00104508
0.000476796
0.000479447
0.00105766
0.00135144
0.00152975
0.00163115
0.00167326
0.00166458
0.0016087
0.00150789
0.00136813
0.00120506
0.00104329
0.000906559
0.000834998
0.000806646
0.000797178
0.000794374
0.000793655
0.000793655
0.000794374
0.000797167
0.000806586
0.000834778
0.000905789
0.00104066
0.00119725
0.00134928
0.00146923
0.00153775
0.00154364
0.00147711
0.00132228
0.00104349
0.000476437
0.00047937
0.00105717
0.00135025
0.00152735
0.00162668
0.00166528
0.00165073
0.00158545
0.00147076
0.00131436
0.00114203
0.000993572
0.000878174
0.000821961
0.000800884
0.000794407
0.000792605
0.000792144
0.000792147
0.000792612
0.000794404
0.000800831
0.000821763
0.000877504
0.000991208
0.00113459
0.00129572
0.00143198
0.00151419
0.0015295
0.00146895
0.00131782
0.00104133
0.000475925
0.00047926
0.00105655
0.00134879
0.00152451
0.00162147
0.00165579
0.00163329
0.00155303
0.001411
0.00121105
0.00100213
0.000894916
0.000833528
0.000809473
0.000801625
0.000799913
0.000799546
0.000799425
0.000799426
0.000799538
0.000799863
0.00080146
0.00080911
0.000832826
0.000893047
0.000995552
0.00119271
0.00137166
0.00148095
0.0015114
0.00145916
0.00131267
0.00103888
0.000475324
0.000479091
0.00105568
0.00134698
0.0015214
0.00161631
0.00164682
0.00161629
0.00151752
0.0013304
0.00101716
0.000599988
0.000706917
0.000784177
0.0008164
0.000829228
0.000829995
0.000829814
0.000829734
0.000829718
0.000829727
0.000829704
0.000828485
0.000814977
0.000782268
0.000705473
0.000596054
0.000999411
0.00128943
0.00144375
0.00149339
0.00144996
0.00130791
0.00103664
0.000474766
0.00047876
0.0010542
0.00134434
0.0015177
0.00161164
0.0016409
0.00160731
0.00149824
0.00127041
0.000701
0.000489284
0.000717955
0.000777473
0.000794144
0.000799382
0.000801116
0.000801584
0.000801479
0.000800668
0.00079812
0.00079112
0.000771543
0.000708855
0.000481695
0.000684452
0.00122528
0.0014216
0.00148331
0.0014444
0.00130464
0.00103497
0.000474358
0.000477977
0.00105103
0.00133934
0.00151168
0.001606
0.00163802
0.0016116
0.00151992
0.00134306
0.00104375
0.000626991
0.000763459
0.000835711
0.000852828
0.000851771
0.000854198
0.000855331
0.000855589
0.000855352
0.000854293
0.000851137
0.000843977
0.000836047
0.000806636
0.000729266
0.000602594
0.00100483
0.00128854
0.00143924
0.00148697
0.00144324
0.0013023
0.00103316
0.00047392
0.00047611
0.00104407
0.00132885
0.00149927
0.00159425
0.00163109
0.00161671
0.00155106
0.00143063
0.00125889
0.00107999
0.00100059
0.000949689
0.000904293
0.000878643
0.000869669
0.000866935
0.000866105
0.000865724
0.000865216
0.000864352
0.000864154
0.000870317
0.000887449
0.000929109
0.00101267
0.00119628
0.00136418
0.00146603
0.00149271
0.00144034
0.00129698
0.00102881
0.000472724
0.000471948
0.00102957
0.00130753
0.00147373
0.00156798
0.00160898
0.00160596
0.0015626
0.00148062
0.00136586
0.00123714
0.00112317
0.00101773
0.000925287
0.000878219
0.000860279
0.000854383
0.000852616
0.000852135
0.000852172
0.000853198
0.000857936
0.000874719
0.000921153
0.00101907
0.00114339
0.00128571
0.00140539
0.00147583
0.00148557
0.00142602
0.00128196
0.00101751
0.000469366
0.000463361
0.00100146
0.00126715
0.00142521
0.00151579
0.00155844
0.00156359
0.00153643
0.00147951
0.00139597
0.00129264
0.00117963
0.00106323
0.000959017
0.000904427
0.000882593
0.000875034
0.000872685
0.000872125
0.000872487
0.000874542
0.000881705
0.000903338
0.000958881
0.00106739
0.00119194
0.00131152
0.00140387
0.00145368
0.00145177
0.00138874
0.001248
0.000992641
0.000461572
0.00044672
0.000950035
0.00119522
0.00133949
0.00142226
0.00146309
0.00147277
0.00145684
0.00141778
0.00135701
0.00127711
0.00118345
0.0010852
0.00099967
0.000951126
0.000929735
0.000921672
0.000918987
0.000918357
0.00091892
0.000921513
0.000929488
0.00095099
0.00100038
0.00108804
0.00118906
0.00128233
0.00135127
0.00138495
0.00137554
0.00131357
0.00118202
0.000944162
0.000445626
0.000415812
0.000859198
0.00107178
0.00119462
0.00126441
0.00129956
0.0013103
0.0013019
0.00127656
0.00123499
0.00117834
0.0011102
0.00103862
0.000977086
0.00093984
0.000922075
0.00091485
0.000912281
0.000911672
0.00091229
0.000914864
0.000922115
0.000940024
0.00097774
0.00104015
0.00111232
0.00117828
0.00122573
0.00124638
0.00123352
0.00117808
0.00106371
0.00085578
0.000415263
0.000360158
0.000698273
0.00085923
0.000949762
0.00100006
0.00102536
0.00103402
0.00103031
0.00101593
0.000991227
0.000956649
0.000914398
0.000869873
0.000831625
0.000807574
0.000795528
0.000790401
0.000788509
0.00078806
0.000788551
0.000790484
0.000795666
0.000807821
0.000832117
0.000870717
0.000915238
0.000955652
0.00098405
0.000994872
0.000983045
0.000941108
0.000855276
0.000696719
0.000359986
0.000272728
0.000360156
0.000415856
0.00044677
0.000463252
0.000471305
0.000474207
0.000473577
0.000469997
0.000463499
0.000454082
0.00044226
0.000429588
0.000418644
0.000411797
0.000408391
0.000406942
0.000406402
0.000406271
0.000406414
0.000406963
0.00040842
0.000411843
0.000418735
0.000429757
0.000442436
0.000453807
0.000461564
0.000464045
0.000459514
0.00044507
0.000415198
0.00035997
0.00027276
0.000302935
0.000432614
0.000515445
0.00056266
0.000589052
0.000603255
0.000610388
0.000613535
0.00061453
0.000614438
0.00061388
0.000613214
0.000612637
0.000612217
0.000611944
0.000611774
0.000611674
0.000611626
0.000611625
0.00061167
0.000611765
0.00061192
0.000612152
0.000612464
0.000612774
0.000612806
0.000611953
0.000609095
0.000602311
0.000588435
0.000562302
0.000515263
0.000432543
0.000302943
0.000432617
0.00088046
0.00109156
0.00121394
0.00128539
0.00132563
0.0013467
0.00135628
0.00135924
0.00135867
0.0013565
0.00135396
0.00135174
0.0013501
0.00134902
0.00134835
0.00134796
0.00134778
0.00134778
0.00134795
0.00134832
0.00134893
0.00134985
0.00135106
0.00135229
0.0013526
0.00135011
0.00134155
0.00132175
0.00128274
0.00121229
0.00109064
0.000880006
0.000432543
0.000515486
0.00109167
0.00136306
0.00152434
0.00162112
0.0016769
0.00170643
0.00171948
0.00172259
0.00172019
0.00171534
0.00171009
0.00170567
0.00170251
0.00170049
0.00169926
0.00169854
0.00169822
0.00169821
0.00169853
0.00169921
0.00170033
0.00170206
0.0017045
0.00170728
0.00170898
0.0017067
0.00169565
0.00166869
0.00161545
0.00152079
0.00136107
0.00109071
0.000515298
0.000562751
0.00121416
0.00152449
0.00171212
0.00182655
0.00189303
0.00192763
0.00194131
0.00194178
0.00193473
0.0019245
0.00191432
0.0019061
0.00190048
0.00189702
0.00189493
0.00189372
0.00189315
0.00189315
0.0018937
0.00189486
0.0018968
0.00189985
0.00190447
0.00191044
0.0019159
0.00191685
0.00190693
0.00187717
0.00181551
0.00170512
0.0015205
0.00121222
0.000562333
0.000589199
0.00128575
0.0016215
0.00182687
0.00195299
0.00202566
0.00206139
0.00207166
0.00206505
0.00204863
0.00202856
0.00200984
0.00199543
0.00198611
0.00198068
0.00197738
0.00197541
0.00197449
0.00197449
0.00197539
0.0019773
0.00198042
0.00198535
0.00199345
0.00200511
0.0020181
0.00202713
0.00202372
0.00199685
0.0019329
0.00181406
0.00161411
0.00128207
0.00058834
0.000603476
0.00132623
0.00167773
0.00189408
0.00202663
0.00210088
0.00213299
0.00213432
0.00211399
0.00208077
0.00204385
0.00201142
0.00198776
0.0019736
0.00196602
0.00196117
0.00195813
0.00195668
0.00195668
0.00195811
0.00196109
0.00196575
0.00197279
0.0019856
0.00200615
0.00203207
0.00205651
0.00206764
0.00205136
0.00199229
0.00187217
0.00166498
0.00131976
0.000601867
0.000610723
0.00134773
0.00170815
0.0019302
0.00206465
0.00213594
0.00215904
0.00214426
0.00210057