/*--------------------------------*- C++ -*----------------------------------*\
| =========                 |                                                 |
| \\      /  F ield         | OpenFOAM: The Open Source CFD Toolbox           |
|  \\    /   O peration     | Version:  2112                                  |
|   \\  /    A nd           | Website:  www.openfoam.com                      |
|    \\/     M anipulation  |                                                 |
\*---------------------------------------------------------------------------*/
FoamFile
{
    version     2.0;
    format      ascii;
    arch        "LSB;label=32;scalar=64";
    class       volScalarField;
    location    "4.6";
    object      nut;
}
// * * * * * * * * * * * * * * * * * * * * * * * * * * * * * * * * * * * * * //

dimensions      [0 2 -1 0 0 0 0];

internalField   nonuniform List<scalar> 
64906
(
3.46644e-05
3.69605e-05
3.83898e-05
3.91271e-05
3.94933e-05
3.96688e-05
3.97482e-05
3.97808e-05
3.97911e-05
3.97911e-05
3.97869e-05
3.97815e-05
3.97769e-05
3.97739e-05
3.97717e-05
3.977e-05
3.97687e-05
3.97678e-05
3.97676e-05
3.97681e-05
3.97692e-05
3.97707e-05
3.97726e-05
3.9775e-05
3.97777e-05
3.97782e-05
3.97699e-05
3.97402e-05
3.96636e-05
3.94905e-05
3.91259e-05
3.83897e-05
3.69614e-05
3.46654e-05
3.69627e-05
4.59583e-05
5.03218e-05
5.25651e-05
5.37604e-05
5.43869e-05
5.46967e-05
5.48326e-05
5.48765e-05
5.4875e-05
5.48546e-05
5.48302e-05
5.48096e-05
5.47952e-05
5.47865e-05
5.47813e-05
5.47783e-05
5.4777e-05
5.47769e-05
5.47783e-05
5.47811e-05
5.47858e-05
5.47931e-05
5.48033e-05
5.48131e-05
5.48113e-05
5.47725e-05
5.46482e-05
5.43526e-05
5.37395e-05
5.25546e-05
5.03183e-05
4.59586e-05
3.69654e-05
3.83947e-05
5.03246e-05
5.59834e-05
5.89532e-05
6.05854e-05
6.14686e-05
6.19154e-05
6.21084e-05
6.21584e-05
6.21341e-05
6.20791e-05
6.20206e-05
6.19734e-05
6.19418e-05
6.19233e-05
6.19127e-05
6.19069e-05
6.19042e-05
6.19043e-05
6.1907e-05
6.19127e-05
6.19224e-05
6.19381e-05
6.1962e-05
6.19901e-05
6.20044e-05
6.19643e-05
6.17966e-05
6.1382e-05
6.05297e-05
5.89226e-05
5.597e-05
5.0322e-05
3.8399e-05
3.91341e-05
5.25707e-05
5.89558e-05
6.23679e-05
6.42799e-05
6.53286e-05
6.58539e-05
6.60591e-05
6.60738e-05
6.59857e-05
6.58579e-05
6.57346e-05
6.56389e-05
6.55774e-05
6.55423e-05
6.5522e-05
6.55104e-05
6.55051e-05
6.55052e-05
6.55106e-05
6.5522e-05
6.55409e-05
6.55719e-05
6.56225e-05
6.56915e-05
6.57551e-05
6.57582e-05
6.56033e-05
6.51429e-05
6.41572e-05
6.22965e-05
5.89207e-05
5.25595e-05
3.91388e-05
3.95014e-05
5.37683e-05
6.05912e-05
6.42842e-05
6.63738e-05
6.75156e-05
6.80588e-05
6.82153e-05
6.81276e-05
6.79043e-05
6.7637e-05
6.73979e-05
6.72211e-05
6.71137e-05
6.70556e-05
6.7021e-05
6.69999e-05
6.699e-05
6.69901e-05
6.70002e-05
6.7021e-05
6.70539e-05
6.71069e-05
6.72008e-05
6.73449e-05
6.75115e-05
6.76303e-05
6.75709e-05
6.71529e-05
6.61315e-05
6.41392e-05
6.05157e-05
5.37394e-05
3.95047e-05
3.96774e-05
5.43973e-05
6.14795e-05
6.53412e-05
6.75269e-05
6.8692e-05
6.91812e-05
6.92032e-05
6.89067e-05
6.84282e-05
6.79111e-05
6.74836e-05
6.71863e-05
6.70209e-05
6.69399e-05
6.6887e-05
6.68519e-05
6.68349e-05
6.68351e-05
6.68524e-05
6.68872e-05
6.69384e-05
6.70139e-05
6.71643e-05
6.74248e-05
6.777e-05
6.812e-05
6.82851e-05
6.80315e-05
6.70863e-05
6.50749e-05
6.13368e-05
5.43371e-05
3.96765e-05
3.97573e-05
5.47107e-05
6.19357e-05
6.58838e-05
6.80973e-05
6.92173e-05
6.95679e-05
6.93366e-05
6.86645e-05
6.77244e-05
6.67729e-05
6.60837e-05
6.56475e-05
6.54395e-05
6.53575e-05
6.5286e-05
6.52324e-05
6.52062e-05
6.52065e-05
6.52331e-05
6.52866e-05
6.53566e-05
6.54335e-05
6.56265e-05
6.60241e-05
6.66245e-05
6.7394e-05
6.7996e-05
6.80851e-05
6.73535e-05
6.54356e-05
6.16922e-05
5.46026e-05
3.97485e-05
3.97909e-05
5.48532e-05
6.21461e-05
6.61224e-05
6.83103e-05
6.93233e-05
6.94441e-05
6.8804e-05
6.74892e-05
6.56948e-05
6.39451e-05
6.30446e-05
6.25892e-05
6.24432e-05
6.24311e-05
6.2352e-05
6.22819e-05
6.22483e-05
6.22486e-05
6.22827e-05
6.2353e-05
6.24313e-05
6.24394e-05
6.25724e-05
6.2991e-05
6.37995e-05
6.53535e-05
6.6787e-05
6.74929e-05
6.71437e-05
6.54299e-05
6.17695e-05
5.4681e-05
3.977e-05
3.9803e-05
5.49088e-05
6.22254e-05
6.6195e-05
6.83244e-05
6.9189e-05
6.90033e-05
6.77757e-05
6.53887e-05
6.1835e-05
5.82204e-05
5.79096e-05
5.80886e-05
5.83203e-05
5.85107e-05
5.84664e-05
5.84078e-05
5.83805e-05
5.83808e-05
5.84088e-05
5.84679e-05
5.85122e-05
5.83196e-05
5.80793e-05
5.78713e-05
5.80945e-05
6.1496e-05
6.4661e-05
6.64168e-05
6.66386e-05
6.52189e-05
6.16984e-05
5.46645e-05
3.97676e-05
3.98058e-05
5.49253e-05
6.22453e-05
6.61956e-05
6.8262e-05
6.89789e-05
6.84737e-05
6.65445e-05
6.25011e-05
5.48456e-05
4.49435e-05
4.96584e-05
5.26119e-05
5.37911e-05
5.42811e-05
5.43577e-05
5.43626e-05
5.43606e-05
5.43609e-05
5.43637e-05
5.43594e-05
5.42836e-05
5.37936e-05
5.26125e-05
4.96508e-05
4.48833e-05
5.45351e-05
6.17535e-05
6.51459e-05
6.60612e-05
6.49572e-05
6.15836e-05
5.46171e-05
3.97568e-05
3.98054e-05
5.49289e-05
6.22488e-05
6.61867e-05
6.82159e-05
6.88462e-05
6.81456e-05
6.57189e-05
6.00613e-05
4.58747e-05
4.1698e-05
4.8173e-05
5.02071e-05
5.08249e-05
5.10433e-05
5.11114e-05
5.11287e-05
5.11289e-05
5.11122e-05
5.10447e-05
5.08271e-05
5.02105e-05
4.81777e-05
4.17004e-05
4.56816e-05
5.93126e-05
6.42984e-05
6.57074e-05
6.47975e-05
6.15106e-05
5.45847e-05
3.9748e-05
3.98041e-05
5.49322e-05
6.22571e-05
6.62001e-05
6.82358e-05
6.8884e-05
6.82529e-05
6.61139e-05
6.17457e-05
5.36088e-05
4.37148e-05
4.64356e-05
4.89281e-05
4.98898e-05
5.01213e-05
5.03615e-05
5.04431e-05
5.04598e-05
5.04598e-05
5.04431e-05
5.03615e-05
5.01211e-05
4.98893e-05
4.89257e-05
4.64204e-05
4.3646e-05
5.32891e-05
6.09853e-05
6.46968e-05
6.58153e-05
6.48315e-05
6.15232e-05
5.45891e-05
3.97452e-05
3.98034e-05
5.49385e-05
6.22749e-05
6.62374e-05
6.83103e-05
6.90374e-05
6.85901e-05
6.69165e-05
6.38154e-05
5.91714e-05
5.41308e-05
5.19428e-05
5.07526e-05
5.02986e-05
5.01187e-05
5.01373e-05
5.0152e-05
5.01534e-05
5.01532e-05
5.01514e-05
5.01361e-05
5.01164e-05
5.02937e-05
5.07397e-05
5.19017e-05
5.39997e-05
5.88213e-05
6.30641e-05
6.55171e-05
6.61681e-05
6.49954e-05
6.16024e-05
5.46243e-05
3.97512e-05
3.9803e-05
5.49468e-05
6.22979e-05
6.62859e-05
6.84061e-05
6.9224e-05
6.89557e-05
6.76416e-05
6.52542e-05
6.18757e-05
5.80297e-05
5.46956e-05
5.2107e-05
5.08443e-05
5.03539e-05
5.02039e-05
5.0158e-05
5.01433e-05
5.01429e-05
5.01569e-05
5.02018e-05
5.03502e-05
5.0837e-05
5.20894e-05
5.46456e-05
5.78833e-05
6.1519e-05
6.45108e-05
6.62569e-05
6.65489e-05
6.51944e-05
6.17055e-05
5.46718e-05
3.97593e-05
3.98026e-05
5.49547e-05
6.23201e-05
6.63321e-05
6.84944e-05
6.93864e-05
6.92465e-05
6.81495e-05
6.61043e-05
6.31744e-05
5.96305e-05
5.5983e-05
5.28764e-05
5.12335e-05
5.05606e-05
5.03225e-05
5.02425e-05
5.02169e-05
5.02163e-05
5.02409e-05
5.03198e-05
5.05562e-05
5.12252e-05
5.28572e-05
5.59298e-05
5.94791e-05
6.28156e-05
6.53647e-05
6.67731e-05
6.68496e-05
6.53653e-05
6.17987e-05
5.47157e-05
3.97658e-05
3.98019e-05
5.49607e-05
6.23376e-05
6.63681e-05
6.85612e-05
6.95036e-05
6.94428e-05
6.84622e-05
6.65712e-05
6.38036e-05
6.03377e-05
5.65734e-05
5.32617e-05
5.14506e-05
5.0687e-05
5.0407e-05
5.03096e-05
5.02771e-05
5.02763e-05
5.03076e-05
5.04039e-05
5.06822e-05
5.14418e-05
5.32417e-05
5.65187e-05
6.0184e-05
6.34431e-05
6.58324e-05
6.70891e-05
6.70503e-05
6.54865e-05
6.18673e-05
5.47479e-05
3.97694e-05
3.98009e-05
5.49643e-05
6.23491e-05
6.63915e-05
6.86038e-05
6.95757e-05
6.95575e-05
6.86336e-05
6.68081e-05
6.40977e-05
6.06486e-05
5.6833e-05
5.3436e-05
5.15532e-05
5.07489e-05
5.045e-05
5.03438e-05
5.03063e-05
5.03052e-05
5.03413e-05
5.04465e-05
5.07439e-05
5.15442e-05
5.34156e-05
5.67767e-05
6.04936e-05
6.37358e-05
6.60687e-05
6.7261e-05
6.71662e-05
6.55597e-05
6.19096e-05
5.47675e-05
3.97704e-05
3.97997e-05
5.49657e-05
6.23548e-05
6.64032e-05
6.86244e-05
6.96097e-05
6.961e-05
6.87088e-05
6.69072e-05
6.42147e-05
6.07676e-05
5.69324e-05
5.35024e-05
5.15927e-05
5.07727e-05
5.0466e-05
5.03556e-05
5.03145e-05
5.03131e-05
5.03527e-05
5.04622e-05
5.07674e-05
5.15835e-05
5.34818e-05
5.68742e-05
6.06119e-05
6.3852e-05
6.61673e-05
6.7336e-05
6.72188e-05
6.55938e-05
6.19296e-05
5.47762e-05
3.97695e-05
3.97986e-05
5.49652e-05
6.23552e-05
6.64039e-05
6.86255e-05
6.96112e-05
6.9612e-05
6.87114e-05
6.69106e-05
6.42189e-05
6.07725e-05
5.69375e-05
5.35066e-05
5.15953e-05
5.07737e-05
5.04658e-05
5.0354e-05
5.03108e-05
5.0309e-05
5.03508e-05
5.04618e-05
5.07683e-05
5.1586e-05
5.3486e-05
5.6879e-05
6.0617e-05
6.38565e-05
6.61709e-05
6.73389e-05
6.7221e-05
6.55953e-05
6.19306e-05
5.4776e-05
3.97677e-05
3.97982e-05
5.49633e-05
6.23501e-05
6.63936e-05
6.86069e-05
6.958e-05
6.95634e-05
6.86415e-05
6.68185e-05
6.41107e-05
6.0664e-05
5.6849e-05
5.34489e-05
5.15613e-05
5.07524e-05
5.04497e-05
5.03395e-05
5.02965e-05
5.02945e-05
5.03361e-05
5.04456e-05
5.07469e-05
5.15521e-05
5.34288e-05
5.67918e-05
6.05097e-05
6.37495e-05
6.60797e-05
6.72694e-05
6.71725e-05
6.55642e-05
6.19124e-05
5.47671e-05
3.97659e-05
3.97986e-05
5.49595e-05
6.23391e-05
6.63711e-05
6.85657e-05
6.95101e-05
6.9452e-05
6.84751e-05
6.65889e-05
6.38266e-05
6.03657e-05
5.66004e-05
5.32851e-05
5.14653e-05
5.06938e-05
5.04074e-05
5.03036e-05
5.0264e-05
5.02622e-05
5.03002e-05
5.04033e-05
5.06884e-05
5.14566e-05
5.32659e-05
5.65463e-05
6.02136e-05
6.34674e-05
6.5851e-05
6.71027e-05
6.70601e-05
6.54935e-05
6.18717e-05
5.4748e-05
3.97639e-05
3.97991e-05
5.49534e-05
6.23214e-05
6.63348e-05
6.84988e-05
6.93933e-05
6.92573e-05
6.8166e-05
6.6129e-05
6.32092e-05
5.96756e-05
5.60262e-05
5.29128e-05
5.12553e-05
5.05702e-05
5.03227e-05
5.02345e-05
5.0202e-05
5.02006e-05
5.02313e-05
5.03187e-05
5.05652e-05
5.12473e-05
5.28953e-05
5.59757e-05
5.95276e-05
6.28527e-05
6.53905e-05
6.67902e-05
6.6861e-05
6.53731e-05
6.18037e-05
5.47161e-05
3.97598e-05
3.97992e-05
5.49444e-05
6.2297e-05
6.62854e-05
6.84064e-05
6.92266e-05
6.8963e-05
6.76575e-05
6.52842e-05
6.19256e-05
5.80996e-05
5.4763e-05
5.2154e-05
5.08652e-05
5.03565e-05
5.01928e-05
5.01375e-05
5.0117e-05
5.01159e-05
5.01347e-05
5.01889e-05
5.03514e-05
5.08577e-05
5.21391e-05
5.47188e-05
5.79597e-05
6.15728e-05
6.45408e-05
6.62714e-05
6.65557e-05
6.51981e-05
6.17079e-05
5.46712e-05
3.97528e-05
3.9799e-05
5.49324e-05
6.22667e-05
6.62261e-05
6.82969e-05
6.90242e-05
6.8581e-05
6.69184e-05
6.38405e-05
5.92356e-05
5.42379e-05
5.20399e-05
5.07784e-05
5.02736e-05
5.00647e-05
5.00629e-05
5.00671e-05
5.00634e-05
5.00624e-05
5.00641e-05
5.00579e-05
5.00568e-05
5.02624e-05
5.07635e-05
5.20085e-05
5.41182e-05
5.889e-05
6.30824e-05
6.55099e-05
6.61541e-05
6.49834e-05
6.15947e-05
5.46188e-05
3.97436e-05
3.97978e-05
5.49155e-05
6.22298e-05
6.61617e-05
6.81881e-05
6.88299e-05
6.81979e-05
6.60691e-05
6.17352e-05
5.36816e-05
4.37873e-05
4.64494e-05
4.87702e-05
4.96417e-05
4.98183e-05
5.00298e-05
5.01003e-05
5.01125e-05
5.01111e-05
5.00953e-05
5.00185e-05
4.97954e-05
4.96047e-05
4.87268e-05
4.64269e-05
4.37178e-05
5.33606e-05
6.09433e-05
6.46211e-05
6.57443e-05
6.47781e-05
6.14887e-05
5.45695e-05
3.97358e-05
3.9794e-05
5.48863e-05
6.21769e-05
6.6087e-05
6.80912e-05
6.86996e-05
6.79798e-05
6.55392e-05
5.98902e-05
4.57822e-05
4.12459e-05
4.73392e-05
4.9177e-05
4.96562e-05
4.98303e-05
4.98869e-05
4.98998e-05
4.98963e-05
4.98732e-05
4.97957e-05
4.95795e-05
4.90332e-05
4.71226e-05
4.10606e-05
4.54944e-05
5.90197e-05
6.40312e-05
6.55008e-05
6.46512e-05
6.14161e-05
5.45326e-05
3.97319e-05
3.97816e-05
5.48234e-05
6.20775e-05
6.59689e-05
6.79828e-05
6.86504e-05
6.80931e-05
6.61007e-05
6.19785e-05
5.42413e-05
4.43524e-05
4.79814e-05
5.03773e-05
5.10309e-05
5.11439e-05
5.11405e-05
5.11385e-05
5.11365e-05
5.113e-05
5.11112e-05
5.10644e-05
5.09572e-05
5.06369e-05
4.9703e-05
4.72121e-05
4.38662e-05
5.34854e-05
6.09094e-05
6.45136e-05
6.56032e-05
6.46351e-05
6.13703e-05
5.44966e-05
3.9725e-05
3.9749e-05
5.4681e-05
6.18649e-05
6.57226e-05
6.77546e-05
6.85262e-05
6.82336e-05
6.68544e-05
6.42224e-05
6.0252e-05
5.5953e-05
5.45533e-05
5.358e-05
5.26159e-05
5.20736e-05
5.18469e-05
5.17701e-05
5.17459e-05
5.17363e-05
5.17278e-05
5.17196e-05
5.1733e-05
5.18274e-05
5.21361e-05
5.29154e-05
5.44963e-05
5.89555e-05
6.28984e-05
6.51795e-05
6.57568e-05
6.45889e-05
6.12652e-05
5.44078e-05
3.97042e-05
3.96705e-05
5.43737e-05
6.14208e-05
6.52025e-05
6.72284e-05
6.8092e-05
6.80439e-05
6.71624e-05
6.54514e-05
6.29859e-05
6.01601e-05
5.77175e-05
5.53549e-05
5.32563e-05
5.21902e-05
5.17738e-05
5.16337e-05
5.15911e-05
5.15795e-05
5.1581e-05
5.16071e-05
5.17185e-05
5.20933e-05
5.31298e-05
5.53317e-05
5.8096e-05
6.13039e-05
6.39394e-05
6.54482e-05
6.56337e-05
6.43003e-05
6.09504e-05
5.41654e-05
3.96394e-05
3.94965e-05
5.37541e-05
6.0552e-05
6.4184e-05
6.61494e-05
6.70554e-05
6.71807e-05
6.66443e-05
6.54868e-05
6.37478e-05
6.15476e-05
5.90899e-05
5.64578e-05
5.40744e-05
5.28378e-05
5.23412e-05
5.21689e-05
5.21157e-05
5.21028e-05
5.21106e-05
5.21564e-05
5.23179e-05
5.28056e-05
5.40565e-05
5.65224e-05
5.93342e-05
6.19715e-05
6.3959e-05
6.50014e-05
6.49278e-05
6.35075e-05
6.02103e-05
5.36099e-05
3.94783e-05
3.91315e-05
5.2566e-05
5.89373e-05
6.23096e-05
6.41361e-05
6.50174e-05
6.52402e-05
6.49366e-05
6.41533e-05
6.29041e-05
6.12197e-05
5.91909e-05
5.69921e-05
5.50247e-05
5.39156e-05
5.3434e-05
5.32538e-05
5.31946e-05
5.31809e-05
5.31926e-05
5.32491e-05
5.34262e-05
5.39081e-05
5.50271e-05
5.70384e-05
5.93007e-05
6.13372e-05
6.28062e-05
6.34983e-05
6.3257e-05
6.18405e-05
5.87123e-05
5.24783e-05
3.91233e-05
3.83941e-05
5.03279e-05
5.5982e-05
5.89311e-05
6.0513e-05
6.12919e-05
6.15422e-05
6.13937e-05
6.08913e-05
6.00412e-05
5.88512e-05
5.73808e-05
5.5794e-05
5.44003e-05
5.35595e-05
5.31632e-05
5.30072e-05
5.29546e-05
5.29425e-05
5.29538e-05
5.30053e-05
5.31602e-05
5.35575e-05
5.44059e-05
5.58175e-05
5.74196e-05
5.88522e-05
5.98576e-05
6.02706e-05
5.99453e-05
5.86447e-05
5.58559e-05
5.02857e-05
3.83936e-05
3.69648e-05
4.59658e-05
5.0332e-05
5.25705e-05
5.37455e-05
5.43219e-05
5.45285e-05
5.44744e-05
5.42007e-05
5.37082e-05
5.29936e-05
5.20925e-05
5.11184e-05
5.02648e-05
4.97276e-05
4.94607e-05
4.93503e-05
4.93111e-05
4.9302e-05
4.93113e-05
4.93506e-05
4.94612e-05
4.97289e-05
5.02698e-05
5.113e-05
5.21054e-05
5.29718e-05
5.35597e-05
5.37574e-05
5.34507e-05
5.24361e-05
5.02825e-05
4.59551e-05
3.69686e-05
3.46676e-05
3.69697e-05
3.8406e-05
3.91491e-05
3.95186e-05
3.96921e-05
3.97594e-05
3.97611e-05
3.97094e-05
3.96018e-05
3.9441e-05
3.92298e-05
3.89917e-05
3.87767e-05
3.86382e-05
3.85666e-05
3.85335e-05
3.85182e-05
3.85131e-05
3.85189e-05
3.85342e-05
3.8567e-05
3.86383e-05
3.87768e-05
3.89923e-05
3.923e-05
3.94337e-05
3.95686e-05
3.9599e-05
3.94837e-05
3.91436e-05
3.84117e-05
3.69766e-05
3.4672e-05
5.39391e-05
6.20801e-05
6.67725e-05
6.92634e-05
7.05847e-05
7.12679e-05
7.16005e-05
7.17444e-05
7.17902e-05
7.17881e-05
7.17661e-05
7.17395e-05
7.17163e-05
7.16994e-05
7.16882e-05
7.1681e-05
7.16766e-05
7.16744e-05
7.16742e-05
7.16762e-05
7.16803e-05
7.16868e-05
7.16963e-05
7.17089e-05
7.1721e-05
7.17206e-05
7.16806e-05
7.15488e-05
7.12306e-05
7.05609e-05
6.92501e-05
6.67662e-05
6.20781e-05
5.39401e-05
6.20808e-05
0.00018445
0.000230668
0.000253782
0.000266536
0.000273611
0.00027732
0.00027901
0.000279522
0.000279397
0.000278983
0.000278501
0.000278081
0.000277772
0.000277568
0.000277441
0.000277366
0.000277332
0.000277332
0.000277366
0.000277437
0.000277555
0.000277729
0.000277964
0.000278204
0.000278285
0.000277863
0.000276364
0.000272888
0.000266033
0.000253455
0.000230462
0.000184325
6.20791e-05
6.67759e-05
0.000230697
0.000296075
0.000329536
0.000348346
0.000358954
0.000364559
0.000367039
0.000367611
0.000367112
0.000366127
0.000365064
0.000364168
0.00036353
0.000363124
0.000362875
0.00036273
0.000362664
0.000362664
0.000362729
0.000362867
0.000363095
0.000363445
0.000363943
0.000364515
0.000364883
0.000364482
0.000362404
0.000357305
0.000347189
0.000328787
0.000295623
0.000230454
6.67706e-05
6.92698e-05
0.000253834
0.000329567
0.000369019
0.000391476
0.000404191
0.00041077
0.000413356
0.000413394
0.000411951
0.000409868
0.000407784
0.000406097
0.000404946
0.00040424
0.000403809
0.000403557
0.00040344
0.00040344
0.000403555
0.000403798
0.000404199
0.000404824
0.000405778
0.000407019
0.000408169
0.000408442
0.000406613
0.000400994
0.000389222
0.000367555
0.000328695
0.000253394
6.92565e-05
7.05942e-05
0.000266611
0.00034842
0.000391537
0.000416203
0.000430015
0.000436734
0.000438612
0.000437234
0.000433907
0.000429817
0.000425974
0.000422995
0.000421078
0.00041997
0.000419275
0.000418854
0.000418657
0.000418657
0.000418852
0.000419262
0.00041992
0.000420931
0.000422608
0.000425045
0.000427761
0.000429702
0.000429226
0.000424257
0.000412143
0.000388896
0.000346853
0.000265841
7.05634e-05
7.12809e-05
0.000273726
0.000359116
0.000404397
0.000430209
0.000444225
0.000450177
0.000450277
0.000446165
0.000439429
0.000431858
0.000425188
0.000420256
0.000417341
0.000415816
0.000414761
0.000414082
0.000413762
0.000413763
0.000414081
0.000414749
0.000415767
0.000417187
0.000419839
0.000424164
0.000429561
0.00043471
0.000437221
0.000434413
0.000423346
0.000399946
0.000356477
0.000272435
7.12195e-05
7.16182e-05
0.000277511
0.000364896
0.000411283
0.000437393
0.000450776
0.000454944
0.000451848
0.000442983
0.000430264
0.000416762
0.000406154
0.000398732
0.000394889
0.000393254
0.000391712
0.000390644
0.000390155
0.000390156
0.000390645
0.000391704
0.000393213
0.00039475
0.000398333
0.000405124
0.000414361
0.000425213
0.000433349
0.000434844
0.000426459
0.000404263
0.000360744
0.000275479
7.15094e-05
7.17691e-05
0.00027934
0.000367696
0.000414452
0.000440205
0.000452217
0.000453522
0.000445383
0.000428515
0.000404806
0.000380373
0.00036687
0.000357975
0.000354326
0.000353655
0.000351428
0.000349856
0.000349193
0.000349194
0.000349859
0.000351426
0.000353629
0.000354221
0.000357647
0.00036595
0.000378062
0.000399627
0.000418395
0.000427509
0.000423802
0.000404121
0.000361633
0.000276367
7.15972e-05
7.18264e-05
0.000280082
0.000368797
0.000415466
0.000440456
0.000450596
0.000448108
0.000432698
0.00040225
0.00035514
0.000302072
0.000301914
0.00029958
0.000299713
0.000302089
0.000299
0.000297092
0.000296412
0.000296413
0.000297095
0.000299002
0.00030208
0.000299655
0.000299374
0.000301265
0.000300251
0.000350161
0.000391832
0.000414146
0.000417452
0.00040138
0.000360633
0.000276081
7.15828e-05
7.18418e-05
0.000280294
0.000369069
0.000415474
0.000439626
0.00044787
0.000441329
0.000416829
0.000363827
0.000256327
8.44998e-05
0.000196868
0.000231285
0.000241576
0.000248435
0.000245003
0.000243503
0.000243109
0.00024311
0.000243506
0.000245008
0.00024844
0.000241562
0.000231228
0.00019677
8.4238e-05
0.000252347
0.000353376
0.000397782
0.000409997
0.000397898
0.000359023
0.000275378
7.15336e-05
7.18429e-05
0.000280315
0.000369079
0.000415283
0.000438887
0.000445921
0.000436684
0.000404905
0.000324182
8.74167e-05
7.38021e-05
0.000180652
0.000201232
0.000205117
0.000207673
0.000208547
0.000208747
0.000208749
0.000208552
0.00020768
0.000205125
0.00020124
0.000180654
7.37957e-05
8.66397e-05
0.000314182
0.000385625
0.000404988
0.000395546
0.000357873
0.000274828
7.1497e-05
7.18428e-05
0.000280322
0.000369131
0.000415336
0.0004389
0.000445969
0.000437431
0.000409876
0.000352745
0.000241202
8.01644e-05
0.000159199
0.000178301
0.000180886
0.000174561
0.000183359
0.000186379
0.000186959
0.00018696
0.000186382
0.000183365
0.000174558
0.000180878
0.000178267
0.00015909
7.98838e-05
0.00023718
0.000342121
0.000390562
0.000405721
0.000395526
0.000357765
0.00027472
7.14952e-05
7.18455e-05
0.00028038
0.000369314
0.0004157
0.000439597
0.000447424
0.000440868
0.000418972
0.000378938
0.00031878
0.000250763
0.00022574
0.000202915
0.00019387
0.000188839
0.00019091
0.000191955
0.000192197
0.000192197
0.000191954
0.000190907
0.000188822
0.000193828
0.000202774
0.000225224
0.000249034
0.000313731
0.000368203
0.000399818
0.000409337
0.000397109
0.000358518
0.000275034
7.15241e-05
7.18502e-05
0.000280479
0.000369585
0.00041624
0.000440609
0.000449337
0.000444621
0.000426638
0.000394885
0.000350329
0.000299529
0.000255317
0.000217629
0.000202037
0.000196327
0.000195238
0.000195093
0.000195073
0.000195073
0.000195092
0.000195235
0.000196311
0.000201983
0.000217439
0.000254634
0.000297416
0.000345047
0.000384187
0.000407659
0.000413293
0.000399196
0.000359635
0.000275553
7.15656e-05
7.1855e-05
0.000280589
0.000369869
0.000416792
0.000441604
0.000451083
0.000447659
0.000431897
0.000403754
0.000364084
0.000316628
0.000268012
0.000224785
0.000205928
0.00019907
0.000196976
0.000196419
0.000196296
0.000196297
0.00019642
0.000196974
0.000199055
0.000205873
0.000224579
0.000267279
0.000314412
0.000358745
0.0003931
0.000413037
0.000416479
0.000401076
0.000360716
0.00027608
7.16042e-05
7.18585e-05
0.000280683
0.000370106
0.000417246
0.000442395
0.000452397
0.000449766
0.000435157
0.000408539
0.000370461
0.000323666
0.000273626
0.000228224
0.000207865
0.0002003
0.000197841
0.000197146
0.000196988
0.00019699
0.000197148
0.00019784
0.000200287
0.000207809
0.000228013
0.000272877
0.000321415
0.0003651
0.000397906
0.000416358
0.000418668
0.000402469
0.000361553
0.000276497
7.16322e-05
7.18602e-05
0.000280748
0.000370268
0.000417554
0.00044292
0.000453236
0.00045104
0.000436988
0.000410995
0.000373433
0.000326713
0.000276082
0.000229797
0.000208783
0.000200878
0.000198271
0.000197524
0.000197356
0.000197357
0.000197527
0.00019827
0.000200865
0.000208727
0.000229587
0.000275338
0.000324447
0.000368059
0.000400364
0.00041821
0.000419976
0.000403342
0.000362092
0.000276769
7.16485e-05
7.18603e-05
0.000280781
0.00037035
0.000417707
0.000443178
0.00045364
0.000451633
0.000437805
0.000412035
0.000374623
0.000327879
0.000277004
0.000230406
0.000209141
0.000201102
0.000198439
0.000197674
0.000197502
0.000197504
0.000197677
0.000198438
0.000201089
0.000209085
0.000230196
0.00027627
0.000325606
0.000369241
0.000401402
0.000419033
0.00042058
0.000403756
0.000362352
0.0002769
7.16551e-05
7.18593e-05
0.000280781
0.000370352
0.00041771
0.000443183
0.000453647
0.000451643
0.000437818
0.000412051
0.000374643
0.000327901
0.000277025
0.000230433
0.000209158
0.000201111
0.000198443
0.000197678
0.000197507
0.000197509
0.000197681
0.000198443
0.000201098
0.000209102
0.000230223
0.000276294
0.000325627
0.000369261
0.000401418
0.000419045
0.00042059
0.000403763
0.000362356
0.000276901
7.16539e-05
7.18576e-05
0.000280748
0.000370272
0.000417561
0.000442931
0.000453253
0.000451064
0.000437023
0.000411043
0.000373493
0.000326779
0.000276151
0.000229885
0.000208839
0.00020091
0.000198292
0.000197543
0.000197376
0.000197378
0.000197547
0.000198292
0.000200898
0.000208785
0.000229678
0.000275421
0.000324513
0.000368117
0.000400411
0.000418245
0.000420001
0.000403359
0.000362103
0.000276772
7.16454e-05
7.18549e-05
0.00028068
0.000370105
0.000417247
0.0004424
0.000452409
0.000449791
0.000435203
0.000408612
0.000370562
0.00032379
0.000273784
0.000228392
0.000207979
0.000200374
0.000197899
0.0001972
0.000197045
0.000197048
0.000197205
0.000197902
0.000200366
0.00020793
0.000228193
0.000273051
0.00032154
0.000365199
0.000397974
0.000416399
0.000418692
0.000402483
0.000361561
0.000276498
7.16279e-05
7.18506e-05
0.000280574
0.000369848
0.000416764
0.000441572
0.000451054
0.000447647
0.00043192
0.000403831
0.000364229
0.000316835
0.000268296
0.000225067
0.000206124
0.000199213
0.000197092
0.00019653
0.00019641
0.000196413
0.000196537
0.0001971
0.000199211
0.000206084
0.000224882
0.000267586
0.000314624
0.000358885
0.000393163
0.000413043
0.000416459
0.000401052
0.000360697
0.000276065
7.15989e-05
7.1844e-05
0.000280431
0.000369504
0.000416126
0.000440467
0.000449182
0.00044448
0.000426555
0.000394913
0.000350518
0.000299874
0.000255779
0.00021802
0.000202286
0.000196519
0.000195371
0.000195211
0.000195196
0.0001952
0.000195223
0.000195384
0.000196524
0.000202254
0.00021786
0.00025514
0.000297778
0.000345231
0.000384169
0.000407518
0.000413119
0.000399046
0.000359531
0.000275492
7.15579e-05
7.18347e-05
0.000280252
0.000369084
0.000415371
0.000439182
0.00044695
0.000440386
0.000418572
0.000378768
0.000319015
0.000251334
0.000226399
0.000203155
0.0001938
0.000188682
0.000190603
0.000191616
0.000191863
0.000191868
0.000191628
0.000190615
0.00018867
0.00019374
0.000203005
0.000225942
0.000249657
0.000313982
0.000367892
0.000399243
0.00040875
0.000396635
0.000358194
0.000274857
7.15099e-05
7.18205e-05
0.000280003
0.00036856
0.000414528
0.00043788
0.000444778
0.000436146
0.000408658
0.000351952
0.000241554
8.02806e-05
0.000159314
0.000176725
0.000178482
0.000171756
0.000180324
0.000183327
0.000183914
0.000183911
0.000183309
0.000180264
0.000171571
0.000178151
0.000176311
0.000159249
7.99926e-05
0.000237586
0.000340898
0.000388858
0.000404155
0.000394317
0.00035695
0.000274277
7.14655e-05
7.1793e-05
0.000279579
0.000367786
0.00041349
0.000436639
0.000443265
0.000433686
0.000401746
0.000321492
8.6964e-05
7.23141e-05
0.000172584
0.000190975
0.000193463
0.000195907
0.000196891
0.000197147
0.000197126
0.000196794
0.000195625
0.000192764
0.000189619
0.000170617
7.17277e-05
8.58648e-05
0.000310052
0.000381226
0.000401348
0.000392847
0.000356063
0.000273837
7.14324e-05
7.17292e-05
0.000278702
0.000366357
0.000411803
0.000435086
0.000442491
0.000435074
0.000409625
0.000355789
0.000248594
8.21103e-05
0.000178387
0.000206881
0.000211703
0.000214471
0.000211346
0.000210322
0.000210131
0.000210077
0.00021008
0.000210621
0.000212618
0.000207636
0.000199573
0.000170642
8.04314e-05
0.000239781
0.000341075
0.000387855
0.00040251
0.000392498
0.000355382
0.000273343
7.13961e-05
7.15793e-05
0.000276848
0.000363473
0.000408451
0.000431946
0.000440614
0.000436442
0.000418795
0.000385108
0.00033318
0.000273172
0.000260018
0.000245043
0.000230706
0.000224544
0.0002211
0.000219889
0.000219557
0.000219469
0.000219484
0.000219827
0.00022097
0.000221782
0.000226847
0.000239888
0.000255458
0.000315847
0.000366506
0.000395651
0.000403959
0.000391625
0.000353903
0.000272201
7.12997e-05
7.12491e-05
0.000273128
0.000357823
0.000401801
0.000425207
0.000434969
0.000433684
0.000421963
0.000399562
0.000367034
0.000329025
0.000296126
0.000262732
0.000231263
0.000218507
0.000213934
0.000212458
0.000212027
0.000211919
0.000211955
0.000212294
0.000213594
0.000217644
0.000230486
0.0002635
0.000300971
0.000343505
0.000378017
0.000398118
0.000402002
0.000387867
0.000349972
0.000269361
7.10335e-05
7.05721e-05
0.00026613
0.000347383
0.000389432
0.000412104
0.000422393
0.000423179
0.000415545
0.000399751
0.000376083
0.000345899
0.00031187
0.000274894
0.000239728
0.000224922
0.000219585
0.000217817
0.00021728
0.000217154
0.000217239
0.000217721
0.000219415
0.000224695
0.000239808
0.000276157
0.000315094
0.000350907
0.000377853
0.000392596
0.000393539
0.000378463
0.000341328
0.000263281
7.042e-05
6.9257e-05
0.00025348
0.000328825
0.000367496
0.000388459
0.000398491
0.00040051
0.000395749
0.000384589
0.000367118
0.000343741
0.000315767
0.000285645
0.000258858
0.000245511
0.000240054
0.000238073
0.000237424
0.000237273
0.000237409
0.000238038
0.000240006
0.000245506
0.00025912
0.000286469
0.000317223
0.000344953
0.000365252
0.000375613
0.000374469
0.000359436
0.000324507
0.0002515
6.91612e-05
6.67711e-05
0.000230457
0.000295607
0.000328574
0.000346399
0.000355186
0.000357624
0.000354911
0.000347465
0.000335356
0.000318797
0.000298741
0.000277462
0.000259099
0.000248726
0.000244002
0.000242115
0.000241444
0.000241285
0.00024145
0.000242127
0.000244028
0.000248804
0.00025932
0.000277914
0.000299292
0.000318658
0.000332649
0.000339226
0.000336874
0.000323268
0.000292879
0.000229247
6.67204e-05
6.20817e-05
0.000184312
0.000230435
0.000253317
0.000265573
0.000271682
0.000273648
0.000272398
0.00026827
0.00026133
0.000251703
0.000239987
0.000227643
0.000217048
0.000210581
0.000207399
0.000206047
0.000205544
0.000205425
0.000205559
0.000206078
0.00020745
0.00021067
0.000217214
0.000227904
0.000240228
0.000251412
0.000259382
0.000262771
0.000260435
0.000250586
0.000229111
0.000183753
6.2064e-05
5.39428e-05
6.20815e-05
6.67745e-05
6.92601e-05
7.05607e-05
7.11925e-05
7.14185e-05
7.13647e-05
7.10754e-05
7.05521e-05
6.97927e-05
6.88342e-05
6.77978e-05
6.68928e-05
6.63201e-05
6.60325e-05
6.59095e-05
6.58633e-05
6.58521e-05
6.58643e-05
6.59113e-05
6.6035e-05
6.63241e-05
6.69006e-05
6.78118e-05
6.88477e-05
6.97677e-05
7.03922e-05
7.05963e-05
7.02474e-05
6.91125e-05
6.6714e-05
6.20625e-05
5.39457e-05
5.68864e-05
6.8094e-05
7.44006e-05
7.77898e-05
7.96379e-05
8.06253e-05
8.11221e-05
8.13426e-05
8.14125e-05
8.14056e-05
8.13652e-05
8.13168e-05
8.12747e-05
8.12439e-05
8.12238e-05
8.12112e-05
8.12039e-05
8.12004e-05
8.12003e-05
8.12036e-05
8.12105e-05
8.12219e-05
8.12389e-05
8.12617e-05
8.12841e-05
8.12866e-05
8.12266e-05
8.10267e-05
8.05548e-05
7.95909e-05
7.77616e-05
7.43854e-05
6.80874e-05
5.6887e-05
6.80943e-05
0.000244693
0.000316615
0.000353226
0.000373695
0.00038522
0.000391354
0.000394174
0.000395003
0.000394719
0.000393913
0.000392981
0.000392163
0.000391554
0.000391149
0.000390893
0.000390742
0.000390672
0.000390671
0.000390739
0.000390881
0.000391115
0.00039146
0.000391921
0.000392399
0.000392601
0.000391941
0.000389474
0.000383773
0.000372666
0.000352537
0.000316175
0.00024444
6.80875e-05
7.44037e-05
0.000316665
0.000425402
0.000482504
0.000514974
0.000533465
0.000543314
0.000547673
0.000548608
0.000547568
0.000545607
0.000543489
0.000541691
0.000540402
0.000539574
0.000539062
0.000538764
0.000538627
0.000538626
0.000538758
0.00053904
0.000539507
0.000540217
0.000541223
0.000542389
0.000543192
0.000542603
0.00053902
0.000530143
0.000512605
0.000480933
0.000424434
0.000316164
7.43878e-05
7.77964e-05
0.000353318
0.000482564
0.000551867
0.000591742
0.000614476
0.000626283
0.00063088
0.000630785
0.000627898
0.000623755
0.000619577
0.000616173
0.000613847
0.000612419
0.000611534
0.000611013
0.000610773
0.000610772
0.000611006
0.000611504
0.000612323
0.000613584
0.000615512
0.000618039
0.000620427
0.000621184
0.00061808
0.000608128
0.000587212
0.000548871
0.000480748
0.000352425
7.7763e-05
7.96485e-05
0.000373837
0.000515129
0.000591873
0.00063623
0.000661195
0.000673337
0.000676603