/*--------------------------------*- C++ -*----------------------------------*\
| =========                 |                                                 |
| \\      /  F ield         | OpenFOAM: The Open Source CFD Toolbox           |
|  \\    /   O peration     | Version:  2112                                  |
|   \\  /    A nd           | Website:  www.openfoam.com                      |
|    \\/     M anipulation  |                                                 |
\*---------------------------------------------------------------------------*/
FoamFile
{
    version     2.0;
    format      ascii;
    arch        "LSB;label=32;scalar=64";
    class       volScalarField;
    location    "4.6";
    object      p;
}
// * * * * * * * * * * * * * * * * * * * * * * * * * * * * * * * * * * * * * //

dimensions      [0 2 -2 0 0 0 0];

internalField   nonuniform List<scalar> 
64906
(
-4.53793e-06
-4.52025e-06
-4.50999e-06
-4.5102e-06
-4.53329e-06
-4.57405e-06
-4.63673e-06
-4.72233e-06
-4.82968e-06
-4.95611e-06
-5.09549e-06
-5.24272e-06
-5.39266e-06
-5.53025e-06
-5.64399e-06
-5.73569e-06
-5.80353e-06
-5.84635e-06
-5.86355e-06
-5.85525e-06
-5.8223e-06
-5.76573e-06
-5.6861e-06
-5.57724e-06
-5.47587e-06
-5.37253e-06
-5.27737e-06
-5.19614e-06
-5.13461e-06
-5.09391e-06
-5.07055e-06
-5.07408e-06
-5.08923e-06
-5.10478e-06
-4.48812e-06
-4.42997e-06
-4.3793e-06
-4.34217e-06
-4.32833e-06
-4.33626e-06
-4.36474e-06
-4.412e-06
-4.4749e-06
-4.55009e-06
-4.631e-06
-4.71349e-06
-4.78664e-06
-4.85822e-06
-4.92523e-06
-4.98157e-06
-5.02473e-06
-5.05436e-06
-5.07023e-06
-5.07247e-06
-5.06167e-06
-5.03867e-06
-5.00767e-06
-4.97998e-06
-4.93731e-06
-4.89275e-06
-4.85299e-06
-4.82159e-06
-4.80563e-06
-4.80921e-06
-4.83642e-06
-4.89048e-06
-4.95804e-06
-5.03406e-06
-4.46011e-06
-4.36758e-06
-4.27461e-06
-4.19323e-06
-4.14171e-06
-4.11906e-06
-4.12341e-06
-4.15255e-06
-4.20277e-06
-4.27136e-06
-4.34892e-06
-4.43172e-06
-4.50414e-06
-4.56929e-06
-4.62278e-06
-4.66653e-06
-4.69976e-06
-4.72371e-06
-4.7386e-06
-4.74456e-06
-4.74174e-06
-4.72932e-06
-4.70884e-06
-4.67897e-06
-4.64096e-06
-4.59574e-06
-4.56026e-06
-4.53903e-06
-4.54364e-06
-4.5789e-06
-4.65001e-06
-4.76308e-06
-4.88685e-06
-5.00684e-06
-4.45712e-06
-4.33307e-06
-4.1991e-06
-4.07498e-06
-3.99083e-06
-3.94647e-06
-3.94159e-06
-3.97591e-06
-4.04701e-06
-4.15464e-06
-4.28361e-06
-4.42799e-06
-4.5489e-06
-4.6496e-06
-4.72242e-06
-4.77713e-06
-4.8152e-06
-4.84069e-06
-4.85458e-06
-4.85699e-06
-4.84723e-06
-4.82151e-06
-4.77901e-06
-4.7103e-06
-4.62363e-06
-4.51722e-06
-4.43323e-06
-4.37903e-06
-4.37364e-06
-4.42027e-06
-4.5216e-06
-4.69052e-06
-4.86418e-06
-5.02558e-06
-4.49384e-06
-4.34274e-06
-4.17522e-06
-4.01881e-06
-3.91479e-06
-3.86602e-06
-3.87598e-06
-3.94945e-06
-4.08843e-06
-4.2998e-06
-4.56015e-06
-4.86213e-06
-5.10515e-06
-5.29843e-06
-5.43037e-06
-5.52509e-06
-5.58647e-06
-5.62283e-06
-5.63602e-06
-5.62608e-06
-5.5914e-06
-5.52378e-06
-5.42011e-06
-5.2568e-06
-5.04751e-06
-4.78414e-06
-4.57327e-06
-4.42294e-06
-4.36213e-06
-4.38803e-06
-4.49986e-06
-4.69717e-06
-4.91222e-06
-5.11006e-06
-4.57336e-06
-4.39579e-06
-4.19973e-06
-4.02096e-06
-3.90978e-06
-3.87415e-06
-3.92281e-06
-4.06848e-06
-4.32166e-06
-4.7045e-06
-5.18843e-06
-5.78407e-06
-6.23353e-06
-6.57858e-06
-6.80643e-06
-6.96853e-06
-7.07059e-06
-7.12679e-06
-7.13964e-06
-7.10905e-06
-7.03268e-06
-6.89619e-06
-6.69486e-06
-6.37782e-06
-5.96142e-06
-5.40446e-06
-4.97632e-06
-4.66277e-06
-4.50076e-06
-4.47345e-06
-4.57242e-06
-4.78375e-06
-5.03134e-06
-5.26319e-06
-4.69906e-06
-4.48843e-06
-4.26556e-06
-4.07163e-06
-3.96428e-06
-3.95692e-06
-4.06374e-06
-4.3069e-06
-4.70944e-06
-5.32646e-06
-6.11257e-06
-7.22398e-06
-7.95857e-06
-8.50321e-06
-8.85047e-06
-9.09871e-06
-9.25293e-06
-9.33521e-06
-9.34809e-06
-9.29136e-06
-9.16243e-06
-8.93873e-06
-8.61634e-06
-8.09714e-06
-7.39485e-06
-6.31949e-06
-5.59963e-06
-5.05963e-06
-4.76076e-06
-4.65494e-06
-4.72305e-06
-4.93833e-06
-5.21439e-06
-5.48394e-06
-4.85627e-06
-4.6126e-06
-4.36421e-06
-4.16086e-06
-4.06793e-06
-4.10322e-06
-4.28448e-06
-4.63841e-06
-5.20297e-06
-6.06667e-06
-7.1603e-06
-9.21146e-06
-1.02474e-05
-1.10289e-05
-1.15133e-05
-1.18671e-05
-1.2086e-05
-1.2201e-05
-1.22142e-05
-1.21254e-05
-1.19321e-05
-1.16023e-05
-1.11414e-05
-1.03815e-05
-9.37658e-06
-7.35102e-06
-6.34506e-06
-5.56318e-06
-5.1128e-06
-4.9144e-06
-4.93741e-06
-5.14889e-06
-5.45214e-06
-5.76826e-06
-5.04553e-06
-4.75916e-06
-4.48631e-06
-4.27598e-06
-4.20592e-06
-4.29507e-06
-4.5599e-06
-5.02214e-06
-5.6774e-06
-6.67347e-06
-8.10966e-06
-1.18723e-05
-1.29186e-05
-1.39147e-05
-1.45208e-05
-1.4965e-05
-1.52393e-05
-1.5383e-05
-1.53969e-05
-1.52804e-05
-1.50324e-05
-1.46123e-05
-1.40292e-05
-1.30484e-05
-1.2031e-05
-8.28374e-06
-6.99277e-06
-6.0559e-06
-5.51562e-06
-5.22367e-06
-5.19351e-06
-5.39733e-06
-5.73011e-06
-6.11531e-06
-5.25783e-06
-4.92102e-06
-4.62537e-06
-4.41435e-06
-4.38312e-06
-4.55177e-06
-4.93875e-06
-5.54817e-06
-6.39592e-06
-8.55739e-06
-6.74716e-06
-1.45126e-05
-1.55103e-05
-1.69458e-05
-1.77305e-05
-1.83157e-05
-1.86756e-05
-1.88607e-05
-1.88751e-05
-1.87183e-05
-1.83861e-05
-1.78263e-05
-1.70664e-05
-1.56461e-05
-1.46967e-05
-6.83641e-06
-8.83998e-06
-6.73843e-06
-6.04198e-06
-5.6211e-06
-5.50235e-06
-5.68157e-06
-6.03408e-06
-6.50112e-06
-5.48221e-06
-5.08842e-06
-4.76692e-06
-4.55742e-06
-4.57334e-06
-4.8341e-06
-5.31614e-06
-5.86494e-06
-6.39381e-06
-4.40646e-06
-2.12874e-05
-1.89507e-05
-1.97922e-05
-2.04663e-05
-2.10603e-05
-2.14523e-05
-2.16514e-05
-2.1666e-05
-2.14956e-05
-2.11316e-05
-2.05631e-05
-1.99091e-05
-1.90728e-05
-2.13406e-05
-4.98811e-06
-6.85991e-06
-6.39263e-06
-6.01368e-06
-5.82445e-06
-5.96872e-06
-6.3431e-06
-6.90946e-06
-5.70988e-06
-5.25623e-06
-4.91051e-06
-4.71213e-06
-4.80697e-06
-5.2578e-06
-6.15616e-06
-7.62331e-06
-1.0007e-05
-1.29643e-05
-1.93027e-05
-1.80131e-05
-2.03317e-05
-2.19062e-05
-2.30583e-05
-2.39232e-05
-2.44552e-05
-2.47092e-05
-2.47239e-05
-2.44994e-05
-2.39973e-05
-2.31625e-05
-2.20416e-05
-2.05035e-05
-1.82182e-05
-1.95863e-05
-1.32294e-05
-1.03305e-05
-8.06467e-06
-6.81175e-06
-6.25614e-06
-6.28208e-06
-6.65495e-06
-7.33015e-06
-5.92713e-06
-5.4146e-06
-5.03921e-06
-4.83926e-06
-4.9809e-06
-5.53791e-06
-6.60381e-06
-8.24525e-06
-1.05296e-05
-1.31158e-05
-1.74056e-05
-1.96573e-05
-2.15628e-05
-2.3208e-05
-2.4503e-05
-2.54296e-05
-2.60047e-05
-2.62806e-05
-2.62951e-05
-2.60484e-05
-2.55025e-05
-2.46049e-05
-2.33391e-05
-2.17182e-05
-1.98263e-05
-1.76236e-05
-1.33769e-05
-1.08227e-05
-8.6506e-06
-7.23984e-06
-6.55487e-06
-6.53702e-06
-6.93029e-06
-7.7396e-06
-6.12615e-06
-5.56091e-06
-5.15525e-06
-4.94715e-06
-5.11701e-06
-5.74318e-06
-6.91893e-06
-8.70659e-06
-1.11614e-05
-1.41018e-05
-1.76125e-05
-2.01983e-05
-2.24334e-05
-2.42078e-05
-2.55725e-05
-2.65021e-05
-2.7071e-05
-2.73405e-05
-2.73548e-05
-2.71139e-05
-2.65738e-05
-2.5673e-05
-2.43378e-05
-2.25884e-05
-2.038e-05
-1.78119e-05
-1.43137e-05
-1.14147e-05
-9.08269e-06
-7.54559e-06
-6.7876e-06
-6.75845e-06
-7.19075e-06
-8.09953e-06
-6.29856e-06
-5.68869e-06
-5.25227e-06
-5.02724e-06
-5.20253e-06
-5.85567e-06
-7.07325e-06
-8.91005e-06
-1.13921e-05
-1.4359e-05
-1.7635e-05
-2.04906e-05
-2.29436e-05
-2.47759e-05
-2.61566e-05
-2.70646e-05
-2.76119e-05
-2.78677e-05
-2.78819e-05
-2.76547e-05
-2.71362e-05
-2.62569e-05
-2.49058e-05
-2.30982e-05
-2.06707e-05
-1.78212e-05
-1.45533e-05
-1.16272e-05
-9.27422e-06
-7.7054e-06
-6.93755e-06
-6.93015e-06
-7.41023e-06
-8.4032e-06
-6.44031e-06
-5.79549e-06
-5.33219e-06
-5.0887e-06
-5.2599e-06
-5.92183e-06
-7.15543e-06
-9.01172e-06
-1.15036e-05
-1.44892e-05
-1.77298e-05
-2.07197e-05
-2.32837e-05
-2.51577e-05
-2.65449e-05
-2.74324e-05
-2.79583e-05
-2.82007e-05
-2.82153e-05
-2.80022e-05
-2.75059e-05
-2.66481e-05
-2.52916e-05
-2.34431e-05
-2.09048e-05
-1.79132e-05
-1.46762e-05
-1.17309e-05
-9.37428e-06
-7.80085e-06
-7.04318e-06
-7.0653e-06
-7.58815e-06
-8.6481e-06
-6.54835e-06
-5.87828e-06
-5.39371e-06
-5.13347e-06
-5.29652e-06
-5.95779e-06
-7.19495e-06
-9.05856e-06
-1.15571e-05
-1.45637e-05
-1.78207e-05
-2.08739e-05
-2.35215e-05
-2.54274e-05
-2.68202e-05
-2.76967e-05
-2.82102e-05
-2.84449e-05
-2.84603e-05
-2.82566e-05
-2.77743e-05
-2.69292e-05
-2.55686e-05
-2.36912e-05
-2.10833e-05
-1.80098e-05
-1.47507e-05
-1.17838e-05
-9.42537e-06
-7.85608e-06
-7.11435e-06
-7.16453e-06
-7.72107e-06
-8.8315e-06
-6.62163e-06
-5.93602e-06
-5.43769e-06
-5.1661e-06
-5.32311e-06
-5.9835e-06
-7.22395e-06
-9.09584e-06
-1.16067e-05
-1.46375e-05
-1.79239e-05
-2.10254e-05
-2.37206e-05
-2.56509e-05
-2.70533e-05
-2.79294e-05
-2.844e-05
-2.86729e-05
-2.86896e-05
-2.84901e-05
-2.80129e-05
-2.71699e-05
-2.5801e-05
-2.38994e-05
-2.12476e-05
-1.81181e-05
-1.48271e-05
-1.18359e-05
-9.46824e-06
-7.89808e-06
-7.16542e-06
-7.23342e-06
-7.81084e-06
-8.95384e-06
-6.65993e-06
-5.96821e-06
-5.4642e-06
-5.18797e-06
-5.34309e-06
-6.00504e-06
-7.25136e-06
-9.13462e-06
-1.16632e-05
-1.47191e-05
-1.8036e-05
-2.11716e-05
-2.38888e-05
-2.5836e-05
-2.72505e-05
-2.81352e-05
-2.86513e-05
-2.88875e-05
-2.89058e-05
-2.8706e-05
-2.82261e-05
-2.73766e-05
-2.5996e-05
-2.4074e-05
-2.13853e-05
-1.82328e-05
-1.49127e-05
-1.18964e-05
-9.5123e-06
-7.93376e-06
-7.20029e-06
-7.27356e-06
-7.85876e-06
-9.01556e-06
-6.66376e-06
-5.9753e-06
-5.47361e-06
-5.19936e-06
-5.35673e-06
-6.02264e-06
-7.27695e-06
-9.17368e-06
-1.17238e-05
-1.48045e-05
-1.81507e-05
-2.12996e-05
-2.40218e-05
-2.5981e-05
-2.74093e-05
-2.83102e-05
-2.88391e-05
-2.90836e-05
-2.91037e-05
-2.88994e-05
-2.84098e-05
-2.75469e-05
-2.61544e-05
-2.42227e-05
-2.15362e-05
-1.83594e-05
-1.50063e-05
-1.19633e-05
-9.55639e-06
-7.96289e-06
-7.21936e-06
-7.28587e-06
-7.86622e-06
-9.0176e-06
-6.63474e-06
-5.95897e-06
-5.46685e-06
-5.1997e-06
-5.36085e-06
-6.02935e-06
-7.28966e-06
-9.19876e-06
-1.17744e-05
-1.48831e-05
-1.8276e-05
-2.14394e-05
-2.41249e-05
-2.60848e-05
-2.75272e-05
-2.84521e-05
-2.90015e-05
-2.92589e-05
-2.92813e-05
-2.90686e-05
-2.85628e-05
-2.76796e-05
-2.62755e-05
-2.43428e-05
-2.16746e-05
-1.84977e-05
-1.50986e-05
-1.2026e-05
-9.59081e-06
-7.97939e-06
-7.2205e-06
-7.27112e-06
-7.83496e-06
-8.96267e-06
-6.57508e-06
-5.92126e-06
-5.44403e-06
-5.18548e-06
-5.34589e-06
-6.00614e-06
-7.25681e-06
-9.16081e-06
-1.1752e-05
-1.48889e-05
-1.83892e-05
-2.15279e-05
-2.41557e-05
-2.60973e-05
-2.7544e-05
-2.84959e-05
-2.90709e-05
-2.93456e-05
-2.93709e-05
-2.91469e-05
-2.86208e-05
-2.7716e-05
-2.63116e-05
-2.44001e-05
-2.17887e-05
-1.86297e-05
-1.51258e-05
-1.20258e-05
-9.57238e-06
-7.95705e-06
-7.19139e-06
-7.22613e-06
-7.7655e-06
-8.85345e-06
-6.48942e-06
-5.86664e-06
-5.40826e-06
-5.15758e-06
-5.30896e-06
-5.94355e-06
-7.15782e-06
-9.02376e-06
-1.16177e-05
-1.47889e-05
-1.85654e-05
-2.16066e-05
-2.40888e-05
-2.59948e-05
-2.74339e-05
-2.84121e-05
-2.90129e-05
-2.93053e-05
-2.93351e-05
-2.91024e-05
-2.85599e-05
-2.76384e-05
-2.62497e-05
-2.43807e-05
-2.1907e-05
-1.88393e-05
-1.50763e-05
-1.19391e-05
-9.47557e-06
-7.88418e-06
-7.13079e-06
-7.15612e-06
-7.66607e-06
-8.69603e-06
-6.383e-06
-5.79848e-06
-5.35891e-06
-5.10899e-06
-5.23118e-06
-5.80056e-06
-6.90862e-06
-8.61737e-06
-1.0985e-05
-1.37442e-05
-1.85617e-05
-2.19406e-05
-2.38651e-05
-2.5602e-05
-2.69673e-05
-2.79441e-05
-2.85571e-05
-2.88633e-05
-2.88996e-05
-2.86666e-05
-2.81258e-05
-2.72222e-05
-2.59227e-05
-2.42443e-05
-2.23492e-05
-1.88728e-05
-1.40733e-05
-1.13632e-05
-9.13477e-06
-7.68604e-06
-7.00682e-06
-7.0521e-06
-7.54512e-06
-8.48971e-06
-6.2661e-06
-5.72505e-06
-5.30583e-06
-5.05485e-06
-5.1381e-06
-5.62172e-06
-6.60618e-06
-8.22646e-06
-1.08605e-05
-1.43392e-05
-1.99207e-05
-2.03991e-05
-2.31339e-05
-2.50957e-05
-2.64117e-05
-2.73867e-05
-2.79962e-05
-2.83044e-05
-2.83527e-05
-2.81434e-05
-2.76326e-05
-2.67599e-05
-2.55281e-05
-2.36423e-05
-2.09337e-05
-2.01913e-05
-1.49141e-05
-1.14327e-05
-8.88625e-06
-7.47317e-06
-6.86612e-06
-6.94075e-06
-7.42221e-06
-8.26246e-06
-6.14653e-06
-5.64931e-06
-5.24722e-06
-4.98627e-06
-5.00171e-06
-5.30612e-06
-5.8414e-06
-6.35367e-06
-6.75812e-06
-3.68649e-06
-2.67271e-05
-2.3336e-05
-2.42309e-05
-2.5015e-05
-2.57293e-05
-2.62262e-05
-2.65025e-05
-2.65645e-05
-2.64171e-05
-2.60536e-05
-2.54877e-05
-2.48274e-05
-2.4074e-05
-2.74159e-05
-4.21644e-06
-7.42292e-06
-7.11649e-06
-6.80444e-06
-6.60031e-06
-6.78746e-06
-7.27663e-06
-8.03738e-06
-6.03905e-06
-5.58364e-06
-5.20613e-06
-4.95556e-06
-4.963e-06
-5.27194e-06
-5.9525e-06
-7.09938e-06
-8.97519e-06
-1.2018e-05
-1.27674e-05
-1.88243e-05
-2.07657e-05
-2.2637e-05
-2.3848e-05
-2.47726e-05
-2.53755e-05
-2.57126e-05
-2.57954e-05
-2.56334e-05
-2.52157e-05
-2.45018e-05
-2.34611e-05
-2.18202e-05
-1.99418e-05
-1.44465e-05
-1.34176e-05
-1.01822e-05
-8.16626e-06
-7.05489e-06
-6.60665e-06
-6.71721e-06
-7.15401e-06
-7.84418e-06
-5.95044e-06
-5.53284e-06
-5.18117e-06
-4.9436e-06
-4.93884e-06
-5.20703e-06
-5.79404e-06
-6.73572e-06
-8.04799e-06
-9.72873e-06
-1.31941e-05
-1.73969e-05
-1.92442e-05
-2.09767e-05
-2.22341e-05
-2.32014e-05
-2.38301e-05
-2.41858e-05
-2.42827e-05
-2.41356e-05
-2.3733e-05
-2.30349e-05
-2.19883e-05
-2.05333e-05
-1.87498e-05
-1.4761e-05
-1.09747e-05
-9.22772e-06
-7.84996e-06
-6.94512e-06
-6.54893e-06
-6.64355e-06
-7.0435e-06
-7.66931e-06
-5.89038e-06
-5.51009e-06
-5.1924e-06
-4.98042e-06
-4.98006e-06
-5.23079e-06
-5.78527e-06
-6.70927e-06
-8.10319e-06
-1.00156e-05
-1.24678e-05
-1.53899e-05
-1.75007e-05
-1.93053e-05
-2.06203e-05
-2.16308e-05
-2.22795e-05
-2.26431e-05
-2.27444e-05
-2.26024e-05
-2.22001e-05
-2.14972e-05
-2.04332e-05
-1.89621e-05
-1.69862e-05
-1.41712e-05
-1.1591e-05
-9.47821e-06
-7.92723e-06
-6.97584e-06
-6.5613e-06
-6.623e-06
-6.97904e-06
-7.56109e-06
-5.85858e-06
-5.52304e-06
-5.24959e-06
-5.07427e-06
-5.0871e-06
-5.321e-06
-5.82025e-06
-6.64008e-06
-7.84392e-06
-9.47653e-06
-1.15156e-05
-1.37947e-05
-1.57669e-05
-1.74923e-05
-1.87732e-05
-1.97437e-05
-2.03628e-05
-2.07087e-05
-2.08082e-05
-2.06818e-05
-2.0311e-05
-1.96582e-05
-1.86542e-05
-1.7277e-05
-1.54408e-05
-1.32097e-05
-1.10334e-05
-9.21673e-06
-7.86601e-06
-7.00737e-06
-6.61967e-06
-6.65787e-06
-6.96768e-06
-7.50256e-06
-5.87027e-06
-5.58206e-06
-5.36804e-06
-5.24747e-06
-5.29221e-06
-5.52649e-06
-5.98129e-06
-6.6948e-06
-7.70948e-06
-9.04431e-06
-1.06651e-05
-1.24575e-05
-1.41388e-05
-1.56622e-05
-1.68246e-05
-1.76999e-05
-1.82639e-05
-1.85807e-05
-1.86755e-05
-1.85664e-05
-1.8237e-05
-1.76562e-05
-1.67656e-05
-1.5559e-05
-1.39948e-05
-1.22307e-05
-1.05008e-05
-9.01686e-06
-7.884e-06
-7.14111e-06
-6.78338e-06
-6.78527e-06
-7.02928e-06
-7.49873e-06
-5.91457e-06
-5.6888e-06
-5.55451e-06
-5.51241e-06
-5.6124e-06
-5.87094e-06
-6.30929e-06
-6.94961e-06
-7.82291e-06
-8.922e-06
-1.02137e-05
-1.16244e-05
-1.29947e-05
-1.42506e-05
-1.52356e-05
-1.59819e-05
-1.64729e-05
-1.67525e-05
-1.68394e-05
-1.67469e-05
-1.64633e-05
-1.59673e-05
-1.52197e-05
-1.42236e-05
-1.29669e-05
-1.15888e-05
-1.02336e-05
-9.04043e-06
-8.09674e-06
-7.4433e-06
-7.08984e-06
-7.02585e-06
-7.17042e-06
-7.54956e-06
-5.97282e-06
-5.82124e-06
-5.76949e-06
-5.81008e-06
-5.97776e-06
-6.28795e-06
-6.75484e-06
-7.3931e-06
-8.19717e-06
-9.16897e-06
-1.02816e-05
-1.14744e-05
-1.26374e-05
-1.37039e-05
-1.45652e-05
-1.52271e-05
-1.56761e-05
-1.59364e-05
-1.6019e-05
-1.59321e-05
-1.56687e-05
-1.52173e-05
-1.45574e-05
-1.36983e-05
-1.26465e-05
-1.15038e-05
-1.0366e-05
-9.34903e-06
-8.50936e-06
-7.88593e-06
-7.49664e-06
-7.3423e-06
-7.37705e-06
-7.62012e-06
-6.02268e-06
-5.96184e-06
-5.98362e-06
-6.09488e-06
-6.33093e-06
-6.70825e-06
-7.24504e-06
-7.95374e-06
-8.83549e-06
-9.87689e-06
-1.10285e-05
-1.22305e-05
-1.33988e-05
-1.44708e-05
-1.53607e-05
-1.60576e-05
-1.65435e-05
-1.68278e-05
-1.69159e-05
-1.68124e-05
-1.65137e-05
-1.60143e-05
-1.53078e-05
-1.44119e-05
-1.3349e-05
-1.22062e-05
-1.10689e-05
-1.00132e-05
-9.11804e-06
-8.42683e-06
-7.95434e-06
-7.69588e-06
-7.61158e-06
-7.69606e-06
-4.58447e-06
-4.58693e-06
-4.59778e-06
-4.61834e-06
-4.65075e-06
-4.70609e-06
-4.7862e-06
-4.89247e-06
-5.02386e-06
-5.17768e-06
-5.34626e-06
-5.52305e-06
-5.69612e-06
-5.8563e-06
-5.9931e-06
-6.10332e-06
-6.18371e-06
-6.23306e-06
-6.25066e-06
-6.23665e-06
-6.19201e-06
-6.11809e-06
-6.01807e-06
-5.89534e-06
-5.76538e-06
-5.63277e-06
-5.5097e-06
-5.4024e-06
-5.31776e-06
-5.25702e-06
-5.22065e-06
-5.19425e-06
-5.177e-06
-5.16515e-06
-4.54579e-06
-4.52427e-06
-4.51426e-06
-4.50968e-06
-4.52199e-06
-4.55539e-06
-4.61179e-06
-4.69108e-06
-4.78972e-06
-4.90445e-06
-5.02554e-06
-5.15026e-06
-5.26804e-06
-5.37971e-06
-5.47713e-06
-5.55788e-06
-5.61794e-06
-5.6568e-06
-5.67375e-06
-5.66891e-06
-5.64336e-06
-5.598e-06
-5.53757e-06
-5.46529e-06
-5.38585e-06
-5.30203e-06
-5.22428e-06
-5.15491e-06
-5.10352e-06
-5.07266e-06
-5.06391e-06
-5.0733e-06
-5.08683e-06
-5.10826e-06
-4.53263e-06
-4.50558e-06
-4.48562e-06
-4.46116e-06
-4.4574e-06
-4.48066e-06
-4.53455e-06
-4.62029e-06
-4.7337e-06
-4.87426e-06
-5.02518e-06
-5.18847e-06
-5.33484e-06
-5.47107e-06
-5.58236e-06
-5.67252e-06
-5.73709e-06
-5.77788e-06
-5.79436e-06
-5.78665e-06
-5.75565e-06
-5.69987e-06
-5.62443e-06
-5.52566e-06
-5.41785e-06
-5.29564e-06
-5.18976e-06
-5.09828e-06
-5.03892e-06
-5.01181e-06
-5.01811e-06
-5.05138e-06
-5.07619e-06
-5.10021e-06
-4.54419e-06
-4.50424e-06
-4.46849e-06
-4.42239e-06
-4.40435e-06
-4.42451e-06
-4.48972e-06
-4.6049e-06
-4.76631e-06
-4.97995e-06
-5.21595e-06
-5.4856e-06
-5.71469e-06
-5.92299e-06
-6.08174e-06
-6.2058e-06
-6.2897e-06
-6.33969e-06
-6.35559e-06
-6.33746e-06
-6.28582e-06
-6.19463e-06
-6.07008e-06
-5.8975e-06
-5.7069e-06
-5.47918e-06
-5.29183e-06
-5.13357e-06
-5.03663e-06
-4.99469e-06
-5.0069e-06
-5.06179e-06
-5.10199e-06
-5.13825e-06
-4.59534e-06
-4.5387e-06
-4.48903e-06
-4.42827e-06
-4.40656e-06
-4.43882e-06
-4.53656e-06
-4.71117e-06
-4.96073e-06
-5.30597e-06
-5.69504e-06
-6.16562e-06
-6.54178e-06
-6.87737e-06
-7.11933e-06
-7.30378e-06
-7.42275e-06
-7.48998e-06
-7.50544e-06
-7.4691e-06
-7.38128e-06
-7.22823e-06
-7.01891e-06
-6.71742e-06
-6.37962e-06
-5.95197e-06
-5.61664e-06
-5.33435e-06
-5.16136e-06
-5.07651e-06
-5.0758e-06
-5.137e-06
-5.18669e-06
-5.24428e-06
-4.68923e-06
-4.61108e-06
-4.54952e-06
-4.48183e-06
-4.46801e-06
-4.5281e-06
-4.67869e-06
-4.93957e-06
-5.31181e-06
-5.84433e-06
-6.45827e-06
-7.2633e-06
-7.85315e-06
-8.3736e-06
-8.73158e-06
-9.0017e-06
-9.17041e-06
-9.26276e-06
-9.27801e-06
-9.21596e-06
-9.07756e-06
-8.83745e-06
-8.51043e-06
-8.02192e-06
-7.46986e-06
-6.70802e-06
-6.15476e-06
-5.69317e-06
-5.41061e-06
-5.25722e-06
-5.22537e-06
-5.28106e-06
-5.33906e-06
-5.4184e-06
-4.82211e-06
-4.72033e-06
-4.64913e-06
-4.58126e-06
-4.58553e-06
-4.68595e-06
-4.90295e-06
-5.26478e-06
-5.77482e-06
-6.54275e-06
-7.44352e-06
-8.79932e-06
-9.64742e-06
-1.03853e-05
-1.08665e-05
-1.12297e-05
-1.14507e-05
-1.15705e-05
-1.15857e-05
-1.14962e-05
-1.13051e-05
-1.09705e-05
-1.05184e-05
-9.80917e-06
-8.99785e-06
-7.6837e-06
-6.8547e-06
-6.16523e-06
-5.75804e-06
-5.52196e-06
-5.44741e-06
-5.48979e-06
-5.55335e-06
-5.66468e-06
-4.99767e-06
-4.86261e-06
-4.7839e-06
-4.72359e-06
-4.75873e-06
-4.91488e-06
-5.2129e-06
-5.67983e-06
-6.319e-06
-7.27677e-06
-8.50207e-06
-1.07909e-05
-1.18645e-05
-1.28381e-05
-1.34512e-05
-1.39274e-05
-1.42138e-05
-1.43684e-05
-1.43839e-05
-1.426e-05
-1.40034e-05
-1.35549e-05
-1.29688e-05
-1.2019e-05
-1.09784e-05
-8.72346e-06
-7.59089e-06
-6.71509e-06
-6.19163e-06
-5.86886e-06
-5.7395e-06
-5.75908e-06
-5.82476e-06
-5.97966e-06
-5.20612e-06
-5.02867e-06
-4.94258e-06
-4.89386e-06
-4.96674e-06
-5.18307e-06
-5.55525e-06
-6.09489e-06
-6.72732e-06
-7.72545e-06
-9.17882e-06
-1.35116e-05
-1.43441e-05
-1.53539e-05
-1.60071e-05
-1.65295e-05
-1.68399e-05
-1.70112e-05
-1.7027e-05
-1.68865e-05
-1.66059e-05
-1.61105e-05
-1.54826e-05
-1.44877e-05
-1.36823e-05
-9.3714e-06
-8.07417e-06
-7.13762e-06
-6.62593e-06
-6.24532e-06
-6.06798e-06
-6.06514e-06
-6.13505e-06
-6.34587e-06
-5.44083e-06
-5.2126e-06
-5.12469e-06
-5.10252e-06
-5.24215e-06
-5.56365e-06
-6.08082e-06
-6.72789e-06
-7.45306e-06
-9.37634e-06
-6.35082e-06
-1.55546e-05
-1.63256e-05
-1.76438e-05
-1.84181e-05
-1.90883e-05
-1.94715e-05
-1.96766e-05
-1.96922e-05
-1.9518e-05
-1.91651e-05
-1.85223e-05
-1.77733e-05
-1.64632e-05
-1.57453e-05
-6.42185e-06
-9.66605e-06
-7.8191e-06
-7.24846e-06
-6.77991e-06
-6.48855e-06
-6.42497e-06
-6.48074e-06
-6.76796e-06
-5.68926e-06
-5.40059e-06
-5.30795e-06
-5.31178e-06
-5.51748e-06
-5.93838e-06
-6.55564e-06
-7.18337e-06
-7.39083e-06
-3.67769e-06
-2.21762e-05
-1.86629e-05
-1.92805e-05
-1.99313e-05
-2.04686e-05
-2.0819e-05
-2.10082e-05
-2.10231e-05
-2.08632e-05
-2.05411e-05
-2.00295e-05
-1.93999e-05
-1.87849e-05
-2.21988e-05
-4.34309e-06
-7.868e-06
-7.72695e-06
-7.26597e-06
-6.89424e-06
-6.77448e-06
-6.82398e-06
-7.21669e-06
-5.94236e-06
-5.59052e-06
-5.50285e-06
-5.55842e-06
-5.89352e-06
-6.56827e-06
-7.68021e-06
-9.27514e-06
-1.18295e-05
-1.4354e-05
-2.03125e-05
-1.73973e-05
-1.91526e-05
-2.05721e-05
-2.16162e-05
-2.22843e-05
-2.27239e-05
-2.29485e-05
-2.29629e-05
-2.27672e-05
-2.23561e-05
-2.1716e-05
-2.06999e-05
-1.93119e-05
-1.75844e-05
-2.058e-05
-1.45783e-05
-1.21241e-05
-9.71284e-06
-8.32686e-06
-7.50575e-06
-7.18814e-06
-7.1763e-06
-7.68212e-06
-6.18424e-06
-5.76966e-06
-5.67672e-06
-5.76067e-06
-6.17168e-06
-6.97648e-06
-8.2699e-06
-1.00377e-05
-1.24154e-05
-1.45753e-05
-1.82115e-05
-1.90396e-05
-1.99523e-05
-2.08991e-05
-2.17527e-05
-2.23842e-05
-2.28286e-05
-2.30574e-05
-2.30712e-05
-2.28695e-05
-2.24512e-05
-2.18425e-05
-2.10086e-05
-2.00716e-05
-1.9157e-05
-1.83787e-05
-1.47906e-05
-1.26796e-05
-1.04384e-05
-8.89459e-06
-7.92158e-06
-7.52146e-06
-7.49612e-06
-8.1228e-06
-6.40647e-06
-5.93793e-06
-5.84039e-06
-5.94969e-06
-6.42889e-06
-7.35195e-06
-8.81126e-06
-1.07827e-05
-1.33015e-05
-1.58363e-05
-1.86013e-05
-1.98761e-05
-2.0857e-05
-2.17185e-05
-2.25268e-05
-2.31287e-05
-2.35568e-05
-2.3775e-05
-2.37884e-05
-2.35966e-05
-2.31937e-05
-2.26132e-05
-2.1823e-05
-2.09691e-05
-1.99966e-05
-1.87367e-05
-1.59996e-05
-1.35246e-05
-1.11493e-05
-9.42034e-06
-8.31169e-06
-7.8392e-06
-7.80202e-06
-8.52239e-06
-6.59852e-06
-6.08517e-06
-5.97713e-06
-6.09415e-06
-6.6059e-06
-7.5857e-06
-9.11415e-06
-1.11617e-05
-1.36926e-05
-1.63088e-05
-1.88537e-05
-2.03844e-05
-2.14986e-05
-2.23383e-05
-2.31275e-05
-2.37063e-05
-2.41209e-05
-2.43308e-05
-2.43443e-05
-2.41609e-05
-2.37715e-05
-2.32137e-05
-2.24422e-05
-2.16081e-05
-2.05023e-05
-1.89739e-05
-1.64532e-05
-1.39001e-05
-1.15182e-05
-9.72922e-06
-8.57741e-06
-8.08732e-06
-8.06239e-06
-8.85833e-06
-6.75598e-06
-6.20923e-06
-6.09124e-06
-6.21029e-06
-6.74131e-06
-7.75705e-06
-9.32957e-06
-1.14282e-05
-1.39778e-05
-1.66409e-05
-1.91325e-05
-2.08012e-05
-2.19908e-05
-2.28524e-05
-2.36491e-05
-2.42194e-05
-2.46258e-05
-2.48296e-05
-2.48437e-05
-2.46676e-05
-2.42876e-05
-2.37394e-05
-2.29616e-05
-2.21047e-05
-2.09175e-05
-1.92486e-05
-1.67786e-05
-1.41793e-05
-1.17844e-05
-9.95831e-06
-8.78448e-06
-8.29016e-06
-8.27879e-06
-9.12779e-06
-6.87531e-06
-6.30524e-06
-6.17795e-06
-6.29399e-06
-6.83189e-06
-7.86371e-06
-9.45633e-06
-1.15805e-05
-1.41429e-05
-1.68434e-05
-1.93438e-05
-2.11205e-05
-2.23388e-05
-2.32197e-05
-2.40256e-05
-2.45938e-05
-2.49974e-05
-2.51988e-05
-2.52138e-05
-2.50421e-05
-2.46669e-05
-2.41228e-05
-2.33373e-05
-2.24587e-05
-2.12174e-05
-1.946e-05
-1.69818e-05
-1.43461e-05
-1.19435e-05
-1.01027e-05
-8.92543e-06
-8.43789e-06
-8.44142e-06
-9.32725e-06
-6.95569e-06
-6.37212e-06
-6.23882e-06
-6.35203e-06
-6.89301e-06
-7.93396e-06
-9.53986e-06
-1.16831e-05
-1.42628e-05
-1.69955e-05
-1.95219e-05
-2.13592e-05
-2.26016e-05
-2.34996e-05
-2.43156e-05
-2.48875e-05
-2.52927e-05
-2.54948e-05
-2.55113e-05
-2.53415e-05
-2.49673e-05
-2.44217e-05
-2.36275e-05
-2.27309e-05
-2.1461e-05
-1.9643e-05
-1.71389e-05
-1.44715e-05
-1.20548e-05
-1.0202e-05
-9.02189e-06
-8.53908e-06
-8.55177e-06
-9.45903e-06
-6.99698e-06
-6.40905e-06
-6.27347e-06
-6.38523e-06
-6.92726e-06
-7.97259e-06
-9.58707e-06
-1.17443e-05
-1.43435e-05
-1.71032e-05
-1.96617e-05
-2.15603e-05
-2.27894e-05
-2.36973e-05
-2.45222e-05
-2.51016e-05
-2.55119e-05
-2.57175e-05
-2.57356e-05
-2.55658e-05
-2.51895e-05
-2.4639e-05
-2.38368e-05
-2.2927e-05
-2.16466e-05
-1.97883e-05
-1.72547e-05
-1.45605e-05
-1.21257e-05
-1.02614e-05
-9.07669e-06
-8.59431e-06
-8.60968e-06
-9.52472e-06
-6.99975e-06
-6.41658e-06
-6.28243e-06
-6.39405e-06
-6.93499e-06
-7.97976e-06
-9.59745e-06
-1.17627e-05
-1.43824e-05
-1.71632e-05
-1.97519e-05
-2.16282e-05
-2.28952e-05
-2.38147e-05
-2.46474e-05
-2.5237e-05
-2.56554e-05
-2.58668e-05
-2.5887e-05
-2.57154e-05
-2.53348e-05
-2.47772e-05
-2.39699e-05
-2.30531e-05
-2.17591e-05
-1.98969e-05
-1.73287e-05
-1.46115e-05
-1.21552e-05
-1.02811e-05
-9.09062e-06
-8.60478e-06
-8.6166e-06
-9.5257e-06
-6.96565e-06
-6.39698e-06
-6.26756e-06
-6.37924e-06
-6.91511e-06
-7.95159e-06
-9.56416e-06
-1.17287e-05
-1.43707e-05
-1.71678e-05
-1.98083e-05
-2.16552e-05
-2.2931e-05
-2.38575e-05
-2.46971e-05
-2.53016e-05
-2.57314e-05
-2.59515e-05
-2.59743e-05
-2.57994e-05
-2.5412e-05
-2.48441e-05
-2.40336e-05
-2.31161e-05
-2.18338e-05
-1.99795e-05
-1.73555e-05
-1.46193e-05
-1.21382e-05
-1.0259e-05
-9.06459e-06
-8.57378e-06
-8.57651e-06
-9.46401e-06
-6.89683e-06
-6.35247e-06
-6.22843e-06
-6.33518e-06
-6.85335e-06
-7.86033e-06
-9.4404e-06
-1.15727e-05
-1.42237e-05
-1.70298e-05
-1.97963e-05
-2.1613e-05
-2.28621e-05
-2.37842e-05
-2.4623e-05
-2.52435e-05
-2.5687e-05
-2.59182e-05
-2.59444e-05
-2.57651e-05
-2.53701e-05
-2.47925e-05
-2.39876e-05
-2.30811e-05
-2.18356e-05
-1.99971e-05
-1.72491e-05
-1.45033e-05
-1.20117e-05
-1.01558e-05
-8.97884e-06
-8.49521e-06
-8.49067e-06
-9.34082e-06
-6.79862e-06
-6.28969e-06
-6.17246e-06
-6.27041e-06
-6.76014e-06
-7.71907e-06
-9.24211e-06
-1.13128e-05
-1.3972e-05
-1.67408e-05
-1.98007e-05
-2.1569e-05
-2.2707e-05
-2.36635e-05
-2.45271e-05
-2.51783e-05
-2.5641e-05
-2.58862e-05
-2.59173e-05
-2.5734e-05
-2.53294e-05
-2.47319e-05
-2.39105e-05
-2.29801e-05
-2.18473e-05
-2.00445e-05
-1.70159e-05
-1.43056e-05
-1.18032e-05
-9.99554e-06
-8.85414e-06
-8.38732e-06
-8.37443e-06
-9.1644e-06
-6.67669e-06
-6.21134e-06
-6.09571e-06
-6.16892e-06
-6.5965e-06
-7.44607e-06
-8.80928e-06
-1.06676e-05
-1.31254e-05
-1.54422e-05
-1.95951e-05
-2.16639e-05
-2.24483e-05
-2.34151e-05
-2.42904e-05
-2.49613e-05
-2.54396e-05
-2.56997e-05
-2.57364e-05
-2.55503e-05
-2.51411e-05
-2.45387e-05
-2.37193e-05
-2.2804e-05
-2.20469e-05
-1.98708e-05
-1.57684e-05
-1.35294e-05
-1.12414e-05
-9.63155e-06
-8.62168e-06
-8.22465e-06
-8.22705e-06
-8.93959e-06
-6.54347e-06
-6.12987e-06
-6.02016e-06
-6.07322e-06
-6.44444e-06
-7.19532e-06
-8.42574e-06
-1.01673e-05
-1.29121e-05
-1.59383e-05
-2.08161e-05
-1.99601e-05
-2.20451e-05
-2.37164e-05
-2.48501e-05
-2.55982e-05
-2.61029e-05
-2.6378e-05
-2.64259e-05
-2.62484e-05
-2.58344e-05
-2.51785e-05
-2.41141e-05
-2.2524e-05
-2.04731e-05
-2.10511e-05
-1.64825e-05
-1.34852e-05
-1.08797e-05
-9.34831e-06
-8.42834e-06
-8.0814e-06
-8.08564e-06
-8.69808e-06
-6.40697e-06
-6.04426e-06
-5.93146e-06
-5.94322e-06
-6.20493e-06
-6.72346e-06
-7.45452e-06
-8.10175e-06
-8.04709e-06
-2.62998e-06
-2.78982e-05
-2.27783e-05
-2.32859e-05
-2.39148e-05
-2.44844e-05
-2.48951e-05
-2.51417e-05
-2.51993e-05
-2.50716e-05
-2.47708e-05
-2.4322e-05
-2.37756e-05
-2.3387e-05
-2.84509e-05
-3.20993e-06
-8.77756e-06
-8.96942e-06
-8.50964e-06
-8.03903e-06
-7.86671e-06
-7.92165e-06
-8.44891e-06
-6.28395e-06
-5.97028e-06
-5.87124e-06
-5.88282e-06
-6.13328e-06
-6.66235e-06
-7.52702e-06
-8.7133e-06
-1.04676e-05
-1.32688e-05
-1.28195e-05
-1.94642e-05
-2.08413e-05
-2.23811e-05
-2.33274e-05
-2.4169e-05
-2.47098e-05
-2.50281e-05
-2.51027e-05
-2.49395e-05
-2.45373e-05
-2.38452e-05
-2.29584e-05
-2.15874e-05
-2.02989e-05
-1.44668e-05
-1.45664e-05
-1.16921e-05
-9.83912e-06
-8.70899e-06
-8.0251e-06
-7.77923e-06
-7.78982e-06
-8.23804e-06
-6.18075e-06
-5.90793e-06
-5.81972e-06
-5.82584e-06
-6.04425e-06
-6.51551e-06
-7.28316e-06
-8.35372e-06
-9.70643e-06
-1.12526e-05
-1.44845e-05
-1.86207e-05
-1.9683e-05
-2.07934e-05
-2.16155e-05
-2.23929e-05
-2.29122e-05
-2.32327e-05
-2.33172e-05
-2.31746e-05
-2.28067e-05
-2.21915e-05
-2.13823e-05
-2.03586e-05
-1.94348e-05
-1.57577e-05
-1.23842e-05
-1.08879e-05
-9.53145e-06
-8.51973e-06
-7.89585e-06
-7.65927e-06
-7.6592e-06
-8.06489e-06
-6.10871e-06
-5.87294e-06
-5.80547e-06
-5.82579e-06
-6.04329e-06
-6.50391e-06
-7.26089e-06
-8.34556e-06
-9.80972e-06
-1.1634e-05
-1.39338e-05
-1.65283e-05
-1.79524e-05
-1.90398e-05
-1.98926e-05
-2.07001e-05
-2.12361e-05
-2.15618e-05
-2.16491e-05
-2.15092e-05
-2.11339e-05
-2.05146e-05
-1.96686e-05
-1.86055e-05
-1.73698e-05
-1.51599e-05
-1.29217e-05
-1.10893e-05
-9.5913e-06
-8.52969e-06
-7.87771e-06
-7.60902e-06
-7.57547e-06
-7.92761e-06
-6.07246e-06
-5.86777e-06
-5.82428e-06
-5.86311e-06
-6.07837e-06
-6.51192e-06
-7.21035e-06
-8.2047e-06
-9.51763e-06
-1.11506e-05
-1.30027e-05
-1.49498e-05
-1.62775e-05
-1.73897e-05
-1.827e-05
-1.90539e-05
-1.95761e-05
-1.98933e-05
-1.9982e-05
-1.98547e-05
-1.95019e-05
-1.89237e-05
-1.80985e-05
-1.70808e-05
-1.58665e-05
-1.41936e-05
-1.24197e-05
-1.0796e-05
-9.4593e-06
-8.47828e-06
-7.8616e-06
-7.58785e-06
-7.53252e-06
-7.83803e-06
-6.06046e-06
-5.89473e-06
-5.88343e-06
-5.9524e-06
-6.17791e-06
-6.5948e-06
-7.23933e-06
-8.13296e-06
-9.28121e-06
-1.06585e-05
-1.21627e-05
-1.37016e-05
-1.49124e-05
-1.59971e-05
-1.68729e-05
-1.76214e-05
-1.81352e-05
-1.84482e-05
-1.85397e-05
-1.84223e-05
-1.80854e-05
-1.75356e-05
-1.67571e-05
-1.58104e-05
-1.46809e-05
-1.33411e-05
-1.19022e-05
-1.05373e-05
-9.37209e-06
-8.48915e-06
-7.91124e-06
-7.6285e-06
-7.54514e-06
-7.7979e-06
-6.07317e-06
-5.9494e-06
-5.97517e-06
-6.08237e-06
-6.32656e-06
-6.73546e-06
-7.33495e-06
-8.13782e-06
-9.14067e-06
-1.03122e-05
-1.15671e-05
-1.28379e-05
-1.39402e-05
-1.49351e-05
-1.57549e-05
-1.64477e-05
-1.6931e-05
-1.72256e-05
-1.7316e-05
-1.72112e-05
-1.69041e-05
-1.64029e-05
-1.56986e-05
-1.48479e-05
-1.38489e-05
-1.27191e-05
-1.15179e-05
-1.03607e-05
-9.35108e-06
-8.56143e-06
-8.01897e-06
-7.7225e-06
-7.60587e-06
-7.79734e-06
-6.09283e-06
-6.00394e-06
-6.04721e-06
-6.18035e-06
-6.4366e-06
-6.84518e-06
-7.41934e-06
-8.16728e-06
-9.0785e-06
-1.01263e-05
-1.12476e-05
-1.23829e-05
-1.34283e-05
-1.43753e-05
-1.51631e-05
-1.58109e-05
-1.627e-05
-1.65486e-05
-1.66367e-05
-1.65393e-05
-1.62525e-05