/*--------------------------------*- C++ -*----------------------------------*\
| =========                 |                                                 |
| \\      /  F ield         | OpenFOAM: The Open Source CFD Toolbox           |
|  \\    /   O peration     | Version:  2112                                  |
|   \\  /    A nd           | Website:  www.openfoam.com                      |
|    \\/     M anipulation  |                                                 |
\*---------------------------------------------------------------------------*/
FoamFile
{
    version     2.0;
    format      ascii;
    arch        "LSB;label=32;scalar=64";
    class       surfaceScalarField;
    location    "4.6";
    object      phi;
}
// * * * * * * * * * * * * * * * * * * * * * * * * * * * * * * * * * * * * * //

dimensions      [0 3 -1 0 0 0 0];

oriented        oriented;

internalField   nonuniform List<scalar> 
188215
(
4.73057e-10
9.0543e-10
-1.37848e-09
2.45139e-09
-1.1467e-10
-1.86367e-09
5.41649e-09
-1.75468e-09
-1.21042e-09
8.88945e-09
-3.25613e-09
-2.16828e-10
1.24957e-08
-4.37842e-09
7.72196e-10
1.61247e-08
-5.12042e-09
1.49141e-09
1.97042e-08
-5.54376e-09
1.96424e-09
2.30771e-08
-5.6502e-09
2.27732e-09
2.60128e-08
-5.4112e-09
2.47551e-09
2.8092e-08
-4.65872e-09
2.57951e-09
2.90037e-08
-3.49989e-09
2.58823e-09
2.82533e-08
-1.77303e-09
2.52338e-09
2.59626e-08
-2.20298e-10
2.51105e-09
2.25563e-08
6.85694e-10
2.72059e-09
1.8325e-08
1.22777e-09
3.00354e-09
1.34649e-08
1.59639e-09
3.26365e-09
8.22118e-09
1.78853e-09
3.45524e-09
2.79945e-09
1.86472e-09
3.55701e-09
-2.59916e-09
1.83695e-09
3.56166e-09
-7.77472e-09
1.70529e-09
3.47026e-09
-1.25242e-08
1.45873e-09
3.29076e-09
-1.66113e-08
1.04106e-09
3.046e-09
-1.98721e-08
4.72232e-10
2.78861e-09
-2.1896e-08
-6.24877e-10
2.64874e-09
-2.23987e-08
-2.16526e-09
2.66802e-09
-2.12406e-08
-3.87943e-09
2.72132e-09
-1.893e-08
-4.96692e-09
2.65627e-09
-1.57848e-08
-5.55533e-09
2.41019e-09
-1.22502e-08
-5.45129e-09
1.91667e-09
-8.58333e-09
-4.7259e-09
1.05902e-09
-5.03003e-09
-3.32167e-09
-2.31626e-10
-2.14182e-09
-1.30934e-09
-1.57887e-09
-2.69203e-10
6.75057e-10
-2.54767e-09
1.84439e-09
-2.11359e-09
-1.98263e-09
5.79951e-09
-2.91145e-09
3.28706e-10
5.74205e-09
-8.16806e-09
4.05993e-09
4.57039e-09
-1.00563e-08
8.06139e-09
3.38838e-09
-1.0646e-08
1.19957e-08
2.82149e-09
-1.11342e-08
1.58205e-08
2.989e-09
-1.19342e-08
1.95246e-08
3.96132e-09
-1.32091e-08
2.30053e-08
5.8977e-09
-1.50287e-08
2.60377e-08
8.98083e-09
-1.74244e-08
2.81933e-08
1.3585e-08
-2.03993e-08
2.90987e-08
1.94288e-08
-2.38341e-08
2.8299e-08
2.6532e-08
-2.75054e-08
2.62141e-08
3.2786e-08
-3.09214e-08
2.27901e-08
3.80845e-08
-3.39747e-08
1.84895e-08
4.19942e-08
-3.64659e-08
1.35796e-08
4.4854e-08
-3.83477e-08
8.30808e-09
4.66655e-08
-3.96054e-08
2.87102e-09
4.75581e-08
-4.02563e-08
-2.54148e-09
4.75514e-08
-4.0302e-08
-7.73938e-09
4.66455e-08
-3.97423e-08
-1.25278e-08
4.48224e-08
-3.85752e-08
-1.6656e-08
4.19548e-08
-3.67856e-08
-1.98361e-08
3.80487e-08
-3.43963e-08
-2.17153e-08
3.27474e-08
-3.14931e-08
-2.22572e-08
2.65766e-08
-2.82e-08
-2.10632e-08
1.96299e-08
-2.47034e-08
-1.86032e-08
1.40865e-08
-2.15134e-08
-1.5226e-08
9.93965e-09
-1.88721e-08
-1.13353e-08
7.57245e-09
-1.69144e-08
-7.13299e-09
6.68416e-09
-1.56124e-08
-2.79302e-09
7.1144e-09
-1.4776e-08
1.21505e-09
8.55606e-09
-1.38735e-08
3.36184e-09
9.91187e-09
-1.13836e-08
9.66191e-09
-4.45568e-09
-3.96891e-09
1.28308e-08
-3.06233e-09
-1.76526e-09
1.40219e-08
-1.04835e-08
2.48705e-09
1.37019e-08
-1.33838e-08
7.10513e-09
1.34505e-08
-1.46802e-08
1.16485e-08
1.40654e-08
-1.57873e-08
1.60867e-08
1.57931e-08
-1.72422e-08
2.0479e-08
1.88752e-08
-1.93062e-08
2.47841e-08
2.371e-08
-2.21174e-08
2.87677e-08
3.07411e-08
-2.57439e-08
3.17968e-08
4.07654e-08
-3.02095e-08
3.32438e-08
5.33271e-08
-3.53452e-08
3.21457e-08
6.85013e-08
-4.08713e-08
2.93202e-08
8.16966e-08
-4.60851e-08
2.51015e-08
9.29763e-08
-5.06731e-08
2.01125e-08
1.01397e-07
-5.44142e-08
1.45947e-08
1.07625e-07
-5.72532e-08
8.78157e-09
1.11634e-07
-5.91554e-08
2.835e-09
1.13646e-07
-6.01417e-08
-3.08609e-09
1.13684e-07
-6.02111e-08
-8.82232e-09
1.11745e-07
-5.93634e-08
-1.42121e-08
1.07812e-07
-5.75998e-08
-1.90187e-08
1.01663e-07
-5.49022e-08
-2.30012e-08
9.33424e-08
-5.13112e-08
-2.55519e-08
8.21937e-08
-4.68955e-08
-2.63246e-08
6.92295e-08
-4.18802e-08
-2.44861e-08
5.4398e-08
-3.66066e-08
-2.10045e-08
4.24077e-08
-3.18027e-08
-1.64461e-08
3.31375e-08
-2.77562e-08
-1.13987e-08
2.71551e-08
-2.463e-08
-6.0826e-09
2.36998e-08
-2.23317e-08
-7.08179e-10
2.22954e-08
-2.05555e-08
4.09755e-09
2.23861e-08
-1.86357e-08
6.11982e-09
2.25983e-08
-1.47087e-08
2.0657e-08
-4.87529e-09
-5.42335e-09
2.0656e-08
-2.4019e-09
-3.16929e-09
2.27895e-08
-1.10216e-08
1.7384e-09
2.3227e-08
-1.44329e-08
7.22479e-09
2.39959e-08
-1.60319e-08
1.27678e-08
2.59494e-08
-1.7427e-08
1.83623e-08
2.94119e-08
-1.92133e-08
2.41738e-08
3.47622e-08
-2.16986e-08
3.02595e-08
4.26786e-08
-2.50542e-08
3.63377e-08
5.40141e-08
-2.93512e-08
4.13485e-08
7.03919e-08
-3.46374e-08
4.39797e-08
9.1392e-08
-4.06961e-08
4.21019e-08
1.17721e-07
-4.73414e-08
3.76477e-08
1.39729e-07
-5.35783e-08
3.15075e-08
1.58179e-07
-5.90627e-08
2.47564e-08
1.71678e-07
-6.35299e-08
1.76061e-08
1.8168e-07
-6.69045e-08
1.02615e-08
1.88125e-07
-6.91467e-08
2.82874e-09
1.91385e-07
-7.0306e-08
-4.57839e-09
1.91474e-07
-7.03836e-08
-1.18448e-08
1.88391e-07
-6.93792e-08
-1.88622e-08
1.8212e-07
-6.7291e-08
-2.54173e-08
1.72291e-07
-6.40728e-08
-3.12938e-08
1.58988e-07
-5.97689e-08
-3.54038e-08
1.40772e-07
-5.44683e-08
-3.68536e-08
1.19133e-07
-4.84534e-08
-3.36777e-08
9.33119e-08
-4.20898e-08
-2.80295e-08
7.31595e-08
-3.64001e-08
-2.11165e-08
5.77919e-08
-3.15675e-08
-1.39483e-08
4.77807e-08
-2.77938e-08
-6.83005e-09
4.15295e-08
-2.4948e-08
-2.71236e-11
3.81782e-08
-2.26857e-08
5.87291e-09
3.68116e-08
-2.03256e-08
8.05948e-09
3.60845e-08
-1.56728e-08
3.29236e-08
-4.20714e-09
-6.28729e-09
2.84762e-08
-1.53294e-09
-3.63495e-09
3.13203e-08
-1.11831e-08
2.2395e-09
3.23794e-08
-1.50268e-08
8.95012e-09
3.41289e-08
-1.68436e-08
1.59284e-08
3.74333e-08
-1.84621e-08
2.32598e-08
4.26292e-08
-2.05487e-08
3.13057e-08
5.01606e-08
-2.34444e-08
4.03551e-08
6.09702e-08
-2.73409e-08
5.0134e-08
7.65068e-08
-3.22717e-08
5.89319e-08
9.99105e-08
-3.83164e-08
6.39833e-08
1.31499e-07
-4.51581e-08
6.03634e-08
1.74365e-07
-5.30248e-08
5.27002e-08
2.07696e-07
-6.03035e-08
4.30304e-08
2.34642e-07
-6.67928e-08
3.31611e-08
2.53651e-07
-7.2103e-08
2.31178e-08
2.67774e-07
-7.60512e-08
1.30182e-08
2.76855e-07
-7.86295e-08
2.88293e-09
2.81475e-07
-7.99548e-08
-7.22818e-09
2.81622e-07
-8.00366e-08
-1.72525e-08
2.77289e-07
-7.88742e-08
-2.71643e-08
2.68488e-07
-7.64562e-08
-3.68272e-08
2.54624e-07
-7.26699e-08
-4.61999e-08
2.35887e-07
-6.7527e-08
-5.3439e-08
2.09239e-07
-6.12275e-08
-5.65022e-08
1.76381e-07
-5.41849e-08
-5.07092e-08
1.34139e-07
-4.66201e-08
-4.1088e-08
1.03723e-07
-4.01845e-08
-3.0215e-08
8.15496e-08
-3.46308e-08
-1.97422e-08
6.7572e-08
-3.02641e-08
-9.98931e-09
5.86937e-08
-2.69171e-08
-1.07361e-09
5.3527e-08
-2.42645e-08
6.33816e-09
5.09219e-08
-2.1522e-08
9.20268e-09
4.94738e-08
-1.62538e-08
4.53886e-08
-3.26232e-09
-6.7365e-09
3.58753e-08
-6.62538e-10
-3.25936e-09
3.92664e-08
-1.14233e-08
4.00855e-09
4.08653e-08
-1.57539e-08
1.23778e-08
4.35681e-08
-1.78084e-08
2.12374e-08
4.82449e-08
-1.96713e-08
3.08302e-08
5.51426e-08
-2.21062e-08
4.18396e-08
6.4626e-08
-2.54748e-08
5.50784e-08
7.76996e-08
-2.99682e-08
7.05888e-08
9.64803e-08
-3.5484e-08
8.61547e-08
1.26445e-07
-4.2101e-08
9.62701e-08
1.70429e-07
-4.90454e-08
8.90481e-08
2.39674e-07
-5.80871e-08
7.56709e-08
2.87477e-07
-6.64039e-08
6.03712e-08
3.24204e-07
-7.42624e-08
4.58592e-08
3.48979e-07
-8.08164e-08
3.15191e-08
3.67598e-07
-8.54838e-08
1.72621e-08
3.79553e-07
-8.84411e-08
3.00556e-09
3.8568e-07
-8.99486e-08
-1.12316e-08
3.85893e-07
-9.00339e-08
-2.54266e-08
3.8018e-07
-8.86961e-08
-3.96536e-08
3.68619e-07
-8.59038e-08
-5.39696e-08
3.50344e-07
-8.14034e-08
-6.89564e-08
3.25894e-07
-7.50198e-08
-8.18288e-08
2.8947e-07
-6.73595e-08
-8.83393e-08
2.42191e-07
-5.92996e-08
-7.72109e-08
1.73587e-07
-5.05762e-08
-6.06701e-08
1.31268e-07
-4.40855e-08
-4.38122e-08
1.02701e-07
-3.80092e-08
-2.87753e-08
8.56605e-08
-3.31254e-08
-1.55818e-08
7.47596e-08
-2.92594e-08
-3.90647e-09
6.80481e-08
-2.61964e-08
5.66974e-09
6.43786e-08
-2.3033e-08
9.81594e-09
6.23489e-08
-1.70213e-08
5.75344e-08
-2.32982e-09
-6.92286e-09
4.26114e-08
1.86704e-10
-2.13441e-09
4.63762e-08
-1.18982e-08
7.04496e-09
4.85158e-08
-1.68299e-08
1.75583e-08
5.22351e-08
-1.91804e-08
2.87188e-08
5.84193e-08
-2.13349e-08
4.09335e-08
6.71009e-08
-2.4173e-08
5.53125e-08
7.83039e-08
-2.80568e-08
7.36786e-08
9.24803e-08
-3.31467e-08
9.72316e-08
1.11991e-07
-3.90636e-08
1.24004e-07
1.45357e-07
-4.56836e-08
1.45392e-07
2.00118e-07
-5.10766e-08
1.30462e-07
3.15348e-07
-6.0744e-08
1.07243e-07
3.8026e-07
-6.95647e-08
8.37235e-08
4.271e-07
-7.93765e-08
6.30662e-08
4.57546e-07
-8.79098e-08
4.30186e-08
4.80972e-07
-9.33263e-08
2.31215e-08
4.96098e-07
-9.66481e-08
3.20931e-09
5.03922e-07
-9.83291e-08
-1.66936e-08
5.04213e-07
-9.84174e-08
-3.65589e-08
4.96957e-07
-9.69117e-08
-5.65426e-08
4.82361e-07
-9.37583e-08
-7.70581e-08
4.59374e-07
-8.85146e-08
-1.00298e-07
4.2929e-07
-8.01556e-08
-1.22947e-07
3.82679e-07
-7.05591e-08
-1.36982e-07
3.18262e-07
-6.20361e-08
-1.14159e-07
2.03465e-07
-5.27023e-08
-8.63629e-08
1.51299e-07
-4.78273e-08
-6.12368e-08
1.19374e-07
-4.17991e-08
-4.06305e-08
1.01664e-07
-3.66097e-08
-2.34383e-08
8.98254e-08
-3.2258e-08
-8.41577e-09
8.17947e-08
-2.87691e-08
4.02621e-09
7.70542e-08
-2.51176e-08
1.01205e-08
7.44263e-08
-1.81717e-08
6.90294e-08
-1.37448e-09
-6.9149e-09
4.82125e-08
1.31382e-09
-1.64735e-10
5.22911e-08
-1.26651e-08
1.15499e-08
5.51346e-08
-1.83334e-08
2.48416e-08
6.0003e-08
-2.10596e-08
3.8802e-08
6.80291e-08
-2.35703e-08
5.38137e-08
7.89732e-08
-2.6884e-08
7.11877e-08
9.22872e-08
-3.13573e-08
9.40028e-08
1.06802e-07
-3.71364e-08
1.26006e-07
1.23281e-07
-4.32927e-08
1.70953e-07
1.50265e-07
-4.98565e-08
2.17861e-07
2.01309e-07
-4.80992e-08
1.87173e-07
4.01562e-07
-5.5526e-08
1.49062e-07
4.82927e-07
-6.45559e-08
1.14901e-07
5.39504e-07
-7.82439e-08
8.67504e-08
5.75963e-07
-9.02656e-08
5.91714e-08
6.05008e-07
-9.64573e-08
3.14233e-08
6.23975e-07
-1.00129e-07
3.51843e-09
6.33814e-07
-1.01987e-07
-2.43931e-08
6.34203e-07
-1.02078e-07
-5.21608e-08
6.25124e-07
-1.00399e-07
-7.97709e-08
6.06869e-07
-9.68983e-08
-1.07914e-07
5.78405e-07
-9.08882e-08
-1.41952e-07
5.42377e-07
-7.90492e-08
-1.79547e-07
4.85883e-07
-6.56099e-08
-2.0909e-07
4.04784e-07
-5.69787e-08
-1.60022e-07
2.04233e-07
-4.98347e-08
-1.14245e-07
1.57635e-07
-5.21128e-08
-8.04624e-08
1.3182e-07
-4.62284e-08
-5.48449e-08
1.16999e-07
-4.09523e-08
-3.38105e-08
1.04868e-07
-3.60769e-08
-1.49571e-08
9.50701e-08
-3.21288e-08
1.16083e-09
8.8839e-08
-2.79028e-08
1.01188e-08
8.52294e-08
-1.97611e-08
7.94967e-08
-3.48481e-10
-6.71755e-09
5.24645e-08
2.46554e-09
2.43521e-09
5.6817e-08
-1.36787e-08
1.7612e-08
6.03164e-08
-2.03586e-08
3.44855e-08
6.66319e-08
-2.35023e-08
5.18689e-08
7.70614e-08
-2.64157e-08
6.97494e-08
9.1323e-08
-3.02303e-08
8.89159e-08
1.08433e-07
-3.53119e-08
1.12866e-07
1.24622e-07
-4.17702e-08
1.48594e-07
1.36249e-07
-4.86969e-08
2.221e-07
1.30425e-07
-5.36658e-08
3.20614e-07
1.54674e-07
-5.18778e-08
2.57756e-07
5.0754e-07
-4.31192e-08
1.97733e-07
5.91003e-07
-4.80535e-08
1.5215e-07
6.52465e-07
-6.7377e-08
1.15904e-07
6.96239e-07
-8.40303e-08
7.93989e-08
7.31789e-07
-9.0276e-08
4.19316e-08
7.55978e-07
-9.45352e-08
3.96268e-09
7.68456e-07
-9.66738e-08
-3.40335e-08
7.6896e-07
-9.67608e-08
-7.15898e-08
7.57473e-07
-9.47926e-08
-1.08266e-07
7.34234e-07
-9.06886e-08
-1.44742e-07
6.99498e-07
-8.46172e-08
-1.90551e-07
6.56318e-07
-6.8132e-08
-2.5037e-07
5.94793e-07
-4.90905e-08
-3.11556e-07
5.10631e-07
-4.46608e-08
-2.09704e-07
1.56474e-07
-5.40944e-08
-1.36708e-07
1.40839e-07
-5.62e-08
-9.87226e-08
1.45735e-07
-5.19006e-08
-7.11804e-08
1.35514e-07
-4.60571e-08
-4.72028e-08
1.21614e-07
-4.07232e-08
-2.4018e-08
1.08246e-07
-3.63606e-08
-2.95057e-09
9.93309e-08
-3.15593e-08
9.84497e-09
9.42993e-08
-2.18654e-08
8.82746e-08
1.06706e-09
-6.12244e-09
5.48784e-08
3.7086e-09
6.34742e-09
5.93748e-08
-1.50277e-08
2.61065e-08
6.34629e-08
-2.29055e-08
4.81445e-08
7.11823e-08
-2.65884e-08
7.09602e-08
8.42722e-08
-3.00266e-08
9.36861e-08
1.0309e-07
-3.44925e-08
1.15437e-07
1.27072e-07
-4.03899e-08
1.36161e-07
1.52715e-07
-4.88176e-08
1.53048e-07
1.76539e-07
-5.71763e-08
2.0801e-07
1.47905e-07
-7.24416e-08
4.4293e-07
-8.02464e-08
3.51715e-07
6.08233e-07
-9.47825e-09
2.66961e-07
6.76911e-07
-1.15378e-09
2.09757e-07
7.28569e-07
-1.89001e-08
1.63163e-07
7.80635e-07
-3.78017e-08
1.12193e-07
8.22007e-07
-3.92481e-08
5.86778e-08
8.5111e-07
-4.16173e-08
4.59824e-09
8.65737e-07
-4.3201e-08
-4.95196e-08
8.66337e-07
-4.32589e-08
-1.03172e-07
8.52917e-07
-4.17912e-08
-1.54449e-07
8.25017e-07
-3.95061e-08
-2.01563e-07
7.84828e-07
-3.82159e-08
-2.59573e-07
7.33764e-07
-1.94355e-08
-3.4569e-07
6.82711e-07
-1.80069e-09
-4.36342e-07
6.12195e-07
-1.09124e-08
-1.96479e-07
-8.33892e-08
-1.39682e-07
1.58274e-07
-7.42309e-08
-1.21558e-07
1.87706e-07
-6.00957e-08
-9.66202e-08
1.641e-07
-5.35235e-08
-6.87226e-08
1.40413e-07
-4.66969e-08
-3.88425e-08
1.20222e-07
-4.18563e-08
-1.02849e-08
1.07166e-07
-3.63929e-08
8.44855e-09
1.00293e-07
-2.47276e-08
9.39861e-08
2.73704e-09
-5.30633e-09
5.52058e-08
4.97885e-09
1.10865e-08
5.96682e-08
-1.66861e-08
3.63321e-08
6.41533e-08
-2.59361e-08
6.48993e-08
7.28895e-08
-3.02744e-08
9.52061e-08
8.82822e-08
-3.43168e-08
1.2518e-07
1.12281e-07
-3.91646e-08
1.4871e-07
1.48376e-07
-4.48341e-08
1.50155e-07
2.01326e-07
-5.00566e-08
1.15303e-07
2.78563e-07
-6.71721e-08
3.77991e-07
-1.14783e-07
1.97112e-07
3.28227e-07
8.28935e-08
2.6309e-07
5.58794e-07
5.21393e-08
2.59592e-07
6.87357e-07
4.47099e-08
2.12163e-07
7.82015e-07
4.60485e-08
1.47002e-07
8.44836e-07
4.23322e-08
7.69224e-08
8.84088e-07
3.71023e-08
5.40665e-09
9.02841e-07
3.44115e-08
-6.61543e-08
9.03484e-07
3.44134e-08
-1.36391e-07
8.86054e-07
3.70999e-08
-2.01929e-07
8.48218e-07
4.2337e-08
-2.5023e-07
7.87035e-07
4.60939e-08
-2.55727e-07
6.94387e-07
4.48739e-08
-1.92999e-07
5.67957e-07
5.20247e-08
3.37674e-07
8.15223e-08
-1.11328e-07
3.81018e-07
-1.11417e-07
-1.39914e-07
2.85939e-07
-6.96466e-08
-1.31091e-07
2.10834e-07
-5.55572e-08
-9.88724e-08
1.60682e-07
-5.24883e-08
-5.91662e-08
1.28805e-07
-4.82891e-08
-2.05077e-08
1.10958e-07
-4.24506e-08
6.15086e-09
1.0214e-07
-2.85054e-08
9.58453e-08
4.29172e-09
-3.99354e-09
5.29719e-08
6.22745e-09
1.70591e-08
5.71865e-08
-1.85709e-08
4.93122e-08
6.12399e-08
-2.93397e-08
8.76481e-08
6.91146e-08
-3.4561e-08
1.32864e-07
8.27746e-08
-3.97087e-08
1.87892e-07
1.03316e-07
-4.60628e-08
2.57859e-07
1.31886e-07
-5.34776e-08
3.49235e-07
1.68744e-07
-5.87938e-08
4.75027e-07
2.12539e-07
-5.97684e-08
6.2943e-07
2.64706e-07
-4.11183e-08
4.92487e-07
8.73426e-08
4.96008e-08
4.94669e-07
2.31245e-07
9.48e-08
4.72066e-07
4.19263e-07
1.62134e-07
4.02117e-07
5.38038e-07
2.19268e-07
3.0617e-07
6.26342e-07
2.51619e-07
2.03581e-07
6.84575e-07
2.6285e-07
1.0368e-07
7.20706e-07
2.63283e-07
6.23242e-09
7.38037e-07
2.62252e-07
-9.11951e-08
7.38611e-07
2.62301e-07
-1.91027e-07
7.2245e-07
2.63436e-07
-2.93511e-07
6.87549e-07
2.63153e-07
-3.89374e-07
6.30639e-07
2.52258e-07
-4.59317e-07
5.4372e-07
2.20611e-07
-4.81671e-07
4.25941e-07
1.64371e-07
-4.8177e-07
2.39075e-07
9.86989e-08
-6.23902e-07
8.88399e-08
5.32916e-08
-4.69415e-07
2.67117e-07
-4.05851e-08
-3.38937e-07
2.18473e-07
-6.30115e-08
-2.40163e-07
1.77233e-07
-6.51726e-08
-1.60172e-07
1.43426e-07
-6.27349e-08
-9.31955e-08
1.19153e-07
-5.73245e-08
-3.67878e-08
1.04674e-07
-5.01229e-08
1.05279e-09
9.75571e-08
-3.32575e-08
9.1324e-08
5.57411e-09
-3.10305e-09
4.86208e-08
7.45413e-09
2.19858e-08
5.24311e-08
-2.03335e-08
6.00644e-08
5.57327e-08
-3.25714e-08
1.05788e-07
6.20308e-08
-3.864e-08
1.60632e-07
7.27021e-08
-4.47715e-08
2.28329e-07
8.80065e-08
-5.23876e-08
3.13727e-07
1.075e-07
-6.10114e-08
4.19955e-07
1.29769e-07
-6.72532e-08
5.49319e-07
1.49926e-07
-6.67508e-08
6.96605e-07
1.66207e-07
-4.87877e-08
6.91032e-07
1.06304e-07
-1.33877e-08
6.69999e-07
1.93817e-07
5.84598e-08
6.08043e-07
3.07724e-07
1.73495e-07
5.01421e-07
3.93085e-07
2.51575e-07
3.76107e-07
4.58127e-07
2.93529e-07
2.48089e-07
5.00353e-07
3.12241e-07
1.25368e-07
5.26592e-07
3.16835e-07
6.90346e-09
5.39139e-07
3.17362e-07
-1.11519e-07
5.39611e-07
3.17422e-07
-2.34109e-07
5.28016e-07
3.17024e-07
-3.6193e-07
5.0274e-07
3.1263e-07
-4.87098e-07
4.61476e-07
2.94332e-07
-5.93977e-07
3.97338e-07
2.5326e-07
-6.56994e-07
3.12591e-07
1.76366e-07
-6.8001e-07
1.98834e-07
6.32567e-08
-6.89655e-07
1.08818e-07
-1.03324e-08
-5.43495e-07
1.69908e-07
-4.89514e-08
-4.09954e-07
1.5555e-07
-7.06182e-08
-2.9572e-07
1.3762e-07
-7.46221e-08
-1.98817e-07
1.18272e-07
-7.17485e-08
-1.16965e-07
1.02865e-07
-6.55646e-08
-4.82899e-08
9.31457e-08
-5.71473e-08
-1.45682e-09
8.82991e-08
-3.75751e-08
8.27283e-08
7.13889e-09
-2.47086e-09
4.24698e-08
8.62192e-09
2.59896e-08
4.57906e-08
-2.18199e-08
6.88816e-08
4.82047e-08
-3.53639e-08
1.20391e-07
5.27155e-08
-4.2194e-08
1.82097e-07
6.02378e-08
-4.92423e-08
2.57699e-07
7.06245e-08
-5.82199e-08
3.51004e-07
8.29806e-08
-6.8785e-08
4.62975e-07
9.61073e-08
-7.83092e-08
5.89006e-07
1.0626e-07
-8.2365e-08
7.12556e-07
1.15469e-07
-7.28115e-08
7.59102e-07
1.03451e-07
-4.36936e-08
7.61986e-07
1.54107e-07
3.68272e-08
6.89471e-07
2.22257e-07
1.57982e-07
5.66695e-07
2.78212e-07
2.37648e-07
4.21705e-07
3.21541e-07
2.81577e-07
2.76705e-07
3.49526e-07
2.95826e-07
1.39308e-07
3.67083e-07
2.96907e-07
7.41944e-09
3.75501e-07
2.95525e-07
-1.24419e-07
3.75898e-07
2.95551e-07
-2.61667e-07
3.68268e-07
2.96996e-07
-4.0646e-07
3.51477e-07
2.96055e-07
-5.51367e-07
3.24207e-07
2.82176e-07
-6.74671e-07
2.81514e-07
2.39128e-07
-7.48717e-07
2.2597e-07
1.60667e-07
-7.49365e-07
1.58026e-07
4.14558e-08
-7.06227e-07
1.06581e-07
-4.09008e-08
-5.82769e-07
1.19449e-07
-7.29989e-08
-4.52372e-07
1.11632e-07
-8.6478e-08
-3.31831e-07
1.03376e-07
-8.62971e-08
-2.2582e-07
9.28448e-08
-8.05838e-08
-1.34232e-07
8.40929e-08
-7.2816e-08
-5.65283e-08
7.84733e-08
-6.30308e-08
-2.81014e-09
7.56465e-08
-4.10655e-08
7.10297e-08
8.88838e-09
-2.29773e-09
3.51259e-08
9.64163e-09
2.85931e-08
3.78773e-08
-2.29775e-08
7.48604e-08
3.95277e-08
-3.75903e-08
1.30079e-07
4.25358e-08
-4.50385e-08
1.95603e-07
4.75254e-08
-5.2812e-08
2.74832e-07
5.42565e-08
-6.28612e-08
3.70797e-07
6.19502e-08
-7.49345e-08
4.83613e-07
6.99727e-08
-8.66809e-08
6.06784e-07
7.63946e-08
-9.33064e-08
7.24664e-07
8.43282e-08
-8.67387e-08
7.98077e-07
8.8363e-08
-5.83262e-08
8.13636e-07
1.20318e-07
1.82303e-08
7.36029e-07
1.62643e-07
1.37221e-07
6.04539e-07
1.98663e-07
2.11039e-07
4.48905e-07
2.26817e-07
2.50358e-07
2.94227e-07
2.45349e-07
2.58857e-07
1.48019e-07
2.57114e-07
2.56177e-07
7.82486e-09
2.62835e-07
2.5286e-07
-1.3233e-07
2.63204e-07
2.52849e-07
-2.78421e-07
2.58207e-07
2.56152e-07
-4.32957e-07
2.4712e-07
2.58893e-07
-5.88623e-07
2.29188e-07
2.50685e-07
-7.20848e-07
2.01538e-07
2.12201e-07
-8.00338e-07
1.65862e-07
1.39598e-07
-7.88777e-07
1.23837e-07
2.26281e-08
-7.18231e-07
9.17323e-08
-5.56979e-08
-6.00013e-07
8.83441e-08
-8.71129e-08
-4.72132e-07
8.14318e-08
-9.76814e-08
-3.50137e-07
7.65265e-08
-9.51458e-08
-2.40439e-07
7.06326e-08
-8.74858e-08
-1.43786e-07
6.58691e-08
-7.8429e-08
-6.07274e-08
6.29017e-08
-6.74872e-08
-2.90658e-09
6.13998e-08
-4.35741e-08
5.77383e-08
1.03849e-08
-2.34635e-09
2.70079e-08
1.04643e-08
3.02316e-08
2.91366e-08
-2.38372e-08
7.88336e-08
3.01886e-08
-3.92629e-08
1.36484e-07
3.20635e-08
-4.71776e-08
2.04289e-07
3.52089e-08
-5.54887e-08
2.85408e-07
3.94641e-08
-6.63264e-08
3.82492e-07
4.4368e-08
-7.95024e-08
4.95499e-07
4.9737e-08
-9.27707e-08
6.18149e-07
5.48219e-08
-1.01078e-07
7.3673e-07
6.20603e-08
-9.63125e-08
8.22995e-07
7.00078e-08
-6.79097e-08
8.45157e-07
9.10499e-08
7.1052e-09
7.65521e-07
1.17898e-07
1.24382e-07
6.28826e-07
1.41269e-07
1.94089e-07
4.66447e-07
1.59683e-07
2.29512e-07
3.0556e-07
1.72157e-07
2.34079e-07
1.53703e-07
1.80203e-07
2.28767e-07
8.19323e-09
1.84222e-07
2.24123e-07
-1.37295e-07
1.846e-07
2.24092e-07
-2.89083e-07
1.81317e-07
2.28679e-07
-4.49911e-07
1.73942e-07
2.34006e-07
-6.12441e-07
1.62037e-07
2.29681e-07
-7.50034e-07
1.44066e-07
1.95065e-07
-8.31728e-07
1.20997e-07
1.26559e-07
-8.1381e-07
9.44834e-08
1.14359e-08
-7.30076e-07
7.33966e-08
-6.53988e-08
-6.10814e-07
6.58806e-08
-9.67985e-08
-4.83077e-07
5.93423e-08
-1.05647e-07
-3.60337e-07
5.53556e-08
-1.0157e-07
-2.487e-07
5.15561e-08
-9.25598e-08
-1.49107e-07
4.87991e-08
-8.25237e-08
-6.27598e-08
4.72379e-08
-7.06832e-08
-2.51089e-09
4.64489e-08
-4.5298e-08
4.36898e-08
1.15376e-08
-2.51903e-09
1.84833e-08
1.10436e-08
3.11282e-08
1.9943e-08
-2.44536e-08
8.12164e-08
2.05449e-08
-4.04445e-08
1.4036e-07
2.15957e-08
-4.86758e-08
2.09489e-07
2.3418e-08
-5.73377e-08
2.9165e-07
2.59769e-08
-6.86743e-08
3.89427e-07
2.91168e-08
-8.25255e-08
5.02931e-07
3.28932e-08
-9.66607e-08
6.26457e-07
3.71672e-08
-1.05871e-07
7.47097e-07
4.333e-08
-1.01909e-07
8.39658e-07
5.10355e-08
-7.35886e-08
8.6589e-07
6.47251e-08
9.25309e-11
7.84785e-07
8.08176e-08
1.18186e-07
6.44703e-07
9.51911e-08
1.86159e-07
4.78089e-07
1.06645e-07
2.19653e-07
3.1322e-07
1.14721e-07
2.22306e-07
1.57641e-07
1.20051e-07
2.1573e-07
8.56381e-09
1.22842e-07
2.10458e-07
-1.40514e-07
1.23257e-07
2.10421e-07
-2.96092e-07
1.21272e-07
2.15623e-07
-4.61008e-07
1.16661e-07
2.22197e-07
-6.27912e-07
1.09173e-07
2.19768e-07
-7.69041e-07
9.81313e-08
1.87064e-07
-8.5225e-07
8.39639e-08
1.20242e-07
-8.30537e-07
6.78447e-08
4.92548e-09
-7.40223e-07
5.43028e-08
-7.12202e-08
-6.18649e-07
4.68321e-08
-1.02525e-07
-4.89725e-07
4.10463e-08
-1.10628e-07
-3.66054e-07
3.74161e-08
-1.05732e-07
-2.53134e-07
3.45904e-08
-9.59537e-08
-1.51792e-07
3.27593e-08
-8.53028e-08
-6.35166e-08
3.18232e-08
-7.28606e-08
-1.9536e-09
3.13497e-08
-4.64639e-08
2.9465e-08
1.22712e-08
-2.67987e-09
9.79523e-09
1.1368e-08
3.1573e-08
1.05618e-08
-2.48717e-08
8.2531e-08
1.07883e-08
-4.12015e-08
1.42568e-07
1.11739e-08
-4.96151e-08
2.12529e-07
1.19284e-08
-5.84713e-08
2.95438e-07
1.31448e-08
-7.00769e-08
3.93905e-07
1.49352e-08
-8.42852e-08
5.08176e-07
1.74784e-08
-9.88561e-08
6.32874e-07
2.09675e-08
-1.08499e-07
7.55318e-07
2.57427e-08
-1.04856e-07
8.51099e-07
3.17814e-08
-7.65272e-08
8.79e-07
3.92252e-08
-2.40122e-09
7.97067e-07
4.67554e-08
1.15996e-07
6.549e-07
5.36063e-08
1.83752e-07
4.85707e-07
5.91426e-08
2.16695e-07
3.18333e-07
6.33752e-08
2.18719e-07
1.60367e-07
6.63127e-08
2.11704e-07
8.96847e-09
6.80256e-08
2.06214e-07
-1.42458e-07
6.85048e-08
2.06179e-07
-3.00508e-07
6.77178e-08
2.11603e-07
-4.68062e-07
6.55975e-08
2.18618e-07
-6.37722e-07
6.20173e-08
2.16815e-07
-7.8114e-07
5.68962e-08
1.84653e-07
-8.65443e-07
5.02057e-08
1.18061e-07
-8.41829e-07
4.25466e-08
1.68372e-09
-7.48306e-07
3.50083e-08
-7.42285e-08
-6.24796e-07
2.89238e-08
-1.05601e-07
-4.94488e-07
2.41757e-08
-1.13438e-07
-3.69765e-07
2.08568e-08
-1.08163e-07
-2.55789e-07
1.86181e-08
-9.80038e-08
-1.53283e-07
1.72776e-08
-8.70246e-08
-6.38437e-08
1.66264e-08
-7.4242e-08
-1.55515e-09
1.63e-08
-4.72389e-08
1.52769e-08
1.2633e-08
-2.78325e-09
1.14803e-09
1.14305e-08
3.16818e-08
1.21505e-09
-2.51183e-08
8.29847e-08
1.06036e-09
-4.15749e-08
1.43431e-07
7.73327e-10
-5.00458e-08
2.1387e-07
4.42906e-10
-5.89535e-08
2.97362e-07
2.77227e-10
-7.06243e-08
3.96557e-07
6.55212e-10
-8.49152e-08
5.1173e-07
1.88239e-09
-9.95766e-08
6.3749e-07
4.51151e-09
-1.09304e-07
7.61011e-07
7.93655e-09
-1.05715e-07
8.57681e-07
1.25211e-08
-7.74099e-08
8.8571e-07
1.42811e-08
-3.08425e-09
8.03231e-07
1.35348e-08
1.15699e-07
6.60076e-07
1.29533e-08
1.83808e-07
4.89745e-07
1.25583e-08
2.16915e-07
3.21187e-07
1.29253e-08
2.19008e-07
1.62033e-07
1.34638e-08
2.12003e-07
9.43201e-09
1.41131e-08
2.06513e-07
-1.43232e-07
1.46872e-08
2.06482e-07
-3.02574e-07
1.51489e-08
2.1191e-07
-4.71479e-07
1.55864e-08
2.18917e-07
-6.42498e-07
1.59935e-08
2.17042e-07
-7.87148e-07
1.68456e-08
1.84701e-07
-8.72261e-07
1.75655e-08
1.17753e-07
-8.4844e-07
1.81172e-08
6.08357e-10
-7.54055e-07
1.58429e-08
-7.52194e-08
-6.29403e-07
1.09025e-08
-1.06631e-07
-4.97932e-07
7.15263e-09
-1.14449e-07
-3.72185e-07
4.22719e-09
-1.09117e-07
-2.57337e-07
2.65666e-09
-9.88872e-08
-1.54089e-07
1.86342e-09
-8.78338e-08
-6.40404e-08
1.53116e-09
-7.49529e-08
-1.40176e-09
1.37638e-09
-4.7715e-08
1.22786e-09
1.26473e-08
-2.83314e-09
-7.2496e-09
1.12308e-08
3.14497e-08
-7.86935e-09
-2.51984e-08
8.25696e-08
-8.48739e-09
-4.15722e-08
1.42936e-07
-9.61575e-09
-4.99777e-08
2.13487e-07
-1.13072e-08
-5.88005e-08
2.97362e-07
-1.32555e-08
-7.03421e-08
3.97284e-07
-1.48184e-08
-8.44489e-08
5.13487e-07
-1.54541e-08
-9.88663e-08
6.40257e-07
-1.39192e-08
-1.08339e-07
7.64265e-07
-1.1512e-08
-1.04559e-07
8.59606e-07
-6.46134e-09
-7.63584e-08
8.86155e-07
-1.00929e-08
-2.17532e-09
8.03273e-07
-2.05076e-08
1.16925e-07
6.60181e-07
-2.97709e-08
1.85816e-07
4.90162e-07
-3.71366e-08
2.19714e-07
3.21764e-07
-4.1192e-08
2.22515e-07
1.62646e-07
-4.33499e-08
2.15932e-07
9.98074e-09
-4.38635e-08
2.10642e-07
-1.42789e-07
-4.31503e-08
2.10607e-07
-3.0222e-07
-4.12493e-08
2.15829e-07
-4.71166e-07
-3.78651e-08
2.22398e-07
-6.42145e-07
-3.28192e-08
2.19791e-07
-7.87023e-07
-2.48943e-08
1.86618e-07
-8.72766e-07
-1.55116e-08
1.1882e-07
-8.50714e-07
-5.56659e-09
1.63146e-09
-7.57596e-07
-2.8632e-09
-7.44115e-08
-6.32433e-07
-8.53315e-09
-1.05727e-07
-4.99959e-07
-1.15814e-08
-1.1374e-07
-3.73226e-07
-1.38545e-08
-1.08652e-07
-2.5772e-07
-1.42024e-08
-9.86468e-08
-1.54175e-07
-1.39203e-08
-8.77613e-08
-6.4083e-08
-1.35446e-08
-7.50159e-08
-1.47331e-09
-1.33247e-08
-4.79086e-08
-1.25589e-08
1.23134e-08
-2.8813e-09
-1.51406e-08
1.07723e-08
3.07569e-08
-1.64115e-08
-2.5096e-08
8.10698e-08
-1.76322e-08
-4.11681e-08
1.40726e-07
-1.98897e-08
-4.9382e-08
2.10834e-07
-2.34416e-08
-5.79739e-08
2.94715e-07
-2.79615e-08
-6.91745e-08
3.95271e-07
-3.25624e-08
-8.28128e-08
5.12738e-07
-3.63133e-08
-9.66071e-08
6.40934e-07
-3.66975e-08
-1.05418e-07
7.65586e-07
-3.5126e-08
-1.01038e-07
8.56919e-07
-2.48889e-08
-7.29054e-08
8.795e-07
-3.40702e-08
1.3967e-09
7.96345e-07
-5.83089e-08
1.20956e-07
6.54518e-07
-7.95927e-08
1.91649e-07
4.86507e-07
-9.6542e-08
2.27416e-07
3.19808e-07
-1.06524e-07
2.32032e-07
1.62109e-07
-1.12228e-07
2.26577e-07
1.06628e-08
-1.14238e-07
2.2182e-07
-1.40935e-07
-1.1331e-07
2.21758e-07
-2.99092e-07
-1.09478e-07
2.26385e-07
-4.66583e-07
-1.02133e-07
2.31759e-07
-6.35901e-07
-9.07678e-08
2.27267e-07
-7.79896e-07
-7.30467e-08
1.92148e-07
-8.66236e-07
-5.16525e-08
1.22481e-07
-8.48577e-07
-2.85381e-08
5.31287e-09
-7.59357e-07
-2.07469e-08
-7.13364e-08
-6.3357e-07
-3.17237e-08
-1.02597e-07
-4.99788e-07
-3.41911e-08
-1.11172e-07
-3.72007e-07
-3.49536e-08
-1.06681e-07
-2.56177e-07
-3.28161e-08
-9.72163e-08
-1.52993e-07
-3.03656e-08
-8.6739e-08
-6.36492e-08
-2.85285e-08
-7.43598e-08
-1.65975e-09
-2.75506e-08
-4.77636e-08
-2.58194e-08
1.16008e-08
-3.06041e-09
-2.21425e-08
1.00623e-08
2.93249e-08
-2.40181e-08
-2.47787e-08
7.79815e-08
-2.59718e-08
-4.03171e-08
1.35953e-07
-2.96584e-08
-4.82029e-08
2.04569e-07
-3.56614e-08
-5.63957e-08
2.87436e-07
-4.38342e-08
-6.69945e-08
3.87968e-07
-5.3313e-08
-7.97815e-08
5.06853e-07
-6.28293e-08
-9.23696e-08
6.38062e-07
-6.80719e-08
-9.98344e-08
7.65726e-07
-6.88333e-08
-9.39565e-08
8.48362e-07
-4.13631e-08
-6.61621e-08
8.62601e-07
-5.77649e-08
9.45591e-09
7.79014e-07
-1.03955e-07
1.29233e-07
6.40158e-07
-1.43993e-07
2.03256e-07
4.76832e-07
-1.75455e-07
2.4224e-07
3.14224e-07
-1.94241e-07
2.50325e-07
1.59965e-07
-2.05099e-07
2.47129e-07
1.15356e-08
-2.09272e-07
2.43464e-07
-1.37094e-07
-2.08007e-07
2.43327e-07
-2.91965e-07
-2.01315e-07
2.46709e-07
-4.55633e-07
-1.88124e-07
2.49659e-07
-6.20704e-07
-1.67237e-07
2.41541e-07
-7.62272e-07
-1.34555e-07
2.03076e-07
-8.49775e-07
-9.42258e-08
1.30077e-07
-8.40625e-07
-4.99036e-08
1.22154e-08
-7.59925e-07
-3.633e-08
-6.5117e-08
-6.31215e-07
-6.43304e-08
-9.61028e-08
-4.9468e-07
-6.46398e-08
-1.06086e-07
-3.65876e-07
-6.09714e-08
-1.02786e-07
-2.5062e-07
-5.37283e-08
-9.43442e-08
-1.49122e-07
-4.7284e-08
-8.45799e-08
-6.19174e-08
-4.29107e-08
-7.28222e-08
-1.6518e-09
-4.06651e-08
-4.7151e-08
-3.79286e-08
1.04574e-08
-3.43749e-09
-2.78485e-08
9.14348e-09
2.69991e-08
-3.02424e-08
-2.42123e-08
7.30096e-08
-3.29929e-08
-3.89894e-08
1.28041e-07
-3.82697e-08
-4.64199e-08
1.9357e-07
-4.71283e-08
-5.40624e-08
2.73476e-07
-5.99022e-08
-6.38382e-08
3.72004e-07
-7.63633e-08
-7.54773e-08
4.91176e-07
-9.56236e-08
-8.63777e-08
6.27541e-07
-1.12435e-07
-9.20026e-08
7.65324e-07
-1.22493e-07
-8.4123e-08
8.28992e-07
-5.02374e-08
-5.47942e-08
8.27194e-07
-7.93589e-08
2.33919e-08
7.45104e-07
-1.64782e-07
1.42918e-07
6.12983e-07
-2.32374e-07
2.20502e-07
4.58322e-07
-2.83515e-07
2.62721e-07
3.03211e-07
-3.14658e-07
2.75528e-07
1.5538e-07
-3.32573e-07
2.75306e-07
1.27388e-08
-3.39734e-07
2.73103e-07
-1.30135e-07
-3.37965e-07
2.72831e-07
-2.7871e-07
-3.27214e-07
2.74473e-07
-4.35156e-07
-3.05842e-07
2.74165e-07
-5.92129e-07
-2.71344e-07
2.61079e-07
-7.27743e-07
-2.18128e-07
2.19186e-07
-8.15036e-07
-1.49576e-07
1.42644e-07
-8.22219e-07
-6.78332e-08
2.51123e-08
-7.59704e-07
-4.43086e-08
-5.45367e-08
-6.21278e-07
-1.15489e-07
-8.7267e-08
-4.7999e-07
-1.06933e-07
-9.89953e-08
-3.51413e-07
-9.23572e-08
-9.71911e-08
-2.38901e-07
-7.61423e-08
-9.00984e-08
-1.41312e-07
-6.36468e-08
-8.12262e-08
-5.82191e-08
-5.5733e-08
-7.02704e-08
-1.22954e-09
-5.17384e-08
-4.59162e-08
-4.81252e-08
8.96706e-09
-4.23111e-09
-3.1674e-08
8.05667e-09
2.33983e-08
-3.44797e-08
-2.33921e-08
6.54212e-08
-3.78075e-08
-3.72083e-08
1.15514e-07
-4.42953e-08
-4.4067e-08
1.74921e-07
-5.55392e-08
-5.09965e-08
2.4738e-07
-7.2675e-08
-5.9686e-08
3.37848e-07
-9.7068e-08
-6.97632e-08
4.50452e-07
-1.30374e-07
-7.78534e-08
5.90332e-07
-1.72686e-07
-7.9629e-08
7.6514e-07
-2.3331e-07
-6.39907e-08
7.95517e-07
-5.00338e-08
-3.05802e-08
7.48679e-07
-7.07764e-08
3.82556e-08
6.76444e-07
-2.43032e-07
1.50485e-07
5.5956e-07