/*--------------------------------*- C++ -*----------------------------------*\
| =========                 |                                                 |
| \\      /  F ield         | OpenFOAM: The Open Source CFD Toolbox           |
|  \\    /   O peration     | Version:  2112                                  |
|   \\  /    A nd           | Website:  www.openfoam.com                      |
|    \\/     M anipulation  |                                                 |
\*---------------------------------------------------------------------------*/
FoamFile
{
    version     2.0;
    format      ascii;
    arch        "LSB;label=32;scalar=64";
    class       volVectorField;
    location    "4.6";
    object      U;
}
// * * * * * * * * * * * * * * * * * * * * * * * * * * * * * * * * * * * * * //

dimensions      [0 1 -1 0 0 0 0];

internalField   nonuniform List<vector> 
64906
(
(-1.62342e-07 -5.08266e-07 -1.3874e-07)
(1.66791e-06 -2.32253e-06 -1.71515e-07)
(5.5458e-06 -4.21122e-06 7.49503e-07)
(1.02226e-05 -5.95719e-06 1.95721e-06)
(1.53568e-05 -7.3454e-06 2.93406e-06)
(2.05661e-05 -8.45415e-06 3.69301e-06)
(2.57715e-05 -9.40163e-06 4.36156e-06)
(3.07994e-05 -1.02516e-05 5.02541e-06)
(3.54262e-05 -1.104e-05 5.71812e-06)
(3.91142e-05 -1.1665e-05 6.4594e-06)
(4.14118e-05 -1.2219e-05 7.19849e-06)
(4.15625e-05 -1.25271e-05 7.93854e-06)
(3.92955e-05 -1.30485e-05 8.67735e-06)
(3.51502e-05 -1.3382e-05 9.53233e-06)
(2.95713e-05 -1.38111e-05 1.03054e-05)
(2.2985e-05 -1.42029e-05 1.093e-05)
(1.5658e-05 -1.4537e-05 1.13592e-05)
(7.9417e-06 -1.47362e-05 1.15836e-05)
(1.07317e-07 -1.4786e-05 1.15962e-05)
(-7.54382e-06 -1.46871e-05 1.1398e-05)
(-1.47423e-05 -1.4455e-05 1.09962e-05)
(-2.11445e-05 -1.4166e-05 1.04013e-05)
(-2.6515e-05 -1.3828e-05 9.66624e-06)
(-3.03622e-05 -1.35226e-05 8.88579e-06)
(-3.22602e-05 -1.30712e-05 8.19127e-06)
(-3.175e-05 -1.28311e-05 7.48322e-06)
(-2.91041e-05 -1.22992e-05 6.75461e-06)
(-2.50978e-05 -1.16188e-05 5.97432e-06)
(-2.01946e-05 -1.0612e-05 5.14129e-06)
(-1.49748e-05 -9.26684e-06 4.1529e-06)
(-9.70384e-06 -7.43341e-06 2.85471e-06)
(-5.01506e-06 -5.07822e-06 1.16777e-06)
(-1.30498e-06 -2.46531e-06 -1.64667e-07)
(4.27763e-07 -3.15373e-07 -3.38098e-07)
(-3.01983e-06 3.50633e-06 -1.09421e-06)
(-2.16042e-06 2.14553e-06 -6.1688e-06)
(3.12163e-06 -8.9775e-08 -7.84208e-06)
(8.70362e-06 -2.31652e-06 -8.20625e-06)
(1.44328e-05 -3.87796e-06 -8.46762e-06)
(1.99922e-05 -4.68358e-06 -8.99181e-06)
(2.54221e-05 -4.74985e-06 -9.89485e-06)
(3.0611e-05 -4.01077e-06 -1.12189e-05)
(3.54232e-05 -2.36445e-06 -1.29899e-05)
(3.92533e-05 5.01116e-07 -1.52154e-05)
(4.16809e-05 4.30949e-06 -1.78189e-05)
(4.17963e-05 9.11954e-06 -2.06144e-05)
(3.95841e-05 1.31725e-05 -2.32331e-05)
(3.55653e-05 1.66927e-05 -2.55806e-05)
(2.98828e-05 1.91747e-05 -2.74822e-05)
(2.3209e-05 2.09239e-05 -2.8909e-05)
(1.58098e-05 2.19669e-05 -2.98602e-05)
(8.05898e-06 2.24514e-05 -3.0352e-05)
(1.9392e-07 2.24064e-05 -3.03862e-05)
(-7.48592e-06 2.18317e-05 -2.99625e-05)
(-1.47448e-05 2.06987e-05 -2.90784e-05)
(-2.12058e-05 1.88625e-05 -2.77191e-05)
(-2.65889e-05 1.6313e-05 -2.58914e-05)
(-3.02807e-05 1.27784e-05 -2.36552e-05)
(-3.21586e-05 8.72178e-06 -2.11391e-05)
(-3.16461e-05 3.97016e-06 -1.84738e-05)
(-2.87925e-05 3.7042e-07 -1.60549e-05)
(-2.45046e-05 -2.09514e-06 -1.40892e-05)
(-1.9152e-05 -3.00955e-06 -1.26739e-05)
(-1.33193e-05 -2.55156e-06 -1.17955e-05)
(-7.12175e-06 -7.53914e-07 -1.13075e-05)
(-1.04804e-06 2.11162e-06 -1.07349e-05)
(4.45481e-06 4.96195e-06 -8.56886e-06)
(4.47974e-06 6.30854e-06 -1.86925e-06)
(-5.16564e-06 1.32104e-05 -9.06363e-07)
(-5.4241e-06 1.41562e-05 -8.22515e-06)
(4.83813e-07 1.31725e-05 -1.08321e-05)
(6.88018e-06 1.21668e-05 -1.17897e-05)
(1.35037e-05 1.21912e-05 -1.25681e-05)
(1.99145e-05 1.35404e-05 -1.36462e-05)
(2.6263e-05 1.64559e-05 -1.52378e-05)
(3.25144e-05 2.13284e-05 -1.74513e-05)
(3.86594e-05 2.85722e-05 -2.0347e-05)
(4.3833e-05 3.89403e-05 -2.39555e-05)
(4.7478e-05 5.18737e-05 -2.81513e-05)
(4.77702e-05 6.73365e-05 -3.26881e-05)
(4.46447e-05 8.09895e-05 -3.69724e-05)
(3.94983e-05 9.26941e-05 -4.07194e-05)
(3.26869e-05 0.000101471 -4.37608e-05)
(2.51002e-05 0.000107948 -4.60598e-05)
(1.6867e-05 0.000112106 -4.75974e-05)
(8.37249e-06 0.000114181 -4.83948e-05)
(-2.23594e-07 0.000114202 -4.84505e-05)
(-8.64413e-06 0.00011217 -4.77641e-05)
(-1.67307e-05 0.000108059 -4.63368e-05)
(-2.4093e-05 0.000101634 -4.41499e-05)
(-3.0605e-05 9.29345e-05 -4.12267e-05)
(-3.53796e-05 8.13271e-05 -3.76152e-05)
(-3.80775e-05 6.79053e-05 -3.34885e-05)
(-3.72653e-05 5.28082e-05 -2.9151e-05)
(-3.30173e-05 4.05055e-05 -2.52205e-05)
(-2.71253e-05 3.10238e-05 -2.19562e-05)
(-2.00388e-05 2.50699e-05 -1.94867e-05)
(-1.26025e-05 2.19607e-05 -1.77361e-05)
(-4.80157e-06 2.12466e-05 -1.64414e-05)
(2.55899e-06 2.22917e-05 -1.50038e-05)
(8.98097e-06 2.32641e-05 -1.14924e-05)
(7.48335e-06 2.1501e-05 -1.78189e-06)
(-6.78413e-06 2.40068e-05 -1.31761e-07)
(-7.75962e-06 2.64365e-05 -8.54119e-06)
(-1.10737e-06 2.65542e-05 -1.15355e-05)
(6.37943e-06 2.69346e-05 -1.26822e-05)
(1.43679e-05 2.87706e-05 -1.36507e-05)
(2.22904e-05 3.24896e-05 -1.49643e-05)
(3.04626e-05 3.8551e-05 -1.6878e-05)
(3.89622e-05 4.77215e-05 -1.95323e-05)
(4.8e-05 6.08804e-05 -2.29879e-05)
(5.61613e-05 7.96086e-05 -2.7299e-05)
(6.25671e-05 0.000103162 -3.22882e-05)
(6.31577e-05 0.00013184 -3.77913e-05)
(5.78907e-05 0.00015648 -4.29509e-05)
(5.01484e-05 0.000177421 -4.74462e-05)
(4.05717e-05 0.00019298 -5.10875e-05)
(3.05944e-05 0.000204502 -5.38245e-05)
(2.00727e-05 0.000211932 -5.56379e-05)
(9.43142e-06 0.000215678 -5.65759e-05)
(-1.30114e-06 0.000215767 -5.66379e-05)
(-1.18674e-05 0.0002122 -5.58234e-05)
(-2.22396e-05 0.000204948 -5.41317e-05)
(-3.198e-05 0.000193609 -5.15177e-05)
(-4.12316e-05 0.000178266 -4.80035e-05)
(-4.85322e-05 0.000157595 -4.365e-05)
(-5.32566e-05 0.000133394 -3.86612e-05)
(-5.19559e-05 0.000105334 -3.33765e-05)
(-4.47037e-05 8.27936e-05 -2.86802e-05)
(-3.55183e-05 6.53401e-05 -2.47411e-05)
(-2.51018e-05 5.38931e-05 -2.17334e-05)
(-1.48948e-05 4.69102e-05 -1.95481e-05)
(-4.66509e-06 4.34686e-05 -1.78916e-05)
(4.48133e-06 4.25104e-05 -1.61636e-05)
(1.20477e-05 4.20785e-05 -1.20951e-05)
(9.67949e-06 3.83672e-05 -8.98271e-07)
(-7.84907e-06 3.53825e-05 7.98861e-07)
(-9.00774e-06 3.90024e-05 -8.54932e-06)
(-1.12582e-06 4.01005e-05 -1.18735e-05)
(7.92764e-06 4.1921e-05 -1.3145e-05)
(1.78301e-05 4.57013e-05 -1.42592e-05)
(2.79713e-05 5.19381e-05 -1.58016e-05)
(3.89431e-05 6.12496e-05 -1.80591e-05)
(5.10594e-05 7.4818e-05 -2.11983e-05)
(6.50465e-05 9.42355e-05 -2.52409e-05)
(7.86376e-05 0.000122654 -3.02768e-05)
(9.06046e-05 0.000159711 -3.60114e-05)
(9.17076e-05 0.000207414 -4.26693e-05)
(8.19312e-05 0.000246244 -4.87961e-05)
(6.93012e-05 0.000278396 -5.41981e-05)
(5.47636e-05 0.000301616 -5.85911e-05)
(4.0591e-05 0.000318833 -6.18308e-05)
(2.59828e-05 0.000329922 -6.39376e-05)
(1.14551e-05 0.000335547 -6.5021e-05)
(-3.17002e-06 0.000335715 -6.50865e-05)
(-1.76258e-05 0.000330421 -6.41331e-05)
(-3.20903e-05 0.000319656 -6.21529e-05)
(-4.60201e-05 0.000302752 -5.904e-05)
(-6.02085e-05 0.000279876 -5.47752e-05)
(-7.23134e-05 0.000248118 -4.95168e-05)
(-8.1415e-05 0.000209903 -4.35675e-05)
(-7.93491e-05 0.000163024 -3.71384e-05)
(-6.62524e-05 0.000127394 -3.17234e-05)
(-5.13463e-05 0.000100589 -2.70885e-05)
(-3.55392e-05 8.3249e-05 -2.35283e-05)
(-2.1184e-05 7.22637e-05 -2.08997e-05)
(-7.58834e-06 6.60685e-05 -1.8934e-05)
(4.11667e-06 6.31606e-05 -1.69417e-05)
(1.36232e-05 6.15538e-05 -1.2387e-05)
(1.11392e-05 5.63022e-05 2.03471e-07)
(-8.59936e-06 4.63766e-05 1.76217e-06)
(-9.39881e-06 5.08871e-05 -8.65047e-06)
(3.84997e-07 5.27918e-05 -1.23689e-05)
(1.16268e-05 5.5965e-05 -1.37924e-05)
(2.40552e-05 6.16574e-05 -1.50835e-05)
(3.70873e-05 7.03185e-05 -1.69223e-05)
(5.17145e-05 8.25876e-05 -1.96199e-05)
(6.871e-05 9.99697e-05 -2.33605e-05)
(8.99709e-05 0.000125037 -2.80259e-05)
(0.00011242 0.000163809 -3.37175e-05)
(0.000135362 0.000217372 -3.95833e-05)
(0.00013763 0.00029441 -4.74721e-05)
(0.000118976 0.000351361 -5.46684e-05)
(9.82423e-05 0.000396506 -6.1405e-05)
(7.6091e-05 0.000427728 -6.6989e-05)
(5.57799e-05 0.000450977 -7.09034e-05)
(3.50343e-05 0.000465897 -7.33687e-05)
(1.46065e-05 0.000473514 -7.46245e-05)
(-5.97062e-06 0.000473768 -7.46939e-05)
(-2.63388e-05 0.00046665 -7.35755e-05)
(-4.6967e-05 0.000452208 -7.12422e-05)
(-6.70564e-05 0.000429391 -6.74601e-05)
(-8.88668e-05 0.000398606 -6.20067e-05)
(-0.000109002 0.000353911 -5.54185e-05)
(-0.000126855 0.000297702 -4.84133e-05)
(-0.000123272 0.000221597 -4.07562e-05)
(-9.88712e-05 0.000170015 -3.52453e-05)
(-7.4879e-05 0.000133145 -2.99939e-05)
(-5.13319e-05 0.000110462 -2.58678e-05)
(-3.14915e-05 9.6035e-05 -2.27123e-05)
(-1.35293e-05 8.74473e-05 -2.03797e-05)
(1.65227e-06 8.29395e-05 -1.8056e-05)
(1.40755e-05 8.04488e-05 -1.28709e-05)
(1.2219e-05 7.4038e-05 1.3269e-06)
(-9.22028e-06 5.66078e-05 2.77269e-06)
(-9.15155e-06 6.18008e-05 -8.95806e-06)
(3.35042e-06 6.44799e-05 -1.31882e-05)
(1.75186e-05 6.90589e-05 -1.48205e-05)
(3.31261e-05 7.68075e-05 -1.63397e-05)
(4.96039e-05 8.79646e-05 -1.85454e-05)
(6.83877e-05 0.000102905 -2.17597e-05)
(9.0972e-05 0.000122909 -2.61735e-05)
(0.000121693 0.000151456 -3.13973e-05)
(0.000157044 0.000197979 -3.7324e-05)
(0.000201729 0.000269748 -4.17878e-05)
(0.000207167 0.000395176 -5.0687e-05)
(0.000170637 0.000474677 -5.85305e-05)
(0.000137415 0.000534927 -6.72533e-05)
(0.000104781 0.000574847 -7.4804e-05)
(7.65242e-05 0.000605145 -7.94454e-05)
(4.74776e-05 0.00062462 -8.22832e-05)
(1.89959e-05 0.000634633 -8.37119e-05)
(-9.77686e-06 0.00063499 -8.37858e-05)
(-3.82263e-05 0.000625672 -8.25029e-05)
(-6.72167e-05 0.000606851 -7.98034e-05)
(-9.53243e-05 0.000577109 -7.53024e-05)
(-0.000127701 0.000537688 -6.78869e-05)
(-0.000160292 0.000477846 -5.93271e-05)
(-0.000195953 0.000399104 -5.17073e-05)
(-0.000188648 0.000274499 -4.30345e-05)
(-0.000142087 0.000205645 -3.89809e-05)
(-0.000105158 0.000161195 -3.35303e-05)
(-7.16348e-05 0.000135241 -2.8923e-05)
(-4.54495e-05 0.000118511 -2.51946e-05)
(-2.23358e-05 0.000107855 -2.24412e-05)
(-2.73868e-06 0.000101842 -1.97003e-05)
(1.37302e-05 9.85172e-05 -1.36851e-05)
(1.319e-05 9.11269e-05 2.5739e-06)
(-9.84355e-06 6.55396e-05 3.74726e-06)
(-8.33128e-06 7.12305e-05 -9.50277e-06)
(7.93803e-06 7.4773e-05 -1.43846e-05)
(2.59952e-05 8.0835e-05 -1.62898e-05)
(4.56391e-05 9.08326e-05 -1.80999e-05)
(6.61282e-05 0.000104587 -2.07613e-05)
(8.89656e-05 0.000121743 -2.46126e-05)
(0.000116272 0.000142252 -2.99151e-05)
(0.00015533 0.000168609 -3.57237e-05)
(0.000205961 0.000216439 -4.23566e-05)
(0.000294832 0.000301728 -3.88479e-05)
(0.000309612 0.000513658 -4.63139e-05)
(0.000238504 0.000615553 -5.4997e-05)
(0.000189247 0.000688864 -6.79646e-05)
(0.000143674 0.000735905 -7.91958e-05)
(0.000105532 0.00077236 -8.46183e-05)
(6.50661e-05 0.000795995 -8.78326e-05)
(2.52459e-05 0.00080829 -8.94348e-05)
(-1.51415e-05 0.00080877 -8.95138e-05)
(-5.49738e-05 0.000797407 -8.80666e-05)
(-9.5491e-05 0.000774638 -8.49987e-05)
(-0.000133641 0.000738889 -7.97319e-05)
(-0.000179194 0.000692398 -6.86497e-05)
(-0.000227934 0.000619306 -5.58795e-05)
(-0.000298346 0.000518095 -4.75247e-05)
(-0.000280644 0.000306646 -4.01757e-05)
(-0.0001893 0.000226252 -4.40859e-05)
(-0.000137529 0.000180145 -3.80053e-05)
(-9.50166e-05 0.00015629 -3.29371e-05)
(-6.31243e-05 0.000139187 -2.84685e-05)
(-3.4577e-05 0.000126846 -2.52111e-05)
(-9.50474e-06 0.000119304 -2.19518e-05)
(1.24996e-05 0.000114999 -1.48421e-05)
(1.41348e-05 0.00010699 4.08546e-06)
(-1.05086e-05 7.27478e-05 4.83934e-06)
(-6.86515e-06 7.89157e-05 -1.02451e-05)
(1.42995e-05 8.34989e-05 -1.60292e-05)
(3.72938e-05 9.15367e-05 -1.82332e-05)
(6.20625e-05 0.00010475 -2.03673e-05)
(8.72404e-05 0.000122694 -2.35033e-05)
(0.000113602 0.000144256 -2.80314e-05)
(0.000142057 0.000165979 -3.42937e-05)
(0.000184785 0.000189158 -4.17151e-05)
(0.000243181 0.000229979 -4.73794e-05)
(0.000417113 0.000253262 -4.61354e-05)
(0.000456426 0.000629387 -3.69522e-05)
(0.000313178 0.000764262 -4.23381e-05)
(0.000249845 0.000857339 -6.23161e-05)
(0.000191253 0.000916378 -7.86962e-05)
(0.000141684 0.000964648 -8.45896e-05)
(8.72385e-05 0.000996308 -8.86667e-05)
(3.32225e-05 0.00101262 -9.06279e-05)
(-2.18445e-05 0.00101326 -9.07077e-05)
(-7.59309e-05 0.00099819 -8.89027e-05)
(-0.000130574 0.000967713 -8.49672e-05)
(-0.000180399 0.00092042 -7.92333e-05)
(-0.000239466 0.000862093 -6.30016e-05)
(-0.000302592 0.000769125 -4.32734e-05)
(-0.000445751 0.000634632 -3.83162e-05)
(-0.00040138 0.000256129 -4.79935e-05)
(-0.000224523 0.000240687 -4.94257e-05)
(-0.000166767 0.000201448 -4.42162e-05)
(-0.00011944 0.000181046 -3.76988e-05)
(-8.50518e-05 0.000162842 -3.24599e-05)
(-5.1071e-05 0.000146565 -2.87218e-05)
(-1.93142e-05 0.000135893 -2.49686e-05)
(1.0202e-05 0.000129743 -1.63817e-05)
(1.5256e-05 0.000121145 5.73775e-06)
(-1.10375e-05 7.76272e-05 6.07282e-06)
(-4.45882e-06 8.41037e-05 -1.12542e-05)
(2.31729e-05 8.95743e-05 -1.81053e-05)
(5.30855e-05 9.96128e-05 -2.0701e-05)
(8.55473e-05 0.000116258 -2.32515e-05)
(0.000118639 0.00013913 -2.69815e-05)
(0.000150624 0.000165913 -3.23424e-05)
(0.000181681 0.000187849 -4.11099e-05)
(0.000221515 0.000191604 -5.04249e-05)
(0.000181737 0.000103356 -7.35101e-05)
(0.000490642 0.000222434 -7.21635e-05)
(0.000665028 0.000880177 -6.46944e-06)
(0.000409445 0.000950372 -1.59299e-06)
(0.000342277 0.0010113 -2.42919e-05)
(0.000267854 0.00107204 -4.45665e-05)
(0.000200525 0.00112295 -4.59197e-05)
(0.000122898 0.00115941 -4.85768e-05)
(4.5742e-05 0.00117826 -5.01178e-05)
(-3.25381e-05 0.00117906 -5.01751e-05)
(-0.000109795 0.0011618 -4.87511e-05)
(-0.000187739 0.00112686 -4.61784e-05)
(-0.00025559 0.00107729 -4.49849e-05)
(-0.000331085 0.00101745 -2.48523e-05)
(-0.000398884 0.000956193 -2.4413e-06)
(-0.000658831 0.000882414 -8.09378e-06)
(-0.000476934 0.000225673 -7.46794e-05)
(-0.000161677 0.000122551 -7.46421e-05)
(-0.000203542 0.000208348 -5.25233e-05)
(-0.000157822 0.000204614 -4.47998e-05)
(-0.000119675 0.000185307 -3.7509e-05)
(-7.7811e-05 0.000163836 -3.32701e-05)
(-3.55098e-05 0.000148966 -2.8967e-05)
(5.2582e-06 0.000140701 -1.85273e-05)
(1.59325e-05 0.000131762 7.62996e-06)
(-1.15704e-05 7.97426e-05 7.35441e-06)
(-1.48487e-06 8.63857e-05 -1.25265e-05)
(3.37683e-05 9.27728e-05 -2.06031e-05)
(7.21512e-05 0.000105048 -2.36831e-05)
(0.000114658 0.000126381 -2.67062e-05)
(0.000158616 0.000158783 -3.06759e-05)
(0.000198903 0.000205095 -3.56449e-05)
(0.00022683 0.000267441 -3.99829e-05)
(0.000182197 0.000349665 -5.94234e-05)
(0.000179832 0.000397804 -9.76332e-05)
(0.000291201 0.000742582 7.43638e-05)
(0.000319978 0.000949097 4.06918e-05)
(0.000399946 0.00106944 2.73107e-05)
(0.000346099 0.00117649 2.69937e-05)
(0.000260889 0.00125225 2.19951e-05)
(0.000161708 0.00130235 1.63902e-05)
(5.95371e-05 0.00132678 1.36813e-05)
(-4.40089e-05 0.00132771 1.36833e-05)
(-0.000146303 0.00130517 1.63852e-05)
(-0.000245848 0.00125705 2.19878e-05)
(-0.000331803 0.00118346 2.70077e-05)
(-0.00038758 0.00107871 2.74117e-05)
(-0.000311961 0.000960616 4.03949e-05)
(-0.000286334 0.000753604 7.27284e-05)
(-0.000175651 0.000408737 -9.40842e-05)
(-0.00017342 0.000363795 -6.10393e-05)
(-0.00020698 0.000282791 -4.44671e-05)
(-0.000167849 0.000223706 -4.20172e-05)
(-0.00011415 0.000183152 -3.85626e-05)
(-5.74475e-05 0.000159391 -3.4072e-05)
(-1.8405e-06 0.000147386 -2.14945e-05)
(1.64517e-05 0.000137859 9.4998e-06)
(-1.18391e-05 7.83867e-05 8.66665e-06)
(2.47366e-06 8.48407e-05 -1.3972e-05)
(4.69014e-05 9.12386e-05 -2.33973e-05)
(9.67811e-05 0.000103716 -2.71385e-05)
(0.000156101 0.000125683 -3.10585e-05)
(0.000227234 0.0001599 -3.63433e-05)
(0.000314817 0.000211197 -4.30237e-05)
(0.000431797 0.000286441 -4.77805e-05)
(0.000566763 0.000397738 -4.97048e-05)
(0.000835903 0.000563702 -3.03096e-05)
(0.000864723 0.000153428 5.29226e-05)
(0.000650466 0.000299273 8.43847e-05)
(0.000717001 0.00068895 0.000136703)
(0.000644782 0.00090124 0.000186775)
(0.000512623 0.00104888 0.000214894)
(0.000366206 0.00114596 0.00022361)
(0.000220159 0.00120529 0.000223287)
(7.87459e-05 0.00123342 0.000222137)
(-6.0832e-05 0.00123432 0.000222187)
(-0.000202178 0.00120806 0.000223433)
(-0.000348104 0.00115075 0.000223878)
(-0.000494321 0.001056 0.000215434)
(-0.000626384 0.000911137 0.000187922)
(-0.000698902 0.000702198 0.000138581)
(-0.000631267 0.000314928 8.76084e-05)
(-0.000852991 0.00015591 5.55338e-05)
(-0.000830936 0.000563939 -2.94238e-05)
(-0.000555889 0.000405905 -5.21207e-05)
(-0.00041234 0.000298914 -5.28992e-05)
(-0.000283043 0.000228244 -5.07447e-05)
(-0.000179329 0.000183241 -4.612e-05)
(-9.19434e-05 0.000157949 -4.05427e-05)
(-1.3914e-05 0.000145578 -2.52382e-05)
(1.5508e-05 0.000136031 1.13791e-05)
(-1.24058e-05 7.35149e-05 9.92703e-06)
(5.5e-06 7.94168e-05 -1.53152e-05)
(5.78982e-05 8.47682e-05 -2.60448e-05)
(0.000116985 9.50268e-05 -3.04268e-05)
(0.000188221 0.000112534 -3.51368e-05)
(0.000275006 0.000138052 -4.15051e-05)
(0.000382525 0.00017143 -4.92024e-05)
(0.000520663 0.000209957 -5.48288e-05)
(0.000681009 0.000242511 -5.45528e-05)
(0.000918713 0.000261144 -3.7285e-05)
(0.00103203 0.000123394 -8.99265e-06)
(0.000983808 0.000316333 4.24995e-05)
(0.000939564 0.000511371 0.000142702)
(0.000805433 0.000654778 0.000209919)
(0.000634007 0.000765318 0.000244838)
(0.000447509 0.000838147 0.000259218)
(0.000266889 0.000883559 0.000262088)
(9.44301e-05 0.000905418 0.000262179)
(-7.45867e-05 0.000906171 0.000262237)
(-0.000246918 0.000885833 0.000262256)
(-0.000427303 0.000841978 0.000259538)
(-0.000613453 0.000770724 0.00024547)
(-0.000784952 0.000661676 0.00021128)
(-0.000919776 0.000519052 0.000145059)
(-0.000965293 0.000323659 4.66508e-05)
(-0.00101949 0.000125839 -6.32719e-06)
(-0.00091125 0.000266722 -3.73089e-05)
(-0.000670741 0.000251094 -5.76159e-05)
(-0.000501473 0.000221778 -6.08512e-05)
(-0.000349444 0.000187543 -5.82454e-05)
(-0.000223173 0.000160249 -5.30158e-05)
(-0.000116758 0.000143193 -4.64696e-05)
(-2.19561e-05 0.000134656 -2.87094e-05)
(1.56856e-05 0.000126002 1.33981e-05)
(-1.30187e-05 6.58605e-05 1.11237e-05)
(7.81567e-06 7.10994e-05 -1.64151e-05)
(6.69465e-05 7.52489e-05 -2.82921e-05)
(0.000133492 8.3056e-05 -3.32368e-05)
(0.000213759 9.61479e-05 -3.86667e-05)
(0.000311164 0.000114536 -4.62078e-05)
(0.000430686 0.000137071 -5.56681e-05)
(0.000579374 0.000161682 -6.46571e-05)
(0.000748372 0.000181829 -6.94151e-05)
(0.000946443 0.00019981 -6.28957e-05)
(0.00107675 0.00016266 -4.18496e-05)
(0.0011159 0.000252127 2.2689e-05)
(0.0010688 0.000372706 0.000127846)
(0.000912755 0.000472147 0.000194228)
(0.000714012 0.000548879 0.000229343)
(0.00049988 0.000597993 0.000238462)
(0.000297022 0.0006286 0.000237578)
(0.000104573 0.000643214 0.000235688)
(-8.32446e-05 0.000643825 0.000235711)
(-0.000275542 0.000630434 0.000237641)
(-0.000478138 0.000601041 0.00023861)
(-0.000691923 0.0005531 0.000229742)
(-0.000890924 0.000477443 0.000195331)
(-0.00104801 0.000378711 0.000129941)
(-0.0010988 0.000258544 2.66056e-05)
(-0.00106592 0.00016701 -3.95195e-05)
(-0.000938575 0.000205313 -6.2884e-05)
(-0.000737398 0.000189675 -7.26623e-05)
(-0.000559038 0.000172552 -7.11772e-05)
(-0.000395254 0.000151961 -6.5614e-05)
(-0.0002548 0.000135022 -5.89678e-05)
(-0.000134959 0.000124141 -5.13026e-05)
(-2.73562e-05 0.000118649 -3.1389e-05)
(1.625e-05 0.000111148 1.55053e-05)
(-1.37596e-05 5.60115e-05 1.21488e-05)
(9.05727e-06 6.04241e-05 -1.72584e-05)
(7.30794e-05 6.33008e-05 -3.00633e-05)
(0.000144669 6.85814e-05 -3.54575e-05)
(0.000230412 7.73217e-05 -4.14439e-05)
(0.000333226 8.91579e-05 -4.98873e-05)
(0.000457744 0.000102768 -6.06861e-05)
(0.000608751 0.000116845 -7.18305e-05)
(0.000778675 0.000127487 -7.92073e-05)
(0.000962509 0.000139503 -7.58286e-05)
(0.00110676 0.00013826 -5.50075e-05)
(0.00118749 0.00019444 5.87345e-06)
(0.00114336 0.000270252 0.00010876)
(0.000974427 0.000333072 0.000168668)
(0.000761197 0.000382067 0.000198681)
(0.000531686 0.000414105 0.000202039)
(0.000315772 0.000434413 0.000197516)
(0.000111015 0.000444238 0.000193776)
(-8.85212e-05 0.000444777 0.000193763)
(-0.000293156 0.000436011 0.000197471)
(-0.000508874 0.000416707 0.000201999)
(-0.000738152 0.000385574 0.000198808)
(-0.000951881 0.000337356 0.000169444)
(-0.00112218 0.000275053 0.000110522)
(-0.00117088 0.000199647 9.59095e-06)
(-0.0010963 0.000143 -5.28378e-05)
(-0.000954007 0.000145342 -7.59984e-05)
(-0.000766728 0.000135032 -8.26752e-05)
(-0.000586805 0.000126844 -7.87437e-05)
(-0.000419568 0.000116189 -7.12692e-05)
(-0.000272337 0.000107307 -6.34969e-05)
(-0.000144973 0.000101621 -5.48916e-05)
(-2.92528e-05 9.87407e-05 -3.32428e-05)
(1.76807e-05 9.27938e-05 1.72065e-05)
(-1.44352e-05 4.48081e-05 1.29761e-05)
(9.66375e-06 4.83481e-05 -1.78729e-05)
(7.71226e-05 5.02568e-05 -3.13765e-05)
(0.000152129 5.36795e-05 -3.71046e-05)
(0.000241334 5.93702e-05 -4.34978e-05)
(0.000347182 6.70217e-05 -5.26002e-05)
(0.000474125 7.57391e-05 -6.4376e-05)
(0.000625771 8.50057e-05 -7.69676e-05)
(0.000796127 9.30975e-05 -8.599e-05)
(0.000976706 0.000104166 -8.43969e-05)
(0.00113084 0.000114452 -6.32609e-05)
(0.00123117 0.000151489 -3.66943e-06)
(0.00118931 0.000198976 9.77273e-05)
(0.00101396 0.000240092 0.000153542)
(0.00079161 0.000272399 0.000179807)
(0.000552271 0.00029396 0.000179432)
(0.000327955 0.000307748 0.000172481)
(0.000115307 0.000314537 0.000167523)
(-9.17559e-05 0.000315065 0.000167491)
(-0.000304327 0.000309306 0.000172378)
(-0.000528544 0.000296469 0.000179291)
(-0.000767789 0.000275732 0.000179785)
(-0.000990848 0.000244095 0.000154137)
(-0.00116778 0.00020345 9.92745e-05)
(-0.00121468 0.00015644 -2.52317e-07)
(-0.00112036 0.000119348 -6.12129e-05)
(-0.000967595 0.000109846 -8.46535e-05)
(-0.000783143 0.000100005 -8.96064e-05)
(-0.000602128 9.38012e-05 -8.41417e-05)
(-0.000433296 8.72112e-05 -7.53733e-05)
(-0.000282276 8.2161e-05 -6.67463e-05)
(-0.000150407 7.91529e-05 -5.74102e-05)
(-2.95037e-05 7.76286e-05 -3.44581e-05)
(1.91858e-05 7.30071e-05 1.85115e-05)
(-1.50002e-05 3.27647e-05 1.35626e-05)
(9.83916e-06 3.5352e-05 -1.83129e-05)
(7.95026e-05 3.65075e-05 -3.22985e-05)
(0.000156653 3.85361e-05 -3.8249e-05)
(0.000247931 4.19825e-05 -4.49005e-05)
(0.000355479 4.67008e-05 -5.44078e-05)
(0.000483765 5.22614e-05 -6.67638e-05)
(0.000635996 5.86266e-05 -8.01425e-05)
(0.000807526 6.52965e-05 -8.99997e-05)
(0.000988896 7.5063e-05 -8.91315e-05)
(0.00114934 8.69646e-05 -6.79495e-05)
(0.00125969 0.000111365 -8.17279e-06)
(0.00121935 0.000141272 9.27806e-05)
(0.00103977 0.000167625 0.000146951)
(0.000811594 0.000188502 0.000171473)
(0.000566087 0.000202939 0.000169372)
(0.000336285 0.000212365 0.000161319)
(0.000118382 0.000217178 0.000155816)
(-9.37676e-05 0.000217741 0.00015578)
(-0.000311659 0.000214018 0.0001612)
(-0.000541489 0.000205575 0.000169201)
(-0.00078708 0.000191956 0.000171404)
(-0.00101618 0.000171685 0.000147485)
(-0.00119747 0.0001457 9.42418e-05)
(-0.00124318 0.000116035 -5.11069e-06)
(-0.00113878 9.17529e-05 -6.60153e-05)
(-0.000979284 8.03389e-05 -8.94892e-05)
(-0.000793669 7.13518e-05 -9.37623e-05)
(-0.000610947 6.59405e-05 -8.75314e-05)
(-0.000440813 6.13962e-05 -7.80628e-05)
(-0.000287497 5.83256e-05 -6.89185e-05)
(-0.000152983 5.67026e-05 -5.91036e-05)
(-2.89669e-05 5.58883e-05 -3.52637e-05)
(2.05332e-05 5.25779e-05 1.93569e-05)
(-1.53804e-05 2.03397e-05 1.39072e-05)
(9.84379e-06 2.19433e-05 -1.86139e-05)
(8.07781e-05 2.25307e-05 -3.28887e-05)
(0.000159194 2.35445e-05 -3.89662e-05)
(0.000251732 2.53673e-05 -4.57591e-05)
(0.000360401 2.8044e-05 -5.54828e-05)
(0.000489744 3.15521e-05 -6.81437e-05)
(0.000642876 3.60762e-05 -8.1912e-05)
(0.000815853 4.16879e-05 -9.21601e-05)
(0.000998912 4.95976e-05 -9.15604e-05)
(0.0011632 5.96131e-05 -7.03149e-05)
(0.00127815 7.45507e-05 -1.02783e-05)
(0.0012383 9.12189e-05 9.12421e-05)
(0.00105624 0.000106254 0.00014525)
(0.000824511 0.00011832 0.000169307)
(0.000575229 0.00012709 0.000166666)
(0.000341919 0.000132983 0.000158249)
(0.000120629 0.000136193 0.00015257)
(-9.48535e-05 0.000136827 0.000152537)
(-0.000316214 0.000134843 0.000158138)
(-0.000549709 0.000130037 0.000166505)
(-0.000799305 0.000122146 0.000169249)
(-0.00103225 0.000110668 0.000145789)
(-0.00121636 9.59004e-05 9.27585e-05)
(-0.00126165 7.91425e-05 -6.92452e-06)
(-0.00115247 6.42645e-05 -6.84004e-05)
(-0.000989013 5.43871e-05 -9.20146e-05)
(-0.000801474 4.67686e-05 -9.60622e-05)
(-0.000616947 4.17425e-05 -8.94852e-05)
(-0.000445454 3.81239e-05 -7.9676e-05)
(-0.000290504 3.58823e-05 -7.02591e-05)
(-0.00015433 3.47757e-05 -6.0176e-05)
(-2.84718e-05 3.42189e-05 -3.58026e-05)
(2.14331e-05 3.21345e-05 1.98212e-05)
(-1.55591e-05 7.82131e-06 1.40063e-05)
(9.77514e-06 8.41543e-06 -1.87986e-05)
(8.11743e-05 8.47685e-06 -3.31835e-05)
(0.000160124 8.56945e-06 -3.93005e-05)
(0.000253294 8.91608e-06 -4.61302e-05)
(0.00036271 9.73901e-06 -5.59049e-05)
(0.000492986 1.13697e-05 -6.86361e-05)
(0.000647271 1.4135e-05 -8.24832e-05)
(0.000821688 1.85252e-05 -9.28042e-05)
(0.00100629 2.43284e-05 -9.22444e-05)
(0.00117213 3.168e-05 -7.10156e-05)
(0.00128795 3.81668e-05 -1.08926e-05)
(0.00124777 4.31615e-05 9.10953e-05)
(0.0010645 4.77961e-05 0.000145444)
(0.000831165 5.16108e-05 0.000169649)
(0.000580206 5.49774e-05 0.000167065)
(0.000345175 5.75081e-05 0.000158656)
(0.000122172 5.92111e-05 0.000152979)
(-9.50672e-05 5.99536e-05 0.000152951)
(-0.000318242 5.96856e-05 0.000158556)
(-0.000553653 5.84167e-05 0.000166919)
(-0.000805214 5.60517e-05 0.000169607)
(-0.00104011 5.28526e-05 0.00014599)
(-0.00122581 4.84352e-05 9.26307e-05)
(-0.0012716 4.32325e-05 -7.38599e-06)
(-0.00116148 3.63349e-05 -6.91658e-05)
(-0.000996431 2.86892e-05 -9.28281e-05)
(-0.00080723 2.26643e-05 -9.68664e-05)
(-0.0006211 1.81718e-05 -9.02401e-05)
(-0.000448269 1.53725e-05 -8.03718e-05)
(-0.000292164 1.37722e-05 -7.08968e-05)
(-0.000155035 1.30161e-05 -6.07389e-05)
(-2.83045e-05 1.26448e-05 -3.61542e-05)
(2.18135e-05 1.18061e-05 1.99339e-05)
(-1.55401e-05 -4.48634e-06 1.38617e-05)
(9.62757e-06 -4.89316e-06 -1.88693e-05)
(8.06834e-05 -5.4152e-06 -3.31871e-05)
(0.00015943 -6.35826e-06 -3.92587e-05)
(0.000252591 -7.67794e-06 -4.60269e-05)
(0.000362346 -8.98803e-06 -5.56998e-05)
(0.000493374 -9.57437e-06 -6.82725e-05)
(0.000649019 -8.8781e-06 -8.18961e-05)
(0.000824907 -5.75836e-06 -9.19782e-05)
(0.00101104 -1.71332e-06 -9.12442e-05)
(0.00117637 4.33835e-06 -7.01262e-05)
(0.0012894 2.97675e-06 -1.00452e-05)
(0.00124781 -4.35172e-06 9.20489e-05)
(0.00106449 -1.07242e-05 0.000147088)
(0.000831479 -1.57094e-05 0.000171964)
(0.000580968 -1.80323e-05 0.000169981)
(0.000346042 -1.90245e-05 0.000161916)
(0.000123034 -1.88702e-05 0.000156403)
(-9.43544e-05 -1.79637e-05 0.000156376)
(-0.000317655 -1.63606e-05 0.000161819)
(-0.000553195 -1.38227e-05 0.000169831)
(-0.00080466 -1.02691e-05 0.000171902)
(-0.00103965 -4.57561e-06 0.000147578)
(-0.0012258 1.9774e-06 9.34579e-05)
(-0.00127341 8.87404e-06 -6.89545e-06)
(-0.0011662 9.24337e-06 -6.84799e-05)
(-0.00100156 2.47586e-06 -9.20266e-05)
(-0.000810826 -2.28483e-06 -9.6241e-05)
(-0.000623257 -6.16874e-06 -8.98448e-05)
(-0.000449151 -7.82899e-06 -8.0183e-05)
(-0.00029241 -8.45587e-06 -7.08532e-05)
(-0.00015506 -8.60741e-06 -6.08068e-05)
(-2.84391e-05 -8.6565e-06 -3.63281e-05)
(2.16891e-05 -8.22862e-06 1.96997e-05)
(-1.53472e-05 -1.62788e-05 1.34771e-05)
(9.29524e-06 -1.76759e-05 -1.88112e-05)
(7.90743e-05 -1.89719e-05 -3.28747e-05)
(0.000156714 -2.13328e-05 -3.88111e-05)
(0.000248988 -2.49635e-05 -4.54088e-05)
(0.000358398 -2.93811e-05 -5.48043e-05)
(0.000489761 -3.34647e-05 -6.69765e-05)
(0.000646955 -3.619e-05 -8.00333e-05)
(0.000824631 -3.50433e-05 -8.94966e-05)
(0.00101348 -3.21748e-05 -8.82035e-05)
(0.00117669 -2.31387e-05 -6.71743e-05)
(0.00128184 -3.23254e-05 -7.11519e-06)
(0.00123704 -5.53421e-05 9.54026e-05)
(0.00105506 -7.59396e-05 0.000152139)
(0.000824615 -9.24033e-05 0.000178708)
(0.000577031 -0.000101889 0.000178355)
(0.000344271 -0.000107185 0.000171268)
(0.000123184 -0.000108853 0.000166216)
(-9.25465e-05 -0.000107702 0.000166169)
(-0.000314066 -0.000103789 0.000171104)
(-0.00054771 -9.64978e-05 0.000178086)
(-0.000796687 -8.53787e-05 0.00017847)
(-0.00102964 -6.80075e-05 0.000152388)
(-0.00121504 -4.72678e-05 9.64721e-05)
(-0.00126642 -2.53115e-05 -4.55783e-06)
(-0.00116724 -1.77144e-05 -6.58695e-05)
(-0.00100461 -2.77417e-05 -8.93109e-05)
(-0.000811276 -3.17357e-05 -9.40498e-05)
(-0.000622156 -3.42417e-05 -8.82155e-05)
(-0.000446881 -3.33792e-05 -7.90469e-05)
(-0.000290299 -3.17547e-05 -7.00622e-05)
(-0.000153781 -3.03819e-05 -6.03097e-05)
(-2.8558e-05 -2.96212e-05 -3.62693e-05)
(2.11533e-05 -2.77938e-05 1.90944e-05)
(-1.50594e-05 -2.70735e-05 1.28531e-05)
(8.52248e-06 -2.93878e-05 -1.85974e-05)
(7.58127e-05 -3.16358e-05 -3.22028e-05)
(0.000151052 -3.58052e-05 -3.79028e-05)
(0.000240965 -4.24499e-05 -4.41959e-05)
(0.000348509 -5.11347e-05 -5.30847e-05)
(0.000478825 -6.04583e-05 -6.44981e-05)
(0.000637171 -6.87733e-05 -7.63972e-05)
(0.000817377 -7.11752e-05 -8.45283e-05)
(0.00101355 -6.9612e-05 -8.17128e-05)
(0.00117368 -4.74423e-05 -6.12321e-05)
(0.00126177 -6.54215e-05 -1.3721e-06)
(0.00121036 -0.000113143 0.000102641)
(0.00103144 -0.000153912 0.000162832)
(0.000806999 -0.000186379 0.000192548)
(0.000566294 -0.000205785 0.000195509)
(0.000338798 -0.000217065 0.00019051)
(0.00012236 -0.000221279 0.000186465)
(-8.92138e-05 -0.000219745 0.000186357)
(-0.000306232 -0.0002125 0.000190158)
(-0.000534895 -0.000198456 0.00019491)
(-0.00077752 -0.000176657 0.000191847)
(-0.00100517 -0.000142838 0.000162502)
(-0.00118852 -0.000101843 0.000103121)
(-0.00124726 -5.62027e-05 8.56232e-07)
(-0.00116496 -4.08661e-05 -6.03672e-05)
(-0.00100526 -6.40235e-05 -8.33318e-05)
(-0.00080493 -6.71044e-05 -8.95078e-05)
(-0.000613736 -6.66828e-05 -8.48665e-05)
(-0.000437986 -6.11495e-05 -7.66886e-05)
(-0.00028333 -5.55432e-05 -6.83326e-05)
(-0.000149615 -5.15131e-05 -5.909e-05)
(-2.78422e-05 -4.93933e-05 -3.58615e-05)
(2.05127e-05 -4.6163e-05 1.80437e-05)
(-1.47107e-05 -3.63616e-05 1.20351e-05)
(7.16102e-06 -3.95528e-05 -1.8187e-05)