/*--------------------------------*- C++ -*----------------------------------*\
| =========                 |                                                 |
| \\      /  F ield         | OpenFOAM: The Open Source CFD Toolbox           |
|  \\    /   O peration     | Version:  2112                                  |
|   \\  /    A nd           | Website:  www.openfoam.com                      |
|    \\/     M anipulation  |                                                 |
\*---------------------------------------------------------------------------*/
FoamFile
{
    version     2.0;
    format      ascii;
    arch        "LSB;label=32;scalar=64";
    class       volScalarField;
    location    "0.6";
    object      epsilon;
}
// * * * * * * * * * * * * * * * * * * * * * * * * * * * * * * * * * * * * * //

dimensions      [0 2 -3 0 0 0 0];

internalField   nonuniform List<scalar> 
64906
(
0.0310201
0.0314474
0.0315266
0.0315331
0.0315332
0.0315333
0.0315335
0.0315338
0.031534
0.0315343
0.0315345
0.0315348
0.0315349
0.0315351
0.0315352
0.0315352
0.0315353
0.0315353
0.0315353
0.0315352
0.0315352
0.0315351
0.0315351
0.0315349
0.0315347
0.0315345
0.0315343
0.031534
0.0315338
0.0315337
0.0315335
0.031527
0.0314478
0.0310204
0.0314475
0.0378893
0.0392301
0.039389
0.0394006
0.0394011
0.0394014
0.0394018
0.0394024
0.0394029
0.0394035
0.0394041
0.0394046
0.0394051
0.0394054
0.0394057
0.0394059
0.039406
0.039406
0.0394059
0.0394058
0.0394055
0.0394051
0.0394047
0.0394042
0.0394036
0.0394031
0.0394026
0.0394022
0.0394017
0.03939
0.039231
0.0378902
0.0314481
0.0315269
0.0392305
0.0409903
0.0412183
0.0412372
0.0412382
0.0412387
0.0412394
0.0412403
0.0412413
0.0412424
0.0412436
0.0412447
0.0412457
0.0412465
0.0412472
0.0412477
0.0412479
0.0412479
0.0412477
0.0412473
0.0412467
0.0412458
0.0412449
0.0412438
0.0412427
0.0412416
0.0412407
0.04124
0.0412389
0.0412199
0.0409918
0.0392318
0.0315277
0.0315336
0.0393896
0.0412186
0.0414597
0.0414801
0.0414813
0.041482
0.041483
0.0414843
0.0414857
0.0414874
0.0414892
0.0414909
0.0414924
0.0414937
0.0414947
0.0414954
0.0414958
0.0414958
0.0414955
0.0414948
0.0414939
0.0414926
0.0414911
0.0414895
0.0414877
0.0414861
0.0414847
0.0414838
0.0414823
0.0414618
0.0412205
0.0393913
0.0315345
0.0315339
0.0394015
0.0412376
0.0414803
0.0415009
0.0415023
0.0415032
0.0415046
0.0415063
0.0415083
0.0415107
0.0415134
0.0415159
0.0415181
0.04152
0.0415215
0.0415224
0.041523
0.041523
0.0415225
0.0415216
0.0415202
0.0415184
0.0415162
0.0415137
0.041511
0.0415087
0.0415068
0.0415054
0.0415037
0.0414827
0.0412398
0.0394034
0.031535
0.0315341
0.039402
0.0412387
0.0414815
0.0415024
0.0415039
0.0415052
0.041507
0.0415094
0.041512
0.0415147
0.0415195
0.0415232
0.0415264
0.0415291
0.0415311
0.0415325
0.0415332
0.0415332
0.0415326
0.0415312
0.0415293
0.0415267
0.0415235
0.0415199
0.041515
0.0415125
0.04151
0.0415079
0.0415057
0.0414845
0.0412413
0.0394043
0.0315354
0.0315344
0.0394023
0.0412392
0.0414822
0.0415033
0.0415052
0.0415069
0.0415093
0.041512
0.0415114
0.0415035
0.0415213
0.04153
0.0415348
0.0415386
0.0415412
0.041543
0.041544
0.041544
0.0415431
0.0415414
0.0415388
0.041535
0.0415304
0.0415217
0.0415039
0.0415119
0.0415127
0.0415103
0.0415075
0.0414858
0.0412423
0.0394049
0.031536
0.0315347
0.0394027
0.0412398
0.0414831
0.0415044
0.0415067
0.041509
0.0415116
0.0415065
0.041455
0.0413205
0.0414604
0.0415159
0.0415291
0.0415349
0.0415379
0.0415401
0.0415413
0.0415414
0.0415402
0.0415382
0.0415352
0.0415294
0.0415163
0.0414608
0.0413209
0.0414556
0.0415072
0.0415127
0.0415097
0.0414875
0.0412435
0.0394057
0.0315365
0.031535
0.0394032
0.0412406
0.0414841
0.0415058
0.0415086
0.0415111
0.0415058
0.0414229
0.0409551
0.0398047
0.0409199
0.0413488
0.0414276
0.0414415
0.0414447
0.041447
0.0414483
0.0414484
0.0414471
0.0414449
0.0414418
0.041428
0.0413493
0.0409204
0.0398049
0.0409556
0.0414237
0.0415068
0.0415118
0.0414894
0.0412449
0.0394065
0.031537
0.0315352
0.0394035
0.0412413
0.0414852
0.0415073
0.0415105
0.0415093
0.0414529
0.0409542
0.038343
0.03243
0.0382038
0.0405734
0.0409942
0.0410441
0.0410508
0.0410535
0.0410549
0.041055
0.0410537
0.0410511
0.0410444
0.0409946
0.040574
0.0382046
0.0324299
0.0383435
0.0409551
0.041454
0.04151
0.0414913
0.0412463
0.0394073
0.0315374
0.0315353
0.0394038
0.0412421
0.0414864
0.0415089
0.0415119
0.0414998
0.0413177
0.0398082
0.0324355
0.0323385
0.0389491
0.0401933
0.0403333
0.0403441
0.0403454
0.040346
0.040346
0.0403454
0.0403442
0.0403334
0.0401936
0.0389498
0.032339
0.032436
0.0398092
0.0413188
0.0415006
0.0414926
0.0412478
0.0394079
0.0315378
0.0315354
0.039404
0.0412427
0.0414875
0.0415105
0.0415151
0.0415158
0.0414615
0.040962
0.0383381
0.0324295
0.0381324
0.0405097
0.040927
0.0409734
0.0409681
0.0409643
0.0409631
0.0409631
0.0409642
0.040968
0.0409733
0.0409269
0.0405096
0.0381321
0.0324288
0.0383376
0.0409623
0.0414624
0.0415164
0.0414957
0.0412491
0.0394083
0.0315379
0.0315354
0.0394042
0.0412433
0.0414885
0.0415119
0.0415172
0.0415229
0.0415215
0.0414408
0.0409688
0.0397959
0.0408623
0.0412451
0.0412972
0.0412964
0.0412885
0.0412841
0.0412824
0.0412823
0.041284
0.0412883
0.0412961
0.0412969
0.0412446
0.0408617
0.0397948
0.0409684
0.041441
0.0415222
0.0415234
0.0414977
0.0412502
0.0394085
0.031538
0.0315353
0.0394042
0.0412438
0.0414893
0.0415131
0.0415188
0.0415254
0.0415335
0.041533
0.0414824
0.0413287
0.0414174
0.0414009
0.0413789
0.0413665
0.0413583
0.0413535
0.0413512
0.0413511
0.0413533
0.041358
0.0413661
0.0413784
0.0414003
0.0414162
0.0413278
0.041482
0.0415331
0.0415341
0.0415258
0.0414991
0.0412511
0.0394087
0.0315378
0.0315352
0.0394042
0.0412442
0.04149
0.0415141
0.04152
0.041527
0.041536
0.041545
0.0415474
0.0415236
0.0414927
0.0414223
0.0413906
0.0413756
0.0413663
0.0413601
0.0413569
0.0413568
0.0413598
0.0413658
0.0413751
0.04139
0.0414216
0.0414915
0.0415228
0.041547
0.041545
0.0415365
0.0415272
0.0415002
0.0412518
0.0394088
0.0315376
0.031535
0.0394042
0.0412445
0.0414905
0.0415148
0.041521
0.0415282
0.0415375
0.0415473
0.0415546
0.0415435
0.0415026
0.0414255
0.0413926
0.0413767
0.0413662
0.0413587
0.0413542
0.041354
0.0413583
0.0413657
0.0413761
0.041392
0.0414248
0.0415014
0.0415427
0.0415541
0.0415473
0.0415379
0.0415284
0.0415011
0.0412524
0.0394088
0.0315374
0.0315348
0.0394042
0.0412447
0.0414909
0.0415154
0.0415217
0.0415291
0.0415386
0.0415486
0.0415564
0.0415466
0.0415055
0.0414268
0.0413936
0.0413771
0.0413658
0.0413571
0.0413513
0.0413511
0.0413566
0.0413652
0.0413765
0.041393
0.0414261
0.0415043
0.0415459
0.041556
0.0415486
0.041539
0.0415293
0.0415018
0.0412528
0.0394088
0.0315371
0.0315347
0.0394042
0.0412449
0.0414911
0.0415157
0.0415221
0.0415296
0.0415393
0.0415495
0.0415574
0.0415479
0.041507
0.0414275
0.0413942
0.0413774
0.0413656
0.0413561
0.0413492
0.0413489
0.0413555
0.0413649
0.0413767
0.0413935
0.0414268
0.0415058
0.0415472
0.041557
0.0415495
0.0415397
0.0415298
0.0415022
0.041253
0.0394088
0.0315368
0.0315346
0.0394041
0.0412449
0.0414912
0.0415158
0.0415223
0.0415298
0.0415395
0.0415498
0.0415578
0.0415484
0.0415074
0.0414277
0.0413943
0.0413774
0.0413654
0.0413556
0.0413482
0.0413478
0.041355
0.0413647
0.0413766
0.0413936
0.041427
0.0415063
0.0415476
0.0415574
0.0415498
0.04154
0.04153
0.0415023
0.0412531
0.0394088
0.0315366
0.0315346
0.0394042
0.0412449
0.0414911
0.0415157
0.0415221
0.0415297
0.0415393
0.0415495
0.0415575
0.0415479
0.0415069
0.0414274
0.041394
0.0413771
0.0413653
0.0413558
0.0413488
0.0413485
0.0413551
0.0413645
0.0413764
0.0413932
0.0414267
0.0415058
0.0415473
0.0415572
0.0415496
0.0415398
0.0415299
0.0415022
0.041253
0.0394088
0.0315367
0.0315347
0.0394042
0.0412448
0.0414909
0.0415154
0.0415217
0.0415291
0.0415387
0.0415488
0.0415565
0.0415458
0.041505
0.0414265
0.0413932
0.0413766
0.0413653
0.0413566
0.0413507
0.0413504
0.0413559
0.0413645
0.0413759
0.0413925
0.0414258
0.0415039
0.0415452
0.0415563
0.041549
0.0415393
0.0415294
0.0415019
0.0412529
0.0394088
0.0315368
0.0315348
0.0394042
0.0412446
0.0414905
0.0415148
0.041521
0.0415283
0.0415377
0.0415472
0.0415502
0.041527
0.0414963
0.0414238
0.0413913
0.0413754
0.0413648
0.0413573
0.0413528
0.0413526
0.0413567
0.0413641
0.0413746
0.0413906
0.0414231
0.0414955
0.0415266
0.0415501
0.0415475
0.0415384
0.0415287
0.0415013
0.0412525
0.0394088
0.0315371
0.031535
0.0394042
0.0412443
0.04149
0.0415141
0.04152
0.0415271
0.0415356
0.0415359
0.0414863
0.0413341
0.0414227
0.0414029
0.0413797
0.041366
0.0413563
0.04135
0.0413467
0.0413465
0.0413494
0.0413555
0.0413652
0.041379
0.0414022
0.041422
0.0413339
0.0414864
0.0415364
0.0415365
0.0415276
0.0415005
0.041252
0.0394088
0.0315373
0.0315351
0.0394042
0.0412439
0.0414893
0.0415131
0.0415187
0.0415249
0.0415241
0.0414444
0.0409744
0.039805
0.0408699
0.0412475
0.0412979
0.0412954
0.0412859
0.0412802
0.0412777
0.0412775
0.0412797
0.0412852
0.0412945
0.0412971
0.0412469
0.0408698
0.0398052
0.0409749
0.0414451
0.0415252
0.0415257
0.0414994
0.0412513
0.0394088
0.0315375
0.0315351
0.0394041
0.0412434
0.0414885
0.0415119
0.0415169
0.0415181
0.0414645
0.0409661
0.0383449
0.0324354
0.0381368
0.0405101
0.0409261
0.040971
0.0409642
0.0409592
0.0409574
0.0409572
0.0409587
0.0409635
0.0409701
0.0409252
0.0405096
0.0381375
0.0324353
0.0383457
0.0409671
0.0414658
0.041519
0.0414977
0.0412505
0.0394087
0.0315375
0.0315351
0.039404
0.0412429
0.0414876
0.0415105
0.0415139
0.0415023
0.0413203
0.0398104
0.0324354
0.0323333
0.0389402
0.0401855
0.0403241
0.0403331
0.0403329
0.0403326
0.0403324
0.0403323
0.040332
0.0403226
0.0401837
0.0389381
0.0323317
0.0324354
0.0398114
0.0413219
0.0415034
0.041495
0.0412494
0.0394084
0.0315374
0.0315349
0.0394038
0.0412423
0.0414867
0.0415093
0.041513
0.0415125
0.0414569
0.0409591
0.0383492
0.0324372
0.0381982
0.0405651
0.0409763
0.0410198
0.0410222
0.0410224
0.0410226
0.0410223
0.0410216
0.0410205
0.0410165
0.0409708
0.0405553
0.0381933
0.0324366
0.0383501
0.0409604
0.0414587
0.0415138
0.0414942
0.0412483
0.039408
0.0315372
0.0315348
0.0394036
0.0412417
0.0414859
0.0415081
0.0415116
0.041515
0.0415108
0.0414294
0.0409632
0.0398136
0.040919
0.0413323
0.0413809
0.0413803
0.0413772
0.0413766
0.0413766
0.0413763
0.0413756
0.041375
0.0413749
0.0413685
0.0413042
0.040905
0.0398093
0.0409633
0.0414307
0.0415128
0.0415165
0.041493
0.0412473
0.0394075
0.0315369
0.0315346
0.0394034
0.0412413
0.0414852
0.0415072
0.0415103
0.0415137
0.0415176
0.041514
0.0414635
0.0413276
0.041454
0.0414753
0.0414239
0.0414071
0.0414021
0.0414006
0.0414
0.0413998
0.0413997
0.0414
0.0414013
0.0414053
0.0414151
0.0414218
0.0413165
0.0414619
0.041515
0.0415196
0.0415152
0.0414917
0.0412465
0.0394071
0.0315365
0.0315345
0.039403
0.0412404
0.041484
0.0415058
0.0415086
0.0415115
0.0415153
0.0415196
0.04152
0.0415107
0.0415164
0.041492
0.0414368
0.0414203
0.0414162
0.0414153
0.0414151
0.0414149
0.0414147
0.0414147
0.0414153
0.0414191
0.0414351
0.0414845
0.0414998
0.0415186
0.0415209
0.0415174
0.041513
0.04149
0.0412452
0.0394064
0.0315362
0.0315342
0.0393913
0.0412214
0.0414636
0.041485
0.0414876
0.04149
0.0414933
0.0414974
0.0415016
0.0415045
0.0415044
0.0414934
0.0414677
0.0414586
0.0414564
0.0414565
0.0414569
0.0414569
0.0414564
0.0414556
0.041455
0.0414567
0.0414654
0.0414903
0.0415001
0.041502
0.0414991
0.0414955
0.0414916
0.041469
0.0412259
0.0393945
0.0315358
0.0315277
0.0392323
0.0409933
0.0412222
0.0412421
0.0412443
0.0412464
0.0412492
0.0412525
0.0412562
0.0412597
0.0412615
0.0412596
0.0412523
0.04125
0.0412498
0.0412504
0.0412508
0.0412509
0.0412505
0.0412497
0.0412488
0.0412486
0.0412507
0.0412577
0.0412592
0.0412576
0.0412544
0.0412513
0.041248
0.0412271
0.0409973
0.0392352
0.0315291
0.0314483
0.0378911
0.0392329
0.0393926
0.0394052
0.0394067
0.0394084
0.0394105
0.0394129
0.0394154
0.0394179
0.0394195
0.03942
0.0394183
0.0394177
0.0394175
0.0394176
0.0394177
0.0394177
0.0394175
0.0394173
0.0394171
0.0394171
0.0394175
0.039419
0.0394184
0.0394167
0.0394144
0.0394121
0.0394098
0.0393965
0.0392362
0.0378935
0.0314495
0.0310208
0.0314485
0.0315281
0.0315351
0.0315358
0.0315366
0.0315376
0.0315388
0.0315402
0.0315416
0.031543
0.0315442
0.031545
0.031545
0.0315448
0.0315443
0.0315438
0.0315433
0.0315431
0.0315433
0.0315437
0.0315442
0.0315445
0.0315446
0.0315444
0.0315435
0.0315423
0.0315408
0.0315394
0.0315382
0.0315371
0.0315298
0.0314498
0.0310218
0.0382858
0.0414126
0.0421288
0.0422169
0.0422232
0.0422233
0.0422233
0.0422235
0.0422236
0.0422238
0.0422239
0.042224
0.0422241
0.0422241
0.0422241
0.0422241
0.0422241
0.0422241
0.0422241
0.0422241
0.0422241
0.0422241
0.0422241
0.042224
0.042224
0.0422238
0.0422237
0.0422236
0.0422235
0.0422234
0.0422171
0.042129
0.0414128
0.0382861
0.0414127
0.0375737
0.0380671
0.038167
0.0381746
0.0381741
0.0381739
0.038174
0.0381741
0.0381742
0.0381744
0.0381745
0.0381746
0.0381747
0.0381748
0.0381749
0.0381749
0.0381749
0.0381749
0.0381749
0.0381749
0.0381748
0.0381747
0.0381746
0.0381745
0.0381744
0.0381743
0.0381742
0.0381744
0.0381748
0.0381672
0.0380673
0.0375739
0.041413
0.0421291
0.0380672
0.0385343
0.0386351
0.0386422
0.0386414
0.0386412
0.0386412
0.0386414
0.0386416
0.0386418
0.038642
0.0386422
0.0386424
0.0386426
0.0386427
0.0386428
0.0386428
0.0386429
0.0386428
0.0386427
0.0386426
0.0386425
0.0386423
0.0386421
0.0386419
0.0386417
0.0386416
0.0386418
0.0386426
0.0386354
0.0385346
0.0380674
0.0421297
0.0422174
0.0381672
0.0386351
0.0387358
0.0387426
0.0387416
0.0387414
0.0387415
0.0387418
0.0387421
0.0387424
0.0387427
0.0387431
0.0387434
0.0387436
0.0387438
0.038744
0.038744
0.038744
0.038744
0.0387439
0.0387437
0.0387434
0.0387431
0.0387428
0.0387425
0.0387422
0.0387419
0.0387421
0.038743
0.0387362
0.0386355
0.0381675
0.0422181
0.0422239
0.0381747
0.0386423
0.0387426
0.0387492
0.0387483
0.0387481
0.0387483
0.0387487
0.0387491
0.0387496
0.0387502
0.0387506
0.038751
0.0387513
0.0387516
0.0387518
0.0387519
0.0387519
0.0387518
0.0387516
0.0387514
0.038751
0.0387506
0.0387502
0.0387497
0.0387493
0.0387489
0.0387489
0.0387498
0.0387431
0.0386428
0.0381752
0.0422248
0.0422241
0.0381743
0.0386415
0.0387417
0.0387483
0.0387473
0.0387472
0.0387476
0.0387483
0.0387491
0.0387495
0.0387504
0.0387508
0.0387512
0.0387517
0.038752
0.0387523
0.0387524
0.0387524
0.0387523
0.0387521
0.0387517
0.0387513
0.0387509
0.0387505
0.0387495
0.0387492
0.0387485
0.0387483
0.038749
0.0387423
0.0386421
0.0381748
0.0422252
0.0422243
0.0381741
0.0386412
0.0387414
0.0387481
0.0387472
0.0387473
0.0387481
0.0387494
0.0387487
0.0387445
0.0387492
0.0387507
0.0387508
0.0387511
0.0387515
0.0387517
0.0387519
0.0387519
0.0387517
0.0387515
0.0387512
0.0387509
0.0387508
0.0387493
0.0387446
0.0387488
0.0387496
0.0387488
0.0387491
0.0387421
0.0386419
0.0381748
0.0422255
0.0422245
0.0381742
0.0386413
0.0387415
0.0387482
0.0387475
0.0387481
0.0387496
0.0387477
0.0387254
0.0386926
0.0387158
0.0387337
0.0387355
0.038735
0.0387354
0.0387355
0.0387356
0.0387356
0.0387356
0.0387354
0.038735
0.0387356
0.0387338
0.0387159
0.0386927
0.0387255
0.038748
0.0387503
0.0387499
0.0387425
0.0386421
0.0381749
0.0422259
0.0422246
0.0381743
0.0386414
0.0387417
0.0387485
0.0387481
0.0387491
0.0387476
0.0387124
0.0385753
0.0386904
0.0385118
0.0386125
0.0386373
0.0386359
0.0386381
0.0386384
0.0386384
0.0386384
0.0386384
0.0386381
0.0386359
0.0386374
0.0386126
0.038512
0.0386905
0.0385754
0.0387126
0.0387483
0.038751
0.0387431
0.0386423
0.0381751
0.0422263
0.0422248
0.0381743
0.0386416
0.0387419
0.0387489
0.0387487
0.0387482
0.0387252
0.0385768
0.0385341
0.0484124
0.0382736
0.0381748
0.0382811
0.03829
0.0382968
0.0382978
0.0382979
0.0382979
0.0382978
0.0382968
0.0382901
0.0382812
0.038175
0.0382737
0.0484118
0.0385343
0.038577
0.0387259
0.0387501
0.0387437
0.0386427
0.0381752
0.0422265
0.0422248
0.0381744
0.0386417
0.0387421
0.0387492
0.0387488
0.038744
0.0386949
0.0387077
0.0485062
0.0476027
0.0378143
0.0377706
0.0378112
0.0378104
0.0378083
0.0378078
0.0378078
0.0378083
0.0378104
0.0378113
0.0377707
0.0378144
0.0476039
0.0485069
0.038708
0.0386956
0.0387458
0.0387438
0.0386429
0.0381753
0.0422266
0.0422247
0.0381744
0.0386418
0.0387423
0.0387495
0.0387495
0.0387494
0.0387266
0.0385777
0.0385385
0.0484159
0.0382671
0.0381816
0.0383004
0.0383404
0.0383097
0.038298
0.0382953
0.0382953
0.038298
0.0383097
0.0383403
0.0383003
0.0381815
0.0382669
0.0484142
0.0385385
0.0385779
0.0387272
0.0387512
0.0387445
0.0386431
0.0381754
0.0422266
0.0422246
0.0381745
0.0386419
0.0387425
0.0387497
0.0387497
0.0387513
0.0387503
0.0387149
0.0385756
0.038687
0.0384994
0.0386234
0.0386483
0.0386526
0.0386391
0.0386327
0.0386309
0.0386309
0.0386327
0.038639
0.0386525
0.0386482
0.0386233
0.0384992
0.0386868
0.0385755
0.038715
0.0387509
0.0387531
0.0387446
0.0386433
0.0381755
0.0422264
0.0422245
0.0381745
0.038642
0.0387427
0.0387499
0.0387498
0.0387511
0.0387534
0.0387519
0.0387276
0.0386881
0.0387042
0.0387407
0.0387344
0.0387286
0.0387228
0.0387199
0.0387188
0.0387188
0.0387199
0.0387228
0.0387285
0.0387343
0.0387405
0.038704
0.038688
0.0387276
0.038752
0.0387541
0.0387529
0.0387447
0.0386434
0.0381755
0.0422261
0.0422243
0.0381745
0.0386421
0.0387428
0.03875
0.0387499
0.0387509
0.0387529
0.0387547
0.0387525
0.0387414
0.0387387
0.0387561
0.0387459
0.0387388
0.0387349
0.0387328
0.0387319
0.0387319
0.0387328
0.0387348
0.0387387
0.0387458
0.038756
0.0387385
0.0387413
0.0387525
0.0387548
0.0387535
0.0387527
0.0387448
0.0386435
0.0381755
0.0422257
0.042224
0.0381745
0.0386421
0.0387429
0.0387502
0.0387501
0.0387511
0.0387527
0.0387542
0.0387537
0.0387475
0.0387412
0.0387569
0.0387468
0.0387395
0.0387359
0.0387339
0.0387329
0.0387329
0.0387339
0.0387358
0.0387394
0.0387466
0.0387568
0.038741
0.0387474
0.0387537
0.0387543
0.0387533
0.0387528
0.038745
0.0386436
0.0381755
0.0422254
0.0422238
0.0381745
0.0386422
0.038743
0.0387503
0.0387502
0.0387512
0.0387528
0.0387542
0.0387536
0.0387478
0.0387413
0.038757
0.038747
0.0387397
0.0387361
0.038734
0.0387329
0.0387328
0.0387339
0.038736
0.0387396
0.0387469
0.0387568
0.0387411
0.0387477
0.0387536
0.0387543
0.0387534
0.038753
0.0387451
0.0386437
0.0381755
0.0422251
0.0422237
0.0381745
0.0386422
0.038743
0.0387504
0.0387503
0.0387513
0.0387529
0.0387543
0.0387537
0.0387479
0.0387415
0.0387571
0.0387472
0.0387399
0.0387361
0.038734
0.0387327
0.0387327
0.0387339
0.038736
0.0387398
0.038747
0.038757
0.0387413
0.0387478
0.0387537
0.0387544
0.0387535
0.0387531
0.0387452
0.0386437
0.0381755
0.0422249
0.0422236
0.0381745
0.0386422
0.038743
0.0387504
0.0387503
0.0387513
0.038753
0.0387543
0.0387538
0.038748
0.0387415
0.0387572
0.0387472
0.0387399
0.0387361
0.0387339
0.0387326
0.0387326
0.0387338
0.038736
0.0387398
0.0387471
0.0387571
0.0387413
0.0387479
0.0387537
0.0387545
0.0387536
0.0387531
0.0387452
0.0386438
0.0381755
0.0422247
0.0422236
0.0381745
0.0386422
0.038743
0.0387504
0.0387503
0.0387513
0.0387529
0.0387543
0.0387538
0.0387481
0.0387416
0.0387572
0.0387471
0.0387398
0.0387361
0.0387339
0.0387326
0.0387326
0.0387338
0.0387359
0.0387397
0.038747
0.038757
0.0387414
0.0387479
0.0387538
0.0387545
0.0387536
0.0387531
0.0387452
0.0386437
0.0381755
0.0422248
0.0422237
0.0381745
0.0386422
0.038743
0.0387503
0.0387502
0.0387512
0.0387529
0.0387545
0.0387541
0.038748
0.0387417
0.0387572
0.038747
0.0387397
0.0387359
0.0387338
0.0387327
0.0387326
0.0387337
0.0387358
0.0387396
0.0387469
0.0387571
0.0387415
0.0387479
0.0387541
0.0387547
0.0387536
0.0387531
0.0387452
0.0386437
0.0381755
0.0422249
0.0422239
0.0381745
0.0386421
0.0387429
0.0387502
0.0387501
0.0387512
0.0387532
0.0387551
0.0387531
0.0387421
0.0387394
0.0387566
0.0387463
0.038739
0.038735
0.0387327
0.0387317
0.0387317
0.0387327
0.0387349
0.0387389
0.0387462
0.0387565
0.0387393
0.0387421
0.0387531
0.0387553
0.0387539
0.038753
0.0387451
0.0386437
0.0381755
0.0422252
0.042224
0.0381745
0.0386421
0.0387428
0.0387501
0.03875
0.0387514
0.0387539
0.0387525
0.0387285
0.0386893
0.0387054
0.0387415
0.0387351
0.0387291
0.0387232
0.0387201
0.0387189
0.0387189
0.03872
0.0387231
0.038729
0.038735
0.0387414
0.0387054
0.0386892
0.0387285
0.0387527
0.0387546
0.0387533
0.038745
0.0386436
0.0381755
0.0422254
0.0422242
0.0381745
0.038642
0.0387427
0.0387499
0.03875
0.0387517
0.0387508
0.0387156
0.0385769
0.0386886
0.0385013
0.0386248
0.0386496
0.0386536
0.03864
0.0386336
0.0386317
0.0386317
0.0386336
0.03864
0.0386536
0.0386495
0.0386248
0.0385013
0.0386886
0.038577
0.0387159
0.0387516
0.0387536
0.038745
0.0386435
0.0381756
0.0422257
0.0422243
0.0381745
0.0386419
0.0387426
0.0387498
0.0387499
0.0387499
0.0387272
0.0385786
0.0385398
0.0484278
0.0382684
0.0381829
0.0383016
0.0383415
0.0383107
0.0382989
0.0382961
0.0382961
0.0382988
0.0383107
0.0383415
0.0383016
0.0381828
0.038268
0.0484274
0.0385398
0.0385789
0.038728
0.0387518
0.038745
0.0386435
0.0381755
0.0422259
0.0422243
0.0381745
0.0386419
0.0387424
0.0387496
0.0387493
0.0387445
0.0386955
0.0387082
0.048503
0.0475883
0.0378123
0.0377673
0.0378072
0.0378059
0.0378034
0.0378027
0.0378026
0.0378033
0.0378056
0.0378068
0.0377666
0.0378107
0.0475837
0.048502
0.0387084
0.0386963
0.0387465
0.0387443
0.0386433
0.0381755
0.042226
0.0422243
0.0381744
0.0386418
0.0387422
0.0387493
0.0387493
0.0387489
0.0387261
0.0385778
0.0385358
0.0484241
0.0382731
0.03817
0.038273
0.0382798
0.0382853
0.0382858
0.0382857
0.0382857
0.0382857
0.0382849
0.0382788
0.0382708
0.0381663
0.0382699
0.0484216
0.0385357
0.0385781
0.0387269
0.0387509
0.0387443
0.0386431
0.0381754
0.0422259
0.0422243
0.0381744
0.0386417
0.0387421
0.0387491
0.0387488
0.03875
0.0387487
0.0387137
0.0385768
0.0386916
0.0385086
0.0386035
0.0386263
0.0386214
0.0386204
0.0386197
0.0386194
0.0386194
0.0386195
0.0386197
0.0386194
0.0386221
0.0386013
0.0385031
0.0386883
0.038576
0.0387139
0.0387495
0.038752
0.0387439
0.0386429
0.0381754
0.0422257
0.0422242
0.0381746
0.038642
0.0387424
0.0387493
0.0387488
0.0387495
0.0387512
0.0387496
0.038727
0.0386929
0.0387115
0.0387274
0.0387502
0.0387465
0.0387436
0.0387426
0.0387422
0.0387422
0.0387422
0.0387427
0.0387438
0.0387473
0.0387488
0.0387098
0.0386887
0.0387256
0.0387496
0.038752
0.0387515
0.0387439
0.0386431
0.0381755
0.0422255
0.0422241
0.0381751
0.0386428
0.0387434
0.0387502
0.0387496
0.0387499
0.038751
0.0387524
0.0387516
0.0387459
0.0387464
0.0387463
0.0387683
0.0387654
0.0387628
0.038762
0.0387618
0.0387617
0.0387617
0.0387619
0.0387627
0.0387654
0.0387686
0.038745
0.0387419
0.0387502
0.0387524
0.0387518
0.0387518
0.0387446
0.0386438
0.0381759
0.0422253
0.0422177
0.0381675
0.0386357
0.0387366
0.0387436
0.0387429
0.038743
0.0387437
0.0387446
0.0387455
0.038745
0.038743
0.0387388
0.0387387
0.038735
0.0387334
0.0387331
0.0387331
0.0387331
0.038733
0.0387329
0.0387331
0.0387347
0.0387385
0.0387385
0.0387422
0.0387447
0.0387448
0.0387445
0.0387449
0.0387377
0.0386366
0.0381683
0.0422188
0.0421295
0.0380676
0.0385348
0.0386359
0.0386432
0.0386426
0.0386427
0.0386432
0.0386438
0.0386445
0.0386448
0.038644
0.0386417
0.038639
0.038637
0.0386364
0.0386364
0.0386364
0.0386364
0.0386363
0.0386362
0.0386362
0.0386368
0.0386387
0.0386414
0.0386436
0.0386444
0.0386442
0.038644
0.0386444
0.0386368
0.0385356
0.0380682
0.0421304
0.0414131
0.0375741
0.0380677
0.0381678
0.0381756
0.0381754
0.0381755
0.0381759
0.0381764
0.038177
0.0381774
0.0381774
0.0381767
0.0381754
0.0381747
0.0381745
0.0381744
0.0381744
0.0381744
0.0381744
0.0381744
0.0381744
0.0381746
0.0381752
0.0381765
0.0381772
0.0381771
0.0381768
0.0381766
0.0381766
0.0381687
0.0380684
0.0375747
0.0414138
0.0382863
0.0414132
0.0421299
0.0422184
0.0422252
0.0422259
0.0422266
0.0422275
0.0422284
0.0422294
0.0422303
0.0422308
0.0422305
0.0422294
0.0422284
0.0422275
0.0422269
0.0422264
0.0422263
0.0422264
0.0422269
0.0422275
0.0422283
0.0422292
0.0422302
0.0422303
0.0422298
0.0422288
0.0422279
0.0422269
0.0422198
0.042131
0.0414139
0.038287
0.0407298
0.0451869
0.0463409
0.0465042
0.0465189
0.0465195
0.0465195
0.0465196
0.0465197
0.0465198
0.0465199
0.04652
0.04652
0.04652
0.04652
0.04652
0.04652
0.04652
0.04652
0.04652
0.04652
0.04652
0.04652
0.04652
0.0465199
0.0465199
0.0465198
0.0465197
0.0465197
0.0465191
0.0465043
0.0463411
0.0451871
0.0407301
0.045187
0.0399796
0.0403593
0.0404604
0.0404692
0.0404687
0.0404683
0.0404683
0.0404684
0.0404684
0.0404685
0.0404686
0.0404686
0.0404687
0.0404687
0.0404687
0.0404688
0.0404688
0.0404688
0.0404688
0.0404687
0.0404687
0.0404687
0.0404686
0.0404686
0.0404685
0.0404685
0.0404685
0.0404688
0.0404693
0.0404605
0.0403594
0.0399797
0.0451872
0.0463412
0.0403593
0.0405565
0.0406293
0.0406339
0.0406325
0.040632
0.0406319
0.040632
0.040632
0.0406321
0.0406322
0.0406322
0.0406323
0.0406324
0.0406324
0.0406324
0.0406325
0.0406325
0.0406324
0.0406324
0.0406324
0.0406323
0.0406323
0.0406322
0.0406321
0.0406321
0.0406321
0.0406326
0.040634
0.0406295
0.0405566
0.0403595
0.0463417
0.0465047
0.0404604
0.0406294
0.0406954
0.0406985
0.0406967
0.0406961
0.0406961
0.0406962
0.0406963
0.0406964
0.0406965
0.0406966
0.0406967
0.0406968
0.0406969
0.040697
0.040697
0.040697
0.040697
0.0406969
0.0406969
0.0406968
0.0406967
0.0406966
0.0406965
0.0406964
0.0406964
0.0406969
0.0406987
0.0406956
0.0406296
0.0404607
0.0465054
0.0465196
0.0404693
0.040634
0.0406985
0.0407012
0.0406993
0.0406987
0.0406988
0.0406989
0.0406992
0.0406994
0.0406995
0.0406996
0.0406997
0.0406998
0.0406999
0.0406999
0.0407
0.0407
0.0406999
0.0406999
0.0406998
0.0406997
0.0406996
0.0406996
0.0406995
0.0406993
0.0406991
0.0406996
0.0407014
0.0406987
0.0406342
0.0404696
0.0465204
0.0465203
0.0404688
0.0406325
0.0406967
0.0406993
0.0406974
0.0406969
0.0406971
0.0406976
0.0406982
0.0406983
0.0406983
0.040698
0.0406979
0.0406979
0.040698
0.040698
0.040698
0.040698
0.040698
0.040698
0.0406979
0.0406979
0.0406981
0.0406983
0.0406983
0.0406983
0.0406978
0.0406979
0.0406996
0.0406969
0.0406328
0.0404691
0.0465213
0.0465204
0.0404685
0.040632
0.0406961
0.0406987
0.0406969
0.0406966
0.0406973
0.0406987
0.0406985
0.0406959
0.0406951
0.0406947
0.0406936
0.0406927
0.0406931
0.040693
0.0406929
0.0406929
0.040693
0.0406931
0.0406927
0.0406936
0.0406947
0.0406951
0.040696
0.0406986
0.0406989
0.0406982
0.0406993
0.0406965
0.0406323
0.0404688
0.0465216
0.0465206
0.0404684
0.0406319
0.0406961
0.0406987
0.0406971
0.0406973
0.0406991
0.040699
0.0406869
0.0406867
0.0406584
0.0406644
0.0406622
0.0406555
0.0406599
0.0406603
0.0406601
0.0406601
0.0406604
0.0406599
0.0406555
0.0406623
0.0406644
0.0406585
0.0406868
0.040687
0.0406992
0.0406999
0.0407
0.0406966
0.0406323
0.0404688
0.0465219
0.0465207
0.0404685
0.040632
0.0406961
0.0406989
0.0406975
0.0406986
0.040699
0.0406807
0.0406512
0.041107
0.0404844
0.0404913
0.0404963
0.040466
0.0404931
0.0404978
0.0404976
0.0404977
0.0404978
0.0404932
0.0404661
0.0404964
0.0404914
0.0404844
0.041107
0.0406513
0.0406809
0.0406998
0.0407013
0.0406971
0.0406324
0.0404689
0.0465221
0.0465207
0.0404685
0.040632
0.0406962
0.0406991
0.040698
0.0406985
0.0406882
0.040658
0.0413396
0.055018
0.0404929
0.0398866
0.0399225
0.0398703
0.0399315
0.039942
0.0399427
0.0399427
0.0399421
0.0399316
0.0398703
0.0399226
0.0398867
0.0404928
0.0550171
0.0413396
0.0406582
0.040689
0.0407012
0.0406976
0.0406326
0.040469
0.0465223
0.0465207
0.0404685
0.040632
0.0406963
0.0406992
0.0406981
0.0406969
0.0406971
0.0411736
0.0554993
0.0507875
0.0395934
0.0395339
0.0395951
0.0395801
0.039573
0.0395716
0.0395716
0.039573
0.0395801
0.0395952
0.0395341
0.0395936
0.0507889
0.0555
0.0411738
0.0406979
0.0406996
0.0406977
0.0406327
0.0404691
0.0465223
0.0465206
0.0404685
0.0406321
0.0406964
0.0406993
0.0406983
0.0406988
0.0406886
0.0406585
0.0413465
0.0550086
0.0405312
0.0401166
0.0402577
0.0404992
0.0402647
0.0402047
0.0401947
0.0401947
0.0402046
0.0402646
0.0404991
0.0402576
0.0401164
0.0405308
0.055007
0.0413466
0.0406587
0.0406894
0.0407016
0.0406979
0.0406328
0.0404691
0.0465221
0.0465204
0.0404686
0.0406321
0.0406964
0.0406993
0.0406981
0.0406993
0.0406997
0.0406808
0.0406499
0.0411122
0.0405816
0.0409785
0.041054
0.0411067
0.041045
0.0410223
0.0410172
0.0410172
0.0410223
0.0410449
0.0411066
0.0410538
0.0409784
0.0405813
0.0411121
0.0406499
0.0406809
0.0407005
0.040702
0.0406977
0.0406327
0.0404691
0.0465218
0.0465202
0.0404686
0.0406321
0.0406965
0.0406993
0.0406978
0.0406983
0.0407001
0.0406992
0.0406853
0.0406958
0.0407835
0.041224
0.0412674
0.0412701
0.0412565
0.0412503
0.0412486
0.0412486
0.0412503
0.0412565
0.0412701
0.0412673
0.0412239
0.0407833
0.0406957
0.0406853
0.0406994
0.040701
0.040701
0.0406974
0.0406327
0.0404691
0.0465214
0.04652
0.0404686
0.0406321
0.0406965
0.0406993
0.0406977
0.0406977
0.0406986
0.0406991
0.0406968
0.0407055
0.040823
0.0412599
0.0412969
0.0412917
0.0412869
0.0412848
0.0412841
0.0412841
0.0412848
0.0412869
0.0412917
0.0412969
0.0412598
0.0408228
0.0407054
0.0406968
0.0406992
0.0406994
0.0407005
0.0406973
0.0406327
0.0404691
0.046521
0.0465198
0.0404685
0.0406322
0.0406965
0.0406994
0.0406978
0.0406976
0.0406979
0.0406977
0.0406961
0.0407074
0.0408255
0.0412618
0.0412985
0.0412924
0.0412889
0.0412876
0.0412871
0.0412871
0.0412875
0.0412889
0.0412923
0.0412984
0.0412618
0.0408253
0.0407073
0.0406961
0.0406978
0.0406988
0.0407003
0.0406973
0.0406327
0.0404691
0.0465207
0.0465197
0.0404685
0.0406322
0.0406966
0.0406994
0.0406978
0.0406976
0.0406978
0.0406972
0.0406954
0.0407068
0.040825
0.0412615
0.0412983
0.0412922
0.0412889
0.0412877
0.0412872
0.0412872
0.0412876
0.0412889
0.0412921
0.0412983
0.0412615
0.0408249
0.0407068
0.0406954
0.0406974
0.0406987
0.0407003
0.0406974
0.0406327
0.0404691
0.0465205
0.0465195
0.0404685
0.0406322
0.0406966
0.0406994
0.0406978
0.0406976
0.0406978
0.0406972
0.0406953
0.0407067
0.0408249
0.0412615
0.0412984
0.0412922
0.0412889
0.0412877
0.0412872
0.0412872
0.0412877
0.0412889
0.0412922
0.0412983
0.0412614
0.0408248
0.0407066
0.0406953
0.0406974
0.0406987
0.0407004
0.0406974
0.0406328
0.0404691
0.0465203
0.0465195
0.0404685
0.0406322
0.0406966
0.0406994
0.0406978
0.0406976
0.0406978
0.0406972
0.0406953
0.0407067
0.040825
0.0412615
0.0412984
0.0412922
0.041289
0.0412877
0.0412872
0.0412872
0.0412877
0.0412889
0.0412922
0.0412983
0.0412615
0.0408248
0.0407066
0.0406953
0.0406974
0.0406987
0.0407004
0.0406974