/*--------------------------------*- C++ -*----------------------------------*\
| =========                 |                                                 |
| \\      /  F ield         | OpenFOAM: The Open Source CFD Toolbox           |
|  \\    /   O peration     | Version:  2112                                  |
|   \\  /    A nd           | Website:  www.openfoam.com                      |
|    \\/     M anipulation  |                                                 |
\*---------------------------------------------------------------------------*/
FoamFile
{
    version     2.0;
    format      ascii;
    arch        "LSB;label=32;scalar=64";
    class       volScalarField;
    location    "0.6";
    object      k;
}
// * * * * * * * * * * * * * * * * * * * * * * * * * * * * * * * * * * * * * //

dimensions      [0 2 -2 0 0 0 0];

internalField   nonuniform List<scalar> 
64906
(
0.00804087
0.00813305
0.00815263
0.00815476
0.0081549
0.00815493
0.00815497
0.00815501
0.00815506
0.00815511
0.00815516
0.0081552
0.00815524
0.00815526
0.00815528
0.00815529
0.00815529
0.00815529
0.00815529
0.00815529
0.00815528
0.00815527
0.00815525
0.00815523
0.00815519
0.00815515
0.0081551
0.00815506
0.00815501
0.00815498
0.00815484
0.00815271
0.00813313
0.00804094
0.00813309
0.00935546
0.00962498
0.00966181
0.00966532
0.00966557
0.00966563
0.00966571
0.00966581
0.00966591
0.00966601
0.00966612
0.00966621
0.00966629
0.00966636
0.00966641
0.00966644
0.00966646
0.00966646
0.00966645
0.00966642
0.00966637
0.0096663
0.00966622
0.00966613
0.00966604
0.00966594
0.00966585
0.00966577
0.00966551
0.00966199
0.00962515
0.00935562
0.00813319
0.0081527
0.00962506
0.00998027
0.0100335
0.0100391
0.0100396
0.0100397
0.0100398
0.01004
0.0100402
0.0100404
0.0100406
0.0100408
0.010041
0.0100411
0.0100412
0.0100413
0.0100414
0.0100414
0.0100413
0.0100413
0.0100411
0.010041
0.0100408
0.0100406
0.0100404
0.0100402
0.0100401
0.0100399
0.0100394
0.0100338
0.00998054
0.00962531
0.00815284
0.00815486
0.00966194
0.0100335
0.0100904
0.0100966
0.0100971
0.0100973
0.0100975
0.0100977
0.010098
0.0100983
0.0100986
0.0100989
0.0100992
0.0100995
0.0100996
0.0100998
0.0100998
0.0100998
0.0100998
0.0100997
0.0100995
0.0100993
0.010099
0.0100987
0.0100984
0.0100981
0.0100978
0.0100976
0.010097
0.0100908
0.0100339
0.00966224
0.00815503
0.00815502
0.00966548
0.0100392
0.0100966
0.0101029
0.0101035
0.0101037
0.010104
0.0101043
0.0101047
0.0101051
0.0101056
0.0101061
0.0101065
0.0101068
0.0101071
0.0101073
0.0101073
0.0101074
0.0101073
0.0101071
0.0101068
0.0101065
0.0101061
0.0101057
0.0101051
0.0101047
0.0101044
0.0101041
0.0101034
0.0100971
0.0100396
0.00966583
0.00815523
0.00815508
0.00966574
0.0100397
0.0100972
0.0101035
0.0101042
0.0101044
0.0101047
0.0101052
0.0101056
0.0101059
0.0101069
0.0101077
0.0101083
0.0101088
0.0101091
0.0101094
0.0101095
0.0101095
0.0101094
0.0101091
0.0101088
0.0101083
0.0101077
0.010107
0.010106
0.0101057
0.0101053
0.0101049
0.0101042
0.0100977
0.0100402
0.00966615
0.00815533
0.00815513
0.00966581
0.0100398
0.0100973
0.0101037
0.0101044
0.0101047
0.0101052
0.0101054
0.0101046
0.0101023
0.0101062
0.0101083
0.0101094
0.0101101
0.0101106
0.0101109
0.0101111
0.0101111
0.0101109
0.0101106
0.0101102
0.0101094
0.0101084
0.0101063
0.0101024
0.0101047
0.0101056
0.0101053
0.0101045
0.010098
0.0100404
0.00966629
0.00815543
0.00815519
0.00966588
0.0100399
0.0100975
0.0101039
0.0101047
0.0101051
0.0101053
0.0101029
0.0100893
0.0100603
0.0100892
0.0101026
0.0101061
0.0101074
0.0101079
0.0101083
0.0101085
0.0101085
0.0101083
0.010108
0.0101074
0.0101061
0.0101026
0.0100893
0.0100603
0.0100894
0.010103
0.0101054
0.0101049
0.0100983
0.0100406
0.00966643
0.00815553
0.00815524
0.00966595
0.01004
0.0100977
0.0101042
0.010105
0.0101053
0.0101027
0.0100809
0.0099786
0.00975646
0.00996851
0.0100599
0.0100793
0.0100829
0.0100836
0.010084
0.0100842
0.0100842
0.010084
0.0100836
0.010083
0.0100793
0.01006
0.00996861
0.0097565
0.0099787
0.010081
0.0101029
0.010105
0.0100986
0.0100408
0.00966657
0.00815563
0.00815528
0.00966601
0.0100402
0.0100979
0.0101045
0.0101053
0.0101042
0.010089
0.00997857
0.00946219
0.00834818
0.0094298
0.00989181
0.00998242
0.00999478
0.00999653
0.00999708
0.00999734
0.00999734
0.00999711
0.00999658
0.00999484
0.0099825
0.00989192
0.00942995
0.00834816
0.00946229
0.00997873
0.0100892
0.010104
0.0100989
0.0100411
0.00966669
0.00815571
0.00815531
0.00966606
0.0100403
0.0100981
0.0101047
0.0101054
0.0101017
0.0100601
0.00975792
0.00834977
0.00832795
0.00957863
0.00982362
0.00985449
0.0098573
0.00985759
0.00985769
0.0098577
0.0098576
0.00985732
0.00985452
0.00982368
0.00957876
0.00832805
0.00834987
0.00975808
0.0100603
0.0101015
0.010099
0.0100413
0.00966679
0.00815577
0.00815532
0.00966609
0.0100404
0.0100983
0.010105
0.0101061
0.0101054
0.0100905
0.00997979
0.00946077
0.00834787
0.00941527
0.00987848
0.00996844
0.00998025
0.00997956
0.00997877
0.00997853
0.00997852
0.00997877
0.00997954
0.00998023
0.00996842
0.00987846
0.00941521
0.00834774
0.00946066
0.00997985
0.0100906
0.0101052
0.0100997
0.0100416
0.00966686
0.0081558
0.00815532
0.00966612
0.0100405
0.0100985
0.0101053
0.0101066
0.0101074
0.0101056
0.010084
0.00998058
0.00975376
0.00995514
0.010036
0.0100496
0.0100503
0.0100488
0.0100479
0.0100476
0.0100476
0.0100479
0.0100488
0.0100502
0.0100496
0.0100359
0.00995501
0.00975355
0.0099805
0.010084
0.0101057
0.0101071
0.0101001
0.0100418
0.0096669
0.00815581
0.00815531
0.00966613
0.0100406
0.0100986
0.0101055
0.0101069
0.0101081
0.0101092
0.0101076
0.0100939
0.0100603
0.0100774
0.0100744
0.0100701
0.0100677
0.0100661
0.0100652
0.0100648
0.0100647
0.0100651
0.010066
0.0100676
0.01007
0.0100743
0.0100772
0.0100602
0.0100938
0.0101076
0.0101093
0.0101078
0.0101004
0.0100419
0.00966693
0.00815578
0.00815528
0.00966613
0.0100407
0.0100988
0.0101057
0.0101071
0.0101084
0.01011
0.0101114
0.0101108
0.0101044
0.0100967
0.0100807
0.0100735
0.0100704
0.0100687
0.0100676
0.010067
0.010067
0.0100675
0.0100686
0.0100704
0.0100734
0.0100806
0.0100965
0.0101043
0.0101107
0.0101114
0.0101101
0.0101081
0.0101006
0.0100421
0.00966694
0.00815574
0.00815525
0.00966612
0.0100407
0.0100988
0.0101058
0.0101073
0.0101087
0.0101103
0.010112
0.010113
0.0101097
0.0100995
0.0100817
0.0100742
0.0100708
0.0100689
0.0100675
0.0100667
0.0100667
0.0100675
0.0100688
0.0100707
0.010074
0.0100815
0.0100993
0.0101095
0.0101129
0.0101121
0.0101104
0.0101083
0.0101008
0.0100422
0.00966694
0.00815569
0.00815521
0.00966612
0.0100408
0.0100989
0.0101059
0.0101074
0.0101088
0.0101105
0.0101123
0.0101134
0.0101104
0.0101001
0.010082
0.0100744
0.010071
0.0100689
0.0100673
0.0100663
0.0100663
0.0100672
0.0100688
0.0100708
0.0100742
0.0100818
0.0100999
0.0101103
0.0101133
0.0101123
0.0101106
0.0101085
0.0101009
0.0100422
0.00966694
0.00815563
0.00815518
0.00966611
0.0100408
0.010099
0.010106
0.0101075
0.0101089
0.0101107
0.0101125
0.0101136
0.0101107
0.0101004
0.0100821
0.0100745
0.010071
0.0100688
0.0100671
0.0100659
0.0100659
0.010067
0.0100687
0.0100709
0.0100744
0.010082
0.0101002
0.0101106
0.0101135
0.0101125
0.0101107
0.0101086
0.010101
0.0100423
0.00966694
0.00815558
0.00815515
0.00966611
0.0100408
0.010099
0.010106
0.0101075
0.010109
0.0101107
0.0101125
0.0101137
0.0101108
0.0101005
0.0100821
0.0100745
0.010071
0.0100688
0.0100671
0.0100658
0.0100657
0.010067
0.0100687
0.0100709
0.0100744
0.010082
0.0101003
0.0101106
0.0101136
0.0101125
0.0101108
0.0101086
0.010101
0.0100423
0.00966694
0.00815555
0.00815516
0.00966611
0.0100408
0.010099
0.010106
0.0101075
0.0101089
0.0101107
0.0101125
0.0101136
0.0101107
0.0101004
0.0100821
0.0100744
0.010071
0.0100688
0.0100671
0.0100659
0.0100658
0.010067
0.0100686
0.0100708
0.0100743
0.0100819
0.0101002
0.0101106
0.0101136
0.0101125
0.0101108
0.0101086
0.010101
0.0100423
0.00966694
0.00815555
0.00815518
0.00966612
0.0100408
0.0100989
0.0101059
0.0101074
0.0101088
0.0101106
0.0101123
0.0101133
0.0101101
0.0100999
0.0100819
0.0100743
0.0100708
0.0100687
0.0100672
0.0100661
0.0100661
0.0100671
0.0100686
0.0100707
0.0100741
0.0100817
0.0100997
0.01011
0.0101133
0.0101124
0.0101107
0.0101085
0.0101009
0.0100423
0.00966695
0.00815559
0.00815521
0.00966612
0.0100408
0.0100989
0.0101059
0.0101073
0.0101087
0.0101103
0.0101118
0.0101113
0.0101051
0.0100974
0.010081
0.0100737
0.0100704
0.0100684
0.0100671
0.0100663
0.0100662
0.010067
0.0100683
0.0100703
0.0100736
0.0100809
0.0100972
0.010105
0.0101113
0.0101119
0.0101105
0.0101084
0.0101008
0.0100422
0.00966695
0.00815564
0.00815523
0.00966613
0.0100407
0.0100988
0.0101057
0.0101071
0.0101084
0.0101097
0.0101082
0.0100946
0.0100614
0.0100784
0.0100748
0.0100703
0.0100676
0.0100658
0.0100646
0.010064
0.010064
0.0100645
0.0100656
0.0100675
0.0100702
0.0100747
0.0100783
0.0100613
0.0100946
0.0101083
0.0101098
0.0101082
0.0101007
0.0100421
0.00966696
0.00815568
0.00815525
0.00966613
0.0100406
0.0100986
0.0101055
0.0101069
0.0101078
0.0101061
0.0100847
0.00998168
0.00975555
0.0099566
0.0100365
0.0100498
0.0100502
0.0100484
0.0100473
0.0100468
0.0100468
0.0100472
0.0100483
0.01005
0.0100497
0.0100364
0.00995659
0.0097556
0.00998177
0.0100848
0.0101063
0.0101076
0.0101005
0.010042
0.00966696
0.00815571
0.00815526
0.00966612
0.0100405
0.0100985
0.0101053
0.0101064
0.0101059
0.0100911
0.0099806
0.00946213
0.00834905
0.00941614
0.00987858
0.00996834
0.00997989
0.00997893
0.00997795
0.00997759
0.00997756
0.00997787
0.00997881
0.00997973
0.00996819
0.0098785
0.0094163
0.00834903
0.00946229
0.0099808
0.0100913
0.0101057
0.0101001
0.0100418
0.00966694
0.00815572
0.00815525
0.0096661
0.0100405
0.0100983
0.010105
0.0101058
0.0101022
0.0100606
0.00975836
0.00834978
0.00832687
0.00957682
0.00982205
0.00985267
0.00985514
0.00985516
0.00985512
0.00985508
0.00985506
0.00985495
0.0098524
0.0098217
0.0095764
0.00832652
0.00834977
0.00975856
0.0100608
0.010102
0.0100995
0.0100416
0.0096669
0.0081557
0.00815523
0.00966607
0.0100404
0.0100982
0.0101048
0.0101057
0.0101049
0.0100897
0.0099795
0.0094634
0.00834962
0.00942849
0.00988984
0.00997845
0.00998951
0.00999043
0.00999053
0.00999057
0.00999053
0.00999038
0.00999013
0.00998887
0.00997731
0.00988774
0.00942739
0.00834946
0.00946355
0.00997975
0.0100901
0.0101047
0.0100994
0.0100414
0.00966683
0.00815566
0.00815521
0.00966603
0.0100403
0.010098
0.0101046
0.0101056
0.010106
0.0101037
0.0100821
0.00998011
0.00975802
0.00996785
0.0100555
0.0100681
0.0100685
0.010068
0.0100678
0.0100678
0.0100678
0.0100677
0.0100675
0.0100674
0.0100653
0.0100491
0.00996444
0.00975691
0.00998003
0.0100823
0.010104
0.0101059
0.0100993
0.0100413
0.00966675
0.0081556
0.00815517
0.00966599
0.0100402
0.0100979
0.0101044
0.0101053
0.010106
0.0101064
0.0101043
0.0100908
0.0100613
0.010087
0.0100922
0.0100812
0.0100773
0.0100761
0.0100758
0.0100757
0.0100756
0.0100756
0.0100757
0.010076
0.0100767
0.0100785
0.0100792
0.0100585
0.0100903
0.0101044
0.0101067
0.0101059
0.0100991
0.0100411
0.00966667
0.00815554
0.00815513
0.00966575
0.0100397
0.0100973
0.0101039
0.0101047
0.0101053
0.0101059
0.0101065
0.0101058
0.010103
0.0101039
0.010098
0.0100852
0.0100811
0.0100801
0.0100799
0.0100798
0.0100798
0.0100798
0.0100798
0.0100799
0.0100809
0.0100848
0.0100961
0.0101002
0.0101054
0.0101067
0.0101063
0.0101052
0.0100984
0.0100406
0.00966639
0.00815547
0.00815498
0.00966224
0.010034
0.0100911
0.0100975
0.0100983
0.0100988
0.0100994
0.0101001
0.0101008
0.0101011
0.0101007
0.0100976
0.0100914
0.0100891
0.0100885
0.0100884
0.0100885
0.0100885
0.0100884
0.0100883
0.0100882
0.0100887
0.010091
0.010097
0.0100998
0.0101007
0.0101004
0.0100998
0.0100988
0.0100921
0.0100349
0.00966283
0.00815529
0.00815283
0.00962538
0.00998081
0.0100342
0.01004
0.0100407
0.0100411
0.0100416
0.0100423
0.0100429
0.0100435
0.0100437
0.0100429
0.010041
0.0100403
0.0100402
0.0100403
0.0100404
0.0100404
0.0100403
0.0100402
0.01004
0.0100401
0.0100407
0.0100426
0.0100433
0.0100431
0.0100426
0.010042
0.0100411
0.0100351
0.00998156
0.00962592
0.00815311
0.00813324
0.00935579
0.00962551
0.0096625
0.00966617
0.00966662
0.00966694
0.00966733
0.00966777
0.00966824
0.00966868
0.00966892
0.0096689
0.00966843
0.00966825
0.00966818
0.00966819
0.0096682
0.0096682
0.00966818
0.00966815
0.00966811
0.00966815
0.0096683
0.00966873
0.00966873
0.00966847
0.00966805
0.00966762
0.00966704
0.00966323
0.00962611
0.00935624
0.00813347
0.00804101
0.00813327
0.00815293
0.00815515
0.0081554
0.00815556
0.00815576
0.00815599
0.00815626
0.00815654
0.00815682
0.00815704
0.00815718
0.00815717
0.00815712
0.00815703
0.00815692
0.00815682
0.00815678
0.00815682
0.00815691
0.008157
0.00815707
0.0081571
0.00815708
0.00815691
0.00815667
0.00815639
0.00815612
0.00815587
0.00815554
0.00815325
0.00813353
0.0080412
0.0110174
0.0117036
0.0118743
0.0118987
0.011901
0.0119012
0.0119012
0.0119012
0.0119012
0.0119013
0.0119013
0.0119013
0.0119013
0.0119013
0.0119013
0.0119013
0.0119013
0.0119013
0.0119013
0.0119013
0.0119013
0.0119013
0.0119013
0.0119013
0.0119013
0.0119013
0.0119013
0.0119012
0.0119012
0.0119011
0.0118987
0.0118743
0.0117036
0.0110175
0.0117036
0.0178789
0.0190185
0.0192092
0.0192329
0.019235
0.0192351
0.019235
0.019235
0.0192349
0.0192349
0.0192348
0.0192347
0.0192346
0.0192345
0.0192345
0.0192344
0.0192344
0.0192344
0.0192344
0.0192345
0.0192345
0.0192346
0.0192347
0.0192348
0.0192348
0.0192349
0.019235
0.0192349
0.0192329
0.0192091
0.0190184
0.0178789
0.0117037
0.0118744
0.0190187
0.0204313
0.020688
0.0207231
0.0207267
0.0207269
0.020727
0.020727
0.0207271
0.0207271
0.0207272
0.0207273
0.0207273
0.0207274
0.0207274
0.0207275
0.0207275
0.0207275
0.0207275
0.0207274
0.0207274
0.0207274
0.0207273
0.0207272
0.0207272
0.0207271
0.0207271
0.0207268
0.0207233
0.0206881
0.0204314
0.0190187
0.0118745
0.0118988
0.0192094
0.0206881
0.0209629
0.0210014
0.0210054
0.0210058
0.0210059
0.021006
0.0210062
0.0210063
0.0210065
0.0210067
0.0210069
0.021007
0.0210071
0.0210072
0.0210072
0.0210072
0.0210072
0.0210071
0.021007
0.0210069
0.0210067
0.0210066
0.0210064
0.0210062
0.0210061
0.0210057
0.0210017
0.0209631
0.0206882
0.0192095
0.011899
0.0119012
0.0192332
0.0207232
0.0210014
0.0210407
0.0210448
0.0210452
0.0210453
0.0210455
0.0210456
0.0210458
0.0210462
0.0210465
0.0210467
0.0210469
0.0210471
0.0210472
0.0210473
0.0210473
0.0210472
0.0210471
0.021047
0.0210468
0.0210465
0.0210462
0.0210458
0.0210457
0.0210456
0.0210452
0.021041
0.0210017
0.0207235
0.0192333
0.0119014
0.0119013
0.0192352
0.0207267
0.0210054
0.0210448
0.0210489
0.0210493
0.0210495
0.0210496
0.0210488
0.0210474
0.0210491
0.0210501
0.0210506
0.0210509
0.0210511
0.0210512
0.0210513
0.0210513
0.0210512
0.0210511
0.021051
0.0210507
0.0210502
0.0210491
0.0210475
0.0210489
0.0210496
0.0210494
0.0210452
0.0210058
0.020727
0.0192354
0.0119016
0.0119014
0.0192353
0.020727
0.0210058
0.0210451
0.0210493
0.0210498
0.0210496
0.0210473
0.0210375
0.0210214
0.0210346
0.0210426
0.0210448
0.0210456
0.0210456
0.0210456
0.0210457
0.0210457
0.0210456
0.0210456
0.0210456
0.0210448
0.0210426
0.0210347
0.0210214
0.0210376
0.0210474
0.0210495
0.0210456
0.0210062
0.0207273
0.0192355
0.0119017
0.0119014
0.0192352
0.020727
0.0210058
0.0210452
0.0210494
0.0210496
0.0210463
0.0210254
0.0209491
0.0208244
0.0209289
0.0209895
0.0210052
0.0210084
0.0210082
0.0210078
0.0210077
0.0210077
0.0210078
0.0210082
0.0210084
0.0210052
0.0209896
0.020929
0.0208245
0.0209492
0.0210255
0.0210461
0.0210454
0.0210063
0.0207273
0.0192354
0.0119017
0.0119015
0.0192351
0.020727
0.0210059
0.0210454
0.0210494
0.0210471
0.0210254
0.0209034
0.0204589
0.0196791
0.0203742
0.0207398
0.0208306
0.020846
0.0208468
0.0208462
0.020846
0.020846
0.0208462
0.0208468
0.0208461
0.0208307
0.0207399
0.0203743
0.0196791
0.020459
0.0209035
0.0210253
0.021043
0.0210062
0.0207274
0.0192353
0.0119018
0.0119015
0.019235
0.020727
0.021006
0.0210454
0.0210486
0.0210374
0.0209498
0.0204613
0.0184936
0.0132033
0.018264
0.0199508
0.0203234
0.0203804
0.0203887
0.0203894
0.0203894
0.0203894
0.0203894
0.0203887
0.0203804
0.0203234
0.0199509
0.0182643
0.0132032
0.0184937
0.0204614
0.0209497
0.0210333
0.0210054
0.0207274
0.0192351
0.0119018
0.0119015
0.0192349
0.020727
0.0210061
0.0210454
0.0210471
0.021022
0.0208297
0.0196968
0.0132266
0.0130254
0.0187396
0.0196323
0.0197649
0.019778
0.0197782
0.0197779
0.0197779
0.0197782
0.019778
0.0197649
0.0196324
0.0187398
0.0130257
0.0132267
0.0196969
0.0208295
0.0210179
0.0210039
0.0207272
0.0192348
0.0119019
0.0119015
0.0192347
0.020727
0.0210062
0.0210457
0.021049
0.0210379
0.02095
0.0204589
0.0184804
0.0132027
0.0182229
0.0199112
0.0202834
0.0203458
0.0203405
0.0203354
0.0203337
0.0203337
0.0203354
0.0203405
0.0203458
0.0202833
0.0199111
0.0182227
0.0132024
0.01848
0.0204589
0.0209498
0.0210337
0.0210058
0.0207274
0.0192345
0.0119018
0.0119014
0.0192346
0.020727
0.0210063
0.021046
0.0210502
0.0210482
0.0210264
0.0209028
0.0204515
0.0196568
0.020314
0.0206272
0.0206955
0.0207038
0.0206976
0.0206937
0.0206923
0.0206923
0.0206937
0.0206976
0.0207037
0.0206954
0.0206271
0.0203138
0.0196565
0.0204513
0.0209028
0.0210262
0.0210441
0.0210069
0.0207274
0.0192343
0.0119018
0.0119014
0.0192345
0.020727
0.0210064
0.0210461
0.0210506
0.0210511
0.021048
0.0210261
0.0209438
0.0207988
0.0208525
0.0208336
0.0208151
0.0208067
0.0208018
0.0207994
0.0207985
0.0207985
0.0207994
0.0208018
0.0208066
0.020815
0.0208334
0.0208523
0.0207987
0.0209438
0.0210262
0.0210479
0.021047
0.0210073
0.0207275
0.0192341
0.0119017
0.0119014
0.0192344
0.0207271
0.0210065
0.0210462
0.0210508
0.0210517
0.0210519
0.0210488
0.0210331
0.0209948
0.0209524
0.0208732
0.0208384
0.0208267
0.0208226
0.0208208
0.0208201
0.0208201
0.0208208
0.0208225
0.0208267
0.0208383
0.0208731
0.0209523
0.0209948
0.0210331
0.0210489
0.0210518
0.0210476
0.0210075
0.0207275
0.0192339
0.0119017
0.0119013
0.0192343
0.0207271
0.0210065
0.0210463
0.0210509
0.0210519
0.0210525
0.0210519
0.0210453
0.0210215
0.0209664
0.0208792
0.0208422
0.0208301
0.0208262
0.0208247
0.0208241
0.0208241
0.0208246
0.0208262
0.0208301
0.0208421
0.0208791
0.0209663
0.0210214
0.0210453
0.021052
0.0210524
0.0210477
0.0210076
0.0207275
0.0192338
0.0119016
0.0119013
0.0192342
0.0207271
0.0210066
0.0210464
0.021051
0.021052
0.0210527
0.0210523
0.0210467
0.0210245
0.0209681
0.0208802
0.020843
0.020831
0.0208271
0.0208256
0.020825
0.020825
0.0208256
0.0208271
0.0208309
0.0208429
0.0208801
0.020968
0.0210244
0.0210467
0.0210524
0.0210526
0.0210479
0.0210077
0.0207275
0.0192337
0.0119015
0.0119012
0.0192342
0.0207271
0.0210066
0.0210464
0.0210511
0.0210521
0.0210528
0.0210524
0.0210469
0.0210248
0.0209684
0.0208805
0.0208433
0.0208313
0.0208275
0.0208259
0.0208253
0.0208253
0.0208259
0.0208274
0.0208312
0.0208432
0.0208804
0.0209683
0.0210248
0.0210469
0.0210525
0.0210527
0.0210479
0.0210077
0.0207275
0.0192337
0.0119015
0.0119012
0.0192342
0.0207271
0.0210066
0.0210464
0.0210511
0.0210521
0.0210528
0.0210524
0.021047
0.0210249
0.0209684
0.0208805
0.0208433
0.0208313
0.0208275
0.0208259
0.0208253
0.0208253
0.0208259
0.0208275
0.0208313
0.0208433
0.0208804
0.0209683
0.0210248
0.021047
0.0210525
0.0210527
0.0210479
0.0210077
0.0207276
0.0192337
0.0119015
0.0119012
0.0192342
0.0207271
0.0210066
0.0210464
0.0210511
0.0210521
0.0210528
0.0210524
0.0210469
0.0210246
0.0209683
0.0208804
0.0208432
0.0208311
0.0208272
0.0208257
0.0208251
0.0208251
0.0208257
0.0208272
0.0208311
0.0208431
0.0208803
0.0209682
0.0210246
0.0210469
0.0210525
0.0210527
0.0210479
0.0210077
0.0207276
0.0192337
0.0119015
0.0119013
0.0192343
0.0207271
0.0210066
0.0210464
0.021051
0.021052
0.0210527
0.0210521
0.0210456
0.0210217
0.0209667
0.0208796
0.0208425
0.0208304
0.0208265
0.0208249
0.0208243
0.0208242
0.0208249
0.0208265
0.0208304
0.0208424
0.0208795
0.0209667
0.0210217
0.0210456
0.0210522
0.0210526
0.0210479
0.0210077
0.0207276
0.0192337
0.0119015
0.0119013
0.0192343
0.0207271
0.0210065
0.0210463
0.021051
0.0210519
0.0210522
0.0210491
0.0210335
0.0209953
0.0209529
0.0208739
0.020839
0.0208273
0.0208231
0.0208213
0.0208206
0.0208206
0.0208213
0.0208231
0.0208273
0.0208389
0.0208738
0.0209529
0.0209953
0.0210335
0.0210492
0.0210521
0.0210478
0.0210076
0.0207276
0.0192338
0.0119015
0.0119013
0.0192344
0.0207271
0.0210065
0.0210463
0.0210508
0.0210514
0.0210483
0.0210265
0.0209445
0.0207999
0.0208535
0.0208347
0.0208162
0.0208077
0.0208029
0.0208005
0.0207996
0.0207996
0.0208005
0.0208029
0.0208078
0.0208162
0.0208347
0.0208535
0.0208
0.0209446
0.0210267
0.0210482
0.0210473
0.0210075
0.0207276
0.019234
0.0119016
0.0119014
0.0192345
0.0207271
0.0210064
0.0210462
0.0210505
0.0210485
0.0210268
0.0209035
0.0204529
0.0196595
0.0203161
0.020629
0.0206973
0.0207057
0.0206996
0.0206958
0.0206944
0.0206944
0.0206958
0.0206997
0.0207058
0.0206974
0.0206292
0.0203164
0.0196597
0.020453
0.0209037
0.0210267
0.0210444
0.0210072
0.0207276
0.0192342
0.0119017
0.0119014
0.0192347
0.0207271
0.0210064
0.021046
0.0210493
0.0210382
0.0209504
0.0204598
0.0184827
0.0132053
0.0182253
0.0199126
0.0202852
0.0203479
0.0203427
0.0203377
0.020336
0.020336
0.0203377
0.0203428
0.020348
0.0202854
0.0199129
0.018226
0.0132053
0.0184829
0.02046
0.0209504
0.0210342
0.0210061
0.0207275
0.0192344
0.0119017
0.0119014
0.0192348
0.0207271
0.0210063
0.0210457
0.0210474
0.0210224
0.0208301
0.0196972
0.013226
0.0130223
0.0187352
0.0196288
0.0197613
0.0197741
0.0197741
0.0197738
0.0197738
0.0197741
0.019774
0.019761
0.0196282
0.0187341
0.0130212
0.0132257
0.0196973
0.0208301
0.0210183
0.0210043
0.0207274
0.0192347
0.0119017
0.0119014
0.0192349
0.0207271
0.0210062
0.0210457
0.021049
0.0210379
0.0209504
0.020462
0.0184946
0.0132056
0.018257
0.0199421
0.0203097
0.0203639
0.0203715
0.020372
0.020372
0.0203719
0.020372
0.0203712
0.0203629
0.0203068
0.0199358
0.0182526
0.0132048
0.0184944
0.0204621
0.0209503
0.0210338
0.0210058
0.0207275
0.0192349
0.0119017
0.0119014
0.019235
0.0207271
0.0210062
0.0210457
0.0210498
0.0210477
0.021026
0.0209042
0.0204595
0.019678
0.0203646
0.0207131
0.0207772
0.0207806
0.0207791
0.0207782
0.0207779
0.0207779
0.020778
0.0207784
0.0207775
0.0207661
0.0206863
0.0203469
0.0196714
0.0204578
0.020904
0.021026
0.0210437
0.0210067
0.0207276
0.019235
0.0119017
0.0119014
0.019235
0.0207269
0.0210059
0.0210454
0.0210497
0.0210499
0.0210467
0.0210259
0.0209488
0.0208201
0.0209091
0.0209304
0.0208851
0.0208643
0.0208583
0.0208568
0.0208565
0.0208564
0.0208565
0.0208568
0.020858
0.0208614
0.0208695
0.0208697
0.020805
0.0209447
0.0210251
0.0210466
0.0210459
0.0210066
0.0207274
0.019235
0.0119016
0.0119012
0.019233
0.0207234
0.0210019
0.0210413
0.0210455
0.0210461
0.0210461
0.0210438
0.0210332
0.0210127
0.0210101
0.0209771
0.020916
0.0208921
0.020886
0.0208847
0.0208844
0.0208844
0.0208843
0.0208845
0.0208857
0.0208915
0.0209138
0.0209692
0.0209969
0.0210289
0.021043
0.021046
0.0210421
0.0210026
0.0207239
0.019233
0.0119015
0.0118989
0.0192092
0.0206883
0.0209633
0.021002
0.0210062
0.0210067
0.021007
0.0210071
0.021006
0.0210022
0.0209953
0.0209746
0.0209423
0.020929
0.0209255
0.0209249
0.0209247
0.0209247
0.0209247
0.0209248
0.0209254
0.0209288
0.020942
0.0209737
0.0209937
0.0210037
0.0210068
0.0210069
0.0210028
0.0209639
0.0206887
0.0192093
0.0118991
0.0118744
0.0190185
0.0204315
0.0206884
0.0207237
0.0207273
0.0207277
0.0207279
0.0207281
0.0207281
0.0207273
0.0207244
0.0207168
0.0207054
0.0207002
0.0206987
0.0206983
0.0206982
0.0206982
0.0206982
0.0206983
0.0206987
0.0207002
0.0207054
0.0207167
0.0207242
0.0207273
0.0207281
0.0207279
0.0207242
0.0206889
0.0204318
0.0190185
0.0118746
0.0117037
0.0178788
0.0190187
0.0192095
0.0192334
0.0192355
0.0192356
0.0192357
0.0192356
0.0192355
0.019235
0.0192337
0.0192311
0.0192274
0.0192254
0.0192244
0.019224
0.0192238
0.0192238
0.0192239
0.0192241
0.0192246
0.0192256
0.0192277
0.0192313
0.0192339
0.0192351
0.0192356
0.0192356
0.0192336
0.0192097
0.0190188
0.0178787
0.0117038
0.0110175
0.0117037
0.0118745
0.011899
0.0119015
0.0119017
0.0119019
0.0119021
0.0119023
0.0119025
0.0119027
0.0119027
0.0119026
0.0119022
0.011902
0.0119018
0.0119016
0.0119015
0.0119015
0.0119015
0.0119016
0.0119018
0.011902
0.0119022
0.0119025
0.0119026
0.0119025
0.0119024
0.0119022
0.0119018
0.0118993
0.0118747
0.0117039
0.0110177
0.0115006
0.0124611
0.0127281
0.0127713
0.0127761
0.0127765
0.0127765
0.0127765
0.0127766
0.0127766
0.0127766
0.0127766
0.0127766
0.0127766
0.0127766
0.0127766
0.0127766
0.0127766
0.0127766
0.0127766
0.0127766
0.0127766
0.0127766
0.0127766
0.0127766
0.0127766
0.0127766
0.0127766
0.0127765
0.0127762
0.0127713
0.0127281
0.0124612
0.0115006
0.0124612
0.0202161
0.0217483
0.0220336
0.022074
0.0220782
0.0220784
0.0220783
0.0220782
0.0220781
0.022078
0.0220778
0.0220776
0.0220775
0.0220773
0.0220772
0.0220771
0.0220771
0.0220771
0.0220771
0.0220772
0.0220773
0.0220775
0.0220776
0.0220778
0.0220779
0.0220781
0.0220782
0.022078
0.0220738
0.0220334
0.0217482
0.0202159
0.0124612
0.0127281
0.0217486
0.0236543
0.0240397
0.0240997
0.0241067
0.0241073
0.0241073
0.0241073
0.0241073
0.0241073
0.0241073
0.0241072
0.0241072
0.0241072
0.0241072
0.0241072
0.0241072
0.0241072
0.0241072
0.0241072
0.0241072
0.0241072
0.0241072
0.0241073
0.0241073
0.0241073
0.0241073
0.0241067
0.0240997
0.0240397
0.0236543
0.0217485
0.0127282
0.0127714
0.0220339
0.0240398
0.0244554
0.0245219
0.0245299
0.0245307
0.0245307
0.0245308
0.0245309
0.0245309
0.024531
0.0245311
0.0245311
0.0245312
0.0245312
0.0245313
0.0245313
0.0245313
0.0245313
0.0245312
0.0245312
0.0245311
0.0245311
0.024531
0.0245309
0.0245309
0.0245308
0.0245301
0.024522
0.0244555
0.0240399
0.0220339
0.0127715
0.0127763
0.0220743
0.0240998
0.0245219
0.0245898
0.0245981
0.0245988
0.024599
0.024599
0.0245989
0.0245987
0.0245989
0.0245991
0.0245992
0.0245994
0.0245994
0.0245994
0.0245994
0.0245994
0.0245994
0.0245994
0.0245994
0.0245993
0.0245991
0.024599
0.0245987
0.024599
0.024599
0.0245983
0.0245899
0.0245221
0.0240999
0.0220744
0.0127764
0.0127767
0.0220785
0.0241069
0.02453
0.0245981
0.0246064
0.0246072
0.0246073
0.0246068
0.0246047
0.0246014
0.024603
0.024604
0.0246043
0.0246046
0.0246045
0.0246044
0.0246044
0.0246044
0.0246044
0.0246045
0.0246046
0.0246044
0.024604
0.024603
0.0246015
0.0246048
0.0246068
0.0246066
0.0245983
0.0245301
0.024107
0.0220786
0.0127769
0.0127767
0.0220787
0.0241074
0.0245307
0.0245988
0.0246072
0.0246079
0.0246071
0.0246016
0.0245832
0.0245555
0.0245698
0.0245791
0.0245818
0.0245829
0.0245821
0.0245815
0.0245813
0.0245813
0.0245815
0.0245821
0.0245829
0.0245818
0.0245791
0.0245698
0.0245555
0.0245833
0.0246016
0.0246064
0.024599
0.0245309
0.0241076
0.0220787
0.0127769
0.0127767
0.0220786
0.0241074
0.0245307
0.0245989
0.0246072
0.024607
0.0245995
0.0245614
0.0244384
0.0242539
0.0243664
0.0244371
0.0244568
0.0244621
0.0244597
0.0244576
0.0244569
0.0244569
0.0244576
0.0244597
0.0244621
0.0244569
0.0244372
0.0243665
0.0242539
0.0244385
0.0245614
0.0245989
0.0245981
0.0245309
0.0241075
0.0220786
0.012777
0.0127768
0.0220785
0.0241074
0.0245308
0.0245989
0.0246067
0.0246016
0.0245617
0.0243664
0.0237277
0.0226947
0.0234395
0.0238454
0.0239512
0.0239711
0.0239696
0.0239666
0.0239655
0.0239655
0.0239667
0.0239696
0.0239711
0.0239512
0.0238455
0.0234396
0.0226947
0.0237277
0.0243665
0.0245611
0.0245927
0.0245304
0.0241075
0.0220784
0.012777
0.0127768
0.0220783
0.0241073
0.0245308
0.0245988
0.0246047
0.024584
0.0244422
0.0237371
0.0211398
0.0145026
0.0203125
0.0221281
0.02253
0.0225809
0.0226024
0.0226052
0.0226052
0.0226052
0.0226052
0.0226024
0.0225809
0.02253
0.0221282
0.0203128
0.0145024
0.0211398
0.0237371
0.0244415
0.024575
0.0245283
0.0241072
0.022078
0.0127771
0.0127768
0.0220781
0.0241072
0.0245308
0.0245986
0.0246019
0.0245598
0.0242747
0.0227612
0.0146084
0.0136702
0.0195565
0.0204745
0.0206164
0.0206266
0.0206255
0.0206249
0.0206249
0.0206255
0.0206266
0.0206164
0.0204746
0.0195568
0.0136705
0.0146086
0.0227612
0.024274
0.0245509
0.0245255
0.0241068
0.0220776
0.0127771
0.0127767
0.0220778
0.0241072
0.0245308
0.024599
0.0246049
0.0245841
0.0244417
0.0237331
0.0211224
0.0144974
0.0202507
0.0220843
0.0225039
0.0226215
0.0225686
0.0225497
0.0225454
0.0225454
0.0225496
0.0225685
0.0226214
0.0225038
0.0220842
0.0202506
0.0144971
0.0211219
0.023733
0.024441
0.0245752
0.0245284
0.0241069
0.0220772
0.012777
0.0127767
0.0220776
0.0241071
0.0245309
0.0245992
0.0246071
0.0246021
0.0245615
0.0243621
0.0237071
0.0226274
0.0232553
0.0235083
0.0235634
0.0235822
0.0235626
0.0235533
0.0235507
0.0235507
0.0235533
0.0235625
0.0235821
0.0235632
0.0235082
0.0232552
0.0226271
0.0237069
0.024362
0.0245608
0.0245931
0.0245306
0.024107
0.0220768
0.0127769
0.0127766
0.0220774
0.0241071
0.0245309
0.0245994
0.0246078
0.0246077
0.0245995
0.0245566
0.0244126
0.0241569
0.0240968
0.023923
0.0238551
0.02384
0.0238317
0.0238281
0.023827
0.023827
0.0238281
0.0238316
0.0238399
0.0238551
0.0239229
0.0240967
0.0241569
0.0244126
0.0245566
0.0245989
0.0245987
0.0245312
0.0241069
0.0220764
0.0127769
0.0127766
0.0220773
0.024107
0.0245309
0.0245994
0.024608
0.0246089
0.0246073
0.0245967
0.024555
0.0244469
0.0242678
0.0240049
0.0239093
0.0238867
0.023881
0.0238792
0.0238786
0.0238786
0.0238792
0.023881
0.0238867
0.0239093
0.0240048
0.0242679
0.0244469
0.024555
0.0245968
0.0246066
0.0245999
0.0245313
0.0241068
0.0220762
0.0127768
0.0127766
0.0220771
0.024107
0.024531
0.0245995
0.0246081
0.024609
0.0246084
0.0246028
0.0245767
0.0244907
0.0242938
0.0240168
0.0239167
0.0238929
0.0238877
0.0238864
0.0238859
0.0238859
0.0238863
0.0238877
0.0238929
0.0239167
0.0240168
0.0242938
0.0244907
0.0245767
0.0246028
0.0246078
0.0246001
0.0245314
0.0241068
0.022076
0.0127767
0.0127765
0.022077
0.024107
0.024531
0.0245995
0.0246081
0.0246091
0.0246086
0.0246035
0.0245793
0.0244959
0.0242968
0.0240183
0.0239176
0.0238937
0.0238886
0.0238873
0.0238869
0.0238869
0.0238873
0.0238886
0.0238937
0.0239176
0.0240182
0.0242968
0.0244959
0.0245793
0.0246035
0.0246079
0.0246001
0.0245314
0.0241068
0.0220759
0.0127767
0.0127765
0.022077
0.0241069
0.024531
0.0245995
0.0246081
0.0246091
0.0246086
0.0246036
0.0245795
0.0244964
0.0242971
0.0240185
0.0239178
0.0238939
0.0238888
0.0238875
0.0238871
0.0238871