/*--------------------------------*- C++ -*----------------------------------*\
| =========                 |                                                 |
| \\      /  F ield         | OpenFOAM: The Open Source CFD Toolbox           |
|  \\    /   O peration     | Version:  2112                                  |
|   \\  /    A nd           | Website:  www.openfoam.com                      |
|    \\/     M anipulation  |                                                 |
\*---------------------------------------------------------------------------*/
FoamFile
{
    version     2.0;
    format      ascii;
    arch        "LSB;label=32;scalar=64";
    class       volScalarField;
    location    "0.6";
    object      nut;
}
// * * * * * * * * * * * * * * * * * * * * * * * * * * * * * * * * * * * * * //

dimensions      [0 2 -1 0 0 0 0];

internalField   nonuniform List<scalar> 
64906
(
0.000187588
0.000189307
0.000189741
0.000189801
0.000189807
0.000189807
0.000189808
0.000189809
0.000189809
0.00018981
0.000189811
0.000189811
0.000189812
0.000189812
0.000189813
0.000189813
0.000189813
0.000189813
0.000189813
0.000189813
0.000189813
0.000189812
0.000189812
0.000189812
0.000189811
0.000189811
0.00018981
0.000189809
0.000189809
0.000189808
0.000189802
0.000189742
0.000189308
0.000187589
0.000189307
0.000207901
0.000212531
0.000213297
0.000213389
0.000213397
0.000213399
0.0002134
0.000213401
0.000213403
0.000213404
0.000213405
0.000213407
0.000213408
0.000213409
0.000213409
0.00021341
0.00021341
0.00021341
0.00021341
0.000213409
0.000213409
0.000213408
0.000213407
0.000213406
0.000213404
0.000213403
0.000213402
0.0002134
0.000213392
0.0002133
0.000212534
0.000207903
0.000189309
0.000189742
0.000212533
0.000218698
0.000219813
0.00021996
0.000219975
0.000219978
0.00021998
0.000219982
0.000219985
0.000219988
0.000219991
0.000219994
0.000219996
0.000219998
0.00022
0.000220001
0.000220002
0.000220002
0.000220002
0.00022
0.000219999
0.000219997
0.000219994
0.000219991
0.000219988
0.000219986
0.000219983
0.00021998
0.000219965
0.000219817
0.000218702
0.000212536
0.000189744
0.000189802
0.000213299
0.000219814
0.000221021
0.000221184
0.000221201
0.000221204
0.000221207
0.000221211
0.000221214
0.000221219
0.000221224
0.000221228
0.000221233
0.000221236
0.000221239
0.000221241
0.000221242
0.000221242
0.000221241
0.000221239
0.000221237
0.000221233
0.000221229
0.000221225
0.00022122
0.000221216
0.000221212
0.000221208
0.00022119
0.000221026
0.000219819
0.000213304
0.000189805
0.000189808
0.000213391
0.000219961
0.000221184
0.000221351
0.000221369
0.000221373
0.000221376
0.000221381
0.000221386
0.000221392
0.0002214
0.000221407
0.000221413
0.000221418
0.000221422
0.000221425
0.000221426
0.000221426
0.000221425
0.000221422
0.000221419
0.000221414
0.000221408
0.000221401
0.000221393
0.000221387
0.000221382
0.000221377
0.000221358
0.000221191
0.000219967
0.000213397
0.000189812
0.00018981
0.0002134
0.000219977
0.000221202
0.000221369
0.000221388
0.000221392
0.000221397
0.000221403
0.000221406
0.000221408
0.000221425
0.000221438
0.000221447
0.000221455
0.00022146
0.000221464
0.000221466
0.000221466
0.000221464
0.00022146
0.000221455
0.000221448
0.000221439
0.000221426
0.000221409
0.000221408
0.000221404
0.000221398
0.000221378
0.00022121
0.000219984
0.000213406
0.000189813
0.00018981
0.000213401
0.000219979
0.000221205
0.000221373
0.000221392
0.000221398
0.000221403
0.0002214
0.000221369
0.00022131
0.000221385
0.000221432
0.000221452
0.000221464
0.000221471
0.000221475
0.000221478
0.000221478
0.000221476
0.000221471
0.000221465
0.000221453
0.000221433
0.000221387
0.000221311
0.00022137
0.000221402
0.000221404
0.000221384
0.000221214
0.000219987
0.000213408
0.000189815
0.000189811
0.000213402
0.000219981
0.000221207
0.000221376
0.000221396
0.000221402
0.000221396
0.000221318
0.000220998
0.000220443
0.000220963
0.000221254
0.000221337
0.000221364
0.000221372
0.000221376
0.000221379
0.000221379
0.000221377
0.000221372
0.000221365
0.000221339
0.000221255
0.000220965
0.000220444
0.000221
0.00022132
0.000221397
0.000221388
0.000221219
0.00021999
0.00021341
0.000189816
0.000189812
0.000213403
0.000219983
0.00022121
0.000221379
0.0002214
0.000221398
0.000221316
0.000220799
0.000218813
0.000215225
0.000218559
0.000220275
0.000220705
0.000220789
0.000220802
0.000220808
0.000220811
0.000220811
0.000220808
0.000220803
0.00022079
0.000220706
0.000220277
0.00021856
0.000215226
0.000218815
0.000220802
0.000221318
0.000221384
0.000221223
0.000219994
0.000213412
0.000189818
0.000189813
0.000213404
0.000219984
0.000221213
0.000221383
0.000221401
0.000221363
0.000220995
0.000218817
0.000210155
0.00019341
0.000209479
0.000217046
0.000218772
0.000219048
0.000219088
0.000219098
0.000219102
0.000219102
0.000219098
0.000219089
0.000219048
0.000218773
0.000217048
0.000209482
0.00019341
0.000210157
0.000218819
0.000220997
0.000221349
0.000221224
0.000219997
0.000213414
0.000189819
0.000189813
0.000213404
0.000219986
0.000221216
0.000221386
0.0002214
0.000221302
0.000220449
0.00021527
0.000193451
0.000193018
0.000212008
0.000216089
0.000216694
0.000216759
0.000216765
0.000216767
0.000216767
0.000216766
0.00021676
0.000216695
0.00021609
0.00021201
0.00019302
0.000193453
0.000215272
0.000220451
0.000221288
0.000221223
0.00022
0.000213415
0.00018982
0.000189813
0.000213405
0.000219988
0.000221219
0.000221391
0.000221414
0.00022138
0.000221015
0.000218829
0.000210119
0.000193399
0.000209225
0.000216802
0.000218518
0.000218788
0.000218786
0.000218772
0.000218767
0.000218767
0.000218772
0.000218786
0.000218788
0.000218518
0.000216802
0.000209224
0.000193397
0.000210117
0.00021883
0.000221017
0.000221366
0.000221236
0.000220004
0.000213415
0.00018982
0.000189813
0.000213405
0.000219989
0.000221221
0.000221396
0.000221423
0.000221429
0.000221357
0.00022084
0.000218827
0.000215154
0.00021828
0.000219781
0.0002201
0.000220134
0.000220112
0.000220097
0.000220091
0.000220091
0.000220096
0.000220112
0.000220134
0.000220099
0.000219779
0.000218278
0.00021515
0.000218825
0.00022084
0.000221357
0.000221415
0.000221245
0.000220007
0.000213416
0.00018982
0.000189813
0.000213405
0.000219991
0.000221223
0.000221399
0.000221428
0.000221446
0.000221453
0.000221384
0.000221051
0.000220402
0.000220678
0.000220633
0.000220562
0.000220522
0.000220496
0.000220482
0.000220476
0.000220475
0.000220481
0.000220496
0.000220521
0.000220561
0.000220631
0.000220674
0.0002204
0.00022105
0.000221385
0.000221454
0.000221431
0.00022125
0.00022001
0.000213416
0.00018982
0.000189812
0.000213405
0.000219992
0.000221225
0.000221401
0.000221432
0.000221452
0.000221474
0.000221485
0.000221446
0.000221295
0.000221121
0.000220795
0.000220651
0.000220595
0.000220567
0.000220551
0.000220543
0.000220542
0.00022055
0.000220566
0.000220594
0.00022065
0.000220793
0.000221118
0.000221293
0.000221445
0.000221485
0.000221474
0.000221437
0.000221253
0.000220012
0.000213416
0.000189819
0.000189812
0.000213405
0.000219992
0.000221227
0.000221403
0.000221435
0.000221455
0.00022148
0.000221502
0.000221503
0.000221417
0.00022119
0.000220821
0.000220667
0.000220607
0.000220577
0.000220558
0.000220547
0.000220547
0.000220557
0.000220575
0.000220605
0.000220665
0.000220819
0.000221186
0.000221415
0.000221502
0.000221502
0.00022148
0.00022144
0.000221255
0.000220013
0.000213416
0.000189818
0.000189811
0.000213405
0.000219993
0.000221228
0.000221405
0.000221437
0.000221458
0.000221483
0.000221507
0.000221513
0.000221435
0.000221203
0.000220827
0.000220671
0.00022061
0.000220578
0.000220556
0.000220543
0.000220542
0.000220555
0.000220576
0.000220608
0.000220669
0.000220825
0.0002212
0.000221433
0.000221512
0.000221507
0.000221483
0.000221443
0.000221257
0.000220014
0.000213416
0.000189818
0.000189811
0.000213405
0.000219993
0.000221228
0.000221406
0.000221438
0.000221459
0.000221485
0.000221509
0.000221516
0.000221439
0.000221207
0.000220829
0.000220672
0.000220611
0.000220578
0.000220555
0.000220539
0.000220538
0.000220553
0.000220576
0.000220609
0.000220671
0.000220827
0.000221204
0.000221437
0.000221515
0.00022151
0.000221485
0.000221444
0.000221258
0.000220015
0.000213416
0.000189817
0.00018981
0.000213405
0.000219993
0.000221229
0.000221406
0.000221438
0.00022146
0.000221486
0.00022151
0.000221517
0.000221441
0.000221209
0.000220829
0.000220673
0.000220611
0.000220577
0.000220554
0.000220537
0.000220536
0.000220552
0.000220576
0.000220609
0.000220671
0.000220827
0.000221205
0.000221439
0.000221516
0.000221511
0.000221486
0.000221445
0.000221259
0.000220015
0.000213416
0.000189816
0.00018981
0.000213405
0.000219993
0.000221228
0.000221406
0.000221438
0.000221459
0.000221485
0.00022151
0.000221516
0.000221439
0.000221207
0.000220828
0.000220672
0.00022061
0.000220577
0.000220553
0.000220537
0.000220536
0.000220552
0.000220575
0.000220608
0.00022067
0.000220826
0.000221204
0.000221437
0.000221515
0.00022151
0.000221486
0.000221445
0.000221259
0.000220015
0.000213416
0.000189816
0.000189811
0.000213405
0.000219993
0.000221228
0.000221405
0.000221437
0.000221458
0.000221483
0.000221507
0.000221509
0.000221424
0.000221196
0.000220824
0.000220668
0.000220607
0.000220575
0.000220553
0.000220539
0.000220538
0.000220551
0.000220573
0.000220605
0.000220667
0.000220822
0.000221194
0.000221423
0.000221508
0.000221507
0.000221484
0.000221444
0.000221258
0.000220014
0.000213416
0.000189817
0.000189811
0.000213405
0.000219993
0.000221227
0.000221404
0.000221435
0.000221455
0.000221479
0.000221491
0.000221455
0.000221305
0.000221132
0.0002208
0.000220654
0.000220595
0.000220564
0.000220545
0.000220534
0.000220533
0.000220543
0.000220563
0.000220594
0.000220652
0.000220798
0.00022113
0.000221304
0.000221455
0.000221493
0.00022148
0.000221441
0.000221256
0.000220014
0.000213417
0.000189818
0.000189812
0.000213405
0.000219992
0.000221226
0.000221402
0.000221432
0.00022145
0.00022146
0.000221393
0.000221063
0.000220419
0.000220694
0.00022064
0.000220566
0.000220523
0.000220493
0.000220476
0.000220467
0.000220466
0.000220474
0.000220492
0.000220521
0.000220564
0.000220638
0.000220693
0.000220419
0.000221064
0.000221395
0.000221461
0.000221437
0.000221254
0.000220012
0.000213417
0.000189818
0.000189812
0.000213405
0.000219991
0.000221224
0.000221399
0.000221428
0.000221435
0.000221364
0.000220851
0.000218845
0.000215183
0.000218304
0.00021979
0.000220105
0.000220135
0.000220109
0.000220091
0.000220083
0.000220083
0.00022009
0.000220108
0.000220133
0.000220104
0.000219789
0.000218304
0.000215184
0.000218847
0.000220854
0.000221367
0.000221422
0.00022125
0.000220011
0.000213417
0.000189819
0.000189812
0.000213405
0.00021999
0.000221222
0.000221396
0.000221419
0.000221387
0.000221025
0.000218842
0.000210142
0.000193418
0.000209239
0.000216805
0.000218518
0.000218785
0.000218779
0.000218763
0.000218757
0.000218756
0.000218762
0.000218778
0.000218783
0.000218516
0.000216804
0.000209243
0.000193418
0.000210145
0.000218846
0.000221028
0.000221374
0.000221242
0.000220008
0.000213417
0.000189819
0.000189812
0.000213405
0.000219989
0.000221219
0.000221391
0.000221406
0.00022131
0.000220458
0.000215278
0.000193452
0.000192999
0.000211976
0.000216061
0.000216664
0.000216724
0.000216726
0.000216725
0.000216725
0.000216725
0.000216721
0.000216659
0.000216056
0.000211969
0.000192993
0.000193452
0.000215281
0.000220461
0.000221297
0.00022123
0.000220005
0.000213417
0.000189819
0.000189812
0.000213405
0.000219987
0.000221217
0.000221389
0.000221409
0.000221373
0.000221007
0.000218832
0.000210175
0.000193434
0.000209452
0.000217005
0.000218693
0.000218946
0.000218974
0.000218977
0.000218978
0.000218977
0.000218975
0.000218969
0.000218936
0.000218673
0.000216965
0.00020943
0.00019343
0.000210177
0.000218835
0.000221011
0.000221361
0.000221233
0.000220003
0.000213416
0.000189818
0.000189811
0.000213404
0.000219986
0.000221215
0.000221386
0.000221409
0.000221409
0.000221331
0.000220819
0.000218836
0.000215246
0.000218535
0.000220173
0.000220466
0.000220486
0.000220478
0.000220475
0.000220475
0.000220474
0.000220472
0.000220471
0.000220465
0.000220409
0.000220043
0.00021846
0.00021522
0.000218833
0.000220822
0.000221336
0.000221398
0.000221233
0.000220001
0.000213415
0.000189817
0.000189811
0.000213403
0.000219984
0.000221212
0.000221383
0.000221406
0.000221414
0.000221412
0.000221338
0.00022102
0.000220451
0.000220901
0.000221017
0.000220808
0.000220726
0.000220702
0.000220695
0.000220693
0.000220692
0.000220692
0.000220694
0.000220699
0.000220712
0.000220738
0.000220732
0.000220388
0.000221006
0.000221339
0.000221416
0.000221403
0.00022123
0.000219998
0.000213413
0.000189817
0.00018981
0.000213395
0.000219969
0.000221195
0.000221364
0.000221387
0.000221396
0.000221405
0.000221406
0.000221376
0.000221302
0.00022131
0.00022118
0.000220916
0.000220825
0.000220801
0.000220796
0.000220795
0.000220795
0.000220794
0.000220795
0.000220799
0.00022082
0.000220905
0.000221137
0.000221238
0.000221362
0.000221408
0.000221409
0.000221385
0.000221212
0.000219982
0.000213405
0.000189815
0.000189804
0.000213304
0.000219822
0.000221031
0.000221198
0.000221219
0.000221227
0.000221236
0.000221246
0.000221253
0.00022125
0.000221234
0.000221159
0.000221022
0.000220967
0.000220953
0.000220952
0.000220953
0.000220953
0.000220952
0.00022095
0.00022095
0.000220962
0.000221015
0.000221148
0.000221219
0.000221249
0.00022125
0.000221241
0.000221216
0.000221047
0.000219834
0.000213312
0.000189809
0.000189744
0.000212537
0.000218706
0.000219824
0.000219974
0.000219993
0.00022
0.000220007
0.000220016
0.000220026
0.000220032
0.00022003
0.000220008
0.000219963
0.000219945
0.000219941
0.000219942
0.000219944
0.000219944
0.000219943
0.000219941
0.000219939
0.000219942
0.000219959
0.000220003
0.000220024
0.000220027
0.000220021
0.000220012
0.000219991
0.000219838
0.000218718
0.000212545
0.000189748
0.000189309
0.000207906
0.000212539
0.000213308
0.000213402
0.000213413
0.000213419
0.000213424
0.000213431
0.000213438
0.000213443
0.000213446
0.000213442
0.000213431
0.000213426
0.000213424
0.000213424
0.000213424
0.000213424
0.000213424
0.000213423
0.000213423
0.000213424
0.000213429
0.00021344
0.000213443
0.000213441
0.000213435
0.000213428
0.000213415
0.000213319
0.000212548
0.000207913
0.000189313
0.00018759
0.00018931
0.000189746
0.000189807
0.000189814
0.000189817
0.00018982
0.000189824
0.000189828
0.000189832
0.000189837
0.00018984
0.000189842
0.000189842
0.000189841
0.000189839
0.000189837
0.000189836
0.000189835
0.000189836
0.000189837
0.000189839
0.00018984
0.00018984
0.00018984
0.000189838
0.000189835
0.00018983
0.000189826
0.000189822
0.000189813
0.000189751
0.000189314
0.000187593
0.000285341
0.000297679
0.000301216
0.000301825
0.000301898
0.000301905
0.000301905
0.000301906
0.000301906
0.000301907
0.000301907
0.000301907
0.000301908
0.000301908
0.000301908
0.000301908
0.000301907
0.000301907
0.000301907
0.000301907
0.000301907
0.000301907
0.000301907
0.000301907
0.000301907
0.000301907
0.000301907
0.000301906
0.000301906
0.000301899
0.000301826
0.000301217
0.00029768
0.000285342
0.00029768
0.000765669
0.000855154
0.000870104
0.000872085
0.000872283
0.000872293
0.000872288
0.000872282
0.000872274
0.000872265
0.000872254
0.000872244
0.000872234
0.000872225
0.000872218
0.000872214
0.000872211
0.000872211
0.000872213
0.000872218
0.000872225
0.000872233
0.000872243
0.000872253
0.000872264
0.000872272
0.000872279
0.000872271
0.000872074
0.000870093
0.000855144
0.000765661
0.00029768
0.000301217
0.000855168
0.000974959
0.000997005
0.00100021
0.00100057
0.0010006
0.0010006
0.00100061
0.00100061
0.00100061
0.00100061
0.00100061
0.00100061
0.00100061
0.00100061
0.00100061
0.00100061
0.00100061
0.00100061
0.00100061
0.00100061
0.00100061
0.00100061
0.00100061
0.00100061
0.00100061
0.00100061
0.00100058
0.00100021
0.000997008
0.00097496
0.000855169
0.000301219
0.000301827
0.000870122
0.000997011
0.00102102
0.00102459
0.00102501
0.00102505
0.00102506
0.00102506
0.00102507
0.00102508
0.00102509
0.00102509
0.0010251
0.00102511
0.00102511
0.00102512
0.00102512
0.00102512
0.00102512
0.00102512
0.00102511
0.0010251
0.0010251
0.00102509
0.00102508
0.00102507
0.00102506
0.00102502
0.00102461
0.00102103
0.000997019
0.000870126
0.00030183
0.000301901
0.000872104
0.00100022
0.0010246
0.00102825
0.00102868
0.00102872
0.00102873
0.00102874
0.00102874
0.00102874
0.00102876
0.00102878
0.0010288
0.00102881
0.00102881
0.00102882
0.00102882
0.00102882
0.00102882
0.00102882
0.00102881
0.0010288
0.00102878
0.00102876
0.00102874
0.00102874
0.00102874
0.0010287
0.00102827
0.00102461
0.00100023
0.000872109
0.000301904
0.000301908
0.000872301
0.00100058
0.00102501
0.00102868
0.00102911
0.00102915
0.00102916
0.00102914
0.00102905
0.0010289
0.00102904
0.00102913
0.00102917
0.00102919
0.0010292
0.0010292
0.0010292
0.0010292
0.0010292
0.0010292
0.00102919
0.00102917
0.00102913
0.00102904
0.00102891
0.00102906
0.00102915
0.00102913
0.0010287
0.00102503
0.00100059
0.000872305
0.000301911
0.000301909
0.000872309
0.00100061
0.00102505
0.00102872
0.00102915
0.00102919
0.00102915
0.00102889
0.00102795
0.00102649
0.00102766
0.0010284
0.00102861
0.00102868
0.00102867
0.00102867
0.00102867
0.00102867
0.00102867
0.00102867
0.00102868
0.00102861
0.0010284
0.00102767
0.00102649
0.00102796
0.0010289
0.00102912
0.00102874
0.00102507
0.00100062
0.000872311
0.000301913
0.000301909
0.000872302
0.00100061
0.00102505
0.00102872
0.00102915
0.00102915
0.00102879
0.0010268
0.00101995
0.0010087
0.00101823
0.00102367
0.00102515
0.00102547
0.00102544
0.0010254
0.00102539
0.00102539
0.00102541
0.00102544
0.00102548
0.00102515
0.00102367
0.00101824
0.0010087
0.00101995
0.0010268
0.00102876
0.0010287
0.00102507
0.00100062
0.000872301
0.000301914
0.00030191
0.000872292
0.00100061
0.00102506
0.00102873
0.00102913
0.00102888
0.0010268
0.00101585
0.00097656
0.00090084
0.000970084
0.00100259
0.00101074
0.00101228
0.00101229
0.00101223
0.00101221
0.00101221
0.00101223
0.00101229
0.00101228
0.00101074
0.00100259
0.000970092
0.000900843
0.000976566
0.00101585
0.00102677
0.00102843
0.00102505
0.00100062
0.000872286
0.000301915
0.00030191
0.000872281
0.0010006
0.00102506
0.00102872
0.00102904
0.00102795
0.00102002
0.000976746
0.000798805
0.000324079
0.000784397
0.000938395
0.000971067
0.000976296
0.000976917
0.000976964
0.000976961
0.000976961
0.000976964
0.000976918
0.000976297
0.000971071
0.000938406
0.000784422
0.000324077
0.000798809
0.000976751
0.00101999
0.0010275
0.00102495
0.00100061
0.000872267
0.000301916
0.00030191
0.000872268
0.0010006
0.00102506
0.00102872
0.00102889
0.00102656
0.00100914
0.000902059
0.000324593
0.000320771
0.000835806
0.000918397
0.000929847
0.000931096
0.000931167
0.000931156
0.000931156
0.000931167
0.000931097
0.000929848
0.000918402
0.000835827
0.000320775
0.000324595
0.000902063
0.00100911
0.00102611
0.0010248
0.00100059
0.000872242
0.000301916
0.00030191
0.000872253
0.0010006
0.00102507
0.00102874
0.00102906
0.00102797
0.00102
0.000976497
0.000797571
0.000324027
0.000780999
0.000934506
0.000966765
0.000971712
0.000971982
0.000971789
0.000971695
0.000971694
0.000971786
0.000971977
0.000971705
0.000966757
0.000934501
0.000780991
0.000324021
0.000797541
0.000976491
0.00101997
0.00102752
0.00102496
0.00100059
0.000872213
0.000301915
0.000301909
0.00087224
0.0010006
0.00102507
0.00102876
0.00102917
0.00102893
0.00102683
0.00101572
0.000975841
0.000898882
0.000964674
0.000991455
0.000997386
0.00099808
0.000997833
0.000997618
0.000997531
0.00099753
0.000997616
0.000997829
0.000998074
0.000997378
0.000991444
0.000964656
0.000898858
0.000975828
0.00101572
0.0010268
0.00102848
0.00102508
0.0010006
0.000872188
0.000301915
0.000301908
0.000872228
0.00100059
0.00102508
0.00102877
0.00102921
0.00102922
0.00102886
0.00102676
0.00101937
0.00100634
0.00101111
0.00100833
0.00100671
0.00100604
0.00100572
0.00100556
0.00100551
0.00100551
0.00100556
0.00100572
0.00100604
0.0010067
0.00100832
0.00101111
0.00100633
0.00101937
0.00102676
0.00102883
0.00102877
0.00102511
0.0010006
0.000872167
0.000301913
0.000301908
0.000872219
0.00100059
0.00102508
0.00102877
0.00102922
0.00102928
0.00102926
0.0010289
0.00102742
0.00102398
0.00101992
0.00101177
0.00100866
0.00100772
0.00100742
0.0010073
0.00100726
0.00100726
0.0010073
0.00100741
0.00100771
0.00100865
0.00101176
0.00101992
0.00102398
0.00102742
0.0010289
0.00102923
0.00102883
0.00102513
0.0010006
0.000872152
0.000301912
0.000301907
0.000872212
0.00100059
0.00102508
0.00102878
0.00102923
0.0010293
0.00102932
0.00102921
0.00102859
0.00102642
0.00102122
0.00101233
0.001009
0.00100803
0.00100774
0.00100764
0.00100761
0.00100761
0.00100764
0.00100774
0.00100803
0.001009
0.00101232
0.00102122
0.00102642
0.00102859
0.00102922
0.00102929
0.00102885
0.00102513
0.0010006
0.000872142
0.000301911
0.000301906
0.000872207
0.00100059
0.00102508
0.00102878
0.00102923
0.0010293
0.00102933
0.00102925
0.00102873
0.0010267
0.00102138
0.00101242
0.00100908
0.0010081
0.00100783
0.00100773
0.00100771
0.00100771
0.00100773
0.00100783
0.0010081
0.00100908
0.00101242
0.00102138
0.0010267
0.00102873
0.00102926
0.0010293
0.00102885
0.00102513
0.0010006
0.000872135
0.00030191
0.000301906
0.000872204
0.00100059
0.00102508
0.00102878
0.00102924
0.00102931
0.00102933
0.00102926
0.00102874
0.00102673
0.0010214
0.00101245
0.0010091
0.00100813
0.00100786
0.00100776
0.00100774
0.00100774
0.00100776
0.00100786
0.00100813
0.0010091
0.00101244
0.0010214
0.00102673
0.00102874
0.00102927
0.00102931
0.00102886
0.00102514
0.0010006
0.000872131
0.000301909
0.000301905
0.000872204
0.00100059
0.00102509
0.00102878
0.00102924
0.00102931
0.00102934
0.00102926
0.00102875
0.00102674
0.0010214
0.00101245
0.00100911
0.00100813
0.00100786
0.00100777
0.00100774
0.00100774
0.00100777
0.00100786
0.00100813
0.0010091
0.00101245
0.0010214
0.00102674
0.00102875
0.00102927
0.00102931
0.00102886
0.00102514
0.0010006
0.00087213
0.000301909
0.000301905
0.000872205
0.00100059
0.00102509
0.00102878
0.00102924
0.00102931
0.00102933
0.00102926
0.00102873
0.00102671
0.00102139
0.00101243
0.00100909
0.00100812
0.00100784
0.00100775
0.00100772
0.00100772
0.00100775
0.00100784
0.00100811
0.00100909
0.00101243
0.00102139
0.00102671
0.00102874
0.00102927
0.00102931
0.00102886
0.00102514
0.0010006
0.000872132
0.000301909
0.000301906
0.000872209
0.00100059
0.00102508
0.00102878
0.00102923
0.00102931
0.00102933
0.00102922
0.0010286
0.00102643
0.00102123
0.00101235
0.00100903
0.00100805
0.00100777
0.00100767
0.00100764
0.00100764
0.00100767
0.00100777
0.00100805
0.00100903
0.00101235
0.00102123
0.00102643
0.0010286
0.00102923
0.0010293
0.00102885
0.00102514
0.0010006
0.000872137
0.000301909
0.000301906
0.000872215
0.00100059
0.00102508
0.00102878
0.00102923
0.00102929
0.00102927
0.00102891
0.00102744
0.00102401
0.00101995
0.00101182
0.0010087
0.00100776
0.00100746
0.00100735
0.00100731
0.00100731
0.00100735
0.00100746
0.00100776
0.00100871
0.00101182
0.00101995
0.00102401
0.00102745
0.00102892
0.00102924
0.00102884
0.00102513
0.0010006
0.000872146
0.00030191
0.000301907
0.000872223
0.0010006
0.00102508
0.00102877
0.00102922
0.00102924
0.00102887
0.00102678
0.00101942
0.00100641
0.00101118
0.00100842
0.00100679
0.00100613
0.00100581
0.00100566
0.00100561
0.00100561
0.00100567
0.00100582
0.00100613
0.0010068
0.00100842
0.00101118
0.00100642
0.00101943
0.00102679
0.00102885
0.00102879
0.00102513
0.0010006
0.000872159
0.000301911
0.000301908
0.000872233
0.0010006
0.00102508
0.00102877
0.00102919
0.00102895
0.00102685
0.00101576
0.000975942
0.000899097
0.000964824
0.000991594
0.000997531
0.000998234
0.000997998
0.000997792
0.000997711
0.000997713
0.000997798
0.000998007
0.000998245
0.000997543
0.00099161
0.000964849
0.000899115
0.000975956
0.00101577
0.00102683
0.0010285
0.00102509
0.00100061
0.000872177
0.000301912
0.000301908
0.000872245
0.0010006
0.00102508
0.00102875
0.00102907
0.00102799
0.00102003
0.00097656
0.000797742
0.000324076
0.000781182
0.000934613
0.000966909
0.000971879
0.000972163
0.000971982
0.000971896
0.000971898
0.000971988
0.000972174
0.000971891
0.000966924
0.000934638
0.000781252
0.000324075
0.000797766
0.000976573
0.00102001
0.00102755
0.00102498
0.0010006
0.000872198
0.000301913
0.000301908
0.000872258
0.0010006
0.00102507
0.00102873
0.00102891
0.00102659
0.00100917
0.000902088
0.000324585
0.000320712
0.000835458
0.00091815
0.000929604
0.000930843
0.000930908
0.000930894
0.000930893
0.000930905
0.000930837
0.000929586
0.000918113
0.000835394
0.000320689
0.000324581
0.000902095
0.00100915
0.00102614
0.00102483
0.00100059
0.000872224
0.000301914
0.000301908
0.000872269
0.00100061
0.00102507
0.00102874
0.00102906
0.00102798
0.00102005
0.000976787
0.000798855
0.000324115
0.000783807
0.000937699
0.000969965
0.000974976
0.000975561
0.000975604
0.000975599
0.000975598
0.000975599
0.000975545
0.000974912
0.000969746
0.00093719
0.000783495
0.000324092
0.000798841
0.00097679
0.00102003
0.00102754
0.00102498
0.00100061
0.000872243
0.000301914
0.000301908
0.000872279
0.00100061
0.00102507
0.00102875
0.00102916
0.00102891
0.00102683
0.00101589
0.00097658
0.000900718
0.000969248
0.00100024
0.00100585
0.00100631
0.00100619
0.00100612
0.0010061
0.0010061
0.00100611
0.00100613
0.00100607
0.00100488
0.000997718
0.000967705
0.000900191
0.000976435
0.00101586
0.00102681
0.00102847
0.00102508
0.00100062
0.000872259
0.000301913
0.000301908
0.000872273
0.00100058
0.00102503
0.00102871
0.00102914
0.00102915
0.00102879
0.00102679
0.00101987
0.00100827
0.00101642
0.00101807
0.00101308
0.00101115
0.00101064
0.00101053
0.00101051
0.0010105
0.00101051
0.00101053
0.00101061
0.00101085
0.0010116
0.00101264
0.00100692
0.00101952
0.00102672
0.00102875
0.0010287
0.00102507
0.0010006
0.000872256
0.000301912
0.000301901
0.000872079
0.00100022
0.00102462
0.00102828
0.00102872
0.00102876
0.00102874
0.00102847
0.00102745
0.00102561
0.00102534
0.00102212
0.0010156
0.00101336
0.00101283
0.00101273
0.00101271
0.0010127
0.0010127
0.00101272
0.00101281
0.0010133
0.00101537
0.00102139
0.00102417
0.00102707
0.00102839
0.0010287
0.00102832
0.00102465
0.00100024
0.000872064
0.000301906
0.000301828
0.000870098
0.000997016
0.00102104
0.00102462
0.00102505
0.0010251
0.00102511
0.00102509
0.00102496
0.0010246
0.00102398
0.00102208
0.00101894
0.00101774
0.00101744
0.00101738
0.00101737
0.00101737
0.00101737
0.00101738
0.00101744
0.00101773
0.00101891
0.001022
0.00102385
0.00102476
0.00102506
0.00102508
0.00102466
0.00102107
0.00099703
0.000870085
0.000301832
0.000301219
0.000855147
0.000974964
0.000997024
0.00100024
0.0010006
0.00100064
0.00100065
0.00100065
0.00100063
0.00100054
0.00100028
0.000999616
0.000998584
0.000998133
0.000998
0.000997967
0.000997958
0.000997957
0.00099796
0.000997969
0.000998003
0.000998136
0.000998586
0.000999613
0.00100028
0.00100056
0.00100064
0.00100063
0.00100026
0.000997043
0.000974971
0.000855132
0.000301222
0.000297681
0.000765653
0.00085516
0.000870118
0.000872102
0.000872301
0.000872311
0.000872303
0.000872289
0.000872261
0.000872205
0.000872087
0.000871872
0.000871569
0.000871401
0.000871319
0.000871281
0.000871263
0.000871259
0.000871269
0.000871292
0.000871336
0.000871421
0.000871593
0.000871898
0.000872114
0.000872226
0.000872277
0.000872286
0.000872096
0.000870114
0.000855151
0.000765633
0.000297683
0.000285343
0.000297681
0.00030122
0.000301831
0.000301906
0.000301914
0.000301917
0.00030192
0.000301924
0.000301927
0.00030193
0.000301929
0.000301925
0.000301915
0.000301909
0.000301905
0.000301902
0.0003019
0.000301899
0.0003019
0.000301902
0.000301905
0.000301909
0.000301915
0.000301924
0.000301928
0.000301928
0.000301925
0.000301922
0.000301912
0.000301836
0.000301224
0.000297684
0.000285345
0.00029226
0.000309276
0.000314632
0.000315659
0.0003158
0.000315814
0.000315815
0.000315815
0.000315816
0.000315816
0.000315816
0.000315816
0.000315816
0.000315816
0.000315816
0.000315815
0.000315815
0.000315815
0.000315815
0.000315815
0.000315815
0.000315815
0.000315816
0.000315816
0.000315816
0.000315816
0.000315816
0.000315816
0.000315815
0.0003158
0.00031566
0.000314633
0.000309276
0.000292261
0.000309276
0.00092002
0.00105476
0.0010799
0.00108363
0.00108406
0.00108409
0.00108408
0.00108407
0.00108405
0.00108404
0.00108402
0.001084
0.00108398
0.00108397
0.00108396
0.00108395
0.00108394
0.00108394
0.00108395
0.00108396
0.00108397
0.00108398
0.001084
0.00108401
0.00108403
0.00108405
0.00108406
0.00108403
0.00108361
0.00107988
0.00105473
0.000920004
0.000309276
0.000314633
0.00105478
0.00124166
0.00128015
0.0012864
0.0012872
0.00128728
0.00128728
0.00128728
0.00128727
0.00128727
0.00128727
0.00128726
0.00128726
0.00128725
0.00128725
0.00128725
0.00128725
0.00128725
0.00128725
0.00128725
0.00128725
0.00128726
0.00128726
0.00128727
0.00128727
0.00128727
0.00128727
0.00128719
0.0012864
0.00128014
0.00124165
0.00105477
0.000314635
0.000315661
0.00107993
0.00128016
0.00132266
0.00132975
0.00133069
0.00133079
0.00133079
0.0013308
0.0013308
0.0013308
0.00133081
0.00133081
0.00133081
0.00133082
0.00133082
0.00133082
0.00133082
0.00133082
0.00133082
0.00133082
0.00133082
0.00133082
0.00133081
0.00133081
0.0013308
0.0013308
0.00133079
0.0013307
0.00132976
0.00132267
0.00128016
0.00107993
0.000315663
0.000315803
0.00108366
0.00128641
0.00132976
0.00133704
0.001338
0.00133811
0.00133812
0.00133812
0.0013381
0.00133807
0.00133809
0.00133811
0.00133812
0.00133813
0.00133813
0.00133813
0.00133813
0.00133813
0.00133813
0.00133813
0.00133813
0.00133812
0.00133811
0.00133809
0.00133807
0.0013381
0.00133811
0.00133802
0.00133705
0.00132977
0.00128642
0.00108366
0.000315805
0.000315817
0.00108408
0.00128721
0.00133069
0.001338
0.00133897
0.00133908
0.00133908
0.00133901
0.00133876
0.0013384
0.00133857
0.00133869
0.00133873
0.00133876
0.00133875
0.00133874
0.00133874
0.00133874
0.00133874
0.00133875
0.00133876
0.00133874
0.00133869
0.00133857
0.00133841
0.00133877
0.001339
0.00133898
0.00133802
0.0013307
0.00128722
0.00108408
0.00031582
0.000315818
0.00108411
0.00128729
0.00133079
0.00133811
0.00133908
0.00133917
0.00133905
0.00133841
0.00133641
0.00133349
0.00133507
0.00133609
0.00133642
0.00133657