/*--------------------------------*- C++ -*----------------------------------*\
| =========                 |                                                 |
| \\      /  F ield         | OpenFOAM: The Open Source CFD Toolbox           |
|  \\    /   O peration     | Version:  2112                                  |
|   \\  /    A nd           | Website:  www.openfoam.com                      |
|    \\/     M anipulation  |                                                 |
\*---------------------------------------------------------------------------*/
FoamFile
{
    version     2.0;
    format      ascii;
    arch        "LSB;label=32;scalar=64";
    class       volScalarField;
    location    "0.6";
    object      p;
}
// * * * * * * * * * * * * * * * * * * * * * * * * * * * * * * * * * * * * * //

dimensions      [0 2 -2 0 0 0 0];

internalField   nonuniform List<scalar> 
64906
(
-1.73442e-05
-1.73411e-05
-1.7385e-05
-1.74836e-05
-1.76359e-05
-1.78389e-05
-1.80898e-05
-1.83858e-05
-1.87223e-05
-1.90935e-05
-1.94858e-05
-1.98872e-05
-2.02731e-05
-2.06291e-05
-2.09381e-05
-2.11904e-05
-2.13774e-05
-2.14945e-05
-2.15396e-05
-2.15128e-05
-2.14171e-05
-2.12575e-05
-2.1043e-05
-2.07835e-05
-2.04966e-05
-2.01964e-05
-1.99073e-05
-1.96412e-05
-1.94117e-05
-1.92247e-05
-1.90862e-05
-1.90001e-05
-1.89676e-05
-1.89778e-05
-1.73204e-05
-1.72111e-05
-1.71957e-05
-1.72578e-05
-1.73838e-05
-1.75618e-05
-1.77854e-05
-1.80513e-05
-1.83543e-05
-1.86899e-05
-1.90432e-05
-1.94048e-05
-1.97483e-05
-2.00641e-05
-2.03358e-05
-2.05577e-05
-2.07225e-05
-2.08277e-05
-2.08716e-05
-2.08544e-05
-2.07785e-05
-2.06469e-05
-2.04673e-05
-2.02458e-05
-1.99989e-05
-1.97359e-05
-1.94834e-05
-1.92501e-05
-1.90517e-05
-1.88945e-05
-1.87895e-05
-1.87511e-05
-1.87962e-05
-1.89512e-05
-1.74017e-05
-1.72325e-05
-1.71807e-05
-1.72216e-05
-1.73383e-05
-1.75138e-05
-1.77396e-05
-1.80136e-05
-1.83315e-05
-1.86927e-05
-1.90777e-05
-1.94804e-05
-1.98556e-05
-2.01972e-05
-2.04846e-05
-2.07168e-05
-2.08869e-05
-2.09944e-05
-2.1038e-05
-2.1018e-05
-2.09364e-05
-2.07943e-05
-2.05989e-05
-2.03517e-05
-2.00736e-05
-1.97704e-05
-1.94877e-05
-1.92307e-05
-1.90203e-05
-1.88606e-05
-1.87653e-05
-1.87542e-05
-1.8847e-05
-1.9085e-05
-1.75896e-05
-1.73885e-05
-1.73176e-05
-1.7354e-05
-1.74792e-05
-1.76737e-05
-1.79291e-05
-1.82468e-05
-1.86266e-05
-1.90768e-05
-1.95705e-05
-2.01073e-05
-2.05945e-05
-2.10306e-05
-2.13856e-05
-2.16675e-05
-2.18691e-05
-2.19925e-05
-2.20368e-05
-2.20022e-05
-2.18906e-05
-2.17003e-05
-2.14392e-05
-2.10998e-05
-2.07131e-05
-2.02797e-05
-1.98939e-05
-1.95537e-05
-1.92886e-05
-1.90947e-05
-1.89846e-05
-1.89786e-05
-1.90976e-05
-1.9379e-05
-1.78829e-05
-1.76602e-05
-1.75817e-05
-1.76273e-05
-1.77762e-05
-1.8008e-05
-1.83157e-05
-1.87082e-05
-1.91941e-05
-1.98027e-05
-2.0498e-05
-2.12974e-05
-2.19942e-05
-2.26021e-05
-2.30774e-05
-2.34487e-05
-2.37072e-05
-2.38601e-05
-2.39059e-05
-2.3845e-05
-2.36794e-05
-2.34028e-05
-2.30251e-05
-2.2518e-05
-2.19271e-05
-2.12375e-05
-2.06597e-05
-2.01707e-05
-1.981e-05
-1.95536e-05
-1.94083e-05
-1.93906e-05
-1.9522e-05
-1.98338e-05
-1.82729e-05
-1.8028e-05
-1.79475e-05
-1.80117e-05
-1.81973e-05
-1.84815e-05
-1.88596e-05
-1.93513e-05
-1.99832e-05
-2.08285e-05
-2.18513e-05
-2.31295e-05
-2.41753e-05
-2.50543e-05
-2.57109e-05
-2.62188e-05
-2.6565e-05
-2.67636e-05
-2.68118e-05
-2.671e-05
-2.64616e-05
-2.6053e-05
-2.54986e-05
-2.47254e-05
-2.37923e-05
-2.26316e-05
-2.17409e-05
-2.10278e-05
-2.05343e-05
-2.01931e-05
-1.9997e-05
-1.99569e-05
-2.00957e-05
-2.04413e-05
-1.87503e-05
-1.84788e-05
-1.83992e-05
-1.84908e-05
-1.87256e-05
-1.9077e-05
-1.95415e-05
-2.01516e-05
-2.09635e-05
-2.21381e-05
-2.36567e-05
-2.58499e-05
-2.74606e-05
-2.87452e-05
-2.96597e-05
-3.03657e-05
-3.08402e-05
-3.11067e-05
-3.11587e-05
-3.09963e-05
-3.06265e-05
-3.00261e-05
-2.92194e-05
-2.80453e-05
-2.65544e-05
-2.44846e-05
-2.31224e-05
-2.20953e-05
-2.14364e-05
-2.09924e-05
-2.07321e-05
-2.06604e-05
-2.08046e-05
-2.11932e-05
-1.93052e-05
-1.90023e-05
-1.89274e-05
-1.90576e-05
-1.93593e-05
-1.9799e-05
-2.03703e-05
-2.11109e-05
-2.21141e-05
-2.36546e-05
-2.58164e-05
-2.98348e-05
-3.22952e-05
-3.41665e-05
-3.54562e-05
-3.64595e-05
-3.71309e-05
-3.75031e-05
-3.75608e-05
-3.7304e-05
-3.67478e-05
-3.58589e-05
-3.46836e-05
-3.2926e-05
-3.05899e-05
-2.66909e-05
-2.47329e-05
-2.33551e-05
-2.25186e-05
-2.19587e-05
-2.16151e-05
-2.14969e-05
-2.16414e-05
-2.20819e-05
-1.99247e-05
-1.95855e-05
-1.95201e-05
-1.97033e-05
-2.0096e-05
-2.06559e-05
-2.13695e-05
-2.22631e-05
-2.34345e-05
-2.53875e-05
-2.80293e-05
-3.59334e-05
-3.93548e-05
-4.19571e-05
-4.37561e-05
-4.51587e-05
-4.61036e-05
-4.66241e-05
-4.66905e-05
-4.63025e-05
-4.54889e-05
-4.42141e-05
-4.25385e-05
-4.00496e-05
-3.6755e-05
-2.8933e-05
-2.6608e-05
-2.48168e-05
-2.38195e-05
-2.31157e-05
-2.26519e-05
-2.24595e-05
-2.25931e-05
-2.30944e-05
-2.05941e-05
-2.02157e-05
-2.01687e-05
-2.04277e-05
-2.09538e-05
-2.17025e-05
-2.26601e-05
-2.37869e-05
-2.51954e-05
-2.75347e-05
-2.58563e-05
-4.39428e-05
-4.82172e-05
-5.18486e-05
-5.44479e-05
-5.64755e-05
-5.78462e-05
-5.85868e-05
-5.86653e-05
-5.80812e-05
-5.68652e-05
-5.49864e-05
-5.25254e-05
-4.90086e-05
-4.48743e-05
-2.66532e-05
-2.89384e-05
-2.67443e-05
-2.55136e-05
-2.45785e-05
-2.38894e-05
-2.35581e-05
-2.3651e-05
-2.42157e-05
-2.12902e-05
-2.0869e-05
-2.08451e-05
-2.11954e-05
-2.18882e-05
-2.28932e-05
-2.42097e-05
-2.57451e-05
-2.7251e-05
-2.51868e-05
-6.33308e-05
-6.10469e-05
-6.38549e-05
-6.7049e-05
-6.96862e-05
-7.1526e-05
-7.24968e-05
-7.25906e-05
-7.18066e-05
-7.01519e-05
-6.76929e-05
-6.46624e-05
-6.19716e-05
-6.42215e-05
-2.72087e-05
-2.91356e-05
-2.76919e-05
-2.63164e-05
-2.52771e-05
-2.4739e-05
-2.47674e-05
-2.54025e-05
-2.19912e-05
-2.1528e-05
-2.15366e-05
-2.20025e-05
-2.292e-05
-2.43238e-05
-2.63899e-05
-2.9438e-05
-3.43801e-05
-4.17514e-05
-5.98547e-05
-6.20651e-05
-6.88706e-05
-7.5023e-05
-8.04441e-05
-8.44533e-05
-8.7082e-05
-8.84052e-05
-8.85144e-05
-8.74097e-05
-8.50009e-05
-8.12119e-05
-7.60145e-05
-7.00883e-05
-6.35377e-05
-6.18175e-05
-4.36428e-05
-3.63684e-05
-3.1534e-05
-2.86605e-05
-2.6893e-05
-2.60098e-05
-2.5922e-05
-2.66203e-05
-2.26632e-05
-2.21567e-05
-2.21883e-05
-2.27462e-05
-2.38337e-05
-2.55057e-05
-2.79772e-05
-3.15728e-05
-3.69905e-05
-4.44038e-05
-5.6676e-05
-6.52024e-05
-7.46821e-05
-8.29199e-05
-8.98842e-05
-9.4837e-05
-9.80235e-05
-9.96047e-05
-9.9726e-05
-9.83879e-05
-9.54469e-05
-9.07419e-05
-8.40309e-05
-7.60397e-05
-6.68074e-05
-5.85792e-05
-4.64286e-05
-3.91136e-05
-3.38147e-05
-3.04044e-05
-2.82539e-05
-2.71561e-05
-2.70023e-05
-2.77743e-05
-2.32847e-05
-2.27387e-05
-2.27884e-05
-2.34222e-05
-2.46455e-05
-2.65178e-05
-2.92576e-05
-3.31713e-05
-3.88647e-05
-4.6516e-05
-5.71877e-05
-6.74152e-05
-7.8726e-05
-8.84197e-05
-9.64434e-05
-0.000102046
-0.000105621
-0.00010738
-0.000107511
-0.000106015
-0.000102705
-9.73714e-05
-8.96229e-05
-8.01953e-05
-6.91519e-05
-5.9151e-05
-4.86299e-05
-4.10971e-05
-3.55399e-05
-3.18264e-05
-2.94326e-05
-2.81862e-05
-2.79903e-05
-2.88298e-05
-2.38332e-05
-2.32514e-05
-2.33098e-05
-2.39939e-05
-2.53042e-05
-2.72932e-05
-3.01661e-05
-3.42071e-05
-3.9959e-05
-4.76309e-05
-5.79117e-05
-6.89086e-05
-8.11908e-05
-9.16065e-05
-0.000100169
-0.000106106
-0.000109887
-0.000111741
-0.000111879
-0.000110303
-0.000106803
-0.000101149
-9.28756e-05
-8.27373e-05
-7.07304e-05
-5.99437e-05
-4.98284e-05
-4.22891e-05
-3.66872e-05
-3.28614e-05
-3.03589e-05
-2.90418e-05
-2.88372e-05
-2.97412e-05
-2.42959e-05
-2.3685e-05
-2.37475e-05
-2.44656e-05
-2.58339e-05
-2.78967e-05
-3.08469e-05
-3.4956e-05
-4.07358e-05
-4.84316e-05
-5.86762e-05
-7.00645e-05
-8.28256e-05
-9.36288e-05
-0.000102492
-0.000108617
-0.000112514
-0.000114423
-0.000114569
-0.00011295
-0.000109346
-0.000103516
-9.49523e-05
-8.44347e-05
-7.19553e-05
-6.07754e-05
-5.07053e-05
-4.31513e-05
-3.75324e-05
-3.36519e-05
-3.10935e-05
-2.97404e-05
-2.95395e-05
-3.04961e-05
-2.4663e-05
-2.40305e-05
-2.40944e-05
-2.4834e-05
-2.62389e-05
-2.83474e-05
-3.13444e-05
-3.54972e-05
-4.13076e-05
-4.90529e-05
-5.93574e-05
-7.09675e-05
-8.40001e-05
-9.50281e-05
-0.000104072
-0.000110314
-0.000114286
-0.000116233
-0.000116385
-0.000114742
-0.000111074
-0.000105137
-9.6401e-05
-8.56647e-05
-7.29185e-05
-6.15184e-05
-5.1394e-05
-4.37967e-05
-3.81551e-05
-3.42414e-05
-3.16527e-05
-3.02822e-05
-3.00889e-05
-3.1085e-05
-2.49296e-05
-2.42844e-05
-2.43497e-05
-2.51036e-05
-2.6533e-05
-2.86734e-05
-3.17066e-05
-3.59002e-05
-4.1755e-05
-4.95659e-05
-5.99572e-05
-7.17204e-05
-8.49298e-05
-9.61121e-05
-0.000105283
-0.000111616
-0.000115649
-0.000117628
-0.000117787
-0.000116124
-0.000112408
-0.00010639
-9.75345e-05
-8.66485e-05
-7.3728e-05
-6.21756e-05
-5.19667e-05
-4.43066e-05
-3.86252e-05
-3.46772e-05
-3.20628e-05
-3.06783e-05
-3.04883e-05
-3.15077e-05
-2.50934e-05
-2.44444e-05
-2.45123e-05
-2.52753e-05
-2.67202e-05
-2.88829e-05
-3.1947e-05
-3.61829e-05
-4.2095e-05
-4.99826e-05
-6.04711e-05
-7.23492e-05
-8.56787e-05
-9.69721e-05
-0.000106238
-0.000112644
-0.00011673
-0.00011874
-0.000118906
-0.000117228
-0.000113472
-0.000107391
-9.84473e-05
-8.74537e-05
-7.44129e-05
-6.27438e-05
-5.24364e-05
-4.4699e-05
-3.89611e-05
-3.4973e-05
-3.23319e-05
-3.09323e-05
-3.07384e-05
-3.17646e-05
-2.51538e-05
-2.45104e-05
-2.45822e-05
-2.53489e-05
-2.67999e-05
-2.89751e-05
-3.20639e-05
-3.63425e-05
-4.23242e-05
-5.03015e-05
-6.09018e-05
-7.2865e-05
-8.62627e-05
-9.76263e-05
-0.000106954
-0.000113419
-0.000117549
-0.000119587
-0.000119763
-0.000118073
-0.000114288
-0.00010816
-9.91619e-05
-8.81004e-05
-7.49881e-05
-6.32278e-05
-5.28031e-05
-4.4972e-05
-3.91615e-05
-3.51284e-05
-3.24602e-05
-3.10447e-05
-3.08399e-05
-3.18564e-05
-2.51141e-05
-2.44848e-05
-2.45604e-05
-2.53235e-05
-2.6768e-05
-2.89403e-05
-3.20407e-05
-3.63556e-05
-4.2418e-05
-5.05045e-05
-6.12577e-05
-7.32687e-05
-8.66538e-05
-9.80255e-05
-0.000107366
-0.000113865
-0.000118027
-0.00012009
-0.000120276
-0.000118584
-0.000114786
-0.00010864
-9.96364e-05
-8.85686e-05
-7.5461e-05
-6.36402e-05
-5.30518e-05
-4.51031e-05
-3.92053e-05
-3.51294e-05
-3.24407e-05
-3.10139e-05
-3.07941e-05
-3.17853e-05
-2.49788e-05
-2.4371e-05
-2.44479e-05
-2.51949e-05
-2.66112e-05
-2.87509e-05
-3.18283e-05
-3.61482e-05
-4.22866e-05
-5.0512e-05
-6.15405e-05
-7.35146e-05
-8.67119e-05
-9.79458e-05
-0.000107185
-0.000113654
-0.000117811
-0.000119886
-0.000120087
-0.000118411
-0.000114644
-0.000108549
-9.96598e-05
-8.87324e-05
-7.57972e-05
-6.39872e-05
-5.31064e-05
-4.50064e-05
-3.90227e-05
-3.49311e-05
-3.22503e-05
-3.08312e-05
-3.06008e-05
-3.15541e-05
-2.47578e-05
-2.41785e-05
-2.42529e-05
-2.4969e-05
-2.63294e-05
-2.83937e-05
-3.13892e-05
-3.56448e-05
-4.1811e-05
-5.01591e-05
-6.18412e-05
-7.36114e-05
-8.61798e-05
-9.69752e-05
-0.000105895
-0.000112203
-0.000116282
-0.000118341
-0.000118562
-0.000116943
-0.000113292
-0.000107393
-9.8844e-05
-8.83627e-05
-7.60285e-05
-6.43667e-05
-5.281e-05
-4.45711e-05
-3.85455e-05
-3.45031e-05
-3.18827e-05
-3.05035e-05
-3.02723e-05
-3.11758e-05
-2.44638e-05
-2.3917e-05
-2.39808e-05
-2.46428e-05
-2.59021e-05
-2.78113e-05
-3.05903e-05
-3.45816e-05
-4.05199e-05
-4.87125e-05
-6.22134e-05
-7.34417e-05
-8.45671e-05
-9.42289e-05
-0.000102336
-0.000108201
-0.000112046
-0.000114027
-0.000114278
-0.000112796
-0.000109437
-0.000104038
-9.63413e-05
-8.70144e-05
-7.60803e-05
-6.48262e-05
-5.14437e-05
-4.3341e-05
-3.75221e-05
-3.37215e-05
-3.12882e-05
-3.00185e-05
-2.98152e-05
-3.06648e-05
-2.41195e-05
-2.36096e-05
-2.36609e-05
-2.42587e-05
-2.53931e-05
-2.70957e-05
-2.95463e-05
-3.30686e-05
-3.86295e-05
-4.69827e-05
-6.50235e-05
-7.24102e-05
-8.16935e-05
-8.97172e-05
-9.66099e-05
-0.000101824
-0.000105329
-0.00010719
-0.000107481
-0.000106204
-0.000103272
-9.86203e-05
-9.22069e-05
-8.45659e-05
-7.53372e-05
-6.76471e-05
-4.98742e-05
-4.15707e-05
-3.6085e-05
-3.27148e-05
-3.05684e-05
-2.9449e-05
-2.92838e-05
-3.00695e-05
-2.37442e-05
-2.32705e-05
-2.33017e-05
-2.38159e-05
-2.47793e-05
-2.61597e-05
-2.79491e-05
-2.99957e-05
-3.18672e-05
-2.89258e-05
-8.14318e-05
-7.85821e-05
-8.29283e-05
-8.78412e-05
-9.20338e-05
-9.50243e-05
-9.67079e-05
-9.70496e-05
-9.6059e-05
-9.37577e-05
-9.02703e-05
-8.59541e-05
-8.21731e-05
-8.51351e-05
-3.20088e-05
-3.5013e-05
-3.31388e-05
-3.11819e-05
-2.96391e-05
-2.8776e-05
-2.86875e-05
-2.94175e-05
-2.33707e-05
-2.29352e-05
-2.29591e-05
-2.34224e-05
-2.42934e-05
-2.55499e-05
-2.72379e-05
-2.94425e-05
-3.26105e-05
-3.76217e-05
-4.21003e-05
-6.08589e-05
-6.81629e-05
-7.4782e-05
-8.00076e-05
-8.42485e-05
-8.7178e-05
-8.88582e-05
-8.92533e-05
-8.83868e-05
-8.62889e-05
-8.29442e-05
-7.84747e-05
-7.26056e-05
-6.52971e-05
-4.70643e-05
-4.16851e-05
-3.62436e-05
-3.28187e-05
-3.05686e-05
-2.9043e-05
-2.8228e-05
-2.81392e-05
-2.87996e-05
-2.30164e-05
-2.26156e-05
-2.26351e-05
-2.30577e-05
-2.38558e-05
-2.50185e-05
-2.6605e-05
-2.8762e-05
-3.17879e-05
-3.62777e-05
-4.3311e-05
-5.43362e-05
-6.1459e-05
-6.79935e-05
-7.31391e-05
-7.7285e-05
-8.01086e-05
-8.17397e-05
-8.21717e-05
-8.14427e-05
-7.95633e-05
-7.64805e-05
-7.21969e-05
-6.65393e-05
-5.93539e-05
-4.83013e-05
-4.05533e-05
-3.56169e-05
-3.22667e-05
-2.99937e-05
-2.85069e-05
-2.77208e-05
-2.76245e-05
-2.82245e-05
-2.27034e-05
-2.23357e-05
-2.2359e-05
-2.27592e-05
-2.35155e-05
-2.46276e-05
-2.61622e-05
-2.82691e-05
-3.12139e-05
-3.54166e-05
-4.12899e-05
-4.91855e-05
-5.60126e-05
-6.25998e-05
-6.77977e-05
-7.19843e-05
-7.47922e-05
-7.64052e-05
-7.68582e-05
-7.62027e-05
-7.44201e-05
-7.14314e-05
-6.71594e-05
-6.15822e-05
-5.46283e-05
-4.65294e-05
-3.9935e-05
-3.51835e-05
-3.18492e-05
-2.95763e-05
-2.80959e-05
-2.73087e-05
-2.71884e-05
-2.77294e-05
-2.24457e-05
-2.21092e-05
-2.21411e-05
-2.25277e-05
-2.32513e-05
-2.43153e-05
-2.57804e-05
-2.77761e-05
-3.04975e-05
-3.4242e-05
-3.91403e-05
-4.53315e-05
-5.14204e-05
-5.75177e-05
-6.24405e-05
-6.63797e-05
-6.9018e-05
-7.05356e-05
-7.09809e-05
-7.04063e-05
-6.87823e-05
-6.60351e-05
-6.20537e-05
-5.69398e-05
-5.07203e-05
-4.42711e-05
-3.87078e-05
-3.44344e-05
-3.13356e-05
-2.91714e-05
-2.77442e-05
-2.6972e-05
-2.6833e-05
-2.73224e-05
-2.22582e-05
-2.1958e-05
-2.20089e-05
-2.23948e-05
-2.30989e-05
-2.41234e-05
-2.55169e-05
-2.73763e-05
-2.98308e-05
-3.30573e-05
-3.71118e-05
-4.20509e-05
-4.7182e-05
-5.24132e-05
-5.67416e-05
-6.01951e-05
-6.25429e-05
-6.39076e-05
-6.43237e-05
-6.38317e-05
-6.24075e-05
-6.00063e-05
-5.65489e-05
-5.21659e-05
-4.69619e-05
-4.18015e-05
-3.72419e-05
-3.36031e-05
-3.08489e-05
-2.88573e-05
-2.75083e-05
-2.6755e-05
-2.65917e-05
-2.70244e-05
-2.21531e-05
-2.19095e-05
-2.20002e-05
-2.24052e-05
-2.31098e-05
-2.41169e-05
-2.54648e-05
-2.72233e-05
-2.94746e-05
-3.23194e-05
-3.577e-05
-3.98389e-05
-4.4141e-05
-4.85288e-05
-5.22442e-05
-5.5229e-05
-5.73039e-05
-5.85281e-05
-5.89148e-05
-5.849e-05
-5.72405e-05
-5.51516e-05
-5.21923e-05
-4.84997e-05
-4.42063e-05
-4.00017e-05
-3.6215e-05
-3.30829e-05
-3.06183e-05
-2.87719e-05
-2.74804e-05
-2.67236e-05
-2.65085e-05
-2.68545e-05
-2.21338e-05
-2.19903e-05
-2.21498e-05
-2.26e-05
-2.33344e-05
-2.43627e-05
-2.57193e-05
-2.74578e-05
-2.96331e-05
-3.23004e-05
-3.54471e-05
-3.90435e-05
-4.2831e-05
-4.66385e-05
-4.99424e-05
-5.26287e-05
-5.45418e-05
-5.56863e-05
-5.60552e-05
-5.56618e-05
-5.45042e-05
-5.25931e-05
-4.99437e-05
-4.66969e-05
-4.3008e-05
-3.93669e-05
-3.60186e-05
-3.31602e-05
-3.08376e-05
-2.9045e-05
-2.77512e-05
-2.69443e-05
-2.66298e-05
-2.68209e-05
-2.21886e-05
-2.22303e-05
-2.25029e-05
-2.30263e-05
-2.38232e-05
-2.49202e-05
-2.63568e-05
-2.81832e-05
-3.04488e-05
-3.31941e-05
-3.6403e-05
-4.00194e-05
-4.38181e-05
-4.75967e-05
-5.09243e-05
-5.36436e-05
-5.5606e-05
-5.67832e-05
-5.71599e-05
-5.67422e-05
-5.55356e-05
-5.35629e-05
-5.08687e-05
-4.75986e-05
-4.3939e-05
-4.0305e-05
-3.6944e-05
-3.40389e-05
-3.16506e-05
-2.9783e-05
-2.84077e-05
-2.74938e-05
-2.70054e-05
-2.69077e-05
-1.74322e-05
-1.74696e-05
-1.75463e-05
-1.76698e-05
-1.78445e-05
-1.80711e-05
-1.83488e-05
-1.86764e-05
-1.90492e-05
-1.94624e-05
-1.99002e-05
-2.03505e-05
-2.07839e-05
-2.11849e-05
-2.15323e-05
-2.18156e-05
-2.20242e-05
-2.21529e-05
-2.21989e-05
-2.21625e-05
-2.20471e-05
-2.18585e-05
-2.16076e-05
-2.13055e-05
-2.09736e-05
-2.0627e-05
-2.02953e-05
-1.999e-05
-1.97267e-05
-1.95097e-05
-1.93424e-05
-1.92231e-05
-1.91454e-05
-1.90959e-05
-1.74233e-05
-1.73932e-05
-1.74303e-05
-1.75294e-05
-1.76846e-05
-1.78921e-05
-1.81492e-05
-1.84546e-05
-1.8802e-05
-1.91888e-05
-1.9594e-05
-2.00114e-05
-2.04059e-05
-2.07712e-05
-2.10843e-05
-2.13399e-05
-2.1528e-05
-2.1646e-05
-2.16913e-05
-2.16642e-05
-2.15679e-05
-2.14055e-05
-2.11877e-05
-2.09199e-05
-2.06253e-05
-2.031e-05
-2.00093e-05
-1.97286e-05
-1.94892e-05
-1.92944e-05
-1.91519e-05
-1.90661e-05
-1.90429e-05
-1.90829e-05
-1.75277e-05
-1.747e-05
-1.74895e-05
-1.75806e-05
-1.77384e-05
-1.79566e-05
-1.82318e-05
-1.85654e-05
-1.89511e-05
-1.93937e-05
-1.9861e-05
-2.036e-05
-2.08191e-05
-2.12436e-05
-2.15985e-05
-2.1886e-05
-2.20938e-05
-2.22217e-05
-2.22672e-05
-2.22306e-05
-2.21152e-05
-2.19216e-05
-2.16628e-05
-2.13368e-05
-2.09794e-05
-2.05844e-05
-2.02245e-05
-1.9891e-05
-1.96176e-05
-1.94009e-05
-1.92516e-05
-1.91749e-05
-1.91733e-05
-1.92463e-05
-1.77378e-05
-1.76669e-05
-1.76835e-05
-1.77839e-05
-1.79633e-05
-1.82157e-05
-1.85391e-05
-1.8941e-05
-1.94177e-05
-1.99901e-05
-2.06064e-05
-2.13007e-05
-2.19172e-05
-2.2485e-05
-2.29447e-05
-2.33129e-05
-2.35721e-05
-2.37267e-05
-2.37732e-05
-2.3712e-05
-2.35473e-05
-2.32753e-05
-2.29144e-05
-2.24483e-05
-2.19377e-05
-2.1352e-05
-2.085e-05
-2.03937e-05
-2.00378e-05
-1.97628e-05
-1.95788e-05
-1.94866e-05
-1.94859e-05
-1.95721e-05
-1.80539e-05
-1.79675e-05
-1.79892e-05
-1.81116e-05
-1.83282e-05
-1.86336e-05
-1.90293e-05
-1.95332e-05
-2.01481e-05
-2.09295e-05
-2.17928e-05
-2.28355e-05
-2.37137e-05
-2.45148e-05
-2.51382e-05
-2.56332e-05
-2.59731e-05
-2.61697e-05
-2.6218e-05
-2.61183e-05
-2.58766e-05
-2.54815e-05
-2.4961e-05
-2.42661e-05
-2.35001e-05
-2.25729e-05
-2.18349e-05
-2.11795e-05
-2.06969e-05
-2.03325e-05
-2.00917e-05
-1.99668e-05
-1.99575e-05
-2.00615e-05
-1.84688e-05
-1.83611e-05
-1.83921e-05
-1.8547e-05
-1.88147e-05
-1.91903e-05
-1.96786e-05
-2.03127e-05
-2.11083e-05
-2.2189e-05
-2.34298e-05
-2.50791e-05
-2.63613e-05
-2.75141e-05
-2.83719e-05
-2.90521e-05
-2.95092e-05
-2.97677e-05
-2.98187e-05
-2.96624e-05
-2.93087e-05
-2.87335e-05
-2.79839e-05
-2.69423e-05
-2.57798e-05
-2.42537e-05
-2.31546e-05
-2.22127e-05
-2.15636e-05
-2.10837e-05
-2.07682e-05
-2.05979e-05
-2.05757e-05
-2.07074e-05
-1.89745e-05
-1.88387e-05
-1.88825e-05
-1.90801e-05
-1.94134e-05
-1.98758e-05
-2.0475e-05
-2.12606e-05
-2.227e-05
-2.37632e-05
-2.55715e-05
-2.83285e-05
-3.02119e-05
-3.18589e-05
-3.30243e-05
-3.39552e-05
-3.45713e-05
-3.49157e-05
-3.49706e-05
-3.47363e-05
-3.42311e-05
-3.34117e-05
-3.23606e-05
-3.08292e-05
-2.90736e-05
-2.64461e-05
-2.48059e-05
-2.34665e-05
-2.26198e-05
-2.20037e-05
-2.15977e-05
-2.13704e-05
-2.13324e-05
-2.15037e-05
-1.9562e-05
-1.93913e-05
-1.94535e-05
-1.9708e-05
-2.01277e-05
-2.07003e-05
-2.14313e-05
-2.23716e-05
-2.3576e-05
-2.54532e-05
-2.80506e-05
-3.28842e-05
-3.55265e-05
-3.78193e-05
-3.93916e-05
-4.06714e-05
-4.15147e-05
-4.19835e-05
-4.20444e-05
-4.16972e-05
-4.09756e-05
-3.98163e-05
-3.83654e-05
-3.61905e-05
-3.36797e-05
-2.89733e-05
-2.6593e-05
-2.48844e-05
-2.38591e-05
-2.31035e-05
-2.25871e-05
-2.22845e-05
-2.22225e-05
-2.2445e-05
-2.02183e-05
-2.00048e-05
-2.00902e-05
-2.04165e-05
-2.09455e-05
-2.1655e-05
-2.25409e-05
-2.36231e-05
-2.4888e-05
-2.708e-05
-3.0046e-05
-3.98689e-05
-4.29599e-05
-4.57436e-05
-4.76991e-05
-4.93271e-05
-5.04153e-05
-5.10257e-05
-5.10953e-05
-5.06236e-05
-4.9673e-05
-4.81785e-05
-4.6353e-05
-4.36839e-05
-4.07254e-05
-3.09823e-05
-2.83666e-05
-2.63427e-05
-2.52662e-05
-2.43775e-05
-2.37252e-05
-2.33231e-05
-2.32281e-05
-2.35181e-05
-2.09292e-05
-2.06678e-05
-2.07888e-05
-2.12164e-05
-2.19068e-05
-2.28349e-05
-2.40013e-05
-2.52779e-05
-2.6611e-05
-2.88931e-05
-2.40789e-05
-4.6841e-05
-5.03226e-05
-5.38287e-05
-5.64185e-05
-5.85708e-05
-6.00203e-05
-6.08201e-05
-6.09009e-05
-6.02619e-05
-5.8972e-05
-5.69727e-05
-5.45273e-05
-5.11345e-05
-4.77958e-05
-2.48146e-05
-3.03457e-05
-2.82188e-05
-2.70875e-05
-2.60113e-05
-2.50956e-05
-2.45146e-05
-2.43473e-05
-2.47118e-05
-2.16688e-05
-2.13513e-05
-2.15095e-05
-2.20481e-05
-2.29191e-05
-2.41045e-05
-2.5624e-05
-2.73215e-05
-2.84485e-05
-2.31767e-05
-6.76002e-05
-6.06499e-05
-6.22997e-05
-6.51456e-05
-6.73929e-05
-6.90282e-05
-6.99182e-05
-7.00127e-05
-6.93109e-05
-6.7862e-05
-6.57935e-05
-6.31152e-05
-6.1571e-05
-6.84128e-05
-2.53303e-05
-3.03996e-05
-2.935e-05
-2.78264e-05
-2.65614e-05
-2.57586e-05
-2.5511e-05
-2.59746e-05
-2.24158e-05
-2.20432e-05
-2.22567e-05
-2.29489e-05
-2.40958e-05
-2.57567e-05
-2.81553e-05
-3.15658e-05
-3.71657e-05
-4.41668e-05
-6.3804e-05
-6.02121e-05
-6.48578e-05
-6.99615e-05
-7.45802e-05
-7.78914e-05
-8.01169e-05
-8.12483e-05
-8.13569e-05
-8.04426e-05
-7.8436e-05
-7.53441e-05
-7.09529e-05
-6.60814e-05
-6.16886e-05
-6.58519e-05
-4.60794e-05
-3.92085e-05
-3.37461e-05
-3.05213e-05
-2.83902e-05
-2.71466e-05
-2.67258e-05
-2.72777e-05
-2.31308e-05
-2.27008e-05
-2.2952e-05
-2.37581e-05
-2.50933e-05
-2.70328e-05
-2.98323e-05
-3.37269e-05
-3.95773e-05
-4.66048e-05
-5.84104e-05
-6.34821e-05
-6.99294e-05
-7.5611e-05
-8.09593e-05
-8.47707e-05
-8.73367e-05
-8.86284e-05
-8.87479e-05
-8.76952e-05
-8.53704e-05
-8.18003e-05
-7.66993e-05
-7.12488e-05
-6.50219e-05
-6.03069e-05
-4.86467e-05
-4.17586e-05
-3.6058e-05
-3.23589e-05
-2.98422e-05
-2.83591e-05
-2.78524e-05
-2.85085e-05
-2.37922e-05
-2.33127e-05
-2.35993e-05
-2.45087e-05
-2.60123e-05
-2.81952e-05
-3.13217e-05
-3.56116e-05
-4.17423e-05
-4.91516e-05
-5.91348e-05
-6.65543e-05
-7.42146e-05
-8.07851e-05
-8.69405e-05
-9.12533e-05
-9.41599e-05
-9.56085e-05
-9.57378e-05
-9.45477e-05
-9.19025e-05
-8.78511e-05
-8.19646e-05
-7.56445e-05
-6.82403e-05
-6.10787e-05
-5.12873e-05
-4.40364e-05
-3.80739e-05
-3.39938e-05
-3.11702e-05
-2.94834e-05
-2.88989e-05
-2.96363e-05
-2.43741e-05
-2.38508e-05
-2.41585e-05
-2.5137e-05
-2.67468e-05
-2.90685e-05
-3.23514e-05
-3.68001e-05
-4.29834e-05
-5.05249e-05
-6.02175e-05
-6.85029e-05
-7.69663e-05
-8.40358e-05
-9.06134e-05
-9.51899e-05
-9.82807e-05
-9.98151e-05
-9.99521e-05
-9.86914e-05
-9.58768e-05
-9.15753e-05
-8.52801e-05
-7.84718e-05
-7.0283e-05
-6.22311e-05
-5.27476e-05
-4.53789e-05
-3.93789e-05
-3.51548e-05
-3.21958e-05
-3.04077e-05
-2.97932e-05
-3.06053e-05
-2.48635e-05
-2.43065e-05
-2.46293e-05
-2.56582e-05
-2.73439e-05
-2.97619e-05
-3.31492e-05
-3.77053e-05
-4.39429e-05
-5.15874e-05
-6.12581e-05
-7.00048e-05
-7.89143e-05
-8.63252e-05
-9.31934e-05
-9.79481e-05
-0.000101161
-0.000102754
-0.000102898
-0.000101593
-9.8669e-05
-9.4201e-05
-8.76261e-05
-8.04842e-05
-7.18579e-05
-6.3341e-05
-5.38906e-05
-4.64278e-05
-4.03854e-05
-3.60673e-05
-3.3023e-05
-3.11701e-05
-3.05384e-05
-3.14056e-05
-2.52496e-05
-2.46685e-05
-2.50003e-05
-2.60616e-05
-2.77954e-05
-3.0273e-05
-3.37234e-05
-3.83471e-05
-4.46344e-05
-5.23748e-05
-6.21124e-05
-7.11242e-05
-8.03052e-05
-8.79298e-05
-9.49806e-05
-9.98532e-05
-0.000103148
-0.000104782
-0.000104933
-0.0001036
-0.000100606
-9.60308e-05
-8.92821e-05
-8.19328e-05
-7.30406e-05
-6.42598e-05
-5.47494e-05
-4.7197e-05
-4.11136e-05
-3.67382e-05
-3.36455e-05
-3.17568e-05
-3.11191e-05
-3.20261e-05
-2.55276e-05
-2.49332e-05
-2.52715e-05
-2.63539e-05
-2.81193e-05
-3.06373e-05
-3.41343e-05
-3.88132e-05
-4.51577e-05
-5.29869e-05
-6.28176e-05
-7.20017e-05
-8.13615e-05
-8.91385e-05
-9.63213e-05
-0.000101287
-0.000104647
-0.000106316
-0.000106474
-0.00010512
-0.000102073
-9.74155e-05
-9.05427e-05
-8.30462e-05
-7.39785e-05
-6.50262e-05
-5.54255e-05
-4.77872e-05
-4.16512e-05
-3.7227e-05
-3.40972e-05
-3.21829e-05
-3.15392e-05
-3.24677e-05
-2.5695e-05
-2.50981e-05
-2.54412e-05
-2.65348e-05
-2.83177e-05
-3.08605e-05
-3.43911e-05
-3.91157e-05
-4.55214e-05
-5.34317e-05
-6.33622e-05
-7.26625e-05
-8.21389e-05
-9.00235e-05
-9.72989e-05
-0.000102338
-0.00010575
-0.000107449
-0.000107615
-0.000106246
-0.000103161
-9.8441e-05
-9.14831e-05
-8.38832e-05
-7.46997e-05
-6.56294e-05
-5.59278e-05
-4.82077e-05
-4.20112e-05
-3.75431e-05
-3.43829e-05
-3.24497e-05
-3.17981e-05
-3.27308e-05
-2.57515e-05
-2.5163e-05
-2.5509e-05
-2.6604e-05
-2.83903e-05
-3.09415e-05
-3.44922e-05
-3.92523e-05
-4.57224e-05
-5.37087e-05
-6.37503e-05
-7.31215e-05
-8.26564e-05
-9.0607e-05
-9.79362e-05
-0.000103029
-0.000106481
-0.000108207
-0.000108382
-0.000107004
-0.000103896
-9.91343e-05
-9.21302e-05
-8.44678e-05
-7.5223e-05
-6.60758e-05
-5.62579e-05
-4.8457e-05
-4.21926e-05
-3.76861e-05
-3.45031e-05
-3.25576e-05
-3.18967e-05
-3.28162e-05
-2.57001e-05
-2.51307e-05
-2.54773e-05
-2.65623e-05
-2.83349e-05
-3.08743e-05
-3.44259e-05
-3.92056e-05
-4.57447e-05
-5.38046e-05
-6.39967e-05
-7.33826e-05
-8.28954e-05
-9.08603e-05
-9.81963e-05
-0.000103322
-0.000106799
-0.000108548
-0.000108734
-0.000107356
-0.000104242
-9.94645e-05
-9.24625e-05
-8.47891e-05
-7.55596e-05
-6.63844e-05
-5.64053e-05
-4.85217e-05
-4.21808e-05
-3.76473e-05
-3.44545e-05
-3.2508e-05
-3.18378e-05
-3.27262e-05
-2.55454e-05
-2.50047e-05
-2.53459e-05
-2.64031e-05
-2.81338e-05
-3.06229e-05
-3.413e-05
-3.88824e-05
-4.54778e-05
-5.36128e-05
-6.40756e-05
-7.33743e-05
-8.27167e-05
-9.05843e-05
-9.78229e-05
-0.000102926
-0.000106393
-0.000108151
-0.000108353
-0.000106995
-0.000103918
-9.91854e-05
-9.22927e-05
-8.4722e-05
-7.56489e-05
-6.65333e-05
-5.62666e-05
-4.82946e-05
-4.18866e-05
-3.7369e-05
-3.42063e-05
-3.22881e-05
-3.16199e-05
-3.24623e-05
-2.52987e-05
-2.47969e-05
-2.51277e-05
-2.61401e-05
-2.78005e-05
-3.01973e-05
-3.36049e-05
-3.8267e-05
-4.48977e-05
-5.30489e-05
-6.40939e-05
-7.31197e-05
-8.19517e-05
-8.95929e-05
-9.66175e-05
-0.000101632
-0.000105041
-0.000106794
-0.000107016
-0.000105705
-0.000102723
-9.81152e-05
-9.14558e-05
-8.41243e-05
-7.55365e-05
-6.66348e-05
-5.57618e-05
-4.77588e-05
-4.13018e-05
-3.68593e-05
-3.37761e-05
-3.19196e-05
-3.12632e-05
-3.20399e-05
-2.49724e-05
-2.45154e-05
-2.48228e-05
-2.57581e-05
-2.72888e-05
-2.94904e-05
-3.26242e-05
-3.69413e-05
-4.33199e-05
-5.11683e-05
-6.42865e-05
-7.23622e-05
-8.02013e-05
-8.72093e-05
-9.36303e-05
-9.83331e-05
-0.000101546
-0.000103238
-0.000103489
-0.000102299
-9.95659e-05
-9.53269e-05
-8.93033e-05
-8.26379e-05
-7.50089e-05
-6.68976e-05
-5.39475e-05
-4.6237e-05
-4.00175e-05
-3.59001e-05
-3.30651e-05
-3.13665e-05
-3.07657e-05
-3.14704e-05
-2.45929e-05
-2.41895e-05
-2.44748e-05
-2.53299e-05
-2.67235e-05
-2.87152e-05
-3.15325e-05
-3.54322e-05
-4.16137e-05
-4.96081e-05
-6.89437e-05
-7.10085e-05
-7.78329e-05
-8.46932e-05
-9.06955e-05
-9.51728e-05
-9.82467e-05
-9.99085e-05
-0.000100197
-9.91169e-05
-9.66007e-05
-9.2678e-05
-8.71282e-05
-8.06809e-05
-7.39447e-05
-7.14481e-05
-5.25087e-05
-4.46336e-05
-3.85837e-05
-3.48518e-05
-3.22966e-05
-3.07617e-05
-3.02079e-05
-3.08139e-05
-2.41794e-05
-2.38268e-05
-2.40733e-05
-2.48109e-05
-2.59846e-05
-2.75769e-05
-2.96049e-05
-3.18458e-05
-3.32259e-05
-2.62851e-05
-8.68617e-05
-7.82245e-05
-8.11092e-05
-8.54911e-05
-8.91752e-05
-9.18741e-05
-9.3444e-05
-9.37788e-05
-9.28906e-05
-9.08446e-05
-8.78422e-05
-8.39854e-05
-8.16821e-05
-9.04158e-05
-2.93601e-05
-3.64733e-05
-3.51317e-05
-3.29956e-05
-3.11785e-05
-2.99921e-05
-2.95664e-05
-3.00916e-05
-2.37702e-05
-2.34711e-05
-2.37024e-05
-2.43776e-05
-2.5456e-05
-2.69402e-05
-2.88971e-05
-3.13088e-05
-3.44992e-05
-3.94524e-05
-4.11662e-05
-6.36453e-05
-6.97964e-05
-7.604e-05
-8.09348e-05
-8.51307e-05
-8.80169e-05
-8.97118e-05
-9.00965e-05
-8.91976e-05
-8.70799e-05
-8.37248e-05
-7.94055e-05
-7.38691e-05
-6.77837e-05
-4.62184e-05
-4.35595e-05
-3.82814e-05
-3.48462e-05
-3.2397e-05
-3.05655e-05
-2.94168e-05
-2.89892e-05
-2.94144e-05
-2.33811e-05
-2.3127e-05
-2.33408e-05
-2.39538e-05
-2.49335e-05
-2.62937e-05
-2.81087e-05
-3.0505e-05
-3.37087e-05
-3.8434e-05
-4.57201e-05
-5.81641e-05
-6.42451e-05
-7.00856e-05
-7.46413e-05
-7.8616e-05
-8.13251e-05
-8.29425e-05
-8.33512e-05
-8.25898e-05
-8.07032e-05
-7.76655e-05
-7.3616e-05
-6.84732e-05
-6.25107e-05
-5.05397e-05
-4.2696e-05
-3.76567e-05
-3.41604e-05
-3.16638e-05
-2.99159e-05
-2.88339e-05
-2.84252e-05
-2.878e-05
-2.30371e-05
-2.28245e-05
-2.30327e-05
-2.36094e-05
-2.45344e-05
-2.58349e-05
-2.75959e-05
-2.99697e-05
-3.3193e-05
-3.77134e-05
-4.38536e-05
-5.21165e-05
-5.80786e-05
-6.36873e-05
-6.81069e-05
-7.20231e-05
-7.46603e-05
-7.62301e-05
-7.66478e-05
-7.59625e-05
-7.41783e-05
-7.12745e-05
-6.72861e-05
-6.23459e-05
-5.65947e-05
-4.87686e-05
-4.21542e-05
-3.72595e-05
-3.36972e-05
-3.11766e-05
-2.9439e-05
-2.83697e-05
-2.79492e-05
-2.82352e-05
-2.27499e-05
-2.25728e-05
-2.27782e-05
-2.33249e-05
-2.4199e-05
-2.54305e-05
-2.70972e-05
-2.93379e-05
-3.23249e-05
-3.63875e-05
-4.14535e-05
-4.78094e-05
-5.31868e-05
-5.83112e-05
-6.24909e-05
-6.61452e-05
-6.8606e-05
-7.00726e-05
-7.04842e-05
-6.98912e-05
-6.82787e-05
-6.56437e-05
-6.1939e-05
-5.74673e-05
-5.22852e-05
-4.62748e-05
-4.07758e-05
-3.63534e-05
-3.30415e-05
-3.06515e-05
-2.89943e-05
-2.79663e-05
-2.75477e-05
-2.77804e-05
-2.25325e-05
-2.23893e-05
-2.26005e-05
-2.31297e-05
-2.39659e-05
-2.51366e-05
-2.67052e-05
-2.8777e-05
-3.14635e-05
-3.49521e-05
-3.91612e-05
-4.42297e-05
-4.89938e-05
-5.37234e-05
-5.7624e-05
-6.09345e-05
-6.31953e-05
-6.45464e-05
-6.4944e-05
-6.44297e-05
-6.29856e-05
-6.06232e-05
-5.72915e-05
-5.32709e-05
-4.85982e-05
-4.36891e-05
-3.91236e-05
-3.53431e-05
-3.23947e-05
-3.02041e-05
-2.86531e-05
-2.76719e-05
-2.7252e-05
-2.74343e-05
-2.23919e-05
-2.22884e-05
-2.25191e-05
-2.3045e-05
-2.38582e-05
-2.49841e-05
-2.64732e-05
-2.8402e-05
-3.08404e-05
-3.38931e-05
-3.74883e-05
-4.16768e-05
-4.58482e-05
-5.00518e-05
-5.35825e-05
-5.6532e-05
-5.85889e-05
-5.98261e-05
-6.02071e-05
-5.97613e-05
-5.84763e-05
-5.63752e-05
-5.34377e-05
-4.98939e-05
-4.5798e-05
-4.16798e-05
-3.78299e-05
-3.45634e-05
-3.19343e-05
-2.99249e-05
-2.84682e-05
-2.75208e-05
-2.70837e-05
-2.72074e-05
-2.23238e-05
-2.22849e-05
-2.25504e-05
-2.30898e-05
-2.39023e-05
-2.50149e-05
-2.64707e-05
-2.83276e-05
-3.06332e-05
-3.34425e-05
-3.66994e-05
-4.0382e-05
-4.41445e-05
-4.7899e-05
-5.11458e-05
-5.38429e-05
-5.57684e-05
-5.69326e-05
-5.73019e-05
-5.6892e-05
-5.57006e-05