/*--------------------------------*- C++ -*----------------------------------*\
| =========                 |                                                 |
| \\      /  F ield         | OpenFOAM: The Open Source CFD Toolbox           |
|  \\    /   O peration     | Version:  2112                                  |
|   \\  /    A nd           | Website:  www.openfoam.com                      |
|    \\/     M anipulation  |                                                 |
\*---------------------------------------------------------------------------*/
FoamFile
{
    version     2.0;
    format      ascii;
    arch        "LSB;label=32;scalar=64";
    class       surfaceScalarField;
    location    "0.6";
    object      phi;
}
// * * * * * * * * * * * * * * * * * * * * * * * * * * * * * * * * * * * * * //

dimensions      [0 3 -1 0 0 0 0];

oriented        oriented;

internalField   nonuniform List<scalar> 
188215
(
1.32828e-09
3.12492e-09
-4.45321e-09
3.14669e-09
2.97177e-09
-4.79017e-09
5.00992e-09
2.93461e-09
-4.79784e-09
6.81003e-09
3.10678e-09
-4.9069e-09
8.52927e-09
3.44386e-09
-5.1631e-09
1.01582e-08
3.91464e-09
-5.54357e-09
1.16786e-08
4.51283e-09
-6.03323e-09
1.30413e-08
5.2581e-09
-6.62077e-09
1.41838e-08
6.15739e-09
-7.2999e-09
1.49578e-08
7.27262e-09
-8.04662e-09
1.52673e-08
8.53769e-09
-8.84719e-09
1.48653e-08
1.00555e-08
-9.65351e-09
1.3806e-08
1.14943e-08
-1.04351e-08
1.20915e-08
1.28546e-08
-1.11401e-08
9.84059e-09
1.39979e-08
-1.1747e-08
7.15665e-09
1.49094e-08
-1.22255e-08
4.1828e-09
1.55361e-08
-1.25623e-08
1.06424e-09
1.58637e-08
-1.27451e-08
-2.04443e-09
1.58782e-08
-1.27695e-08
-4.98876e-09
1.55799e-08
-1.26355e-08
-7.62361e-09
1.4983e-08
-1.23481e-08
-9.80589e-09
1.41023e-08
-1.192e-08
-1.14333e-08
1.29922e-08
-1.13648e-08
-1.2388e-08
1.16682e-08
-1.07136e-08
-1.26717e-08
1.02722e-08
-9.98845e-09
-1.22315e-08
8.80265e-09
-9.2429e-09
-1.13213e-08
7.59842e-09
-8.50864e-09
-1.00346e-08
6.55096e-09
-7.83759e-09
-8.52042e-09
5.73406e-09
-7.24829e-09
-6.83752e-09
5.09378e-09
-6.77667e-09
-5.03361e-09
4.64814e-09
-6.45206e-09
-3.14118e-09
4.42596e-09
-6.31838e-09
-1.2862e-09
4.47366e-09
-6.32864e-09
4.64606e-09
-5.93226e-09
9.58804e-10
7.21877e-09
-5.05266e-09
3.16895e-09
7.6677e-09
-6.90608e-09
5.40212e-09
8.00489e-09
-7.30345e-09
7.45843e-09
8.62063e-09
-7.57016e-09
9.38157e-09
9.54984e-09
-8.02912e-09
1.12016e-08
1.0784e-08
-8.68941e-09
1.29175e-08
1.23329e-08
-9.53598e-09
1.44873e-08
1.42491e-08
-1.05607e-08
1.58451e-08
1.65605e-08
-1.17609e-08
1.68142e-08
1.94206e-08
-1.31171e-08
1.7268e-08
2.26869e-08
-1.4603e-08
1.6843e-08
2.66319e-08
-1.61514e-08
1.56418e-08
3.03533e-08
-1.76578e-08
1.36813e-08
3.38443e-08
-1.90292e-08
1.11129e-08
3.67709e-08
-2.02046e-08
8.05611e-09
3.90982e-08
-2.11321e-08
4.6738e-09
4.06992e-08
-2.17808e-08
1.1292e-09
4.15372e-08
-2.21289e-08
-2.4047e-09
4.15787e-08
-2.21667e-08
-5.75482e-09
4.08242e-08
-2.18942e-08
-8.75775e-09
3.93079e-08
-2.1322e-08
-1.12506e-08
3.70676e-08
-2.04725e-08
-1.31145e-08
3.42336e-08
-1.93774e-08
-1.41988e-08
3.08424e-08
-1.80898e-08
-1.44912e-08
2.72365e-08
-1.66719e-08
-1.38898e-08
2.34206e-08
-1.52194e-08
-1.27675e-08
2.03152e-08
-1.38391e-08
-1.12447e-08
1.76313e-08
-1.26031e-08
-9.49327e-09
1.55275e-08
-1.15449e-08
-7.55841e-09
1.38602e-08
-1.07013e-08
-5.43773e-09
1.26302e-08
-1.01027e-08
-3.08665e-09
1.18206e-08
-9.74573e-09
-7.56943e-10
1.13676e-08
-9.22368e-09
1.07082e-08
-6.81905e-09
9.10987e-10
1.14305e-08
-5.12273e-09
3.42923e-09
1.24573e-08
-7.30781e-09
6.02544e-09
1.32174e-08
-7.80868e-09
8.40739e-09
1.43537e-08
-8.11503e-09
1.06384e-08
1.59563e-08
-8.63745e-09
1.2778e-08
1.80447e-08
-9.40023e-09
1.48509e-08
2.06525e-08
-1.03925e-08
1.68302e-08
2.38819e-08
-1.16121e-08
1.86587e-08
2.7799e-08
-1.3067e-08
2.00852e-08
3.27345e-08
-1.47405e-08
2.09329e-08
3.84527e-08
-1.66134e-08
2.04666e-08
4.5682e-08
-1.85837e-08
1.89841e-08
5.23457e-08
-2.05099e-08
1.65363e-08
5.85464e-08
-2.22543e-08
1.33687e-08
6.3683e-08
-2.37445e-08
9.62095e-09
6.77574e-08
-2.49114e-08
5.4936e-09
7.05502e-08
-2.57236e-08
1.17603e-09
7.20102e-08
-2.61554e-08
-3.13032e-09
7.2081e-08
-2.61959e-08
-7.22376e-09
7.07629e-08
-2.58452e-08
-1.09143e-08
6.81134e-08
-2.51149e-08
-1.40002e-08
6.4185e-08
-2.40315e-08
-1.63418e-08
5.92021e-08
-2.26269e-08
-1.76929e-08
5.31652e-08
-2.09718e-08
-1.80082e-08
4.66915e-08
-1.91397e-08
-1.6988e-08
3.96725e-08
-1.72721e-08
-1.53856e-08
3.4225e-08
-1.55122e-08
-1.33622e-08
2.9577e-08
-1.39692e-08
-1.11578e-08
2.59932e-08
-1.267e-08
-8.7951e-09
2.31507e-08
-1.16532e-08
-6.23719e-09
2.10138e-08
-1.09415e-08
-3.40988e-09
1.95037e-08
-1.05104e-08
-6.8763e-10
1.84849e-08
-9.83946e-09
1.7016e-08
-6.99542e-09
1.12086e-09
1.55127e-08
-5.20308e-09
4.07051e-09
1.69867e-08
-7.47904e-09
7.14255e-09
1.81391e-08
-7.99384e-09
9.99625e-09
1.98138e-08
-8.31378e-09
1.27093e-08
2.21348e-08
-8.89151e-09
1.53717e-08
2.51394e-08
-9.75709e-09
1.80473e-08
2.88832e-08
-1.09063e-08
2.07489e-08
3.35302e-08
-1.235e-08
2.34532e-08
3.92109e-08
-1.41162e-08
2.57987e-08
4.65873e-08
-1.61983e-08
2.74959e-08
5.53492e-08
-1.85937e-08
2.69176e-08
6.74173e-08
-2.11569e-08
2.48698e-08
7.80609e-08
-2.36674e-08
2.15165e-08
8.78211e-08
-2.59214e-08
1.72826e-08
9.5754e-08
-2.78371e-08
1.23249e-08
1.02031e-07
-2.93162e-08
6.90334e-09
1.06312e-07
-3.03397e-08
1.24701e-09
1.08544e-07
-3.08778e-08
-4.39766e-09
1.08645e-07
-3.09195e-08
-9.78366e-09
1.06614e-07
-3.04652e-08
-1.46803e-08
1.02536e-07
-2.95259e-08
-1.88249e-08
9.64619e-08
-2.81323e-08
-2.20588e-08
8.87395e-08
-2.63035e-08
-2.3953e-08
7.91994e-08
-2.41399e-08
-2.43508e-08
6.8813e-08
-2.17237e-08
-2.24391e-08
5.7025e-08
-1.92642e-08
-1.9886e-08
4.86547e-08
-1.69827e-08
-1.69454e-08
4.16718e-08
-1.50354e-08
-1.39619e-08
3.64418e-08
-1.34321e-08
-1.09128e-08
3.23088e-08
-1.22072e-08
-7.71253e-09
2.91847e-08
-1.13712e-08
-4.25142e-09
2.69336e-08
-1.0891e-08
-9.53072e-10
2.53747e-08
-1.01882e-08
2.32647e-08
-7.20178e-09
1.51036e-09
1.93832e-08
-5.38086e-09
5.06933e-09
2.12574e-08
-7.82972e-09
8.79333e-09
2.28042e-08
-8.3891e-09
1.23019e-08
2.50603e-08
-8.75502e-09
1.56959e-08
2.81784e-08
-9.43769e-09
1.91093e-08
3.2204e-08
-1.0478e-08
2.26722e-08
3.72067e-08
-1.18863e-08
2.64984e-08
4.34046e-08
-1.37006e-08
3.06744e-08
5.10206e-08
-1.59857e-08
3.47454e-08
6.12804e-08
-1.87642e-08
3.82092e-08
7.39507e-08
-2.20652e-08
3.73058e-08
9.40242e-08
-2.57035e-08
3.41593e-08
1.10459e-07
-2.92514e-08
2.92608e-08
1.25131e-07
-3.24111e-08
2.33282e-08
1.36773e-07
-3.50862e-08
1.64844e-08
1.45981e-07
-3.71057e-08
9.0643e-09
1.52229e-07
-3.84971e-08
1.34743e-09
1.55481e-07
-3.92203e-08
-6.35772e-09
1.55616e-07
-3.92653e-08
-1.37415e-08
1.5263e-07
-3.86323e-08
-2.05217e-08
1.46647e-07
-3.73311e-08
-2.63577e-08
1.377e-07
-3.54025e-08
-3.11214e-08
1.26322e-07
-3.28183e-08
-3.40844e-08
1.11915e-07
-2.97522e-08
-3.47637e-08
9.57923e-08
-2.63e-08
-3.10171e-08
7.60462e-08
-2.27679e-08
-2.67031e-08
6.39244e-08
-1.95836e-08
-2.22426e-08
5.41593e-08
-1.69481e-08
-1.80645e-08
4.71015e-08
-1.48378e-08
-1.40225e-08
4.15318e-08
-1.3265e-08
-9.92059e-09
3.72946e-08
-1.22119e-08
-5.57947e-09
3.42162e-08
-1.16237e-08
-1.45591e-09
3.20869e-08
-1.08357e-08
2.93776e-08
-7.56882e-09
2.05526e-09
2.29711e-08
-5.64314e-09
6.43145e-09
2.52343e-08
-8.35308e-09
1.10228e-08
2.72096e-08
-8.99678e-09
1.54025e-08
3.0123e-08
-9.44244e-09
1.97e-08
3.41608e-08
-1.02798e-08
2.41062e-08
3.93678e-08
-1.157e-08
2.88523e-08
4.58089e-08
-1.33483e-08
3.42758e-08
5.36838e-08
-1.57027e-08
4.07659e-08
6.32865e-08
-1.87559e-08
4.8067e-08
7.6575e-08
-2.25958e-08
5.52859e-08
9.39744e-08
-2.72427e-08
5.34579e-08
1.28473e-07
-3.26208e-08
4.816e-08
1.53598e-07
-3.7841e-08
4.07167e-08
1.75052e-07
-4.24784e-08
3.22184e-08
1.91676e-07
-4.64051e-08
2.25817e-08
2.04872e-07
-4.92545e-08
1.22215e-08
2.13803e-07
-5.12142e-08
1.48048e-09
2.18446e-07
-5.22231e-08
-9.24963e-09
2.1862e-07
-5.22742e-08
-1.95755e-08
2.14323e-07
-5.13673e-08
-2.91507e-08
2.05731e-07
-4.95089e-08
-3.755e-08
1.9286e-07
-4.67604e-08
-4.48464e-08
1.7655e-07
-4.29322e-08
-4.99262e-08
1.55388e-07
-3.83937e-08
-5.14676e-08
1.30604e-07
-3.32708e-08
-4.38482e-08
9.64271e-08
-2.80002e-08
-3.62791e-08
7.98281e-08
-2.34729e-08
-2.9459e-08
6.71267e-08
-1.97875e-08
-2.36014e-08
5.8169e-08
-1.69251e-08
-1.82404e-08
5.10128e-08
-1.48421e-08
-1.29438e-08
4.54689e-08
-1.34709e-08
-7.42368e-09
4.14063e-08
-1.27102e-08
-2.17747e-09
3.86105e-08
-1.17698e-08
3.52822e-08
-8.0821e-09
2.76554e-09
2.61721e-08
-5.96655e-09
8.19386e-09
2.88178e-08
-9.01186e-09
1.39061e-08
3.12698e-08
-9.7724e-09
1.94141e-08
3.49406e-08
-1.03255e-08
2.48727e-08
4.00649e-08
-1.13628e-08
3.05306e-08
4.66854e-08
-1.29755e-08
3.67438e-08
5.48319e-08
-1.52362e-08
4.42741e-08
6.4474e-08
-1.83205e-08
5.42196e-08
7.57838e-08
-2.24428e-08
6.74686e-08
9.10948e-08
-2.77687e-08
8.30237e-08
1.12613e-07
-3.4194e-08
7.84671e-08
1.75207e-07
-4.21771e-08
6.87515e-08
2.13122e-07
-4.9809e-08
5.71607e-08
2.4334e-07
-5.66972e-08
4.49147e-08
2.66512e-07
-6.259e-08
3.12756e-08
2.85072e-07
-6.65606e-08
1.67129e-08
2.97679e-07
-6.93133e-08
1.65269e-09
3.04228e-07
-7.07221e-08
-1.33991e-08
3.04455e-07
-7.07829e-08
-2.79347e-08
2.98354e-07
-6.94955e-08
-4.15236e-08
2.86182e-07
-6.68619e-08
-5.3682e-08
2.68027e-07
-6.30086e-08
-6.51284e-08
2.45222e-07
-5.72251e-08
-7.45941e-08
2.15297e-07
-5.0443e-08
-7.87756e-08
1.77694e-07
-4.29078e-08
-6.25998e-08
1.15279e-07
-3.50278e-08
-4.91035e-08
9.50544e-08
-2.87225e-08
-3.8807e-08
8.03927e-08
-2.35625e-08
-3.07513e-08
6.97632e-08
-1.96498e-08
-2.3749e-08
6.08837e-08
-1.68732e-08
-1.69312e-08
5.37337e-08
-1.50826e-08
-9.87596e-09
4.84419e-08
-1.40909e-08
-3.15148e-09
4.48262e-08
-1.29402e-08
4.08394e-08
-8.7087e-09
3.66815e-09
2.88363e-08
-6.33233e-09
1.04228e-08
3.18454e-08
-9.78223e-09
1.75645e-08
3.48153e-08
-1.06872e-08
2.45262e-08
3.93496e-08
-1.13707e-08
3.14625e-08
4.57781e-08
-1.26494e-08
3.86122e-08
5.41926e-08
-1.46569e-08
4.63447e-08
6.46192e-08
-1.75198e-08
5.59483e-08
7.64434e-08
-2.1573e-08
6.9836e-08
8.90251e-08
-2.7129e-08
9.37987e-08
1.0176e-07
-3.4628e-08
1.27933e-07
1.20271e-07
-4.17917e-08
1.16179e-07
2.39484e-07
-5.25235e-08
9.81879e-08
2.94735e-07
-6.36216e-08
8.04095e-08
3.35018e-07
-7.38993e-08
6.29539e-08
3.66732e-07
-8.27639e-08
4.36763e-08
3.92324e-07
-8.79749e-08
2.31129e-08
4.09889e-07
-9.16468e-08
1.87553e-09
4.18994e-07
-9.35291e-08
-1.9358e-08
4.19292e-07
-9.36034e-08
-3.99086e-08
4.10774e-07
-9.18693e-08
-5.91636e-08
3.93779e-07
-8.83413e-08
-7.65719e-08
3.68706e-07
-8.3271e-08
-9.42536e-08
3.37434e-07
-7.45307e-08
-1.12009e-07
2.97421e-07
-6.43688e-08
-1.23255e-07
2.42314e-07
-5.33742e-08
-8.80556e-08
1.22798e-07
-4.27181e-08
-6.40017e-08
1.06665e-07
-3.56646e-08
-4.97837e-08
9.45216e-08
-2.83468e-08
-3.95495e-08
8.25528e-08
-2.30238e-08
-3.08036e-08
7.14598e-08
-1.93219e-08
-2.21398e-08
6.20751e-08
-1.70052e-08
-1.3112e-08
5.51426e-08
-1.57284e-08
-4.45881e-09
5.04875e-08
-1.43145e-08
4.57949e-08
-9.41432e-09
4.77327e-09
3.07923e-08
-6.72931e-09
1.31507e-08
3.41186e-08
-1.06506e-08
2.2074e-08
3.76199e-08
-1.1728e-08
3.08919e-08
4.30969e-08
-1.25651e-08
3.97351e-08
5.10612e-08
-1.41264e-08
4.8712e-08
6.18092e-08
-1.65934e-08
5.79115e-08
7.55795e-08
-2.01599e-08
6.8823e-08
9.0904e-08
-2.53721e-08
8.55459e-08
1.05191e-07
-3.28892e-08
1.24069e-07
1.05251e-07
-4.20136e-08
1.98844e-07
9.77437e-08
-5.22479e-08
1.69209e-07
3.27535e-07
-5.84161e-08
1.37113e-07
3.9853e-07
-7.1698e-08
1.11392e-07
4.46725e-07
-8.59871e-08
8.73333e-08
4.89107e-07
-9.83163e-08
6.06242e-08
5.23175e-07
-1.04142e-07
3.18955e-08
5.47135e-07
-1.08517e-07
2.16817e-09
5.59494e-07
-1.10772e-07
-2.75623e-08
5.59881e-07
-1.10859e-07
-5.63016e-08
5.4829e-07
-1.08776e-07
-8.30381e-08
5.25082e-07
-1.04567e-07
-1.07138e-07
4.91711e-07
-9.89047e-08
-1.32903e-07
4.49909e-07
-8.67093e-08
-1.64911e-07
4.01979e-07
-7.25492e-08
-1.93909e-07
3.30678e-07
-5.93664e-08
-1.17148e-07
9.94266e-08
-5.33898e-08
-7.90046e-08
1.1166e-07
-4.31384e-08
-6.20372e-08
1.11755e-07
-3.42005e-08
-5.03576e-08
9.78222e-08
-2.6949e-08
-3.9839e-08
8.30817e-08
-2.21406e-08
-2.88813e-08
7.03309e-08
-1.92135e-08
-1.73036e-08
6.11757e-08
-1.76108e-08
-6.16221e-09
5.52274e-08
-1.58813e-08
4.98159e-08
-1.01831e-08
6.11959e-09
3.18111e-08
-7.1383e-09
1.64758e-08
3.53583e-08
-1.15959e-08
2.7665e-08
3.92992e-08
-1.28685e-08
3.90035e-08
4.56342e-08
-1.38758e-08
5.06293e-08
5.51838e-08
-1.57484e-08
6.22909e-08
6.88577e-08
-1.87101e-08
7.28908e-08
8.79436e-08
-2.29639e-08
8.06155e-08
1.12686e-07
-2.9507e-08
8.49562e-08
1.38848e-07
-3.79972e-08
1.15286e-07
1.25075e-07
-5.01542e-08
2.86419e-07
-7.339e-08
2.24882e-07
4.3974e-07
-5.06676e-08
1.8439e-07
4.99367e-07
-6.03454e-08
1.53713e-07
5.52163e-07
-7.47606e-08
1.22001e-07
6.0804e-07
-8.72215e-08
8.48643e-08
6.51633e-07
-9.13213e-08
4.43969e-08
6.82477e-07
-9.48745e-08
2.54986e-09
6.98131e-07
-9.67901e-08
-3.93052e-08
6.98607e-07
-9.68713e-08
-7.98031e-08
6.83906e-07
-9.51179e-08
-1.17023e-07
6.54015e-07
-9.17139e-08
-1.48902e-07
6.11362e-07
-8.77724e-08
-1.79947e-07
5.56379e-07
-7.54242e-08
-2.21024e-07
5.04182e-07
-6.11273e-08
-2.82427e-07
4.43751e-07
-5.16693e-08
-1.07934e-07
-7.50666e-08
-7.78194e-08
1.32756e-07
-5.12109e-08
-7.34619e-08
1.46765e-07
-3.93681e-08
-6.46957e-08
1.20269e-07
-3.12129e-08
-5.2343e-08
9.5863e-08
-2.51339e-08
-3.81149e-08
7.77353e-08
-2.16326e-08
-2.29542e-08
6.57127e-08
-1.96977e-08
-8.47621e-09
5.83613e-08
-1.76119e-08
5.23039e-08
-1.09643e-08
7.61756e-09
3.1754e-08
-7.56046e-09
2.02008e-08
3.53803e-08
-1.26052e-08
3.40177e-08
3.95872e-08
-1.41049e-08
4.84551e-08
4.65163e-08
-1.53195e-08
6.38608e-08
5.73441e-08
-1.75659e-08
7.9925e-08
7.38336e-08
-2.10401e-08
9.42631e-08
9.9432e-08
-2.58266e-08
9.94708e-08
1.39239e-07
-3.17598e-08
8.03807e-08
1.99934e-07
-4.1996e-08
2.68962e-07
-6.35057e-08
1.49694e-07
2.55977e-07
3.40685e-08
1.99989e-07
4.3223e-07
1.68417e-08
1.96711e-07
5.39874e-07
1.55669e-08
1.62556e-07
6.21984e-07
2.021e-08
1.14479e-07
6.78872e-07
2.08384e-08
6.00379e-08
7.16004e-07
2.09133e-08
3.05054e-09
7.34179e-07
2.09398e-08
-5.39493e-08
7.34671e-07
2.09361e-08
-1.08439e-07
7.17494e-07
2.09019e-08
-1.56653e-07
6.81401e-07
2.08276e-08
-1.91131e-07
6.25645e-07
2.01946e-08
-1.95219e-07
5.44876e-07
1.55911e-08
-1.46651e-07
4.38888e-07
1.67258e-08
2.63605e-07
3.34953e-08
-7.74381e-08
2.73487e-07
-6.32922e-08
-9.37242e-08
2.06244e-07
-4.31926e-08
-8.60778e-08
1.46175e-07
-3.35523e-08
-6.91194e-08
1.07083e-07
-2.81785e-08
-4.96932e-08
8.25947e-08
-2.42855e-08
-2.97843e-08
6.78405e-08
-2.20367e-08
-1.12183e-08
5.93201e-08
-1.95247e-08
5.28758e-08
-1.17902e-08
9.31038e-09
3.04137e-08
-7.97009e-09
2.44509e-08
3.38707e-08
-1.36309e-08
4.15657e-08
3.78331e-08
-1.53608e-08
6.05867e-08
4.42818e-08
-1.67864e-08
8.32196e-08
5.41396e-08
-1.94285e-08
1.11952e-07
6.85964e-08
-2.34956e-08
1.50776e-07
8.96024e-08
-2.8994e-08
2.06174e-07
1.19041e-07
-3.52007e-08
2.89247e-07
1.56629e-07
-3.97687e-08
4.10329e-07
1.85293e-07
-3.74129e-08
3.16797e-07
8.13146e-08
1.22175e-08
3.47323e-07
2.01663e-07
2.37882e-08
3.41774e-07
3.33085e-07
1.04694e-07
2.9813e-07
4.24306e-07
1.59212e-07
2.31768e-07
4.95283e-07
1.93063e-07
1.57806e-07
5.44546e-07
2.08288e-07
8.1098e-08
5.76485e-07
2.16228e-07
3.57992e-09
5.92129e-07
2.19567e-07
-7.39294e-08
5.92554e-07
2.19626e-07
-1.50611e-07
5.77768e-07
2.16408e-07
-2.24533e-07
5.46714e-07
2.08609e-07
-2.90816e-07
4.98383e-07
1.93545e-07
-3.34339e-07
4.28418e-07
1.59981e-07
-3.39361e-07
3.3814e-07
1.05769e-07
-3.08609e-07
2.07297e-07
2.55556e-08
-4.0588e-07
8.33946e-08
1.3877e-08
-2.84291e-07
1.8935e-07
-3.74529e-08
-1.99373e-07
1.62096e-07
-4.07696e-08
-1.41685e-07
1.25362e-07
-3.68759e-08
-9.99399e-08
9.67913e-08
-3.14529e-08
-6.72349e-08
7.69529e-08
-2.70632e-08
-3.9138e-08
6.42214e-08
-2.44778e-08
-1.4886e-08
5.66032e-08
-2.15351e-08
5.05746e-08
-1.25849e-08
1.0831e-08
2.7958e-08
-8.37529e-09
2.82444e-08
3.10828e-08
-1.46255e-08
4.8105e-08
3.45704e-08
-1.65979e-08
7.0514e-08
4.01424e-08
-1.82696e-08
9.7612e-08
4.84151e-08
-2.13735e-08
1.32412e-07
5.99973e-08
-2.62007e-08
1.79229e-07
7.55748e-08
-3.27898e-08
2.4381e-07
9.5314e-08
-4.08536e-08
3.31429e-07
1.16903e-07
-4.78932e-08
4.33895e-07
1.3314e-07
-5.03127e-08
4.41699e-07
1.04959e-07
-3.14488e-08
4.693e-07
1.70958e-07
3.10455e-09
4.35098e-07
2.50447e-07
1.1684e-07
3.66688e-07
3.13327e-07
1.7939e-07
2.80815e-07
3.64997e-07
2.16159e-07
1.89452e-07
4.01896e-07
2.34013e-07
9.67197e-08
4.26277e-07
2.4294e-07
4.00034e-09
4.38345e-07
2.46504e-07
-8.87043e-08
4.38703e-07
2.46556e-07
-1.81389e-07
4.27353e-07
2.43101e-07
-2.72675e-07
4.03695e-07
2.34305e-07
-3.58423e-07
3.6752e-07
2.16611e-07
-4.26711e-07
3.16569e-07
1.80138e-07
-4.60776e-07
2.5428e-07
1.17925e-07
-4.33534e-07
1.75176e-07
4.8793e-09
-4.27673e-07
1.0794e-07
-3.04058e-08
-3.25221e-07
1.37195e-07
-5.02973e-08
-2.36146e-07
1.21816e-07
-4.87956e-08
-1.69248e-07
1.01009e-07
-4.25447e-08
-1.19193e-07
8.21293e-08
-3.5393e-08
-7.98469e-08
6.76859e-08
-3.00795e-08
-4.6396e-08
5.77172e-08
-2.69467e-08
-1.77765e-08
5.14776e-08
-2.34939e-08
4.62036e-08
-1.34055e-08
1.21927e-08
2.45093e-08
-8.74402e-09
3.16186e-08
2.7178e-08
-1.55211e-08
5.38552e-08
3.00335e-08
-1.76997e-08
7.90598e-08
3.45051e-08
-1.95674e-08
1.0954e-07
4.09693e-08
-2.30346e-08
1.48301e-07
4.96902e-08
-2.84537e-08
1.98979e-07
6.08073e-08
-3.59101e-08
2.6553e-07
7.41842e-08
-4.5422e-08
3.49246e-07
8.79831e-08
-5.47953e-08
4.43127e-07
1.00649e-07
-6.139e-08
4.96718e-07
1.00047e-07
-4.86787e-08
5.39928e-07
1.38208e-07
-1.04608e-08
4.98367e-07
1.85456e-07
1.06552e-07
4.1796e-07
2.27031e-07
1.66703e-07
3.18346e-07
2.62657e-07
2.01954e-07
2.13988e-07
2.88868e-07
2.17386e-07
1.08963e-07
3.06557e-07
2.24745e-07
4.35908e-09
3.15432e-07
2.27516e-07
-1.00228e-07
3.15739e-07
2.27551e-07
-2.05201e-07
3.07474e-07
2.24852e-07
-3.09479e-07
2.90385e-07
2.17588e-07
-4.0899e-07
2.64749e-07
2.02282e-07
-4.89383e-07
2.29661e-07
1.673e-07
-5.31076e-07
1.88508e-07
1.07465e-07
-4.88844e-07
1.41565e-07
-8.62142e-09
-4.3628e-07
1.0315e-07
-4.77734e-08
-3.42207e-07
1.04399e-07
-6.12769e-08
-2.57062e-07
9.2328e-08
-5.5657e-08
-1.88094e-07
7.91952e-08
-4.71534e-08
-1.33901e-07
6.65921e-08
-3.86559e-08
-9.0097e-08
5.64914e-08
-3.26098e-08
-5.24968e-08
4.91786e-08
-2.90616e-08
-2.02526e-08
4.44357e-08
-2.52023e-08
4.0084e-08
-1.4133e-08
1.3277e-08
2.03108e-08
-9.07852e-09
3.42985e-08
2.24549e-08
-1.62983e-08
5.83364e-08
2.4648e-08
-1.86524e-08
8.55051e-08
2.80234e-08
-2.0687e-08
1.18126e-07
3.28076e-08
-2.44596e-08
1.59085e-07
3.91011e-08
-3.03697e-08
2.11562e-07
4.68708e-08
-3.85401e-08
2.78852e-07
5.6017e-08
-4.91227e-08
3.61293e-07
6.55249e-08
-5.99827e-08
4.54634e-07
7.58185e-08
-6.85104e-08
5.29051e-07
8.28555e-08
-5.72261e-08
5.82612e-07
1.06527e-07
-2.18798e-08
5.38382e-07
1.35859e-07
9.3827e-08
4.51796e-07
1.63106e-07
1.50511e-07
3.44051e-07
1.87114e-07
1.83288e-07
2.31247e-07
2.05311e-07
1.96362e-07
1.17715e-07
2.17792e-07
2.02297e-07
4.66163e-09
2.24147e-07
2.04338e-07
-1.08379e-07
2.24422e-07
2.04357e-07
-2.21873e-07
2.18611e-07
2.02357e-07
-3.34624e-07
2.06651e-07
1.96485e-07
-4.42316e-07
1.88936e-07
1.83504e-07
-5.2898e-07
1.65357e-07
1.50968e-07
-5.73495e-07
1.38443e-07
9.4581e-08
-5.21104e-07
1.09381e-07
-2.02077e-08
-4.47313e-07
8.57632e-08
-5.64041e-08
-3.53636e-07
7.91517e-08
-6.84309e-08
-2.69705e-07
6.92891e-08
-6.08916e-08
-1.99874e-07
6.03036e-08
-5.09395e-08
-1.43636e-07
5.17884e-08
-4.14342e-08
-9.72235e-08
4.48501e-08
-3.47712e-08
-5.68701e-08
3.96909e-08
-3.08657e-08
-2.20276e-08
3.62575e-08
-2.66644e-08
3.28616e-08
-1.48052e-08
1.41079e-08
1.55625e-08
-9.35962e-09
3.63466e-08
1.71444e-08
-1.69282e-08
6.17281e-08
1.86818e-08
-1.94153e-08
9.03065e-08
2.10161e-08
-2.15711e-08
1.24391e-07
2.42873e-08
-2.55639e-08
1.66777e-07
2.85369e-08
-3.18224e-08
2.20417e-07
3.37244e-08
-4.0493e-08
2.88388e-07
3.98368e-08
-5.17906e-08
3.71092e-07
4.6428e-08
-6.36079e-08
4.66105e-07
5.41491e-08
-7.33429e-08
5.50316e-07
6.16347e-08
-6.29903e-08
6.09547e-07
7.65862e-08
-2.92905e-08
5.648e-07
9.48261e-08
8.57798e-08
4.74921e-07
1.12242e-07
1.40743e-07
3.62026e-07
1.27807e-07
1.72202e-07
2.43516e-07
1.39856e-07
1.83965e-07
1.24019e-07
1.48223e-07
1.89066e-07
4.9342e-09
1.52553e-07
1.90679e-07
-1.14146e-07
1.52813e-07
1.90689e-07
-2.33627e-07
1.48992e-07
1.891e-07
-3.52124e-07
1.41104e-07
1.84044e-07
-4.65023e-07
1.2948e-07
1.72355e-07
-5.55059e-07
1.14273e-07
1.4112e-07
-6.00181e-07
9.71264e-08
8.64384e-08
-5.42186e-07
7.90925e-08
-2.77068e-08
-4.58428e-07
6.42515e-08
-6.22461e-08
-3.62991e-07
5.70326e-08
-7.3318e-08
-2.78714e-07
4.95961e-08
-6.45842e-08
-2.08077e-07
4.33661e-08
-5.36989e-08
-1.50472e-07
3.77049e-08
-4.3522e-08
-1.02311e-07
3.31181e-08
-3.64292e-08
-6.00302e-08
2.96843e-08
-3.2274e-08
-2.3314e-08
2.73662e-08
-2.78248e-08
2.49096e-08
-1.53621e-08
1.46788e-08
1.04672e-08
-9.58349e-09
3.7758e-08
1.14691e-08
-1.74038e-08
6.40508e-08
1.23739e-08
-1.9985e-08
9.35589e-08
1.37326e-08
-2.22245e-08
1.28583e-07
1.56311e-08
-2.63681e-08
1.71884e-07
1.80965e-08
-3.28604e-08
2.26343e-07
2.11247e-08
-4.18598e-08
2.95033e-07
2.4752e-08
-5.36044e-08
3.786e-07
2.88535e-08
-6.59931e-08
4.75296e-07
3.38481e-08
-7.63945e-08
5.64232e-07
3.93396e-08
-6.66408e-08
6.26549e-07
4.79922e-08
-3.37234e-08
5.81637e-07
5.82843e-08
8.14543e-08
4.89859e-07
6.81806e-08
1.35839e-07
3.73831e-07
7.7053e-08
1.66782e-07
2.51688e-07
8.40328e-08
1.77966e-07
1.28284e-07
8.89365e-08
1.8269e-07
5.18998e-09
9.15439e-08
1.84104e-07
-1.1791e-07
9.18035e-08
1.8411e-07
-2.4133e-07
8.97018e-08
1.82711e-07
-3.6351e-07
8.52615e-08
1.78022e-07
-4.79611e-07
7.86787e-08
1.66902e-07
-5.71622e-07
7.0114e-08
1.3617e-07
-6.16979e-07
6.04278e-08
8.20551e-08
-5.55933e-07
5.02582e-08
-3.22116e-08
-4.67377e-07
4.16661e-08
-6.59707e-08
-3.70201e-07
3.6295e-08
-7.64389e-08
-2.84992e-07
3.14343e-08
-6.70469e-08
-2.13539e-07
2.75173e-08
-5.56043e-08
-1.54961e-07
2.41349e-08
-4.50075e-08
-1.05657e-07
2.14466e-08
-3.76329e-08
-6.2113e-08
1.94519e-08
-3.33114e-08
-2.41534e-08
1.80982e-08
-2.86916e-08
1.65594e-08
-1.58033e-08
1.50089e-08
5.20079e-09
-9.74244e-09
3.85799e-08
5.6155e-09
-1.77174e-08
6.54044e-08
5.903e-09
-2.03536e-08
9.54543e-08
6.3232e-09
-2.26406e-08
1.31033e-07
6.9217e-09
-2.68695e-08
1.74896e-07
7.7269e-09
-3.34932e-08
2.29917e-07
8.77906e-09
-4.26759e-08
2.99195e-07
1.0139e-08
-5.46647e-08
3.83528e-07
1.1879e-08
-6.73584e-08
4.81373e-07
1.4105e-08
-7.81014e-08
5.72488e-07
1.68563e-08
-6.86323e-08
6.3627e-07
2.01856e-08
-3.59755e-08
5.91267e-07
2.37834e-08
7.95045e-08
4.98449e-07
2.71806e-08
1.33818e-07
3.80693e-07
3.01688e-08
1.64641e-07
2.56498e-07
3.25912e-08
1.75636e-07
1.30857e-07
3.43514e-08
1.80227e-07
5.44462e-09
3.53889e-08
1.81567e-07
-1.19987e-07
3.56647e-08
1.8157e-07
-2.45686e-07
3.51616e-08
1.8024e-07
-3.69983e-07
3.38809e-08
1.75678e-07
-4.87898e-07
3.18534e-08
1.6474e-07
-5.81041e-07
2.91398e-08
1.34118e-07
-6.2657e-07
2.58944e-08
8.00621e-08
-5.641e-07
2.23175e-08
-3.45294e-08
-4.73341e-07
1.89425e-08
-6.80356e-08
-3.74985e-07
1.61603e-08
-7.82205e-08
-2.88966e-07
1.39054e-08
-6.84907e-08
-2.16859e-07
1.21601e-08
-5.67495e-08
-1.57623e-07
1.08216e-08
-4.59225e-08
-1.07616e-07
9.83026e-09
-3.83908e-08
-6.33234e-08
9.13591e-09
-3.39768e-08
-2.46358e-08
8.66955e-09
-2.9259e-08
8.0337e-09
-1.61101e-08
1.51038e-08
-6.78306e-11
-9.83517e-09
3.88284e-08
-2.40807e-10
-1.78683e-08
6.58231e-08
-5.69697e-10
-2.05221e-08
9.60566e-08
-1.08679e-09
-2.28234e-08
1.31845e-07
-1.78773e-09
-2.70785e-08
1.75957e-07
-2.64385e-09
-3.37421e-08
2.31288e-07
-3.57135e-09
-4.29799e-08
3.0095e-07
-4.48267e-09
-5.5041e-08
3.85753e-07
-5.10143e-09
-6.78225e-08
4.84121e-07
-5.60165e-09
-7.86615e-08
5.75732e-07
-5.49987e-09
-6.92548e-08
6.3976e-07
-7.24019e-09
-3.66016e-08
5.94614e-07
-1.01818e-08
7.91111e-08
5.01398e-07
-1.31485e-08
1.33545e-07
3.83087e-07
-1.5949e-08
1.64429e-07
2.58239e-07
-1.80063e-08
1.75445e-07
1.31881e-07
-1.9332e-08
1.80042e-07
5.7139e-09
-1.98246e-08
1.81381e-07
-1.2049e-07
-1.95123e-08
1.81381e-07
-2.46959e-07
-1.84152e-08
1.80046e-07
-3.71995e-07
-1.65554e-08
1.75472e-07
-4.90577e-07
-1.40707e-08
1.64506e-07
-5.8424e-07
-1.10079e-08
1.33811e-07
-6.30023e-07
-7.94249e-09
7.96205e-08
-5.67369e-07
-5.10546e-09
-3.52313e-08
-4.76121e-07
-3.56397e-09
-6.87418e-08
-3.77233e-07
-3.86152e-09
-7.8866e-08
-2.90724e-07
-3.56649e-09
-6.90377e-08
-2.18204e-07
-3.15342e-09
-5.72064e-08
-1.5862e-07
-2.45521e-09
-4.63073e-08
-1.08308e-07
-1.75557e-09
-3.87261e-08
-6.37323e-08
-1.15578e-09
-3.42837e-08
-2.479e-08
-7.39457e-10
-2.95333e-08
-4.74137e-10
-1.62821e-08
1.4965e-08
-5.17181e-09
-9.86098e-09
3.85049e-08
-5.92371e-09
-1.78571e-08
6.53084e-08
-6.88134e-09
-2.04919e-08
9.53662e-08
-8.36931e-09
-2.27753e-08
1.31016e-07
-1.04395e-08
-2.69982e-08
1.75066e-07
-1.30817e-08
-3.36118e-08
2.30454e-07
-1.618e-08
-4.2779e-08
3.00311e-07
-1.9595e-08
-5.47448e-08
3.85324e-07
-2.27117e-08
-6.74033e-08
4.83658e-07
-2.5832e-08
-7.81034e-08
5.74162e-07
-2.74492e-08
-6.85549e-08
6.37186e-07
-3.45871e-08
-3.56766e-08
5.91809e-07
-4.4983e-08
8.01779e-08
4.98805e-07
-5.50503e-08
1.34906e-07
3.8109e-07
-6.42519e-08
1.66018e-07
2.56967e-07
-7.11364e-08
1.77253e-07
1.31396e-07
-7.57447e-08
1.81984e-07
6.01805e-09
-7.7836e-08
1.83389e-07
-1.19419e-07
-7.74597e-08
1.83385e-07
-2.45168e-07
-7.46383e-08
1.81972e-07
-3.69589e-07
-6.93873e-08
1.77253e-07
-4.87727e-07
-6.19899e-08
1.66057e-07
-5.81346e-07
-5.25055e-08
1.35117e-07
-6.27528e-07
-4.23766e-08
8.06156e-08
-5.65972e-07
-3.22506e-08
-3.44104e-08
-4.75853e-07
-2.5534e-08
-6.81493e-08
-3.77005e-07
-2.42953e-08
-7.84139e-08
-2.90289e-07
-2.15697e-08
-6.87132e-08
-2.17582e-07
-1.88681e-08
-5.69919e-08
-1.57957e-07
-1.59069e-08
-4.61733e-08
-1.07738e-07
-1.33283e-08
-3.8647e-08
-6.33446e-08
-1.13108e-08
-3.42379e-08
-2.46183e-08
-9.94669e-09
-2.95191e-08
-8.77104e-09
-1.63214e-08
1.45863e-08
-9.93314e-09
-9.82492e-09
3.75953e-08
-1.1245e-08
-1.76877e-08
6.38291e-08
-1.28499e-08
-2.02653e-08
9.33219e-08
-1.53661e-08
-2.2496e-08
1.28443e-07
-1.89364e-08
-2.66243e-08
1.72069e-07
-2.36177e-08
-3.30901e-08
2.27252e-07
-2.93142e-08
-4.20488e-08
2.972e-07
-3.5813e-08
-5.37296e-08
3.82427e-07
-4.19189e-08
-6.60204e-08
4.80429e-07
-4.75414e-08
-7.62918e-08
5.67585e-07
-4.82731e-08
-6.63325e-08
6.27858e-07
-6.20587e-08
-3.28009e-08
5.82198e-07
-8.26184e-08
8.32948e-08
4.90169e-07
-1.0177e-07
1.38749e-07
3.74389e-07
-1.18898e-07
1.70426e-07
2.52513e-07
-1.31488e-07
1.82227e-07
1.29341e-07
-1.39878e-07
1.87305e-07
6.38386e-09
-1.43763e-07
1.88884e-07
-1.16659e-07
-1.43285e-07
1.88869e-07
-2.40093e-07
-1.38466e-07
1.87261e-07
-3.62407e-07
-1.29245e-07
1.82172e-07
-4.78815e-07
-1.15971e-07
1.70388e-07
-5.71699e-07
-9.84807e-08
1.38859e-07
-6.18424e-07
-7.92637e-08
8.36123e-08
-5.59766e-07
-5.92183e-08
-3.16899e-08
-4.7301e-07
-4.62148e-08
-6.60752e-08
-3.74502e-07
-4.60578e-08
-7.67462e-08
-2.87594e-07
-4.10273e-08
-6.74499e-08
-2.14838e-07
-3.5555e-08
-5.60694e-08
-1.55487e-07
-2.97546e-08
-4.5503e-08
-1.05801e-07
-2.48684e-08
-3.81458e-08
-6.21001e-08
-2.1174e-08
-3.38377e-08
-2.40965e-08
-1.87314e-08
-2.92189e-08
-1.6633e-08
-1.62346e-08
1.39509e-08
-1.41492e-08
-9.73484e-09
3.60564e-08
-1.5981e-08
-1.73696e-08
6.12907e-08
-1.8231e-08
-1.98532e-08
8.97371e-08
-2.18156e-08
-2.19969e-08
1.23797e-07
-2.70304e-08
-2.59657e-08
1.66466e-07
-3.411e-08
-3.21769e-08
2.21078e-07
-4.31585e-08
-4.07678e-08
2.91175e-07
-5.39914e-08
-5.19186e-08
3.77388e-07
-6.46369e-08
-6.34954e-08
4.75576e-07
-7.28787e-08
-7.28507e-08
5.55126e-07
-6.56063e-08
-6.22166e-08
6.09646e-07
-8.9211e-08
-2.73676e-08
5.63714e-07
-1.26181e-07
8.94951e-08
4.73865e-07
-1.58584e-07
1.46662e-07
3.61929e-07
-1.86549e-07
1.79586e-07
2.4428e-07
-2.06432e-07
1.92594e-07
1.25466e-07
-2.19476e-07
1.98413e-07
6.84878e-09
-2.255e-07
2.00355e-07
-1.11884e-07
-2.2487e-07
2.00317e-07
-2.31057e-07
-2.17597e-07
1.98304e-07
-3.49317e-07
-2.03414e-07
1.92429e-07
-4.62161e-07
-1.82525e-07
1.79398e-07
-5.5321e-07
-1.54013e-07
1.46582e-07
-6.00642e-07
-1.21437e-07
8.96056e-08
-5.47975e-07
-8.53853e-08
-2.65005e-08
-4.68768e-07
-6.32426e-08
-6.21796e-08
-3.70057e-07
-7.12445e-08
-7.3524e-08
-2.82203e-07
-6.37835e-08
-6.5098e-08
-2.09367e-07
-5.4009e-08
-5.4382e-08
-1.50705e-07
-4.41289e-08
-4.42877e-08
-1.02164e-07
-3.61787e-08
-3.72302e-08
-5.98103e-08
-3.04321e-08
-3.3096e-08
-2.31415e-08
-2.67526e-08
-2.86476e-08
-2.37295e-08
-1.6045e-08
1.30704e-08
-1.76248e-08
-9.59478e-09
3.39052e-08
-1.99045e-08
-1.69113e-08
5.76934e-08
-2.27583e-08
-1.9261e-08
8.45459e-08
-2.73924e-08
-2.12757e-08
1.16859e-07
-3.43378e-08
-2.50062e-08
1.57762e-07
-4.41814e-08
-3.08307e-08
2.11069e-07
-5.76061e-08
-3.88593e-08
2.81126e-07
-7.48826e-08
-4.91662e-08
3.69866e-07
-9.38083e-08
-5.95682e-08
4.71429e-07
-1.07021e-07
-6.74217e-08
5.34369e-07
-7.31197e-08
-5.54268e-08
5.7728e-07
-1.13985e-07
-1.81359e-08
5.3269e-07
-1.81108e-07
9.95165e-08
4.47701e-07
-2.33395e-07
1.59801e-07
3.4246e-07
-2.76212e-07
1.94904e-07
2.31619e-07
-3.05609e-07
2.10019e-07
1.19519e-07
-3.24442e-07
2.17065e-07
7.46308e-09
-3.33055e-07
2.19611e-07
-1.04735e-07
-3.32208e-07
2.19535e-07
-2.17292e-07
-3.21883e-07
2.16843e-07
-3.2894e-07
-3.01429e-07
2.09664e-07
-4.35462e-07
-2.70465e-07
1.94462e-07
-5.22159e-07
-2.26725e-07
1.59408e-07
-5.69015e-07
-1.73906e-07
9.93259e-08
-5.28379e-07
-1.08421e-07
-1.76e-08
-4.65469e-07
-7.04674e-08
-5.56858e-08
-3.63326e-07
-1.04949e-07
-6.84386e-08
-2.73017e-07
-9.26645e-08
-6.14277e-08
-2.00316e-07
-7.49067e-08
-5.18033e-08
-1.43113e-07
-5.88715e-08
-4.2461e-08
-9.65912e-08
-4.68368e-08
-3.58636e-08
-5.63832e-08
-3.86436e-08
-3.19964e-08
-2.17333e-08
-3.35999e-08
-2.78026e-08
-2.9709e-08
-1.57537e-08
1.19221e-08
-2.01221e-08
-9.42479e-09
3.10832e-08
-2.27225e-08
-1.63431e-08
5.28668e-08
-2.60097e-08
-1.85321e-08
7.73072e-08
-3.14385e-08
-2.03943e-08
1.06631e-07
-3.98248e-08
-2.3837e-08
1.43952e-07
-5.23159e-08
-2.91864e-08
1.9372e-07
-7.08545e-08
-3.65196e-08
2.62135e-07
-9.7658e-08
-4.56389e-08
3.55566e-07
-1.33125e-07
-5.41142e-08
4.69796e-07
-1.63145e-07
-5.81064e-08
4.95891e-07
-5.87533e-08
-4.04605e-08
5.18989e-07
-1.294e-07
-7.68419e-09
4.79503e-07