/*--------------------------------*- C++ -*----------------------------------*\
| =========                 |                                                 |
| \\      /  F ield         | OpenFOAM: The Open Source CFD Toolbox           |
|  \\    /   O peration     | Version:  2112                                  |
|   \\  /    A nd           | Website:  www.openfoam.com                      |
|    \\/     M anipulation  |                                                 |
\*---------------------------------------------------------------------------*/
FoamFile
{
    version     2.0;
    format      ascii;
    arch        "LSB;label=32;scalar=64";
    class       volVectorField;
    location    "0.6";
    object      U;
}
// * * * * * * * * * * * * * * * * * * * * * * * * * * * * * * * * * * * * * //

dimensions      [0 1 -1 0 0 0 0];

internalField   nonuniform List<vector> 
64906
(
(8.27579e-07 2.3195e-06 -3.22939e-06)
(3.20487e-06 2.13934e-06 -3.38273e-06)
(5.87316e-06 2.06301e-06 -3.35661e-06)
(8.50448e-06 2.172e-06 -3.42745e-06)
(1.10368e-05 2.41761e-06 -3.60667e-06)
(1.34446e-05 2.76722e-06 -3.87328e-06)
(1.5715e-05 3.21303e-06 -4.21549e-06)
(1.77942e-05 3.77017e-06 -4.62365e-06)
(1.96197e-05 4.44076e-06 -5.09556e-06)
(2.10174e-05 5.27369e-06 -5.60908e-06)
(2.18462e-05 6.21197e-06 -6.16337e-06)
(2.18093e-05 7.33553e-06 -6.7133e-06)
(2.07478e-05 8.40301e-06 -7.25304e-06)
(1.87482e-05 9.41945e-06 -7.73623e-06)
(1.58716e-05 1.02758e-05 -8.15541e-06)
(1.22996e-05 1.09607e-05 -8.48499e-06)
(8.19933e-06 1.14317e-05 -8.71795e-06)
(3.78644e-06 1.16778e-05 -8.84426e-06)
(-7.26096e-07 1.16878e-05 -8.86124e-06)
(-5.11142e-06 1.14617e-05 -8.76882e-06)
(-9.15532e-06 1.10112e-05 -8.57015e-06)
(-1.26428e-05 1.03475e-05 -8.2756e-06)
(-1.54076e-05 9.51423e-06 -7.89239e-06)
(-1.72689e-05 8.52309e-06 -7.44675e-06)
(-1.81701e-05 7.48586e-06 -6.94629e-06)
(-1.80267e-05 6.39655e-06 -6.43887e-06)
(-1.70049e-05 5.50197e-06 -5.93072e-06)
(-1.54058e-05 4.71818e-06 -5.47002e-06)
(-1.33669e-05 4.10842e-06 -5.06061e-06)
(-1.1062e-05 3.63088e-06 -4.73323e-06)
(-8.54695e-06 3.30604e-06 -4.50774e-06)
(-5.89047e-06 3.16566e-06 -4.42358e-06)
(-3.19811e-06 3.26593e-06 -4.47333e-06)
(-7.07992e-07 3.47857e-06 -4.30759e-06)
(4.82468e-07 7.26851e-06 -3.56252e-06)
(2.84143e-06 7.39473e-06 -5.35337e-06)
(6.18732e-06 7.55356e-06 -5.67537e-06)
(9.26256e-06 8.07449e-06 -5.87578e-06)
(1.21198e-05 8.9359e-06 -6.23538e-06)
(1.48078e-05 1.01034e-05 -6.75242e-06)
(1.73582e-05 1.15763e-05 -7.41265e-06)
(1.97222e-05 1.34023e-05 -8.20884e-06)
(2.18678e-05 1.56039e-05 -9.13984e-06)
(2.35582e-05 1.83188e-05 -1.01872e-05)
(2.46763e-05 2.14046e-05 -1.13361e-05)
(2.47466e-05 2.50801e-05 -1.25264e-05)
(2.35391e-05 2.85692e-05 -1.36897e-05)
(2.12632e-05 3.18516e-05 -1.47479e-05)
(1.79631e-05 3.46114e-05 -1.56576e-05)
(1.38897e-05 3.68081e-05 -1.63757e-05)
(9.21414e-06 3.83201e-05 -1.68786e-05)
(4.19171e-06 3.91113e-05 -1.71485e-05)
(-9.4508e-07 3.91498e-05 -1.71777e-05)
(-5.93722e-06 3.84358e-05 -1.69661e-05)
(-1.05512e-05 3.70024e-05 -1.65222e-05)
(-1.45316e-05 3.48869e-05 -1.58645e-05)
(-1.77083e-05 3.22138e-05 -1.50169e-05)
(-1.983e-05 2.90257e-05 -1.40236e-05)
(-2.08585e-05 2.56461e-05 -1.2929e-05)
(-2.05846e-05 2.20937e-05 -1.18131e-05)
(-1.92488e-05 1.91606e-05 -1.07459e-05)
(-1.73311e-05 1.66152e-05 -9.79154e-06)
(-1.49358e-05 1.46157e-05 -8.96972e-06)
(-1.22864e-05 1.30383e-05 -8.31231e-06)
(-9.3685e-06 1.19011e-05 -7.84514e-06)
(-6.1632e-06 1.12226e-05 -7.57769e-06)
(-2.60593e-06 1.10048e-05 -7.15499e-06)
(-2.01856e-07 1.07666e-05 -4.81291e-06)
(4.00949e-07 1.34238e-05 -3.57438e-06)
(2.92168e-06 1.45031e-05 -5.67241e-06)
(6.83081e-06 1.52954e-05 -6.06985e-06)
(1.03933e-05 1.6546e-05 -6.29247e-06)
(1.37024e-05 1.83508e-05 -6.69985e-06)
(1.68352e-05 2.07183e-05 -7.29739e-06)
(1.98714e-05 2.36791e-05 -8.0725e-06)
(2.27736e-05 2.73409e-05 -9.02183e-06)
(2.55731e-05 3.17673e-05 -1.01535e-05)
(2.79147e-05 3.72767e-05 -1.14484e-05)
(2.97396e-05 4.36017e-05 -1.29022e-05)
(3.01015e-05 5.13309e-05 -1.44175e-05)
(2.85958e-05 5.85716e-05 -1.59095e-05)
(2.57731e-05 6.53403e-05 -1.72588e-05)
(2.16651e-05 7.09908e-05 -1.84156e-05)
(1.66627e-05 7.54788e-05 -1.93213e-05)
(1.09406e-05 7.85629e-05 -1.99529e-05)
(4.81998e-06 8.0177e-05 -2.02885e-05)
(-1.43871e-06 8.02575e-05 -2.03197e-05)
(-7.52752e-06 7.88051e-05 -2.00465e-05)
(-1.31846e-05 7.58849e-05 -1.94779e-05)
(-1.80872e-05 7.15645e-05 -1.86365e-05)
(-2.20614e-05 6.60917e-05 -1.75458e-05)
(-2.47121e-05 5.95137e-05 -1.62657e-05)
(-2.60164e-05 5.24936e-05 -1.48465e-05)
(-2.54178e-05 4.50099e-05 -1.3411e-05)
(-2.33406e-05 3.8993e-05 -1.20444e-05)
(-2.07363e-05 3.38178e-05 -1.08504e-05)
(-1.76345e-05 2.97812e-05 -9.83838e-06)
(-1.43673e-05 2.65776e-05 -9.0449e-06)
(-1.083e-05 2.41844e-05 -8.49114e-06)
(-6.98111e-06 2.25342e-05 -8.17651e-06)
(-2.67881e-06 2.1476e-05 -7.64414e-06)
(-7.47913e-08 1.99286e-05 -4.88663e-06)
(5.48271e-07 1.93869e-05 -3.6288e-06)
(3.50298e-06 2.11907e-05 -5.79544e-06)
(8.09359e-06 2.2559e-05 -6.19188e-06)
(1.23329e-05 2.45634e-05 -6.41859e-06)
(1.63249e-05 2.73583e-05 -6.86633e-06)
(2.01704e-05 3.09849e-05 -7.54149e-06)
(2.40136e-05 3.55077e-05 -8.43578e-06)
(2.78386e-05 4.11167e-05 -9.55471e-06)
(3.18233e-05 4.79495e-05 -1.0924e-05)
(3.54005e-05 5.66734e-05 -1.25252e-05)
(3.87225e-05 6.68823e-05 -1.43805e-05)
(3.96987e-05 8.016e-05 -1.63319e-05)
(3.75326e-05 9.22063e-05 -1.82684e-05)
(3.36706e-05 0.000103348 -2.00008e-05)
(2.80952e-05 0.000112503 -2.14812e-05)
(2.14604e-05 0.000119755 -2.26232e-05)
(1.39149e-05 0.000124715 -2.34156e-05)
(5.89259e-06 0.000127306 -2.38318e-05)
(-2.30727e-06 0.000127429 -2.38637e-05)
(-1.02963e-05 0.000125084 -2.35114e-05)
(-1.77735e-05 0.000120371 -2.27833e-05)
(-2.43005e-05 0.00011337 -2.17068e-05)
(-2.97285e-05 0.000104477 -2.02932e-05)
(-3.33922e-05 9.36132e-05 -1.86305e-05)
(-3.53232e-05 8.18899e-05 -1.67666e-05)
(-3.40546e-05 6.89673e-05 -1.48956e-05)
(-3.04254e-05 5.92288e-05 -1.31274e-05)
(-2.65385e-05 5.09948e-05 -1.16302e-05)
(-2.21801e-05 4.47264e-05 -1.03854e-05)
(-1.78914e-05 3.9766e-05 -9.43419e-06)
(-1.34e-05 3.60265e-05 -8.78734e-06)
(-8.645e-06 3.33529e-05 -8.44328e-06)
(-3.43906e-06 3.15159e-05 -7.90211e-06)
(-2.59558e-07 2.89469e-05 -5.02976e-06)
(8.51408e-07 2.51188e-05 -3.75435e-06)
(4.46694e-06 2.75323e-05 -6.07185e-06)
(9.99559e-06 2.94611e-05 -6.50052e-06)
(1.51678e-05 3.22644e-05 -6.76034e-06)
(2.0116e-05 3.61406e-05 -7.28973e-06)
(2.49756e-05 4.11494e-05 -8.10105e-06)
(2.9991e-05 4.73813e-05 -9.19659e-06)
(3.51988e-05 5.51164e-05 -1.06013e-05)
(4.1107e-05 6.46064e-05 -1.23727e-05)
(4.68165e-05 7.71484e-05 -1.45019e-05)
(5.31849e-05 9.22996e-05 -1.70663e-05)
(5.53803e-05 0.000114234 -1.98132e-05)
(5.17434e-05 0.000133046 -2.25482e-05)
(4.60356e-05 0.000150128 -2.4968e-05)
(3.8045e-05 0.000163867 -2.70321e-05)
(2.88546e-05 0.000174733 -2.85874e-05)
(1.84797e-05 0.000182126 -2.96638e-05)
(7.53018e-06 0.000185979 -3.02224e-05)
(-3.65633e-06 0.000186147 -3.02567e-05)
(-1.4572e-05 0.000182628 -2.97666e-05)
(-2.4877e-05 0.00017557 -2.87589e-05)
(-3.39527e-05 0.000165037 -2.7273e-05)
(-4.17824e-05 0.000151639 -2.52786e-05)
(-4.72576e-05 0.000134909 -2.29313e-05)
(-5.06154e-05 0.000116509 -2.02697e-05)
(-4.80362e-05 9.50171e-05 -1.76058e-05)
(-4.12808e-05 8.05283e-05 -1.513e-05)
(-3.52146e-05 6.86254e-05 -1.31117e-05)
(-2.88453e-05 5.98629e-05 -1.14736e-05)
(-2.30513e-05 5.29523e-05 -1.02541e-05)
(-1.72024e-05 4.77178e-05 -9.43911e-06)
(-1.11851e-05 4.39297e-05 -9.0154e-06)
(-4.71635e-06 4.13054e-05 -8.41105e-06)
(-6.52464e-07 3.78463e-05 -5.28876e-06)
(1.27494e-06 3.04987e-05 -3.94078e-06)
(5.79055e-06 3.34803e-05 -6.4854e-06)
(1.25728e-05 3.59969e-05 -6.98001e-06)
(1.89865e-05 3.96833e-05 -7.29964e-06)
(2.52059e-05 4.47815e-05 -7.94986e-06)
(3.14082e-05 5.13563e-05 -8.95616e-06)
(3.79771e-05 5.95092e-05 -1.03392e-05)
(4.50586e-05 6.95752e-05 -1.21606e-05)
(5.38448e-05 8.19513e-05 -1.45288e-05)
(6.30646e-05 9.89761e-05 -1.74622e-05)
(7.5746e-05 0.000120407 -2.10917e-05)
(8.03866e-05 0.000157438 -2.51152e-05)
(7.33955e-05 0.000186316 -2.91481e-05)
(6.44749e-05 0.000211651 -3.26898e-05)
(5.26899e-05 0.000231511 -3.57173e-05)
(3.97114e-05 0.000247227 -3.79061e-05)
(2.51564e-05 0.000257874 -3.94227e-05)
(9.9123e-06 0.000263414 -4.02015e-05)
(-5.6564e-06 0.000263634 -4.02402e-05)
(-2.08688e-05 0.00025853 -3.95387e-05)
(-3.53575e-05 0.000248314 -3.80989e-05)
(-4.82212e-05 0.000233017 -3.59869e-05)
(-5.984e-05 0.000213572 -3.30348e-05)
(-6.84909e-05 0.000188643 -2.95701e-05)
(-7.51562e-05 0.000160245 -2.56118e-05)
(-6.99741e-05 0.000123693 -2.16737e-05)
(-5.67887e-05 0.000103204 -1.81334e-05)
(-4.71936e-05 8.69589e-05 -1.53213e-05)
(-3.78477e-05 7.54534e-05 -1.30986e-05)
(-3.00297e-05 6.63618e-05 -1.14856e-05)
(-2.23827e-05 5.94081e-05 -1.04241e-05)
(-1.4684e-05 5.43367e-05 -9.87043e-06)
(-6.50243e-06 5.08365e-05 -9.14672e-06)
(-1.21324e-06 4.65061e-05 -5.65231e-06)
(1.82621e-06 3.54091e-05 -4.16924e-06)
(7.50292e-06 3.89555e-05 -7.0033e-06)
(1.59035e-05 4.21267e-05 -7.58954e-06)
(2.3925e-05 4.68332e-05 -7.9899e-06)
(3.17866e-05 5.33732e-05 -8.79576e-06)
(3.97028e-05 6.18067e-05 -1.00532e-05)
(4.82093e-05 7.22021e-05 -1.18097e-05)
(5.76367e-05 8.47365e-05 -1.4193e-05)
(7.04747e-05 9.98232e-05 -1.73962e-05)
(8.51047e-05 0.000120667 -2.14588e-05)
(0.000111188 0.000148927 -2.65343e-05)
(0.000120895 0.000213935 -3.24753e-05)
(0.000105796 0.000257674 -3.83986e-05)
(9.11786e-05 0.000294284 -4.36476e-05)
(7.36016e-05 0.000322442 -4.81899e-05)
(5.52066e-05 0.000344872 -5.12344e-05)
(3.46609e-05 0.000360057 -5.33723e-05)
(1.32884e-05 0.000367947 -5.44614e-05)
(-8.53843e-06 0.000368232 -5.45072e-05)
(-2.98858e-05 0.000360906 -5.35098e-05)
(-5.03799e-05 0.000346271 -5.14617e-05)
(-6.86759e-05 0.00032436 -4.85064e-05)
(-8.61045e-05 0.00029669 -4.40474e-05)
(-0.000100424 0.000260509 -3.88818e-05)
(-0.000115173 0.000217256 -3.30323e-05)
(-0.000104626 0.000152643 -2.71747e-05)
(-7.78546e-05 0.000125822 -2.21868e-05)
(-6.29347e-05 0.000105867 -1.82572e-05)
(-4.94383e-05 9.17509e-05 -1.52129e-05)
(-3.90927e-05 8.02965e-05 -1.30665e-05)
(-2.91852e-05 7.12731e-05 -1.16813e-05)
(-1.93163e-05 6.46223e-05 -1.09536e-05)
(-8.88273e-06 6.00564e-05 -1.0065e-05)
(-1.96879e-06 5.47933e-05 -6.09459e-06)
(2.52587e-06 3.96604e-05 -4.42594e-06)
(9.66694e-06 4.37494e-05 -7.60681e-06)
(2.01184e-05 4.76338e-05 -8.3059e-06)
(3.02046e-05 5.34937e-05 -8.80361e-06)
(4.01776e-05 6.17176e-05 -9.79677e-06)
(5.02377e-05 7.23779e-05 -1.13612e-05)
(6.09098e-05 8.54881e-05 -1.35845e-05)
(7.2671e-05 0.000100728 -1.67259e-05)
(8.9605e-05 0.000117939 -2.1098e-05)
(0.000111077 0.000141149 -2.69621e-05)
(0.000165566 0.000172679 -3.25897e-05)
(0.000186252 0.000294636 -4.06541e-05)
(0.000152687 0.00035934 -4.95553e-05)
(0.000128967 0.00040958 -5.7476e-05)
(0.000103206 0.000448194 -6.43753e-05)
(7.72909e-05 0.000479229 -6.8383e-05)
(4.82125e-05 0.000500399 -7.12733e-05)
(1.8081e-05 0.000511398 -7.27425e-05)
(-1.2692e-05 0.00051177 -7.27986e-05)
(-4.28111e-05 0.000501506 -7.14413e-05)
(-7.18687e-05 0.000481048 -6.86595e-05)
(-9.77309e-05 0.000450665 -6.47592e-05)
(-0.000123416 0.000412622 -5.79543e-05)
(-0.00014687 0.000362785 -5.01261e-05)
(-0.000180157 0.000298493 -4.13046e-05)
(-0.000158015 0.000176538 -3.33003e-05)
(-0.000102525 0.000147502 -2.77518e-05)
(-8.11143e-05 0.000125184 -2.20361e-05)
(-6.34137e-05 0.000108933 -1.78391e-05)
(-5.05082e-05 9.47816e-05 -1.49682e-05)
(-3.80137e-05 8.3146e-05 -1.31765e-05)
(-2.53996e-05 7.45116e-05 -1.22344e-05)
(-1.20388e-05 6.86448e-05 -1.11399e-05)
(-2.98719e-06 6.24073e-05 -6.58831e-06)
(3.37921e-06 4.30326e-05 -4.70468e-06)
(1.23097e-05 4.76375e-05 -8.28603e-06)
(2.52881e-05 5.23078e-05 -9.11967e-06)
(3.79811e-05 5.95185e-05 -9.7326e-06)
(5.06708e-05 6.98632e-05 -1.09459e-05)
(6.34811e-05 8.35806e-05 -1.28704e-05)
(7.65937e-05 0.000100802 -1.5646e-05)
(9.01489e-05 0.000119888 -1.97333e-05)
(0.000110341 0.000139334 -2.58841e-05)
(0.000133938 0.000152203 -3.31899e-05)
(0.000242852 0.000153869 -4.15318e-05)
(0.000288925 0.000393641 -4.54352e-05)
(0.000214619 0.000486685 -5.67611e-05)
(0.000178748 0.000553029 -6.82533e-05)
(0.000143036 0.000606442 -7.80649e-05)
(0.000107337 0.000649573 -8.2635e-05)
(6.68013e-05 0.000679273 -8.61858e-05)
(2.46526e-05 0.0006946 -8.79909e-05)
(-1.84246e-05 0.000695085 -8.8057e-05)
(-6.05809e-05 0.000680719 -8.63839e-05)
(-0.000101148 0.000651955 -8.2959e-05)
(-0.000136887 0.000609683 -7.85151e-05)
(-0.0001727 0.000556989 -6.88061e-05)
(-0.000208443 0.000491051 -5.74202e-05)
(-0.000282888 0.000398067 -4.61667e-05)
(-0.000234147 0.000156811 -4.24201e-05)
(-0.000123654 0.000159905 -3.40486e-05)
(-0.000101068 0.000147859 -2.68928e-05)
(-7.9929e-05 0.000129217 -2.09408e-05)
(-6.49174e-05 0.000111131 -1.71657e-05)
(-4.94214e-05 9.54177e-05 -1.48956e-05)
(-3.32722e-05 8.39271e-05 -1.37062e-05)
(-1.61308e-05 7.6314e-05 -1.23647e-05)
(-4.30667e-06 6.89827e-05 -7.12995e-06)
(4.41607e-06 4.52105e-05 -4.98766e-06)
(1.55165e-05 5.02093e-05 -9.02206e-06)
(3.16237e-05 5.55762e-05 -1.00062e-05)
(4.77356e-05 6.40563e-05 -1.07424e-05)
(6.42461e-05 7.65392e-05 -1.21912e-05)
(8.12233e-05 9.36949e-05 -1.44942e-05)
(9.74719e-05 0.000116124 -1.77958e-05)
(0.000112193 0.000141657 -2.30493e-05)
(0.000122802 0.000162337 -3.01609e-05)
(0.000102632 0.000131457 -4.15462e-05)
(0.000294539 0.000152734 -5.25288e-05)
(0.00041469 0.000592665 -4.0117e-05)
(0.000283037 0.000674356 -5.1467e-05)
(0.000244088 0.000735465 -6.42937e-05)
(0.00019955 0.000801111 -7.48376e-05)
(0.000150266 0.000854726 -7.80909e-05)
(9.33902e-05 0.000893432 -8.11822e-05)
(3.39528e-05 0.000913401 -8.28109e-05)
(-2.66292e-05 0.000914029 -8.28765e-05)
(-8.60885e-05 0.000895309 -8.13791e-05)
(-0.000143044 0.00085783 -7.84076e-05)
(-0.00019249 0.000805365 -7.52841e-05)
(-0.000237392 0.000740687 -6.48296e-05)
(-0.000276735 0.000679947 -5.20995e-05)
(-0.000410473 0.000596754 -4.09286e-05)
(-0.000285656 0.000155378 -5.36922e-05)
(-9.06944e-05 0.000143217 -4.23333e-05)
(-0.000113283 0.000173435 -3.12222e-05)
(-0.000101248 0.000152357 -2.4363e-05)
(-8.45814e-05 0.000127352 -1.94633e-05)
(-6.52315e-05 0.000106306 -1.67542e-05)
(-4.39398e-05 9.14778e-05 -1.53224e-05)
(-2.16356e-05 8.20283e-05 -1.37072e-05)
(-6.10106e-06 7.37422e-05 -7.66471e-06)
(5.56128e-06 4.59547e-05 -5.2828e-06)
(1.90906e-05 5.12178e-05 -9.80846e-06)
(3.87561e-05 5.71904e-05 -1.09692e-05)
(5.89263e-05 6.69472e-05 -1.18618e-05)
(8.03356e-05 8.20359e-05 -1.3607e-05)
(0.000103257 0.00010462 -1.63256e-05)
(0.000125814 0.00013865 -2.00726e-05)
(0.000143205 0.000188928 -2.47336e-05)
(0.000127441 0.000257204 -3.32636e-05)
(0.000125055 0.000295071 -4.49049e-05)
(0.000202299 0.000542879 2.83058e-05)
(0.000257422 0.000712262 1.27969e-05)
(0.000295317 0.000828682 1.01709e-05)
(0.000263831 0.00093238 1.40526e-05)
(0.000201421 0.00100778 1.41468e-05)
(0.000126634 0.00105897 1.41468e-05)
(4.5654e-05 0.00108442 1.41503e-05)
(-3.68919e-05 0.00108514 1.41475e-05)
(-0.000117908 0.00106115 1.41378e-05)
(-0.00019282 0.00101146 1.41379e-05)
(-0.000255509 0.000937622 1.40381e-05)
(-0.000287766 0.000835626 1.01891e-05)
(-0.000251754 0.000720884 1.26793e-05)
(-0.000198563 0.000552015 2.78153e-05)
(-0.000121505 0.000304613 -4.47575e-05)
(-0.000121455 0.000267754 -3.41808e-05)
(-0.000133199 0.000199541 -2.61192e-05)
(-0.000112279 0.000149958 -2.18768e-05)
(-8.54707e-05 0.000117401 -1.88322e-05)
(-5.70096e-05 9.72601e-05 -1.71516e-05)
(-2.82037e-05 8.54336e-05 -1.51994e-05)
(-8.18517e-06 7.61623e-05 -8.25063e-06)
(6.84772e-06 4.49582e-05 -5.56085e-06)
(2.31173e-05 5.0162e-05 -1.06005e-05)
(4.69842e-05 5.61619e-05 -1.19325e-05)
(7.25717e-05 6.60286e-05 -1.29642e-05)
(0.000101977 8.14055e-05 -1.49772e-05)
(0.000138307 0.000104716 -1.80753e-05)
(0.000185289 0.000140597 -2.22099e-05)
(0.000252886 0.000195726 -2.67904e-05)
(0.000343001 0.00027848 -2.97903e-05)
(0.000527093 0.000368673 -2.68401e-05)
(0.000543485 0.000124864 1.68499e-05)
(0.000451041 0.000283934 1.60662e-05)
(0.000516327 0.000546255 8.48569e-05)
(0.000467018 0.000706428 0.000129669)
(0.000384906 0.000826111 0.000158381)
(0.000280895 0.00090788 0.000171059)
(0.000172385 0.000960331 0.000177993)
(6.09102e-05 0.00098583 0.00018091)
(-5.06222e-05 0.000986501 0.000180958)
(-0.000162068 0.000962361 0.000178141)
(-0.000270541 0.000911334 0.000171324)
(-0.00037445 0.000831121 0.000158774)
(-0.000456456 0.000713264 0.000130302)
(-0.000505404 0.000555241 8.57059e-05)
(-0.000438407 0.000294956 1.74407e-05)
(-0.000534261 0.000127867 1.77776e-05)
(-0.000521716 0.000373676 -2.68269e-05)
(-0.000334552 0.000286537 -3.05648e-05)
(-0.000241546 0.000205139 -2.80765e-05)
(-0.000170292 0.000151268 -2.40942e-05)
(-0.000118405 0.000117076 -2.08319e-05)
(-7.54401e-05 9.62912e-05 -1.89846e-05)
(-3.69258e-05 8.42204e-05 -1.67316e-05)
(-1.09421e-05 7.49474e-05 -8.77453e-06)
(8.00683e-06 4.21879e-05 -5.84163e-06)
(2.67426e-05 4.6989e-05 -1.13732e-05)
(5.42679e-05 5.23846e-05 -1.28934e-05)
(8.41624e-05 6.10652e-05 -1.41109e-05)
(0.000119072 7.40986e-05 -1.6487e-05)
(0.000162831 9.26566e-05 -2.01969e-05)
(0.00021964 0.000118304 -2.52193e-05)
(0.000299379 0.000151745 -3.14066e-05)
(0.0004028 0.000189143 -3.65143e-05)
(0.000566176 0.000213131 -3.87567e-05)
(0.000638103 0.000133673 -2.267e-05)
(0.00065851 0.000269828 -2.95421e-06)
(0.000671866 0.00041295 9.23599e-05)
(0.000579234 0.000519558 0.000139421)
(0.000469373 0.000605747 0.000168678)
(0.000338442 0.000666706 0.000182817)
(0.000206126 0.000706637 0.000190136)
(7.23178e-05 0.000726326 0.000193071)
(-6.08199e-05 0.000726882 0.000193112)
(-0.000194581 0.000708312 0.000190261)
(-0.00032682 0.000669518 0.000183044)
(-0.000457582 0.000609719 0.000169023)
(-0.000567322 0.000524716 0.000139997)
(-0.00065967 0.000419099 9.31632e-05)
(-0.000646074 0.000276423 -1.36984e-06)
(-0.000627952 0.000137287 -2.19001e-05)
(-0.000557899 0.000219313 -3.87732e-05)
(-0.000393044 0.000196696 -3.7227e-05)
(-0.000286893 0.000160424 -3.27102e-05)
(-0.00020319 0.000128233 -2.72149e-05)
(-0.000140838 0.000104256 -2.31931e-05)
(-8.94157e-05 8.81192e-05 -2.09099e-05)
(-4.38424e-05 7.81776e-05 -1.82539e-05)
(-1.31275e-05 6.99665e-05 -9.35057e-06)
(9.05051e-06 3.79067e-05 -6.09228e-06)
(2.99798e-05 4.21327e-05 -1.20666e-05)
(6.07217e-05 4.67283e-05 -1.37444e-05)
(9.42735e-05 5.39933e-05 -1.51025e-05)
(0.000133589 6.46335e-05 -1.7749e-05)
(0.000182666 7.92459e-05 -2.19005e-05)
(0.00024542 9.83267e-05 -2.75559e-05)
(0.000329928 0.000121762 -3.48108e-05)
(0.000434487 0.000146284 -4.17104e-05)
(0.000576226 0.000167037 -4.74231e-05)
(0.000677973 0.000152845 -3.70384e-05)
(0.000760239 0.000223788 -1.17022e-05)
(0.000770506 0.000308953 8.43639e-05)
(0.000662112 0.000382686 0.000128555)
(0.000533553 0.000444765 0.000156577)
(0.000382757 0.00048965 0.000168618)
(0.000232508 0.000519653 0.000174691)
(8.13081e-05 0.0005346 0.000176992)
(-6.87786e-05 0.000535074 0.00017702)
(-0.000219926 0.000521074 0.000174775)
(-0.000370092 0.000492014 0.000168776)
(-0.00052072 0.000448053 0.000156825)
(-0.000649243 0.000386865 0.000129013)
(-0.000757523 0.000313842 8.50214e-05)
(-0.000748048 0.000229183 -1.02975e-05)
(-0.000667671 0.000157341 -3.63967e-05)
(-0.000566625 0.000172708 -4.73623e-05)
(-0.000423616 0.000152933 -4.23957e-05)
(-0.000316244 0.000129466 -3.61467e-05)
(-0.000227515 0.000107222 -2.96612e-05)
(-0.000158664 8.97069e-05 -2.51114e-05)
(-0.000101037 7.72869e-05 -2.25334e-05)
(-4.97203e-05 6.93613e-05 -1.95691e-05)
(-1.50312e-05 6.23449e-05 -9.83838e-06)
(9.88362e-06 3.23558e-05 -6.32247e-06)
(3.25636e-05 3.58479e-05 -1.267e-05)
(6.58174e-05 3.94767e-05 -1.44838e-05)
(0.000102053 4.50975e-05 -1.59661e-05)
(0.000144332 5.31218e-05 -1.8848e-05)
(0.000196568 6.37697e-05 -2.33802e-05)
(0.000262425 7.70459e-05 -2.95857e-05)
(0.000348758 9.2742e-05 -3.76618e-05)
(0.000454012 0.000108868 -4.57114e-05)
(0.000588991 0.000125595 -5.2818e-05)
(0.000706664 0.000132801 -4.35662e-05)
(0.000819091 0.000175105 -2.06237e-05)
(0.000831969 0.000227897 7.46142e-05)
(0.000715754 0.000275718 0.000115908)
(0.000576785 0.000317402 0.000142042)
(0.000413651 0.000348658 0.000152268)
(0.000251256 0.000369963 0.000157272)
(8.77983e-05 0.000380741 0.000159017)
(-7.44003e-05 0.000381155 0.000159032)
(-0.000237817 0.000371197 0.00015732)
(-0.000400158 0.000350686 0.000152365)
(-0.000563172 0.000320176 0.000142205)
(-0.000702215 0.000279172 0.000116258)
(-0.000818451 0.00023188 7.51477e-05)
(-0.000806758 0.000179516 -1.93142e-05)
(-0.00069601 0.000137151 -4.29914e-05)
(-0.000578505 0.000130694 -5.27832e-05)
(-0.00044223 0.000114703 -4.6435e-05)
(-0.00033403 9.94364e-05 -3.90641e-05)
(-0.000243221 8.47601e-05 -3.18048e-05)
(-0.000170798 7.28246e-05 -2.67806e-05)
(-0.000109291 6.40163e-05 -2.39335e-05)
(-5.3962e-05 5.82069e-05 -2.0703e-05)
(-1.63979e-05 5.26229e-05 -1.03032e-05)
(1.05239e-05 2.58815e-05 -6.51461e-06)
(3.45438e-05 2.85834e-05 -1.31586e-05)
(6.96996e-05 3.12647e-05 -1.50752e-05)
(0.000107903 3.53578e-05 -1.66463e-05)
(0.000152263 4.11177e-05 -1.96962e-05)
(0.0002066 4.86319e-05 -2.44952e-05)
(0.000274448 5.78279e-05 -3.10813e-05)
(0.000362014 6.86258e-05 -3.96976e-05)
(0.000468306 8.00368e-05 -4.84766e-05)
(0.000602434 9.30348e-05 -5.64638e-05)
(0.000729064 0.000104426 -4.79789e-05)
(0.000855936 0.00013137 -2.63506e-05)
(0.000871498 0.000164406 6.85976e-05)
(0.000751955 0.000195751 0.000108585)
(0.000606719 0.00022364 0.000133807)
(0.00043548 0.000245044 0.00014306)
(0.00026468 0.000259829 0.000147457)
(9.25292e-05 0.00026742 0.000148885)
(-7.83497e-05 0.000267801 0.000148895)
(-0.000250481 0.00026096 0.000147486)
(-0.000421271 0.000246887 0.000143124)
(-0.000592458 0.000226127 0.000133924)
(-0.000737872 0.000198798 0.000108876)
(-0.000857544 0.000167885 6.90603e-05)
(-0.000843343 0.000135196 -2.51128e-05)
(-0.000718044 0.000108405 -4.74639e-05)
(-0.000591339 9.75056e-05 -5.64691e-05)
(-0.00045584 8.502e-05 -4.92521e-05)
(-0.000346451 7.4248e-05 -4.11696e-05)
(-0.000254183 6.42352e-05 -3.34034e-05)
(-0.000179394 5.60773e-05 -2.8054e-05)
(-0.000115233 4.99729e-05 -2.50232e-05)
(-5.70364e-05 4.58721e-05 -2.1601e-05)
(-1.73955e-05 4.16471e-05 -1.0683e-05)
(1.09629e-05 1.87625e-05 -6.66837e-06)
(3.59097e-05 2.06305e-05 -1.35274e-05)
(7.23705e-05 2.23807e-05 -1.55169e-05)
(0.000111891 2.502e-05 -1.71499e-05)
(0.000157606 2.87058e-05 -2.03158e-05)
(0.00021328 3.34794e-05 -2.52948e-05)
(0.000282428 3.93029e-05 -3.21332e-05)
(0.000371008 4.62004e-05 -4.10892e-05)
(0.00047856 5.38123e-05 -5.03057e-05)
(0.000613671 6.29638e-05 -5.87855e-05)
(0.000745207 7.26394e-05 -5.07986e-05)
(0.000879179 8.92181e-05 -2.98055e-05)
(0.000896523 0.000109214 6.53432e-05)
(0.000775183 0.000128419 0.000104896)
(0.00062621 0.000145636 0.000129771)
(0.000449938 0.000159093 0.0001386)
(0.000273687 0.000168495 0.000142727)
(9.57899e-05 0.000173419 0.00014401)
(-8.08778e-05 0.000173788 0.000144016)
(-0.000258785 0.000169586 0.000142746)
(-0.000435087 0.000160853 0.000138647)
(-0.000611393 0.00014798 0.000129863)
(-0.000760653 0.000131236 0.000105154)
(-0.000882227 0.000112376 6.57631e-05)
(-0.000866344 9.26203e-05 -2.86232e-05)
(-0.000733904 7.61828e-05 -5.03406e-05)
(-0.000602179 6.67852e-05 -5.88433e-05)
(-0.000465626 5.79377e-05 -5.11405e-05)
(-0.000354856 5.0722e-05 -4.2631e-05)
(-0.0002614 4.433e-05 -3.45459e-05)
(-0.000185038 3.9188e-05 -2.89813e-05)
(-0.00011915 3.53437e-05 -2.58271e-05)
(-5.90593e-05 3.27355e-05 -2.22725e-05)
(-1.80427e-05 2.98639e-05 -1.09873e-05)
(1.12149e-05 1.12768e-05 -6.77721e-06)
(3.67041e-05 1.22991e-05 -1.37695e-05)
(7.39274e-05 1.31548e-05 -1.58016e-05)
(0.000114216 1.44292e-05 -1.74694e-05)
(0.000160722 1.62161e-05 -2.07005e-05)
(0.000217197 1.85537e-05 -2.57804e-05)
(0.00028717 2.14674e-05 -3.27591e-05)
(0.000376529 2.50285e-05 -4.19007e-05)
(0.000485089 2.9213e-05 -5.13511e-05)
(0.000621296 3.43976e-05 -6.00885e-05)
(0.000755347 4.03942e-05 -5.23351e-05)
(0.000892542 4.88617e-05 -3.15675e-05)
(0.000910794 5.86756e-05 6.3872e-05)
(0.000788491 6.80888e-05 0.000103371)
(0.000637466 7.6501e-05 0.000128174)
(0.000458393 8.31837e-05 0.000136867)
(0.000279035 8.79246e-05 0.000140901)
(9.78327e-05 9.05194e-05 0.00014213)
(-8.21921e-05 9.08994e-05 0.000142134)
(-0.000263445 8.90429e-05 0.000140913)
(-0.000442931 8.49709e-05 0.000136903)
(-0.000622148 7.88498e-05 0.00012825)
(-0.000773592 7.08515e-05 0.000103606)
(-0.000896259 6.16978e-05 6.42596e-05)
(-0.000879569 5.19918e-05 -3.04361e-05)
(-0.000743907 4.3547e-05 -5.19331e-05)
(-0.000609619 3.76168e-05 -6.02029e-05)
(-0.000471923 3.25109e-05 -5.22456e-05)
(-0.000360064 2.84584e-05 -4.35071e-05)
(-0.000265717 2.50922e-05 -3.5247e-05)
(-0.000188361 2.24699e-05 -2.95628e-05)
(-0.000121434 2.05529e-05 -2.63407e-05)
(-6.02307e-05 1.92534e-05 -2.27102e-05)
(-1.84115e-05 1.76892e-05 -1.11977e-05)
(1.12835e-05 3.66361e-06 -6.84055e-06)
(3.69412e-05 3.83452e-06 -1.38845e-05)
(7.44039e-05 3.80554e-06 -1.593e-05)
(0.000114944 3.7387e-06 -1.76081e-05)
(0.000161729 3.67118e-06 -2.08589e-05)
(0.000218531 3.64585e-06 -2.5969e-05)
(0.000288902 3.75302e-06 -3.29892e-05)
(0.000378754 4.09694e-06 -4.21853e-05)
(0.000487931 4.91262e-06 -5.17017e-05)
(0.000624855 6.13651e-06 -6.05123e-05)
(0.000759675 8.07345e-06 -5.28059e-05)
(0.000897474 9.2252e-06 -3.20507e-05)
(0.000915793 9.78425e-06 6.35781e-05)
(0.000793061 1.01592e-05 0.000103165)
(0.000641337 1.03508e-05 0.000128016)
(0.000461385 1.06416e-05 0.000136726)
(0.000281035 1.09683e-05 0.000140765)
(9.87696e-05 1.13621e-05 0.000141994)
(-8.23591e-05 1.17786e-05 0.000141996)
(-0.000264727 1.21911e-05 0.000140771)
(-0.000445304 1.25812e-05 0.000136751)
(-0.000625545 1.28705e-05 0.000128076)
(-0.000777859 1.30583e-05 0.000103374)
(-0.000901133 1.28611e-05 6.393e-05)
(-0.000884511 1.22495e-05 -3.09778e-05)
(-0.000748284 1.09347e-05 -5.24677e-05)
(-0.000613218 8.83853e-06 -6.06915e-05)
(-0.000474786 7.44997e-06 -5.26591e-05)
(-0.000362274 6.4855e-06 -4.38528e-05)
(-0.000267387 6.0062e-06 -3.55383e-05)
(-0.000189565 5.78066e-06 -2.9817e-05)
(-0.00012222 5.70238e-06 -2.65744e-05)
(-6.06194e-05 5.66135e-06 -2.2919e-05)
(-1.8522e-05 5.39864e-06 -1.13152e-05)
(1.11698e-05 -3.83124e-06 -6.85752e-06)
(3.6623e-05 -4.50517e-06 -1.38725e-05)
(7.38022e-05 -5.42528e-06 -1.59031e-05)
(0.000114077 -6.85283e-06 -1.75674e-05)
(0.000160628 -8.81634e-06 -2.07929e-05)
(0.000217278 -1.12797e-05 -2.58637e-05)
(0.000287621 -1.40923e-05 -3.28286e-05)
(0.000377688 -1.70975e-05 -4.1951e-05)
(0.000487126 -1.97068e-05 -5.13702e-05)
(0.000624452 -2.23372e-05 -6.0077e-05)
(0.000758432 -2.38174e-05 -5.22452e-05)
(0.000894259 -3.00164e-05 -3.13104e-05)
(0.000911731 -3.91896e-05 6.43903e-05)
(0.000789057 -4.82126e-05 0.000104192)
(0.000637945 -5.65478e-05 0.000129199)
(0.000459008 -6.28032e-05 0.000138069)
(0.000279754 -6.69689e-05 0.000142204)
(9.86428e-05 -6.87877e-05 0.000143483)
(-8.13629e-05 -6.8301e-05 0.000143481)
(-0.000262641 -6.55398e-05 0.000142199)
(-0.000442249 -6.05448e-05 0.000138074)
(-0.000621669 -5.36303e-05 0.00012923)
(-0.000773602 -4.49134e-05 0.00010436)
(-0.000897073 -3.57809e-05 6.46894e-05)
(-0.000881502 -2.68622e-05 -3.03174e-05)
(-0.000747314 -2.10875e-05 -5.19886e-05)
(-0.000613099 -2.00167e-05 -6.03367e-05)
(-0.000474274 -1.78147e-05 -5.23991e-05)
(-0.000361507 -1.56489e-05 -4.36802e-05)
(-0.000266421 -1.31213e-05 -3.54278e-05)
(-0.00018866 -1.08457e-05 -2.97495e-05)
(-0.000121517 -9.01629e-06 -2.65324e-05)
(-6.02305e-05 -7.76378e-06 -2.29018e-05)
(-1.83762e-05 -6.72623e-06 -1.13406e-05)
(1.08698e-05 -1.09641e-05 -6.83154e-06)
(3.57363e-05 -1.24712e-05 -1.37367e-05)
(7.20923e-05 -1.43149e-05 -1.57227e-05)
(0.000111553 -1.71855e-05 -1.73472e-05)
(0.000157302 -2.12142e-05 -2.04989e-05)
(0.000213254 -2.64195e-05 -2.54544e-05)
(0.000283083 -3.26273e-05 -3.22573e-05)
(0.000373133 -3.95778e-05 -4.11617e-05)
(0.000482671 -4.60242e-05 -5.0296e-05)
(0.000620705 -5.23168e-05 -5.86898e-05)
(0.00075196 -5.49819e-05 -5.05024e-05)
(0.000882089 -6.95653e-05 -2.90444e-05)
(0.000897555 -9.07759e-05 6.67464e-05)
(0.000775642 -0.000111116 0.000107086)
(0.000626704 -0.000129559 0.00013248)
(0.000450932 -0.000143288 0.000141765)
(0.000275034 -0.000152481 0.00014615)
(9.7432e-05 -0.00015672 0.000147557)
(-7.91061e-05 -0.000156117 0.000147547)
(-0.000256954 -0.000150706 0.000146122)
(-0.000433364 -0.000140477 0.00014173)
(-0.000609874 -0.000125914 0.000132456)
(-0.000759951 -0.000107026 0.000107178)
(-0.000883042 -8.66099e-05 6.69579e-05)
(-0.000869804 -6.59339e-05 -2.81691e-05)
(-0.000741401 -5.21727e-05 -5.03577e-05)
(-0.000609906 -5.01931e-05 -5.90579e-05)
(-0.000470398 -4.46091e-05 -5.14144e-05)
(-0.000357575 -3.89122e-05 -4.29602e-05)
(-0.000262582 -3.27876e-05 -3.49007e-05)
(-0.000185462 -2.75364e-05 -2.93535e-05)
(-0.000119208 -2.34923e-05 -2.6213e-05)
(-5.90061e-05 -2.07818e-05 -2.26607e-05)
(-1.79572e-05 -1.84058e-05 -1.12772e-05)
(1.03709e-05 -1.74598e-05 -6.7693e-06)
(3.42429e-05 -1.97517e-05 -1.34853e-05)
(6.91841e-05 -2.25242e-05 -1.53984e-05)
(0.00010718 -2.68932e-05 -1.69585e-05)
(0.000151393 -3.31513e-05 -1.99877e-05)
(0.000205864 -4.14657e-05 -2.47471e-05)
(0.000274453 -5.17673e-05 -3.12688e-05)
(0.000364248 -6.3719e-05 -3.97716e-05)
(0.00047424 -7.50836e-05 -4.83597e-05)
(0.000615168 -8.5196e-05 -5.60933e-05)
(0.000740889 -8.30416e-05 -4.73353e-05)
(0.000858319 -0.000108613 -2.48351e-05)
(0.000870044 -0.000147942 7.13955e-05)
(0.000750132 -0.000183412 0.000113035)
(0.000605677 -0.000214699 0.000139292)
(0.000436013 -0.000237445 0.000149477)
(0.000266281 -0.000252529 0.0001544)
(9.49927e-05 -0.000259523 0.000156075)
(-7.53358e-05 -0.000258742 0.000156049)
(-0.000246962 -0.000250212 0.000154324)
(-0.000417388 -0.000233747 0.000149361)
(-0.000588125 -0.000209831 0.000139158)
(-0.000734159 -0.000177923 0.000112986)
(-0.000855846 -0.000142318 7.14571e-05)
(-0.000846914 -0.000103954 -2.41442e-05)
(-0.000731271 -7.98996e-05 -4.73581e-05)
(-0.000605208 -8.30127e-05 -5.66272e-05)
(-0.000462846 -7.38924e-05 -4.96075e-05)
(-0.000349643 -6.36013e-05 -4.16623e-05)
(-0.000255036 -5.28324e-05 -3.39603e-05)
(-0.000179371 -4.39039e-05 -2.86412e-05)
(-0.000114929 -3.72627e-05 -2.56298e-05)