/*--------------------------------*- C++ -*----------------------------------*\
| =========                 |                                                 |
| \\      /  F ield         | OpenFOAM: The Open Source CFD Toolbox           |
|  \\    /   O peration     | Version:  2112                                  |
|   \\  /    A nd           | Website:  www.openfoam.com                      |
|    \\/     M anipulation  |                                                 |
\*---------------------------------------------------------------------------*/
FoamFile
{
    version     2.0;
    format      ascii;
    arch        "LSB;label=32;scalar=64";
    class       volScalarField;
    location    "1.8";
    object      epsilon;
}
// * * * * * * * * * * * * * * * * * * * * * * * * * * * * * * * * * * * * * //

dimensions      [0 2 -3 0 0 0 0];

internalField   nonuniform List<scalar> 
64906
(
0.00138918
0.00152341
0.00158944
0.00161218
0.00161882
0.00162056
0.001621
0.00162113
0.00162119
0.00162124
0.00162127
0.0016213
0.00162132
0.00162133
0.00162132
0.00162131
0.0016213
0.00162128
0.00162127
0.00162128
0.00162129
0.0016213
0.00162131
0.0016213
0.00162128
0.00162125
0.0016212
0.00162107
0.00162063
0.00161889
0.00161225
0.00158951
0.00152348
0.00138924
0.00152345
0.00247601
0.00293581
0.00311388
0.00317441
0.00319267
0.00319765
0.00319894
0.00319931
0.00319945
0.00319956
0.00319965
0.00319975
0.00319983
0.0031999
0.00319995
0.00319998
0.0032
0.0032
0.00319999
0.00319996
0.00319992
0.00319985
0.00319977
0.00319967
0.00319953
0.00319918
0.00319791
0.00319294
0.00317469
0.00311415
0.00293606
0.00247622
0.00152356
0.00158955
0.00293596
0.00364087
0.00393841
0.00404882
0.00408508
0.00409579
0.00409871
0.00409949
0.0040997
0.00409985
0.00410007
0.00410037
0.00410069
0.00410096
0.00410117
0.0041013
0.00410137
0.00410137
0.00410132
0.0041012
0.00410101
0.00410075
0.00410044
0.00410013
0.00409977
0.00409902
0.00409619
0.00408558
0.00404936
0.00393895
0.00364137
0.00293635
0.00158973
0.00161235
0.00311416
0.00393857
0.00430417
0.0044467
0.00449581
0.00451087
0.00451489
0.00451549
0.00451505
0.00451456
0.00451462
0.00451504
0.00451563
0.00451617
0.00451653
0.00451674
0.00451684
0.00451685
0.00451677
0.00451659
0.00451625
0.00451573
0.00451515
0.00451469
0.00451443
0.00451397
0.00451057
0.00449608
0.0044473
0.00430488
0.00393926
0.00311469
0.00161257
0.00161902
0.00317476
0.00404907
0.00444681
0.00460593
0.00466201
0.00467915
0.00468268
0.00468105
0.00467724
0.00467372
0.00467264
0.0046731
0.00467417
0.00467517
0.00467565
0.00467583
0.00467591
0.00467592
0.00467587
0.00467572
0.00467526
0.00467429
0.00467323
0.00467273
0.00467355
0.00467591
0.00467511
0.0046605
0.00460593
0.00444745
0.00404986
0.0031754
0.00161929
0.00162077
0.00319304
0.00408537
0.00449595
0.00466205
0.00472071
0.00473715
0.00473654
0.00472646
0.00471072
0.00469673
0.0046929
0.00469419
0.00469691
0.00469912
0.00469966
0.00469956
0.00469946
0.00469948
0.00469961
0.00469975
0.00469924
0.00469706
0.00469435
0.00469301
0.00469655
0.00470928
0.00472006
0.00471281
0.00465957
0.00449588
0.00408607
0.00319373
0.00162109
0.00162122
0.00319801
0.00409605
0.00451099
0.00467919
0.00473721
0.0047487
0.00473523
0.00470001
0.00464791
0.00460266
0.00459744
0.00460617
0.00461552
0.00462158
0.00462225
0.00462146
0.00462099
0.00462101
0.00462153
0.00462236
0.00462172
0.0046157
0.00460636
0.00459758
0.0046025
0.00464648
0.00469352
0.00471101
0.00466957
0.00450867
0.00409624
0.00319868
0.00162157
0.00162134
0.00319925
0.0040989
0.00451496
0.00468279
0.00473694
0.00473598
0.00469112
0.00459149
0.00443969
0.00430608
0.00432612
0.00437288
0.00440514
0.00442182
0.00442363
0.00442216
0.0044213
0.00442133
0.00442223
0.00442375
0.00442199
0.00440535
0.00437311
0.00432631
0.00430596
0.00443836
0.00458515
0.00466698
0.00465659
0.00450741
0.0040978
0.00319974
0.00162171
0.00162139
0.00319954
0.00409959
0.00451559
0.00468155
0.0047282
0.00470387
0.00459661
0.00435608
0.00395316
0.00356381
0.00375391
0.00394261
0.00403788
0.0040768
0.00408361
0.00408339
0.00408292
0.00408294
0.00408347
0.00408374
0.00407699
0.00403813
0.00394291
0.0037542
0.00356373
0.00395204
0.00435008
0.00457289
0.0046248
0.00449869
0.00409614
0.00319963
0.00162177
0.00162141
0.00319959
0.00409974
0.00451534
0.00467888
0.0047161
0.00466048
0.00446065
0.00397362
0.00301333
0.00196019
0.00276818
0.00334562
0.00356775
0.00363758
0.0036561
0.00366029
0.00366112
0.00366115
0.00366036
0.00365622
0.00363776
0.00356801
0.00334599
0.00276864
0.00196012
0.00301254
0.0039681
0.00443744
0.00458185
0.00448682
0.00409342
0.00319913
0.00162178
0.00162141
0.00319959
0.00409985
0.00451536
0.00467774
0.00470972
0.00463438
0.00436462
0.00363478
0.00198557
0.00186019
0.00287866
0.00322291
0.00331619
0.00333805
0.00334225
0.00334291
0.00334292
0.00334228
0.0033381
0.00331629
0.00322311
0.00287902
0.00186041
0.00198526
0.00362962
0.00434165
0.00455589
0.00448042
0.00409208
0.00319884
0.00162178
0.0016214
0.00319957
0.00410009
0.00451619
0.00468023
0.00471772
0.00466156
0.00445889
0.00396484
0.00299234
0.00194424
0.00267348
0.00321357
0.00341678
0.00347721
0.00348984
0.00349024
0.00348954
0.00348953
0.00349021
0.00348979
0.00347715
0.00341673
0.00321356
0.00267332
0.00194387
0.00299086
0.00395889
0.00443538
0.00458258
0.0044879
0.00409398
0.00319907
0.00162179
0.00162137
0.00319955
0.00410041
0.0045174
0.00468429
0.0047313
0.00470536
0.0045912
0.00433237
0.00389201
0.00344088
0.00351249
0.00358939
0.00362609
0.00363846
0.00363899
0.00363702
0.00363587
0.00363585
0.00363697
0.0036389
0.00363832
0.00362589
0.00358911
0.003512
0.00343995
0.00389017
0.0043259
0.00456708
0.00462571
0.00450077
0.00409733
0.0031996
0.00162177
0.00162133
0.00319952
0.00410068
0.00451845
0.00468776
0.00474236
0.00473871
0.00468265
0.00455267
0.00433572
0.0040861
0.00393208
0.00380577
0.00374956
0.00373011
0.00372273
0.00371953
0.00371829
0.00371827
0.00371946
0.00372261
0.00372994
0.00374931
0.00380542
0.0039316
0.00408521
0.00433379
0.0045459
0.00465805
0.00465848
0.00451119
0.00410013
0.00320003
0.00162173
0.00162128
0.00319948
0.00410087
0.00451917
0.00468992
0.00474882
0.00475693
0.00472896
0.004654
0.00451601
0.00431908
0.00410063
0.0038993
0.003804
0.00376977
0.00375842
0.00375446
0.00375307
0.00375303
0.00375436
0.00375827
0.00376957
0.00380373
0.00389894
0.00409996
0.00431826
0.00451406
0.00464709
0.00470409
0.00467632
0.0045172
0.00410182
0.00320026
0.00162166
0.00162122
0.00319944
0.00410099
0.00451959
0.00469107
0.00475193
0.00476506
0.00474825
0.00469321
0.00458022
0.00439614
0.00415897
0.00393261
0.00382362
0.00378391
0.00377092
0.0037665
0.00376488
0.00376483
0.00376638
0.00377075
0.00378369
0.00382333
0.00393225
0.00415832
0.00439535
0.00457827
0.00468625
0.00472326
0.00468425
0.00452005
0.00410267
0.00320035
0.00162158
0.00162117
0.0031994
0.00410106
0.00451983
0.00469163
0.00475326
0.00476823
0.00475524
0.00470649
0.0046006
0.00441936
0.00417684
0.00394288
0.00382972
0.00378826
0.00377467
0.00376997
0.0037681
0.00376803
0.00376982
0.00377448
0.00378803
0.00382943
0.00394251
0.0041762
0.00441859
0.00459866
0.00469951
0.00473019
0.00468733
0.00452125
0.00410305
0.00320037
0.0016215
0.00162111
0.00319937
0.00410111
0.00451995
0.00469189
0.00475378
0.00476932
0.00475743
0.00471039
0.00460626
0.00442556
0.00418164
0.00394565
0.00383138
0.00378942
0.00377561
0.00377074
0.00376867
0.00376857
0.00377057
0.00377541
0.00378918
0.00383108
0.00394528
0.00418101
0.0044248
0.00460434
0.00470342
0.00473238
0.0046884
0.00452172
0.00410322
0.00320036
0.00162141
0.00162107
0.00319936
0.00410113
0.00452
0.00469195
0.00475387
0.00476944
0.00475759
0.00471059
0.00460649
0.00442581
0.00418188
0.00394579
0.00383146
0.00378945
0.00377559
0.00377064
0.00376844
0.00376833
0.00377045
0.00377537
0.00378921
0.00383117
0.00394543
0.00418127
0.00442507
0.00460459
0.00470364
0.00473255
0.00468853
0.00452181
0.00410327
0.00320035
0.00162135
0.00162106
0.00319938
0.00410113
0.00451997
0.00469184
0.00475354
0.0047686
0.00475571
0.00470709
0.00460132
0.00442015
0.0041776
0.00394334
0.00383
0.00378838
0.00377463
0.0037697
0.00376752
0.0037674
0.0037695
0.0037744
0.00378814
0.00382971
0.00394299
0.00417702
0.00441945
0.00459946
0.00470019
0.00473073
0.00468774
0.00452154
0.00410321
0.00320036
0.00162135
0.00162111
0.00319941
0.00410111
0.00451982
0.00469142
0.0047524
0.00476569
0.00474908
0.00469427
0.00458152
0.00439761
0.00416043
0.00393349
0.00382419
0.0037842
0.00377094
0.00376617
0.00376416
0.00376406
0.00376597
0.00377071
0.00378396
0.00382391
0.00393317
0.00415991
0.00439698
0.00457973
0.00468745
0.0047242
0.00468495
0.00452053
0.00410293
0.00320036
0.00162142
0.00162117
0.00319947
0.00410104
0.0045195
0.00469042
0.00474949
0.00475783
0.00473017
0.00465562
0.00451811
0.00432157
0.00410314
0.00390081
0.00380502
0.00377038
0.00375864
0.00375427
0.00375251
0.00375244
0.0037541
0.00375843
0.00377016
0.00380479
0.00390056
0.00410275
0.00432106
0.00451645
0.00464896
0.0047055
0.00467734
0.0045179
0.00410221
0.00320031
0.0016215
0.00162122
0.00319952
0.0041009
0.00451889
0.0046884
0.00474325
0.00473991
0.0046843
0.00455498
0.00433892
0.00409013
0.00393582
0.0038081
0.00375113
0.00373112
0.00372329
0.0037197
0.00371819
0.00371814
0.00371957
0.00372312
0.00373095
0.00375096
0.00380797
0.00393568
0.00408982
0.0043375
0.0045486
0.00465998
0.00465985
0.00451211
0.00410064
0.00320012
0.00162158
0.00162127
0.00319958
0.00410069
0.00451793
0.00468508
0.00473238
0.00470684
0.00459327
0.00433538
0.00389639
0.0034468
0.00351719
0.00359197
0.00362755
0.00363924
0.00363933
0.00363704
0.00363572
0.00363569
0.00363695
0.0036392
0.00363909
0.00362741
0.00359197
0.00351747
0.0034468
0.00389535
0.00432944
0.00456949
0.0046274
0.00450191
0.00409797
0.00319974
0.00162163
0.00162131
0.00319961
0.00410041
0.00451678
0.00468111
0.00471894
0.00466321
0.00446119
0.00396815
0.00299704
0.00194687
0.00267591
0.00321236
0.00341394
0.00347329
0.00348535
0.00348547
0.00348463
0.0034846
0.00348537
0.00348514
0.00347287
0.00341327
0.00321172
0.00267625
0.00194671
0.00299648
0.00396263
0.00443794
0.00458442
0.00448918
0.00409472
0.00319926
0.00162166
0.00162133
0.00319961
0.0041001
0.00451584
0.0046785
0.00471079
0.00463577
0.00436619
0.00363631
0.00198597
0.00185483
0.0028623
0.00319965
0.00328839
0.0033084
0.00331193
0.0033123
0.00331221
0.00331158
0.00330754
0.00328638
0.00319562
0.00285649
0.00185197
0.00198497
0.00363027
0.00434282
0.00455725
0.00448155
0.00409278
0.00319902
0.00162167
0.00162132
0.0031994
0.00409943
0.00451498
0.00467865
0.00471616
0.00466087
0.00446119
0.00397385
0.0030128
0.00195863
0.00273797
0.00328617
0.00347672
0.00352709
0.00353966
0.00354258
0.0035431
0.00354293
0.0035418
0.00353718
0.00351997
0.00346005
0.00325753
0.00271502
0.00195247
0.00300518
0.00396371
0.00443596
0.00458178
0.00448708
0.0040936
0.00319911
0.00162167
0.00162123
0.00319826
0.00409674
0.00451149
0.00467687
0.00472345
0.00469915
0.0045912
0.00434758
0.00393585
0.00352514
0.00366144
0.00377279
0.00378045
0.00376986
0.00376374
0.00376176
0.00376121
0.00376093
0.00376033
0.00375851
0.00375302
0.00373639
0.00368823
0.00358281
0.00347472
0.0039058
0.00432766
0.00456223
0.00461908
0.004495
0.00409379
0.00319854
0.00162161
0.00162081
0.0031934
0.00408627
0.00449707
0.00466198
0.00471494
0.00471337
0.00466667
0.00456031
0.00438904
0.00420884
0.00413471
0.00403863
0.00391372
0.00385332
0.00383222
0.0038261
0.00382453
0.00382416
0.00382418
0.0038248
0.00382797
0.0038409
0.00388329
0.00398686
0.0041091
0.00433375
0.0045299
0.00463429
0.00463348
0.0044897
0.00408567
0.00319412
0.0016212
0.00161908
0.00317521
0.00405013
0.00444838
0.00460741
0.00466143
0.00467119
0.00465519
0.00461172
0.00453588
0.00443451
0.00432069
0.00416682
0.00400356
0.00392682
0.00390034
0.00389277
0.00389091
0.00389054
0.00389073
0.00389222
0.00389876
0.0039227
0.00399476
0.00415433
0.00432076
0.00447341
0.00457889
0.00462335
0.00459528
0.00444626
0.00405089
0.00317617
0.00161945
0.00161244
0.00311468
0.00393973
0.00430597
0.00444893
0.00449775
0.00451051
0.00450731
0.00449073
0.00445641
0.00439863
0.00431173
0.00419184
0.00406907
0.00400582
0.00398233
0.00397547
0.00397385
0.00397356
0.00397372
0.00397516
0.00398165
0.0040043
0.00406639
0.00418892
0.00431298
0.00440906
0.00446559
0.00448138
0.00444503
0.0043064
0.00394108
0.00311569
0.00161279
0.00158968
0.00293652
0.00364206
0.00394023
0.00405121
0.00408785
0.00409831
0.00409927
0.00409407
0.00408038
0.00405315
0.00400686
0.00394172
0.00387547
0.0038385
0.00382373
0.00381916
0.00381804
0.00381785
0.00381799
0.00381904
0.00382349
0.00383802
0.00387471
0.00394097
0.00400715
0.00405512
0.00408034
0.00408272
0.00405117
0.00394165
0.0036435
0.00293745
0.00159
0.0015236
0.00247653
0.00293683
0.00311537
0.00317636
0.00319506
0.0032004
0.00320166
0.00320089
0.0031973
0.00318877
0.00317281
0.0031495
0.00312521
0.00311085
0.00310472
0.00310269
0.00310214
0.00310204
0.00310214
0.0031027
0.00310471
0.00311078
0.00312509
0.00314935
0.00317284
0.00318892
0.00319638
0.00319494
0.00317755
0.00311675
0.00293796
0.00247723
0.00152387
0.00138931
0.00152367
0.00158988
0.0016128
0.00161962
0.00162157
0.00162223
0.00162258
0.00162282
0.00162291
0.00162263
0.0016217
0.00162002
0.00161802
0.00161675
0.00161612
0.00161578
0.00161557
0.00161549
0.00161559
0.00161579
0.00161611
0.00161673
0.00161796
0.00161992
0.00162158
0.0016225
0.00162269
0.00162222
0.00162028
0.00161337
0.00159033
0.00152397
0.00138949
0.00180188
0.00235518
0.00264879
0.00276402
0.0028027
0.00281415
0.00281721
0.00281796
0.00281813
0.00281816
0.00281816
0.00281814
0.00281812
0.00281809
0.00281807
0.00281804
0.00281802
0.00281801
0.00281801
0.00281802
0.00281803
0.00281805
0.00281808
0.0028181
0.00281811
0.0028181
0.00281795
0.00281722
0.00281419
0.00280275
0.00276407
0.00264884
0.00235523
0.00180193
0.00235519
0.00271623
0.00305541
0.00320944
0.00326672
0.0032851
0.00329031
0.00329162
0.00329191
0.00329193
0.00329189
0.00329185
0.00329182
0.0032918
0.00329179
0.00329178
0.00329177
0.00329177
0.00329177
0.00329177
0.00329179
0.0032918
0.00329181
0.00329183
0.00329184
0.00329182
0.00329157
0.0032903
0.00328513
0.00326677
0.0032095
0.00305547
0.00271629
0.00235524
0.00264889
0.00305547
0.00346748
0.0036689
0.00374976
0.00377776
0.00378629
0.00378857
0.00378902
0.00378898
0.00378883
0.00378875
0.00378874
0.00378877
0.00378881
0.00378884
0.00378885
0.00378886
0.00378886
0.00378886
0.00378885
0.00378883
0.00378879
0.00378875
0.00378874
0.0037887
0.0037883
0.00378616
0.00377776
0.00374985
0.00366903
0.00346763
0.00305561
0.00264903
0.00276422
0.00320957
0.00366897
0.00390195
0.00399943
0.00403464
0.00404573
0.00404861
0.00404882
0.00404818
0.00404745
0.0040471
0.00404707
0.00404719
0.00404733
0.0040474
0.00404743
0.00404744
0.00404745
0.00404744
0.00404742
0.00404735
0.00404722
0.0040471
0.00404709
0.00404727
0.00404722
0.00404489
0.00403431
0.00399944
0.00390213
0.00366921
0.00320979
0.00276444
0.00280296
0.0032669
0.00374989
0.00399949
0.00410618
0.00414547
0.00415775
0.00416013
0.00415863
0.00415552
0.00415262
0.00415133
0.00415125
0.0041516
0.00415194
0.00415207
0.00415207
0.00415206
0.00415206
0.00415209
0.0041521
0.00415197
0.00415164
0.00415129
0.00415133
0.0041524
0.00415438
0.004154
0.00414367
0.00410561
0.00399951
0.00375013
0.00326716
0.00280324
0.00281444
0.00328529
0.0037779
0.00403472
0.0041455
0.00418627
0.00419789
0.00419722
0.00418982
0.00417874
0.00416911
0.00416567
0.00416618
0.00416757
0.00416853
0.00416884
0.00416876
0.00416865
0.00416866
0.00416877
0.00416887
0.00416858
0.00416762
0.00416623
0.00416567
0.00416887
0.00417751
0.00418485
0.00417969
0.00414293
0.00403407
0.00377798
0.00328553
0.00281476
0.00281751
0.00329048
0.00378642
0.00404582
0.00415781
0.00419796
0.00420598
0.00419644
0.00417253
0.00413907
0.00411164
0.00410503
0.00411019
0.00411588
0.0041189
0.00411997
0.00411987
0.00411963
0.00411964
0.00411989
0.00412001
0.00411895
0.00411594
0.00411026
0.00410505
0.0041114
0.00413781
0.00416744
0.00417849
0.00414991
0.00404331
0.00378596
0.00329061
0.0028178
0.00281825
0.00329177
0.00378868
0.00404871
0.0041603
0.00419763
0.00419707
0.00416705
0.00410389
0.0040157
0.00394896
0.00393969
0.0039643
0.00398407
0.00399271
0.0039966
0.00399708
0.00399684
0.00399685
0.00399711
0.00399664
0.00399277
0.00398416
0.00396439
0.00393973
0.00394873
0.00401444
0.00409878
0.004149
0.00414065
0.00404216
0.00378702
0.00329159
0.00281844
0.0028184
0.00329202
0.00378913
0.00404901
0.0041592
0.00419134
0.00417557
0.0041078
0.00396792
0.0037684
0.00365881
0.00361804
0.00369835
0.00375441
0.00377503
0.00378655
0.00378936
0.00378962
0.00378963
0.00378939
0.0037866
0.00377511
0.00375452
0.00369848
0.00361813
0.00365857
0.00376715
0.00396282
0.00408974
0.00411904
0.00403561
0.00378545
0.0032913
0.00281836
0.0028184
0.00329201
0.0037891
0.00404862
0.00415707
0.00418302
0.0041485
0.00403179
0.00378711
0.00345563
0.00410323
0.00317185
0.00333495
0.00345708
0.0034971
0.00352101
0.00352776
0.00352898
0.00352899
0.00352779
0.00352107
0.00349719
0.00345721
0.00333513
0.00317199
0.00410256
0.00345425
0.00378193
0.00401365
0.00409187
0.00402712
0.00378307
0.00329064
0.00281805
0.00281835
0.00329195
0.00378904
0.00404842
0.00415603
0.00417878
0.00413427
0.00399305
0.00373221
0.00425305
0.00356646
0.00310126
0.00325044
0.00332031
0.00333312
0.00333414
0.00333396
0.00333396
0.00333415
0.00333315
0.00332036
0.00325055
0.00310142
0.00356689
0.00424968
0.00372674
0.00397475
0.00407748
0.00402267
0.00378178
0.00329021
0.00281781
0.00281829
0.00329189
0.0037891
0.0040488
0.00415738
0.00418321
0.00414791
0.00402885
0.00377847
0.00343301
0.00400174
0.00309937
0.00328914
0.00343413
0.00352185
0.00349353
0.00347886
0.00347503
0.00347502
0.00347883
0.00349348
0.00352181
0.0034341
0.0032891
0.00309914
0.0040003
0.00343133
0.0037731
0.00401053
0.00409103
0.00402693
0.00378288
0.00329036
0.00281783
0.00281822
0.00329185
0.00378923
0.0040495
0.00415995
0.00419181
0.00417428
0.0041012
0.00394836
0.00372088
0.00355867
0.00346661
0.0035186
0.00355596
0.00358003
0.00356927
0.00356212
0.00355979
0.00355978
0.00356209
0.00356922
0.00357997
0.00355587
0.00351845
0.00346631
0.00355806
0.00371931
0.00394302
0.00408285
0.00411731
0.00403535
0.00378522
0.00329085
0.00281798
0.00281814
0.00329182
0.00378935
0.00405013
0.00416222
0.00419916
0.00419589
0.00415757
0.00407443
0.00394553
0.00381029
0.0037172
0.00367381
0.00364308
0.00363174
0.00362402
0.00362036
0.00361912
0.00361911
0.00362034
0.00362397
0.00363167
0.00364297
0.00367364
0.00371692
0.00380974
0.003944
0.00406907
0.00413916
0.00413879
0.0040425
0.00378726
0.00329128
0.00281809
0.00281806
0.00329178
0.00378943
0.00405054
0.00416364
0.00420355
0.00420821
0.0041881
0.00413874
0.00405451
0.00394412
0.00383343
0.00374844
0.00368758
0.00366187
0.00365269
0.00364966
0.00364876
0.00364875
0.00364964
0.00365265
0.0036618
0.00368746
0.00374827
0.00383314
0.0039436
0.00405299
0.00413336
0.00416962
0.00415099
0.00404673
0.0037885
0.00329154
0.0028181
0.00281798
0.00329175
0.00378947
0.00405077
0.00416436
0.00420565
0.00421382
0.00420132
0.00416517
0.00409717
0.00399562
0.00387712
0.00377678
0.00370484
0.00367404
0.00366379
0.00366075
0.00365992
0.00365991
0.00366072
0.00366375
0.00367397
0.00370473
0.00377661
0.00387684
0.00399512
0.00409567
0.00415978
0.00418279
0.00415652
0.00404873
0.0037891
0.00329165
0.00281805
0.00281791
0.00329173
0.00378949
0.00405088
0.00416468
0.00420652
0.00421599
0.00420617
0.00417443
0.00411145
0.00401233
0.00389109
0.00378581
0.00371037
0.00367797
0.00366729
0.00366419
0.00366335
0.00366334
0.00366416
0.00366725
0.0036779
0.00371026
0.00378565
0.00389082
0.00401184
0.00410995
0.00416903
0.00418762
0.00415865
0.00404953
0.00378934
0.00329168
0.00281798
0.00281786
0.00329171
0.0037895
0.00405092
0.00416481
0.00420682
0.0042167
0.00420766
0.00417714
0.00411547
0.00401689
0.00389486
0.00378823
0.00371185
0.00367902
0.00366821
0.00366507
0.00366421
0.00366419
0.00366504
0.00366817
0.00367895
0.00371174
0.00378807
0.00389459
0.0040164
0.00411397
0.00417174
0.00418911
0.00415934
0.00404981
0.00378943
0.00329168
0.00281791
0.00281783
0.00329171
0.0037895
0.00405094
0.00416484
0.00420686
0.00421674
0.00420772
0.00417721
0.00411555
0.00401698
0.00389495
0.0037883
0.0037119
0.00367905
0.00366822
0.00366507
0.00366419
0.00366417
0.00366504
0.00366818
0.00367898
0.00371179
0.00378814
0.00389469
0.0040165
0.00411407
0.00417182
0.00418917
0.00415939
0.00404984
0.00378945
0.00329168
0.00281787
0.00281784
0.00329172
0.00378951
0.00405092
0.00416475
0.00420661
0.00421612
0.00420634
0.00417464
0.00411171
0.00401262
0.00389139
0.00378604
0.00371053
0.00367807
0.00366735
0.00366421
0.00366333
0.00366331
0.00366418
0.00366731
0.00367801
0.00371043
0.00378589
0.00389114
0.00401216
0.00411024
0.00416927
0.00418781
0.00415879
0.00404962
0.00378939
0.00329168
0.00281788
0.00281788
0.00329174
0.0037895
0.00405084
0.00416448
0.00420582
0.00421404
0.00420162
0.00416557
0.00409767
0.00399621
0.00387772
0.00377725
0.00370519
0.00367428
0.00366397
0.00366087
0.00365999
0.00365998
0.00366085
0.00366393
0.00367423
0.0037051
0.00377712
0.0038775
0.00399577
0.00409623
0.00416023
0.00418313
0.00415676
0.00404888
0.00378917
0.00329165
0.00281791
0.00281794
0.00329178
0.00378947
0.00405065
0.00416381
0.00420379
0.00420854
0.00418856
0.00413937
0.00405536
0.00394517
0.00383454
0.0037493
0.00368824
0.00366238
0.00365313
0.00365005
0.00364912
0.00364911
0.00365004
0.00365311
0.00366235
0.00368819
0.00374921
0.00383437
0.00394479
0.00405397
0.00413409
0.00417014
0.00415135
0.00404696
0.00378861
0.00329155
0.00281794
0.00281802
0.00329181
0.00378941
0.00405027
0.00416244
0.00419948
0.00419634
0.00415822
0.00407538
0.0039469
0.00381204
0.00371896
0.00367518
0.00364413
0.00363258
0.00362482
0.00362115
0.0036199
0.0036199
0.00362116
0.00362483
0.00363259
0.00364413
0.00367518
0.00371891
0.00381173
0.00394557
0.00407016
0.0041399
0.00413927
0.0040428
0.00378741
0.00329131
0.00281792
0.00281809
0.00329185
0.0037893
0.00404966
0.00416021
0.0041922
0.00417484
0.00410202
0.00394962
0.00372278
0.0035612
0.00346899
0.00352005
0.0035568
0.00358054
0.00356981
0.00356269
0.00356037
0.00356038
0.00356271
0.00356983
0.00358056
0.0035568
0.00352005
0.003469
0.00356094
0.00372147
0.00394442
0.00408376
0.0041179
0.00403571
0.00378539
0.00329088
0.0028178
0.00281815
0.00329188
0.00378916
0.00404895
0.00415765
0.00418361
0.00414848
0.00402968
0.00377972
0.00343495
0.00400845
0.00309987
0.00328758
0.00343122
0.00351826
0.00348966
0.00347486
0.00347102
0.00347102
0.00347486
0.00348959
0.00351807
0.00343064
0.00328664
0.00309889
0.00400778
0.00343319
0.00377425
0.00401131
0.00409158
0.00402728
0.00378305
0.00329038
0.00281764
0.00281819
0.00329187
0.00378899
0.00404842
0.00415612
0.00417898
0.00413458
0.00399341
0.00373245
0.00425153
0.00354273
0.00308406
0.00322715
0.00329283
0.00330407
0.00330468
0.0033044
0.00330435
0.00330446
0.00330339
0.00329101
0.00322307
0.00307697
0.00352867
0.00424374
0.00372563
0.00397453
0.00407758
0.0040228
0.00378182
0.00329016
0.00281758
0.00281808
0.00329165
0.00378852
0.00404788
0.00415629
0.00418226
0.00414773
0.00403077
0.0037851
0.00345002
0.00407296
0.0031373
0.00328062
0.00338175
0.00340838
0.00342691
0.00343254
0.00343363
0.0034335
0.00343196
0.00342492
0.00340256
0.00336822
0.00325769
0.00311045
0.00403317
0.00343814
0.00377547
0.00401082
0.00409053
0.00402633
0.00378252
0.00329028
0.00281765
0.0028174
0.00329041
0.00378636
0.00404531
0.00415496
0.00418684
0.00417077
0.00410207
0.0039592
0.00375123
0.0036202
0.00354517
0.00357941
0.00359204
0.00358439
0.00358339
0.00358333
0.00358321
0.00358298
0.00358219
0.00357927
0.00357184
0.00356268
0.00353366
0.00349401
0.00357916
0.00372845
0.00394427
0.00408015
0.00411327
0.00403159
0.00378264
0.00328966
0.00281727
0.00281439
0.00328527
0.00377798
0.00403466
0.00414424
0.00418054
0.00417919
0.0041474
0.0040791
0.00397743
0.00388079
0.00382023
0.00377844
0.00374173
0.00370605
0.00369083
0.00368608
0.00368481
0.0036845
0.00368443
0.00368463
0.00368666
0.00369669
0.00372023
0.00375057
0.0038259
0.00394463
0.00405916
0.00412383
0.00412211
0.00402753
0.00377621
0.00328504
0.0028145
0.00280296
0.00326694
0.00375008
0.00399977
0.00410607
0.00414343
0.00414989
0.00413807
0.00410817
0.00405951
0.00399962
0.00393735
0.0038703
0.00381367
0.00376729
0.00374713
0.00374067
0.00373896
0.00373862
0.00373883
0.00374021
0.00374579
0.00376408
0.00380718
0.00386324
0.00394156
0.00402428
0.0040872
0.00411503
0.00409544
0.00399663
0.00374949
0.00326701
0.00280319
0.00276427
0.00320965
0.00366924
0.00390243
0.00399992
0.00403451
0.00404336
0.00404034
0.00402782
0.00400412
0.00396774
0.00391814
0.00385724
0.00380074
0.00376143
0.00374399
0.00373814
0.00373652
0.0037362
0.00373648
0.00373802
0.00374362
0.00376051
0.00379906
0.00385582
0.00392026
0.00397548
0.0040107
0.00402079
0.00399525
0.00390131
0.00366922
0.00320984
0.00276453
0.00264899
0.00305559
0.00346779
0.00366946
0.00375049
0.00377841
0.00378624
0.00378632
0.00378142
0.00377033
0.0037504
0.00371939
0.00367905
0.00364014
0.00361452
0.00360284
0.00359873
0.00359753
0.00359729
0.00359754
0.00359873
0.0036028
0.00361435
0.00363983
0.0036789
0.00372021
0.00375236
0.00377049
0.0037724
0.00374876
0.00366926
0.00346798
0.00305578
0.00264922
0.00235531
0.00271636
0.00305572
0.00320997
0.00326745
0.00328593
0.00329103
0.00329169
0.00329003
0.00328544
0.00327614
0.00326033
0.0032387
0.00321713
0.00320332
0.00319698
0.00319468
0.00319397
0.00319383
0.003194
0.00319473
0.00319705
0.00320337
0.00321717
0.00323879
0.00326065
0.00327656
0.00328464
0.00328384
0.00326709
0.00321014
0.00305594
0.00271649
0.00235548
0.00180199
0.00235532
0.00264915
0.00276465
0.00280357
0.00281524
0.00281843
0.00281905
0.00281841
0.00281605
0.00281068
0.00280076
0.00278633
0.00277139
0.00276237
0.00275837
0.00275687
0.00275636
0.00275624
0.00275639
0.00275693
0.00275843
0.00276241
0.00277141
0.00278635
0.00280086
0.00281079
0.00281545
0.00281466
0.00280384
0.00276508
0.00264947
0.00235549
0.00180214
0.00200486
0.00286229
0.00334691
0.00355106
0.00362495
0.00364852
0.00365522
0.00365693
0.00365729
0.00365729
0.00365719
0.00365708
0.00365699
0.00365691
0.00365685
0.0036568
0.00365676
0.00365674
0.00365673
0.00365675
0.00365679
0.00365684
0.0036569
0.00365697
0.00365704
0.00365706
0.00365676
0.00365512
0.00364846
0.00362492
0.00355104
0.00334691
0.0028623
0.00200491
0.00286228
0.00311353
0.00347356
0.0036535
0.00372608
0.00375118
0.00375879
0.00376082
0.00376125
0.00376125
0.00376114
0.00376103
0.00376095
0.00376089
0.00376085
0.00376082
0.0037608
0.00376078
0.00376078
0.0037608
0.00376082
0.00376085
0.00376089
0.00376094
0.003761
0.003761
0.00376062
0.00375866
0.00375111
0.00372606
0.00365351
0.00347359
0.00311356
0.00286229
0.00334702
0.0034736
0.00384631
0.00405087
0.00414042
0.0041739
0.00418482
0.00418787
0.00418845
0.00418828
0.00418795
0.00418768
0.00418753
0.00418746
0.00418743
0.00418741
0.00418739
0.00418738
0.00418738
0.00418739
0.00418742
0.00418744
0.00418747
0.00418753
0.00418764
0.00418771
0.00418724
0.00418441
0.00417371
0.00414038
0.00405093
0.00384643
0.00347371
0.0033471
0.00355129
0.0036536
0.00405093
0.00427756
0.00438088
0.00442114
0.00443468
0.00443831
0.00443847
0.00443745
0.00443626
0.00443546
0.0044351
0.004435
0.00443499
0.00443498
0.00443495
0.00443493
0.00443493
0.00443495
0.00443499
0.004435
0.00443502
0.00443511
0.0044354
0.00443592
0.00443603
0.00443316
0.00442037
0.00438062
0.00427759
0.0040511
0.00365379
0.00355147
0.00362527
0.00372623
0.00414053
0.00438093
0.00449273
0.00453705
0.00455176
0.00455465
0.00455264
0.00454859
0.00454464
0.00454234
0.00454157
0.00454144
0.00454145
0.00454147
0.00454141
0.00454134
0.00454135
0.00454142
0.00454149
0.00454147
0.00454146
0.00454157
0.00454227
0.00454424
0.00454691
0.00454646
0.00453423
0.00449158
0.00438067
0.00414065
0.00372644
0.00362552
0.00364889
0.00375135
0.00417404
0.00442122
0.0045371
0.0045829
0.00459665
0.00459585
0.00458706
0.00457422
0.00456279
0.00455708
0.00455619
0.00455654
0.00455666
0.00455702
0.00455698
0.00455684
0.00455684
0.00455699
0.00455703
0.00455669
0.00455656
0.0045562
0.004557
0.00456236
0.0045724
0.0045804
0.0045741
0.00453326
0.00441995
0.00417385
0.00375149
0.00364912
0.00365561
0.00375896
0.00418496
0.00443479
0.00455188
0.0045968
0.00460627
0.00459556
0.00456953
0.00453473
0.00450614
0.00449365
0.00449593
0.00449908
0.00449954
0.00450174
0.00450222
0.00450205
0.00450205
0.00450223
0.00450176
0.00449957
0.00449912
0.00449595
0.00449358
0.00450568
0.00453284
0.00456266
0.00457321
0.00454146
0.00443102
0.00418394
0.00375886
0.00365569
0.00365731
0.00376097
0.00418801
0.00443849
0.00455501
0.00459657
0.00459657
0.00456493
0.00450208
0.00442095
0.00436309
0.00433183
0.00434921
0.00436243
0.00436254
0.00437224
0.00437498
0.00437504
0.00437505
0.00437499
0.00437227
0.00436259
0.00436249
0.00434926
0.00433178
0.00436262
0.00441901
0.00449509
0.00454231
0.00453117
0.00442967
0.00418532
0.00376034
0.00365702
0.00365764
0.00376138
0.00418863
0.00443887
0.00455368
0.00458949
0.00457405
0.00450776
0.00438288
0.0042303
0.00419231
0.0040389
0.00409743
0.00413845
0.0041333
0.00416627
0.00417534
0.00417638
0.00417639
0.00417537
0.00416632
0.00413335
0.00413854
0.00409754
0.0040389
0.00419178
0.00422824
0.00437572
0.0044849
0.00450829
0.00442207
0.00418328
0.00375991
0.0036567
0.00365761
0.00376138
0.00418857
0.00443833
0.00455115
0.0045806
0.00454809
0.00444397
0.00425993
0.00412947
0.00550695
0.00365712
0.00376633
0.00386805
0.00384855
0.00392992
0.00395146
0.00395473
0.00395474
0.0039515
0.00392999
0.00384862
0.00386819
0.00376652
0.00365712
0.0055053
0.00412687
0.00425238
0.00442074
0.00448194
0.00441277
0.00418032
0.00375894
0.00365589
0.0036575
0.00376129
0.00418846
0.00443801
0.00454988
0.00457632
0.00453637
0.00442367
0.00431263
0.00587725
0.004162
0.00349556
0.00365558
0.00374818
0.00374322
0.00373735
0.00373563
0.00373564
0.00373736
0.00374325
0.00374825
0.00365571
0.00349572
0.00416246
0.00586899
0.00430435
0.00440007