/*--------------------------------*- C++ -*----------------------------------*\
| =========                 |                                                 |
| \\      /  F ield         | OpenFOAM: The Open Source CFD Toolbox           |
|  \\    /   O peration     | Version:  2112                                  |
|   \\  /    A nd           | Website:  www.openfoam.com                      |
|    \\/     M anipulation  |                                                 |
\*---------------------------------------------------------------------------*/
FoamFile
{
    version     2.0;
    format      ascii;
    arch        "LSB;label=32;scalar=64";
    class       volScalarField;
    location    "1.8";
    object      k;
}
// * * * * * * * * * * * * * * * * * * * * * * * * * * * * * * * * * * * * * //

dimensions      [0 2 -2 0 0 0 0];

internalField   nonuniform List<scalar> 
64906
(
0.00111342
0.0011861
0.00122152
0.00123381
0.00123746
0.00123844
0.00123869
0.00123876
0.0012388
0.00123882
0.00123884
0.00123885
0.00123886
0.00123887
0.00123886
0.00123886
0.00123885
0.00123884
0.00123883
0.00123884
0.00123885
0.00123885
0.00123885
0.00123885
0.00123884
0.00123882
0.0012388
0.00123873
0.00123847
0.00123749
0.00123384
0.00122155
0.00118614
0.00111345
0.00118612
0.00164614
0.00184826
0.00192488
0.00195111
0.00195917
0.00196142
0.00196201
0.00196218
0.00196224
0.00196228
0.00196232
0.00196236
0.00196239
0.00196242
0.00196244
0.00196245
0.00196246
0.00196246
0.00196246
0.00196244
0.00196243
0.0019624
0.00196236
0.00196232
0.00196226
0.00196211
0.00196152
0.00195929
0.00195123
0.00192499
0.00184837
0.00164623
0.00118618
0.00122158
0.00184833
0.00213886
0.00225749
0.00230157
0.00231628
0.00232071
0.00232194
0.00232226
0.00232233
0.00232238
0.00232245
0.00232256
0.00232268
0.00232279
0.00232286
0.00232291
0.00232294
0.00232294
0.00232292
0.00232288
0.00232281
0.0023227
0.00232259
0.00232247
0.00232234
0.00232203
0.00232085
0.00231646
0.00230178
0.0022577
0.00213906
0.00184849
0.00122167
0.0012339
0.001925
0.00225755
0.00239949
0.00245476
0.00247407
0.0024801
0.00248173
0.00248197
0.00248176
0.00248153
0.00248151
0.00248165
0.00248186
0.00248206
0.00248219
0.00248226
0.0024823
0.0024823
0.00248228
0.00248221
0.00248209
0.00248189
0.00248168
0.00248153
0.00248146
0.00248129
0.00247992
0.00247413
0.00245496
0.00239975
0.00225782
0.00192522
0.00123402
0.00123757
0.00195126
0.00230167
0.0024548
0.00251592
0.00253775
0.00254454
0.00254595
0.00254527
0.00254372
0.00254227
0.00254176
0.00254187
0.00254224
0.0025426
0.00254277
0.00254283
0.00254285
0.00254286
0.00254285
0.0025428
0.00254264
0.00254228
0.00254191
0.00254179
0.00254219
0.00254315
0.00254283
0.00253706
0.00251586
0.00245501
0.00230197
0.00195153
0.00123771
0.00123855
0.00195933
0.00231639
0.00247412
0.00253777
0.00256053
0.00256701
0.00256676
0.00256278
0.00255661
0.0025511
0.0025494
0.00254972
0.00255067
0.00255148
0.00255166
0.00255161
0.00255156
0.00255157
0.00255163
0.0025517
0.00255153
0.00255073
0.00254978
0.00254944
0.00255101
0.002556
0.00256015
0.00255727
0.00253667
0.00247403
0.00231664
0.00195962
0.00123872
0.0012388
0.00196157
0.00232081
0.00248015
0.00254456
0.00256704
0.00257155
0.0025663
0.00255268
0.00253268
0.00251526
0.0025127
0.0025156
0.00251897
0.00252122
0.00252145
0.00252112
0.00252093
0.00252093
0.00252115
0.00252149
0.00252128
0.00251904
0.00251567
0.00251275
0.00251517
0.00253207
0.00255
0.0025566
0.0025406
0.00247912
0.00232083
0.00196184
0.00123899
0.00123887
0.00196214
0.00232201
0.00248177
0.00254601
0.00256694
0.00256662
0.00254937
0.00251134
0.00245358
0.00240239
0.00240871
0.00242563
0.00243762
0.00244394
0.0024446
0.002444
0.00244365
0.00244366
0.00244403
0.00244464
0.002444
0.0024377
0.00242572
0.00240878
0.00240232
0.002453
0.0025087
0.00253967
0.00253553
0.0024786
0.00232147
0.00196232
0.00123907
0.0012389
0.00196228
0.0023223
0.00248202
0.00254551
0.00256353
0.00255427
0.00251342
0.00242191
0.00226665
0.00211254
0.00218562
0.00225815
0.00229481
0.00230993
0.00231257
0.00231245
0.00231225
0.00231226
0.00231248
0.00231262
0.00231
0.0022949
0.00225826
0.00218574
0.00211249
0.00226613
0.00241937
0.00250382
0.00252323
0.00247513
0.00232077
0.00196226
0.00123909
0.00123891
0.0019623
0.00232236
0.00248191
0.00254444
0.00255885
0.00253779
0.00246204
0.00227509
0.00188626
0.00141085
0.00177747
0.00201847
0.00210802
0.00213609
0.00214358
0.00214528
0.00214562
0.00214563
0.00214531
0.00214363
0.00213617
0.00210813
0.00201863
0.00177767
0.00141081
0.00188587
0.00227267
0.00245254
0.00250681
0.00247046
0.00231963
0.00196203
0.0012391
0.00123891
0.0019623
0.0023224
0.00248191
0.00254399
0.0025564
0.00252797
0.00242588
0.00214241
0.00142381
0.00135982
0.00182255
0.00196661
0.0020051
0.00201422
0.002016
0.00201629
0.00201629
0.00201601
0.00201424
0.00200515
0.00196669
0.0018227
0.00135993
0.00142362
0.00214008
0.00241641
0.00249699
0.00246796
0.00231908
0.00196189
0.0012391
0.0012389
0.00196229
0.0023225
0.00248223
0.00254494
0.00255943
0.00253811
0.00246118
0.00227129
0.00187672
0.00140245
0.00173398
0.00196152
0.00204426
0.00206869
0.002074
0.00207423
0.00207396
0.00207396
0.00207422
0.00207398
0.00206867
0.00204424
0.00196151
0.0017339
0.00140226
0.00187602
0.00226871
0.00245157
0.002507
0.00247083
0.00231984
0.001962
0.0012391
0.00123889
0.00196228
0.00232262
0.00248271
0.00254653
0.00256463
0.00255466
0.00251096
0.00241197
0.00224094
0.00205983
0.00208475
0.0021133
0.00212723
0.00213199
0.00213224
0.00213147
0.00213101
0.002131
0.00213145
0.0021322
0.00213194
0.00212715
0.00211319
0.00208454
0.00205942
0.00224014
0.00240924
0.00250119
0.00252339
0.00247585
0.00232121
0.00196224
0.00123909
0.00123887
0.00196227
0.00232274
0.00248314
0.0025479
0.00256894
0.00256742
0.00254556
0.00249533
0.00241142
0.00231353
0.00225077
0.00219919
0.00217606
0.00216803
0.00216501
0.00216372
0.00216322
0.00216321
0.00216369
0.00216496
0.00216796
0.00217596
0.00219905
0.00225057
0.00231316
0.0024106
0.00249252
0.00253567
0.00253599
0.00247997
0.00232238
0.00196244
0.00123907
0.00123884
0.00196225
0.00232282
0.00248342
0.00254877
0.00257148
0.00257449
0.00256329
0.00253378
0.00247987
0.00240283
0.00231651
0.0022363
0.00219776
0.00218378
0.00217914
0.00217752
0.00217696
0.00217695
0.00217749
0.00217908
0.0021837
0.00219765
0.00223616
0.00231624
0.00240249
0.00247905
0.00253093
0.00255332
0.00254296
0.00248238
0.00232309
0.00196256
0.00123904
0.00123881
0.00196224
0.00232287
0.00248359
0.00254923
0.00257273
0.0025777
0.00257078
0.00254883
0.00250442
0.00243246
0.00233939
0.00224965
0.00220568
0.00218948
0.00218416
0.00218236
0.0021817
0.00218168
0.00218231
0.00218409
0.00218939
0.00220556
0.0022495
0.00233914
0.00243214
0.0025036
0.00254597
0.00256077
0.0025461
0.00248354
0.00232345
0.0019626
0.00123899
0.00123878
0.00196222
0.0023229
0.00248369
0.00254945
0.00257326
0.00257896
0.00257354
0.00255401
0.00251232
0.00244151
0.00234649
0.00225382
0.00220818
0.00219126
0.00218569
0.00218377
0.00218302
0.00218299
0.00218371
0.00218562
0.00219117
0.00220806
0.00225367
0.00234624
0.0024412
0.00251151
0.00255114
0.00256351
0.00254734
0.00248404
0.00232361
0.00196261
0.00123895
0.00123875
0.00196221
0.00232291
0.00248374
0.00254955
0.00257347
0.0025794
0.00257441
0.00255555
0.00251455
0.00244396
0.00234842
0.00225496
0.00220886
0.00219174
0.00218608
0.0021841
0.00218326
0.00218322
0.00218403
0.002186
0.00219165
0.00220874
0.00225481
0.00234817
0.00244365
0.00251374
0.00255269
0.00256438
0.00254776
0.00248423
0.00232368
0.00196261
0.0012389
0.00123873
0.0019622
0.00232292
0.00248375
0.00254958
0.00257351
0.00257945
0.00257447
0.00255563
0.00251463
0.00244406
0.00234852
0.00225501
0.0022089
0.00219176
0.00218607
0.00218406
0.00218317
0.00218313
0.00218398
0.00218599
0.00219166
0.00220878
0.00225487
0.00234827
0.00244375
0.00251384
0.00255277
0.00256445
0.00254781
0.00248426
0.0023237
0.00196261
0.00123887
0.00123872
0.00196221
0.00232292
0.00248374
0.00254953
0.00257337
0.0025791
0.00257372
0.00255424
0.00251259
0.00244181
0.00234679
0.00225401
0.00220829
0.00219131
0.00218568
0.00218367
0.00218279
0.00218274
0.00218359
0.00218559
0.00219121
0.00220817
0.00225386
0.00234656
0.00244153
0.00251181
0.0025514
0.00256371
0.00254749
0.00248414
0.00232367
0.00196261
0.00123887
0.00123875
0.00196223
0.00232291
0.00248368
0.00254936
0.00257291
0.00257793
0.00257109
0.00254923
0.00250491
0.00243303
0.00233997
0.00225
0.00220591
0.0021896
0.00218417
0.00218223
0.00218142
0.00218138
0.00218215
0.00218408
0.0021895
0.0022058
0.00224987
0.00233976
0.00243277
0.00250416
0.00254642
0.00256113
0.00254636
0.00248373
0.00232355
0.00196261
0.00123891
0.00123878
0.00196225
0.00232288
0.00248355
0.00254895
0.00257174
0.00257483
0.00256374
0.00253439
0.00248067
0.00240379
0.0023175
0.00223691
0.00219817
0.00218403
0.00217923
0.00217745
0.00217674
0.00217671
0.00217738
0.00217915
0.00218394
0.00219808
0.00223681
0.00231734
0.00240357
0.00247996
0.00253164
0.00255385
0.00254334
0.00248265
0.00232324
0.00196258
0.00123895
0.00123881
0.00196227
0.00232283
0.0024833
0.00254814
0.00256927
0.00256787
0.00254619
0.00249621
0.00241266
0.00231511
0.00225224
0.00220013
0.0021767
0.00216843
0.00216524
0.00216379
0.00216318
0.00216316
0.00216373
0.00216517
0.00216836
0.00217663
0.00220008
0.00225218
0.00231497
0.00241204
0.00249355
0.0025364
0.00253651
0.00248032
0.00232258
0.00196248
0.00123899
0.00123884
0.00196229
0.00232273
0.00248291
0.00254682
0.00256504
0.00255521
0.00251174
0.00241313
0.00224269
0.00206228
0.00208669
0.00211436
0.0021278
0.00213228
0.00213235
0.00213145
0.00213092
0.00213091
0.00213141
0.00213229
0.00213222
0.00212775
0.00211435
0.00208681
0.00206227
0.00224221
0.0024106
0.00250211
0.00252402
0.00247628
0.00232146
0.00196231
0.00123902
0.00123885
0.00196231
0.00232262
0.00248245
0.00254527
0.00255988
0.00253872
0.00246206
0.0022726
0.00187877
0.00140378
0.00173506
0.00196095
0.00204298
0.00206695
0.00207201
0.00207213
0.00207181
0.00207179
0.00207209
0.00207192
0.00206677
0.00204269
0.00196066
0.00173521
0.00140369
0.00187847
0.00227018
0.00245253
0.00250768
0.00247131
0.00232012
0.00196208
0.00123903
0.00123887
0.0019623
0.00232249
0.00248207
0.00254425
0.00255679
0.00252846
0.00242645
0.002143
0.001424
0.00135699
0.00181506
0.00195633
0.00199294
0.00200128
0.00200278
0.00200294
0.0020029
0.00200263
0.0020009
0.00199206
0.00195456
0.00181241
0.00135548
0.00142345
0.00214027
0.0024168
0.00249746
0.00246837
0.00231934
0.00196197
0.00123904
0.00123886
0.0019622
0.0023222
0.00248172
0.00254429
0.00255879
0.00253784
0.00246213
0.00227504
0.00188585
0.00140988
0.00176332
0.00199252
0.00206931
0.00208945
0.00209452
0.00209572
0.00209593
0.00209586
0.00209539
0.00209347
0.00208644
0.00206224
0.00198016
0.0017527
0.00140663
0.00188228
0.00227063
0.00245177
0.00250666
0.00247048
0.00231966
0.001962
0.00123904
0.00123881
0.00196167
0.00232107
0.00248029
0.00254353
0.00256151
0.00255223
0.00251104
0.00241818
0.00225908
0.00209554
0.00214651
0.00218815
0.00218994
0.00218527
0.00218269
0.00218187
0.00218163
0.00218152
0.00218127
0.00218053
0.00217835
0.00217193
0.00215357
0.00211375
0.002074
0.00224648
0.00240992
0.00249927
0.00252074
0.00247351
0.00231971
0.00196174
0.001239
0.00123857
0.00195948
0.00231673
0.00247451
0.00253763
0.00255809
0.00255747
0.0025394
0.00249854
0.00243277
0.00236264
0.0023316
0.00229234
0.00224232
0.00221792
0.00220933
0.00220682
0.00220617
0.00220602
0.00220602
0.00220628
0.0022076
0.00221296
0.00223042
0.00227269
0.00232272
0.00241061
0.00248624
0.00252633
0.00252611
0.00247135
0.00231637
0.00195975
0.00123877
0.0012376
0.00195145
0.00230208
0.00245537
0.00251641
0.00253737
0.00254115
0.00253479
0.00251771
0.00248808
0.00244832
0.00240316
0.00234244
0.0022779
0.00224715
0.00223642
0.00223332
0.00223255
0.0022324
0.00223248
0.0022331
0.00223578
0.0022455
0.00227446
0.00233778
0.00240355
0.00246332
0.00250449
0.00252194
0.00251131
0.00245435
0.00230231
0.00195184
0.00123779
0.00123394
0.00192522
0.00225801
0.00240017
0.00245558
0.00247473
0.00247976
0.00247839
0.00247163
0.0024578
0.00243468
0.00240007
0.00235261
0.00230397
0.00227863
0.00226912
0.00226631
0.00226563
0.00226551
0.00226558
0.00226619
0.00226885
0.00227803
0.00230293
0.00235154
0.00240069
0.0024388
0.00246135
0.00246781
0.00245378
0.00240022
0.0022585
0.00192564
0.00123413
0.00122164
0.00184857
0.00213934
0.00225821
0.0023025
0.00231733
0.00232161
0.00232195
0.00231968
0.00231386
0.00230248
0.00228336
0.00225671
0.00222968
0.00221448
0.00220835
0.00220643
0.00220595
0.00220587
0.00220593
0.00220638
0.00220825
0.00221429
0.00222938
0.00225643
0.00228352
0.0023033
0.00231382
0.00231497
0.00230234
0.00225872
0.00213991
0.00184897
0.00122181
0.00118621
0.00164638
0.0018487
0.00192551
0.00195194
0.00196018
0.00196256
0.0019631
0.00196269
0.00196098
0.00195704
0.00194979
0.00193934
0.00192852
0.00192208
0.00191932
0.0019184
0.00191814
0.0019181
0.00191815
0.0019184
0.00191932
0.00192206
0.00192846
0.00193928
0.00194982
0.00195711
0.00196056
0.00196
0.0019524
0.00192609
0.00184919
0.0016467
0.00118635
0.00111349
0.00118624
0.00122175
0.00123414
0.00123789
0.00123898
0.00123934
0.00123953
0.00123965
0.00123968
0.00123949
0.00123894
0.00123797
0.00123684
0.00123613
0.00123577
0.00123558
0.00123547
0.00123542
0.00123548
0.00123559
0.00123576
0.00123611
0.00123681
0.00123792
0.00123888
0.00123943
0.00123956
0.00123931
0.00123824
0.00123444
0.00122199
0.0011864
0.00111359
0.00157292
0.0018863
0.00204414
0.00210543
0.00212622
0.00213249
0.0021342
0.00213463
0.00213473
0.00213475
0.00213475
0.00213473
0.00213472
0.00213471
0.00213469
0.00213468
0.00213467
0.00213466
0.00213466
0.00213467
0.00213468
0.00213469
0.0021347
0.00213471
0.00213472
0.00213471
0.00213462
0.00213421
0.00213251
0.00212624
0.00210545
0.00204416
0.00188633
0.00157294
0.00188631
0.00339772
0.00395341
0.00418185
0.0042684
0.00429775
0.00430662
0.00430898
0.00430946
0.00430941
0.00430924
0.00430905
0.00430891
0.0043088
0.00430872
0.00430865
0.0043086
0.00430858
0.00430858
0.00430861
0.00430865
0.00430872
0.0043088
0.0043089
0.00430902
0.00430907
0.00430867
0.00430641
0.00429763
0.00426834
0.00418181
0.00395338
0.0033977
0.00188634
0.00204419
0.00395354
0.00468362
0.00500284
0.00513235
0.00517953
0.00519484
0.00519915
0.00519998
0.00519976
0.00519931
0.00519896
0.00519877
0.00519871
0.0051987
0.00519868
0.00519866
0.00519865
0.00519865
0.00519867
0.00519869
0.00519872
0.00519873
0.00519878
0.00519891
0.00519898
0.0051983
0.0051943
0.00517929
0.0051323
0.00500288
0.00468369
0.00395361
0.00204426
0.00210553
0.00418208
0.00500295
0.00537563
0.00553301
0.00559271
0.00561269
0.00561808
0.00561835
0.00561685
0.00561508
0.00561392
0.00561341
0.00561333
0.00561339
0.00561339
0.00561333
0.0056133
0.0056133
0.00561335
0.00561341
0.00561342
0.00561336
0.00561343
0.00561385
0.0056146
0.00561475
0.00561049
0.00559162
0.00553264
0.00537562
0.00500308
0.00418222
0.00210565
0.00212635
0.00426868
0.00513253
0.00553309
0.00570599
0.00577281
0.00579486
0.0057992
0.00579613
0.00578987
0.00578366
0.00578003
0.00577864
0.00577853
0.00577875
0.00577866
0.00577842
0.00577827
0.00577827
0.00577844
0.00577869
0.00577879
0.00577858
0.00577867
0.00577995
0.00578308
0.00578735
0.00578683
0.00576856
0.00570425
0.00553261
0.00513256
0.00426883
0.0021265
0.00213265
0.00429804
0.00517974
0.00559283
0.00577286
0.00584226
0.00586294
0.00586157
0.0058478
0.00582722
0.00580827
0.00579907
0.00579662
0.00579721
0.00579821
0.00579789
0.00579714
0.00579669
0.00579669
0.00579716
0.00579793
0.00579826
0.00579727
0.00579666
0.00579899
0.00580764
0.00582449
0.00583777
0.00582879
0.00576702
0.00559083
0.00517931
0.00429809
0.00213281
0.00213436
0.00430688
0.00519504
0.00561283
0.00579501
0.00586314
0.00587718
0.00586013
0.00581807
0.00575903
0.00570715
0.00569004
0.00569067
0.00569606
0.00570023
0.00569979
0.0056981
0.0056971
0.00569711
0.00569813
0.00569984
0.0057003
0.00569613
0.00569073
0.00568998
0.00570653
0.00575624
0.00580775
0.00582646
0.00577901
0.00560705
0.0051934
0.00430663
0.00213451
0.00213479
0.00430921
0.00519934
0.00561831
0.00579969
0.0058626
0.00586159
0.00580993
0.00570231
0.00554796
0.00541421
0.00540278
0.00542976
0.00545422
0.0054681
0.00546877
0.00546625
0.00546474
0.00546475
0.00546628
0.00546882
0.00546817
0.00545431
0.00542984
0.00540276
0.00541364
0.00554523
0.00569198
0.00577598
0.00576261
0.00560481
0.00519524
0.00430827
0.00213487
0.00213487
0.00430965
0.00520021
0.00561888
0.00579761
0.00585134
0.00582456
0.00571007
0.00546984
0.00508857
0.00472854
0.00482683
0.00496843
0.00504953
0.00508489
0.00509151
0.00509051
0.0050894
0.00508941
0.00509054
0.00509156
0.00508497
0.00504964
0.00496857
0.0048269
0.00472806
0.00508597
0.00545958
0.00567607
0.00572529
0.00559293
0.00519217
0.00430761
0.00213482
0.00213487
0.00430959
0.00520013
0.00561808
0.00579363
0.00583668
0.00577829
0.00557806
0.00511891
0.00419872
0.00275069
0.00380128
0.00433127
0.00453642
0.00460297
0.00462536
0.00463042
0.00463111
0.00463112
0.00463045
0.00462542
0.00460305
0.00453656
0.0043315
0.00380157
0.00275035
0.00419632
0.00510866
0.00554391
0.00567875
0.00557788
0.0051877
0.00430628
0.00213464
0.00213485
0.00430943
0.00519998
0.00561761
0.00579159
0.00582898
0.00575223
0.00549397
0.00483558
0.0028203
0.00249596
0.00381331
0.00414474
0.00424164
0.00426501
0.00426924
0.00426971
0.00426972
0.00426925
0.00426504
0.0042417
0.00414486
0.00381358
0.00249617
0.00281858
0.00482521
0.00545958
0.0056524
0.00556983
0.00518524
0.00430539
0.00213451
0.00213482
0.00430928
0.00520005
0.00561822
0.0057938
0.0058363
0.00577589
0.00557056
0.00510061
0.00415938
0.00270154
0.00365672
0.00416281
0.00435871
0.00442959
0.00443472
0.00443161
0.00442996
0.00442995
0.00443157
0.00443466
0.00442952
0.00435864
0.00416275
0.00365651
0.00270083
0.00415646
0.00509006
0.00553614
0.00567599
0.00557694
0.00518711
0.00430555
0.00213452
0.00213478
0.00430919
0.00520029
0.00561948
0.0057983
0.00585081
0.00581951
0.00569305
0.00542594
0.00499083
0.00453688
0.00450303
0.004526
0.00454829
0.00456086
0.00455846
0.00455504
0.00455348
0.00455347
0.004555
0.0045584
0.00456077
0.00454815
0.00452576
0.00450259
0.00453593
0.00498779
0.00541533
0.00565862
0.00571956
0.00559129
0.0051913
0.0043064
0.00213461
0.00213474
0.00430912
0.00520053
0.00562068
0.00580242
0.00586358
0.00585552
0.00578471
0.00563353
0.00539333
0.00511568
0.00491073
0.00474552
0.00467047
0.00464534
0.00463611
0.00463254
0.00463134
0.00463133
0.00463252
0.00463606
0.00464525
0.00467031
0.00474527
0.00491035
0.00511478
0.0053903
0.00562286
0.0057502
0.00575544
0.00560385
0.00519511
0.00430721
0.00213468
0.0021347
0.00430905
0.00520069
0.00562148
0.0058051
0.00587151
0.00587672
0.00583495
0.00573643
0.00556769
0.00533663
0.00508267
0.00484796
0.00473058
0.00468785
0.00467447
0.00467056
0.00466953
0.00466952
0.00467054
0.00467443
0.00468778
0.00473044
0.00484774
0.00508238
0.00533578
0.00556466
0.00572571
0.00580034
0.0057765
0.00561158
0.00519752
0.00430771
0.0021347
0.00213466
0.00430899
0.00520077
0.00562191
0.0058065
0.00587547
0.00588678
0.00585749
0.00577952
0.00563505
0.00541639
0.0051465
0.00488757
0.0047544
0.00470488
0.00468969
0.00468557
0.00468459
0.00468459
0.00468555
0.00468966
0.00470482
0.00475427
0.00488736
0.00514623
0.00541558
0.00563202
0.00576876
0.00582281
0.00578644
0.00561537
0.00519872
0.00430794
0.00213468
0.00213462
0.00430895
0.00520081
0.00562212
0.00580713
0.00587714
0.00589084
0.00586613
0.00579518
0.00565816
0.00544248
0.00516737
0.00490069
0.00476237
0.00471061
0.00469477
0.00469057
0.00468961
0.00468961
0.00469056
0.00469475
0.00471055
0.00476225
0.0049005
0.00516711
0.00544168
0.00565514
0.00578441
0.00583141
0.00579043
0.00561695
0.00519923
0.00430801
0.00213464
0.00213459
0.00430893
0.00520082
0.0056222
0.00580737
0.00587774
0.00589219
0.00586888
0.00579994
0.00566489
0.00544979
0.00517315
0.00490436
0.00476461
0.00471221
0.00469619
0.00469196
0.004691
0.00469099
0.00469194
0.00469617
0.00471215
0.00476449
0.00490417
0.0051729
0.00544899
0.00566187
0.00578917
0.00583415
0.00579175
0.00561749
0.00519941
0.00430803
0.00213461
0.00213458
0.00430892
0.00520083
0.00562222
0.00580739
0.00587778
0.00589225
0.00586895
0.00580003
0.00566498
0.00544989
0.00517325
0.00490446
0.00476468
0.00471225
0.00469622
0.00469198
0.00469101
0.004691
0.00469196
0.00469619
0.00471219
0.00476456
0.00490427
0.005173
0.0054491
0.00566197
0.00578926
0.00583422
0.00579181
0.00561753
0.00519942
0.00430802
0.00213459
0.00213458
0.00430894
0.00520083
0.00562217
0.00580721
0.00587727
0.00589101
0.00586635
0.00579544
0.00565847
0.00544281
0.00516769
0.00490103
0.00476261
0.00471076
0.00469489
0.00469067
0.00468969
0.00468969
0.00469066
0.00469487
0.00471072
0.0047625
0.00490085
0.00516745
0.00544203
0.00565548
0.00578471
0.00583165
0.0057906
0.00561706
0.00519928
0.004308
0.00213459
0.0021346
0.00430897
0.00520081
0.00562201
0.00580665
0.00587568
0.00588707
0.00585787
0.00578
0.00563564
0.00541706
0.00514717
0.00488826
0.00475493
0.00470528
0.00469003
0.00468589
0.0046849
0.0046849
0.00468589
0.00469002
0.00470525
0.00475484
0.00488812
0.00514696
0.00541631
0.00563269
0.00576932
0.00582324
0.00578675
0.00561557
0.00519881
0.00430793
0.00213461
0.00213464
0.00430903
0.00520075
0.00562161
0.00580532
0.00587182
0.00587715
0.00583553
0.00573722
0.00556873
0.00533787
0.00508395
0.00484924
0.00473161
0.00468872
0.0046753
0.00467138
0.00467035
0.00467036
0.0046714
0.00467532
0.00468873
0.00473158
0.00484916
0.0050838
0.00533719
0.00556586
0.00572662
0.00580101
0.00577696
0.00561186
0.00519765
0.0043077
0.00213462
0.00213467
0.00430909
0.0052006
0.00562085
0.0058027
0.00586399
0.00585609
0.00578553
0.00563472
0.00539505
0.00511792
0.00491301
0.00474758
0.00467215
0.00464684
0.00463761
0.00463409
0.00463292
0.00463294
0.00463413
0.00463768
0.00464691
0.00467221
0.00474762
0.00491301
0.00511736
0.00539229
0.00562424
0.00575113
0.00575606
0.00560423
0.00519529
0.0043072
0.0021346
0.00213471
0.00430915
0.00520036
0.00561968
0.00579862
0.00585129
0.0058202
0.00569407
0.00542754
0.00499339
0.00454065
0.00450662
0.00452827
0.00454978
0.00456206
0.0045597
0.00455637
0.0045549
0.00455492
0.00455644
0.0045598
0.00456216
0.00454983
0.00452831
0.00450678
0.00454027
0.0049908
0.00541713
0.00565972
0.00572027
0.00559173
0.00519149
0.00430638
0.00213452
0.00213475
0.00430921
0.00520007
0.00561836
0.00579407
0.00583673
0.00577653
0.00557152
0.0051022
0.00416242
0.00270467
0.00365855
0.00416063
0.00435444
0.00442422
0.00442908
0.00442601
0.00442444
0.00442446
0.00442605
0.00442905
0.00442392
0.00435362
0.00415947
0.00365845
0.00270431
0.00415992
0.00509147
0.0055369
0.00567651
0.00557728
0.00518724
0.00430547
0.00213442
0.00213476
0.0043092
0.00519973
0.00561737
0.00579141
0.00582889
0.00575223
0.00549397
0.00483545
0.00281951
0.00248395
0.00378724
0.00410934
0.00420005
0.00422146
0.00422536
0.00422581
0.00422575
0.00422508
0.00422052
0.00419739
0.00410339
0.00377756
0.00247688
0.00281563
0.00482288
0.0054583
0.00565186
0.00556958
0.00518504
0.00430511
0.00213438
0.0021347
0.00430877
0.00519876
0.00561625
0.00579154
0.00583446
0.00577586
0.00557494
0.005114
0.00419008
0.00273561
0.00374283
0.00423807
0.00440632
0.00444962
0.00446592
0.00447045
0.00447131
0.00447114
0.00446957
0.00446286
0.00444047
0.00438411
0.00419819
0.00370161
0.00271636
0.00417264
0.00509514
0.00553675
0.00567491
0.00557559
0.00518621
0.00430533
0.00213442
0.0021343
0.00430653
0.00519462
0.0056113
0.00578875
0.0058417
0.005814
0.00569719
0.00545061
0.00505324
0.00465587
0.00468564
0.00473668
0.00472051
0.00469961
0.00469202
0.00468977
0.00468909
0.00468875
0.00468802
0.00468553
0.00467896
0.0046667
0.00463463
0.0045809
0.00457966
0.00500755
0.0054193
0.00565446
0.0057123
0.00558416
0.00518626
0.00430427
0.0021342
0.00213262
0.00429777
0.00517957
0.00559213
0.00576947
0.00583006
0.00582699
0.00577102
0.00565184
0.00546865
0.00527219
0.00514908
0.00501718
0.004871
0.00479589
0.00476892
0.00476101
0.00475898
0.00475852
0.0047585
0.00475922
0.00476355
0.00478228
0.00484127
0.0049773
0.00514891
0.0053961
0.00560828
0.0057243
0.00572594
0.00557677
0.00517495
0.00429655
0.00213265
0.00212635
0.00426849
0.00513256
0.00553305
0.0057048
0.00576741
0.00577785
0.00575529
0.00569941
0.00560662
0.00548313
0.00533947
0.00516025
0.00497671
0.00488338
0.00484928
0.00483907
0.00483644
0.00483592
0.00483625
0.00483841
0.00484738
0.00487874
0.00496799
0.00515192
0.00534821
0.00552695
0.00565304
0.00570938
0.00568171
0.00552525
0.00513038
0.00426793
0.00212646
0.00210556
0.00418195
0.00500312
0.00537597
0.00553305
0.00559109
0.00560605
0.00559911
0.00557349
0.00552474
0.00544701
0.00533566
0.00519189
0.00505043
0.00497333
0.00494299
0.00493323
0.00493052
0.00492999
0.00493049
0.00493308
0.0049425
0.00497209
0.00504836
0.00519078
0.00534045
0.00546093
0.00553585
0.00556042
0.0055216
0.00537243
0.00500226
0.00418173
0.00210569
0.00204424
0.00395346
0.00468385
0.00500334
0.00513292
0.00517963
0.00519306
0.00519227
0.00518135
0.00515736
0.00511436
0.00504714
0.00495888
0.00487285
0.0048228
0.00480157
0.00479425
0.0047921
0.00479167
0.00479213
0.00479429
0.00480156
0.00482264
0.00487257
0.00495906
0.00504904
0.00511809
0.00515756
0.00516509
0.00512794
0.00500202
0.00468362
0.00395337
0.00204436
0.00188638
0.0033977
0.00395367
0.00418236
0.00426907
0.00429839
0.00430675
0.00430741
0.0043035
0.00429373
0.00427474
0.00424332
0.00420107
0.00415933
0.00413396
0.00412261
0.00411847
0.00411716
0.0041169
0.00411724
0.00411861
0.0041228
0.00413416
0.00415956
0.00420145
0.00424414
0.00427568
0.00429243
0.00429297
0.00426745
0.00418206
0.00395367
0.00339764
0.00188647
0.00157298
0.00188638
0.00204433
0.00210576
0.00212668
0.00213306
0.00213483
0.00213517
0.00213477
0.00213339
0.00213032
0.00212474
0.00211671
0.00210846
0.00210346
0.00210123
0.0021004
0.00210011
0.00210005
0.00210013
0.00210043
0.00210127
0.00210348
0.00210847
0.00211673
0.00212479
0.00213038
0.00213305
0.00213266
0.00212679
0.00210598
0.0020445
0.00188647
0.00157307
0.00169046
0.00215195
0.00239417
0.0024941
0.00253047
0.00254226
0.00254569
0.00254658
0.00254677
0.00254677
0.00254672
0.00254667
0.00254662
0.00254658
0.00254655
0.00254652
0.0025465
0.00254649
0.00254649
0.0025465
0.00254652
0.00254654
0.00254657
0.00254661
0.00254664
0.00254665
0.00254649
0.00254563
0.00254223
0.00253045
0.00249409
0.00239417
0.00215196
0.00169049
0.00215195
0.00411693
0.00484912
0.00516613
0.00529377
0.00533991
0.00535475
0.00535892
0.00535977
0.00535965
0.00535926
0.00535885
0.00535852
0.00535828
0.00535811
0.00535797
0.00535787
0.00535782
0.00535782
0.00535787
0.00535797
0.0053581
0.00535827
0.0053585
0.00535876
0.00535889
0.00535818
0.00535421
0.00533954
0.00529352
0.00516594
0.00484897
0.00411682
0.00215195
0.00239423
0.00484928
0.00578955
0.00621892
0.00640286
0.0064739
0.0064983
0.00650547
0.0065068
0.00650623
0.00650518
0.00650426
0.00650366
0.00650334
0.00650317
0.00650304
0.00650293
0.00650287
0.00650287
0.00650294
0.00650305
0.00650318
0.00650334
0.00650363
0.00650411
0.00650449
0.0065035
0.00649694
0.00647314
0.0064025
0.00621876
0.00578949
0.00484925
0.00239427
0.00249421
0.00516641
0.00621906
0.00671606
0.00693698
0.00702552
0.00705674
0.00706543
0.00706566
0.00706275
0.0070592
0.00705645
0.00705483
0.00705414
0.00705389
0.00705365
0.00705341
0.00705327
0.00705328
0.00705342
0.00705366
0.00705391
0.00705416
0.00705481
0.00705624
0.00705822
0.00705892
0.00705226
0.00702304
0.00693586
0.00671568
0.00621899
0.00516644
0.0024943
0.00253062
0.00529412
0.0064031
0.00693708
0.00717934
0.00727803
0.00731216
0.00731895
0.00731364
0.0073029
0.00729165
0.00728371
0.00727944
0.00727787
0.00727745
0.0072768
0.00727611
0.00727572
0.00727573
0.00727613
0.00727683
0.00727748
0.0072779
0.00727942
0.00728346
0.00729046
0.0072983
0.00729785
0.00727002
0.00717566
0.00693572
0.00640274
0.0052941
0.00253073
0.00254244
0.00534028
0.00647418
0.00702571
0.00727813
0.00738048
0.00741221
0.00740993
0.00738812
0.00735543
0.00732361
0.00730369
0.00729427
0.00729171
0.00729155
0.00728998
0.00728816
0.00728716
0.00728717
0.00728818
0.00729001
0.00729159
0.00729175
0.00729426
0.00730342
0.00732232
0.00735043
0.00737102
0.00735745
0.00726743
0.00702155
0.00647288
0.00534001
0.00254254
0.00254588
0.00535512
0.0064986
0.00705702
0.00731252
0.00741268
0.00743406
0.0074083
0.00734552
0.00725793
0.00717649
0.00713518
0.00712063
0.00712
0.00712268
0.00711958
0.00711557
0.00711345
0.00711346
0.00711559
0.00711961
0.00712273
0.00712006
0.00712063
0.00713493
0.00717519
0.00725279
0.00732787
0.00735421
0.00728551
0.00704638
0.00649505
0.00535418
0.0025459
0.00254677
0.00535927
0.00650583
0.00706599
0.0073201
0.00741213
0.00741121
0.00733647
0.00718435
0.00696944
0.00677362
0.00671302
0.00671128
0.00672636
0.00673956
0.0067353
0.00672859
0.00672522
0.00672522
0.00672861
0.00673534
0.00673962
0.00672643
0.00671131
0.00671282
0.00677238
0.00696433
0.00716652
0.00728172
0.0072611
0.00704287
0.00649796
0.005357
0.00254658
0.00254695
0.00536012
0.00650733
0.00706694
0.00731687
0.00739525
0.00735801
0.00719888
0.00687552
0.00637415
0.00588289
0.00590014
0.00600384
0.00607532
0.00611064
0.00611306
0.00610781
0.00610484
0.00610485
0.00610783
0.0061131
0.00611071
0.0060754
0.00600392
0.00590006
0.0058818
0.00636917
0.00685761
0.00714372
0.00720707
0.00702468
0.00649293
0.00535583
0.00254642
0.00254694
0.00536004
0.00650718
0.00706558
0.00731067
0.00737377
0.00729389
0.00702491
0.00643098
0.00526533
0.00335392
0.00448925
0.00504025
0.00524549
0.00529244
0.00533612
0.00534579
0.00534675
0.00534676
0.00534582
0.00533616
0.00529251
0.00524562
0.00504045
0.00448948
0.00335315
0.00526051
0.0064128
0.00696919
0.00714219
0.0070023
0.00648574
0.00535352
0.002546
0.00254688
0.00535979
0.00650688
0.00706471
0.00730738
0.00736251
0.00725858
0.00691812
0.00608363
0.00350716
0.00276951
0.00412735
0.00446464
0.00456729
0.00458599
0.00458779
0.00458755
0.00458756
0.0045878
0.00458603
0.00456736
0.00446479
0.00412762
0.00276972
0.00350342
0.00606506
0.00686182
0.00710626
0.0069904