/*--------------------------------*- C++ -*----------------------------------*\
| =========                 |                                                 |
| \\      /  F ield         | OpenFOAM: The Open Source CFD Toolbox           |
|  \\    /   O peration     | Version:  2112                                  |
|   \\  /    A nd           | Website:  www.openfoam.com                      |
|    \\/     M anipulation  |                                                 |
\*---------------------------------------------------------------------------*/
FoamFile
{
    version     2.0;
    format      ascii;
    arch        "LSB;label=32;scalar=64";
    class       volScalarField;
    location    "1.8";
    object      nut;
}
// * * * * * * * * * * * * * * * * * * * * * * * * * * * * * * * * * * * * * //

dimensions      [0 2 -1 0 0 0 0];

internalField   nonuniform List<scalar> 
64906
(
8.03161e-05
8.31135e-05
8.44881e-05
8.49812e-05
8.51346e-05
8.51776e-05
8.51891e-05
8.51924e-05
8.51937e-05
8.51946e-05
8.51953e-05
8.51958e-05
8.51961e-05
8.51961e-05
8.5196e-05
8.51957e-05
8.51953e-05
8.51949e-05
8.51946e-05
8.51949e-05
8.51953e-05
8.51955e-05
8.51957e-05
8.51956e-05
8.51953e-05
8.51947e-05
8.51935e-05
8.51903e-05
8.51789e-05
8.51358e-05
8.49825e-05
8.44895e-05
8.31149e-05
8.03173e-05
8.31143e-05
9.8497e-05
0.000104723
0.00010709
0.000107931
0.000108202
0.000108281
0.000108303
0.000108309
0.000108311
0.000108312
0.000108312
0.000108313
0.000108314
0.000108315
0.000108316
0.000108316
0.000108316
0.000108316
0.000108316
0.000108316
0.000108315
0.000108315
0.000108314
0.000108313
0.000108311
0.000108305
0.000108284
0.000108205
0.000107934
0.000107093
0.000104726
9.85001e-05
8.31166e-05
8.44905e-05
0.000104725
0.000113084
0.000116459
0.000117751
0.000118202
0.000118344
0.000118385
0.000118395
0.000118397
0.000118397
0.000118398
0.000118401
0.000118404
0.000118406
0.000118408
0.00011841
0.00011841
0.000118411
0.00011841
0.000118409
0.000118407
0.000118404
0.000118401
0.000118398
0.000118395
0.000118385
0.000118346
0.000118206
0.000117756
0.000116464
0.00011309
0.00010473
8.44941e-05
8.49848e-05
0.000107093
0.000116461
0.00012039
0.000121961
0.000122534
0.000122722
0.000122774
0.00012278
0.000122772
0.000122762
0.000122759
0.000122761
0.000122766
0.000122771
0.000122774
0.000122776
0.000122777
0.000122777
0.000122776
0.000122775
0.000122772
0.000122767
0.000122762
0.000122759
0.000122759
0.000122755
0.000122712
0.000122533
0.000121965
0.000120396
0.000116468
0.0001071
8.49895e-05
8.51388e-05
0.000107935
0.000117753
0.000121962
0.000123685
0.000124328
0.000124536
0.00012458
0.000124557
0.000124507
0.000124459
0.000124437
0.000124435
0.000124443
0.000124452
0.000124456
0.000124457
0.000124457
0.000124457
0.000124457
0.000124457
0.000124453
0.000124444
0.000124436
0.000124437
0.000124455
0.000124486
0.000124476
0.0001243
0.000123679
0.000121966
0.000117761
0.000107943
8.51444e-05
8.51822e-05
0.000108206
0.000118205
0.000122536
0.000124328
0.000124996
0.000125193
0.000125185
0.000125063
0.000124878
0.00012471
0.000124646
0.000124643
0.000124664
0.000124684
0.000124688
0.000124685
0.000124683
0.000124683
0.000124685
0.000124688
0.000124685
0.000124665
0.000124644
0.000124646
0.000124706
0.000124856
0.000124976
0.000124887
0.000124287
0.000122528
0.00011821
0.000108215
8.51885e-05
8.51936e-05
0.000108286
0.000118347
0.000122723
0.000124537
0.000125194
0.000125331
0.000125175
0.000124778
0.000124207
0.000123708
0.000123597
0.000123647
0.000123728
0.000123787
0.000123791
0.00012378
0.000123773
0.000123774
0.000123781
0.000123792
0.000123789
0.00012373
0.000123649
0.000123598
0.000123704
0.000124185
0.000124688
0.000124869
0.000124405
0.000122684
0.000118343
0.000108293
8.52006e-05
8.51967e-05
0.000108307
0.000118387
0.000122775
0.000124582
0.000125192
0.000125186
0.00012469
0.000123623
0.000122037
0.000120628
0.000120701
0.000121095
0.000121399
0.000121569
0.000121585
0.000121566
0.000121554
0.000121555
0.000121566
0.000121586
0.000121571
0.000121402
0.000121097
0.000120703
0.000120624
0.000122015
0.000123534
0.000124383
0.000124254
0.000122667
0.000118364
0.00010831
8.52039e-05
8.51977e-05
0.000108312
0.000118397
0.000122783
0.000124567
0.00012509
0.000124831
0.00012369
0.000121189
0.000116967
0.000112703
0.000114527
0.000116402
0.000117376
0.000117793
0.000117865
0.00011786
0.000117853
0.000117854
0.000117861
0.000117867
0.000117795
0.000117379
0.000116406
0.00011453
0.000112701
0.000116948
0.000121101
0.000123383
0.000123897
0.000122561
0.00011834
0.000108307
8.52046e-05
8.51981e-05
0.000108313
0.000118398
0.000122779
0.000124534
0.000124954
0.000124372
0.000122302
0.000117234
0.000106268
9.1391e-05
0.000102719
0.0001096
0.000112098
0.000112894
0.000113111
0.000113161
0.000113171
0.000113171
0.000113162
0.000113113
0.000112896
0.000112101
0.000109605
0.000102726
9.13891e-05
0.000106251
0.000117148
0.000121995
0.000123437
0.000122422
0.000118303
0.000108298
8.52045e-05
8.5198e-05
0.000108312
0.000118399
0.000122778
0.000124519
0.000124884
0.000124106
0.000121348
0.000113649
9.18883e-05
8.94638e-05
0.000103851
0.000108001
0.000109113
0.000109386
0.000109442
0.000109452
0.000109452
0.000109443
0.000109387
0.000109114
0.000108004
0.000103856
8.94679e-05
9.18792e-05
0.000113564
0.00012104
0.000123169
0.000122349
0.000118285
0.000108293
8.52043e-05
8.51977e-05
0.000108312
0.000118402
0.000122787
0.000124546
0.000124967
0.000124374
0.000122265
0.000117102
0.000105933
9.10477e-05
0.000101217
0.000107756
0.000110077
0.000110765
0.000110931
0.000110944
0.000110937
0.000110937
0.000110943
0.00011093
0.000110765
0.000110076
0.000107755
0.000101214
9.10403e-05
0.000105906
0.000117011
0.000121955
0.000123436
0.000122429
0.000118308
0.000108297
8.52043e-05
8.5197e-05
0.000108312
0.000118406
0.000122802
0.000124593
0.000125116
0.000124829
0.000123593
0.000120854
0.000116126
0.000110977
0.000111361
0.000111981
0.000112313
0.000112434
0.000112443
0.000112423
0.00011241
0.00011241
0.000112422
0.000112442
0.000112432
0.000112311
0.000111978
0.000111355
0.000110964
0.000116098
0.000120761
0.000123282
0.000123889
0.000122576
0.000118351
0.000108306
8.52042e-05
8.51961e-05
0.000108312
0.00011841
0.000122816
0.000124635
0.000125243
0.000125192
0.000124543
0.000123093
0.000120706
0.000117892
0.000115953
0.000114374
0.000113659
0.00011341
0.000113318
0.000113281
0.000113266
0.000113266
0.00011328
0.000113317
0.000113407
0.000113656
0.000114369
0.000115947
0.00011788
0.000120678
0.000122999
0.000124229
0.000124249
0.0001227
0.000118389
0.000108314
8.52035e-05
8.51951e-05
0.000108311
0.000118412
0.000122825
0.000124663
0.000125321
0.0001254
0.000125046
0.000124152
0.000122559
0.000120308
0.000117777
0.000115429
0.000114278
0.000113854
0.000113712
0.000113664
0.000113647
0.000113646
0.000113662
0.00011371
0.000113851
0.000114274
0.000115425
0.000117769
0.000120298
0.000122531
0.000124057
0.000124732
0.000124456
0.000122775
0.000118412
0.000108318
8.52022e-05
8.51939e-05
0.000108311
0.000118414
0.00012283
0.000124677
0.00012536
0.000125498
0.000125268
0.000124582
0.000123245
0.000121133
0.000118431
0.000115822
0.000114512
0.000114021
0.000113858
0.000113804
0.000113784
0.000113784
0.000113802
0.000113856
0.000114018
0.000114509
0.000115818
0.000118423
0.000121123
0.000123217
0.000124487
0.000124952
0.000124553
0.000122813
0.000118425
0.00010832
8.52006e-05
8.51927e-05
0.00010831
0.000118415
0.000122833
0.000124685
0.000125378
0.000125538
0.000125352
0.000124736
0.000123475
0.000121395
0.00011864
0.000115949
0.000114589
0.000114075
0.000113905
0.000113847
0.000113825
0.000113824
0.000113845
0.000113902
0.000114073
0.000114586
0.000115945
0.000118633
0.000121385
0.000123447
0.00012464
0.000125036
0.000124592
0.000122829
0.00011843
0.000108321
8.51988e-05
8.51916e-05
0.00010831
0.000118415
0.000122834
0.000124688
0.000125384
0.000125552
0.000125379
0.000124783
0.000123542
0.000121468
0.000118699
0.000115985
0.000114611
0.00011409
0.000113917
0.000113857
0.000113832
0.000113831
0.000113855
0.000113914
0.000114087
0.000114607
0.00011598
0.000118692
0.000121458
0.000123514
0.000124688
0.000125063
0.000124605
0.000122835
0.000118432
0.000108321
8.51971e-05
8.51906e-05
0.00010831
0.000118415
0.000122835
0.000124688
0.000125385
0.000125553
0.000125381
0.000124785
0.000123544
0.000121471
0.000118702
0.000115986
0.000114612
0.000114091
0.000113917
0.000113856
0.00011383
0.000113828
0.000113853
0.000113914
0.000114088
0.000114608
0.000115982
0.000118695
0.000121461
0.000123517
0.00012469
0.000125065
0.000124607
0.000122836
0.000118433
0.000108321
8.51957e-05
8.51906e-05
0.00010831
0.000118415
0.000122834
0.000124687
0.00012538
0.000125542
0.000125357
0.000124742
0.000123482
0.000121403
0.000118649
0.000115955
0.000114593
0.000114077
0.000113904
0.000113844
0.000113818
0.000113817
0.000113841
0.000113902
0.000114074
0.000114589
0.00011595
0.000118642
0.000121394
0.000123455
0.000124647
0.000125041
0.000124596
0.000122831
0.000118432
0.000108321
8.51956e-05
8.51916e-05
0.00010831
0.000118415
0.000122832
0.000124681
0.000125365
0.000125505
0.000125276
0.000124593
0.000123259
0.000121149
0.000118447
0.000115832
0.000114519
0.000114025
0.000113859
0.0001138
0.000113776
0.000113775
0.000113798
0.000113856
0.000114022
0.000114516
0.000115829
0.000118441
0.00012114
0.000123233
0.000124499
0.000124962
0.00012456
0.000122818
0.000118427
0.00010832
8.51972e-05
8.51928e-05
0.000108311
0.000118414
0.000122828
0.000124668
0.000125328
0.00012541
0.000125059
0.000124169
0.000122581
0.000120336
0.000117805
0.000115448
0.00011429
0.000113861
0.000113715
0.000113662
0.000113641
0.00011364
0.00011366
0.000113713
0.000113858
0.000114287
0.000115444
0.000117801
0.000120328
0.000122557
0.000124076
0.000124746
0.000124466
0.000122783
0.000118417
0.000108319
8.51989e-05
8.5194e-05
0.000108312
0.000118412
0.00012282
0.000124642
0.000125252
0.000125204
0.00012456
0.000123117
0.00012074
0.000117937
0.000115994
0.000114402
0.000113678
0.000113421
0.000113325
0.000113283
0.000113265
0.000113264
0.000113281
0.000113323
0.000113419
0.000113676
0.0001144
0.000115992
0.000117932
0.000120718
0.000123027
0.000124249
0.000124263
0.00012271
0.000118394
0.000108315
8.52004e-05
8.5195e-05
0.000108312
0.000118409
0.000122808
0.000124601
0.000125127
0.000124844
0.000123615
0.000120886
0.000116177
0.000111051
0.00011142
0.000112012
0.000112329
0.00011244
0.000112444
0.00011242
0.000112405
0.000112405
0.000112419
0.000112443
0.000112439
0.000112327
0.000112012
0.000111423
0.00011105
0.000116158
0.000120799
0.000123307
0.000123906
0.000122587
0.000118358
0.000108308
8.52013e-05
8.51958e-05
0.000108313
0.000118405
0.000122793
0.000124555
0.000124979
0.000124391
0.000122289
0.000117139
0.000105998
9.10963e-05
0.000101251
0.000107733
0.000110031
0.000110704
0.000110862
0.000110871
0.000110862
0.000110862
0.000110869
0.000110859
0.000110698
0.000110021
0.000107723
0.000101255
9.10926e-05
0.000105984
0.000117052
0.000121981
0.000123454
0.000122442
0.000118315
0.000108299
8.52017e-05
8.51962e-05
0.000108312
0.000118401
0.000122782
0.000124525
0.000124893
0.000124118
0.000121362
0.000113665
9.18946e-05
8.93494e-05
0.000103588
0.000107653
0.000108704
0.000108953
0.000109
0.000109006
0.000109005
0.000108995
0.000108941
0.000108675
0.000107593
0.000103496
8.92878e-05
9.187e-05
0.000113564
0.000121046
0.000123179
0.000122358
0.000118291
0.000108295
8.52018e-05
8.51959e-05
0.000108308
0.000118391
0.00012277
0.000124524
0.000124947
0.000124367
0.000122297
0.000117222
0.00010624
9.13384e-05
0.000102206
0.000108732
0.000110847
0.000111401
0.000111545
0.00011158
0.000111587
0.000111585
0.00011157
0.000111511
0.000111305
0.000110621
0.000108332
0.000101832
9.12046e-05
0.000106106
0.000117066
0.000121959
0.000123424
0.000122417
0.0001183
0.000108296
8.5202e-05
8.51935e-05
0.000108289
0.000118353
0.000122723
0.000124498
0.000125018
0.000124756
0.000123602
0.000121053
0.000116699
0.000112114
0.000113254
0.000114218
0.000114173
0.000114006
0.000113922
0.000113896
0.000113888
0.000113884
0.000113877
0.000113855
0.000113793
0.000113627
0.000113173
0.000112235
0.000111414
0.000116289
0.00012078
0.000123223
0.000123807
0.000122501
0.0001183
0.000108286
8.52003e-05
8.51825e-05
0.000108211
0.000118214
0.000122544
0.000124317
0.00012491
0.000124892
0.000124365
0.000123203
0.00012136
0.000119364
0.000118333
0.000117103
0.000115624
0.000114894
0.000114634
0.000114556
0.000114536
0.000114531
0.000114531
0.00011454
0.000114581
0.000114751
0.000115297
0.000116598
0.000118165
0.000120679
0.000122812
0.000123948
0.000123948
0.000122432
0.000118194
0.000108216
8.51898e-05
8.51397e-05
0.000107941
0.000117765
0.000121976
0.000123694
0.000124305
0.000124416
0.000124219
0.000123707
0.000122832
0.000121656
0.000120297
0.000118515
0.000116645
0.000115735
0.000115411
0.000115315
0.000115291
0.000115286
0.000115289
0.000115308
0.000115391
0.000115687
0.000116549
0.000118399
0.000120334
0.00012208
0.000123288
0.00012381
0.000123518
0.000121933
0.000117765
0.000107951
8.5147e-05
8.49863e-05
0.0001071
0.000116473
0.000120408
0.000121981
0.000122547
0.000122698
0.000122649
0.000122431
0.000121998
0.000121285
0.000120237
0.000118833
0.000117409
0.000116654
0.000116364
0.000116276
0.000116255
0.00011625
0.000116253
0.000116273
0.000116356
0.000116636
0.00011738
0.000118808
0.000120264
0.000121408
0.000122099
0.000122308
0.00012191
0.000120401
0.000116485
0.000107112
8.49934e-05
8.44929e-05
0.000104732
0.000113098
0.000116479
0.000117776
0.000118229
0.000118363
0.00011837
0.000118288
0.000118091
0.000117717
0.000117108
0.000116281
0.000115452
0.00011498
0.000114786
0.000114724
0.000114708
0.000114705
0.000114707
0.000114723
0.000114784
0.000114975
0.000115444
0.000116274
0.000117116
0.000117744
0.000118088
0.000118136
0.000117761
0.00011649
0.000113113
0.000104745
8.44993e-05
8.31175e-05
9.85049e-05
0.000104736
0.000107109
0.000107956
0.000108232
0.000108314
0.000108331
0.000108312
0.000108245
0.000108098
0.000107839
0.000107475
0.000107105
0.000106883
0.000106786
0.000106753
0.000106744
0.000106742
0.000106744
0.000106753
0.000106786
0.000106882
0.000107104
0.000107474
0.000107841
0.000108101
0.000108229
0.000108216
0.000107966
0.000107125
0.000104751
9.85155e-05
8.31229e-05
8.0319e-05
8.31189e-05
8.44974e-05
8.49943e-05
8.51515e-05
8.51987e-05
8.52147e-05
8.52221e-05
8.52257e-05
8.52247e-05
8.5214e-05
8.51869e-05
8.51422e-05
8.50915e-05
8.50596e-05
8.50437e-05
8.50359e-05
8.50312e-05
8.50294e-05
8.50316e-05
8.50362e-05
8.50437e-05
8.50591e-05
8.50904e-05
8.51404e-05
8.51847e-05
8.52116e-05
8.52198e-05
8.52106e-05
8.51646e-05
8.5006e-05
8.45066e-05
8.31252e-05
8.03229e-05
0.000123574
0.00013597
0.000141976
0.000144339
0.000145172
0.000145436
0.000145511
0.000145531
0.000145535
0.000145536
0.000145536
0.000145535
0.000145534
0.000145534
0.000145533
0.000145533
0.000145532
0.000145532
0.000145532
0.000145532
0.000145532
0.000145533
0.000145533
0.000145534
0.000145534
0.000145534
0.00014553
0.000145511
0.000145436
0.000145172
0.000144339
0.000141977
0.000135971
0.000123575
0.00013597
0.000382516
0.00046038
0.000490401
0.000501951
0.00050603
0.000507317
0.000507669
0.000507738
0.000507725
0.00050769
0.000507652
0.000507622
0.000507599
0.000507582
0.000507568
0.000507558
0.000507553
0.000507553
0.000507558
0.000507568
0.000507582
0.000507599
0.000507621
0.000507646
0.000507661
0.000507605
0.00050727
0.000505998
0.000501928
0.000490382
0.000460363
0.000382505
0.000135971
0.000141978
0.000460401
0.000569367
0.000613961
0.000632224
0.00063913
0.000641466
0.000642145
0.000642272
0.000642226
0.000642139
0.000642065
0.000642021
0.000642
0.00064199
0.000641982
0.000641974
0.00064197
0.00064197
0.000641975
0.000641983
0.000641992
0.000642001
0.00064202
0.000642054
0.000642079
0.000641979
0.000641354
0.00063907
0.000632197
0.000613949
0.00056936
0.000460397
0.000141981
0.000144342
0.000490433
0.000613975
0.000666528
0.000688917
0.000697723
0.00070079
0.000701638
0.000701669
0.000701405
0.000701089
0.000700859
0.000700737
0.000700696
0.000700688
0.000700674
0.000700656
0.000700645
0.000700646
0.000700657
0.000700676
0.000700692
0.000700699
0.000700737
0.000700843
0.000701001
0.000701047
0.000700386
0.000697506
0.000688824
0.000666498
0.000613967
0.000490434
0.000144347
0.000145177
0.000501988
0.000632247
0.000688926
0.00071362
0.000723507
0.000726892
0.000727565
0.000727057
0.000726029
0.000724981
0.000724295
0.000723961
0.000723871
0.000723869
0.000723821
0.000723761
0.000723726
0.000723727
0.000723763
0.000723825
0.000723873
0.000723876
0.000723963
0.000724275
0.000724874
0.000725598
0.000725534
0.000722759
0.000713284
0.000688805
0.000632214
0.000501985
0.000145182
0.000145441
0.000506068
0.000639156
0.000697738
0.000723515
0.000733798
0.000736958
0.000736731
0.000734569
0.00073134
0.00072827
0.000726564
0.000725862
0.000725768
0.00072585
0.000725718
0.000725544
0.000725448
0.000725449
0.000725546
0.000725722
0.000725856
0.000725774
0.000725864
0.000726544
0.000728155
0.000730871
0.000732919
0.000731568
0.000722499
0.000697353
0.000639038
0.000506044
0.000145447
0.000145517
0.000507352
0.000641491
0.00070081
0.000726919
0.000736996
0.000739119
0.000736507
0.00073013
0.00072117
0.000712961
0.000709834
0.0007091
0.000709462
0.000709981
0.000709686
0.000709283
0.000709075
0.000709076
0.000709286
0.000709691
0.000709987
0.000709469
0.000709104
0.000709817
0.000712848
0.000720693
0.000728433
0.000731192
0.000724287
0.0006998
0.000641166
0.000507272
0.000145522
0.000145537
0.0005077
0.000642171
0.000701679
0.000727657
0.000736918
0.000736761
0.000729047
0.000713097
0.000689839
0.000668083
0.000666829
0.000669324
0.000672018
0.00067398
0.000673492
0.000672788
0.000672457
0.000672458
0.000672791
0.000673497
0.000673987
0.000672026
0.00066933
0.000666818
0.000667981
0.000689377
0.000711401
0.000723687
0.000721793
0.000699441
0.000641439
0.000507508
0.000145538
0.000145541
0.000507766
0.00064231
0.000701767
0.000727328
0.000735192
0.000731229
0.000714359
0.000678624
0.00061841
0.000549993
0.000579552
0.000600722
0.000611226
0.000616431
0.000616158
0.000615458
0.00061515
0.000615151
0.00061546
0.000616163
0.000616438
0.000611235
0.000600733
0.000579556
0.000549917
0.000617984
0.000676951
0.000708993
0.000716212
0.00069761
0.000640949
0.000507397
0.000145535
0.000145541
0.000507753
0.000642295
0.000701635
0.000726702
0.000732967
0.000724353
0.000694561
0.000622715
0.000459145
0.000165959
0.000410004
0.000506272
0.000535747
0.000545268
0.000546848
0.000546996
0.000546971
0.000546972
0.000546998
0.000546852
0.000545276
0.000535759
0.000506297
0.000410051
0.000165944
0.000458803
0.000621074
0.000689185
0.000709295
0.000695324
0.000640246
0.000507186
0.000145527
0.00014554
0.000507725
0.000642267
0.000701552
0.000726373
0.000731777
0.000720304
0.000680315
0.000563864
0.000168319
0.000157211
0.000421996
0.000475657
0.000487677
0.00049117
0.000491994
0.00049213
0.00049213
0.000491995
0.000491172
0.000487682
0.000475671
0.000422033
0.000157218
0.000168247
0.000562272
0.000674918
0.000705206
0.000694083
0.000639859
0.000507041
0.000145521
0.000145539
0.000507701
0.000642276
0.00070164
0.000726692
0.000732836
0.000723854
0.000693201
0.000619685
0.00045355
0.000164141
0.000388287
0.00047417
0.000497899
0.000501417
0.000506652
0.000508076
0.000508258
0.000508257
0.000508072
0.000506646
0.000501407
0.000497887
0.000474161
0.000388272
0.000164114
0.000453134
0.000618002
0.000687788
0.000708749
0.000695121
0.000640133
0.000507057
0.000145522
0.000145537
0.000507685
0.000642314
0.000701834
0.00072737
0.000734975
0.000730185
0.000711248
0.000671083
0.000602478
0.000520559
0.000526438
0.000523963
0.000523579
0.000522938
0.000523962
0.000524225
0.000524209
0.000524208
0.000524221
0.000523955
0.000522925
0.000523559
0.000523931
0.000526381
0.000520429
0.000601999
0.000669366
0.000705829
0.000715078
0.000697245
0.000640772
0.000507182
0.000145527
0.000145536
0.000507672
0.000642353
0.000702022
0.000728008
0.000736895
0.000735443
0.000724379
0.00070103
0.000663517
0.000618145
0.000583874
0.000551687
0.000538883
0.000534764
0.000533777
0.000533494
0.0005334
0.000533399
0.000533491
0.000533772
0.000534754
0.000538864
0.000551655
0.000583826
0.000618018
0.000663027
0.000699297
0.000718945
0.000720322
0.000699141
0.000641367
0.000507305
0.000145531
0.000145534
0.000507662
0.000642379
0.000702151
0.000728432
0.00073812
0.00073861
0.000731645
0.00071558
0.000688106
0.000649869
0.00060651
0.000564301
0.000546172
0.000540116
0.000538387
0.000537933
0.000537827
0.000537827
0.000537932
0.000538385
0.000540109
0.000546157
0.000564275
0.000606486
0.00064975
0.000687613
0.000713835
0.000726196
0.000723469
0.000700338
0.000641752
0.000507384
0.000145532
0.000145533
0.000507653
0.000642392
0.000702221
0.000728656
0.000738745
0.000740156
0.000734988
0.000721759
0.000697515
0.000660813
0.000614833
0.000569254
0.000549116
0.000542246
0.000540256
0.000539755
0.000539653
0.000539654
0.000539756
0.000540255
0.000542241
0.000549102
0.000569232
0.000614812
0.000660697
0.000697021
0.000720008
0.000729527
0.000724996
0.000700939
0.000641948
0.00050742
0.000145532
0.000145531
0.000507647
0.000642398
0.000702253
0.000728757
0.000739014
0.000740794
0.000736308
0.000724069
0.000700808
0.000664416
0.000617604
0.000570951
0.000550139
0.000542986
0.000540912
0.000540401
0.000540304
0.000540304
0.000540401
0.000540912
0.000542982
0.000550126
0.00057093
0.000617585
0.000664301
0.000700314
0.000722314
0.00073084
0.000725624
0.000701194
0.000642031
0.000507433
0.000145531
0.00014553
0.000507643
0.0006424
0.000702266
0.000728795
0.000739109
0.00074101
0.000736737
0.000724788
0.000701788
0.000665445
0.000618389
0.000571441
0.000550436
0.0005432
0.000541103
0.00054059
0.000540496
0.000540497
0.000540592
0.000541104
0.000543197
0.000550424
0.00057142
0.00061837
0.00066533
0.000701294
0.000723032
0.000731266
0.000725835
0.000701283
0.000642061
0.000507436
0.00014553
0.00014553
0.000507643
0.0006424
0.000702268
0.000728798
0.000739114
0.000741016
0.000736744
0.000724797
0.000701797
0.000665454
0.000618398
0.000571454
0.000550444
0.000543205
0.000541108
0.000540595
0.000540502
0.000540503
0.000540596
0.000541108
0.000543202
0.000550433
0.000571434
0.000618379
0.00066534
0.000701305
0.000723042
0.000731274
0.000725842
0.000701287
0.000642062
0.000507435
0.000145529
0.00014553
0.000507645
0.0006424
0.000702259
0.000728767
0.000739028
0.000740813
0.000736332
0.000724097
0.000700839
0.000664446
0.000617634
0.000570995
0.00055017
0.000543007
0.000540931
0.00054042
0.000540326
0.000540327
0.000540422
0.000540932
0.000543005
0.00055016
0.000570977
0.000617617
0.000664334
0.000700349
0.000722346
0.000730866
0.000725644
0.000701207
0.000642037
0.000507431
0.000145529
0.000145531
0.00050765
0.000642396
0.000702231
0.000728674
0.000738769
0.000740189
0.000735031
0.000721812
0.000697576
0.000660878
0.000614898
0.000569345
0.000549186
0.000542302
0.00054031
0.000539812
0.000539714
0.000539715
0.000539815
0.000540313
0.000542303
0.00054918
0.000569331
0.000614883
0.000660769
0.000697092
0.000720069
0.000729575
0.000725032
0.000700962
0.000641958
0.000507417
0.000145529
0.000145532
0.000507657
0.000642384
0.000702166
0.000728457
0.000738155
0.000738659
0.00073171
0.000715666
0.000688217
0.000649999
0.000606641
0.000564469
0.000546313
0.000540241
0.000538512
0.000538065
0.000537965
0.000537967
0.00053807
0.00053852
0.000540248
0.000546314
0.000564464
0.000606633
0.000649897
0.000687742
0.000713937
0.000726271
0.000723521
0.00070037
0.000641766
0.00050738
0.000145529
0.000145533
0.000507666
0.000642359
0.000702041
0.00072804
0.000736942
0.000735508
0.00072447
0.000701162
0.000663709
0.000618403
0.000584139
0.000551961
0.000539117
0.000534986
0.000534004
0.000533733
0.000533649
0.000533653
0.000533742
0.000534018
0.000535002
0.000539129
0.000551969
0.000584146
0.000618317
0.000663254
0.000699453
0.000719051
0.000720392
0.000699184
0.000641385
0.000507299
0.000145528
0.000145535
0.000507675
0.000642319
0.000701854
0.000727405
0.000735028
0.000730261
0.000711361
0.000671264
0.000602791
0.000521052
0.000526916
0.000524274
0.000523799
0.000523139
0.000524166
0.000524449
0.00052445
0.000524454
0.000524463
0.000524186
0.000523157
0.000523809
0.000524284
0.000526952
0.000521005
0.000602376
0.000669573
0.000705949
0.000715155
0.000697292
0.00064079
0.000507171
0.000145523
0.000145536
0.000507684
0.000642272
0.000701647
0.000726713
0.000732874
0.000723914
0.000693297
0.000619866
0.000453955
0.000164246
0.000388614
0.000473897
0.000497346
0.000500712
0.000505926
0.000507376
0.000507578
0.000507582
0.000507385
0.000505928
0.000500671
0.000497241
0.000473768
0.000388714
0.00016423
0.000453644
0.000618157
0.000687843
0.000708784
0.000695145
0.000640137
0.000507034
0.000145518
0.000145536
0.000507684
0.000642215
0.000701492
0.000726311
0.000731719
0.00072025
0.000680255
0.000563798
0.000168285
0.000156744
0.000418567
0.000470943
0.00048215
0.000485422
0.000486228
0.000486372
0.000486366
0.000486195
0.000485305
0.000481807
0.000470172
0.000417389
0.000156474
0.00016813
0.000561895
0.000674638
0.000705054
0.000694001
0.000639802
0.000506984
0.000145516
0.000145533
0.000507617
0.000642055
0.000701306
0.000726316
0.000732543
0.000723877
0.000693959
0.000621853
0.000458001
0.000165365
0.000401872
0.000492746
0.000516717
0.000522805
0.000523796
0.000523996
0.000524034
0.000524011
0.000523879
0.000523383
0.000521549
0.000513575
0.00048692
0.000396462
0.000164654
0.000455764
0.000618849
0.000687891
0.000708568
0.000694889
0.000639972
0.000507018
0.000145517
0.000145515
0.000507279
0.000641399
0.000700514
0.000725846
0.000733558
0.000729417
0.000712133
0.000675343
0.000612645
0.000538905
0.000557369
0.000564131
0.000558314
0.000554564
0.000552926
0.000552407
0.000552265
0.000552219
0.00055217
0.000552035
0.000551632
0.000550157
0.000547076
0.000540531
0.000527384
0.000605293
0.000670135
0.000705258
0.000713966
0.000696118
0.000639964
0.000506862
0.000145507
0.00014544
0.000506008
0.000639102
0.000697574
0.000722884
0.00073174
0.000731205
0.000722723
0.000704788
0.000676706
0.000644621
0.000624616
0.000599583
0.000570699
0.000558559
0.000554572
0.000553448
0.000553167
0.000553106
0.000553112
0.000553249
0.00055395
0.0005568
0.000567011
0.000594473
0.00062365
0.000664349
0.000697375
0.000715132
0.000715841
0.000694975
0.000638261
0.000505755
0.000145439
0.000145177
0.000501938
0.000632224
0.000688869
0.000713341
0.000722509
0.000724
0.000720407
0.000711629
0.0006969
0.000676522
0.00065168
0.000619211
0.0005845
0.00056971
0.000564805
0.0005634
0.000563045
0.000562975
0.000563019
0.000563316
0.000564565
0.000569113
0.000583446
0.000618343
0.000653118
0.000683164
0.00070369
0.000712931
0.000709415
0.00068747
0.000631785
0.000501795
0.00014518
0.000144343
0.00049039
0.000613971
0.000666532
0.000688843
0.000697341
0.000699541
0.000698335
0.000694108
0.000686055
0.000673002
0.000653943
0.000628952
0.000603992
0.000591812
0.000587336
0.000585935
0.000585546
0.000585469
0.000585543
0.000585918
0.000587278
0.000591663
0.000603763
0.000628913
0.000654763
0.000675129
0.000687687
0.000692065
0.000686797
0.000665845
0.000613763
0.000490309
0.000144348
0.00014198
0.000460364
0.000569371
0.00061399
0.000632242
0.000639043
0.000641035
0.000640826
0.000638958
0.000634918
0.000627693
0.000616397
0.000601553
0.00058707
0.000579148
0.000575922
0.000574824
0.000574499
0.000574433
0.000574506
0.000574834
0.000575926
0.000579137
0.000587054
0.000601621
0.000616728
0.00062828
0.00063494
0.000636474
0.000631307
0.000613699
0.000569286
0.000460315
0.000141984
0.000135973
0.000382496
0.000460394
0.000490438
0.000501997
0.000506054
0.000507237
0.000507289
0.000506625
0.000505033
0.000501996
0.000497041
0.000490446
0.000483974
0.000480148
0.000478462
0.000477844
0.000477647
0.000477608
0.00047766
0.000477868
0.000478494
0.000480186
0.000484021
0.000490522
0.000497186
0.000502153
0.000504849
0.000505097
0.000501669
0.000490342
0.000460361
0.000382462
0.000135976
0.000123577
0.000135973
0.000141983
0.000144351
0.000145189
0.000145457
0.000145534
0.000145547
0.000145526
0.000145459
0.000145318
0.000145069
0.000144722
0.000144369
0.000144155
0.000144058
0.000144022
0.00014401
0.000144007
0.00014401
0.000144023
0.00014406
0.000144156
0.00014437
0.000144722
0.000145073
0.000145321
0.000145444
0.000145432
0.00014519
0.000144358
0.00014199
0.000135976
0.000123581
0.000128283
0.000145611
0.000154138
0.000157657
0.00015898
0.000159429
0.000159566
0.000159603
0.000159612
0.000159612
0.000159609
0.000159607
0.000159605
0.000159603
0.000159602
0.000159601
0.000159601
0.0001596
0.0001596
0.0001596
0.000159601
0.000159602
0.000159603
0.000159605
0.000159606
0.000159606
0.000159599
0.000159563
0.000159427
0.000158979
0.000157656
0.000154138
0.000145611
0.000128284
0.000145611
0.000489933
0.000609248
0.000657452
0.000676893
0.000684136
0.000686552
0.00068725
0.00068739
0.000687359
0.000687279
0.000687194
0.000687125
0.000687073
0.000687036
0.000687007
0.000686986
0.000686975
0.000686975
0.000686985
0.000687005
0.000687034
0.00068707
0.000687119
0.000687175
0.00068721
0.000687097
0.000686437
0.000684054
0.000676833
0.000657403
0.000609204
0.000489902
0.000145611
0.00015414
0.00060928
0.000784311
0.000859259
0.000891143
0.000903717
0.000908165
0.000909508
0.000909754
0.000909632
0.000909412
0.000909212
0.000909076
0.000909001
0.000908961
0.000908929
0.000908903
0.000908889
0.000908889
0.000908904
0.000908929
0.000908961
0.000909
0.000909069
0.000909179
0.000909271
0.000909094
0.000907876
0.000903545
0.000891049
0.000859204
0.00078427
0.000609254
0.000154141
0.00015766
0.000657504
0.000859284
0.000949022
0.000988602
0.00100477
0.00101062
0.00101228
0.00101231
0.00101171
0.00101097
0.00101036
0.00100998
0.0010098
0.00100974
0.00100967
0.00100961
0.00100957
0.00100957
0.00100961
0.00100967
0.00100974
0.00100981
0.00100997
0.00101031
0.00101076
0.00101094
0.00100969
0.00100423
0.000988343
0.000948907
0.000859229
0.000657478
0.000157663
0.000158985
0.000676955
0.000891184
0.00098862
0.00103253
0.00105074
0.00105719
0.00105849
0.00105742