/*--------------------------------*- C++ -*----------------------------------*\
| =========                 |                                                 |
| \\      /  F ield         | OpenFOAM: The Open Source CFD Toolbox           |
|  \\    /   O peration     | Version:  2112                                  |
|   \\  /    A nd           | Website:  www.openfoam.com                      |
|    \\/     M anipulation  |                                                 |
\*---------------------------------------------------------------------------*/
FoamFile
{
    version     2.0;
    format      ascii;
    arch        "LSB;label=32;scalar=64";
    class       volScalarField;
    location    "1.8";
    object      p;
}
// * * * * * * * * * * * * * * * * * * * * * * * * * * * * * * * * * * * * * //

dimensions      [0 2 -2 0 0 0 0];

internalField   nonuniform List<scalar> 
64906
(
-8.38913e-06
-8.36902e-06
-8.36691e-06
-8.38799e-06
-8.4367e-06
-8.51337e-06
-8.61834e-06
-8.75163e-06
-8.91136e-06
-9.09421e-06
-9.29203e-06
-9.49685e-06
-9.69471e-06
-9.87766e-06
-1.00363e-05
-1.01663e-05
-1.02638e-05
-1.03273e-05
-1.0356e-05
-1.03501e-05
-1.03105e-05
-1.02391e-05
-1.014e-05
-1.00177e-05
-9.88166e-06
-9.73982e-06
-9.60623e-06
-9.4885e-06
-9.39456e-06
-9.32725e-06
-9.28791e-06
-9.27568e-06
-9.28525e-06
-9.30841e-06
-8.3264e-06
-8.22787e-06
-8.15998e-06
-8.12365e-06
-8.1259e-06
-8.16282e-06
-8.22925e-06
-8.32119e-06
-8.43421e-06
-8.56491e-06
-8.70422e-06
-8.84761e-06
-8.98216e-06
-9.10581e-06
-9.21174e-06
-9.29953e-06
-9.36714e-06
-9.41468e-06
-9.44189e-06
-9.44888e-06
-9.43619e-06
-9.40392e-06
-9.35432e-06
-9.28787e-06
-9.21161e-06
-9.12752e-06
-9.04912e-06
-8.98157e-06
-8.93599e-06
-8.91891e-06
-8.93875e-06
-9.00084e-06
-9.09747e-06
-9.2234e-06
-8.31697e-06
-8.16727e-06
-8.04972e-06
-7.96956e-06
-7.93822e-06
-7.94869e-06
-7.9933e-06
-8.06745e-06
-8.16654e-06
-8.28902e-06
-8.42267e-06
-8.56437e-06
-8.68978e-06
-8.80098e-06
-8.8903e-06
-8.96289e-06
-9.01835e-06
-9.05901e-06
-9.0852e-06
-9.09705e-06
-9.09447e-06
-9.07533e-06
-9.04028e-06
-8.98424e-06
-8.91529e-06
-8.83137e-06
-8.75821e-06
-8.70009e-06
-8.67322e-06
-8.68479e-06
-8.74676e-06
-8.86696e-06
-9.03048e-06
-9.2241e-06
-8.36146e-06
-8.17041e-06
-8.00971e-06
-7.89212e-06
-7.83502e-06
-7.83104e-06
-7.87209e-06
-7.95558e-06
-8.07935e-06
-8.24746e-06
-8.44133e-06
-8.6578e-06
-8.83836e-06
-8.9899e-06
-9.10071e-06
-9.18613e-06
-9.2475e-06
-9.29053e-06
-9.31614e-06
-9.32442e-06
-9.31474e-06
-9.28152e-06
-9.22382e-06
-9.12638e-06
-9.00175e-06
-8.84301e-06
-8.71151e-06
-8.61165e-06
-8.56821e-06
-8.58522e-06
-8.67467e-06
-8.84216e-06
-9.06266e-06
-9.31154e-06
-8.4715e-06
-8.24689e-06
-8.0545e-06
-7.91205e-06
-7.84329e-06
-7.8424e-06
-7.90365e-06
-8.03076e-06
-8.22925e-06
-8.51722e-06
-8.86782e-06
-9.28094e-06
-9.61002e-06
-9.8738e-06
-1.00548e-05
-1.01889e-05
-1.02792e-05
-1.03366e-05
-1.03623e-05
-1.03564e-05
-1.03178e-05
-1.02359e-05
-1.0108e-05
-9.89837e-06
-9.62601e-06
-9.2718e-06
-8.98793e-06
-8.77415e-06
-8.66593e-06
-8.65541e-06
-8.74907e-06
-8.94556e-06
-9.20777e-06
-9.50259e-06
-8.64649e-06
-8.38866e-06
-8.1717e-06
-8.0148e-06
-7.94772e-06
-7.96701e-06
-8.07163e-06
-8.27653e-06
-8.60266e-06
-9.0974e-06
-9.73177e-06
-1.05348e-05
-1.11363e-05
-1.16002e-05
-1.1906e-05
-1.21301e-05
-1.22757e-05
-1.23615e-05
-1.23881e-05
-1.23555e-05
-1.22632e-05
-1.20924e-05
-1.18407e-05
-1.14315e-05
-1.08882e-05
-1.01452e-05
-9.58504e-06
-9.17154e-06
-8.9463e-06
-8.87455e-06
-8.95018e-06
-9.16083e-06
-9.45612e-06
-9.7974e-06
-8.88315e-06
-8.58478e-06
-8.34676e-06
-8.18299e-06
-8.12906e-06
-8.18385e-06
-8.35222e-06
-8.66408e-06
-9.16459e-06
-9.95751e-06
-1.10128e-05
-1.25517e-05
-1.35755e-05
-1.43326e-05
-1.4815e-05
-1.51691e-05
-1.53953e-05
-1.55234e-05
-1.55519e-05
-1.54806e-05
-1.5311e-05
-1.50127e-05
-1.4586e-05
-1.38841e-05
-1.29202e-05
-1.14391e-05
-1.04725e-05
-9.76784e-06
-9.37824e-06
-9.21592e-06
-9.25492e-06
-9.46937e-06
-9.7952e-06
-1.0192e-05
-9.18368e-06
-8.81806e-06
-8.56715e-06
-8.40452e-06
-8.37645e-06
-8.48391e-06
-8.73651e-06
-9.17497e-06
-9.87381e-06
-1.0993e-05
-1.25423e-05
-1.54944e-05
-1.706e-05
-1.82081e-05
-1.89299e-05
-1.94676e-05
-1.98095e-05
-1.99993e-05
-2.0031e-05
-1.99042e-05
-1.96244e-05
-1.91467e-05
-1.84831e-05
-1.73895e-05
-1.58851e-05
-1.29767e-05
-1.1551e-05
-1.05217e-05
-9.94101e-06
-9.66725e-06
-9.65107e-06
-9.85825e-06
-1.02122e-05
-1.06836e-05
-9.5199e-06
-9.09381e-06
-8.82406e-06
-8.6675e-06
-8.67813e-06
-8.85659e-06
-9.21237e-06
-9.78675e-06
-1.06459e-05
-1.2091e-05
-1.40356e-05
-1.97149e-05
-2.15925e-05
-2.31536e-05
-2.4149e-05
-2.48886e-05
-2.53609e-05
-2.56213e-05
-2.56576e-05
-2.54692e-05
-2.50675e-05
-2.43945e-05
-2.3461e-05
-2.19504e-05
-2.01379e-05
-1.44676e-05
-1.27358e-05
-1.13514e-05
-1.06122e-05
-1.02141e-05
-1.01242e-05
-1.03098e-05
-1.06744e-05
-1.12825e-05
-9.87884e-06
-9.40305e-06
-9.11158e-06
-8.97153e-06
-9.04633e-06
-9.33783e-06
-9.85567e-06
-1.05976e-05
-1.16801e-05
-1.41702e-05
-1.20468e-05
-2.45211e-05
-2.66052e-05
-2.88576e-05
-3.02696e-05
-3.13296e-05
-3.20092e-05
-3.23746e-05
-3.24168e-05
-3.21352e-05
-3.15378e-05
-3.0555e-05
-2.92122e-05
-2.70085e-05
-2.50207e-05
-1.23632e-05
-1.48572e-05
-1.24186e-05
-1.14808e-05
-1.09246e-05
-1.07031e-05
-1.08369e-05
-1.12247e-05
-1.19174e-05
-1.0254e-05
-9.72259e-06
-9.40951e-06
-9.29161e-06
-9.44777e-06
-9.88812e-06
-1.06036e-05
-1.14684e-05
-1.23256e-05
-9.94592e-06
-3.64387e-05
-3.35061e-05
-3.49766e-05
-3.64848e-05
-3.77622e-05
-3.8623e-05
-3.90718e-05
-3.91205e-05
-3.87687e-05
-3.80036e-05
-3.68169e-05
-3.53883e-05
-3.39649e-05
-3.68166e-05
-1.1071e-05
-1.328e-05
-1.24498e-05
-1.17416e-05
-1.13445e-05
-1.13958e-05
-1.18002e-05
-1.25884e-05
-1.06329e-05
-1.00436e-05
-9.71404e-06
-9.63336e-06
-9.91298e-06
-1.06193e-05
-1.1894e-05
-1.39697e-05
-1.74658e-05
-2.22189e-05
-3.33947e-05
-3.30421e-05
-3.6977e-05
-4.0238e-05
-4.28863e-05
-4.4848e-05
-4.60787e-05
-4.66822e-05
-4.67371e-05
-4.62439e-05
-4.51249e-05
-4.32765e-05
-4.07448e-05
-3.76047e-05
-3.37935e-05
-3.44096e-05
-2.30951e-05
-1.83757e-05
-1.49494e-05
-1.30568e-05
-1.21429e-05
-1.20048e-05
-1.23909e-05
-1.32781e-05
-1.09953e-05
-1.03467e-05
-9.99466e-06
-9.93341e-06
-1.02924e-05
-1.11548e-05
-1.26835e-05
-1.50809e-05
-1.86609e-05
-2.31891e-05
-3.06652e-05
-3.51848e-05
-3.97902e-05
-4.38338e-05
-4.71428e-05
-4.94743e-05
-5.09186e-05
-5.16193e-05
-5.16786e-05
-5.10972e-05
-4.97745e-05
-4.75671e-05
-4.43858e-05
-4.04622e-05
-3.59587e-05
-3.15762e-05
-2.41217e-05
-1.95958e-05
-1.6081e-05
-1.38808e-05
-1.27514e-05
-1.25294e-05
-1.2934e-05
-1.39298e-05
-1.13283e-05
-1.06255e-05
-1.02501e-05
-1.01986e-05
-1.06106e-05
-1.15742e-05
-1.3254e-05
-1.58451e-05
-1.96304e-05
-2.45293e-05
-3.09105e-05
-3.63344e-05
-4.17633e-05
-4.6384e-05
-5.00977e-05
-5.26355e-05
-5.41885e-05
-5.49315e-05
-5.49936e-05
-5.43757e-05
-5.29504e-05
-5.05433e-05
-4.69638e-05
-4.24671e-05
-3.71528e-05
-3.18103e-05
-2.54517e-05
-2.0568e-05
-1.68618e-05
-1.44882e-05
-1.32466e-05
-1.2989e-05
-1.34258e-05
-1.45204e-05
-1.16188e-05
-1.08681e-05
-1.04673e-05
-1.04113e-05
-1.08437e-05
-1.18484e-05
-1.35809e-05
-1.62282e-05
-2.0044e-05
-2.49854e-05
-3.10498e-05
-3.69572e-05
-4.28754e-05
-4.77599e-05
-5.1634e-05
-5.42355e-05
-5.58142e-05
-5.65627e-05
-5.66265e-05
-5.60064e-05
-5.45585e-05
-5.20902e-05
-4.83522e-05
-4.35909e-05
-3.77845e-05
-3.19439e-05
-2.59089e-05
-2.09905e-05
-1.72659e-05
-1.48565e-05
-1.35975e-05
-1.33546e-05
-1.38396e-05
-1.50219e-05
-1.186e-05
-1.10709e-05
-1.0647e-05
-1.05817e-05
-1.10198e-05
-1.20406e-05
-1.37909e-05
-1.64542e-05
-2.02702e-05
-2.52257e-05
-3.12498e-05
-3.7395e-05
-4.35447e-05
-4.8557e-05
-5.24955e-05
-5.51035e-05
-5.66741e-05
-5.74135e-05
-5.74786e-05
-5.687e-05
-5.54323e-05
-5.29592e-05
-4.91582e-05
-4.42699e-05
-3.8235e-05
-3.21475e-05
-2.6155e-05
-2.12281e-05
-1.75141e-05
-1.51069e-05
-1.38597e-05
-1.36452e-05
-1.41764e-05
-1.54281e-05
-1.20475e-05
-1.12297e-05
-1.07871e-05
-1.07113e-05
-1.11478e-05
-1.21723e-05
-1.39263e-05
-1.65934e-05
-2.04107e-05
-2.53904e-05
-3.14455e-05
-3.77158e-05
-4.3991e-05
-4.90681e-05
-5.3033e-05
-5.56369e-05
-5.71972e-05
-5.79289e-05
-5.79952e-05
-5.73968e-05
-5.59715e-05
-5.35043e-05
-4.96777e-05
-4.47251e-05
-3.85651e-05
-3.23495e-05
-2.63276e-05
-2.1381e-05
-1.76742e-05
-1.52774e-05
-1.40492e-05
-1.38635e-05
-1.44327e-05
-1.57356e-05
-1.21795e-05
-1.13436e-05
-1.0889e-05
-1.08061e-05
-1.12415e-05
-1.22691e-05
-1.40289e-05
-1.67059e-05
-2.05382e-05
-2.55518e-05
-3.16543e-05
-3.80066e-05
-4.43614e-05
-4.94869e-05
-5.34776e-05
-5.60893e-05
-5.76511e-05
-5.83826e-05
-5.84504e-05
-5.78549e-05
-5.64308e-05
-5.39587e-05
-5.01075e-05
-4.51065e-05
-3.88665e-05
-3.25674e-05
-2.64987e-05
-2.15205e-05
-1.78039e-05
-1.54065e-05
-1.41872e-05
-1.4019e-05
-1.46121e-05
-1.59471e-05
-1.22556e-05
-1.14121e-05
-1.09528e-05
-1.08679e-05
-1.1305e-05
-1.23388e-05
-1.41102e-05
-1.68063e-05
-2.0667e-05
-2.57227e-05
-3.18767e-05
-3.82866e-05
-4.46948e-05
-4.98635e-05
-5.38858e-05
-5.65218e-05
-5.80993e-05
-5.88393e-05
-5.89088e-05
-5.83074e-05
-5.687e-05
-5.43814e-05
-5.04993e-05
-4.54547e-05
-3.91601e-05
-3.28016e-05
-2.66804e-05
-2.16609e-05
-1.79171e-05
-1.55044e-05
-1.42801e-05
-1.41148e-05
-1.47162e-05
-1.60647e-05
-1.22763e-05
-1.14357e-05
-1.0979e-05
-1.0897e-05
-1.13387e-05
-1.23812e-05
-1.41696e-05
-1.68938e-05
-2.07982e-05
-2.59019e-05
-3.21134e-05
-3.85611e-05
-4.49979e-05
-5.02066e-05
-5.4271e-05
-5.69445e-05
-5.85505e-05
-5.93084e-05
-5.93829e-05
-5.87744e-05
-5.73163e-05
-5.4781e-05
-5.08596e-05
-4.5777e-05
-3.94525e-05
-3.30532e-05
-2.68713e-05
-2.18002e-05
-1.8013e-05
-1.55715e-05
-1.43285e-05
-1.41521e-05
-1.47465e-05
-1.60902e-05
-1.22432e-05
-1.14159e-05
-1.09684e-05
-1.08924e-05
-1.13384e-05
-1.23879e-05
-1.41928e-05
-1.69474e-05
-2.09047e-05
-2.60695e-05
-3.23643e-05
-3.88259e-05
-4.52459e-05
-5.04717e-05
-5.4567e-05
-5.72874e-05
-5.89314e-05
-5.9713e-05
-5.97907e-05
-5.91643e-05
-5.76735e-05
-5.51022e-05
-5.11528e-05
-4.60541e-05
-3.97432e-05
-3.33246e-05
-2.70554e-05
-2.19199e-05
-1.80752e-05
-1.55971e-05
-1.4328e-05
-1.41306e-05
-1.47046e-05
-1.60252e-05
-1.21592e-05
-1.13548e-05
-1.09207e-05
-1.08496e-05
-1.12922e-05
-1.23347e-05
-1.41384e-05
-1.69054e-05
-2.09104e-05
-2.61482e-05
-3.26138e-05
-3.9037e-05
-4.53413e-05
-5.05157e-05
-5.4597e-05
-5.73474e-05
-5.90245e-05
-5.98308e-05
-5.99136e-05
-5.92728e-05
-5.77588e-05
-5.5168e-05
-5.12391e-05
-4.61952e-05
-3.99944e-05
-3.36025e-05
-2.71581e-05
-2.19452e-05
-1.80471e-05
-1.55463e-05
-1.42611e-05
-1.40443e-05
-1.45908e-05
-1.58713e-05
-1.20303e-05
-1.1258e-05
-1.08403e-05
-1.07704e-05
-1.11964e-05
-1.22075e-05
-1.39735e-05
-1.67054e-05
-2.07165e-05
-2.59904e-05
-3.29077e-05
-3.9208e-05
-4.51439e-05
-5.01351e-05
-5.41098e-05
-5.68375e-05
-5.85184e-05
-5.93392e-05
-5.94305e-05
-5.87925e-05
-5.72917e-05
-5.47414e-05
-5.09318e-05
-4.60798e-05
-4.0238e-05
-3.39381e-05
-2.70426e-05
-2.17885e-05
-1.78766e-05
-1.5396e-05
-1.41227e-05
-1.38982e-05
-1.44139e-05
-1.56371e-05
-1.18642e-05
-1.11304e-05
-1.07279e-05
-1.06473e-05
-1.10272e-05
-1.19506e-05
-1.35822e-05
-1.61328e-05
-1.9924e-05
-2.48118e-05
-3.30528e-05
-3.93695e-05
-4.44137e-05
-4.89018e-05
-5.25391e-05
-5.51163e-05
-5.67317e-05
-5.75406e-05
-5.76457e-05
-5.70483e-05
-5.56423e-05
-5.32739e-05
-4.98245e-05
-4.54954e-05
-4.05441e-05
-3.41329e-05
-2.59242e-05
-2.10614e-05
-1.73626e-05
-1.5042e-05
-1.38681e-05
-1.36791e-05
-1.41769e-05
-1.53325e-05
-1.16757e-05
-1.09857e-05
-1.06002e-05
-1.05049e-05
-1.08228e-05
-1.16201e-05
-1.30433e-05
-1.53383e-05
-1.91998e-05
-2.46941e-05
-3.51079e-05
-3.77839e-05
-4.29319e-05
-4.7025e-05
-5.0176e-05
-5.25145e-05
-5.40097e-05
-5.47799e-05
-5.49073e-05
-5.43964e-05
-5.31623e-05
-5.10903e-05
-4.81641e-05
-4.42436e-05
-3.91017e-05
-3.61434e-05
-2.60171e-05
-2.04961e-05
-1.66822e-05
-1.45756e-05
-1.35601e-05
-1.34315e-05
-1.39139e-05
-1.49909e-05
-1.14771e-05
-1.08303e-05
-1.04578e-05
-1.03344e-05
-1.05537e-05
-1.11213e-05
-1.20017e-05
-1.29698e-05
-1.37721e-05
-1.00745e-05
-4.67726e-05
-4.23998e-05
-4.42301e-05
-4.6269e-05
-4.80582e-05
-4.93025e-05
-4.99971e-05
-5.01542e-05
-4.97839e-05
-4.88745e-05
-4.74437e-05
-4.56969e-05
-4.41323e-05
-4.85006e-05
-1.13835e-05
-1.52097e-05
-1.4446e-05
-1.36361e-05
-1.3104e-05
-1.31288e-05
-1.36245e-05
-1.46304e-05
-1.12891e-05
-1.06859e-05
-1.03357e-05
-1.02099e-05
-1.03984e-05
-1.09268e-05
-1.18632e-05
-1.33332e-05
-1.58073e-05
-1.99367e-05
-2.19113e-05
-3.31146e-05
-3.6912e-05
-4.04437e-05
-4.29912e-05
-4.4996e-05
-4.6327e-05
-4.70838e-05
-4.72793e-05
-4.6935e-05
-4.60454e-05
-4.45311e-05
-4.23832e-05
-3.92177e-05
-3.54073e-05
-2.48661e-05
-2.2307e-05
-1.78438e-05
-1.51197e-05
-1.36416e-05
-1.2953e-05
-1.29327e-05
-1.33795e-05
-1.43071e-05
-1.11226e-05
-1.05596e-05
-1.02328e-05
-1.01096e-05
-1.02732e-05
-1.07524e-05
-1.16116e-05
-1.29642e-05
-1.49511e-05
-1.77443e-05
-2.28056e-05
-2.98373e-05
-3.35268e-05
-3.69194e-05
-3.95251e-05
-4.1524e-05
-4.2854e-05
-4.36244e-05
-4.38458e-05
-4.35461e-05
-4.27147e-05
-4.127e-05
-3.9155e-05
-3.62422e-05
-3.25839e-05
-2.57017e-05
-2.01581e-05
-1.70961e-05
-1.48805e-05
-1.34738e-05
-1.27983e-05
-1.27579e-05
-1.31629e-05
-1.4024e-05
-1.09919e-05
-1.04705e-05
-1.01748e-05
-1.00695e-05
-1.02307e-05
-1.06877e-05
-1.1504e-05
-1.27953e-05
-1.47468e-05
-1.75653e-05
-2.14895e-05
-2.64403e-05
-3.02495e-05
-3.36968e-05
-3.63622e-05
-3.84606e-05
-3.98355e-05
-4.06219e-05
-4.0857e-05
-4.05758e-05
-3.97535e-05
-3.83075e-05
-3.61521e-05
-3.32387e-05
-2.9491e-05
-2.45827e-05
-2.0285e-05
-1.70753e-05
-1.48197e-05
-1.34203e-05
-1.2735e-05
-1.26592e-05
-1.3013e-05
-1.38062e-05
-1.09042e-05
-1.04311e-05
-1.01752e-05
-1.00995e-05
-1.02692e-05
-1.07076e-05
-1.14664e-05
-1.26432e-05
-1.4378e-05
-1.68305e-05
-2.00239e-05
-2.38345e-05
-2.72944e-05
-3.05344e-05
-3.309e-05
-3.51006e-05
-3.64147e-05
-3.71643e-05
-3.73982e-05
-3.71474e-05
-3.63884e-05
-3.50464e-05
-3.30108e-05
-3.03143e-05
-2.69217e-05
-2.30886e-05
-1.95468e-05
-1.6719e-05
-1.46868e-05
-1.33926e-05
-1.27375e-05
-1.26364e-05
-1.29376e-05
-1.36576e-05
-1.08656e-05
-1.04581e-05
-1.0259e-05
-1.02334e-05
-1.04328e-05
-1.08721e-05
-1.15875e-05
-1.26478e-05
-1.41464e-05
-1.61785e-05
-1.87435e-05
-2.1745e-05
-2.46939e-05
-2.75398e-05
-2.98343e-05
-3.16298e-05
-3.28143e-05
-3.3495e-05
-3.3723e-05
-3.35003e-05
-3.28343e-05
-3.1674e-05
-2.98467e-05
-2.74998e-05
-2.46225e-05
-2.15748e-05
-1.87258e-05
-1.63883e-05
-1.46504e-05
-1.3499e-05
-1.28789e-05
-1.27387e-05
-1.29668e-05
-1.35882e-05
-1.08762e-05
-1.05612e-05
-1.04427e-05
-1.04923e-05
-1.07476e-05
-1.12186e-05
-1.19299e-05
-1.2926e-05
-1.42621e-05
-1.59857e-05
-1.80937e-05
-2.05177e-05
-2.29863e-05
-2.53916e-05
-2.73731e-05
-2.89285e-05
-2.99805e-05
-3.05933e-05
-3.07971e-05
-3.06071e-05
-3.0012e-05
-2.89764e-05
-2.74385e-05
-2.54603e-05
-2.30847e-05
-2.06318e-05
-1.83284e-05
-1.63853e-05
-1.48902e-05
-1.38416e-05
-1.32201e-05
-1.30035e-05
-1.31199e-05
-1.35986e-05
-1.09233e-05
-1.07238e-05
-1.07019e-05
-1.08425e-05
-1.11734e-05
-1.17066e-05
-1.24625e-05
-1.34703e-05
-1.47631e-05
-1.6337e-05
-1.82329e-05
-2.03552e-05
-2.25261e-05
-2.46287e-05
-2.64046e-05
-2.78132e-05
-2.87936e-05
-2.93734e-05
-2.95665e-05
-2.93843e-05
-2.88182e-05
-2.78531e-05
-2.64688e-05
-2.47187e-05
-2.26683e-05
-2.05575e-05
-1.85494e-05
-1.68006e-05
-1.54412e-05
-1.44133e-05
-1.37359e-05
-1.3404e-05
-1.33758e-05
-1.36703e-05
-1.09949e-05
-1.0939e-05
-1.10205e-05
-1.12514e-05
-1.16658e-05
-1.22882e-05
-1.31471e-05
-1.42739e-05
-1.56932e-05
-1.74528e-05
-1.94328e-05
-2.16006e-05
-2.38108e-05
-2.59385e-05
-2.77724e-05
-2.92447e-05
-3.02921e-05
-3.09157e-05
-3.11184e-05
-3.09062e-05
-3.02761e-05
-2.92262e-05
-2.77625e-05
-2.59471e-05
-2.38684e-05
-2.17339e-05
-1.97018e-05
-1.79054e-05
-1.63658e-05
-1.52069e-05
-1.44023e-05
-1.39261e-05
-1.37279e-05
-1.37864e-05
-8.46632e-06
-8.47577e-06
-8.50081e-06
-8.54485e-06
-8.61445e-06
-8.71296e-06
-8.8429e-06
-9.00558e-06
-9.1995e-06
-9.42186e-06
-9.6624e-06
-9.91246e-06
-1.01541e-05
-1.0378e-05
-1.05716e-05
-1.07293e-05
-1.08459e-05
-1.09196e-05
-1.09492e-05
-1.09348e-05
-1.0878e-05
-1.07808e-05
-1.06488e-05
-1.04875e-05
-1.031e-05
-1.01252e-05
-9.95129e-06
-9.79626e-06
-9.66973e-06
-9.57289e-06
-9.50448e-06
-9.45952e-06
-9.42993e-06
-9.40998e-06
-8.42224e-06
-8.38388e-06
-8.37178e-06
-8.37871e-06
-8.41555e-06
-8.48398e-06
-8.58374e-06
-8.71386e-06
-8.86979e-06
-9.04874e-06
-9.23692e-06
-9.43109e-06
-9.61345e-06
-9.78354e-06
-9.9288e-06
-1.00486e-05
-1.01382e-05
-1.01978e-05
-1.02265e-05
-1.02244e-05
-1.01926e-05
-1.01314e-05
-1.00455e-05
-9.93577e-06
-9.81498e-06
-9.68344e-06
-9.55951e-06
-9.44649e-06
-9.35912e-06
-9.3008e-06
-9.27556e-06
-9.28117e-06
-9.30386e-06
-9.34594e-06
-8.43439e-06
-8.37772e-06
-8.34726e-06
-8.32969e-06
-8.34846e-06
-8.40671e-06
-8.50418e-06
-8.64105e-06
-8.81196e-06
-9.01915e-06
-9.23941e-06
-9.47844e-06
-9.69078e-06
-9.88731e-06
-1.00464e-05
-1.01756e-05
-1.02694e-05
-1.03308e-05
-1.03591e-05
-1.03544e-05
-1.03177e-05
-1.02462e-05
-1.01457e-05
-1.00087e-05
-9.8575e-06
-9.68089e-06
-9.52607e-06
-9.38752e-06
-9.29134e-06
-9.23751e-06
-9.23175e-06
-9.26803e-06
-9.31354e-06
-9.37497e-06
-8.49959e-06
-8.42158e-06
-8.37194e-06
-8.33554e-06
-8.34536e-06
-8.40728e-06
-8.52312e-06
-8.69777e-06
-8.92762e-06
-9.22686e-06
-9.5552e-06
-9.93516e-06
-1.02545e-05
-1.05453e-05
-1.07666e-05
-1.09419e-05
-1.10628e-05
-1.11379e-05
-1.11661e-05
-1.11476e-05
-1.10837e-05
-1.09658e-05
-1.0803e-05
-1.05715e-05
-1.03138e-05
-9.99719e-06
-9.73759e-06
-9.51185e-06
-9.36563e-06
-9.28819e-06
-9.284e-06
-9.33943e-06
-9.40608e-06
-9.49069e-06
-8.63032e-06
-8.52827e-06
-8.46433e-06
-8.41968e-06
-8.43459e-06
-8.51859e-06
-8.67783e-06
-8.92679e-06
-9.26754e-06
-9.74008e-06
-1.02754e-05
-1.0937e-05
-1.14605e-05
-1.19291e-05
-1.2267e-05
-1.25296e-05
-1.27028e-05
-1.2805e-05
-1.28338e-05
-1.27892e-05
-1.26739e-05
-1.24694e-05
-1.21908e-05
-1.1782e-05
-1.13218e-05
-1.07251e-05
-1.02641e-05
-9.87125e-06
-9.62439e-06
-9.48768e-06
-9.46079e-06
-9.51851e-06
-9.59903e-06
-9.71129e-06
-8.82679e-06
-8.69555e-06
-8.62119e-06
-8.57799e-06
-8.61193e-06
-8.73632e-06
-8.96322e-06
-9.32108e-06
-9.82261e-06
-1.05572e-05
-1.14199e-05
-1.25797e-05
-1.34255e-05
-1.41724e-05
-1.4687e-05
-1.50843e-05
-1.53388e-05
-1.54837e-05
-1.55138e-05
-1.5429e-05
-1.52347e-05
-1.48973e-05
-1.44434e-05
-1.3757e-05
-1.29765e-05
-1.18828e-05
-1.11031e-05
-1.04549e-05
-1.00583e-05
-9.82834e-06
-9.75605e-06
-9.80151e-06
-9.89064e-06
-1.00382e-05
-9.08607e-06
-8.91799e-06
-8.83584e-06
-8.80218e-06
-8.86749e-06
-9.04785e-06
-9.36124e-06
-9.85226e-06
-1.05477e-05
-1.16339e-05
-1.29543e-05
-1.49771e-05
-1.62559e-05
-1.73635e-05
-1.80907e-05
-1.86535e-05
-1.90058e-05
-1.92041e-05
-1.92365e-05
-1.91026e-05
-1.88145e-05
-1.83145e-05
-1.765e-05
-1.6603e-05
-1.53917e-05
-1.34331e-05
-1.22118e-05
-1.12182e-05
-1.06387e-05
-1.02912e-05
-1.01566e-05
-1.01794e-05
-1.02749e-05
-1.04694e-05
-9.40372e-06
-9.18701e-06
-9.10074e-06
-9.08665e-06
-9.19932e-06
-9.45524e-06
-9.87478e-06
-1.05063e-05
-1.13855e-05
-1.27698e-05
-1.46543e-05
-1.81863e-05
-1.9915e-05
-2.14501e-05
-2.24343e-05
-2.32104e-05
-2.36919e-05
-2.39622e-05
-2.3998e-05
-2.37988e-05
-2.33873e-05
-2.26785e-05
-2.17598e-05
-2.02836e-05
-1.86216e-05
-1.51422e-05
-1.33907e-05
-1.21005e-05
-1.13475e-05
-1.08747e-05
-1.06604e-05
-1.06473e-05
-1.07448e-05
-1.10024e-05
-9.7675e-06
-9.49395e-06
-9.40303e-06
-9.41497e-06
-9.58694e-06
-9.93067e-06
-1.04591e-05
-1.12005e-05
-1.21085e-05
-1.36684e-05
-1.58387e-05
-2.27357e-05
-2.43475e-05
-2.60583e-05
-2.71927e-05
-2.81019e-05
-2.86689e-05
-2.89941e-05
-2.90343e-05
-2.87887e-05
-2.82995e-05
-2.74634e-05
-2.63977e-05
-2.47396e-05
-2.31951e-05
-1.63087e-05
-1.43726e-05
-1.28828e-05
-1.21055e-05
-1.15341e-05
-1.1237e-05
-1.11802e-05
-1.12788e-05
-1.16297e-05
-1.01659e-05
-9.83146e-06
-9.74212e-06
-9.80019e-06
-1.00713e-05
-1.05657e-05
-1.12977e-05
-1.21681e-05
-1.31355e-05
-1.53786e-05
-1.1247e-05
-2.64501e-05
-2.8034e-05
-3.02722e-05
-3.17162e-05
-3.29172e-05
-3.36607e-05
-3.40749e-05
-3.41199e-05
-3.37949e-05
-3.31392e-05
-3.20205e-05
-3.06515e-05
-2.84632e-05
-2.69767e-05
-1.15279e-05
-1.61029e-05
-1.39301e-05
-1.31222e-05
-1.24346e-05
-1.19619e-05
-1.18062e-05
-1.18842e-05
-1.23324e-05
-1.05831e-05
-1.01777e-05
-1.00872e-05
-1.01931e-05
-1.05694e-05
-1.12283e-05
-1.21701e-05
-1.31951e-05
-1.36797e-05
-8.72123e-06
-3.86045e-05
-3.29626e-05
-3.37895e-05
-3.51039e-05
-3.61959e-05
-3.69493e-05
-3.73625e-05
-3.74122e-05
-3.70975e-05
-3.64411e-05
-3.54411e-05
-3.421e-05
-3.34241e-05
-3.89301e-05
-9.95441e-06
-1.46799e-05
-1.42356e-05
-1.33704e-05
-1.27056e-05
-1.24386e-05
-1.2502e-05
-1.30775e-05
-1.10063e-05
-1.05278e-05
-1.04498e-05
-1.06379e-05
-1.12013e-05
-1.22199e-05
-1.38632e-05
-1.62711e-05
-2.02087e-05
-2.44117e-05
-3.5546e-05
-3.15149e-05
-3.39217e-05
-3.64548e-05
-3.85324e-05
-4.00744e-05
-4.10806e-05
-4.15888e-05
-4.16431e-05
-4.12435e-05
-4.03473e-05
-3.89169e-05
-3.69562e-05
-3.45472e-05
-3.22649e-05
-3.65962e-05
-2.52777e-05
-2.11392e-05
-1.72932e-05
-1.50657e-05
-1.3734e-05
-1.31687e-05
-1.31436e-05
-1.38487e-05
-1.1411e-05
-1.08584e-05
-1.07792e-05
-1.1017e-05
-1.16937e-05
-1.29043e-05
-1.48366e-05
-1.75809e-05
-2.15118e-05
-2.55306e-05
-3.20682e-05
-3.38042e-05
-3.6016e-05
-3.82552e-05
-4.04089e-05
-4.20271e-05
-4.31176e-05
-4.36714e-05
-4.3729e-05
-4.32908e-05
-4.23171e-05
-4.08156e-05
-3.87803e-05
-3.66468e-05
-3.4525e-05
-3.29467e-05
-2.64452e-05
-2.24607e-05
-1.86179e-05
-1.60666e-05
-1.44767e-05
-1.37779e-05
-1.37335e-05
-1.45762e-05
-1.17835e-05
-1.11665e-05
-1.10869e-05
-1.13692e-05
-1.21454e-05
-1.35223e-05
-1.56934e-05
-1.87444e-05
-2.29154e-05
-2.74407e-05
-3.27408e-05
-3.56121e-05
-3.81108e-05
-4.05009e-05
-4.2871e-05
-4.45993e-05
-4.57709e-05
-4.63577e-05
-4.64183e-05
-4.59528e-05
-4.49042e-05
-4.32978e-05
-4.10506e-05
-3.8765e-05
-3.63641e-05
-3.35887e-05
-2.8343e-05
-2.38654e-05
-1.97962e-05
-1.6956e-05
-1.51593e-05
-1.43489e-05
-1.42859e-05
-1.52388e-05
-1.21074e-05
-1.14351e-05
-1.1347e-05
-1.16492e-05
-1.24753e-05
-1.39312e-05
-1.61992e-05
-1.93631e-05
-2.35799e-05
-2.82613e-05
-3.33209e-05
-3.67132e-05
-3.94955e-05
-4.19759e-05
-4.44348e-05
-4.6202e-05
-4.74042e-05
-4.80008e-05
-4.80633e-05
-4.75916e-05
-4.65156e-05
-4.48723e-05
-4.25373e-05
-4.01572e-05
-3.74618e-05
-3.41587e-05
-2.9165e-05
-2.45415e-05
-2.04392e-05
-1.75052e-05
-1.5642e-05
-1.48003e-05
-1.47522e-05
-1.57982e-05
-1.23754e-05
-1.16608e-05
-1.15642e-05
-1.18773e-05
-1.27342e-05
-1.42391e-05
-1.65653e-05
-1.97994e-05
-2.40535e-05
-2.88259e-05
-3.38489e-05
-3.74925e-05
-4.0463e-05
-4.30333e-05
-4.55583e-05
-4.73451e-05
-4.85582e-05
-4.91559e-05
-4.922e-05
-4.87503e-05
-4.7666e-05
-4.60049e-05
-4.36052e-05
-4.11359e-05
-3.8266e-05
-3.46914e-05
-2.97383e-05
-2.50301e-05
-2.0902e-05
-1.79152e-05
-1.60199e-05
-1.51677e-05
-1.51364e-05
-1.62493e-05
-1.2582e-05
-1.18371e-05
-1.17319e-05
-1.2048e-05
-1.2919e-05
-1.44475e-05
-1.68008e-05
-2.007e-05
-2.43486e-05
-2.91886e-05
-3.42433e-05
-3.80317e-05
-4.1114e-05
-4.37383e-05
-4.62979e-05
-4.80929e-05
-4.93102e-05
-4.99078e-05
-4.99734e-05
-4.95068e-05
-4.84208e-05
-4.67534e-05
-4.43202e-05
-4.17968e-05
-3.88163e-05
-3.50941e-05
-3.01126e-05
-2.53419e-05
-2.11985e-05
-1.81902e-05
-1.62879e-05
-1.54403e-05
-1.54276e-05
-1.65876e-05
-1.27258e-05
-1.1963e-05
-1.18525e-05
-1.21699e-05
-1.30494e-05
-1.4593e-05
-1.69662e-05
-2.02634e-05
-2.45716e-05
-2.94667e-05
-3.45704e-05
-3.84488e-05
-4.16029e-05
-4.42713e-05
-4.68611e-05
-4.86706e-05
-4.98967e-05
-5.0498e-05
-5.05655e-05
-5.00986e-05
-4.90071e-05
-4.73279e-05
-4.48658e-05
-4.22988e-05
-3.92467e-05
-3.54337e-05
-3.04049e-05
-2.55817e-05
-2.14141e-05
-1.83866e-05
-1.64774e-05
-1.56322e-05
-1.56305e-05
-1.68177e-05
-1.2806e-05
-1.20376e-05
-1.19256e-05
-1.22442e-05
-1.31287e-05
-1.46822e-05
-1.70712e-05
-2.03926e-05
-2.47346e-05
-2.96759e-05
-3.48321e-05
-3.87668e-05
-4.19666e-05
-4.46726e-05
-4.72913e-05
-4.91233e-05
-5.03645e-05
-5.09747e-05
-5.10446e-05
-5.05735e-05
-4.94708e-05
-4.77729e-05
-4.52839e-05
-4.26804e-05
-3.95826e-05
-3.57122e-05
-3.06307e-05
-2.57612e-05
-2.15613e-05
-1.85129e-05
-1.65932e-05
-1.57451e-05
-1.57459e-05
-1.69425e-05
-1.28234e-05
-1.20615e-05
-1.19516e-05
-1.22711e-05
-1.3157e-05
-1.47146e-05
-1.7115e-05
-2.04563e-05
-2.48362e-05
-2.98162e-05
-3.50317e-05
-3.89963e-05
-4.22162e-05
-4.49525e-05
-4.75985e-05
-4.94594e-05
-5.07213e-05
-5.13452e-05
-5.1419e-05
-5.09419e-05
-4.98243e-05
-4.80999e-05
-4.55864e-05
-4.29545e-05
-3.98364e-05
-3.59336e-05
-3.07905e-05
-2.58792e-05
-2.164e-05
-1.85699e-05
-1.66363e-05
-1.57805e-05
-1.57755e-05
-1.69637e-05
-1.27797e-05
-1.20367e-05
-1.19323e-05
-1.22511e-05
-1.31325e-05
-1.46847e-05
-1.70868e-05
-2.04375e-05
-2.4857e-05
-2.98668e-05
-3.51679e-05
-3.91323e-05
-4.23345e-05
-4.50897e-05
-4.77539e-05
-4.96481e-05
-5.09342e-05
-5.15756e-05
-5.16537e-05
-5.11675e-05
-5.00333e-05
-4.82831e-05
-4.57558e-05
-4.31087e-05
-4.00074e-05
-3.60995e-05
-3.0867e-05
-2.59212e-05
-2.16373e-05
-1.85506e-05
-1.66054e-05
-1.57406e-05
-1.57225e-05
-1.68828e-05
-1.26777e-05
-1.19654e-05
-1.18665e-05
-1.21768e-05
-1.30365e-05
-1.45563e-05
-1.69252e-05
-2.02436e-05
-2.46816e-05
-2.97044e-05
-3.51815e-05
-3.91026e-05
-4.2224e-05
-4.49571e-05
-4.75988e-05
-4.95102e-05
-5.08113e-05
-5.1469e-05
-5.1553e-05
-5.10625e-05
-4.99242e-05
-4.81681e-05
-4.56704e-05
-4.30518e-05
-4.00291e-05
-3.61519e-05
-3.07394e-05
-2.57752e-05
-2.14667e-05
-1.84013e-05
-1.64725e-05
-1.5615e-05
-1.55859e-05
-1.66996e-05
-1.25247e-05
-1.1856e-05
-1.17635e-05
-1.20582e-05
-1.28796e-05
-1.43385e-05
-1.66342e-05
-1.98688e-05
-2.42981e-05
-2.92362e-05
-3.51215e-05
-3.89457e-05
-4.18262e-05
-4.45385e-05
-4.71389e-05
-4.90547e-05
-5.03567e-05
-5.10269e-05
-5.11198e-05
-5.06355e-05
-4.95134e-05
-4.7772e-05
-4.53279e-05
-4.27432e-05
-3.9952e-05
-3.61453e-05
-3.03229e-05
-2.54404e-05
-2.11339e-05
-1.81374e-05
-1.62574e-05
-1.54241e-05
-1.53834e-05
-1.64247e-05
-1.23288e-05
-1.17124e-05
-1.16192e-05
-1.18757e-05
-1.26116e-05
-1.39233e-05
-1.59993e-05
-1.89368e-05
-2.30908e-05
-2.7484e-05
-3.48148e-05
-3.85761e-05
-4.10363e-05
-4.36153e-05
-4.60252e-05
-4.78662e-05
-4.91184e-05
-4.97814e-05
-4.98872e-05
-4.94372e-05
-4.83897e-05
-4.67522e-05
-4.45172e-05
-4.20928e-05
-3.97338e-05
-3.58816e-05
-2.86308e-05
-2.4306e-05
-2.02749e-05
-1.75581e-05
-1.58666e-05
-1.51336e-05
-1.51125e-05
-1.60669e-05
-1.21082e-05
-1.1554e-05
-1.14652e-05
-1.16864e-05
-1.23377e-05
-1.34993e-05
-1.53425e-05
-1.79876e-05
-2.22259e-05
-2.71324e-05
-3.70237e-05
-3.66227e-05
-4.00484e-05
-4.3257e-05
-4.57352e-05
-4.76096e-05
-4.88553e-05
-4.95222e-05
-4.96477e-05
-4.92365e-05
-4.82369e-05
-4.66156e-05
-4.43392e-05
-4.13194e-05
-3.79364e-05
-3.80141e-05
-2.84583e-05
-2.35898e-05
-1.94546e-05
-1.69979e-05
-1.54925e-05
-1.48494e-05
-1.48319e-05
-1.56709e-05
-1.18755e-05
-1.13822e-05
-1.12848e-05
-1.14409e-05
-1.19368e-05
-1.27813e-05
-1.39556e-05
-1.51513e-05
-1.54377e-05
-8.3197e-06
-4.96542e-05
-4.16214e-05
-4.24944e-05
-4.41363e-05
-4.56012e-05
-4.66442e-05
-4.72607e-05
-4.74088e-05
-4.7098e-05
-4.63514e-05
-4.52136e-05
-4.38009e-05
-4.31625e-05
-5.11691e-05
-9.63173e-06
-1.69939e-05
-1.67966e-05
-1.57513e-05
-1.48565e-05
-1.4462e-05
-1.45143e-05
-1.52509e-05
-1.16559e-05
-1.12232e-05
-1.11382e-05
-1.12795e-05
-1.1738e-05
-1.25501e-05
-1.37894e-05
-1.54434e-05
-1.78464e-05
-2.17636e-05
-2.18379e-05
-3.46694e-05
-3.74835e-05
-4.05496e-05
-4.27432e-05
-4.47134e-05
-4.59784e-05
-4.67207e-05
-4.69057e-05
-4.65581e-05
-4.56941e-05
-4.41832e-05
-4.22415e-05
-3.93186e-05
-3.66049e-05
-2.47877e-05
-2.4123e-05
-2.00112e-05
-1.74001e-05
-1.5743e-05
-1.46857e-05
-1.4242e-05
-1.42484e-05
-1.48778e-05
-1.14593e-05
-1.10781e-05
-1.10015e-05
-1.11234e-05
-1.15289e-05
-1.22607e-05
-1.33919e-05
-1.50004e-05
-1.71634e-05
-2.00107e-05
-2.50436e-05
-3.24897e-05
-3.49702e-05
-3.74356e-05
-3.94772e-05
-4.11051e-05
-4.22788e-05
-4.30108e-05
-4.32138e-05
-4.29084e-05
-4.2114e-05
-4.07727e-05
-3.89658e-05
-3.67048e-05
-3.43942e-05
-2.75991e-05
-2.23339e-05
-1.94131e-05
-1.70834e-05
-1.54344e-05
-1.44262e-05
-1.39986e-05
-1.39917e-05
-1.45465e-05
-1.13017e-05
-1.09699e-05
-1.0914e-05
-1.10407e-05
-1.14325e-05
-1.2139e-05
-1.32407e-05
-1.48363e-05
-1.70631e-05
-2.00407e-05
-2.39692e-05
-2.87085e-05
-3.13601e-05
-3.36208e-05
-3.54639e-05
-3.72026e-05
-3.83832e-05
-3.9113e-05
-3.93221e-05
-3.90352e-05
-3.82495e-05
-3.69372e-05
-3.51378e-05
-3.29511e-05
-3.05838e-05
-2.64632e-05
-2.25187e-05
-1.94304e-05
-1.70153e-05
-1.53394e-05
-1.43126e-05
-1.38555e-05
-1.38083e-05
-1.42898e-05
-1.11884e-05
-1.09046e-05
-1.08745e-05
-1.10127e-05
-1.13922e-05
-1.20588e-05
-1.30824e-05
-1.45541e-05
-1.65714e-05
-1.92467e-05
-2.24062e-05
-2.59439e-05
-2.83747e-05
-3.04649e-05
-3.22496e-05
-3.39172e-05
-3.50517e-05
-3.57514e-05
-3.59645e-05
-3.57068e-05
-3.49746e-05
-3.37601e-05
-3.20627e-05
-3.00559e-05
-2.78642e-05
-2.48512e-05
-2.17175e-05
-1.89455e-05
-1.6752e-05
-1.51928e-05
-1.42205e-05
-1.37644e-05
-1.36878e-05
-1.41023e-05
-1.11224e-05
-1.0892e-05
-1.08994e-05
-1.10649e-05
-1.14492e-05
-1.209e-05
-1.30416e-05
-1.43718e-05
-1.61412e-05
-1.83986e-05
-2.09916e-05
-2.382e-05
-2.61171e-05
-2.82224e-05
-3.00272e-05
-3.16093e-05
-3.27154e-05
-3.33974e-05
-3.36473e-05
-3.33764e-05
-3.26679e-05
-3.14911e-05
-2.99275e-05
-2.80253e-05
-2.59025e-05
-2.34138e-05
-2.08151e-05
-1.84621e-05
-1.65429e-05
-1.5139e-05
-1.42311e-05
-1.37711e-05
-1.36537e-05
-1.39897e-05
-1.10995e-05
-1.09311e-05
-1.0986e-05
-1.11918e-05
-1.15958e-05
-1.22283e-05
-1.31293e-05
-1.4345e-05
-1.59096e-05
-1.78419e-05
-2.00347e-05
-2.24093e-05
-2.45687e-05
-2.66089e-05
-2.83362e-05
-2.98149e-05
-3.08539e-05
-3.14899e-05
-3.16986e-05
-3.14858e-05
-3.08493e-05
-2.97973e-05
-2.83311e-05
-2.65774e-05
-2.45708e-05
-2.23921e-05
-2.0172e-05
-1.81519e-05
-1.64763e-05
-1.52117e-05
-1.43546e-05
-1.38764e-05
-1.37041e-05
-1.39452e-05
-1.11031e-05
-1.09968e-05
-1.10882e-05
-1.13317e-05
-1.17614e-05
-1.24027e-05
-1.32865e-05
-1.4445e-05
-1.58981e-05
-1.76441e-05
-1.96203e-05
-2.17475e-05
-2.3811e-05
-2.57754e-05
-2.74594e-05
-2.88601e-05
-2.98587e-05
-3.04662e-05
-3.0666e-05
-3.04671e-05
-2.98637e-05