/*--------------------------------*- C++ -*----------------------------------*\
| =========                 |                                                 |
| \\      /  F ield         | OpenFOAM: The Open Source CFD Toolbox           |
|  \\    /   O peration     | Version:  2112                                  |
|   \\  /    A nd           | Website:  www.openfoam.com                      |
|    \\/     M anipulation  |                                                 |
\*---------------------------------------------------------------------------*/
FoamFile
{
    version     2.0;
    format      ascii;
    arch        "LSB;label=32;scalar=64";
    class       surfaceScalarField;
    location    "1.8";
    object      phi;
}
// * * * * * * * * * * * * * * * * * * * * * * * * * * * * * * * * * * * * * //

dimensions      [0 3 -1 0 0 0 0];

oriented        oriented;

internalField   nonuniform List<scalar> 
188215
(
1.02151e-09
2.43092e-09
-3.45244e-09
3.13957e-09
1.69409e-09
-3.81214e-09
5.611e-09
1.05532e-09
-3.52675e-09
8.12646e-09
6.5673e-10
-3.17218e-09
1.05807e-08
5.47013e-10
-3.00121e-09
1.2947e-08
6.44907e-10
-3.01123e-09
1.51999e-08
9.00593e-10
-3.15346e-09
1.72645e-08
1.32052e-09
-3.38517e-09
1.90276e-08
1.91747e-09
-3.68053e-09
2.02439e-08
2.79431e-09
-4.01069e-09
2.07372e-08
3.87395e-09
-4.36716e-09
2.01647e-08
5.29482e-09
-4.72234e-09
1.86691e-08
6.53513e-09
-5.03956e-09
1.62971e-08
7.66508e-09
-5.29309e-09
1.3266e-08
8.5261e-09
-5.49494e-09
9.72098e-09
9.18998e-09
-5.64499e-09
5.84924e-09
9.62075e-09
-5.74901e-09
1.81787e-09
9.83864e-09
-5.80726e-09
-2.19935e-09
9.83781e-09
-5.82059e-09
-6.02916e-09
9.61849e-09
-5.78868e-09
-9.50535e-09
9.18697e-09
-5.71078e-09
-1.24422e-08
8.52345e-09
-5.58659e-09
-1.46979e-08
7.66601e-09
-5.41031e-09
-1.60583e-08
6.54332e-09
-5.18291e-09
-1.64845e-08
5.31978e-09
-4.89357e-09
-1.58362e-08
3.9238e-09
-4.57212e-09
-1.44658e-08
2.8912e-09
-4.26163e-09
-1.25437e-08
2.08133e-09
-4.00345e-09
-1.0315e-08
1.60243e-09
-3.83109e-09
-7.8944e-09
1.39757e-09
-3.81816e-09
-5.38522e-09
1.53585e-09
-4.04503e-09
-2.92992e-09
2.08576e-09
-4.54106e-09
-8.69255e-10
2.93525e-09
-4.99592e-09
3.76037e-09
-4.62962e-09
-2.79424e-10
7.16353e-09
-4.45318e-09
2.12381e-09
7.27174e-09
-7.98088e-09
5.21732e-09
6.99583e-09
-9.03401e-09
8.20625e-09
6.98676e-09
-9.31896e-09
1.09743e-08
7.45638e-09
-9.6774e-09
1.35591e-08
8.382e-09
-1.03219e-08
1.59977e-08
9.74543e-09
-1.12834e-08
1.82571e-08
1.16142e-08
-1.2553e-08
2.02331e-08
1.40627e-08
-1.41213e-08
2.16495e-08
1.73599e-08
-1.5982e-08
2.22758e-08
2.13302e-08
-1.80826e-08
2.16517e-08
2.62545e-08
-2.03355e-08
2.00059e-08
3.06605e-08
-2.24797e-08
1.74183e-08
3.464e-08
-2.43873e-08
1.41462e-08
3.77695e-08
-2.59713e-08
1.03421e-08
4.01951e-08
-2.7201e-08
6.19993e-09
4.18093e-08
-2.80465e-08
1.89334e-09
4.26418e-08
-2.84965e-08
-2.39777e-09
4.26709e-08
-2.8542e-08
-6.49357e-09
4.18971e-08
-2.81828e-08
-1.02216e-08
4.03436e-08
-2.74286e-08
-1.33892e-08
3.79821e-08
-2.62911e-08
-1.58477e-08
3.49257e-08
-2.48013e-08
-1.73425e-08
3.10307e-08
-2.29925e-08
-1.78026e-08
2.67356e-08
-2.09558e-08
-1.69977e-08
2.19455e-08
-1.88265e-08
-1.53953e-08
1.81668e-08
-1.6878e-08
-1.3199e-08
1.51005e-08
-1.52155e-08
-1.06494e-08
1.29739e-08
-1.39211e-08
-7.79573e-09
1.15734e-08
-1.30295e-08
-4.65035e-09
1.09045e-08
-1.25141e-08
-1.36982e-09
1.09129e-08
-1.21077e-08
1.07229e-09
1.12434e-08
-1.07502e-08
1.09381e-08
-6.10542e-09
-1.18743e-09
1.28089e-08
-4.45795e-09
1.48354e-09
1.38313e-08
-9.23057e-09
5.09869e-09
1.42045e-08
-1.08238e-08
8.57482e-09
1.49185e-08
-1.14079e-08
1.17601e-08
1.62774e-08
-1.20063e-08
1.47372e-08
1.83255e-08
-1.29205e-08
1.76095e-08
2.11103e-08
-1.42372e-08
2.03982e-08
2.48088e-08
-1.59832e-08
2.30126e-08
2.96202e-08
-1.81719e-08
2.50592e-08
3.61295e-08
-2.08162e-08
2.61463e-08
4.40883e-08
-2.38451e-08
2.5365e-08
5.41603e-08
-2.71246e-08
2.32801e-08
6.30013e-08
-3.02558e-08
2.00792e-08
7.08765e-08
-3.30355e-08
1.61725e-08
7.70137e-08
-3.53375e-08
1.17089e-08
8.17735e-08
-3.71148e-08
6.90063e-09
8.49479e-08
-3.83304e-08
1.92252e-09
8.65929e-08
-3.8973e-08
-3.03919e-09
8.66629e-08
-3.90303e-08
-7.79807e-09
8.51581e-08
-3.85022e-08
-1.21798e-08
8.21266e-08
-3.74013e-08
-1.5972e-08
7.75138e-08
-3.57395e-08
-1.90287e-08
7.15375e-08
-3.35551e-08
-2.09401e-08
6.38404e-08
-3.08984e-08
-2.1528e-08
5.52241e-08
-2.79006e-08
-2.02215e-08
4.54144e-08
-2.47754e-08
-1.79416e-08
3.78228e-08
-2.19359e-08
-1.50263e-08
3.1721e-08
-1.95357e-08
-1.18066e-08
2.74265e-08
-1.76722e-08
-8.28648e-09
2.43988e-08
-1.63455e-08
-4.43013e-09
2.25043e-08
-1.54561e-08
-4.43558e-10
2.15388e-08
-1.46124e-08
2.30349e-09
2.10181e-08
-1.25218e-08
1.94857e-08
-6.24409e-09
-1.57344e-09
1.85454e-08
-4.16308e-09
1.45158e-09
2.02493e-08
-9.44302e-09
5.67271e-09
2.12174e-08
-1.12341e-08
9.79845e-09
2.26898e-08
-1.1897e-08
1.36351e-08
2.50167e-08
-1.25759e-08
1.73116e-08
2.82753e-08
-1.36263e-08
2.1025e-08
3.25692e-08
-1.51723e-08
2.48986e-08
3.8212e-08
-1.72768e-08
2.88783e-08
4.56168e-08
-1.99764e-08
3.23483e-08
5.59763e-08
-2.33168e-08
3.44974e-08
6.91381e-08
-2.71989e-08
3.3314e-08
8.68391e-08
-3.14954e-08
3.02069e-08
1.01684e-07
-3.55758e-08
2.56715e-08
1.14588e-07
-3.9176e-08
2.04263e-08
1.24395e-07
-4.21358e-08
1.45822e-08
1.32008e-07
-4.43902e-08
8.37586e-09
1.37071e-07
-4.59163e-08
1.98499e-09
1.397e-07
-4.67163e-08
-4.38866e-09
1.39814e-07
-4.67779e-08
-1.05426e-08
1.37413e-07
-4.61012e-08
-1.62984e-08
1.3258e-07
-4.46974e-08
-2.1416e-08
1.25196e-07
-4.25651e-08
-2.57847e-08
1.15634e-07
-3.97273e-08
-2.86814e-08
1.0299e-07
-3.62529e-08
-2.9622e-08
8.84723e-08
-3.23077e-08
-2.71843e-08
7.11457e-08
-2.8169e-08
-2.34188e-08
5.85425e-08
-2.44853e-08
-1.90435e-08
4.87523e-08
-2.14067e-08
-1.45895e-08
4.20326e-08
-1.90601e-08
-1.00083e-08
3.72286e-08
-1.74111e-08
-5.19239e-09
3.40078e-08
-1.63194e-08
-3.72018e-10
3.2035e-08
-1.53166e-08
2.84253e-09
3.0749e-08
-1.29455e-08
2.83001e-08
-5.97195e-09
-1.56769e-09
2.40226e-08
-3.90946e-09
2.0382e-09
2.62587e-08
-9.61522e-09
7.06994e-09
2.77521e-08
-1.15664e-08
1.20623e-08
2.99773e-08
-1.22798e-08
1.68065e-08
3.33217e-08
-1.30492e-08
2.15138e-08
3.78601e-08
-1.42921e-08
2.65388e-08
4.37207e-08
-1.61765e-08
3.22289e-08
5.13399e-08
-1.8818e-08
3.86681e-08
6.14536e-08
-2.2276e-08
4.49514e-08
7.63453e-08
-2.66523e-08
4.93369e-08
9.65328e-08
-3.17801e-08
4.71876e-08
1.26678e-07
-3.76901e-08
4.19985e-08
1.50109e-07
-4.32359e-08
3.50323e-08
1.69695e-07
-4.81406e-08
2.75134e-08
1.84075e-07
-5.21618e-08
1.93674e-08
1.95299e-07
-5.51449e-08
1.0836e-08
2.02738e-07
-5.71365e-08
2.09346e-09
2.06612e-07
-5.81697e-08
-6.63174e-09
2.06777e-07
-5.8237e-08
-1.51094e-08
2.03229e-07
-5.73376e-08
-2.31626e-08
1.96111e-07
-5.54776e-08
-3.0541e-08
1.85199e-07
-5.26238e-08
-3.7314e-08
1.71134e-07
-4.87276e-08
-4.22416e-08
1.51866e-07
-4.39481e-08
-4.40741e-08
1.28839e-07
-3.8534e-08
-3.92921e-08
9.91429e-08
-3.27793e-08
-3.26501e-08
7.9757e-08
-2.78564e-08
-2.57223e-08
6.5583e-08
-2.37586e-08
-1.93029e-08
5.62992e-08
-2.06861e-08
-1.31871e-08
4.96669e-08
-1.8554e-08
-7.06922e-09
4.50793e-08
-1.71894e-08
-1.11585e-09
4.21111e-08
-1.60294e-08
2.88537e-09
4.01432e-08
-1.33954e-08
3.69531e-08
-5.76756e-09
-1.3069e-09
2.90825e-08
-3.75302e-09
3.15368e-09
3.17745e-08
-9.9764e-09
9.27414e-09
3.37775e-08
-1.21459e-08
1.53999e-08
3.67982e-08
-1.29466e-08
2.13226e-08
4.12695e-08
-1.38705e-08
2.7378e-08
4.72254e-08
-1.54207e-08
3.41718e-08
5.47497e-08
-1.78228e-08
4.25185e-08
6.42566e-08
-2.12634e-08
5.29412e-08
7.68225e-08
-2.57915e-08
6.45111e-08
9.63392e-08
-3.15638e-08
7.36179e-08
1.25526e-07
-3.81003e-08
6.92647e-08
1.77295e-07
-4.62633e-08
6.01249e-08
2.13135e-07
-5.38865e-08
4.91372e-08
2.41506e-07
-6.0824e-08
3.81695e-08
2.61603e-07
-6.65601e-08
2.65747e-08
2.77491e-07
-7.05975e-08
1.45453e-08
2.88012e-07
-7.32442e-08
2.25187e-09
2.93509e-07
-7.46028e-08
-1.00258e-08
2.93734e-07
-7.46799e-08
-2.20057e-08
2.88683e-07
-7.34744e-08
-3.35122e-08
2.78593e-07
-7.09763e-08
-4.43369e-08
2.63105e-07
-6.70821e-08
-5.51121e-08
2.43388e-07
-6.14783e-08
-6.39323e-08
2.15354e-07
-5.46678e-08
-6.78643e-08
1.79944e-07
-4.71733e-08
-5.81809e-08
1.28616e-07
-3.91563e-08
-4.62112e-08
1.00621e-07
-3.28337e-08
-3.522e-08
8.19511e-08
-2.73592e-08
-2.59841e-08
7.03225e-08
-2.32591e-08
-1.78369e-08
6.19188e-08
-2.03991e-08
-1.00226e-08
5.5872e-08
-1.86069e-08
-2.5447e-09
5.18255e-08
-1.71923e-08
2.62594e-09
4.91515e-08
-1.4179e-08
4.52897e-08
-5.7107e-09
-8.33356e-10
3.35764e-08
-3.66055e-09
4.76574e-09
3.67177e-08
-1.05423e-08
1.23059e-08
3.92635e-08
-1.30261e-08
1.98815e-08
4.31954e-08
-1.39729e-08
2.72702e-08
4.9011e-08
-1.51302e-08
3.49447e-08
5.66652e-08
-1.71143e-08
4.38436e-08
6.60698e-08
-2.0219e-08
5.56264e-08
7.71852e-08
-2.47114e-08
7.19139e-08
9.1087e-08
-3.0552e-08
9.27582e-08
1.13309e-07
-3.78138e-08
1.12216e-07
1.51309e-07
-4.52396e-08
1.02585e-07
2.42864e-07
-5.59384e-08
8.60748e-08
2.95484e-07
-6.58385e-08
6.88695e-08
3.34346e-07
-7.56338e-08
5.30932e-08
3.61335e-07
-8.39552e-08
3.67129e-08
3.83078e-07
-8.92072e-08
1.97755e-08
3.97558e-07
-9.26082e-08
2.46995e-09
4.05152e-07
-9.43377e-08
-1.48249e-08
4.05459e-07
-9.44295e-08
-3.17273e-08
3.98467e-07
-9.28821e-08
-4.80431e-08
3.84565e-07
-8.96555e-08
-6.37014e-08
3.63333e-07
-8.45694e-08
-8.07047e-08
3.36783e-07
-7.63924e-08
-9.6846e-08
2.98226e-07
-6.67307e-08
-1.05916e-07
2.45976e-07
-5.69618e-08
-8.55459e-08
1.54638e-07
-4.63921e-08
-6.43443e-08
1.18616e-07
-3.91963e-08
-4.7448e-08
9.73028e-08
-3.2248e-08
-3.45947e-08
8.43557e-08
-2.68865e-08
-2.4004e-08
7.43879e-08
-2.30599e-08
-1.40931e-08
6.66331e-08
-2.06719e-08
-4.63797e-09
6.12454e-08
-1.88751e-08
2.12686e-09
5.77021e-08
-1.53155e-08
5.31668e-08
-5.75024e-09
-8.97275e-11
3.72553e-08
-3.58916e-09
6.94134e-09
4.09657e-08
-1.12791e-08
1.63239e-08
4.40685e-08
-1.41876e-08
2.57759e-08
4.90835e-08
-1.53401e-08
3.49906e-08
5.66057e-08
-1.68094e-08
4.44619e-08
6.65441e-08
-1.93502e-08
5.53062e-08
7.85525e-08
-2.3327e-08
7.02142e-08
9.13772e-08
-2.91e-08
9.2822e-08
1.04809e-07
-3.63299e-08
1.28984e-07
1.22393e-07
-4.52459e-08
1.71508e-07
1.58464e-07
-4.96794e-08
1.50216e-07
3.25076e-07
-6.09209e-08
1.21825e-07
3.97073e-07
-7.31974e-08
9.62235e-08
4.47187e-07
-8.72401e-08
7.42129e-08
4.82705e-07
-9.93601e-08
5.12521e-08
5.11729e-07
-1.0569e-07
2.73037e-08
5.3126e-07
-1.09754e-07
2.76949e-09
5.41491e-07
-1.11805e-07
-2.17632e-08
5.41905e-07
-1.11914e-07
-4.57063e-08
5.32488e-07
-1.10078e-07
-6.8659e-08
5.13736e-07
-1.06219e-07
-9.0634e-08
4.85392e-07
-1.00084e-07
-1.16131e-07
4.50406e-07
-8.81256e-08
-1.44192e-07
4.00519e-07
-7.42316e-08
-1.6474e-07
3.28649e-07
-6.21252e-08
-1.20624e-07
1.61478e-07
-5.09568e-08
-8.44006e-08
1.29144e-07
-4.67516e-08
-6.11699e-08
1.1224e-07
-3.81681e-08
-4.49555e-08
9.96334e-08
-3.14921e-08
-3.19674e-08
8.78905e-08
-2.64907e-08
-1.9608e-08
7.76323e-08
-2.33586e-08
-7.61101e-09
7.03025e-08
-2.10541e-08
1.26284e-09
6.55819e-08
-1.67537e-08
6.02392e-08
-5.80957e-09
6.17117e-10
4.00578e-08
-3.41964e-09
9.67181e-09
4.41593e-08
-1.22483e-08
2.14384e-08
4.79257e-08
-1.56238e-08
3.33219e-08
5.4226e-08
-1.7026e-08
4.48738e-08
6.3923e-08
-1.88691e-08
5.63653e-08
7.70974e-08
-2.20448e-08
6.85851e-08
9.33217e-08
-2.69889e-08
8.4767e-08
1.09323e-07
-3.41279e-08
1.11207e-07
1.21694e-07
-4.33247e-08
1.67677e-07
1.18682e-07
-5.27586e-08
2.58672e-07
1.2621e-07
-5.8741e-08
2.113e-07
4.30839e-07
-5.83913e-08
1.65351e-07
5.12906e-07
-6.98841e-08
1.30672e-07
5.71017e-07
-8.915e-08
1.01486e-07
6.1768e-07
-1.05788e-07
7.03226e-08
6.55302e-07
-1.1241e-07
3.72559e-08
6.81428e-07
-1.17102e-07
3.18407e-09
6.94979e-07
-1.19416e-07
-3.08998e-08
6.95524e-07
-1.19535e-07
-6.40073e-08
6.83054e-07
-1.17458e-07
-9.52587e-08
6.57976e-07
-1.12988e-07
-1.2458e-07
6.21293e-07
-1.06579e-07
-1.59419e-07
5.7535e-07
-9.01054e-08
-2.05292e-07
5.17407e-07
-7.10152e-08
-2.51692e-07
4.34793e-07
-5.97436e-08
-1.57878e-07
1.28096e-07
-6.04317e-08
-1.02266e-07
1.27992e-07
-5.44607e-08
-7.51145e-08
1.30398e-07
-4.53095e-08
-5.7293e-08
1.18592e-07
-3.67797e-08
-4.23035e-08
1.03447e-07
-3.05462e-08
-2.70348e-08
8.89725e-08
-2.66089e-08
-1.17165e-08
7.8711e-08
-2.37269e-08
-8.82999e-11
7.2436e-08
-1.84822e-08
6.59911e-08
-5.8402e-09
1.64898e-09
4.16032e-08
-3.19434e-09
1.32459e-08
4.59493e-08
-1.33869e-08
2.81848e-08
5.03034e-08
-1.73166e-08
4.35868e-08
5.78451e-08
-1.90211e-08
5.89084e-08
6.99092e-08
-2.13078e-08
7.38432e-08
8.73561e-08
-2.51935e-08
8.75768e-08
1.10694e-07
-3.11056e-08
9.95706e-08
1.37423e-07
-4.00931e-08
1.10322e-07
1.61429e-07
-5.04867e-08
1.56343e-07
1.3921e-07
-6.65502e-08
3.68701e-07
-8.6147e-08
2.85378e-07
5.4965e-07
-3.54884e-08
2.24239e-07
6.1405e-07
-4.0004e-08
1.82446e-07
6.71839e-07
-5.90298e-08
1.4425e-07
7.32593e-07
-7.67176e-08
1.0018e-07
7.7943e-07
-8.00571e-08
5.26199e-08
8.12379e-07
-8.33913e-08
3.76197e-09
8.28955e-07
-8.5119e-08
-4.51166e-08
8.29618e-07
-8.52155e-08
-9.27534e-08
8.14372e-07
-8.3681e-08
-1.37017e-07
7.82752e-07
-8.05135e-08
-1.75578e-07
7.37222e-07
-7.7368e-08
-2.18072e-07
6.77657e-07
-5.98127e-08
-2.80301e-07
6.2059e-07
-4.09542e-08
-3.63439e-07
5.54849e-07
-3.69172e-08
-1.46565e-07
-8.87791e-08
-1.00199e-07
1.49476e-07
-6.78498e-08
-8.96001e-08
1.72165e-07
-5.23652e-08
-7.55841e-08
1.47558e-07
-4.29822e-08
-5.82494e-08
1.21244e-07
-3.51314e-08
-3.83897e-08
9.95718e-08
-3.0459e-08
-1.79303e-08
8.5231e-08
-2.69794e-08
-1.80366e-09
7.70089e-08
-2.06996e-08
6.97879e-08
-5.60045e-09
2.88183e-09
4.16823e-08
-2.96093e-09
1.73901e-08
4.61046e-08
-1.46636e-08
3.61096e-08
5.08268e-08
-1.92429e-08
5.60387e-08
5.92362e-08
-2.13202e-08
7.68971e-08
7.3194e-08
-2.41432e-08
9.81631e-08
9.47862e-08
-2.8696e-08
1.16499e-07
1.27586e-07
-3.52279e-08
1.20936e-07
1.75815e-07
-4.28292e-08
9.5996e-08
2.45339e-07
-5.897e-08
3.30469e-07
-9.52633e-08
1.75724e-07
3.05573e-07
6.83533e-08
2.38371e-07
5.20507e-07
3.08948e-08
2.35148e-07
6.50968e-07
2.4094e-08
1.93367e-07
7.48269e-07
2.61049e-08
1.35118e-07
8.14077e-07
2.36018e-08
7.09337e-08
8.55929e-07
2.06343e-08
4.53001e-09
8.76049e-07
1.93103e-08
-6.19001e-08
8.76734e-07
1.93142e-08
-1.26183e-07
8.58011e-07
2.06435e-08
-1.84689e-07
8.17633e-07
2.36255e-08
-2.27077e-07
7.53465e-07
2.61448e-08
-2.31743e-07
6.58111e-07
2.42117e-08
-1.71828e-07
5.29928e-07
3.07465e-08
3.15845e-07
6.71761e-08
-9.31213e-08
3.35994e-07
-9.33966e-08
-1.13963e-07
2.53458e-07
-6.04511e-08
-1.05116e-07
1.84727e-07
-4.60159e-08
-8.15447e-08
1.37543e-07
-3.987e-08
-5.37923e-08
1.06693e-07
-3.4874e-08
-2.60834e-08
8.84074e-08
-3.08853e-08
-4.25485e-09
7.85443e-08
-2.3364e-08
7.08869e-08
-5.35386e-09
4.43387e-09
3.99699e-08
-2.72151e-09
2.24053e-08
4.41643e-08
-1.60311e-08
4.59949e-08
4.85527e-08
-2.13155e-08
7.28106e-08
5.6269e-08
-2.38486e-08
1.04622e-07
6.88044e-08
-2.74215e-08
1.45122e-07
8.74912e-08
-3.32055e-08
2.00174e-07
1.13947e-07
-4.14135e-08
2.77258e-07
1.48431e-07
-4.97008e-08
3.8982e-07
1.87852e-07
-5.50749e-08
5.39964e-07
2.23669e-07
-4.33437e-08
4.20242e-07
8.16982e-08
3.80237e-08
4.42328e-07
2.25508e-07
5.79789e-08
4.30337e-07
3.95201e-07
1.37297e-07
3.69685e-07
5.10744e-07
2.00876e-07
2.82955e-07
5.98062e-07
2.36936e-07
1.89495e-07
6.56861e-07
2.50677e-07
9.68262e-08
6.93944e-07
2.54654e-07
5.32532e-09
7.11814e-07
2.55736e-07
-8.61574e-08
7.12406e-07
2.55811e-07
-1.78769e-07
6.95737e-07
2.54885e-07
-2.72135e-07
6.59907e-07
2.51093e-07
-3.58736e-07
6.02441e-07
2.37625e-07
-4.19272e-07
5.16544e-07
2.02104e-07
-4.3073e-07
4.02197e-07
1.39189e-07
-4.09526e-07
2.33472e-07
6.11691e-08
-5.34793e-07
8.4082e-08
4.11852e-08
-3.84451e-07
2.28334e-07
-4.26822e-08
-2.69157e-07
1.94729e-07
-5.65651e-08
-1.87952e-07
1.56509e-07
-5.29865e-08
-1.27052e-07
1.23319e-07
-4.66768e-08
-7.88107e-08
9.88995e-08
-4.04474e-08
-3.83848e-08
8.34704e-08
-3.54889e-08
-8.23485e-09
7.48709e-08
-2.64766e-08
6.77681e-08
-5.11604e-09
5.71855e-09
3.67521e-08
-2.5007e-09
2.66735e-08
4.05276e-08
-1.73182e-08
5.4231e-08
4.42837e-08
-2.32886e-08
8.60387e-08
5.07253e-08
-2.6264e-08
1.24537e-07
6.08463e-08
-3.05399e-08
1.74366e-07
7.51759e-08
-3.75136e-08
2.41926e-07
9.38093e-08
-4.7422e-08
3.33031e-07
1.1556e-07
-5.82344e-08
4.5095e-07
1.35553e-07
-6.56209e-08
5.85033e-07
1.49033e-07
-5.94468e-08
5.9316e-07
1.04436e-07
-3.08648e-08
6.05539e-07
1.87121e-07
2.60078e-08
5.56782e-07
2.90123e-07
1.53835e-07
4.61031e-07
3.69442e-07
2.37054e-07
3.46445e-07
4.31838e-07
2.8081e-07
2.2951e-07
4.74269e-07
2.99528e-07
1.16258e-07
5.0153e-07
3.05666e-07
5.93586e-09
5.14758e-07
3.07378e-07
-1.04354e-07
5.15245e-07
3.0745e-07
-2.17502e-07
5.02995e-07
3.05891e-07
-3.34264e-07
4.76724e-07
2.99945e-07
-4.48638e-07
4.35286e-07
2.81529e-07
-5.44334e-07
3.73857e-07
2.38382e-07
-5.93382e-07
2.95262e-07
1.55983e-07
-5.82203e-07
1.92638e-07
2.96553e-08
-5.77585e-07
1.07928e-07
-2.84641e-08
-4.44293e-07
1.5397e-07
-5.8928e-08
-3.24197e-07
1.41747e-07
-6.71143e-08
-2.28826e-07
1.22883e-07
-6.17445e-08
-1.54718e-07
1.02452e-07
-5.3241e-08
-9.5949e-08
8.57997e-08
-4.56692e-08
-4.72386e-08
7.44764e-08
-3.97164e-08
-1.09465e-08
6.7849e-08
-2.92702e-08
6.1711e-08
-4.88936e-09
6.82482e-09
3.22245e-08
-2.29728e-09
3.03529e-08
3.54449e-08
-1.84453e-08
6.12395e-08
3.84099e-08
-2.50128e-08
9.69688e-08
4.33498e-08
-2.83537e-08
1.40155e-07
5.08747e-08
-3.32143e-08
1.95512e-07
6.10754e-08
-4.12571e-08
2.68753e-07
7.35319e-08
-5.29634e-08
3.6407e-07
8.72778e-08
-6.70343e-08
4.79962e-07
9.88682e-08
-7.92069e-08
6.01734e-07
1.0828e-07
-8.10175e-08
6.63959e-07
1.01573e-07
-5.93627e-08
6.94791e-07
1.4856e-07
7.72938e-09
6.36014e-07
2.08876e-07
1.40024e-07
5.23708e-07
2.59346e-07
2.22402e-07
3.9054e-07
3.00433e-07
2.64573e-07
2.5741e-07
3.28861e-07
2.78537e-07
1.2994e-07
3.47573e-07
2.81427e-07
6.429e-09
3.5678e-07
2.81489e-07
-1.17043e-07
3.57188e-07
2.81529e-07
-2.44394e-07
3.48793e-07
2.81553e-07
-3.77338e-07
3.30877e-07
2.7879e-07
-5.10319e-07
3.03206e-07
2.65061e-07
-6.22728e-07
2.6282e-07
2.23446e-07
-6.82212e-07
2.12863e-07
1.41883e-07
-6.53552e-07
1.52896e-07
1.1082e-08
-5.93731e-07
1.05357e-07
-5.72499e-08
-4.72311e-07
1.12936e-07
-8.03863e-08
-3.5431e-07
1.04397e-07
-8.06506e-08
-2.54536e-07
9.37883e-08
-7.06793e-08
-1.74161e-07
8.12669e-08
-5.91905e-08
-1.08851e-07
7.05959e-08
-5.01062e-08
-5.41275e-08
6.29837e-08
-4.32311e-08
-1.30439e-08
5.83311e-08
-3.15657e-08
5.33065e-08
-4.63935e-09
7.60143e-09
2.67691e-08
-2.14597e-09
3.30628e-08
2.9366e-08
-1.93825e-08
6.63411e-08
3.15703e-08
-2.64388e-08
1.04612e-07
3.51432e-08
-3.00643e-08
1.50392e-07
4.04605e-08
-3.53656e-08
2.08221e-07
4.74521e-08
-4.42064e-08
2.83317e-07
5.56696e-08
-5.72335e-08
3.79493e-07
6.45835e-08
-7.34814e-08
4.94426e-07
7.24045e-08
-8.84693e-08
6.15381e-07
8.08199e-08
-9.34958e-08
7.03406e-07
8.6016e-08
-7.24681e-08
7.4618e-07
1.14692e-07
-8.90554e-09
6.82658e-07
1.51099e-07
1.21299e-07
5.61711e-07
1.82908e-07
1.97384e-07
4.18373e-07
2.09473e-07
2.34298e-07
2.7563e-07
2.28402e-07
2.43201e-07
1.39073e-07
2.41104e-07
2.43026e-07
6.8305e-09
2.47469e-07
2.41554e-07
-1.25381e-07
2.47835e-07
2.41564e-07
-2.61839e-07
2.42192e-07
2.4306e-07
-4.04436e-07
2.30177e-07
2.43296e-07
-5.4766e-07
2.11874e-07
2.34557e-07
-6.68836e-07
1.85856e-07
1.9814e-07
-7.33281e-07
1.54448e-07
1.22859e-07
-6.93025e-07
1.18359e-07
-5.71837e-09
-6.06824e-07
8.96554e-08
-7.05002e-08
-4.85988e-07
8.50393e-08
-9.29393e-08
-3.68855e-07
7.72504e-08
-8.99863e-08
-2.67987e-07
7.02174e-08
-7.72965e-08
-1.85255e-07
6.23301e-08
-6.3796e-08
-1.16665e-07
5.55866e-08
-5.35806e-08
-5.83497e-08
5.06614e-08
-4.59926e-08
-1.41824e-08
4.75379e-08
-3.33742e-08
4.36215e-08
-4.49736e-09
8.14773e-09
2.06646e-08
-2.04325e-09
3.50316e-08
2.26063e-08
-2.01241e-08
7.00333e-08
2.41221e-08
-2.75534e-08
1.10036e-07
2.65247e-08
-3.13842e-08
1.57431e-07
3.00609e-08
-3.69952e-08
2.16613e-07
3.46583e-08
-4.63888e-08
2.92564e-07
4.00327e-08
-6.03144e-08
3.89111e-07
4.60002e-08
-7.79628e-08
5.04386e-07
5.18178e-08
-9.46883e-08
6.27792e-07
5.90005e-08
-1.01588e-07
7.28255e-07
6.64663e-08
-8.09129e-08
7.77448e-07
8.46232e-08
-1.9124e-08
7.12272e-07
1.07078e-07
1.09196e-07
5.866e-07
1.27267e-07
1.81314e-07
4.36963e-07
1.44394e-07
2.14716e-07
2.88002e-07
1.56923e-07
2.20439e-07
1.45376e-07
1.65456e-07
2.18274e-07
7.19244e-09
1.69829e-07
2.15823e-07
-1.30971e-07
1.70181e-07
2.15818e-07
-2.73535e-07
1.66496e-07
2.1826e-07
-4.22409e-07
1.58602e-07
2.20449e-07
-5.72018e-07
1.46633e-07
2.14849e-07
-6.98034e-07
1.29967e-07
1.81905e-07
-7.64262e-07
1.10106e-07
1.1057e-07
-7.17695e-07
8.78934e-08
-1.61016e-08
-6.18792e-07
6.98231e-08
-7.90704e-08
-4.95351e-07
6.27154e-08
-1.01117e-07
-3.77736e-07
5.59444e-08
-9.63095e-08
-2.76264e-07
5.06874e-08
-8.19414e-08
-1.92267e-07
4.54787e-08
-6.7146e-08
-1.21713e-07
4.11899e-08
-5.61572e-08
-6.10684e-08
3.80827e-08
-4.80658e-08
-1.48496e-08
3.60707e-08
-3.47516e-08
3.32028e-08
-4.43089e-09
8.48341e-09
1.41766e-08
-1.99543e-09
3.63202e-08
1.54493e-08
-2.06798e-08
7.24631e-08
1.63511e-08
-2.83719e-08
1.13572e-07
1.77552e-08
-3.23395e-08
1.61952e-07
1.98289e-08
-3.81483e-08
2.21941e-07
2.2554e-08
-4.78841e-08
2.98491e-07
2.5829e-08
-6.23458e-08
3.95607e-07
2.96609e-08
-8.07772e-08
5.11993e-07
3.38621e-08
-9.84297e-08
6.37903e-07
3.93209e-08
-1.06231e-07
7.44499e-07
4.57718e-08
-8.59008e-08
7.97216e-07
5.68464e-08
-2.494e-08
7.31123e-07
6.99926e-08
1.03178e-07
6.02642e-07
8.20103e-08
1.73739e-07
4.4918e-07
9.22631e-08
2.05592e-07
2.96285e-07
9.99633e-08
2.09856e-07
1.49685e-07
1.05279e-07
2.06777e-07
7.53753e-09
1.08101e-07
2.03875e-07
-1.34606e-07
1.08461e-07
2.03864e-07
-2.81192e-07
1.06337e-07
2.06746e-07
-4.34079e-07
1.01654e-07
2.09835e-07
-5.87614e-07
9.44917e-08
2.05676e-07
-7.16554e-07
8.4646e-08
1.74261e-07
-7.83797e-07
7.28849e-08
1.04464e-07
-7.33753e-07
5.98709e-08
-2.20215e-08
-6.28594e-07
4.8827e-08
-8.41626e-08
-5.02543e-07
4.25284e-08
-1.05865e-07
-3.83691e-07
3.72662e-08
-1.00173e-07
-2.8146e-07
3.33713e-08
-8.49151e-08
-1.96563e-07
2.99835e-08
-6.9402e-08
-1.24777e-07
2.73597e-08
-5.79558e-08
-6.2672e-08
2.55268e-08
-4.95488e-08
-1.51742e-08
2.43385e-08
-3.57655e-08
2.24761e-08
-4.44756e-09
8.6635e-09
7.50912e-09
-1.996e-09
3.70618e-08
8.10708e-09
-2.10562e-08
7.38847e-08
8.43556e-09
-2.89072e-08
1.15663e-07
8.93054e-09
-3.29534e-08
1.64666e-07
9.69819e-09
-3.88725e-08
2.25227e-07
1.07883e-08
-4.87956e-08
3.02332e-07
1.22686e-08
-6.35444e-08
4.00115e-07
1.42543e-08
-8.23768e-08
5.17584e-07
1.68827e-08
-1.00489e-07
6.45233e-07
2.03769e-08
-1.08706e-07
7.54753e-07
2.47714e-08
-8.85187e-08
8.09145e-07
3.01324e-08
-2.76784e-08
7.42529e-07
3.57516e-08
1.00857e-07
6.12426e-07
4.09495e-08
1.71164e-07
4.56741e-07
4.53554e-08
2.02592e-07
3.01489e-07
4.88322e-08
2.06383e-07
1.52473e-07
5.13053e-08
2.02991e-07
7.8886e-09
5.27532e-08
1.99932e-07
-1.36713e-07
5.31409e-08
1.99922e-07
-2.85779e-07
5.24421e-08
2.0296e-07
-4.41116e-07
5.06301e-08
2.06361e-07
-5.97e-07
4.77088e-08
2.02667e-07
-7.27702e-07
4.36903e-08
1.71658e-07
-7.95589e-07
3.8673e-08
1.02098e-07
-7.43922e-07
3.304e-08
-2.4836e-08
-6.35786e-07
2.75677e-08
-8.68761e-08
-5.07929e-07
2.31186e-08
-1.08447e-07
-3.87902e-07
1.95955e-08
-1.02356e-07
-2.84872e-07
1.70014e-08
-8.66602e-08
-1.99226e-07
1.51203e-08
-7.0783e-08
-1.26606e-07
1.38344e-08
-5.90945e-08
-6.3596e-08
1.30302e-08
-5.05134e-08
-1.53377e-08
1.25307e-08
-3.64505e-08
1.16518e-08
-4.51335e-09
8.70521e-09
8.48423e-10
-2.04451e-09
3.73024e-08
7.69489e-10
-2.12596e-08
7.43842e-08
5.24194e-10
-2.91704e-08
1.16449e-07
1.08209e-10
-3.32429e-08
1.6578e-07
-4.34872e-10
-3.91972e-08
2.26739e-07
-9.93075e-10
-4.91782e-08
3.04354e-07
-1.33298e-09
-6.40136e-08
4.02796e-07
-1.22703e-09
-8.29598e-08
5.21079e-07
-2.01893e-10
-1.01199e-07
6.49604e-07
1.38149e-09
-1.0953e-07
7.59873e-07
3.89215e-09
-8.93901e-08
8.14515e-07
3.96826e-09
-2.84775e-08
7.47557e-07
2.24081e-09
1.00468e-07
6.16752e-07
7.02329e-10
1.71053e-07
4.60166e-07
-6.50628e-10
2.02592e-07
3.03936e-07
-1.35556e-09
2.06418e-07
1.53901e-07
-1.6895e-09
2.0303e-07
8.2656e-09
-1.58341e-09
1.99972e-07
-1.37416e-07
-1.14108e-09
1.99963e-07
-2.87585e-07
-3.95767e-10
2.03007e-07
-4.44007e-07
6.41958e-10
2.06411e-07
-6.00948e-07
1.98809e-09
2.02661e-07
-7.32555e-07
3.78932e-09
1.71508e-07
-8.00948e-07
5.41047e-09
1.01655e-07
-7.49108e-07
6.92724e-09
-2.57273e-08
-6.40209e-07
6.5276e-09
-8.78588e-08
-5.11443e-07
3.75031e-09
-1.09397e-07
-3.90551e-07
1.90257e-09
-1.03199e-07
-2.86795e-07
6.25609e-10
-8.73805e-08
-2.00553e-07
2.77082e-10
-7.13988e-08
-1.27429e-07
3.50065e-10
-5.96395e-08
-6.39781e-08
5.81762e-10
-5.10027e-08
-1.53904e-08
7.73273e-10
-3.68303e-08
8.82366e-10
-4.62101e-09
8.60906e-09
-5.61922e-09
-2.14141e-09
3.70418e-08
-6.37095e-09
-2.12923e-08
7.39607e-08
-7.22962e-09
-2.91651e-08
1.15926e-07
-8.64343e-09
-3.32137e-08
1.65281e-07
-1.06591e-08
-3.91303e-08
2.26456e-07
-1.31237e-08
-4.90448e-08
3.04534e-07
-1.56371e-08
-6.37738e-08
4.03646e-07
-1.77802e-08
-8.25594e-08
5.22528e-07
-1.84721e-08
-1.00611e-07
6.51162e-07
-1.84838e-08
-1.08769e-07
7.60137e-07
-1.64731e-08
-8.86093e-08
8.13551e-07
-2.19284e-08
-2.75175e-08
7.46353e-07
-3.22994e-08
1.01738e-07
6.15636e-07
-4.15888e-08
1.73008e-07
4.59485e-07
-4.96817e-08
2.05182e-07
3.03658e-07
-5.50608e-08
2.09532e-07
1.54002e-07
-5.8481e-08
2.06447e-07
8.70269e-09
-5.98116e-08
2.03527e-07
-1.3667e-07
-5.92749e-08
2.03507e-07
-2.86547e-07
-5.69022e-08
2.06383e-07
-4.42779e-07
-5.25714e-08
2.09444e-07
-5.99534e-07
-4.64429e-08
2.05187e-07
-7.3124e-07
-3.79253e-08
1.73421e-07
-8.00098e-07
-2.8566e-08
1.02835e-07
-7.49626e-07
-1.86296e-08
-2.4916e-08
-6.42035e-07
-1.38287e-08
-8.72339e-08
-5.13132e-07
-1.63553e-08
-1.08798e-07
-3.91623e-07
-1.68391e-08
-1.02767e-07
-2.87215e-07
-1.66547e-08
-8.71279e-08
-2.00545e-07
-1.51017e-08
-7.12912e-08
-1.27248e-07
-1.33322e-08
-5.9615e-08
-6.38168e-08
-1.18181e-08
-5.10312e-08
-1.53308e-08
-1.07985e-08
-3.69142e-08
-9.67507e-09
-4.7734e-09
8.35692e-09
-1.1685e-08
-2.29114e-09
3.62354e-08
-1.30957e-08
-2.11537e-08
7.25272e-08
-1.4634e-08
-2.88874e-08
1.13945e-07
-1.72031e-08
-3.28577e-08
1.62935e-07
-2.09932e-08
-3.86566e-08
2.24055e-07
-2.58812e-08
-4.83623e-08
3.02515e-07
-3.13413e-08
-6.27559e-08
4.0241e-07
-3.66458e-08
-8.10295e-08
5.22024e-07
-3.96241e-08
-9.8462e-08
6.50402e-07
-4.08445e-08
-1.06017e-07
7.55278e-07
-3.56479e-08
-8.57013e-08
8.05263e-07
-4.7925e-08
-2.39885e-08
7.37962e-07
-7.09464e-08
1.05949e-07
6.08476e-07
-9.10976e-08
1.78994e-07
4.54305e-07
-1.0824e-07
2.12729e-07
3.00434e-07
-1.19657e-07
2.18468e-07
1.52689e-07
-1.26946e-07
2.1621e-07
9.21961e-09
-1.30022e-07
2.13679e-07
-1.34363e-07
-1.29334e-07
2.13642e-07
-2.82452e-07
-1.24907e-07
2.16094e-07
-4.36907e-07
-1.16411e-07
2.18294e-07
-5.91962e-07
-1.03975e-07
2.12588e-07
-7.22799e-07
-8.62814e-08
1.79193e-07
-7.92132e-07
-6.60378e-08
1.06805e-07
-7.45277e-07
-4.38238e-08
-2.16611e-08
-6.41771e-07
-3.27653e-08
-8.45692e-08
-5.13106e-07
-3.87239e-08
-1.06296e-07
-3.90888e-07
-3.82188e-08
-1.00838e-07
-2.85766e-07
-3.6005e-08
-8.57722e-08
-1.9885e-07
-3.16314e-08
-7.03858e-08
-1.25812e-07
-2.7385e-08
-5.89851e-08
-6.29713e-08
-2.40781e-08
-5.05809e-08
-1.51046e-08
-2.19682e-08
-3.6697e-08
-1.97921e-08
-4.98752e-09
7.8968e-09
-1.70797e-08
-2.50211e-09
3.4757e-08
-1.91135e-08
-2.08425e-08
6.98392e-08
-2.13837e-08
-2.83325e-08
1.10067e-07
-2.52674e-08
-3.2163e-08
1.58021e-07
-3.12033e-08
-3.77439e-08
2.1846e-07
-3.92715e-08
-4.70494e-08
2.96947e-07
-4.90518e-08
-6.07761e-08
3.97801e-07
-5.95296e-08
-7.79707e-08
5.19164e-07
-6.69423e-08
-9.40445e-08
6.48134e-07
-6.97102e-08
-1.00104e-07
7.43809e-07
-5.16154e-08
-7.97074e-08
7.86568e-07
-7.38432e-08
-1.68408e-08
7.19274e-07
-1.18385e-07
1.14732e-07
5.92729e-07
-1.55968e-07
1.91416e-07
4.42991e-07
-1.86825e-07
2.28323e-07
2.93351e-07
-2.06961e-07
2.36944e-07
1.49584e-07
-2.19609e-07
2.3643e-07
9.87775e-09
-2.25037e-07
2.34722e-07
-1.29983e-07
-2.2411e-07
2.34637e-07
-2.74226e-07
-2.16833e-07
2.3617e-07
-4.24678e-07
-2.02482e-07
2.36523e-07
-5.75681e-07
-1.80806e-07
2.27833e-07
-7.04065e-07
-1.49075e-07
1.91179e-07
-7.73997e-07
-1.1123e-07
1.15123e-07
-7.34685e-07
-6.81451e-08
-1.49904e-08
-6.40234e-07
-4.82566e-08
-7.89599e-08
-5.10926e-07
-6.72416e-08
-1.0079e-07
-3.87015e-07
-6.53645e-08
-9.67653e-08
-2.81075e-07
-5.89838e-08
-8.29614e-08
-1.94385e-07
-4.97901e-08
-6.85308e-08
-1.22397e-07
-4.16981e-08
-5.76756e-08
-6.10254e-08
-3.58393e-08
-4.96099e-08
-1.4537e-08
-3.22931e-08
-3.61634e-08
-2.90254e-08
-5.30367e-09
7.22153e-09
-2.15327e-08
-2.76847e-09
3.25762e-08
-2.41127e-08
-2.03554e-08
6.58021e-08
-2.71147e-08
-2.7495e-08
1.04035e-07
-3.23836e-08
-3.11171e-08
1.49938e-07
-4.07388e-08
-3.63671e-08
2.08454e-07
-5.27287e-08
-4.5059e-08
2.85695e-07
-6.85423e-08
-5.77499e-08
3.86641e-07
-8.72892e-08
-7.31869e-08
5.10884e-07
-1.04222e-07
-8.69637e-08
6.45072e-07
-1.13379e-07
-9.05191e-08
7.21345e-07
-5.87687e-08
-6.91193e-08
7.4926e-07
-9.74138e-08
-4.3453e-09
6.84368e-07
-1.81914e-07
1.28422e-07
5.6466e-07
-2.46278e-07
2.10018e-07
4.23197e-07
-2.96627e-07
2.51265e-07
2.81072e-07
-3.29075e-07
2.64239e-07
1.44122e-07
-3.48931e-07
2.66272e-07
1.07651e-08
-3.57466e-07
2.65786e-07
-1.22778e-07
-3.5618e-07
2.65612e-07
-2.60325e-07
-3.45028e-07
2.65743e-07
-4.0351e-07
-3.22661e-07
2.63365e-07
-5.46735e-07
-2.87739e-07
2.50158e-07
-6.68979e-07
-2.35877e-07
2.09046e-07
-7.37575e-07
-1.70721e-07
1.28086e-07
-7.13715e-07
-8.88544e-08
-3.15074e-09
-6.38092e-07
-5.49726e-08
-6.89064e-08
-5.03493e-07
-1.09963e-07
-9.1878e-08
-3.76831e-07
-1.01805e-07
-9.02212e-08
-2.7101e-07
-8.62693e-08
-7.8535e-08
-1.85914e-07
-6.92421e-08
-6.56444e-08
-1.16365e-07
-5.56289e-08
-5.5618e-08
-5.76909e-08
-4.64579e-08
-4.80558e-08
-1.35436e-08
-4.11725e-08
-3.52679e-08
-3.68561e-08
-5.71293e-09
6.23679e-09
-2.46734e-08
-3.0961e-09
2.94815e-08
-2.76518e-08
-1.97056e-08
5.99528e-08
-3.11875e-08
-2.63986e-08
9.484e-08
-3.75272e-08
-2.97435e-08
1.36582e-07
-4.79453e-08
-3.45351e-08
1.89983e-07
-6.37659e-08
-4.23639e-08
2.61733e-07
-8.67195e-08
-5.35729e-08
3.5849e-07
-1.17846e-07
-6.61998e-08
4.85376e-07
-1.55249e-07
-7.58588e-08
6.39565e-07
-1.95655e-07
-7.19132e-08
6.76348e-07
-5.05338e-08
-4.50177e-08
6.74508e-07
-1.05912e-07