/*--------------------------------*- C++ -*----------------------------------*\
| =========                 |                                                 |
| \\      /  F ield         | OpenFOAM: The Open Source CFD Toolbox           |
|  \\    /   O peration     | Version:  2112                                  |
|   \\  /    A nd           | Website:  www.openfoam.com                      |
|    \\/     M anipulation  |                                                 |
\*---------------------------------------------------------------------------*/
FoamFile
{
    version     2.0;
    format      ascii;
    arch        "LSB;label=32;scalar=64";
    class       volVectorField;
    location    "1.8";
    object      U;
}
// * * * * * * * * * * * * * * * * * * * * * * * * * * * * * * * * * * * * * //

dimensions      [0 1 -1 0 0 0 0];

internalField   nonuniform List<vector> 
64906
(
(4.15153e-07 1.40795e-06 -2.17837e-06)
(2.7998e-06 3.03212e-07 -2.23148e-06)
(6.28189e-06 -6.20493e-07 -1.82713e-06)
(9.87847e-06 -1.2749e-06 -1.42746e-06)
(1.3461e-05 -1.61103e-06 -1.18618e-06)
(1.69257e-05 -1.73775e-06 -1.07237e-06)
(2.02564e-05 -1.74074e-06 -1.03069e-06)
(2.33715e-05 -1.63952e-06 -1.01757e-06)
(2.61714e-05 -1.44564e-06 -1.01481e-06)
(2.8352e-05 -1.07212e-06 -9.89864e-07)
(2.96728e-05 -5.99366e-07 -9.62929e-07)
(2.96523e-05 1.28546e-07 -9.02022e-07)
(2.81282e-05 7.11524e-07 -8.35058e-07)
(2.53297e-05 1.25496e-06 -7.35489e-07)
(2.13953e-05 1.63603e-06 -6.47298e-07)
(1.66334e-05 1.92891e-06 -5.68007e-07)
(1.12537e-05 2.10663e-06 -5.15693e-07)
(5.53e-06 2.19227e-06 -4.90147e-07)
(-3.03529e-07 2.18212e-06 -4.95223e-07)
(-5.98745e-06 2.07629e-06 -5.30487e-07)
(-1.12875e-05 1.87861e-06 -5.92152e-07)
(-1.59318e-05 1.56617e-06 -6.80386e-07)
(-1.97149e-05 1.16739e-06 -7.76719e-07)
(-2.23314e-05 6.07706e-07 -8.84247e-07)
(-2.36529e-05 1.44073e-08 -9.59015e-07)
(-2.34546e-05 -7.20008e-07 -1.03086e-06)
(-2.19101e-05 -1.1821e-06 -1.0752e-06)
(-1.95058e-05 -1.52634e-06 -1.13523e-06)
(-1.64727e-05 -1.63592e-06 -1.21013e-06)
(-1.31189e-05 -1.53676e-06 -1.37291e-06)
(-9.55202e-06 -1.11051e-06 -1.70291e-06)
(-5.9662e-06 -2.44873e-07 -2.2666e-06)
(-2.56411e-06 9.67502e-07 -2.87776e-06)
(-1.86717e-07 2.25129e-06 -2.91329e-06)
(-1.21691e-06 6.30452e-06 -2.81231e-06)
(6.57407e-07 5.45372e-06 -6.33743e-06)
(5.32351e-06 4.50927e-06 -7.28534e-06)
(9.68913e-06 3.94678e-06 -7.44907e-06)
(1.38213e-05 3.97316e-06 -7.688e-06)
(1.76523e-05 4.49861e-06 -8.17708e-06)
(2.12712e-05 5.44298e-06 -8.92378e-06)
(2.46517e-05 6.83349e-06 -9.90897e-06)
(2.77724e-05 8.71344e-06 -1.11229e-05)
(3.02564e-05 1.13213e-05 -1.25588e-05)
(3.18905e-05 1.44764e-05 -1.41866e-05)
(3.19435e-05 1.845e-05 -1.59341e-05)
(3.02245e-05 2.1978e-05 -1.76024e-05)
(2.71607e-05 2.51725e-05 -1.90821e-05)
(2.28671e-05 2.76546e-05 -2.03135e-05)
(1.77435e-05 2.95707e-05 -2.12696e-05)
(1.19657e-05 3.08323e-05 -2.19286e-05)
(5.84216e-06 3.14769e-05 -2.22798e-05)
(-3.99682e-07 3.14889e-05 -2.23157e-05)
(-6.4788e-06 3.08687e-05 -2.20363e-05)
(-1.21687e-05 2.96334e-05 -2.14494e-05)
(-1.71617e-05 2.77467e-05 -2.05662e-05)
(-2.12874e-05 2.53021e-05 -1.94093e-05)
(-2.41474e-05 2.21549e-05 -1.80078e-05)
(-2.56401e-05 1.86981e-05 -1.64242e-05)
(-2.53374e-05 1.48165e-05 -1.47742e-05)
(-2.34407e-05 1.18083e-05 -1.32656e-05)
(-2.0671e-05 9.39503e-06 -1.19864e-05)
(-1.71882e-05 7.82479e-06 -1.09931e-05)
(-1.33144e-05 6.95017e-06 -1.03272e-05)
(-8.99794e-06 6.8665e-06 -9.9857e-06)
(-4.38141e-06 7.60939e-06 -9.7488e-06)
(4.98823e-07 8.81646e-06 -8.53253e-06)
(2.04564e-06 9.66307e-06 -3.8783e-06)
(-2.17871e-06 1.43383e-05 -2.6548e-06)
(-6.24567e-07 1.52168e-05 -7.44171e-06)
(4.81271e-06 1.53347e-05 -8.89612e-06)
(9.88314e-06 1.58521e-05 -9.30007e-06)
(1.4659e-05 1.71606e-05 -9.72793e-06)
(1.90527e-05 1.92867e-05 -1.04364e-05)
(2.32555e-05 2.22558e-05 -1.14787e-05)
(2.73046e-05 2.62383e-05 -1.2863e-05)
(3.12995e-05 3.14147e-05 -1.4596e-05)
(3.4695e-05 3.83403e-05 -1.66883e-05)
(3.7276e-05 4.66901e-05 -1.90949e-05)
(3.75761e-05 5.70135e-05 -2.17017e-05)
(3.5306e-05 6.62317e-05 -2.4199e-05)
(3.14818e-05 7.45189e-05 -2.641e-05)
(2.62468e-05 8.10389e-05 -2.82439e-05)
(2.0203e-05 8.60954e-05 -2.96599e-05)
(1.34563e-05 8.94705e-05 -3.06305e-05)
(6.37118e-06 9.12167e-05 -3.11444e-05)
(-8.45017e-07 9.12878e-05 -3.11905e-05)
(-7.88285e-06 8.96843e-05 -3.07687e-05)
(-1.45357e-05 8.6456e-05 -2.98904e-05)
(-2.04377e-05 8.15523e-05 -2.85675e-05)
(-2.54879e-05 7.52024e-05 -2.68285e-05)
(-2.90803e-05 6.7107e-05 -2.47169e-05)
(-3.10888e-05 5.81326e-05 -2.23272e-05)
(-3.04857e-05 4.80975e-05 -1.98447e-05)
(-2.75793e-05 4.01477e-05 -1.75901e-05)
(-2.38137e-05 3.36847e-05 -1.56958e-05)
(-1.93021e-05 2.91164e-05 -1.42328e-05)
(-1.45001e-05 2.59573e-05 -1.32147e-05)
(-9.19903e-06 2.4123e-05 -1.25783e-05)
(-3.59227e-06 2.34188e-05 -1.19891e-05)
(2.31795e-06 2.32155e-05 -1.00913e-05)
(3.37297e-06 2.18103e-05 -3.76495e-06)
(-2.68324e-06 2.25615e-05 -2.32595e-06)
(-1.07343e-06 2.45463e-05 -7.52834e-06)
(5.20892e-06 2.5523e-05 -9.11859e-06)
(1.11722e-05 2.70899e-05 -9.54416e-06)
(1.68784e-05 2.97191e-05 -9.99971e-06)
(2.2218e-05 3.35052e-05 -1.07835e-05)
(2.75109e-05 3.85631e-05 -1.19751e-05)
(3.28922e-05 4.52443e-05 -1.36103e-05)
(3.87071e-05 5.39643e-05 -1.57122e-05)
(4.40888e-05 6.58964e-05 -1.83211e-05)
(4.88467e-05 8.06624e-05 -2.13694e-05)
(4.96855e-05 9.96692e-05 -2.47466e-05)
(4.6084e-05 0.000116094 -2.79657e-05)
(4.05626e-05 0.000130589 -3.07918e-05)
(3.33257e-05 0.000141782 -3.31161e-05)
(2.53582e-05 0.00015046 -3.48829e-05)
(1.65866e-05 0.000156242 -3.60818e-05)
(7.48414e-06 0.000159242 -3.67114e-05)
(-1.77853e-06 0.000159374 -3.67602e-05)
(-1.08311e-05 0.000156637 -3.62279e-05)
(-1.9503e-05 0.000151121 -3.51256e-05)
(-2.73146e-05 0.000142714 -3.34555e-05)
(-3.43437e-05 0.000131815 -3.12277e-05)
(-3.95889e-05 0.00011764 -2.85014e-05)
(-4.28718e-05 0.000101616 -2.53888e-05)
(-4.16374e-05 8.3071e-05 -2.21363e-05)
(-3.64578e-05 6.89619e-05 -1.92442e-05)
(-3.0605e-05 5.77333e-05 -1.68459e-05)
(-2.40982e-05 4.98797e-05 -1.50371e-05)
(-1.77034e-05 4.42847e-05 -1.38041e-05)
(-1.09572e-05 4.06302e-05 -1.30557e-05)
(-4.08809e-06 3.85238e-05 -1.23972e-05)
(2.95685e-06 3.72122e-05 -1.03115e-05)
(4.07273e-06 3.43338e-05 -3.40782e-06)
(-2.86344e-06 3.06612e-05 -2.04515e-06)
(-8.22635e-07 3.35186e-05 -7.60975e-06)
(6.63938e-06 3.5288e-05 -9.31491e-06)
(1.37949e-05 3.79303e-05 -9.74273e-06)
(2.07664e-05 4.19753e-05 -1.02382e-05)
(2.74612e-05 4.75406e-05 -1.11493e-05)
(3.4403e-05 5.48051e-05 -1.25881e-05)
(4.192e-05 6.43233e-05 -1.46375e-05)
(5.08892e-05 7.68939e-05 -1.73381e-05)
(5.99678e-05 9.48462e-05 -2.07874e-05)
(6.92554e-05 0.000118202 -2.48567e-05)
(7.1145e-05 0.000150759 -2.95665e-05)
(6.46043e-05 0.000177303 -3.39952e-05)
(5.5857e-05 0.000200058 -3.78844e-05)
(4.51131e-05 0.000217117 -4.10719e-05)
(3.39419e-05 0.000230378 -4.34201e-05)
(2.17974e-05 0.000239183 -4.49944e-05)
(9.34341e-06 0.000243762 -4.58126e-05)
(-3.32633e-06 0.00024396 -4.58653e-05)
(-1.57294e-05 0.000239776 -4.51522e-05)
(-2.77716e-05 0.000231364 -4.36809e-05)
(-3.87747e-05 0.000218492 -4.14342e-05)
(-4.92872e-05 0.000201838 -3.83446e-05)
(-5.76995e-05 0.000179506 -3.45536e-05)
(-6.38444e-05 0.000153495 -3.02266e-05)
(-6.14094e-05 0.000121538 -2.56372e-05)
(-5.15697e-05 9.91381e-05 -2.17264e-05)
(-4.19318e-05 8.21113e-05 -1.84999e-05)
(-3.20938e-05 7.06341e-05 -1.61189e-05)
(-2.33029e-05 6.24326e-05 -1.4522e-05)
(-1.45444e-05 5.6851e-05 -1.35958e-05)
(-5.96999e-06 5.33236e-05 -1.28641e-05)
(2.68137e-06 5.09954e-05 -1.05881e-05)
(4.36347e-06 4.69293e-05 -3.11528e-06)
(-2.88585e-06 3.82577e-05 -1.83668e-06)
(-6.66066e-08 4.1817e-05 -7.87222e-06)
(9.03312e-06 4.43137e-05 -9.75698e-06)
(1.77701e-05 4.80449e-05 -1.02225e-05)
(2.63907e-05 5.3598e-05 -1.08157e-05)
(3.48493e-05 6.10621e-05 -1.19582e-05)
(4.39674e-05 7.06181e-05 -1.38103e-05)
(5.44377e-05 8.29556e-05 -1.65306e-05)
(6.8235e-05 9.94061e-05 -2.01494e-05)
(8.36249e-05 0.000124328 -2.48337e-05)
(0.000102154 0.000159171 -3.01162e-05)
(0.000106175 0.000214782 -3.68298e-05)
(9.34299e-05 0.000255934 -4.31243e-05)
(7.90692e-05 0.000289601 -4.8812e-05)
(6.27958e-05 0.000313904 -5.35107e-05)
(4.68692e-05 0.000332935 -5.67646e-05)
(2.96455e-05 0.000345533 -5.89133e-05)
(1.21454e-05 0.000352104 -6.00169e-05)
(-5.67375e-06 0.00035238 -6.0078e-05)
(-2.31269e-05 0.000346355 -5.90954e-05)
(-4.02568e-05 0.000334292 -5.70641e-05)
(-5.60166e-05 0.000315768 -5.39237e-05)
(-7.20516e-05 0.000291967 -4.93292e-05)
(-8.60173e-05 0.000258782 -4.37413e-05)
(-9.82826e-05 0.000218251 -3.75445e-05)
(-9.34657e-05 0.000163301 -3.09397e-05)
(-7.42042e-05 0.000129844 -2.58195e-05)
(-5.82213e-05 0.000106049 -2.13727e-05)
(-4.33757e-05 9.08786e-05 -1.81078e-05)
(-3.13407e-05 8.00535e-05 -1.5904e-05)
(-1.9957e-05 7.24775e-05 -1.46537e-05)
(-9.12799e-06 6.75062e-05 -1.37569e-05)
(1.77026e-06 6.42172e-05 -1.11681e-05)
(4.47799e-06 5.91586e-05 -2.92515e-06)
(-2.81571e-06 4.51659e-05 -1.65321e-06)
(1.10614e-06 4.93895e-05 -8.31382e-06)
(1.23813e-05 5.26432e-05 -1.04676e-05)
(2.31681e-05 5.75966e-05 -1.102e-05)
(3.38756e-05 6.49137e-05 -1.17792e-05)
(4.44971e-05 7.45958e-05 -1.32695e-05)
(5.61962e-05 8.66804e-05 -1.5718e-05)
(7.02362e-05 0.000101593 -1.9392e-05)
(9.06561e-05 0.000121062 -2.42539e-05)
(0.000115752 0.000151694 -3.04069e-05)
(0.000152975 0.000200235 -3.65633e-05)
(0.000161547 0.00029674 -4.58378e-05)
(0.000135411 0.000358571 -5.43775e-05)
(0.000111759 0.000406593 -6.27828e-05)
(8.74539e-05 0.000440226 -6.99138e-05)
(6.50499e-05 0.00046704 -7.42765e-05)
(4.06942e-05 0.000484814 -7.71461e-05)
(1.60982e-05 0.000494113 -7.86031e-05)
(-9.00139e-06 0.000494489 -7.86775e-05)
(-3.35638e-05 0.00048593 -7.73681e-05)
(-5.78558e-05 0.000468869 -7.46394e-05)
(-8.01266e-05 0.000442702 -7.04114e-05)
(-0.000104233 0.000409657 -6.33963e-05)
(-0.000127455 0.000362112 -5.50977e-05)
(-0.000153063 0.000300886 -4.66565e-05)
(-0.000143243 0.000204909 -3.74684e-05)
(-0.000105013 0.000158533 -3.14866e-05)
(-7.94561e-05 0.000129163 -2.55803e-05)
(-5.78065e-05 0.000111087 -2.11116e-05)
(-4.18474e-05 9.78207e-05 -1.80278e-05)
(-2.72827e-05 8.80018e-05 -1.6284e-05)
(-1.35886e-05 8.1324e-05 -1.51045e-05)
(3.22549e-07 7.69177e-05 -1.20426e-05)
(4.5049e-06 7.08736e-05 -2.77379e-06)
(-2.62834e-06 5.10856e-05 -1.43918e-06)
(2.75532e-06 5.60453e-05 -8.90859e-06)
(1.68378e-05 6.00761e-05 -1.14171e-05)
(3.02953e-05 6.64233e-05 -1.21015e-05)
(4.36776e-05 7.58408e-05 -1.3095e-05)
(5.69072e-05 8.81946e-05 -1.50555e-05)
(7.12284e-05 0.000103167 -1.82965e-05)
(8.84295e-05 0.000120152 -2.32563e-05)
(0.000114981 0.000140146 -2.96365e-05)
(0.000151975 0.000173277 -3.78496e-05)
(0.000226787 0.000231946 -4.06007e-05)
(0.000246263 0.000405417 -5.09274e-05)
(0.000193273 0.000492174 -6.2444e-05)
(0.000156739 0.000555236 -7.53313e-05)
(0.000121997 0.00059901 -8.63345e-05)
(9.1057e-05 0.000634452 -9.1768e-05)
(5.65854e-05 0.000658168 -9.53454e-05)
(2.17835e-05 0.000670634 -9.71395e-05)
(-1.38281e-05 0.000671143 -9.72304e-05)
(-4.86222e-05 0.000659676 -9.56167e-05)
(-8.30933e-05 0.000636913 -9.221e-05)
(-0.000113995 0.000602305 -8.69412e-05)
(-0.000148684 0.000559209 -7.60721e-05)
(-0.000184868 0.000496524 -6.33086e-05)
(-0.000237472 0.000410256 -5.19309e-05)
(-0.000215833 0.000236762 -4.1607e-05)
(-0.000139563 0.000181939 -3.90328e-05)
(-0.000102648 0.000149947 -3.10772e-05)
(-7.46236e-05 0.000131276 -2.51489e-05)
(-5.50339e-05 0.000115915 -2.087e-05)
(-3.70368e-05 0.000103401 -1.8456e-05)
(-1.97629e-05 9.45533e-05 -1.68729e-05)
(-1.8445e-06 8.87658e-05 -1.31598e-05)
(4.3954e-06 8.16821e-05 -2.57674e-06)
(-2.22061e-06 5.58257e-05 -1.11891e-06)
(4.98266e-06 6.15196e-05 -9.68938e-06)
(2.24662e-05 6.64795e-05 -1.25939e-05)
(3.9388e-05 7.46144e-05 -1.34408e-05)
(5.62407e-05 8.69466e-05 -1.47185e-05)
(7.27286e-05 0.000103397 -1.72236e-05)
(8.9604e-05 0.000123341 -2.13781e-05)
(0.00010821 0.000143464 -2.78113e-05)
(0.000138378 0.000162861 -3.66772e-05)
(0.000179976 0.000184341 -4.57984e-05)
(0.000325113 0.000199932 -5.12613e-05)
(0.000370735 0.00052358 -5.0133e-05)
(0.000261355 0.000643964 -6.19852e-05)
(0.000212074 0.000727024 -8.11716e-05)
(0.000166397 0.00078645 -9.70599e-05)
(0.000124986 0.000835424 -0.000103105)
(7.75516e-05 0.000868465 -0.000107526)
(2.93287e-05 0.000885652 -0.000109662)
(-2.01847e-05 0.000886333 -0.000109766)
(-6.84387e-05 0.000870489 -0.000107836)
(-0.000115972 0.000838742 -0.000103606)
(-0.000157524 0.000790905 -9.77464e-05)
(-0.000203486 0.000732352 -8.20008e-05)
(-0.000252665 0.00064961 -6.2974e-05)
(-0.000362364 0.000529295 -5.13047e-05)
(-0.000312755 0.000203154 -5.26909e-05)
(-0.000165465 0.000194564 -4.71909e-05)
(-0.000125483 0.000174175 -3.82367e-05)
(-9.33419e-05 0.000156007 -2.99153e-05)
(-7.16789e-05 0.00013737 -2.42756e-05)
(-5.0024e-05 0.000119987 -2.11027e-05)
(-2.81606e-05 0.000107531 -1.90593e-05)
(-4.99386e-06 9.96752e-05 -1.45392e-05)
(4.05869e-06 9.11048e-05 -2.275e-06)
(-1.60242e-06 5.90088e-05 -7.18136e-07)
(7.96081e-06 6.51707e-05 -1.05978e-05)
(2.98048e-05 7.10284e-05 -1.39756e-05)
(5.1505e-05 8.09494e-05 -1.50188e-05)
(7.36233e-05 9.64078e-05 -1.66283e-05)
(9.56765e-05 0.000117772 -1.97308e-05)
(0.000116428 0.000144342 -2.4769e-05)
(0.000136351 0.000169999 -3.32808e-05)
(0.000157365 0.000182348 -4.34767e-05)
(0.000129509 0.000121722 -6.30992e-05)
(0.000394162 0.0001948 -6.96519e-05)
(0.000539826 0.000766239 -2.96432e-05)
(0.00034352 0.000844874 -3.86637e-05)
(0.000292853 0.000911808 -6.0213e-05)
(0.000235855 0.000981941 -7.83877e-05)
(0.000178216 0.00103898 -8.15042e-05)
(0.000110192 0.00108006 -8.49526e-05)
(4.08436e-05 0.00110128 -8.66332e-05)
(-3.00404e-05 0.00110216 -8.67224e-05)
(-9.94435e-05 0.00108269 -8.52216e-05)
(-0.000167659 0.00104332 -8.1925e-05)
(-0.000225657 0.000987842 -7.89906e-05)
(-0.000283406 0.000918917 -6.09401e-05)
(-0.000334721 0.000852143 -3.95543e-05)
(-0.000534867 0.000770704 -3.10614e-05)
(-0.000382345 0.000198016 -7.16934e-05)
(-0.000112994 0.000138799 -6.40527e-05)
(-0.000144506 0.000197675 -4.49047e-05)
(-0.000120734 0.000184444 -3.55834e-05)
(-9.69511e-05 0.000159448 -2.80601e-05)
(-7.00192e-05 0.000135261 -2.42175e-05)
(-4.08126e-05 0.000118216 -2.17127e-05)
(-1.02495e-05 0.000107982 -1.62906e-05)
(2.94923e-06 9.80905e-05 -1.66337e-06)
(-9.07887e-07 6.02711e-05 -2.96096e-07)
(1.13977e-05 6.67427e-05 -1.16222e-05)
(3.8326e-05 7.34566e-05 -1.55559e-05)
(6.58796e-05 8.52932e-05 -1.68472e-05)
(9.51222e-05 0.000104726 -1.8857e-05)
(0.00012579 0.000134197 -2.24517e-05)
(0.000155286 0.000177267 -2.79275e-05)
(0.000177847 0.000236162 -3.43176e-05)
(0.000149331 0.000311174 -5.06578e-05)
(0.000155599 0.00035635 -7.48507e-05)
(0.00025268 0.000673925 6.10089e-05)
(0.000296385 0.000869288 2.38587e-05)
(0.000356419 0.00100227 1.24244e-05)
(0.00031476 0.00112032 1.33198e-05)
(0.000238829 0.00120405 9.73402e-06)
(0.000149233 0.00125992 6.53961e-06)
(5.46387e-05 0.00128728 5.2057e-06)
(-4.16276e-05 0.00128829 5.20984e-06)
(-0.000136296 0.00126298 6.54819e-06)
(-0.000226133 0.00120922 9.75436e-06)
(-0.000302586 0.00112774 1.33473e-05)
(-0.00034563 0.0010121 1.25167e-05)
(-0.000288882 0.000881424 2.36142e-05)
(-0.000247834 0.000686524 5.9803e-05)
(-0.000152056 0.000369069 -7.31028e-05)
(-0.000143105 0.00032531 -5.17194e-05)
(-0.000164689 0.000250122 -3.69055e-05)
(-0.000135468 0.000192172 -3.17523e-05)
(-9.75847e-05 0.000151677 -2.7744e-05)
(-5.74903e-05 0.00012684 -2.49298e-05)
(-1.71105e-05 0.00011317 -1.843e-05)
(1.53601e-06 0.000102025 -1.03464e-06)
(1.23918e-08 5.9108e-05 1.65198e-07)
(1.55725e-05 6.54794e-05 -1.27115e-05)
(4.86541e-05 7.22383e-05 -1.72391e-05)
(8.42358e-05 8.42514e-05 -1.88214e-05)
(0.000125495 0.000104149 -2.13606e-05)
(0.000176486 0.000134838 -2.58694e-05)
(0.000242847 0.000181108 -3.26551e-05)
(0.000338351 0.000248362 -3.94242e-05)
(0.000458699 0.00034425 -4.4269e-05)
(0.000704152 0.000466756 -3.09854e-05)
(0.000727806 0.000138576 4.34453e-05)
(0.000580103 0.000309002 5.06249e-05)
(0.000649927 0.000652789 0.000118305)
(0.000586787 0.000855996 0.000176677)
(0.000473032 0.00100279 0.000210203)
(0.000339744 0.00110089 0.000221673)
(0.000205736 0.00116196 0.000225144)
(7.33085e-05 0.00119109 0.00022619)
(-5.80029e-05 0.00119203 0.000226262)
(-0.000190373 0.00116482 0.00022536)
(-0.000324285 0.00110579 0.000222056)
(-0.000457376 0.00100996 0.000210819)
(-0.000570972 0.000865832 0.000177771)
(-0.000633865 0.000665716 0.000119923)
(-0.000562082 0.000324777 5.33002e-05)
(-0.000716209 0.00014233 4.5641e-05)
(-0.000698984 0.000471696 -3.02205e-05)
(-0.000449092 0.000354213 -4.54154e-05)
(-0.000323991 0.000260337 -4.20486e-05)
(-0.000221546 0.000194973 -3.69971e-05)
(-0.000145439 0.000151659 -3.20944e-05)
(-8.29166e-05 0.00012576 -2.86525e-05)
(-2.75237e-05 0.000111718 -2.08992e-05)
(-1.00724e-06 0.000100618 -2.8142e-07)
(7.09658e-07 5.54833e-05 5.91553e-07)
(1.90884e-05 6.13184e-05 -1.37404e-05)
(5.74363e-05 6.72303e-05 -1.88519e-05)
(9.92602e-05 7.74646e-05 -2.07325e-05)
(0.000148637 9.37552e-05 -2.37871e-05)
(0.000210798 0.000117269 -2.92257e-05)
(0.000292422 0.000148758 -3.73591e-05)
(0.000406532 0.000186386 -4.64422e-05)
(0.000549445 0.000220422 -5.28945e-05)
(0.000765137 0.000236513 -4.73562e-05)
(0.000866035 0.000124268 -2.43808e-05)
(0.000868571 0.000297902 1.39647e-05)
(0.000861059 0.000482504 0.000130264)
(0.000737435 0.000618657 0.000202425)
(0.00058354 0.000724777 0.000239841)
(0.000413208 0.000796997 0.000255218)
(0.000247782 0.00084302 0.000260193)
(8.74135e-05 0.000865322 0.000261638)
(-7.03505e-05 0.00086609 0.000261703)
(-0.000230618 0.000845335 0.000260391)
(-0.000395861 0.000800898 0.000255576)
(-0.000565863 0.000730296 0.000240437)
(-0.0007196 0.000625783 0.000203531)
(-0.00084317 0.000490783 0.000132025)
(-0.000851125 0.000306371 1.71616e-05)
(-0.000853142 0.000128265 -2.23824e-05)
(-0.000756116 0.000244211 -4.69068e-05)
(-0.000538789 0.000230014 -5.4077e-05)
(-0.000391212 0.000197531 -4.92666e-05)
(-0.000269471 0.000161785 -4.21787e-05)
(-0.00017675 0.000133208 -3.62581e-05)
(-0.000101097 0.000114234 -3.21049e-05)
(-3.48828e-05 0.000103318 -2.31295e-05)
(-2.4915e-06 9.366e-05 3.65315e-07)
(1.30742e-06 4.9856e-05 9.97224e-07)
(2.21142e-05 5.49754e-05 -1.4631e-05)
(6.49892e-05 5.98519e-05 -2.02482e-05)
(0.00011192 6.80813e-05 -2.23631e-05)
(0.000167421 8.07988e-05 -2.58251e-05)
(0.000236914 9.83957e-05 -3.2073e-05)
(0.000327 0.000120497 -4.16303e-05)
(0.000448686 0.000145436 -5.36628e-05)
(0.000597594 0.000166909 -6.49123e-05)
(0.000786646 0.000183052 -6.8857e-05)
(0.000919597 0.000156532 -5.38032e-05)
(0.000998555 0.000242972 -2.16821e-06)
(0.000986037 0.000351483 0.000117524)
(0.000840402 0.000442283 0.000186373)
(0.000660406 0.000515423 0.000220932)
(0.000464127 0.000565206 0.000231062)
(0.000277389 0.000597619 0.000232757)
(9.74275e-05 0.000613447 0.000232574)
(-7.89454e-05 0.000614081 0.000232609)
(-0.000258788 0.000599522 0.000232862)
(-0.000445321 0.000568374 0.000231263)
(-0.000641255 0.000519827 0.000221303)
(-0.000821206 0.000447861 0.000187194)
(-0.000967032 0.000357927 0.000118983)
(-0.000981659 0.000249971 7.68675e-07)
(-0.000906851 0.000161985 -5.20975e-05)
(-0.000776062 0.000190018 -6.82915e-05)
(-0.000585645 0.000175319 -6.60484e-05)
(-0.000431965 0.000155388 -5.65923e-05)
(-0.000302121 0.00013231 -4.67924e-05)
(-0.000199794 0.000112952 -3.97113e-05)
(-0.000115165 9.94115e-05 -3.49149e-05)
(-4.05926e-05 9.12893e-05 -2.49148e-05)
(-3.63578e-06 8.31265e-05 1.03574e-06)
(1.68392e-06 4.25891e-05 1.31965e-06)
(2.43016e-05 4.68113e-05 -1.53721e-05)
(7.05666e-05 5.05084e-05 -2.14043e-05)
(0.000121015 5.65595e-05 -2.37009e-05)
(0.000180243 6.56314e-05 -2.74672e-05)
(0.000253418 7.76677e-05 -3.43117e-05)
(0.000346921 9.19444e-05 -4.4894e-05)
(0.000470317 0.000107396 -5.87913e-05)
(0.000620636 0.000120482 -7.26443e-05)
(0.000801791 0.000133568 -7.98744e-05)
(0.000953799 0.000136092 -6.52921e-05)
(0.00107021 0.000187409 -1.63853e-05)
(0.00105956 0.000253385 0.000100728)
(0.000901923 0.000309669 0.00016287)
(0.000708076 0.000356245 0.000192129)
(0.000497023 0.000389135 0.000197433)
(0.000297031 0.000411078 0.000196309)
(0.00010421 0.000421988 0.000194718)
(-8.45743e-05 0.000422536 0.000194727)
(-0.000277296 0.000412708 0.000196332)
(-0.000477127 0.000391809 0.000197492)
(-0.000687905 0.000359885 0.000192293)
(-0.000881863 0.000314177 0.000163428)
(-0.00103987 0.000258527 0.000101918)
(-0.00105328 0.000193063 -1.3588e-05)
(-0.000940739 0.000141473 -6.37015e-05)
(-0.000790082 0.000139968 -7.9377e-05)
(-0.000607521 0.000127951 -7.38434e-05)
(-0.000452213 0.000116146 -6.1861e-05)
(-0.000320157 0.000102333 -5.03382e-05)
(-0.000213469 9.04212e-05 -4.24093e-05)
(-0.000123878 8.17465e-05 -3.71206e-05)
(-4.39309e-05 7.63119e-05 -2.63226e-05)
(-4.10426e-06 6.98895e-05 1.50606e-06)
(1.93164e-06 3.42192e-05 1.56628e-06)
(2.58681e-05 3.75111e-05 -1.59556e-05)
(7.46305e-05 4.01726e-05 -2.23052e-05)
(0.000127555 4.44254e-05 -2.47308e-05)
(0.000189234 5.07009e-05 -2.87093e-05)
(0.00026457 5.8875e-05 -3.59663e-05)
(0.000359834 6.8407e-05 -4.72466e-05)
(0.000483833 7.88347e-05 -6.23219e-05)
(0.000635053 8.85114e-05 -7.77269e-05)
(0.000815407 9.99428e-05 -8.67716e-05)
(0.000979 0.000110359 -7.24275e-05)
(0.00111359 0.000142821 -2.53274e-05)
(0.00110506 0.000183275 9.04304e-05)
(0.000941784 0.000219364 0.000148813)
(0.000739691 0.00024985 0.00017491)
(0.000519239 0.0002719 0.000177339)
(0.00031049 0.000286821 0.000174466)
(0.000108974 0.000294384 0.000172013)
(-8.83003e-05 0.000294894 0.000172008)
(-0.000289749 0.000288331 0.000174448)
(-0.000498407 0.000274351 0.000177327)
(-0.000718684 0.000253142 0.000174968)
(-0.000921043 0.000223371 0.00014923)
(-0.00108484 0.000187805 9.14518e-05)
(-0.0010964 0.000147766 -2.27298e-05)
(-0.000965527 0.000115405 -7.09473e-05)
(-0.000802895 0.000105653 -8.63407e-05)
(-0.000621004 9.4961e-05 -7.9009e-05)
(-0.00046453 8.62607e-05 -6.55225e-05)
(-0.000331432 7.7131e-05 -5.29139e-05)
(-0.000222247 6.94543e-05 -4.44058e-05)
(-0.000129552 6.38454e-05 -3.87701e-05)
(-4.59947e-05 6.02347e-05 -2.73874e-05)
(-4.31671e-06 5.53503e-05 1.84517e-06)
(2.05988e-06 2.51076e-05 1.72153e-06)
(2.68675e-05 2.74285e-05 -1.63931e-05)
(7.73106e-05 2.91494e-05 -2.29667e-05)
(0.00013185 3.18449e-05 -2.54772e-05)
(0.00019506 3.58034e-05 -2.95897e-05)
(0.000271685 4.09503e-05 -3.70988e-05)
(0.000368021 4.70106e-05 -4.87879e-05)
(0.000492641 5.38949e-05 -6.44963e-05)
(0.000645165 6.10469e-05 -8.06856e-05)
(0.000827034 7.02462e-05 -9.05421e-05)
(0.000997318 8.0764e-05 -7.64988e-05)
(0.001141 0.000101216 -3.01978e-05)
(0.00113385 0.000126005 8.55715e-05)
(0.000967311 0.000148516 0.000142578)
(0.000760256 0.0001677 0.000167377)
(0.000534009 0.000181946 0.000168559)
(0.000319591 0.000191723 0.000164928)
(0.000112317 0.000196814 0.0001621)
(-9.06536e-05 0.000197319 0.000162092)
(-0.000297908 0.000193211 0.000164898)
(-0.000512326 0.000184336 0.000168523)
(-0.000738528 0.000170868 0.000167398)
(-0.000946015 0.0001523 0.000142941)
(-0.00111322 0.00013021 8.65209e-05)
(-0.00112355 0.0001057 -2.76979e-05)
(-0.000983513 8.53623e-05 -7.51052e-05)
(-0.000813984 7.52099e-05 -9.01943e-05)
(-0.000630445 6.64507e-05 -8.20652e-05)
(-0.000472443 5.99277e-05 -6.78241e-05)
(-0.000338386 5.39173e-05 -5.464e-05)
(-0.000227603 4.91141e-05 -4.57995e-05)
(-0.000132976 4.56829e-05 -3.99513e-05)
(-4.71273e-05 4.34487e-05 -2.81743e-05)
(-4.33828e-06 4.00653e-05 2.0252e-06)
(2.1138e-06 1.56051e-05 1.79327e-06)
(2.74266e-05 1.69545e-05 -1.66887e-05)
(7.88693e-05 1.78349e-05 -2.33982e-05)
(0.000134375 1.91896e-05 -2.59571e-05)
(0.000198524 2.12142e-05 -3.01442e-05)
(0.000275999 2.39307e-05 -3.77919e-05)
(0.000373162 2.73183e-05 -4.97014e-05)
(0.000498547 3.14754e-05 -6.57325e-05)
(0.00065235 3.63939e-05 -8.23061e-05)
(0.000835886 4.28574e-05 -9.25271e-05)
(0.00100976 5.07578e-05 -7.8604e-05)
(0.00115766 6.23493e-05 -3.24317e-05)
(0.00115118 7.55827e-05 8.38153e-05)
(0.000982804 8.77674e-05 0.000140623)
(0.00077287 9.81653e-05 0.000165095)
(0.000543226 0.000106114 0.00016589)
(0.000325372 0.000111658 0.000162012)
(0.00011458 0.000114698 0.000159062)
(-9.19107e-05 0.000115227 0.000159054)
(-0.000302743 0.000113213 0.000161984)
(-0.000520712 0.000108586 0.000165856)
(-0.000750473 0.000101412 0.000165112)
(-0.000961039 9.15781e-05 0.000140968)
(-0.00113027 7.97079e-05 8.47323e-05)
(-0.00114008 6.65691e-05 -2.99947e-05)
(-0.000995811 5.49396e-05 -7.72865e-05)
(-0.000822587 4.71113e-05 -9.2264e-05)
(-0.000637279 4.07711e-05 -8.37821e-05)
(-0.000477838 3.61003e-05 -6.91744e-05)
(-0.000342789 3.23425e-05 -5.57007e-05)
(-0.000230852 2.95675e-05 -4.66844e-05)
(-0.000134985 2.77002e-05 -4.07197e-05)
(-4.77491e-05 2.65028e-05 -2.87063e-05)
(-4.31623e-06 2.45347e-05 2.0929e-06)
(2.10498e-06 5.97307e-06 1.78094e-06)
(2.75881e-05 6.34363e-06 -1.6848e-05)
(7.93972e-05 6.40721e-06 -2.36087e-05)
(0.00013529 6.47476e-06 -2.61836e-05)
(0.000199874 6.6541e-06 -3.03945e-05)
(0.00027786 7.06674e-06 -3.80856e-05)
(0.000375667 7.92746e-06 -5.00628e-05)
(0.000501878 9.47135e-06 -6.61862e-05)
(0.000656753 1.21068e-05 -8.28658e-05)
(0.000841517 1.56938e-05 -9.31866e-05)
(0.00101665 2.0439e-05 -7.93054e-05)
(0.00116538 2.43112e-05 -3.30846e-05)
(0.00115881 2.72714e-05 8.3548e-05)
(0.000989607 3.00521e-05 0.000140595)
(0.000778476 3.22754e-05 0.00016516)
(0.000547472 3.42988e-05 0.000165985)
(0.00032817 3.5855e-05 0.000162112)
(0.000115889 3.69767e-05 0.000159163)
(-9.21399e-05 3.75702e-05 0.000159157)
(-0.000304545 3.75992e-05 0.000162092)
(-0.000524099 3.70645e-05 0.000165967)
(-0.000755415 3.58402e-05 0.000165182)
(-0.000967442 3.41051e-05 0.000140916)
(-0.00113779 3.15373e-05 8.44261e-05)
(-0.00114788 2.84603e-05 -3.07212e-05)
(-0.0010028 2.42999e-05 -7.80756e-05)
(-0.000828269 1.93186e-05 -9.30222e-05)
(-0.000641677 1.55335e-05 -8.44444e-05)
(-0.000481077 1.27648e-05 -6.97334e-05)
(-0.000345096 1.11212e-05 -5.61766e-05)
(-0.000232378 1.01974e-05 -4.71098e-05)
(-0.000135843 9.75216e-06 -4.11091e-05)
(-4.79889e-05 9.51659e-06 -2.90022e-05)
(-4.28232e-06 8.96397e-06 2.05511e-06)
(2.03434e-06 -3.51116e-06 1.68603e-06)
(2.73526e-05 -4.1162e-06 -1.6872e-05)
(7.88943e-05 -4.89361e-06 -2.36006e-05)
(0.00013459 -6.16878e-06 -2.61607e-05)
(0.000199097 -7.93534e-06 -3.03465e-05)
(0.000277242 -9.98743e-06 -3.79897e-05)
(0.000375502 -1.1868e-05 -4.98883e-05)
(0.000502605 -1.31466e-05 -6.58849e-05)
(0.000658397 -1.28209e-05 -8.24092e-05)
(0.000844046 -1.18297e-05 -9.25784e-05)
(0.00101831 -9.23644e-06 -7.86821e-05)
(0.00116457 -1.2947e-05 -3.23113e-05)
(0.001157 -2.09673e-05 8.45317e-05)
(0.00098783 -2.81457e-05 0.000142158)
(0.000777102 -3.45374e-05 0.000167228)
(0.000546788 -3.8665e-05 0.000168478)
(0.000328034 -4.12235e-05 0.000164843)
(0.00011629 -4.20504e-05 0.000162005)
(-9.12854e-05 -4.13535e-05 0.000161991)
(-0.000303236 -3.91736e-05 0.000164794)
(-0.000522456 -3.54233e-05 0.0001684)
(-0.000753421 -3.03685e-05 0.000167194)
(-0.000965366 -2.34689e-05 0.000142444)
(-0.001136 -1.61629e-05 8.53452e-05)
(-0.00114738 -8.5495e-06 -3.00674e-05)
(-0.00100486 -5.49836e-06 -7.75763e-05)
(-0.00083116 -8.6592e-06 -9.25424e-05)
(-0.00064365 -1.01872e-05 -8.41113e-05)
(-0.000482131 -1.10387e-05 -6.95504e-05)
(-0.000345297 -1.03618e-05 -5.6106e-05)
(-0.000232183 -9.22017e-06 -4.70964e-05)
(-0.000135552 -8.08834e-06 -4.11302e-05)
(-4.78445e-05 -7.28032e-06 -2.9068e-05)
(-4.23455e-06 -6.40744e-06 1.91264e-06)
(1.8876e-06 -1.25786e-05 1.50546e-06)
(2.66772e-05 -1.41638e-05 -1.67599e-05)
(7.72711e-05 -1.58789e-05 -2.33703e-05)
(0.000132113 -1.87073e-05 -2.58819e-05)
(0.000195926 -2.28028e-05 -2.99892e-05)
(0.000273745 -2.7941e-05 -3.74819e-05)
(0.000372151 -3.34337e-05 -4.91318e-05)
(0.000500251 -3.84869e-05 -6.47203e-05)
(0.000657055 -4.09261e-05 -8.07222e-05)
(0.000844076 -4.19361e-05 -9.03431e-05)
(0.00101517 -3.81982e-05 -7.62929e-05)
(0.00115413 -5.04746e-05 -2.93352e-05)
(0.00114421 -7.28282e-05 8.79924e-05)
(0.000976349 -9.28454e-05 0.000147188)
(0.000768032 -0.00011017 0.000173564)
(0.000540761 -0.000121777 0.000175997)
(0.000324746 -0.000129209 0.000173045)
(0.000115741 -0.000132274 0.000170531)
(-8.92558e-05 -0.000131414 0.000170504)
(-0.000298586 -0.000126671 0.000172956)
(-0.000515276 -0.000117763 0.000175852)
(-0.000743539 -0.000104938 0.00017342)
(-0.000953536 -8.69482e-05 0.000147306)
(-0.00112343 -6.68391e-05 8.8613e-05)
(-0.00113762 -4.53233e-05 -2.7317e-05)
(-0.00100247 -3.43081e-05 -7.53844e-05)
(-0.000831876 -3.8962e-05 -9.05103e-05)
(-0.000643002 -3.88289e-05 -8.25977e-05)
(-0.000480533 -3.73036e-05 -6.85181e-05)
(-0.000342847 -3.33422e-05 -5.54287e-05)
(-0.000229833 -2.92547e-05 -4.66146e-05)
(-0.000133834 -2.59332e-05 -4.07679e-05)
(-4.71812e-05 -2.37485e-05 -2.88989e-05)
(-4.13529e-06 -2.13557e-05 1.65263e-06)
(1.62218e-06 -2.08761e-05 1.23146e-06)
(2.54423e-05 -2.33936e-05 -1.65116e-05)
(7.42783e-05 -2.61176e-05 -2.2915e-05)
(0.000127395 -3.06978e-05 -2.53395e-05)
(0.000189553 -3.75445e-05 -2.92994e-05)
(0.000266089 -4.65514e-05 -3.6498e-05)
(0.00036382 -5.69266e-05 -4.76383e-05)
(0.000492804 -6.7389e-05 -6.23244e-05)
(0.000651163 -7.38395e-05 -7.71084e-05)
(0.000842415 -7.67741e-05 -8.5251e-05)
(0.00100738 -6.37421e-05 -7.11647e-05)
(0.00113029 -8.7139e-05 -2.31336e-05)
(0.00111565 -0.000132661 9.55668e-05)
(0.00095102 -0.00017137 0.000158252)
(0.000748245 -0.000203894 0.000187502)
(0.000527634 -0.000225526 0.00019255)
(0.000317417 -0.000239316 0.000191138)
(0.000114033 -0.000245219 0.000189351)
(-8.56584e-05 -0.000244087 0.000189285)
(-0.000289492 -0.000235946 0.00019093)
(-0.000500626 -0.000220132 0.000192201)
(-0.000722681 -0.000196745 0.000187068)
(-0.000927748 -0.000163258 0.000158004)
(-0.00109525 -0.000124347 9.57968e-05)
(-0.00111496 -8.03253e-05 -2.15203e-05)
(-0.000995861 -5.93014e-05 -7.05809e-05)
(-0.000831181 -7.35725e-05 -8.57642e-05)
(-0.000638113 -7.18161e-05 -7.92648e-05)
(-0.000474223 -6.66539e-05 -6.63179e-05)
(-0.000335933 -5.77767e-05 -5.40231e-05)
(-0.000224038 -4.94835e-05 -4.56089e-05)
(-0.000129889 -4.32009e-05 -3.99912e-05)
(-4.55977e-05 -3.92695e-05 -2.84865e-05)
(-3.84103e-06 -3.53496e-05 1.22664e-06)