/*--------------------------------*- C++ -*----------------------------------*\
| =========                 |                                                 |
| \\      /  F ield         | OpenFOAM: The Open Source CFD Toolbox           |
|  \\    /   O peration     | Version:  2112                                  |
|   \\  /    A nd           | Website:  www.openfoam.com                      |
|    \\/     M anipulation  |                                                 |
\*---------------------------------------------------------------------------*/
FoamFile
{
    version     2.0;
    format      ascii;
    arch        "LSB;label=32;scalar=64";
    class       volScalarField;
    location    "2.6";
    object      epsilon;
}
// * * * * * * * * * * * * * * * * * * * * * * * * * * * * * * * * * * * * * //

dimensions      [0 2 -3 0 0 0 0];

internalField   nonuniform List<scalar> 
64906
(
0.000479929
0.000545812
0.000583729
0.000599875
0.00060595
0.000608043
0.000608715
0.000608922
0.000608986
0.00060901
0.00060902
0.000609023
0.000609022
0.000609016
0.000609007
0.000608993
0.000608977
0.000608961
0.000608951
0.000608962
0.000608977
0.00060899
0.000608999
0.000609004
0.000609002
0.000608986
0.000608927
0.000608727
0.000608061
0.000605974
0.000599904
0.000583763
0.000545847
0.000479955
0.000545841
0.000954411
0.00118123
0.00128842
0.00133498
0.00135346
0.00136014
0.00136234
0.00136296
0.00136305
0.00136299
0.00136293
0.00136289
0.00136289
0.00136291
0.00136292
0.00136293
0.00136293
0.00136293
0.00136293
0.00136293
0.00136291
0.0013629
0.00136289
0.00136288
0.00136277
0.00136221
0.0013601
0.0013535
0.00133508
0.00128856
0.00118137
0.000954527
0.000545904
0.000583812
0.00118132
0.00153442
0.00171318
0.00179661
0.00183218
0.00184591
0.00185055
0.00185169
0.00185156
0.00185111
0.00185074
0.00185056
0.00185055
0.00185062
0.00185069
0.00185073
0.00185075
0.00185075
0.00185074
0.00185071
0.00185066
0.00185058
0.00185056
0.00185062
0.00185056
0.00184955
0.00184526
0.00183192
0.00179664
0.00171338
0.00153467
0.00118154
0.000583918
0.000600001
0.00128859
0.00171329
0.00193808
0.00204777
0.00209652
0.00211581
0.00212196
0.00212253
0.00212089
0.0021188
0.00211724
0.00211641
0.00211619
0.00211624
0.00211629
0.00211629
0.00211629
0.0021163
0.00211632
0.00211633
0.00211629
0.00211623
0.00211641
0.00211704
0.00211789
0.00211771
0.00211278
0.00209485
0.00204715
0.00193808
0.00171355
0.00128888
0.000600143
0.0006061
0.0013352
0.0017968
0.00204786
0.00217362
0.00223055
0.00225258
0.00225779
0.00225485
0.00224832
0.00224151
0.00223684
0.00223441
0.00223369
0.0022337
0.00223361
0.00223341
0.00223329
0.0022333
0.00223345
0.00223366
0.00223376
0.00223375
0.00223441
0.00223657
0.00224033
0.00224427
0.00224268
0.00222471
0.00217091
0.00204703
0.00179684
0.00133549
0.000606269
0.000608203
0.00135371
0.00183241
0.00209668
0.00223065
0.00229096
0.00231187
0.00231146
0.00229859
0.00227946
0.00226127
0.00225036
0.00224539
0.00224432
0.00224463
0.00224425
0.00224359
0.0022432
0.00224322
0.00224363
0.00224431
0.00224471
0.0022444
0.0022454
0.00225007
0.00225995
0.00227493
0.00228504
0.00227495
0.00222282
0.0020937
0.00183176
0.00135386
0.000608389
0.000608877
0.00136039
0.00184616
0.00211606
0.00225291
0.00231227
0.00232685
0.00231261
0.00227703
0.00222905
0.00218613
0.00216694
0.00216125
0.00216218
0.00216444
0.00216381
0.0021624
0.00216159
0.00216161
0.00216245
0.00216388
0.00216454
0.00216229
0.00216129
0.00216669
0.00218483
0.00222444
0.00226299
0.00227462
0.00223439
0.0021086
0.00184399
0.0013602
0.000609063
0.000609076
0.00136258
0.00185085
0.00212244
0.00225876
0.00231319
0.00231468
0.00227355
0.00219196
0.00208178
0.00198621
0.00196958
0.00197714
0.00198862
0.00199703
0.00199693
0.00199497
0.00199386
0.00199387
0.00199502
0.00199701
0.00199714
0.00198875
0.00197723
0.00196942
0.00198508
0.00207744
0.00217812
0.00223538
0.00222118
0.00210716
0.00184599
0.00136171
0.000609235
0.000609125
0.00136318
0.0018521
0.00212356
0.00225738
0.00230372
0.00228506
0.00220018
0.00203489
0.00179237
0.00157229
0.00162598
0.00169626
0.0017384
0.00175928
0.00176238
0.00176152
0.00176083
0.00176085
0.00176157
0.00176247
0.00175941
0.00173856
0.00169642
0.001626
0.00157151
0.00178866
0.00202175
0.00216256
0.0021917
0.00209723
0.00184351
0.00136137
0.000609226
0.000609124
0.00136329
0.00185225
0.00212305
0.00225397
0.00229162
0.00225018
0.00210971
0.00181515
0.00130372
0.000789604
0.00112014
0.00136479
0.00146586
0.00150189
0.0015123
0.00151476
0.00151522
0.00151523
0.00151481
0.00151238
0.00150201
0.00146603
0.00136503
0.00112039
0.000789371
0.0013011
0.001803
0.00207283
0.00215729
0.00208525
0.00183989
0.0013605
0.00060915
0.000609115
0.00136328
0.00185228
0.00212279
0.00225234
0.00228554
0.00223112
0.0020526
0.00163991
0.000811455
0.000714025
0.00112845
0.00127725
0.0013218
0.00133463
0.00133776
0.00133838
0.00133839
0.00133779
0.00133468
0.00132187
0.00127739
0.00112868
0.000714162
0.000810379
0.00162862
0.00201613
0.0021384
0.00207915
0.00183809
0.00136001
0.000609102
0.000609098
0.00136328
0.00185253
0.0021236
0.00225451
0.00229136
0.0022475
0.00210181
0.00179878
0.0012777
0.000770685
0.00103687
0.00125094
0.00133629
0.00136252
0.00137213
0.00137396
0.00137399
0.00137399
0.00137394
0.00137211
0.0013625
0.00133627
0.00125093
0.00103672
0.000770243
0.00127465
0.00178638
0.00206472
0.0021543
0.00208449
0.00183975
0.00136032
0.000609105
0.000609075
0.00136332
0.00185297
0.00212513
0.00225898
0.00230353
0.00227925
0.00218173
0.00199299
0.0017134
0.00144362
0.00141221
0.00140975
0.00141301
0.00141463
0.00141537
0.00141486
0.0014144
0.00141439
0.00141483
0.00141531
0.00141454
0.00141287
0.00140952
0.00141173
0.00144234
0.00170932
0.00197963
0.00214382
0.00218527
0.00209591
0.00184349
0.00136118
0.00060913
0.000609048
0.00136335
0.00185343
0.00212672
0.00226351
0.00231537
0.00230796
0.00224609
0.00212449
0.00194783
0.00175645
0.00161729
0.00151359
0.00146714
0.00145061
0.00144509
0.00144302
0.00144227
0.00144225
0.00144297
0.00144501
0.00145049
0.00146695
0.0015133
0.00161676
0.00175495
0.00194327
0.00211048
0.00220743
0.00221319
0.00210695
0.00184725
0.00136206
0.000609141
0.000609015
0.00136338
0.00185378
0.00212792
0.00226686
0.00232372
0.00232696
0.00228517
0.00219553
0.00205718
0.00188504
0.00171066
0.00156598
0.00149611
0.00146988
0.00146104
0.00145808
0.00145711
0.00145709
0.00145802
0.00146095
0.00146974
0.00149591
0.00156567
0.00171007
0.00188348
0.0020524
0.00218113
0.00224597
0.00223157
0.00211465
0.00184997
0.00136269
0.000609126
0.00060898
0.00136337
0.00185401
0.00212868
0.00226888
0.00232855
0.00233735
0.00230512
0.0022289
0.00210386
0.00193574
0.00174902
0.0015883
0.00150885
0.0014784
0.00146807
0.00146463
0.00146347
0.00146344
0.00146455
0.00146795
0.00147825
0.00150864
0.00158798
0.00174832
0.00193415
0.00209898
0.00221429
0.0022656
0.00224155
0.00211902
0.00185155
0.00136304
0.000609089
0.000608943
0.00136336
0.00185413
0.0021291
0.00226993
0.00233093
0.00234222
0.00231398
0.0022428
0.00212202
0.00195438
0.00176316
0.00159659
0.00151365
0.0014816
0.00147066
0.00146697
0.00146565
0.00146561
0.00146687
0.00147053
0.00148144
0.00151343
0.00159627
0.00176247
0.00195278
0.00211709
0.00222809
0.00227429
0.0022462
0.00212115
0.00185234
0.0013632
0.000609041
0.000608908
0.00136334
0.00185419
0.00212929
0.00227038
0.00233189
0.0023441
0.00231723
0.00224765
0.00212805
0.00196033
0.00176763
0.00159921
0.00151517
0.00148259
0.00147143
0.00146761
0.00146617
0.00146611
0.0014675
0.00147129
0.00148243
0.00151494
0.00159889
0.00176695
0.00195873
0.00212311
0.00223291
0.00227747
0.00224798
0.002122
0.00185266
0.00136325
0.00060899
0.000608878
0.00136334
0.0018542
0.00212932
0.00227043
0.00233197
0.0023442
0.00231735
0.00224781
0.00212823
0.00196052
0.00176782
0.00159933
0.00151524
0.00148262
0.00147142
0.00146756
0.00146603
0.00146596
0.00146743
0.00147128
0.00148245
0.00151501
0.00159901
0.00176714
0.00195893
0.0021233
0.00223308
0.00227761
0.00224809
0.00212207
0.0018527
0.00136324
0.000608944
0.000608875
0.00136334
0.00185418
0.0021292
0.00227009
0.00233116
0.00234253
0.00231437
0.00224329
0.00212258
0.00195499
0.00176374
0.00159697
0.00151388
0.0014817
0.00147065
0.00146682
0.0014653
0.00146523
0.00146669
0.0014705
0.00148153
0.00151366
0.00159666
0.00176309
0.00195344
0.00211771
0.00222863
0.00227472
0.00224652
0.00212137
0.00185245
0.00136319
0.000608939
0.000608905
0.00136335
0.00185409
0.00212886
0.00226915
0.00232893
0.00233786
0.0023058
0.00222975
0.00210488
0.00193687
0.00175012
0.00158902
0.00150931
0.00147863
0.00146811
0.00146445
0.00146304
0.00146298
0.00146432
0.00146796
0.00147847
0.0015091
0.00158873
0.00174952
0.00193539
0.00210011
0.00221525
0.00226635
0.0022421
0.00211939
0.00185175
0.00136305
0.000608979
0.00060894
0.00136336
0.0018539
0.00212817
0.00226723
0.00232426
0.0023277
0.00228616
0.00219682
0.0020588
0.00188692
0.00171251
0.00156717
0.00149688
0.00147032
0.00146121
0.00145798
0.00145678
0.00145673
0.00145787
0.00146108
0.00147017
0.0014967
0.00156694
0.00171201
0.00188557
0.00205423
0.0021826
0.00224708
0.00223236
0.00211518
0.00185025
0.00136273
0.000609018
0.000608974
0.00136335
0.00185358
0.00212702
0.00226399
0.00231606
0.0023089
0.0022474
0.00212629
0.00195024
0.00175938
0.00161972
0.00151528
0.00146816
0.00145117
0.00144531
0.00144298
0.00144205
0.00144202
0.0014429
0.0014452
0.00145105
0.00146802
0.00151514
0.00161947
0.00175827
0.00194603
0.00211253
0.00220888
0.0022142
0.00210762
0.00184762
0.00136213
0.000609038
0.000609004
0.00136332
0.00185313
0.00212546
0.00225949
0.00230428
0.00228031
0.00218325
0.00199521
0.00171657
0.00144775
0.00141559
0.00141128
0.00141342
0.00141439
0.00141472
0.00141399
0.0014134
0.00141338
0.00141392
0.00141462
0.00141425
0.00141324
0.00141115
0.0014156
0.00144707
0.00171299
0.00198208
0.00214542
0.00218636
0.00209664
0.0018439
0.00136128
0.000609031
0.000609027
0.00136326
0.00185261
0.00212379
0.00225485
0.00229191
0.00224836
0.00210315
0.00180094
0.00128103
0.00077251
0.00103818
0.0012486
0.00133193
0.00135687
0.00136586
0.00136743
0.00136736
0.00136733
0.00136733
0.00136563
0.0013564
0.00133113
0.00124775
0.00103817
0.000772184
0.00127849
0.00178837
0.00206577
0.002155
0.00208501
0.00184007
0.0013604
0.000609008
0.000609036
0.0013631
0.00185196
0.00212232
0.00225182
0.00228505
0.0022307
0.00205218
0.00163963
0.000811338
0.000708263
0.00111126
0.00125283
0.00129276
0.00130383
0.0013064
0.00130682
0.00130674
0.00130608
0.00130298
0.00129077
0.00124895
0.00110577
0.000705336
0.000809185
0.00162616
0.00201409
0.0021373
0.00207868
0.00183792
0.00135991
0.000608997
0.000609001
0.00136251
0.00185051
0.00212038
0.00225065
0.00228792
0.00224616
0.0021051
0.00180957
0.00129754
0.000784155
0.00108545
0.00130376
0.00137936
0.00139922
0.00140484
0.0014064
0.00140671
0.00140654
0.00140564
0.00140249
0.0013929
0.00136539
0.00128026
0.00106434
0.000776716
0.00128496
0.00178928
0.00206366
0.00215174
0.00208201
0.00183815
0.00135977
0.000608998
0.000608822
0.00136042
0.00184598
0.00211437
0.00224596
0.00229081
0.00227078
0.0021834
0.0020126
0.00175885
0.00151718
0.00152409
0.00153584
0.00151601
0.00150058
0.00149426
0.00149224
0.00149163
0.00149134
0.0014909
0.00148979
0.00148737
0.00148305
0.0014734
0.0014595
0.00146789
0.00172137
0.0019796
0.00213652
0.00217519
0.00208655
0.00183715
0.00135862
0.000608888
0.000608172
0.00135384
0.00183255
0.00209592
0.00222643
0.00227715
0.0022756
0.0022296
0.00213712
0.00200341
0.00186251
0.00176914
0.00167442
0.00158101
0.00153569
0.00151913
0.001514
0.00151258
0.00151222
0.00151222
0.00151285
0.00151606
0.00152847
0.00156655
0.00165595
0.00177317
0.00194179
0.00209226
0.00217863
0.00218112
0.00207837
0.00182727
0.00135298
0.000608296
0.000606092
0.00133545
0.00179724
0.00204801
0.00217202
0.00222368
0.00223306
0.00221228
0.00216306
0.00208576
0.00198704
0.00187731
0.00175245
0.00163579
0.00157932
0.00155843
0.00155188
0.00155007
0.00154968
0.0015499
0.00155137
0.0015572
0.00157671
0.00163154
0.00174925
0.00188519
0.00201676
0.00211563
0.00216298
0.00214515
0.0020382
0.00179467
0.00133527
0.000606254
0.000600018
0.00128891
0.00171394
0.00193886
0.00204797
0.00209438
0.00210752
0.00210023
0.00207527
0.00203083
0.00196502
0.00187849
0.00177683
0.00168309
0.00163337
0.00161352
0.00160695
0.00160515
0.00160478
0.00160505
0.00160673
0.00161308
0.00163242
0.00168181
0.00177664
0.00188246
0.00197461
0.00203674
0.00205992
0.00203376
0.00193427
0.00171315
0.00128915
0.000600198
0.000583862
0.00118168
0.00153517
0.00171425
0.00179773
0.00183263
0.00184401
0.00184286
0.0018319
0.00180959
0.00177309
0.00172128
0.00165915
0.00160197
0.00156918
0.00155502
0.00155007
0.00154862
0.00154833
0.00154859
0.00154999
0.00155485
0.00156888
0.00160165
0.00165927
0.00172262
0.00177531
0.00180817
0.00181646
0.00179184
0.00171289
0.00153536
0.0011821
0.000584037
0.000545919
0.000954729
0.00118187
0.00128936
0.00133615
0.00135467
0.0013609
0.0013615
0.00135822
0.00135036
0.00133622
0.00131487
0.00128845
0.00126364
0.0012486
0.00124173
0.00123919
0.0012384
0.00123824
0.00123841
0.0012392
0.00124172
0.00124857
0.00126361
0.00128853
0.00131521
0.00133649
0.0013487
0.00134987
0.00133492
0.00128952
0.00118237
0.000955119
0.000546065
0.000479996
0.000545973
0.000584028
0.000600312
0.000606519
0.000608741
0.000609524
0.000609767
0.000609678
0.000609177
0.000608136
0.000606293
0.000603764
0.000601198
0.000599578
0.000598779
0.000598416
0.00059823
0.00059816
0.000598241
0.000598426
0.000598782
0.000599567
0.000601172
0.000603726
0.000606254
0.000608076
0.000608965
0.000608808
0.000606823
0.00060065
0.000584306
0.000546153
0.000480091
0.000631631
0.000878216
0.00102839
0.00110002
0.00113061
0.00114249
0.0011467
0.00114804
0.00114839
0.00114842
0.00114834
0.00114826
0.00114818
0.00114813
0.0011481
0.00114807
0.00114804
0.00114803
0.00114803
0.00114804
0.00114806
0.00114808
0.00114812
0.00114816
0.0011482
0.00114818
0.00114787
0.00114659
0.00114244
0.00113059
0.00110003
0.00102841
0.000878241
0.000631656
0.000878222
0.00105805
0.00122887
0.00132056
0.00136294
0.00138045
0.00138696
0.00138911
0.00138966
0.00138968
0.00138954
0.00138938
0.00138927
0.0013892
0.00138916
0.00138914
0.00138912
0.00138911
0.00138911
0.00138912
0.00138914
0.00138917
0.0013892
0.00138926
0.00138932
0.00138928
0.00138878
0.00138674
0.00138033
0.0013629
0.00132056
0.00122889
0.00105808
0.000878251
0.00102846
0.0012289
0.00143735
0.00155662
0.00161537
0.00164119
0.00165133
0.00165476
0.00165551
0.00165529
0.0016548
0.00165436
0.00165408
0.00165394
0.00165388
0.00165385
0.00165382
0.00165381
0.00165381
0.00165383
0.00165386
0.00165389
0.00165395
0.00165406
0.00165424
0.00165433
0.00165369
0.00165056
0.00164075
0.00161518
0.00155658
0.00143739
0.00122896
0.00102853
0.00110014
0.00132064
0.00155667
0.00169654
0.00176808
0.00180069
0.00181375
0.00181789
0.00181816
0.00181689
0.00181531
0.00181407
0.00181335
0.00181303
0.00181292
0.00181285
0.00181279
0.00181276
0.00181276
0.0018128
0.00181287
0.00181293
0.00181304
0.00181332
0.00181389
0.00181461
0.0018146
0.0018113
0.0017992
0.00176736
0.00169629
0.00155666
0.00132071
0.00110025
0.00113078
0.00136306
0.00161547
0.00176813
0.00184793
0.00188484
0.00189926
0.00190263
0.00190061
0.00189625
0.00189178
0.00188866
0.00188704
0.00188642
0.00188624
0.00188611
0.00188596
0.00188586
0.00188587
0.00188597
0.00188613
0.00188626
0.00188643
0.001887
0.00188843
0.00189091
0.00189342
0.00189232
0.00188055
0.00184574
0.00176725
0.00161524
0.00136309
0.0011309
0.0011427
0.00138059
0.00164132
0.00180079
0.00188491
0.00192351
0.00193701
0.00193677
0.00192859
0.00191668
0.00190562
0.00189884
0.00189599
0.00189526
0.0018952
0.00189506
0.00189476
0.00189455
0.00189455
0.00189477
0.00189508
0.00189523
0.00189528
0.00189595
0.00189859
0.00190465
0.00191354
0.00191944
0.00191264
0.00187927
0.00179836
0.0016405
0.00138044
0.00114274
0.00114691
0.0013871
0.00165149
0.00181393
0.00189951
0.0019373
0.00194674
0.00193796
0.00191624
0.00188787
0.0018634
0.00185098
0.00184811
0.00184875
0.0018496
0.00184988
0.0018495
0.00184915
0.00184916
0.00184952
0.0018499
0.00184964
0.00184878
0.00184809
0.00185074
0.00186242
0.0018846
0.00190668
0.00191281
0.00188687
0.00180838
0.00164946
0.00138654
0.00114676
0.00114826
0.00138925
0.00165496
0.00181826
0.00190333
0.00193794
0.00193931
0.00191454
0.00186674
0.00180584
0.00175755
0.00173778
0.0017413
0.00174814
0.00175185
0.00175401
0.00175408
0.00175374
0.00175374
0.0017541
0.00175404
0.00175189
0.00174819
0.0017413
0.00173758
0.0017566
0.00180259
0.00185708
0.00188899
0.00187853
0.00180739
0.00165088
0.00138798
0.00114772
0.00114861
0.00138983
0.00165585
0.00181895
0.00190237
0.00193196
0.00192139
0.00187207
0.0017813
0.00166394
0.00159209
0.00154854
0.00157566
0.00159981
0.00160925
0.0016169
0.00161891
0.00161904
0.00161905
0.00161894
0.00161694
0.00160931
0.00159988
0.00157571
0.00154842
0.00159119
0.00166074
0.00177163
0.00184638
0.00186024
0.00180075
0.00164898
0.00138758
0.00114753
0.00114865
0.0013899
0.00165589
0.0018185
0.00190007
0.00192448
0.00190125
0.00182436
0.00168198
0.00150558
0.00176538
0.00130921
0.00137744
0.00143378
0.00145081
0.0014684
0.00147393
0.00147496
0.00147497
0.00147395
0.00146845
0.00145087
0.00143388
0.00137755
0.00130917
0.00176361
0.00150207
0.00167214
0.00179851
0.00183987
0.00179293
0.00164626
0.00138667
0.00114701
0.00114862
0.00138986
0.00165583
0.0018182
0.00189889
0.00192076
0.00189125
0.00180161
0.00165346
0.00187421
0.00140914
0.00123784
0.00130891
0.00134536
0.00135222
0.00135297
0.00135294
0.00135295
0.00135298
0.00135224
0.00134541
0.00130899
0.00123794
0.00140937
0.00186633
0.00164307
0.00177552
0.00182966
0.00178898
0.00164481
0.00138612
0.00114668
0.00114858
0.00138984
0.00165592
0.00181859
0.00190002
0.00192375
0.00189878
0.00181818
0.00166861
0.00147668
0.00166061
0.00124002
0.00133208
0.00140631
0.00146129
0.00143804
0.00142761
0.00142505
0.00142505
0.00142759
0.001438
0.00146127
0.00140629
0.00133203
0.00123973
0.00165836
0.00147296
0.00165862
0.00179214
0.00183711
0.00179182
0.00164574
0.00138634
0.00114677
0.00114855
0.00138987
0.00165617
0.0018195
0.00190269
0.00193089
0.00191652
0.001859
0.00175244
0.00160659
0.00148808
0.00140535
0.00140905
0.0014189
0.00143075
0.00142257
0.00141786
0.00141639
0.00141639
0.00141784
0.00142254
0.00143072
0.00141884
0.00140892
0.00140498
0.00148694
0.00160317
0.00174254
0.00183296
0.00185479
0.00179881
0.00164823
0.00138712
0.00114716
0.00114853
0.00138991
0.00165646
0.00182048
0.0019055
0.00193814
0.0019337
0.00189611
0.00182393
0.00172186
0.00161374
0.00152754
0.00147716
0.00144619
0.00143477
0.0014286
0.00142598
0.00142513
0.00142513
0.00142597
0.00142857
0.00143472
0.0014461
0.00147699
0.00152715
0.00161261
0.00171842
0.00181397
0.00186997
0.00187182
0.00180587
0.00165084
0.00138796
0.00114756
0.00114849
0.00138994
0.00165668
0.00182124
0.0019076
0.00194337
0.00194552
0.00192009
0.00186678
0.00178639
0.00168856
0.00159229
0.00151787
0.00146783
0.00144645
0.00143877
0.00143627
0.00143555
0.00143555
0.00143625
0.00143874
0.0014464
0.00146773
0.0015177
0.00159189
0.00168741
0.00178289
0.00185672
0.00189382
0.00188347
0.00181092
0.00165276
0.00138858
0.00114783
0.00114845
0.00138995
0.00165682
0.00182171
0.00190887
0.00194643
0.00195211
0.00193276
0.00188804
0.00181648
0.00172241
0.001621
0.00153669
0.00147875
0.00145336
0.00144456
0.00144189
0.00144116
0.00144116
0.00144187
0.00144453
0.00145331
0.00147865
0.00153651
0.00162058
0.00172125
0.00181294
0.00187791
0.00190637
0.00188992
0.00181382
0.00165389
0.00138894
0.00114796
0.00114841
0.00138995
0.00165689
0.00182196
0.00190952
0.00194793
0.00195522
0.00193848
0.00189716
0.00182874
0.00173567
0.00163204
0.00154397
0.00148308
0.00145621
0.00144692
0.00144412
0.00144337
0.00144337
0.0014441
0.00144689
0.00145616
0.00148298
0.00154379
0.00163163
0.0017345
0.00182518
0.00188698
0.00191202
0.00189295
0.00181523
0.00165445
0.00138911
0.00114799
0.00114838
0.00138995
0.00165692
0.00182206
0.00190979
0.00194853
0.00195641
0.00194057
0.00190037
0.00183287
0.00173999
0.00163558
0.00154628
0.00148447
0.00145713
0.00144766
0.00144481
0.00144404
0.00144403
0.00144479
0.00144763
0.00145707
0.00148436
0.00154611
0.00163517
0.00173882
0.00182931
0.00189017
0.00191408
0.00189409
0.00181578
0.00165467
0.00138917
0.00114798
0.00114836
0.00138995
0.00165692
0.00182207
0.00190981
0.00194856
0.00195645
0.00194062
0.00190043
0.00183295
0.00174007
0.00163567
0.00154635
0.00148451
0.00145715
0.00144767
0.00144481
0.00144403
0.00144402
0.00144479
0.00144764
0.00145709
0.00148441
0.00154618
0.00163525
0.00173891
0.00182939
0.00189024
0.00191414
0.00189413
0.0018158
0.00165468
0.00138917
0.00114795
0.00114836
0.00138995
0.0016569
0.00182199
0.00190958
0.00194802
0.00195534
0.00193863
0.00189736
0.00182897
0.00173593
0.00163231
0.00154418
0.00148323
0.0014563
0.00144697
0.00144414
0.00144337
0.00144336
0.00144412
0.00144694
0.00145625
0.00148313
0.00154402
0.00163191
0.00173479
0.00182543
0.0018872
0.00191218
0.00189306
0.0018153
0.00165448
0.00138911
0.00114793
0.00114839
0.00138995
0.00165684
0.00182177
0.00190897
0.00194657
0.00195231
0.00193302
0.00188839
0.00181693
0.00172293
0.00162152
0.00153711
0.00147905
0.00145356
0.0014447
0.00144198
0.00144123
0.00144122
0.00144197
0.00144468
0.00145352
0.00147897
0.00153696
0.00162115
0.00172181
0.00181343
0.00187829
0.00190666
0.00189012
0.00181395
0.00165395
0.00138895
0.00114787
0.00114842
0.00138994
0.00165671
0.00182132
0.00190773
0.00194358
0.00194581
0.00192049
0.00186733
0.00178711
0.00168943
0.00159318
0.00151859
0.00146834
0.0014468
0.00143905
0.00143651
0.00143577
0.00143576
0.0014365
0.00143903
0.00144677
0.00146828
0.00151848
0.00159285
0.00168838
0.00178369
0.00185733
0.00189425
0.00188376
0.0018111
0.00165285
0.0013886
0.00114773
0.00114845
0.00138991
0.00165649
0.00182058
0.00190566
0.00193839
0.00193407
0.00189664
0.0018247
0.00172293
0.00161509
0.00152888
0.00147815
0.00144681
0.00143512
0.0014289
0.00142626
0.0014254
0.00142539
0.00142625
0.00142889
0.00143511
0.00144678
0.00147808
0.00152864
0.00161412
0.00171961
0.0018148
0.00187052
0.00187218
0.00180609
0.00165095
0.00138799
0.00114745
0.00114847
0.00138986
0.0016562
0.00181958
0.00190284
0.00193113
0.0019169
0.00185958
0.00175334
0.00160795
0.00148991
0.00140699
0.00140969
0.00141876
0.00143012
0.0014219
0.00141718
0.00141571
0.00141571
0.00141718
0.00142188
0.00143007
0.00141865
0.00140954
0.00140675
0.00148897
0.00160462
0.00174341
0.00183348
0.0018551
0.001799
0.00164833
0.00138714
0.00114704
0.00114846
0.00138979
0.00165585
0.00181853
0.0019
0.0019238
0.00189892
0.00181849
0.00166919
0.00147775
0.00166493
0.0012395
0.00132934
0.00140192
0.00145594
0.0014323
0.00142171
0.00141913
0.00141913
0.00142168
0.00143217
0.00145563
0.00140119
0.00132823
0.0012383
0.00166301
0.00147355
0.00165865
0.00179204
0.00183704
0.00179178
0.00164571
0.0013863
0.00114661
0.00114839
0.00138961
0.00165541
0.00181764
0.00189823
0.00192004
0.00189047
0.00180069
0.00165212
0.00186995
0.00138386
0.00121854
0.00128394
0.00131629
0.00132154
0.00132188
0.00132177
0.00132172
0.00132163
0.0013208
0.00131441
0.00127996
0.00121186
0.00137107
0.00185577
0.00163922
0.00177322
0.00182828
0.00178816
0.00164433
0.00138585
0.00114638
0.00114804
0.00138901
0.00165435
0.00181634
0.00189743
0.00192148
0.00189784
0.00182014
0.00167585
0.00149404
0.00172205
0.00126874
0.00132062
0.00135959
0.00136541
0.0013781
0.00138259
0.00138352
0.00138339
0.00138197
0.00137613
0.00136003
0.00134771
0.00130063
0.00124388
0.00168195
0.00147744
0.00165929
0.00179098
0.00183526
0.00179003
0.00164446
0.00138568
0.0011463
0.00114675
0.00138691
0.00165096
0.00181223
0.00189424
0.00192278
0.00191108
0.0018597
0.00176427
0.00163634
0.00154202
0.00146892
0.00145879
0.00144832
0.00143528
0.00143303
0.00143272
0.00143256
0.00143233
0.00143159
0.00142924
0.00142458
0.00142423
0.00142059
0.00142457
0.00150242
0.00160936
0.00174175
0.0018281
0.00184829
0.0017926
0.0016436
0.00138449
0.00114553
0.00114259
0.00138048
0.00164101
0.00179969
0.00188136
0.0019136
0.00191282
0.00188455
0.00182929
0.00175264
0.00167491
0.00161095
0.001561
0.00152165
0.00149089
0.00147799
0.00147379
0.00147259
0.00147227
0.00147219
0.00147247
0.00147484
0.00148547
0.00151138
0.00155191
0.00162415
0.00171669
0.00180174
0.00185135
0.00185108
0.00178681
0.00163625
0.00137898
0.00114189
0.00113074
0.00136303
0.00161537
0.00176765
0.00184608
0.00187929
0.0018853
0.00187204
0.00184148
0.00179523
0.00173851
0.00167736
0.00161558
0.00156478
0.00152674
0.00150983
0.00150404
0.00150235
0.00150198
0.0015022
0.00150358
0.00150874
0.00152471
0.00156174
0.00161441
0.00168481
0.00175696
0.00181311
0.00184006
0.00182747
0.00175995
0.00161264
0.00136224
0.00113043
0.00110016
0.00132067
0.00155674
0.0016965
0.00176744
0.0017982
0.00180684
0.00180182
0.00178549
0.00175764
0.00171823
0.00166869
0.00161358
0.00156479
0.0015316
0.00151624
0.00151065
0.00150893
0.00150856
0.00150889
0.00151052
0.00151593
0.00153101
0.00156409
0.00161394
0.00167217
0.00172487
0.00176137
0.00177468
0.00175679
0.00169232
0.00155536
0.00132033
0.00110008
0.00102851
0.00122897
0.00143751
0.00155684
0.00161542
0.00164049
0.00164858
0.00164743
0.00163927
0.0016235
0.00159885
0.0015652
0.00152612
0.00149057
0.00146714
0.0014559
0.00145159
0.0014502
0.0014499
0.0014502
0.00145158
0.00145585
0.00146704
0.00149052
0.00152651
0.00156657
0.00160068
0.00162243
0.0016277
0.00160999
0.00155488
0.00143695
0.00122888
0.00102856
0.000878298
0.00105813
0.00122905
0.00132086
0.00136328
0.00138058
0.00138631
0.00138649
0.00138284
0.00137488
0.00136139
0.00134185
0.00131835
0.00129656
0.00128245
0.0012756
0.00127292
0.00127202
0.00127183
0.00127204
0.00127295
0.00127565
0.0012825
0.00129665
0.00131859
0.00134236
0.00136176
0.00137328
0.00137465
0.001361
0.00132017
0.00122892
0.00105814
0.000878379
0.000631695
0.000878297
0.00102862
0.00110042
0.00113114
0.00114302
0.00114691
0.00114723
0.00114513
0.00114017
0.00113128
0.0011178
0.00110104
0.00108529
0.00107562
0.00107112
0.00106935
0.00106874
0.0010686
0.00106876
0.00106939
0.00107116
0.00107566
0.00108534
0.00110115
0.00111804
0.00113142
0.00113908
0.00113978
0.00113011
0.00110026
0.0010287
0.000878373
0.000631782
0.000716224
0.00110393
0.00135139
0.00147617
0.00153287
0.00155632
0.00156513
0.00156806
0.00156883
0.00156882
0.00156858
0.00156831
0.00156809
0.00156794
0.00156784
0.00156778
0.00156773
0.0015677
0.0015677
0.00156772
0.00156777
0.00156784
0.00156792
0.00156805
0.00156819
0.00156819
0.00156752
0.00156474
0.00155608
0.00153274
0.00147611
0.00135136
0.00110393
0.00071625
0.00110393
0.0012359
0.00141734
0.00152306
0.00157519
0.00159801
0.00160696
0.00161005
0.00161087
0.00161087
0.00161062
0.00161035
0.00161014
0.00161
0.00160993
0.00160987
0.00160984
0.00160982
0.00160982
0.00160984
0.00160988
0.00160993
0.00161
0.00161011
0.00161023
0.0016102
0.00160946
0.00160653
0.00159774
0.00157505
0.00152301
0.00141733
0.0012359
0.00110392
0.00135145
0.00141736
0.00160345
0.00172169
0.00178411
0.00181318
0.0018252
0.00182942
0.00183036
0.00183002
0.00182931
0.00182865
0.00182818
0.0018279
0.00182776
0.00182767
0.00182761
0.00182758
0.00182758
0.00182761
0.00182767
0.00182776
0.0018279
0.00182813
0.00182845
0.00182863
0.00182785
0.00182402
0.00181244
0.00178372
0.00172153
0.00160342
0.00141738
0.00135147
0.00147633
0.00152313
0.00172173
0.00185298
0.00192489
0.00195954
0.00197411
0.00197887
0.00197916
0.00197759
0.00197559
0.00197394
0.00197288
0.0019723
0.00197202
0.00197186
0.00197176
0.0019717
0.0019717
0.00197176
0.00197187
0.00197203
0.0019723
0.00197281
0.00197366
0.00197464
0.00197466
0.00197088
0.00195748
0.00192379
0.00185251
0.00172159
0.00152313
0.00147636
0.0015331
0.00157529
0.00178419
0.00192494
0.00200353
0.00204185
0.00205748
0.00206126
0.00205904
0.00205418
0.0020491
0.00204532
0.00204315
0.00204208
0.00204157
0.00204133
0.00204114
0.00204102
0.00204102
0.00204114
0.00204134
0.00204157
0.00204207
0.00204307
0.00204497
0.00204793
0.00205064
0.00204924
0.00203652
0.00200062
0.00192361
0.00178371
0.00157518
0.00153307
0.0015566
0.00159814
0.00181331
0.00195966
0.00204194
0.00208162
0.00209608
0.00209604
0.0020876
0.00207533
0.0020638
0.00205608
0.00205246
0.00205089
0.00205008
0.00204994
0.00204971
0.00204951
0.00204951
0.00204972
0.00204995
0.0020501
0.00205088
0.00205237
0.0020557
0.00206249
0.00207139
0.00207682
0.00206914
0.00203507
0.00195641
0.00181202
0.00159772
0.00155632
0.00156543
0.00160711
0.00182538
0.00197434
0.00205782
0.00209646
0.00210671
0.00209826
0.00207709
0.00205007
0.00202668
0.0020124
0.00200848
0.00200732
0.00200617
0.00200714
0.00200723
0.00200697
0.00200698
0.00200724
0.00200716
0.00200619
0.00200732
0.0020084
0.00201201
0.00202531
0.00204592
0.00206574
0.00207012
0.00204336
0.00196745
0.00182252
0.00160605
0.0015646
0.00156839
0.00161023
0.0018297
0.00197939
0.00206221
0.00209755
0.00209991
0.00207677
0.00203326
0.00198065
0.00194016
0.00191219
0.00191397
0.00191671
0.00191431
0.00192029
0.00192195
0.00192186
0.00192186
0.00192196
0.00192032
0.00191434
0.00191673
0.00191392
0.00191182
0.00193877
0.00197637
0.00202157
0.00204794
0.00203533
0.00196662
0.00182431
0.0016081
0.00156661
0.00156921
0.00161111
0.00183086
0.00198028
0.00206134
0.00209175
0.00208321
0.00203956
0.00196427
0.00187887
0.00184657
0.00175323
0.00177869
0.00179491
0.00178531
0.00180914
0.0018161
0.00181693
0.00181694
0.00181613
0.00180918
0.00178535
0.00179497
0.0017787
0.00175292
0.00184502
0.00187433
0.00195221
0.00201018
0.00201786
0.00195979
0.00182218
0.00160759
0.00156613
0.00156931
0.00161125
0.00183094
0.00197979
0.00205897
0.00208455
0.00206549
0.00200252
0.00190268
0.00184003
0.00246184
0.00156141
0.00164471
0.0016938
0.00165507
0.00172866
0.00174875
0.00175187
0.00175189
0.00174878
0.00172872
0.00165513
0.00169391
0.00164482
0.00156114
0.00245772
0.00183416
0.00188983
0.0019725
0.00199951
0.00195193
0.00181912
0.00160637
0.00156494
0.00156923
0.00161121
0.00183084
0.00197941
0.00205769
0.00208099
0.00205743
0.00199076
0.00193156
0.00269729