/*--------------------------------*- C++ -*----------------------------------*\
| =========                 |                                                 |
| \\      /  F ield         | OpenFOAM: The Open Source CFD Toolbox           |
|  \\    /   O peration     | Version:  2112                                  |
|   \\  /    A nd           | Website:  www.openfoam.com                      |
|    \\/     M anipulation  |                                                 |
\*---------------------------------------------------------------------------*/
FoamFile
{
    version     2.0;
    format      ascii;
    arch        "LSB;label=32;scalar=64";
    class       volScalarField;
    location    "2.6";
    object      k;
}
// * * * * * * * * * * * * * * * * * * * * * * * * * * * * * * * * * * * * * //

dimensions      [0 2 -2 0 0 0 0];

internalField   nonuniform List<scalar> 
64906
(
0.000557013
0.000607676
0.000636086
0.000648107
0.000652653
0.000654236
0.00065475
0.000654909
0.000654958
0.000654975
0.000654982
0.000654983
0.000654982
0.000654977
0.00065497
0.000654959
0.000654947
0.000654935
0.000654928
0.000654936
0.000654947
0.000654957
0.000654964
0.000654968
0.000654967
0.000654955
0.000654911
0.000654757
0.000654248
0.000652669
0.000648127
0.000636111
0.000607702
0.000557033
0.000607698
0.000884011
0.00102044
0.00108233
0.00110894
0.00111955
0.00112342
0.00112471
0.00112507
0.00112512
0.00112509
0.00112504
0.00112502
0.00112501
0.00112502
0.00112503
0.00112503
0.00112503
0.00112503
0.00112503
0.00112503
0.00112502
0.00112502
0.00112502
0.00112501
0.00112495
0.00112462
0.00112339
0.00111956
0.001109
0.0010824
0.00102052
0.000884084
0.000607746
0.000636148
0.00102049
0.0012166
0.00131071
0.00135391
0.00137234
0.0013795
0.00138194
0.00138254
0.00138247
0.00138221
0.001382
0.00138189
0.00138188
0.00138191
0.00138194
0.00138195
0.00138196
0.00138196
0.00138196
0.00138195
0.00138192
0.00138189
0.00138189
0.00138193
0.00138191
0.00138138
0.00137913
0.00137218
0.00135391
0.00131081
0.00121673
0.00102062
0.000636228
0.0006482
0.00108242
0.00131077
0.00142463
0.00147906
0.0015032
0.00151281
0.00151589
0.00151617
0.00151533
0.00151425
0.00151344
0.00151299
0.00151285
0.00151286
0.00151288
0.00151287
0.00151287
0.00151287
0.00151289
0.0015129
0.00151289
0.00151287
0.00151298
0.00151333
0.00151377
0.00151369
0.00151123
0.00150231
0.00147871
0.0014246
0.00131089
0.00108259
0.000648306
0.000652764
0.00110907
0.00135401
0.00147911
0.00154037
0.001568
0.00157874
0.00158129
0.00157985
0.00157663
0.00157326
0.0015709
0.00156965
0.00156925
0.00156922
0.00156916
0.00156905
0.00156899
0.001569
0.00156907
0.00156918
0.00156925
0.00156927
0.00156964
0.00157076
0.00157265
0.00157458
0.00157379
0.00156505
0.00153897
0.00147864
0.00135401
0.00110922
0.000652888
0.000654355
0.00111969
0.00137246
0.00150328
0.00156805
0.00159706
0.00160716
0.00160698
0.00160078
0.00159153
0.00158268
0.00157726
0.00157471
0.0015741
0.00157419
0.00157398
0.00157365
0.00157345
0.00157346
0.00157367
0.00157401
0.00157423
0.00157413
0.00157471
0.00157711
0.001582
0.00158925
0.00159407
0.00158917
0.0015641
0.00150172
0.00137207
0.00111976
0.00065449
0.00065487
0.00112357
0.00137963
0.00151294
0.00157891
0.00160736
0.00161439
0.00160761
0.00159059
0.00156755
0.00154673
0.00153711
0.00153404
0.0015343
0.00153531
0.00153496
0.00153426
0.00153386
0.00153387
0.00153428
0.001535
0.00153536
0.00153435
0.00153405
0.00153697
0.00154605
0.0015652
0.00158361
0.00158906
0.00156973
0.00150911
0.00137843
0.00112342
0.000655004
0.000655024
0.00112484
0.0013821
0.00151614
0.00158179
0.00160785
0.00160864
0.00158908
0.00155002
0.00149668
0.00144958
0.00144064
0.00144379
0.00144916
0.0014532
0.0014531
0.00145211
0.00145154
0.00145155
0.00145213
0.00145314
0.00145326
0.00144922
0.00144383
0.00144055
0.00144897
0.00149442
0.00154305
0.00157032
0.00156337
0.00150841
0.00137948
0.0011243
0.000655135
0.000655061
0.0011252
0.00138277
0.00151672
0.00158114
0.00160334
0.00159456
0.0015541
0.00147411
0.00135321
0.0012388
0.00126579
0.00130144
0.00132277
0.00133338
0.00133492
0.00133445
0.00133409
0.0013341
0.00133448
0.00133497
0.00133345
0.00132285
0.00130152
0.00126579
0.00123834
0.00135118
0.00146732
0.00153539
0.00154915
0.0015035
0.00137818
0.0011241
0.000655127
0.000655061
0.00112527
0.00138285
0.00151646
0.00157948
0.00159756
0.00157797
0.00151064
0.0013651
0.00109304
0.000780634
0.000985222
0.00112386
0.00117879
0.00119816
0.00120374
0.00120505
0.00120529
0.0012053
0.00120508
0.00120378
0.00119823
0.00117888
0.00112399
0.000985372
0.000780465
0.00109144
0.00135857
0.00149204
0.00153254
0.00149758
0.0013763
0.0011236
0.000655067
0.000655053
0.00112526
0.00138286
0.00151633
0.00157869
0.00159464
0.00156888
0.00148296
0.00127526
0.000795454
0.000728499
0.000988604
0.00107393
0.0010989
0.00110611
0.00110789
0.00110824
0.00110825
0.0011079
0.00110614
0.00109894
0.001074
0.000988739
0.000728594
0.000794685
0.00126898
0.00146439
0.0015234
0.00149456
0.00137535
0.00112331
0.000655029
0.00065504
0.00112527
0.00138299
0.00151673
0.00157973
0.00159738
0.00157657
0.00150658
0.00135638
0.00107772
0.000767495
0.000933978
0.00105825
0.00110587
0.00112028
0.00112569
0.00112676
0.0011268
0.00112679
0.00112675
0.00112568
0.00112026
0.00110586
0.00105825
0.000933885
0.000767182
0.00107587
0.00134971
0.00148785
0.00153097
0.00149715
0.0013762
0.00112349
0.000655031
0.000655024
0.00112529
0.00138323
0.00151749
0.00158188
0.00160315
0.00159157
0.00154478
0.00145267
0.00131135
0.00116765
0.00114863
0.00114609
0.00114738
0.0011481
0.00114851
0.00114826
0.00114801
0.001148
0.00114824
0.00114848
0.00114805
0.00114731
0.00114596
0.00114835
0.00116691
0.0013091
0.00144573
0.00152588
0.00154581
0.00150274
0.00137814
0.00112399
0.000655051
0.000655004
0.00112531
0.00138347
0.00151828
0.00158408
0.00160881
0.00160517
0.00157538
0.00151637
0.00142901
0.00133152
0.00125805
0.00120205
0.00117652
0.00116736
0.0011643
0.00116316
0.00116275
0.00116274
0.00116314
0.00116426
0.00116729
0.00117642
0.00120189
0.00125776
0.0013307
0.0014266
0.00150924
0.0015563
0.00155923
0.00150818
0.0013801
0.0011245
0.000655062
0.000654981
0.00112533
0.00138366
0.00151889
0.00158572
0.00161282
0.00161422
0.00159395
0.00155043
0.00148252
0.0013963
0.00130654
0.00122998
0.00119212
0.00117772
0.00117284
0.00117121
0.00117067
0.00117066
0.00117117
0.00117279
0.00117764
0.001192
0.00122981
0.00130622
0.00139547
0.00148004
0.00154319
0.00157472
0.0015681
0.001512
0.00138152
0.00112488
0.000655053
0.000654955
0.00112533
0.00138378
0.00151928
0.00158672
0.00161516
0.00161919
0.00160348
0.00156643
0.00150524
0.0014216
0.00132633
0.00124187
0.00119901
0.00118234
0.00117664
0.00117474
0.0011741
0.00117408
0.0011747
0.00117658
0.00118225
0.00119889
0.00124169
0.00132596
0.00142076
0.00150272
0.00155912
0.00158414
0.00157295
0.00151419
0.00138236
0.00112509
0.000655028
0.000654928
0.00112532
0.00138384
0.00151949
0.00158724
0.00161632
0.00162155
0.00160774
0.00157314
0.00151411
0.00143093
0.00133365
0.00124631
0.00120162
0.00118408
0.00117805
0.00117602
0.00117529
0.00117526
0.00117596
0.00117798
0.001184
0.0012015
0.00124614
0.00133328
0.00143009
0.00151157
0.00156579
0.00158834
0.00157522
0.00151527
0.00138278
0.00112518
0.000654993
0.000654902
0.00112531
0.00138388
0.00151959
0.00158746
0.00161679
0.00162246
0.00160931
0.00157549
0.00151707
0.00143392
0.00133598
0.00124772
0.00120245
0.00118463
0.00117848
0.00117637
0.00117557
0.00117554
0.00117631
0.0011784
0.00118454
0.00120233
0.00124754
0.00133561
0.00143308
0.00151453
0.00156813
0.00158989
0.0015761
0.0015157
0.00138295
0.00112521
0.000654956
0.00065488
0.00112531
0.00138388
0.0015196
0.00158749
0.00161683
0.00162251
0.00160937
0.00157556
0.00151716
0.00143402
0.00133608
0.00124778
0.00120249
0.00118464
0.00117847
0.00117634
0.0011755
0.00117546
0.00117627
0.00117839
0.00118455
0.00120236
0.00124761
0.00133571
0.00143318
0.00151463
0.00156821
0.00158995
0.00157615
0.00151573
0.00138297
0.00112521
0.000654922
0.000654878
0.00112531
0.00138387
0.00151954
0.00158731
0.00161643
0.00162169
0.00160792
0.00157337
0.00151438
0.00143124
0.00133395
0.00124652
0.00120175
0.00118414
0.00117805
0.00117593
0.0011751
0.00117506
0.00117586
0.00117797
0.00118404
0.00120162
0.00124635
0.0013336
0.00143041
0.00151187
0.00156604
0.00158855
0.00157538
0.00151537
0.00138284
0.00112518
0.000654918
0.000654899
0.00112532
0.00138382
0.00151936
0.00158684
0.00161534
0.00161944
0.0016038
0.00156684
0.00150574
0.00142217
0.00132691
0.00124226
0.00119926
0.00118246
0.00117666
0.00117464
0.00117387
0.00117383
0.00117457
0.00117658
0.00118237
0.00119914
0.0012421
0.00132658
0.00142139
0.00150328
0.00155958
0.0015845
0.00157321
0.00151437
0.00138246
0.00112509
0.000654947
0.000654925
0.00112532
0.00138372
0.00151901
0.0015859
0.00161307
0.00161457
0.00159443
0.00155106
0.00148332
0.00139725
0.0013075
0.00123062
0.00119254
0.00117796
0.00117293
0.00117115
0.00117049
0.00117046
0.00117109
0.00117286
0.00117788
0.00119244
0.00123049
0.00130723
0.00139653
0.00148094
0.0015439
0.00157525
0.00156848
0.00151226
0.00138167
0.0011249
0.000654973
0.000654949
0.00112531
0.00138354
0.00151843
0.00158431
0.00160913
0.00160562
0.00157601
0.00151724
0.00143021
0.00133304
0.00125935
0.00120298
0.00117708
0.00116766
0.00116442
0.00116313
0.00116262
0.0011626
0.00116308
0.00116435
0.00116759
0.00117701
0.00120289
0.0012592
0.00133242
0.00142798
0.00151024
0.001557
0.00155971
0.00150851
0.00138029
0.00112454
0.000654985
0.000654971
0.00112529
0.00138331
0.00151764
0.00158212
0.0016035
0.00159207
0.00154551
0.00145377
0.001313
0.00116994
0.00115051
0.00114693
0.00114759
0.00114794
0.00114812
0.00114773
0.00114742
0.00114741
0.0011477
0.00114806
0.00114785
0.00114749
0.00114686
0.00115051
0.00116953
0.00131101
0.00144694
0.00152664
0.00154633
0.00150309
0.00137834
0.00112404
0.000654978
0.000654988
0.00112525
0.00138303
0.00151681
0.00157987
0.00159762
0.00157696
0.00150721
0.00135748
0.00107964
0.000768739
0.000934776
0.00105685
0.00110331
0.001117
0.00112206
0.00112298
0.00112296
0.00112294
0.00112292
0.00112193
0.00111672
0.00110285
0.00105634
0.000934761
0.000768503
0.00107807
0.0013507
0.00148832
0.00153127
0.00149738
0.00137636
0.00112352
0.000654958
0.000654993
0.00112515
0.00138268
0.00151607
0.00157839
0.00159436
0.00156861
0.00148269
0.00127504
0.00079535
0.000724373
0.000978061
0.00105957
0.00108203
0.00108828
0.00108975
0.00108999
0.00108994
0.00108956
0.00108778
0.00108087
0.00105729
0.000974713
0.000722284
0.000793831
0.00126755
0.00146327
0.00152277
0.00149427
0.00137524
0.00112324
0.00065495
0.000654965
0.0011248
0.0013819
0.00151507
0.00157778
0.00159566
0.00157589
0.0015082
0.00136202
0.00108926
0.000776758
0.000963803
0.00108869
0.00113019
0.00114092
0.00114395
0.0011448
0.00114497
0.00114487
0.00114437
0.00114262
0.00113735
0.0011223
0.00107516
0.000950808
0.000771593
0.00108179
0.00135115
0.00148725
0.00152965
0.00149586
0.00137533
0.00112315
0.000654949
0.000654827
0.00112357
0.00137951
0.00151204
0.00157543
0.00159691
0.00158742
0.00154559
0.00146256
0.00133525
0.0012082
0.00121015
0.00121513
0.00120383
0.00119526
0.00119176
0.00119064
0.0011903
0.00119014
0.0011899
0.0011893
0.00118802
0.00118585
0.00118111
0.00117469
0.00118096
0.00131536
0.00144564
0.00152221
0.00154079
0.001498
0.00137477
0.00112247
0.000654864
0.000654329
0.00111976
0.0013725
0.00150285
0.00156589
0.00159023
0.00158949
0.00156737
0.00152261
0.00145695
0.0013861
0.00133757
0.00128776
0.00123814
0.0012137
0.0012047
0.00120189
0.00120111
0.00120091
0.00120091
0.00120126
0.00120303
0.00120985
0.00123057
0.00127844
0.00134007
0.00142576
0.00150016
0.00154216
0.00154346
0.00149388
0.00136962
0.0011192
0.000654412
0.000652756
0.0011092
0.00135422
0.00147914
0.0015395
0.00156449
0.001569
0.00155885
0.00153479
0.00149676
0.00144762
0.00139212
0.00132801
0.00126701
0.00123692
0.00122566
0.0012221
0.00122112
0.0012209
0.00122102
0.00122183
0.001225
0.00123553
0.00126481
0.00132649
0.00139625
0.00146232
0.00151118
0.00153442
0.00152596
0.00147401
0.00135277
0.00110906
0.000652871
0.000648211
0.00108261
0.0013111
0.00142499
0.0014791
0.00150202
0.00150848
0.00150478
0.00149225
0.00146993
0.00143677
0.00139285
0.00134069
0.0012919
0.00126562
0.00125502
0.00125148
0.0012505
0.0012503
0.00125045
0.00125137
0.00125479
0.00126512
0.00129125
0.00134065
0.00139492
0.00144157
0.00147276
0.00148445
0.00147171
0.0014225
0.00131061
0.00108272
0.000648342
0.000636185
0.0010207
0.001217
0.00131126
0.00135446
0.00137249
0.00137837
0.00137771
0.0013719
0.00136013
0.00134092
0.00131363
0.00128074
0.00125023
0.00123255
0.00122485
0.00122214
0.00122134
0.00122118
0.00122133
0.0012221
0.00122476
0.00123239
0.00125007
0.00128082
0.00131435
0.00134207
0.00135933
0.00136378
0.0013512
0.00131044
0.00121707
0.00102094
0.000636314
0.000607757
0.000884212
0.00102082
0.00108286
0.0011096
0.00112021
0.00112379
0.0011241
0.00112215
0.00111752
0.00110924
0.0010968
0.00108143
0.00106695
0.00105812
0.00105406
0.00105255
0.00105208
0.00105198
0.00105208
0.00105256
0.00105406
0.0010581
0.00106694
0.00108148
0.00109701
0.00110939
0.00111653
0.00111729
0.0011088
0.00108291
0.0010211
0.000884455
0.000607868
0.000557066
0.000607798
0.00063631
0.000648431
0.000653074
0.000654751
0.000655343
0.000655522
0.000655441
0.000655041
0.00065423
0.000652814
0.000650886
0.000648937
0.000647706
0.000647097
0.000646821
0.000646681
0.000646629
0.000646689
0.000646829
0.0006471
0.000647698
0.000648918
0.000650858
0.000652787
0.000654186
0.000654881
0.000654776
0.000653289
0.000648679
0.000636517
0.000607936
0.000557141
0.000794384
0.000991624
0.00110317
0.00115484
0.0011768
0.00118538
0.00118844
0.00118943
0.0011897
0.00118971
0.00118966
0.00118959
0.00118953
0.00118949
0.00118947
0.00118945
0.00118943
0.00118942
0.00118942
0.00118942
0.00118944
0.00118946
0.00118948
0.00118952
0.00118955
0.00118953
0.0011893
0.00118836
0.00118533
0.00117678
0.00115485
0.00110318
0.000991642
0.000794405
0.000991629
0.00184663
0.00220219
0.00237332
0.00245256
0.00248661
0.00249994
0.00250454
0.00250572
0.00250566
0.0025052
0.00250471
0.00250432
0.00250407
0.00250391
0.0025038
0.00250373
0.00250369
0.00250369
0.00250373
0.0025038
0.00250391
0.00250406
0.00250428
0.00250453
0.00250456
0.00250352
0.00249919
0.00248614
0.00245229
0.00237319
0.00220213
0.0018466
0.000991651
0.00110321
0.0022023
0.002671
0.00290758
0.00302306
0.00307549
0.00309708
0.00310468
0.00310635
0.00310567
0.00310428
0.00310297
0.00310205
0.00310152
0.00310126
0.00310109
0.00310097
0.00310091
0.00310091
0.00310098
0.0031011
0.00310127
0.00310152
0.00310197
0.00310262
0.00310303
0.0031017
0.00309485
0.00307409
0.00302232
0.00290727
0.00267091
0.00220231
0.00110327
0.00115493
0.00237351
0.00290768
0.00318618
0.0033268
0.0033927
0.00342024
0.00342925
0.0034297
0.0034265
0.00342236
0.00341886
0.00341656
0.00341536
0.0034148
0.00341445
0.00341418
0.00341404
0.00341404
0.00341419
0.00341447
0.00341482
0.00341535
0.00341643
0.00341833
0.00342052
0.00342084
0.00341386
0.00338864
0.00332463
0.00318522
0.00290737
0.0023735
0.00115501
0.00117692
0.0024528
0.00302324
0.0033269
0.00348331
0.00355747
0.0035875
0.00359462
0.00358994
0.00357979
0.00356885
0.00356038
0.00355519
0.00355272
0.0035517
0.00355095
0.00355032
0.00354997
0.00354997
0.00355033
0.00355098
0.00355173
0.00355272
0.00355503
0.00355971
0.00356655
0.00357285
0.00357088
0.00354682
0.0034775
0.00332422
0.00302225
0.00245259
0.001177
0.00118552
0.00248688
0.00307573
0.00339291
0.00355764
0.00363488
0.00366268
0.00366203
0.00364433
0.00361798
0.00359209
0.00357417
0.0035643
0.00356036
0.00355909
0.00355772
0.00355639
0.00355564
0.00355565
0.00355641
0.00355776
0.00355913
0.00356036
0.00356414
0.00357343
0.00358953
0.00361025
0.00362325
0.00360972
0.00354389
0.00338645
0.00307319
0.00248615
0.00118554
0.0011886
0.00250023
0.00309741
0.00342068
0.00358816
0.00366345
0.00368268
0.0036645
0.00361907
0.0035582
0.00350201
0.00347007
0.00345616
0.0034528
0.00345297
0.00345105
0.00344869
0.00344736
0.00344737
0.00344872
0.0034511
0.00345303
0.00345282
0.00345603
0.00346936
0.00349939
0.00355014
0.00359697
0.00360976
0.00355915
0.00340702
0.00309187
0.00249845
0.00118846
0.00118959
0.00250486
0.0031052
0.00343026
0.00359655
0.00366513
0.00366791
0.00361757
0.00351888
0.00338713
0.00326996
0.00322906
0.00322376
0.00323008
0.00323657
0.00323522
0.00323209
0.0032303
0.0032303
0.00323212
0.00323527
0.00323664
0.00323013
0.00322368
0.00322846
0.0032675
0.0033791
0.0034964
0.00356169
0.00354207
0.00340488
0.00309483
0.00250136
0.00118917
0.00118986
0.00250615
0.0031073
0.00343192
0.00359468
0.00365296
0.00363168
0.00353135
0.00333907
0.00305913
0.00279827
0.00280729
0.00286445
0.00290501
0.00292613
0.00292949
0.00292789
0.0029266
0.00292661
0.00292792
0.00292954
0.0029262
0.00290509
0.00286448
0.00280693
0.00279618
0.00305141
0.0033165
0.00347488
0.00350465
0.00339088
0.00309058
0.00250035
0.00118903
0.00118989
0.00250629
0.00310741
0.00343095
0.0035898
0.00363743
0.00359009
0.00342886
0.00309565
0.00248726
0.0015872
0.0021345
0.00242118
0.00253804
0.00257853
0.00259489
0.00259887
0.00259939
0.0025994
0.0025989
0.00259494
0.00257862
0.00253817
0.00242135
0.00213461
0.00158605
0.00248011
0.00307296
0.00337184
0.00346225
0.00337433
0.00308454
0.00249825
0.00118865
0.00118986
0.00250617
0.00310724
0.00343023
0.00358712
0.00362924
0.00356742
0.00336711
0.00291162
0.00165325
0.00136122
0.00206731
0.00225514
0.00231426
0.00233108
0.00233499
0.00233565
0.00233565
0.002335
0.00233111
0.00231432
0.00225525
0.00206753
0.00136137
0.00164825
0.00288872
0.00330961
0.00343904
0.00336555
0.00308123
0.00249693
0.0011884
0.00118984
0.0025061
0.00310744
0.003431
0.00358924
0.00363486
0.00358289
0.00341264
0.00306393
0.00243046
0.00152131
0.00197338
0.00223885
0.00234701
0.00238895
0.00239384
0.00239308
0.00239238
0.00239237
0.00239306
0.0023938
0.00238891
0.00234696
0.00223877
0.00197307
0.00151984
0.00242292
0.00304095
0.00335528
0.00345452
0.00337101
0.00308303
0.00249728
0.00118847
0.00118982
0.00250615
0.00310801
0.00343293
0.00359461
0.00364876
0.00361748
0.00349681
0.00326755
0.00292538
0.00257122
0.00246381
0.00242397
0.00241599
0.00241693
0.002415
0.00241317
0.00241229
0.00241228
0.00241314
0.00241495
0.00241685
0.00241585
0.00242368
0.00246307
0.00256882
0.00291736
0.0032446
0.00343967
0.00348928
0.00338493
0.00308823
0.00249888
0.00118876
0.0011898
0.00250623
0.00310868
0.00343509
0.00360043
0.00366312
0.00365054
0.00356812
0.00341053
0.00318181
0.00292458
0.00271539
0.00255285
0.00247669
0.0024498
0.00244083
0.00243778
0.00243683
0.00243682
0.00243776
0.00244078
0.00244972
0.00247652
0.00255251
0.00271456
0.00292198
0.00317357
0.00338751
0.00351099
0.00352237
0.00339922
0.00309385
0.0025007
0.00118906
0.00118978
0.00250631
0.00310923
0.00343682
0.00360495
0.00367379
0.00367359
0.00361361
0.00349129
0.00330583
0.00307387
0.00283309
0.00262259
0.00251461
0.00247341
0.00246003
0.00245608
0.00245505
0.00245505
0.00245607
0.00245999
0.00247333
0.00251444
0.00262226
0.00283228
0.0030712
0.00329746
0.00346814
0.00355637
0.0035453
0.00340971
0.00309812
0.0025021
0.00118926
0.00118975
0.00250635
0.00310959
0.00343793
0.00360778
0.00368022
0.00368682
0.00363803
0.00353116
0.00336149
0.003136
0.0028833
0.00265426
0.00253299
0.00248548
0.00246999
0.00246557
0.00246449
0.00246449
0.00246556
0.00246996
0.00248541
0.00253283
0.00265393
0.00288251
0.0031333
0.00335304
0.00350788
0.00358065
0.00355836
0.00341596
0.00310073
0.00250296
0.00118936
0.00118972
0.00250637
0.00310978
0.00343853
0.00360928
0.00368351
0.0036933
0.0036494
0.00354862
0.00338431
0.00316013
0.00290271
0.00266674
0.00254041
0.00249045
0.0024741
0.00246947
0.00246836
0.00246836
0.00246946
0.00247407
0.00249037
0.00254025
0.00266641
0.00290192
0.00315741
0.00337581
0.00352527
0.00359191
0.00356471
0.00341909
0.00310206
0.00250338
0.00118939
0.0011897
0.00250637
0.00310986
0.00343879
0.00360991
0.00368485
0.00369584
0.00365368
0.00355492
0.00339217
0.00316812
0.00290904
0.00267081
0.00254284
0.00249207
0.00247544
0.00247073
0.0024696
0.0024696
0.00247071
0.00247541
0.002492
0.00254268
0.00267049
0.00290825
0.00316539
0.00338365
0.00353153
0.00359614
0.00356718
0.00342035
0.0031026
0.00250355
0.00118938
0.00118969
0.00250636
0.00310987
0.00343881
0.00360994
0.00368489
0.0036959
0.00365376
0.00355502
0.00339228
0.00316823
0.00290916
0.00267093
0.00254292
0.00249211
0.00247546
0.00247074
0.00246961
0.00246961
0.00247073
0.00247543
0.00249204
0.00254276
0.00267061
0.00290837
0.00316551
0.00338377
0.00353164
0.00359622
0.00356724
0.00342039
0.00310261
0.00250355
0.00118937
0.00118969
0.00250636
0.0031098
0.00343859
0.00360937
0.00368365
0.00369349
0.00364964
0.00354892
0.00338466
0.00316051
0.00290309
0.00266712
0.00254067
0.00249061
0.00247421
0.00246956
0.00246843
0.00246843
0.00246954
0.00247418
0.00249054
0.00254052
0.00266681
0.00290232
0.00315782
0.00337619
0.0035256
0.00359217
0.0035649
0.00341922
0.00310212
0.00250339
0.00118934
0.0011897
0.00250634
0.00310963
0.00343802
0.00360794
0.00368045
0.00368714
0.00363845
0.0035317
0.00336215
0.00313674
0.00288406
0.00265502
0.00253354
0.00248587
0.0024703
0.00246585
0.00246476
0.00246475
0.00246584
0.00247029
0.00248582
0.00253342
0.00265474
0.00288332
0.00313411
0.00335377
0.00350848
0.00358111
0.00355868
0.00341616
0.00310083
0.00250297
0.0011893
0.00118973
0.0025063
0.00310928
0.00343695
0.00360516
0.00367411
0.00367405
0.00361424
0.00349214
0.00330693
0.00307518
0.00283442
0.0026239
0.00251559
0.00247416
0.00246069
0.00245673
0.0024557
0.0024557
0.00245674
0.0024607
0.00247415
0.00251551
0.00262368
0.00283377
0.00307265
0.00329869
0.00346907
0.00355704
0.00354576
0.00341
0.00309827
0.00250212
0.00118919
0.00118974
0.00250621
0.00310874
0.00343523
0.00360067
0.0036635
0.0036511
0.00356893
0.00341173
0.00318351
0.00292679
0.00271775
0.00255476
0.00247801
0.0024508
0.00244174
0.0024387
0.00243776
0.00243777
0.00243873
0.00244178
0.00245083
0.00247799
0.00255463
0.00271723
0.00292447
0.00317547
0.00338879
0.00351181
0.00352289
0.00339954
0.00309401
0.00250071
0.00118898
0.00118976
0.00250608
0.003108
0.00343298
0.00359475
0.00364903
0.00361795
0.00349761
0.00326893
0.00292774
0.00257465
0.00246704
0.00242542
0.00241619
0.00241652
0.00241442
0.00241261
0.00241178
0.00241179
0.00241265
0.00241446
0.0024165
0.00241604
0.0024252
0.00246671
0.00257269
0.00291995
0.00324588
0.00344025
0.00348958
0.0033851
0.0030883
0.00249884
0.00118867
0.00118975
0.0025059
0.00310716
0.00343066
0.00358888
0.00363454
0.00358268
0.00341269
0.00306466
0.00243295
0.001524
0.00197399
0.00223395
0.00233893
0.00237907
0.00238333
0.00238249
0.00238184
0.00238184
0.00238247
0.00238315
0.00237846
0.00233762
0.00223219
0.00197331
0.00152273
0.00242532
0.00304061
0.00335433
0.00345373
0.0033705
0.00308271
0.00249704
0.00118835
0.00118969
0.00250549
0.00310606
0.00342858
0.0035851
0.00362694
0.00356484
0.00336416
0.00290839
0.00165053
0.00134413
0.00203236
0.00220925
0.00226105
0.00227555
0.00227908
0.00227973
0.00227964
0.00227867
0.00227427
0.0022577
0.00220219
0.00202125
0.00133552
0.00164163
0.00288071
0.00330344
0.00343494
0.00336299
0.00307971
0.00249608
0.00118818
0.00118943
0.0025041
0.00310351
0.00342546
0.00358303
0.00362959
0.00358102
0.00341774
0.0030809
0.00246648
0.00155977
0.00205554
0.00230743
0.00238928
0.00240687
0.00241725
0.00242079
0.00242156
0.00242132
0.00241965
0.00241359
0.0023968
0.00236626
0.00226702
0.0020107
0.00153453
0.00243667
0.00304336
0.00335269
0.00345006
0.00336657
0.00307977
0.00249568
0.00118811
0.00118847
0.00249954
0.00309585
0.00341622
0.00357564
0.00363121
0.00360688
0.00350121
0.003298
0.0029956
0.00269117
0.00263154
0.00260716
0.00256342
0.00253431
0.00252451
0.00252173
0.00252092
0.00252048
0.00251963
0.00251739
0.00251349
0.00251262
0.00251337
0.00252902
0.00260672
0.00293373
0.00324462
0.00342993
0.00347527
0.00337104
0.0030776
0.00249314
0.00118754
0.00118544
0.00248637
0.00307464
0.00338974
0.0035486
0.00361162
0.00360882
0.00354938
0.00343216
0.00326293
0.00307709
0.00292981
0.00278659
0.00265017
0.00257997
0.00255381
0.00254566
0.00254339
0.00254281
0.00254277
0.00254372
0.00254908
0.00257048
0.0026333
0.00277167
0.00295022
0.003174
0.00336501
0.00347371
0.00347928
0.00335858
0.00306219
0.00248208
0.0011849
0.00117689
0.00245247
0.00302266
0.00332514
0.00347797
0.00354328
0.00355413
0.00352431
0.00345649
0.00335146
0.0032163
0.00306239
0.00289036
0.00272748
0.00264255
0.00260968
0.00259899
0.00259594
0.00259527
0.00259569
0.00259823
0.00260789
0.00263915
0.00272291
0.00289016
0.00307817
0.00325509
0.00338664
0.00345102
0.00343265
0.00330527
0.00301495
0.00244989
0.00117664
0.00115494
0.00237332
0.0029075
0.00318551
0.0033243
0.00338536
0.00340198
0.00338919
0.00335061
0.00328451
0.00318904
0.00306577
0.00292361
0.00279275
0.00271937
0.00268855
0.00267774
0.00267442
0.0026737
0.00267436
0.00267752
0.00268802
0.00271848
0.00279199
0.00292528
0.00307353
0.00320276
0.00329121
0.00332677
0.00329664
0.00317389
0.0029032
0.00237192
0.00115487
0.00110325
0.00220221
0.00267107
0.00290758
0.00302234
0.00307251
0.00308861
0.00308459
0.00306415
0.0030255
0.00296534
0.00288328
0.00278754
0.00270023
0.00264812
0.00262454
0.00261568
0.00261281
0.00261218
0.00261283
0.00261569
0.00262451
0.00264804
0.00270038
0.00278872
0.00288645
0.0029692
0.00302273
0.00303916
0.00300736
0.00290165
0.00266901
0.00220155
0.00110328
0.000991687
0.00184662
0.00220239
0.00237364
0.00245273
0.002486
0.00249713
0.00249666
0.00248751
0.00246854
0.00243725
0.00239285
0.00234018
0.00229182
0.0022618
0.00224755
0.00224195
0.00224006
0.00223965
0.00224012
0.00224207
0.00224771
0.00226199
0.00229216
0.0023409
0.00239414
0.00243814
0.00246516
0.00247066
0.00244629
0.00237131
0.00220166
0.00184637
0.000991747
0.000794439
0.000991686
0.00110333
0.00115513
0.00117717
0.00118573
0.00118855
0.00118876
0.00118719
0.00118351
0.00117698
0.00116711
0.00115487
0.00114336
0.00113626
0.00113294
0.00113163
0.00113118
0.00113108
0.0011312
0.00113166
0.00113297
0.00113629
0.0011434
0.00115496
0.00116729
0.00117707
0.0011827
0.00118327
0.00117636
0.00115498
0.00110338
0.000991742
0.000794514
0.0008644
0.00115625
0.00132512
0.0014069
0.00144365
0.00145889
0.00146466
0.0014666
0.00146711
0.00146711
0.00146695
0.00146676
0.00146661
0.00146651
0.00146644
0.0014664
0.00146637
0.00146635
0.00146635
0.00146636
0.0014664
0.00146644
0.0014665
0.00146658
0.00146668
0.00146668
0.00146623
0.00146439
0.00145872
0.00144356
0.00140686
0.0013251
0.00115625
0.000864421
0.00115625
0.00227615
0.00274279
0.00297624
0.00308935
0.00314035
0.0031613
0.00316883
0.0031708
0.00317061
0.0031697
0.00316871
0.00316791
0.00316737
0.00316703
0.0031668
0.00316665
0.00316657
0.00316657
0.00316665
0.0031668
0.00316702
0.00316734
0.0031678
0.00316833
0.00316846
0.00316678
0.00315974
0.0031393
0.00308871
0.00297587
0.00274257
0.00227603
0.00115624
0.00132517
0.00274293
0.00334226
0.00365443
0.003813
0.00388809
0.00392032
0.00393204
0.00393457
0.00393327
0.0039307
0.0039282
0.00392633
0.00392518
0.00392454
0.00392414
0.00392388
0.00392374
0.00392374
0.00392388
0.00392415
0.00392454
0.00392514
0.00392613
0.0039275
0.00392845
0.00392655
0.00391613
0.00388534
0.00381143
0.00365364
0.00334191
0.0027428
0.00132518
0.001407
0.00297648
0.00365456
0.0040177
0.0042078
0.00430034
0.00434043
0.00435385
0.00435432
0.00434897
0.00434192
0.00433563
0.00433121
0.00432869
0.00432739
0.00432657
0.00432601
0.00432571
0.00432572
0.00432602
0.00432658
0.00432739
0.00432863
0.00433093
0.00433462
0.0043387
0.00433965
0.00432952
0.00429316
0.00420371
0.00401569
0.00365372
0.00297622
0.00140702
0.00144379
0.00308967
0.00381324
0.00420794
0.0044182
0.00452141
0.00456452
0.00457488
0.00456763
0.00455183
0.00453422
0.00451965
0.00450996
0.00450485
0.00450245
0.00450079
0.00449957
0.00449892
0.00449892
0.00449958
0.00450081
0.00450245
0.00450478
0.00450962
0.00451839
0.00453025
0.00454049
0.00453802
0.00450395
0.00440823
0.00420299
0.00381114
0.00308896
0.00144376
0.00145906
0.00314073
0.00388845
0.00430069
0.00452173
0.00462872
0.00466827
0.00466736
0.00464154
0.00460256
0.00456269
0.00453223
0.0045134
0.00450457
0.00450102
0.00449799
0.0044955
0.00449418
0.00449418
0.00449552
0.00449802
0.00450104
0.00450451
0.00451303
0.00453084
0.00455826
0.00458992
0.00460879
0.00458978
0.00449957
0.00428962
0.00388364
0.00313901
0.00145885
0.00146485
0.00316174
0.00392087
0.00434124
0.00456574
0.00466964
0.00469698
0.00467177
0.00460815
0.00452202
0.0044386
0.00438246
0.00435181
0.00434032
0.00433739
0.00433254
0.004328
0.00432563
0.00432563
0.00432802
0.00433257
0.00433742
0.00434028
0.00435147
0.00438108
0.00443403
0.00450875
0.00457362
0.00459033
0.00452117
0.00431906
0.00391112
0.00315811
0.00146427
0.00146682
0.00316939
0.00393302
0.00435575
0.00457836
0.00467273
0.00467752
0.00460943
0.00447623
0.00429788
0.00413067
0.00404608
0.00401256
0.00400732
0.00401094
0.00400486
0.00399814
0.00399474
0.00399475
0.00399816
0.0040049
0.00401098
0.00400731
0.00401231
0.00404486
0.00412626
0.00428446
0.00444079
0.00452583
0.00449782
0.00431617
0.0039156
0.00316276
0.0014656
0.00146737
0.00317162
0.00393642
0.00435843
0.00457596
0.00465613
0.00462896
0.00449659
0.00424608
0.00388366
0.00352829
0.00347104
0.00349498
0.00352416
0.00354229
0.00354257
0.00353784
0.00353507
0.00353507
0.00353786
0.00354261
0.00354235
0.0035242
0.00349487
0.00347018
0.00352437
0.00387038
0.00421002
0.00441152
0.0044469
0.00429635
0.00390925
0.00316113
0.00146528
0.00146744
0.00317192
0.00393664
0.00435702
0.004569
0.00463476
0.00457385
0.00436569
0.00394431
0.00318056
0.00198345
0.00256664
0.00287559
0.0029908
0.00300806
0.00304746
0.00305673
0.00305767
0.00305768
0.00305675
0.00304751
0.00300812
0.00299091
0.00287572
0.00256655
0.00198104
0.00316768
0.00390742
0.00427919
0.00439004
0.00427301
0.0039002
0.00315772
0.0014645
0.00146739
0.00317174
0.00393635
0.00435584
0.00456494
0.00462309
0.00454338
0.00428729
0.00371798
0.00210985
0.00153005
0.00226183
0.00245419
0.00251774