/*--------------------------------*- C++ -*----------------------------------*\
| =========                 |                                                 |
| \\      /  F ield         | OpenFOAM: The Open Source CFD Toolbox           |
|  \\    /   O peration     | Version:  2112                                  |
|   \\  /    A nd           | Website:  www.openfoam.com                      |
|    \\/     M anipulation  |                                                 |
\*---------------------------------------------------------------------------*/
FoamFile
{
    version     2.0;
    format      ascii;
    arch        "LSB;label=32;scalar=64";
    class       volScalarField;
    location    "2.6";
    object      nut;
}
// * * * * * * * * * * * * * * * * * * * * * * * * * * * * * * * * * * * * * //

dimensions      [0 2 -1 0 0 0 0];

internalField   nonuniform List<scalar> 
64906
(
5.81829e-05
6.08896e-05
6.23825e-05
6.30195e-05
6.3266e-05
6.33544e-05
6.3384e-05
6.33933e-05
6.33961e-05
6.33969e-05
6.33971e-05
6.33971e-05
6.33969e-05
6.33965e-05
6.33961e-05
6.33955e-05
6.33949e-05
6.33943e-05
6.33939e-05
6.33943e-05
6.33949e-05
6.33954e-05
6.33959e-05
6.33961e-05
6.33962e-05
6.33956e-05
6.3393e-05
6.3384e-05
6.33548e-05
6.32667e-05
6.30204e-05
6.23838e-05
6.08909e-05
5.81841e-05
6.08908e-05
7.36923e-05
7.93387e-05
8.18277e-05
8.29059e-05
8.33457e-05
8.35112e-05
8.35676e-05
8.35837e-05
8.35857e-05
8.35836e-05
8.3581e-05
8.35794e-05
8.35789e-05
8.3579e-05
8.35791e-05
8.35791e-05
8.35791e-05
8.35791e-05
8.35791e-05
8.35791e-05
8.35791e-05
8.3579e-05
8.35792e-05
8.35794e-05
8.35769e-05
8.35623e-05
8.35085e-05
8.33455e-05
8.29076e-05
8.18305e-05
7.9342e-05
7.36955e-05
6.08934e-05
6.23859e-05
7.93408e-05
8.68147e-05
9.02513e-05
9.18271e-05
9.25114e-05
9.27843e-05
9.28797e-05
9.29031e-05
9.28994e-05
9.28881e-05
9.28781e-05
9.28725e-05
9.28708e-05
9.28713e-05
9.2872e-05
9.28724e-05
9.28725e-05
9.28726e-05
9.28726e-05
9.28724e-05
9.28718e-05
9.28713e-05
9.28723e-05
9.2875e-05
9.28748e-05
9.28545e-05
9.2767e-05
9.25028e-05
9.18254e-05
9.02539e-05
8.68194e-05
7.9346e-05
6.23901e-05
6.30245e-05
8.18317e-05
9.02534e-05
9.4248e-05
9.61469e-05
9.70014e-05
9.73491e-05
9.7463e-05
9.7473e-05
9.74404e-05
9.7398e-05
9.73646e-05
9.7345e-05
9.73377e-05
9.73366e-05
9.73363e-05
9.73356e-05
9.73351e-05
9.73353e-05
9.7336e-05
9.73369e-05
9.73374e-05
9.73383e-05
9.73445e-05
9.73596e-05
9.73783e-05
9.7376e-05
9.72852e-05
9.69638e-05
9.61304e-05
9.42448e-05
9.0257e-05
8.18378e-05
6.303e-05
6.32719e-05
8.2911e-05
9.18307e-05
9.61486e-05
9.82454e-05
9.92026e-05
9.9582e-05
9.96738e-05
9.96218e-05
9.95048e-05
9.93805e-05
9.92903e-05
9.92394e-05
9.92205e-05
9.92166e-05
9.92129e-05
9.92085e-05
9.92059e-05
9.92061e-05
9.9209e-05
9.92137e-05
9.92176e-05
9.92213e-05
9.92388e-05
9.9284e-05
9.93558e-05
9.94257e-05
9.93962e-05
9.90884e-05
9.8188e-05
9.61271e-05
9.18281e-05
8.29163e-05
6.32783e-05
6.33607e-05
8.33514e-05
9.25159e-05
9.70044e-05
9.92047e-05
0.000100201
0.000100553
0.000100549
0.000100333
0.000100009
9.96958e-05
9.94942e-05
9.93925e-05
9.93619e-05
9.93599e-05
9.93502e-05
9.93376e-05
9.93304e-05
9.93306e-05
9.93383e-05
9.93512e-05
9.93612e-05
9.93629e-05
9.9392e-05
9.94874e-05
9.96683e-05
9.99214e-05
0.000100084
9.99101e-05
9.90536e-05
9.69401e-05
9.2497e-05
8.33522e-05
6.33676e-05
6.33903e-05
8.3517e-05
9.27895e-05
9.73544e-05
9.9589e-05
0.000100561
0.000100806
0.000100578
9.99981e-05
9.92118e-05
9.84904e-05
9.81307e-05
9.79965e-05
9.79879e-05
9.80139e-05
9.79984e-05
9.79726e-05
9.7958e-05
9.79583e-05
9.79734e-05
9.79996e-05
9.80154e-05
9.79893e-05
9.79964e-05
9.81243e-05
9.84625e-05
9.91204e-05
9.97376e-05
9.9911e-05
9.9251e-05
9.72049e-05
9.27371e-05
8.35075e-05
6.33969e-05
6.33994e-05
8.35732e-05
9.28862e-05
9.74735e-05
9.9694e-05
0.000100582
0.000100616
9.99606e-05
9.86474e-05
9.68426e-05
9.52146e-05
9.48377e-05
9.48879e-05
9.50438e-05
9.51722e-05
9.51639e-05
9.51269e-05
9.51062e-05
9.51065e-05
9.51278e-05
9.51654e-05
9.51742e-05
9.50459e-05
9.48888e-05
9.4833e-05
9.51886e-05
9.67521e-05
9.83831e-05
9.9281e-05
9.90338e-05
9.71809e-05
9.27774e-05
8.35456e-05
6.34044e-05
6.34016e-05
8.35895e-05
9.29131e-05
9.74958e-05
9.96727e-05
0.00010043
0.000100145
9.87966e-05
9.61083e-05
9.19488e-05
8.78441e-05
8.86853e-05
8.98664e-05
9.05864e-05
9.0953e-05
9.10025e-05
9.09832e-05
9.09691e-05
9.09694e-05
9.09842e-05
9.10042e-05
9.09554e-05
9.05893e-05
8.9869e-05
8.86842e-05
8.78229e-05
9.18629e-05
9.58436e-05
9.81101e-05
9.85481e-05
9.70065e-05
9.2728e-05
8.35367e-05
6.34038e-05
6.34015e-05
8.35925e-05
9.29164e-05
9.74867e-05
9.96151e-05
0.000100234
9.95919e-05
9.73519e-05
9.23977e-05
8.24764e-05
6.94589e-05
7.79902e-05
8.32906e-05
8.5314e-05
8.60273e-05
8.62317e-05
8.62799e-05
8.62886e-05
8.62889e-05
8.62809e-05
8.62334e-05
8.60299e-05
8.53177e-05
8.32958e-05
7.79962e-05
6.94492e-05
8.24012e-05
9.21327e-05
9.66585e-05
9.79846e-05
9.67975e-05
9.26564e-05
8.35147e-05
6.34001e-05
6.3401e-05
8.35924e-05
9.29168e-05
9.74815e-05
9.95868e-05
0.000100134
9.92882e-05
9.64272e-05
8.9252e-05
7.01792e-05
6.6894e-05
7.79476e-05
8.12671e-05
8.2223e-05
8.25048e-05
8.25763e-05
8.25909e-05
8.2591e-05
8.25768e-05
8.25058e-05
8.22248e-05
8.12703e-05
7.79533e-05
6.68987e-05
7.01365e-05
8.89883e-05
9.57282e-05
9.76739e-05
9.66903e-05
9.26201e-05
8.35022e-05
6.33976e-05
6.34003e-05
8.35926e-05
9.29218e-05
9.74955e-05
9.96214e-05
0.000100223
9.95338e-05
9.71922e-05
9.2051e-05
8.18137e-05
6.87887e-05
7.5717e-05
8.05724e-05
8.23663e-05
8.28993e-05
8.31164e-05
8.31632e-05
8.31663e-05
8.31662e-05
8.31629e-05
8.3116e-05
8.28987e-05
8.23659e-05
8.0572e-05
7.57126e-05
6.8772e-05
8.1728e-05
9.17799e-05
9.64933e-05
9.79195e-05
9.6777e-05
9.26505e-05
8.35096e-05
6.33978e-05
6.33995e-05
8.35938e-05
9.29309e-05
9.75232e-05
9.96957e-05
0.000100415
0.000100024
9.84404e-05
9.52957e-05
9.0327e-05
8.49997e-05
8.4082e-05
8.38566e-05
8.38526e-05
8.38605e-05
8.38773e-05
8.38698e-05
8.38612e-05
8.38609e-05
8.38691e-05
8.38761e-05
8.38586e-05
8.38496e-05
8.38513e-05
8.40704e-05
8.49673e-05
9.02324e-05
9.5024e-05
9.77447e-05
9.84127e-05
9.69704e-05
9.27227e-05
8.35312e-05
6.33991e-05
6.33986e-05
8.35951e-05
9.29405e-05
9.75525e-05
9.97732e-05
0.000100607
0.000100475
9.94459e-05
9.74083e-05
9.43538e-05
9.08452e-05
8.80742e-05
8.59175e-05
8.49129e-05
8.4547e-05
8.44262e-05
8.43821e-05
8.43662e-05
8.43659e-05
8.43811e-05
8.44245e-05
8.45444e-05
8.49088e-05
8.59109e-05
8.80622e-05
9.08113e-05
9.42567e-05
9.71358e-05
9.87511e-05
9.8865e-05
9.71622e-05
9.27973e-05
8.35541e-05
6.34e-05
6.33974e-05
8.3596e-05
9.29482e-05
9.75754e-05
9.98321e-05
0.000100746
0.000100781
0.000100064
9.85391e-05
9.61551e-05
9.30848e-05
8.98095e-05
8.69463e-05
8.54903e-05
8.49267e-05
8.47343e-05
8.46698e-05
8.46488e-05
8.46483e-05
8.46685e-05
8.47323e-05
8.49237e-05
8.54858e-05
8.69395e-05
8.9797e-05
9.30507e-05
9.60567e-05
9.82653e-05
9.93678e-05
9.91695e-05
9.72995e-05
9.28526e-05
8.3571e-05
6.34e-05
6.3396e-05
8.35962e-05
9.29531e-05
9.75902e-05
9.98687e-05
0.000100829
0.000100952
0.000100386
9.90776e-05
9.69252e-05
9.39623e-05
9.05216e-05
8.73899e-05
8.57508e-05
8.51004e-05
8.48757e-05
8.48005e-05
8.47754e-05
8.47747e-05
8.47988e-05
8.48733e-05
8.50972e-05
8.57462e-05
8.7383e-05
9.05067e-05
9.3928e-05
9.6826e-05
9.88025e-05
9.9689e-05
9.93395e-05
9.73799e-05
9.28858e-05
8.35808e-05
6.33989e-05
6.33946e-05
8.35961e-05
9.29559e-05
9.75983e-05
9.98881e-05
0.000100871
0.000101036
0.000100534
9.93078e-05
9.72313e-05
9.42913e-05
9.07897e-05
8.7559e-05
8.58518e-05
8.51678e-05
8.49298e-05
8.48491e-05
8.48205e-05
8.48196e-05
8.48471e-05
8.49271e-05
8.51644e-05
8.58471e-05
8.7552e-05
9.07749e-05
9.42569e-05
9.71317e-05
9.90319e-05
9.98353e-05
9.94211e-05
9.742e-05
9.29028e-05
8.35853e-05
6.33972e-05
6.33933e-05
8.35958e-05
9.29572e-05
9.76021e-05
9.98965e-05
0.000100889
0.000101068
0.000100589
9.93902e-05
9.73355e-05
9.43988e-05
9.08765e-05
8.76136e-05
8.58845e-05
8.51893e-05
8.49464e-05
8.48629e-05
8.48316e-05
8.48303e-05
8.48605e-05
8.49435e-05
8.51857e-05
8.58797e-05
8.76066e-05
9.08617e-05
9.43644e-05
9.72358e-05
9.91139e-05
9.98902e-05
9.9453e-05
9.74363e-05
9.29099e-05
8.35869e-05
6.33952e-05
6.33922e-05
8.35955e-05
9.29575e-05
9.76026e-05
9.98973e-05
0.00010089
0.00010107
0.000100591
9.93928e-05
9.73386e-05
9.44022e-05
9.08799e-05
8.76161e-05
8.5886e-05
8.51899e-05
8.49462e-05
8.48617e-05
8.48287e-05
8.48272e-05
8.48591e-05
8.49431e-05
8.51863e-05
8.58812e-05
8.76091e-05
9.08654e-05
9.43681e-05
9.72391e-05
9.91168e-05
9.98924e-05
9.94547e-05
9.74375e-05
9.29106e-05
8.35868e-05
6.33935e-05
6.33921e-05
8.35955e-05
9.29568e-05
9.76001e-05
9.98907e-05
0.000100875
0.00010104
0.00010054
9.93158e-05
9.72409e-05
9.43022e-05
9.08008e-05
8.75669e-05
8.58568e-05
8.51701e-05
8.49296e-05
8.48459e-05
8.4813e-05
8.48115e-05
8.48432e-05
8.49265e-05
8.51664e-05
8.5852e-05
8.75602e-05
9.07867e-05
9.42686e-05
9.71422e-05
9.90406e-05
9.98422e-05
9.94263e-05
9.74237e-05
9.29049e-05
8.35851e-05
6.33932e-05
6.33931e-05
8.35957e-05
9.29546e-05
9.75931e-05
9.9873e-05
0.000100835
0.000100961
0.000100397
9.90917e-05
9.69426e-05
9.39827e-05
9.0543e-05
8.74051e-05
8.57607e-05
8.51055e-05
8.48766e-05
8.47967e-05
8.47662e-05
8.47648e-05
8.4794e-05
8.48735e-05
8.51019e-05
8.57561e-05
8.73988e-05
9.05298e-05
9.39503e-05
9.68454e-05
9.88182e-05
9.97011e-05
9.93484e-05
9.73861e-05
9.28895e-05
8.35809e-05
6.33946e-05
6.33944e-05
8.35956e-05
9.29503e-05
9.75795e-05
9.98381e-05
0.000100755
0.000100792
0.000100079
9.85605e-05
9.6183e-05
9.31192e-05
8.9845e-05
8.69712e-05
8.55067e-05
8.4936e-05
8.47378e-05
8.46676e-05
8.46415e-05
8.46404e-05
8.46651e-05
8.47349e-05
8.49327e-05
8.55028e-05
8.6966e-05
8.98337e-05
9.30888e-05
9.60881e-05
9.82894e-05
9.93856e-05
9.91824e-05
9.73083e-05
9.28579e-05
8.35718e-05
6.33957e-05
6.33956e-05
8.3595e-05
9.29432e-05
9.75575e-05
9.97807e-05
0.000100618
0.00010049
9.9467e-05
9.74385e-05
9.43967e-05
9.0901e-05
8.81235e-05
8.59533e-05
8.49344e-05
8.45583e-05
8.44299e-05
8.43801e-05
8.43603e-05
8.43596e-05
8.43782e-05
8.44275e-05
8.45555e-05
8.49313e-05
8.59498e-05
8.81169e-05
9.08744e-05
9.43055e-05
9.71698e-05
9.87745e-05
9.88812e-05
9.71733e-05
9.2804e-05
8.35557e-05
6.3396e-05
6.33967e-05
8.35938e-05
9.29335e-05
9.75281e-05
9.97033e-05
0.000100426
0.00010004
9.84647e-05
9.53338e-05
9.03879e-05
8.50889e-05
8.41568e-05
8.38889e-05
8.38586e-05
8.38513e-05
8.38585e-05
8.38456e-05
8.38343e-05
8.38337e-05
8.38441e-05
8.38561e-05
8.38477e-05
8.38542e-05
8.38855e-05
8.41557e-05
8.50694e-05
9.03026e-05
9.50655e-05
9.77697e-05
9.84293e-05
9.69819e-05
9.27298e-05
8.35333e-05
6.33952e-05
6.33974e-05
8.35916e-05
9.29222e-05
9.74971e-05
9.96247e-05
0.000100229
9.95447e-05
9.72119e-05
9.20891e-05
8.18913e-05
6.88488e-05
7.57503e-05
8.05085e-05
8.22547e-05
8.27576e-05
8.29601e-05
8.3001e-05
8.30017e-05
8.3001e-05
8.29986e-05
8.29546e-05
8.2746e-05
8.2235e-05
8.04863e-05
7.57485e-05
6.88356e-05
8.18165e-05
9.18124e-05
9.65059e-05
9.79269e-05
9.67831e-05
9.2655e-05
8.35107e-05
6.33939e-05
6.33977e-05
8.35868e-05
9.29078e-05
9.74692e-05
9.95725e-05
0.000100119
9.92729e-05
9.64107e-05
8.92371e-05
7.0171e-05
6.66764e-05
7.74748e-05
8.06513e-05
8.15087e-05
8.17524e-05
8.18121e-05
8.18223e-05
8.18203e-05
8.18041e-05
8.17316e-05
8.14597e-05
8.05544e-05
7.73267e-05
6.65676e-05
7.00892e-05
8.89224e-05
9.56778e-05
9.76444e-05
9.66749e-05
9.26127e-05
8.34981e-05
6.33932e-05
6.33959e-05
8.35706e-05
9.28765e-05
9.74305e-05
9.95471e-05
0.000100157
9.95064e-05
9.72496e-05
9.22642e-05
8.22978e-05
6.92488e-05
7.70212e-05
8.18192e-05
8.33419e-05
8.37266e-05
8.38357e-05
8.38672e-05
8.38736e-05
8.38696e-05
8.38495e-05
8.37815e-05
8.35819e-05
8.30238e-05
8.12624e-05
7.64445e-05
6.89854e-05
8.19668e-05
9.18276e-05
9.64659e-05
9.78669e-05
9.67254e-05
9.26138e-05
8.34931e-05
6.33931e-05
6.33877e-05
8.35163e-05
9.27824e-05
9.73169e-05
9.9458e-05
0.000100188
9.98735e-05
9.84691e-05
9.56566e-05
9.12299e-05
8.65936e-05
8.64784e-05
8.65251e-05
8.60345e-05
8.56858e-05
8.55449e-05
8.54997e-05
8.54859e-05
8.54795e-05
8.54701e-05
8.54475e-05
8.5403e-05
8.53383e-05
8.52117e-05
8.5092e-05
8.5511e-05
9.04596e-05
9.50131e-05
9.76074e-05
9.82272e-05
9.67921e-05
9.25889e-05
8.34626e-05
6.3388e-05
6.33591e-05
8.33535e-05
9.25152e-05
9.69838e-05
9.91192e-05
9.99472e-05
9.99221e-05
9.91654e-05
9.76321e-05
9.5359e-05
9.28395e-05
9.10144e-05
8.91346e-05
8.72661e-05
8.63304e-05
8.59812e-05
8.58712e-05
8.58402e-05
8.58322e-05
8.58323e-05
8.58465e-05
8.59176e-05
8.61881e-05
8.69977e-05
8.88287e-05
9.11477e-05
9.42181e-05
9.68065e-05
9.82466e-05
9.83006e-05
9.66385e-05
9.23932e-05
8.33242e-05
6.33622e-05
6.32713e-05
8.29159e-05
9.18368e-05
9.61456e-05
9.82062e-05
9.90645e-05
9.92179e-05
9.88577e-05
9.80098e-05
9.66684e-05
9.49172e-05
9.29089e-05
9.05733e-05
8.83225e-05
8.71871e-05
8.67554e-05
8.66169e-05
8.6578e-05
8.65694e-05
8.65743e-05
8.66062e-05
8.673e-05
8.71363e-05
8.82467e-05
9.05318e-05
9.30714e-05
9.5428e-05
9.71477e-05
9.79666e-05
9.76942e-05
9.594e-05
9.17714e-05
8.29055e-05
6.32765e-05
6.30248e-05
8.18388e-05
9.02648e-05
9.42586e-05
9.61424e-05
9.69476e-05
9.71743e-05
9.70339e-05
9.65715e-05
9.57557e-05
9.45478e-05
9.29483e-05
9.10447e-05
8.92465e-05
8.82597e-05
8.78555e-05
8.7718e-05
8.76794e-05
8.76714e-05
8.76775e-05
8.77138e-05
8.78468e-05
8.82418e-05
8.92248e-05
9.10484e-05
9.30289e-05
9.47175e-05
9.58459e-05
9.62777e-05
9.58486e-05
9.41518e-05
9.02385e-05
8.18406e-05
6.30312e-05
6.23877e-05
7.93495e-05
8.68297e-05
9.02704e-05
9.18439e-05
9.251e-05
9.27286e-05
9.26974e-05
9.24664e-05
9.20072e-05
9.12675e-05
9.02267e-05
8.89777e-05
8.78151e-05
8.71321e-05
8.68306e-05
8.67228e-05
8.66906e-05
8.66839e-05
8.66899e-05
8.67212e-05
8.68272e-05
8.71263e-05
8.78097e-05
8.89828e-05
9.02562e-05
9.131e-05
9.19718e-05
9.21526e-05
9.17026e-05
9.02296e-05
8.6828e-05
7.93581e-05
6.23943e-05
6.08939e-05
7.37013e-05
7.93541e-05
8.1849e-05
8.29312e-05
8.33692e-05
8.3519e-05
8.35291e-05
8.34393e-05
8.32336e-05
8.28738e-05
8.23414e-05
8.169e-05
8.10787e-05
8.07026e-05
8.05277e-05
8.04619e-05
8.04411e-05
8.04367e-05
8.04413e-05
8.04622e-05
8.05277e-05
8.0702e-05
8.10785e-05
8.1693e-05
8.23508e-05
8.28797e-05
8.31894e-05
8.32301e-05
8.28881e-05
8.18464e-05
7.93642e-05
7.37117e-05
6.08998e-05
5.81859e-05
6.08963e-05
6.23946e-05
6.30367e-05
6.32882e-05
6.33814e-05
6.34146e-05
6.34239e-05
6.34176e-05
6.33923e-05
6.33437e-05
6.32614e-05
6.31516e-05
6.30421e-05
6.29727e-05
6.29383e-05
6.29228e-05
6.29151e-05
6.29123e-05
6.29155e-05
6.29232e-05
6.29385e-05
6.29723e-05
6.30412e-05
6.31504e-05
6.32602e-05
6.33414e-05
6.33834e-05
6.33793e-05
6.32981e-05
6.30492e-05
6.24054e-05
6.09037e-05
5.81901e-05
8.99166e-05
0.000100771
0.000106504
0.000109116
0.000110238
0.000110688
0.000110854
0.000110909
0.000110924
0.000110924
0.000110921
0.000110917
0.000110914
0.000110911
0.00011091
0.000110908
0.000110907
0.000110907
0.000110907
0.000110907
0.000110908
0.000110909
0.000110911
0.000110913
0.000110915
0.000110914
0.000110901
0.000110848
0.000110685
0.000110237
0.000109116
0.000106505
0.000100772
8.99179e-05
0.000100771
0.000290064
0.00035518
0.000383884
0.000397195
0.000403122
0.000405543
0.000406408
0.00040663
0.000406605
0.000406499
0.000406383
0.00040629
0.000406227
0.000406187
0.00040616
0.000406141
0.000406132
0.000406132
0.000406141
0.00040616
0.000406187
0.000406225
0.00040628
0.000406343
0.000406363
0.000406173
0.000405366
0.000403003
0.000397122
0.000383839
0.000355152
0.000290049
0.000100772
0.000106506
0.000355203
0.000446711
0.00048879
0.000509171
0.000518694
0.000522772
0.000524256
0.000524578
0.00052442
0.000524107
0.000523803
0.00052358
0.000523447
0.000523375
0.000523329
0.000523298
0.000523282
0.000523282
0.000523299
0.000523331
0.000523376
0.000523443
0.000523559
0.00052372
0.000523831
0.000523585
0.000522262
0.000518363
0.000508984
0.000488697
0.00044667
0.000355191
0.000106509
0.000109121
0.000383921
0.000488807
0.000538542
0.00056337
0.000575302
0.000580467
0.000582201
0.000582267
0.000581587
0.000580691
0.000579899
0.000579347
0.000579041
0.000578889
0.00057879
0.000578719
0.000578681
0.000578682
0.00057872
0.000578792
0.000578891
0.000579035
0.000579315
0.000579775
0.000580287
0.0005804
0.000579087
0.0005744
0.000562862
0.000538296
0.000488707
0.000383894
0.000109124
0.000110245
0.00039724
0.0005092
0.000563385
0.000590937
0.000604297
0.000609877
0.000611218
0.000610274
0.000608222
0.000605938
0.000604063
0.000602819
0.00060218
0.000601892
0.000601678
0.000601512
0.000601425
0.000601426
0.000601515
0.000601682
0.000601895
0.000602174
0.000602779
0.000603908
0.000605435
0.000606769
0.000606456
0.000602054
0.000589666
0.000562762
0.000508942
0.000397163
0.000110248
0.000110695
0.00040317
0.000518735
0.000575341
0.000604334
0.000618199
0.000623315
0.000623175
0.000619779
0.000614646
0.000609399
0.000605485
0.000603053
0.000601949
0.000601542
0.000601124
0.000600769
0.000600583
0.000600584
0.000600772
0.000601129
0.000601546
0.000601944
0.00060301
0.000605314
0.00060884
0.000613027
0.000615551
0.000613138
0.00060147
0.000573925
0.000518136
0.000402978
0.000110695
0.000110862
0.000405596
0.000522834
0.00058056
0.000610023
0.000623486
0.000626991
0.000623629
0.00061516
0.000603576
0.000592338
0.00058549
0.000581704
0.000580373
0.000580165
0.000579433
0.000578757
0.000578419
0.00057842
0.000578761
0.000579439
0.00058017
0.000580371
0.000581665
0.000585323
0.000591768
0.000601886
0.000610712
0.000613095
0.000604218
0.000577698
0.000521606
0.000405183
0.000110852
0.000110917
0.000406471
0.000524366
0.000582426
0.000611648
0.000623853
0.000624357
0.000615194
0.000596991
0.000571776
0.000547546
0.000540008
0.000537148
0.000537146
0.000538167
0.000537054
0.000535993
0.000535504
0.000535505
0.000535997
0.00053706
0.000538174
0.000537147
0.00053712
0.000539868
0.000547015
0.000570096
0.000592454
0.0006044
0.00060109
0.000577289
0.000522155
0.000405705
0.00011089
0.000110932
0.000406719
0.00052479
0.000582767
0.00061132
0.000621632
0.000617794
0.000599517
0.000563321
0.000506176
0.000442641
0.000458031
0.000468667
0.000474754
0.000478855
0.000477685
0.000476571
0.000476115
0.000476116
0.000476574
0.00047769
0.000478863
0.00047476
0.000468659
0.000457949
0.000442234
0.000504594
0.000558767
0.000588571
0.000594242
0.000574663
0.000521323
0.000405497
0.000110883
0.000110934
0.000406744
0.000524816
0.000582582
0.000610398
0.000618756
0.00061012
0.000580002
0.000512775
0.000369813
0.000128431
0.000313203
0.000383021
0.000404349
0.000412455
0.0004127
0.000412417
0.000412291
0.000412292
0.000412419
0.000412704
0.000412464
0.000404363
0.000383045
0.000313244
0.000128373
0.000368549
0.000508256
0.000568936
0.000586371
0.000571549
0.000520147
0.00040508
0.000110862
0.000110933
0.000406716
0.000524779
0.000582433
0.000609867
0.000617165
0.000605624
0.000566363
0.000461442
0.00013125
0.000118344
0.000310737
0.000349685
0.000358285
0.000361667
0.00036268
0.000362892
0.000362893
0.000362683
0.000361672
0.000358293
0.000349702
0.000310776
0.000118351
0.000131009
0.000457085
0.000555228
0.000581764
0.000569834
0.000519486
0.000404812
0.000110848
0.000110932
0.000406699
0.000524817
0.00058257
0.000610223
0.000618114
0.000608465
0.000576483
0.000506343
0.000360026
0.000125433
0.000282641
0.000338658
0.000352526
0.000351497
0.000358642
0.000361033
0.00036147
0.00036147
0.000361031
0.00035864
0.000351489
0.000352516
0.000338646
0.000282617
0.00012536
0.000358696
0.000501783
0.000565366
0.000584632
0.00057078
0.000519799
0.000404861
0.000110852
0.000110931
0.000406706
0.000524931
0.000582935
0.000611193
0.00062055
0.000614526
0.00059198
0.000548332
0.000479406
0.000399846
0.000388752
0.000375292
0.000370238
0.000367456
0.000368981
0.000369645
0.000369758
0.000369757
0.000369641
0.000368974
0.000367441
0.000370212
0.000375239
0.000388619
0.000399407
0.000477795
0.00054373
0.000580927
0.000590773
0.000573266
0.000520767
0.000405153
0.000110868
0.00011093
0.000406723
0.000525068
0.000583354
0.000612271
0.000623105
0.000620251
0.000604306
0.000573957
0.000529166
0.000477019
0.000434425
0.000397069
0.000381731
0.000376464
0.000375323
0.000375075
0.000375005
0.000375004
0.000375072
0.000375318
0.000376451
0.000381704
0.000397008
0.000434271
0.000476505
0.000527485
0.000569344
0.000593291
0.000596551
0.000575856
0.000521837
0.000405498
0.000110885
0.000110929
0.00040674
0.000525183
0.000583698
0.000613131
0.000625048
0.000624293
0.000612073
0.000587654
0.000550588
0.000503611
0.000453672
0.00040782
0.00038771
0.000380654
0.000378558
0.000378001
0.000377873
0.000377873
0.000378
0.000378555
0.000380644
0.000387685
0.000407762
0.000453525
0.00050308
0.000548879
0.000583026
0.000601061
0.000600605
0.000577802
0.000522672
0.000405773
0.000110897
0.000110928
0.000406749
0.000525259
0.000583925
0.000613685
0.000626256
0.000626674
0.000616307
0.000594381
0.000559853
0.000513874
0.000461572
0.000412615
0.000390496
0.000382552
0.0003801
0.000379443
0.000379301
0.000379301
0.000379443
0.000380098
0.000382543
0.000390472
0.00041256
0.000461439
0.000513336
0.000558129
0.000589737
0.000605283
0.000602974
0.000578992
0.000523194
0.000405944
0.000110903
0.000110927
0.000406753
0.000525301
0.00058405
0.000613985
0.000626891
0.000627877
0.000618336
0.00059739
0.000563677
0.000517828
0.000464642
0.000414538
0.000391638
0.000383329
0.000380744
0.000380055
0.000379911
0.000379911
0.000380055
0.000380743
0.000383322
0.000391615
0.000414484
0.000464507
0.000517285
0.000561945
0.000592732
0.000607296
0.00060416
0.000579607
0.000523467
0.000406032
0.000110905
0.000110926
0.000406754
0.000525319
0.000584104
0.000614112
0.000627154
0.000628359
0.00061912
0.000598501
0.000565022
0.000519155
0.00046566
0.000415184
0.000392023
0.000383589
0.00038096
0.000380261
0.000380118
0.000380118
0.000380262
0.00038096
0.000383582
0.000392
0.00041513
0.000465525
0.000518611
0.000563285
0.000593837
0.000608072
0.000604632
0.000579857
0.000523579
0.000406067
0.000110905
0.000110925
0.000406754
0.00052532
0.000584107
0.000614117
0.00062716
0.000628368
0.000619131
0.000598515
0.000565036
0.000519169
0.000465674
0.000415202
0.000392034
0.000383595
0.000380965
0.000380265
0.000380123
0.000380124
0.000380267
0.000380964
0.000383588
0.000392012
0.000415149
0.000465539
0.000518626
0.0005633
0.000593852
0.000608083
0.000604641
0.000579863
0.000523582
0.000406067
0.000110904
0.000110925
0.000406752
0.000525304
0.000584059
0.000613999
0.000626912
0.000627904
0.00061837
0.00059743
0.000563723
0.000517873
0.000464687
0.000414598
0.000391678
0.000383355
0.000380765
0.000380075
0.000379934
0.000379935
0.000380077
0.000380765
0.000383349
0.000391658
0.000414547
0.000464554
0.000517333
0.000561993
0.000592776
0.000607333
0.000604188
0.000579625
0.000523476
0.000406033
0.000110903
0.000110926
0.000406747
0.000525265
0.00058394
0.000613709
0.00062629
0.00062672
0.000616367
0.000594455
0.000559939
0.000513965
0.000461665
0.000412735
0.000390585
0.000382618
0.000380158
0.000379503
0.000379365
0.000379367
0.000379506
0.000380161
0.000382615
0.000390568
0.00041269
0.000461537
0.000513434
0.000558223
0.000589817
0.000605346
0.00060302
0.000579022
0.00052321
0.000405945
0.0001109
0.000110927
0.000406736
0.00052519
0.000583717
0.000613162
0.000625093
0.000624357
0.000612159
0.000587768
0.000550734
0.000503782
0.000453844
0.000408032
0.000387877
0.000380792
0.000378689
0.000378136
0.000378014
0.000378016
0.000378142
0.000378696
0.000380797
0.000387869
0.000407997
0.000453728
0.000503269
0.000549041
0.000583151
0.000601151
0.000600668
0.000577842
0.000522693
0.000405773
0.000110894
0.000110927
0.000406716
0.000525073
0.000583371
0.000612301
0.000623152
0.000620322
0.000604412
0.000574117
0.000529404
0.000477342
0.000434798
0.000397395
0.000381977
0.000376679
0.000375525
0.000375284
0.000375224
0.000375227
0.000375294
0.000375539
0.000376691
0.000381979
0.000397374
0.000434699
0.000476869
0.000527752
0.000569511
0.000593392
0.000596614
0.000575896
0.000521856
0.000405494
0.000110881
0.000110928
0.000406689
0.00052492
0.000582929
0.000611194
0.000620565
0.000614565
0.000592067
0.000548516
0.000479773
0.000400421
0.000389316
0.000375572
0.000370335
0.000367495
0.000368979
0.000369651
0.000369778
0.000369783
0.000369664
0.000368995
0.0003675
0.000370319
0.000375543
0.000389279
0.000400064
0.000478213
0.000543886
0.000580962
0.000590774
0.000573264
0.000520761
0.000405134
0.000110863
0.000110927
0.00040665
0.000524745
0.000582473
0.000610108
0.00061799
0.000608346
0.000576402
0.000506409
0.0003605
0.000125551
0.000282936
0.000337874
0.000351199
0.000349876
0.000356926
0.00035933
0.000359786
0.000359788
0.000359331
0.000356903
0.000349772
0.000350989
0.000337623
0.000283014
0.000125485
0.000359267
0.00050166
0.000565076
0.00058439
0.000570621
0.000519703
0.000404795
0.000110846
0.000110923
0.000406567
0.000524513
0.000582054
0.000609392
0.000616611
0.000604994
0.000565663
0.000460793
0.000131118
0.000117498
0.000305071
0.000342127
0.000349551
0.000352645
0.000353648
0.000353878
0.000353865
0.000353585
0.000352444
0.000349014
0.000341003
0.00030341
0.00011708
0.000130698
0.000455623
0.000553876
0.000580813
0.00056923
0.000519126
0.000404617
0.000110836
0.000110908
0.000406294
0.000523986
0.000581411
0.000608943
0.000617053
0.000608131
0.000577584
0.000509753
0.000366467
0.00012715
0.000299724
0.000362845
0.00037789
0.000381844
0.000381595
0.000381473
0.000381459
0.000381419
0.000381285
0.000380988
0.000380154
0.000373914
0.00035563
0.000292522
0.000126002
0.000361681
0.000502374
0.000564859
0.000583713
0.000569849
0.000519106
0.000404536
0.000110831
0.000110854
0.000405431
0.000522474
0.000579591
0.000607457
0.000617186
0.000612668
0.000593247
0.000554853
0.000493556
0.000422702
0.00042429
0.000419358
0.000408335
0.000402738
0.000400257
0.000399464
0.000399251
0.00039918
0.000399115
0.000399059
0.000399126
0.000398949
0.000400208
0.000404077
0.000407043
0.000481314
0.00054398
0.000579178
0.000588098
0.00057054
0.000518644
0.000404061
0.000110799
0.000110691
0.000403037
0.000518467
0.000574616
0.000602402
0.000613474
0.000612774
0.000601645
0.000579557
0.000546719
0.000508783
0.000479555
0.0004477
0.000415409
0.000401814
0.000397145
0.000395736
0.000395353
0.00039526
0.000395271
0.000395489
0.000396518
0.000400319
0.000412923
0.000445514
0.000482308
0.000528159
0.000565619
0.0005866
0.000588567
0.000568167
0.000515772
0.000402084
0.000110657
0.000110243
0.000397141
0.000509036
0.000562943
0.000589719
0.000601255
0.000603014
0.000597142
0.000583909
0.000563106
0.000535522
0.000503197
0.000465392
0.000427869
0.000411647
0.000405965
0.000404198
0.000403702
0.000403594
0.000403663
0.000404084
0.000405701
0.000411134
0.000427266
0.000465662
0.000506147
0.000542757
0.000569318
0.000582511
0.000580298
0.000558668
0.0005073
0.000396535
0.000110226
0.000109121
0.00038385
0.000488726
0.000538326
0.000562728
0.000573605
0.000576484
0.000573751
0.000565889
0.0005524
0.000532697
0.000506928
0.000476751
0.000448593
0.000434547
0.000429053
0.000427185
0.000426611
0.000426486
0.000426602
0.000427151
0.000428971
0.000434428
0.000448548
0.000477189
0.000508437
0.000535222
0.000553482
0.000561267
0.000556759
0.000535727
0.000487712
0.000383497
0.000109115
0.000106508
0.000355154
0.000446685
0.000488722
0.000508912
0.000517913
0.000520787
0.000519793
0.000515483
0.000507439
0.000494976
0.00047802
0.000458242
0.000440242
0.000430175
0.000425812
0.000424197
0.000423671
0.000423556
0.000423677
0.000424204
0.000425814
0.000430181
0.000440307
0.000458515
0.000478655
0.000495695
0.000506845
0.000510712
0.000505579
0.000487342
0.000446172
0.000354969
0.000106508
0.000100774
0.00029004
0.000355191
0.000383899
0.000397154
0.000402888
0.000404823
0.000404616
0.000402717
0.000398894
0.000392699
0.000384033
0.000373861
0.000364596
0.000359013
0.000356407
0.000355382
0.000355032
0.000354955
0.000355046
0.000355408
0.000356444
0.000359062
0.000364679
0.000374024
0.000384303
0.000392879
0.000398265
0.000399645
0.00039573
0.000383344
0.000354994
0.000289958
0.000100777
8.99199e-05
0.000100774
0.000106513
0.00010913
0.000110256
0.000110704
0.000110853
0.000110862
0.000110771
0.000110565
0.000110206
0.000109674
0.00010902
0.000108409
0.000108029
0.00010785
0.000107779
0.000107754
0.000107748
0.000107755
0.00010778
0.000107852
0.000108031
0.000108411
0.000109026
0.000109684
0.000110211
0.000110519
0.000110558
0.000110205
0.000109118
0.000106513
0.000100777
8.99245e-05
9.38908e-05
0.000108995
0.000116943
0.000120679
0.000122365
0.000123079
0.000123357
0.000123454
0.00012348
0.000123479
0.000123471
0.000123461
0.000123453
0.000123448
0.000123444
0.000123442
0.00012344
0.00012344
0.000123439
0.00012344
0.000123442
0.000123444
0.000123447
0.000123452
0.000123457
0.000123456
0.000123434
0.000123343
0.00012307
0.00012236
0.000120677
0.000116942
0.000108995
9.3892e-05
0.000108995
0.000377278
0.0004777
0.000523432
0.000545311
0.000555417
0.000559717
0.000561309
0.000561721
0.000561653
0.000561418
0.00056116
0.000560951
0.000560806
0.000560713
0.00056065
0.000560608
0.000560587
0.000560587
0.000560608
0.000560649
0.00056071
0.000560797
0.000560923
0.000561068
0.000561127
0.000560786
0.000559314
0.000555139
0.000545133
0.00052332
0.000477628
0.000377237
0.000108994
0.000116945
0.000477738
0.000627001
0.000698117
0.000733425
0.000750368
0.000757834
0.000760616
0.000761204
0.000760839
0.000760143
0.00075945
0.000758921
0.000758593
0.000758407
0.000758288
0.000758209
0.000758169
0.00075817
0.00075821
0.000758288
0.000758404
0.000758578
0.000758866
0.00075926
0.000759553
0.000759143
0.000756704
0.000749612
0.000732978
0.000697877
0.000626881
0.000477688
0.000116945
0.000120684
0.000523494
0.000698149
0.000784019
0.00082784
0.000849363
0.000858889
0.000862128
0.000862188
0.000860754
0.000858833
0.000857066
0.000855778
0.000855029
0.000854641
0.000854384
0.000854208
0.000854118
0.000854119
0.00085421
0.000854386
0.000854639
0.00085501
0.000855696
0.000856785
0.000857972
0.000858341
0.000855976
0.000847422
0.000826707
0.000783435
0.000697885
0.0005234
0.000120684
0.000122372
0.000545388
0.000733482
0.000827873
0.000876873
0.000901088
0.000911375
0.000913837