/*--------------------------------*- C++ -*----------------------------------*\
| =========                 |                                                 |
| \\      /  F ield         | OpenFOAM: The Open Source CFD Toolbox           |
|  \\    /   O peration     | Version:  2112                                  |
|   \\  /    A nd           | Website:  www.openfoam.com                      |
|    \\/     M anipulation  |                                                 |
\*---------------------------------------------------------------------------*/
FoamFile
{
    version     2.0;
    format      ascii;
    arch        "LSB;label=32;scalar=64";
    class       volScalarField;
    location    "2.6";
    object      p;
}
// * * * * * * * * * * * * * * * * * * * * * * * * * * * * * * * * * * * * * //

dimensions      [0 2 -2 0 0 0 0];

internalField   nonuniform List<scalar> 
64906
(
-6.62907e-06
-6.60949e-06
-6.60166e-06
-6.60138e-06
-6.62922e-06
-6.68402e-06
-6.76672e-06
-6.87906e-06
-7.02798e-06
-7.19734e-06
-7.36656e-06
-7.54009e-06
-7.70828e-06
-7.86403e-06
-7.99905e-06
-8.10929e-06
-8.19147e-06
-8.24425e-06
-8.26701e-06
-8.25988e-06
-8.2239e-06
-8.16068e-06
-8.0739e-06
-7.96784e-06
-7.8512e-06
-7.73115e-06
-7.61738e-06
-7.50451e-06
-7.41203e-06
-7.36119e-06
-7.34834e-06
-7.34648e-06
-7.35748e-06
-7.37794e-06
-6.56822e-06
-6.4849e-06
-6.42004e-06
-6.38596e-06
-6.37888e-06
-6.39953e-06
-6.4451e-06
-6.51186e-06
-6.58916e-06
-6.6838e-06
-6.7964e-06
-6.91278e-06
-7.02121e-06
-7.12057e-06
-7.20542e-06
-7.27559e-06
-7.32945e-06
-7.36708e-06
-7.38832e-06
-7.39331e-06
-7.38256e-06
-7.35624e-06
-7.31627e-06
-7.26299e-06
-7.20209e-06
-7.13474e-06
-7.07351e-06
-7.03369e-06
-7.01686e-06
-7.01371e-06
-7.033e-06
-7.09742e-06
-7.18817e-06
-7.29382e-06
-6.54755e-06
-6.42091e-06
-6.30889e-06
-6.22427e-06
-6.17879e-06
-6.16915e-06
-6.1903e-06
-6.2382e-06
-6.3075e-06
-6.39853e-06
-6.50233e-06
-6.61371e-06
-6.71146e-06
-6.79741e-06
-6.86541e-06
-6.92021e-06
-6.96182e-06
-6.99241e-06
-7.01239e-06
-7.02192e-06
-7.02089e-06
-7.00739e-06
-6.98177e-06
-6.93945e-06
-6.88717e-06
-6.82344e-06
-6.77118e-06
-6.7371e-06
-6.7336e-06
-6.76347e-06
-6.83614e-06
-6.95945e-06
-7.11294e-06
-7.27692e-06
-6.56749e-06
-6.40368e-06
-6.2449e-06
-6.11822e-06
-6.04109e-06
-6.01149e-06
-6.02499e-06
-6.07987e-06
-6.17365e-06
-6.30902e-06
-6.46904e-06
-6.64853e-06
-6.79675e-06
-6.91924e-06
-7.00629e-06
-7.07177e-06
-7.1177e-06
-7.14954e-06
-7.16842e-06
-7.17449e-06
-7.16692e-06
-7.14049e-06
-7.09367e-06
-7.01286e-06
-6.90884e-06
-6.77659e-06
-6.67019e-06
-6.59664e-06
-6.57854e-06
-6.61896e-06
-6.72608e-06
-6.90134e-06
-7.1127e-06
-7.32743e-06
-6.64092e-06
-6.44523e-06
-6.2521e-06
-6.09482e-06
-5.99982e-06
-5.96811e-06
-5.99868e-06
-6.09598e-06
-6.26397e-06
-6.51589e-06
-6.82565e-06
-7.18851e-06
-7.47599e-06
-7.70339e-06
-7.85609e-06
-7.96622e-06
-8.03807e-06
-8.08222e-06
-8.10044e-06
-8.09285e-06
-8.05795e-06
-7.98536e-06
-7.87148e-06
-7.68447e-06
-7.44085e-06
-7.12567e-06
-6.87365e-06
-6.69036e-06
-6.60983e-06
-6.62645e-06
-6.74265e-06
-6.95141e-06
-7.2072e-06
-7.46449e-06
-6.76878e-06
-6.54172e-06
-6.32337e-06
-6.14513e-06
-6.04585e-06
-6.03026e-06
-6.10282e-06
-6.27827e-06
-6.57314e-06
-7.02368e-06
-7.59993e-06
-8.32042e-06
-8.858e-06
-9.26877e-06
-9.53611e-06
-9.72729e-06
-9.84813e-06
-9.91659e-06
-9.93468e-06
-9.90242e-06
-9.81804e-06
-9.66359e-06
-9.43417e-06
-9.06272e-06
-8.56911e-06
-7.89639e-06
-7.38459e-06
-7.01034e-06
-6.81532e-06
-6.7728e-06
-6.87406e-06
-7.10016e-06
-7.39155e-06
-7.69042e-06
-6.94816e-06
-6.68756e-06
-6.44594e-06
-6.25472e-06
-6.16308e-06
-6.17982e-06
-6.31576e-06
-6.59869e-06
-7.06432e-06
-7.79471e-06
-8.75175e-06
-1.0128e-05
-1.10359e-05
-1.17043e-05
-1.21261e-05
-1.24289e-05
-1.26175e-05
-1.27205e-05
-1.27391e-05
-1.26731e-05
-1.25214e-05
-1.22552e-05
-1.18706e-05
-1.12401e-05
-1.03765e-05
-9.04508e-06
-8.16502e-06
-7.51831e-06
-7.16433e-06
-7.03336e-06
-7.10036e-06
-7.33312e-06
-7.65495e-06
-8.0028e-06
-7.17329e-06
-6.87395e-06
-6.60945e-06
-6.41185e-06
-6.33997e-06
-6.40569e-06
-6.62457e-06
-7.03279e-06
-7.68854e-06
-8.7171e-06
-1.00988e-05
-1.27065e-05
-1.40531e-05
-1.50475e-05
-1.56652e-05
-1.61165e-05
-1.63969e-05
-1.65473e-05
-1.6567e-05
-1.64557e-05
-1.6214e-05
-1.57998e-05
-1.52189e-05
-1.42595e-05
-1.29576e-05
-1.03817e-05
-9.10644e-06
-8.16427e-06
-7.62947e-06
-7.39143e-06
-7.40729e-06
-7.63767e-06
-7.9868e-06
-8.39464e-06
-7.43596e-06
-7.09029e-06
-6.80184e-06
-6.60283e-06
-6.56192e-06
-6.69194e-06
-7.00838e-06
-7.5464e-06
-8.34031e-06
-9.62029e-06
-1.13751e-05
-1.62908e-05
-1.77974e-05
-1.91143e-05
-1.99363e-05
-2.05355e-05
-2.09088e-05
-2.11084e-05
-2.11298e-05
-2.09726e-05
-2.06409e-05
-2.00805e-05
-1.9295e-05
-1.80065e-05
-1.65475e-05
-1.16404e-05
-1.00681e-05
-8.84575e-06
-8.17561e-06
-7.82301e-06
-7.77436e-06
-7.99357e-06
-8.37262e-06
-8.85601e-06
-7.72862e-06
-7.32731e-06
-7.01621e-06
-6.82561e-06
-6.83743e-06
-7.06678e-06
-7.5299e-06
-8.22749e-06
-9.23516e-06
-1.16742e-05
-9.61532e-06
-2.01434e-05
-2.17316e-05
-2.36246e-05
-2.47506e-05
-2.55839e-05
-2.61055e-05
-2.63784e-05
-2.64019e-05
-2.61757e-05
-2.56999e-05
-2.4909e-05
-2.38215e-05
-2.19519e-05
-2.04414e-05
-9.7669e-06
-1.2116e-05
-9.72954e-06
-8.87828e-06
-8.38128e-06
-8.22037e-06
-8.40019e-06
-8.80073e-06
-9.37903e-06
-8.05607e-06
-7.56065e-06
-7.23498e-06
-7.05806e-06
-7.13605e-06
-7.49121e-06
-8.11079e-06
-8.85163e-06
-9.57999e-06
-7.31635e-06
-2.98084e-05
-2.70345e-05
-2.82134e-05
-2.9323e-05
-3.02729e-05
-3.09034e-05
-3.12248e-05
-3.12504e-05
-3.09797e-05
-3.03992e-05
-2.94959e-05
-2.84256e-05
-2.72633e-05
-2.99514e-05
-8.11173e-06
-1.02347e-05
-9.55851e-06
-8.99612e-06
-8.70474e-06
-8.82145e-06
-9.22936e-06
-9.95421e-06
-8.379e-06
-7.81416e-06
-7.46211e-06
-7.30823e-06
-7.48925e-06
-8.0799e-06
-9.20605e-06
-1.10531e-05
-1.41162e-05
-1.81099e-05
-2.71649e-05
-2.62769e-05
-2.94836e-05
-3.19634e-05
-3.38959e-05
-3.53311e-05
-3.62196e-05
-3.6646e-05
-3.66732e-05
-3.63016e-05
-3.54694e-05
-3.40927e-05
-3.22227e-05
-2.98139e-05
-2.66802e-05
-2.77506e-05
-1.86085e-05
-1.46665e-05
-1.17051e-05
-1.00741e-05
-9.32641e-06
-9.28708e-06
-9.69171e-06
-1.05169e-05
-8.69966e-06
-8.0551e-06
-7.67062e-06
-7.52305e-06
-7.76694e-06
-8.49266e-06
-9.84002e-06
-1.19509e-05
-1.50102e-05
-1.87067e-05
-2.47795e-05
-2.82399e-05
-3.1571e-05
-3.44769e-05
-3.68163e-05
-3.84658e-05
-3.94812e-05
-3.99659e-05
-3.99938e-05
-3.95655e-05
-3.86084e-05
-3.70199e-05
-3.4746e-05
-3.1903e-05
-2.86234e-05
-2.52599e-05
-1.92204e-05
-1.55446e-05
-1.25837e-05
-1.07077e-05
-9.78209e-06
-9.68159e-06
-1.01161e-05
-1.10462e-05
-8.97931e-06
-8.27421e-06
-7.85962e-06
-7.71028e-06
-7.99353e-06
-8.80557e-06
-1.0288e-05
-1.25761e-05
-1.5832e-05
-1.99074e-05
-2.5021e-05
-2.91383e-05
-3.30483e-05
-3.63028e-05
-3.88754e-05
-4.06243e-05
-4.1687e-05
-4.21867e-05
-4.22145e-05
-4.17712e-05
-4.07672e-05
-3.90802e-05
-3.65746e-05
-3.33847e-05
-2.95409e-05
-2.54739e-05
-2.03785e-05
-1.63355e-05
-1.31929e-05
-1.11634e-05
-1.01452e-05
-1.00257e-05
-1.05038e-05
-1.15458e-05
-9.2202e-06
-8.46406e-06
-8.01899e-06
-7.85655e-06
-8.15046e-06
-8.99551e-06
-1.05263e-05
-1.28709e-05
-1.61631e-05
-2.02831e-05
-2.51142e-05
-2.96174e-05
-3.38897e-05
-3.72997e-05
-3.99527e-05
-4.17151e-05
-4.27742e-05
-4.32662e-05
-4.32937e-05
-4.28572e-05
-4.18558e-05
-4.0154e-05
-3.75667e-05
-3.42183e-05
-3.00107e-05
-2.55427e-05
-2.0733e-05
-1.66511e-05
-1.34843e-05
-1.14207e-05
-1.03921e-05
-1.02966e-05
-1.0831e-05
-1.19764e-05
-9.41862e-06
-8.62205e-06
-8.15038e-06
-7.97205e-06
-8.26461e-06
-9.12037e-06
-1.06677e-05
-1.30317e-05
-1.63327e-05
-2.04739e-05
-2.52708e-05
-2.99708e-05
-3.44136e-05
-3.7902e-05
-4.05829e-05
-4.23308e-05
-4.33694e-05
-4.38467e-05
-4.3874e-05
-4.34518e-05
-4.24701e-05
-4.07817e-05
-3.81648e-05
-3.47346e-05
-3.03509e-05
-2.56849e-05
-2.0912e-05
-1.6814e-05
-1.36495e-05
-1.15862e-05
-1.05725e-05
-1.05116e-05
-1.10994e-05
-1.23405e-05
-9.57126e-06
-8.74483e-06
-8.25208e-06
-8.05867e-06
-8.34463e-06
-9.20038e-06
-1.07506e-05
-1.31209e-05
-1.64285e-05
-2.05965e-05
-2.54221e-05
-3.02257e-05
-3.47672e-05
-3.82978e-05
-4.09884e-05
-4.27226e-05
-4.37454e-05
-4.42123e-05
-4.42399e-05
-4.38287e-05
-4.28631e-05
-4.11881e-05
-3.85609e-05
-3.50886e-05
-3.06091e-05
-2.5833e-05
-2.10312e-05
-1.69099e-05
-1.37476e-05
-1.1693e-05
-1.07e-05
-1.06716e-05
-1.13004e-05
-1.25994e-05
-9.677e-06
-8.83167e-06
-8.32534e-06
-8.12189e-06
-8.40325e-06
-9.25931e-06
-1.08136e-05
-1.31935e-05
-1.65169e-05
-2.07169e-05
-2.55837e-05
-3.04551e-05
-3.50592e-05
-3.86234e-05
-4.13282e-05
-4.30625e-05
-4.40818e-05
-4.4546e-05
-4.45747e-05
-4.41681e-05
-4.32076e-05
-4.15334e-05
-3.88926e-05
-3.53866e-05
-3.08445e-05
-2.59979e-05
-2.11542e-05
-1.70028e-05
-1.38302e-05
-1.17755e-05
-1.07932e-05
-1.07848e-05
-1.14387e-05
-1.27718e-05
-9.73552e-06
-8.88222e-06
-8.37041e-06
-8.16334e-06
-8.44436e-06
-9.30432e-06
-1.08675e-05
-1.32624e-05
-1.66117e-05
-2.08467e-05
-2.57553e-05
-3.06716e-05
-3.53151e-05
-3.89095e-05
-4.16357e-05
-4.33851e-05
-4.44139e-05
-4.48837e-05
-4.49141e-05
-4.45055e-05
-4.35385e-05
-4.18516e-05
-3.91906e-05
-3.56547e-05
-3.10721e-05
-2.61785e-05
-2.12917e-05
-1.71052e-05
-1.39096e-05
-1.18425e-05
-1.08573e-05
-1.08533e-05
-1.1516e-05
-1.28608e-05
-9.74731e-06
-8.89692e-06
-8.38768e-06
-8.18339e-06
-8.46862e-06
-9.33588e-06
-1.09133e-05
-1.33326e-05
-1.67117e-05
-2.09838e-05
-2.59363e-05
-3.08784e-05
-3.55382e-05
-3.91577e-05
-4.19107e-05
-4.36884e-05
-4.47389e-05
-4.52219e-05
-4.5255e-05
-4.48383e-05
-4.3854e-05
-4.21426e-05
-3.94571e-05
-3.58969e-05
-3.12966e-05
-2.63747e-05
-2.14414e-05
-1.72148e-05
-1.39845e-05
-1.18938e-05
-1.08926e-05
-1.08781e-05
-1.1533e-05
-1.28675e-05
-9.71384e-06
-8.87728e-06
-8.37793e-06
-8.18109e-06
-8.47155e-06
-9.345e-06
-1.09348e-05
-1.33751e-05
-1.67948e-05
-2.11106e-05
-2.61269e-05
-3.10748e-05
-3.57149e-05
-3.93463e-05
-4.21251e-05
-4.39408e-05
-4.50229e-05
-4.55261e-05
-4.5563e-05
-4.51336e-05
-4.41246e-05
-4.2381e-05
-3.96736e-05
-3.6103e-05
-3.15193e-05
-2.65884e-05
-2.15888e-05
-1.73151e-05
-1.40408e-05
-1.19205e-05
-1.08956e-05
-1.08591e-05
-1.1489e-05
-1.27742e-05
-9.63735e-06
-8.82502e-06
-8.34098e-06
-8.1523e-06
-8.44227e-06
-9.30948e-06
-1.08944e-05
-1.33375e-05
-1.67878e-05
-2.11539e-05
-2.631e-05
-3.12246e-05
-3.57728e-05
-3.93711e-05
-4.21482e-05
-4.39967e-05
-4.51117e-05
-4.56384e-05
-4.56806e-05
-4.52384e-05
-4.42064e-05
-4.24396e-05
-3.97405e-05
-3.62065e-05
-3.17063e-05
-2.68048e-05
-2.1664e-05
-1.73368e-05
-1.40256e-05
-1.18903e-05
-1.08507e-05
-1.07924e-05
-1.13899e-05
-1.2617e-05
-9.52063e-06
-8.74468e-06
-8.28056e-06
-8.09828e-06
-8.377e-06
-9.21628e-06
-1.07628e-05
-1.31649e-05
-1.66108e-05
-2.1004e-05
-2.65369e-05
-3.13437e-05
-3.56245e-05
-3.91143e-05
-4.18384e-05
-4.36935e-05
-4.48272e-05
-4.53731e-05
-4.54235e-05
-4.49786e-05
-4.39442e-05
-4.21874e-05
-3.95546e-05
-3.61405e-05
-3.19031e-05
-2.70847e-05
-2.15723e-05
-1.72115e-05
-1.38953e-05
-1.17837e-05
-1.07542e-05
-1.06831e-05
-1.12438e-05
-1.23967e-05
-9.35711e-06
-8.6386e-06
-8.19637e-06
-8.01128e-06
-8.25306e-06
-9.01423e-06
-1.0436e-05
-1.26636e-05
-1.58789e-05
-1.98514e-05
-2.65904e-05
-3.15681e-05
-3.51112e-05
-3.82679e-05
-4.07903e-05
-4.25745e-05
-4.36856e-05
-4.42358e-05
-4.42987e-05
-4.38754e-05
-4.28895e-05
-4.12309e-05
-3.88212e-05
-3.5764e-05
-3.2277e-05
-2.71986e-05
-2.04884e-05
-1.65574e-05
-1.34682e-05
-1.15084e-05
-1.05653e-05
-1.0519e-05
-1.10565e-05
-1.21509e-05
-9.18346e-06
-8.52053e-06
-8.10285e-06
-7.9119e-06
-8.10276e-06
-8.7531e-06
-9.99622e-06
-1.20323e-05
-1.54184e-05
-2.00718e-05
-2.8313e-05
-2.98899e-05
-3.39458e-05
-3.70384e-05
-3.92903e-05
-4.09558e-05
-4.20079e-05
-4.25422e-05
-4.26251e-05
-4.22604e-05
-4.13786e-05
-3.98856e-05
-3.77749e-05
-3.47983e-05
-3.07485e-05
-2.88938e-05
-2.09556e-05
-1.62872e-05
-1.2976e-05
-1.11578e-05
-1.03385e-05
-1.0336e-05
-1.08523e-05
-1.18823e-05
-9.02517e-06
-8.39796e-06
-8.0004e-06
-7.79136e-06
-7.89732e-06
-8.33715e-06
-9.06792e-06
-9.84219e-06
-1.04736e-05
-6.9477e-06
-3.79751e-05
-3.38434e-05
-3.51971e-05
-3.6608e-05
-3.78696e-05
-3.87453e-05
-3.92298e-05
-3.93386e-05
-3.90813e-05
-3.84436e-05
-3.74261e-05
-3.61998e-05
-3.50427e-05
-3.91393e-05
-7.80419e-06
-1.14778e-05
-1.09229e-05
-1.03427e-05
-9.97564e-06
-1.01052e-05
-1.0624e-05
-1.16034e-05
-8.86627e-06
-8.29839e-06
-7.92125e-06
-7.71508e-06
-7.80008e-06
-8.21836e-06
-9.04474e-06
-1.03974e-05
-1.26722e-05
-1.64259e-05
-1.78079e-05
-2.67501e-05
-2.9697e-05
-3.24621e-05
-3.43653e-05
-3.58936e-05
-3.6898e-05
-3.74489e-05
-3.75931e-05
-3.73583e-05
-3.67306e-05
-3.55523e-05
-3.38466e-05
-3.13781e-05
-2.84362e-05
-2.01621e-05
-1.83247e-05
-1.42907e-05
-1.18073e-05
-1.04736e-05
-9.90556e-06
-9.97277e-06
-1.04356e-05
-1.13551e-05
-8.71608e-06
-8.22662e-06
-7.86327e-06
-7.66238e-06
-7.72809e-06
-8.10102e-06
-8.84399e-06
-1.00396e-05
-1.17627e-05
-1.40973e-05
-1.85208e-05
-2.43479e-05
-2.71901e-05
-2.98128e-05
-3.17753e-05
-3.33238e-05
-3.43407e-05
-3.49201e-05
-3.50854e-05
-3.48623e-05
-3.42344e-05
-3.31247e-05
-3.14831e-05
-2.92408e-05
-2.64377e-05
-2.07937e-05
-1.59512e-05
-1.34388e-05
-1.15598e-05
-1.03538e-05
-9.80917e-06
-9.8546e-06
-1.02781e-05
-1.11321e-05
-8.62035e-06
-8.17481e-06
-7.84508e-06
-7.66662e-06
-7.73378e-06
-8.08573e-06
-8.78606e-06
-9.93031e-06
-1.16654e-05
-1.41271e-05
-1.74491e-05
-2.15378e-05
-2.45927e-05
-2.72971e-05
-2.93442e-05
-3.09522e-05
-3.19986e-05
-3.25924e-05
-3.2766e-05
-3.25499e-05
-3.19197e-05
-3.08111e-05
-2.91489e-05
-2.68839e-05
-2.3913e-05
-1.99047e-05
-1.63129e-05
-1.35407e-05
-1.15642e-05
-1.03507e-05
-9.79474e-06
-9.80414e-06
-1.01777e-05
-1.09686e-05
-8.57077e-06
-8.16505e-06
-7.88016e-06
-7.73783e-06
-7.81788e-06
-8.1522e-06
-8.7935e-06
-9.8235e-06
-1.13491e-05
-1.34744e-05
-1.61907e-05
-1.9347e-05
-2.21549e-05
-2.47193e-05
-2.67007e-05
-2.82427e-05
-2.92441e-05
-2.98098e-05
-2.99798e-05
-2.97862e-05
-2.92009e-05
-2.81688e-05
-2.66013e-05
-2.44941e-05
-2.17829e-05
-1.86375e-05
-1.5665e-05
-1.32434e-05
-1.14816e-05
-1.03691e-05
-9.84197e-06
-9.82451e-06
-1.01444e-05
-1.08669e-05
-8.57367e-06
-8.20643e-06
-7.98939e-06
-7.90546e-06
-8.02045e-06
-8.35724e-06
-8.95331e-06
-9.8665e-06
-1.11671e-05
-1.29146e-05
-1.50867e-05
-1.75703e-05
-1.99642e-05
-2.22212e-05
-2.40081e-05
-2.53925e-05
-2.63076e-05
-2.68189e-05
-2.69763e-05
-2.68116e-05
-2.62862e-05
-2.53691e-05
-2.3983e-05
-2.21459e-05
-1.98469e-05
-1.73514e-05
-1.49717e-05
-1.29835e-05
-1.14914e-05
-1.05141e-05
-1.00198e-05
-9.96246e-06
-1.02147e-05
-1.08224e-05
-8.60872e-06
-8.31956e-06
-8.18529e-06
-8.18313e-06
-8.35868e-06
-8.72822e-06
-9.31685e-06
-1.01618e-05
-1.13016e-05
-1.27655e-05
-1.4529e-05
-1.65161e-05
-1.85018e-05
-2.03932e-05
-2.19262e-05
-2.3117e-05
-2.3916e-05
-2.43759e-05
-2.45232e-05
-2.43779e-05
-2.39217e-05
-2.31279e-05
-2.19492e-05
-2.04118e-05
-1.85328e-05
-1.65472e-05
-1.46478e-05
-1.30199e-05
-1.17508e-05
-1.08719e-05
-1.03756e-05
-1.0243e-05
-1.0389e-05
-1.0847e-05
-8.66307e-06
-8.47916e-06
-8.43982e-06
-8.52863e-06
-8.78182e-06
-9.21329e-06
-9.84139e-06
-1.06878e-05
-1.17706e-05
-1.30884e-05
-1.46531e-05
-1.63753e-05
-1.81039e-05
-1.97447e-05
-2.11098e-05
-2.21817e-05
-2.2921e-05
-2.33547e-05
-2.3496e-05
-2.33565e-05
-2.29268e-05
-2.21932e-05
-2.11349e-05
-1.97831e-05
-1.81749e-05
-1.64858e-05
-1.48526e-05
-1.34314e-05
-1.22755e-05
-1.14199e-05
-1.08742e-05
-1.06293e-05
-1.06387e-05
-1.09211e-05
-8.73059e-06
-8.66627e-06
-8.71773e-06
-8.89222e-06
-9.22544e-06
-9.74072e-06
-1.04631e-05
-1.14158e-05
-1.26169e-05
-1.40695e-05
-1.56969e-05
-1.74462e-05
-1.91982e-05
-2.08558e-05
-2.22661e-05
-2.33891e-05
-2.41825e-05
-2.46517e-05
-2.48014e-05
-2.46374e-05
-2.41558e-05
-2.33528e-05
-2.2228e-05
-2.08222e-05
-1.91918e-05
-1.74877e-05
-1.58338e-05
-1.433e-05
-1.30824e-05
-1.21265e-05
-1.14677e-05
-1.10906e-05
-1.09483e-05
-1.1028e-05
-6.69324e-06
-6.69875e-06
-6.71552e-06
-6.74516e-06
-6.79719e-06
-6.87543e-06
-6.98292e-06
-7.12158e-06
-7.29096e-06
-7.48671e-06
-7.69613e-06
-7.91292e-06
-8.12247e-06
-8.31678e-06
-8.48452e-06
-8.62071e-06
-8.72075e-06
-8.783e-06
-8.80655e-06
-8.79155e-06
-8.73933e-06
-8.65184e-06
-8.53405e-06
-8.3912e-06
-8.23492e-06
-8.07315e-06
-7.92044e-06
-7.7822e-06
-7.67021e-06
-7.58882e-06
-7.53577e-06
-7.50155e-06
-7.47815e-06
-7.4622e-06
-6.64881e-06
-6.61662e-06
-6.60339e-06
-6.60359e-06
-6.62706e-06
-6.67702e-06
-6.75458e-06
-6.85901e-06
-6.98496e-06
-7.13146e-06
-7.28812e-06
-7.44999e-06
-7.60219e-06
-7.74438e-06
-7.86584e-06
-7.96583e-06
-8.04028e-06
-8.08917e-06
-8.11177e-06
-8.10824e-06
-8.07965e-06
-8.02628e-06
-7.95256e-06
-7.85935e-06
-7.75777e-06
-7.64813e-06
-7.54593e-06
-7.45629e-06
-7.39017e-06
-7.34735e-06
-7.33104e-06
-7.34178e-06
-7.36313e-06
-7.39702e-06
-6.64682e-06
-6.60235e-06
-6.57421e-06
-6.55006e-06
-6.5543e-06
-6.59225e-06
-6.66582e-06
-6.7757e-06
-6.91668e-06
-7.09076e-06
-7.27794e-06
-7.48163e-06
-7.66253e-06
-7.82982e-06
-7.96451e-06
-8.07334e-06
-8.15145e-06
-8.2018e-06
-8.22379e-06
-8.21755e-06
-8.18403e-06
-8.12048e-06
-8.03224e-06
-7.91267e-06
-7.78159e-06
-7.62986e-06
-7.49859e-06
-7.38479e-06
-7.31057e-06
-7.27434e-06
-7.27939e-06
-7.31919e-06
-7.35861e-06
-7.4048e-06
-6.6847e-06
-6.62208e-06
-6.57447e-06
-6.52824e-06
-6.51903e-06
-6.55601e-06
-6.64407e-06
-6.78862e-06
-6.98595e-06
-7.24711e-06
-7.53548e-06
-7.86828e-06
-8.14777e-06
-8.40152e-06
-8.59301e-06
-8.74306e-06
-8.8449e-06
-8.9068e-06
-8.92822e-06
-8.90928e-06
-8.85084e-06
-8.7448e-06
-8.59858e-06
-8.39143e-06
-8.16151e-06
-7.88111e-06
-7.6519e-06
-7.45661e-06
-7.33624e-06
-7.28116e-06
-7.2925e-06
-7.35441e-06
-7.41419e-06
-7.4799e-06
-6.77646e-06
-6.69203e-06
-6.62889e-06
-6.56968e-06
-6.55995e-06
-6.61381e-06
-6.74128e-06
-6.95654e-06
-7.25993e-06
-7.68329e-06
-8.16271e-06
-8.75029e-06
-9.21505e-06
-9.62972e-06
-9.92645e-06
-1.0154e-05
-1.03014e-05
-1.03862e-05
-1.04074e-05
-1.0365e-05
-1.02604e-05
-1.00761e-05
-9.82393e-06
-9.45502e-06
-9.04019e-06
-8.50582e-06
-8.09068e-06
-7.74001e-06
-7.52538e-06
-7.41665e-06
-7.4104e-06
-7.47866e-06
-7.55285e-06
-7.64273e-06
-6.92407e-06
-6.81267e-06
-6.7378e-06
-6.67463e-06
-6.67794e-06
-6.76708e-06
-6.9583e-06
-7.27783e-06
-7.73298e-06
-8.39579e-06
-9.16873e-06
-1.01961e-05
-1.09439e-05
-1.16037e-05
-1.20553e-05
-1.23987e-05
-1.26144e-05
-1.27344e-05
-1.27558e-05
-1.26787e-05
-1.25059e-05
-1.22054e-05
-1.17978e-05
-1.11827e-05
-1.04852e-05
-9.51115e-06
-8.81015e-06
-8.22722e-06
-7.87344e-06
-7.6784e-06
-7.63213e-06
-7.69239e-06
-7.77583e-06
-7.89696e-06
-7.12616e-06
-6.98161e-06
-6.89723e-06
-6.83792e-06
-6.86639e-06
-7.00612e-06
-7.27892e-06
-7.72384e-06
-8.35625e-06
-9.32957e-06
-1.04948e-05
-1.22634e-05
-1.33724e-05
-1.43351e-05
-1.49627e-05
-1.54401e-05
-1.57325e-05
-1.58934e-05
-1.59156e-05
-1.57988e-05
-1.55503e-05
-1.51158e-05
-1.45318e-05
-1.36117e-05
-1.25536e-05
-1.08359e-05
-9.75635e-06
-8.8695e-06
-8.35114e-06
-8.04898e-06
-7.9471e-06
-7.98935e-06
-8.0794e-06
-8.24216e-06
-7.37838e-06
-7.19271e-06
-7.10109e-06
-7.05476e-06
-7.12361e-06
-7.33247e-06
-7.70486e-06
-8.28071e-06
-9.07872e-06
-1.03058e-05
-1.19353e-05
-1.49757e-05
-1.64322e-05
-1.77393e-05
-1.85689e-05
-1.92131e-05
-1.96038e-05
-1.9818e-05
-1.98415e-05
-1.96736e-05
-1.93287e-05
-1.8728e-05
-1.79413e-05
-1.66731e-05
-1.52656e-05
-1.22658e-05
-1.07502e-05
-9.6116e-06
-8.93988e-06
-8.52519e-06
-8.35248e-06
-8.36496e-06
-8.45735e-06
-8.67478e-06
-7.6731e-06
-7.43511e-06
-7.33585e-06
-7.30807e-06
-7.42723e-06
-7.71407e-06
-8.18376e-06
-8.85709e-06
-9.66872e-06
-1.10131e-05
-1.29002e-05
-1.87403e-05
-1.99919e-05
-2.14043e-05
-2.23293e-05
-2.30595e-05
-2.35012e-05
-2.37489e-05
-2.37738e-05
-2.3575e-05
-2.31812e-05
-2.24951e-05
-2.1612e-05
-2.02297e-05
-1.90263e-05
-1.31983e-05
-1.15104e-05
-1.02306e-05
-9.55152e-06
-9.0543e-06
-8.81324e-06
-8.79275e-06
-8.89072e-06
-9.18532e-06
-8.00294e-06
-7.70155e-06
-7.60043e-06
-7.60972e-06
-7.81528e-06
-8.23652e-06
-8.88905e-06
-9.68319e-06
-1.05686e-05
-1.27373e-05
-9.01102e-06
-2.16516e-05
-2.28385e-05
-2.47039e-05
-2.58559e-05
-2.68118e-05
-2.7379e-05
-2.76875e-05
-2.77135e-05
-2.74562e-05
-2.69394e-05
-2.60299e-05
-2.49202e-05
-2.30791e-05
-2.19706e-05
-9.13559e-06
-1.32047e-05
-1.11081e-05
-1.03892e-05
-9.78886e-06
-9.39693e-06
-9.2936e-06
-9.37543e-06
-9.76768e-06
-8.35356e-06
-7.97224e-06
-7.86744e-06
-7.9147e-06
-8.20987e-06
-8.77144e-06
-9.59151e-06
-1.0466e-05
-1.08372e-05
-6.31274e-06
-3.13723e-05
-2.65701e-05
-2.72931e-05
-2.82896e-05
-2.91201e-05
-2.96749e-05
-2.99729e-05
-2.99991e-05
-2.97529e-05
-2.92487e-05
-2.84652e-05
-2.75098e-05
-2.67977e-05
-3.14675e-05
-7.20426e-06
-1.15236e-05
-1.12153e-05
-1.05194e-05
-9.98201e-06
-9.79037e-06
-9.8621e-06
-1.03903e-05
-8.70027e-06
-8.2485e-06
-8.15063e-06
-8.26605e-06
-8.72583e-06
-9.6099e-06
-1.10595e-05
-1.31638e-05
-1.65506e-05
-2.00013e-05
-2.87861e-05
-2.51098e-05
-2.71906e-05
-2.9192e-05
-3.07526e-05
-3.18655e-05
-3.25909e-05
-3.29532e-05
-3.29797e-05
-3.26705e-05
-3.19991e-05
-3.09413e-05
-2.94399e-05
-2.75067e-05
-2.54963e-05
-2.93823e-05
-2.04734e-05
-1.7099e-05
-1.38367e-05
-1.19446e-05
-1.08223e-05
-1.03726e-05
-1.03707e-05
-1.10327e-05
-9.0203e-06
-8.5084e-06
-8.40617e-06
-8.56033e-06
-9.11796e-06
-1.01725e-05
-1.18746e-05
-1.42546e-05
-1.75527e-05
-2.07347e-05
-2.59307e-05
-2.71584e-05
-2.86928e-05
-3.02734e-05
-3.17633e-05
-3.28864e-05
-3.36532e-05
-3.40394e-05
-3.40657e-05
-3.37321e-05
-3.30185e-05
-3.19476e-05
-3.05112e-05
-2.8976e-05
-2.74786e-05
-2.63629e-05
-2.12132e-05
-1.80786e-05
-1.49021e-05
-1.27519e-05
-1.14125e-05
-1.08518e-05
-1.08378e-05
-1.16389e-05
-9.32416e-06
-8.75202e-06
-8.64579e-06
-8.83442e-06
-9.47837e-06
-1.0683e-05
-1.26017e-05
-1.52563e-05
-1.87599e-05
-2.24073e-05
-2.65151e-05
-2.85628e-05
-3.02594e-05
-3.18558e-05
-3.34268e-05
-3.45866e-05
-3.53837e-05
-3.57797e-05
-3.5806e-05
-3.54624e-05
-3.47183e-05
-3.36103e-05
-3.20924e-05
-3.05393e-05
-2.88919e-05
-2.69026e-05
-2.28399e-05
-1.92522e-05
-1.58833e-05
-1.34798e-05
-1.19593e-05
-1.13038e-05
-1.12767e-05
-1.21784e-05
-9.58781e-06
-8.96444e-06
-8.84715e-06
-9.04845e-06
-9.73398e-06
-1.10099e-05
-1.30193e-05
-1.57801e-05
-1.93234e-05
-2.31035e-05
-2.69737e-05
-2.94131e-05
-3.13218e-05
-3.29408e-05
-3.45408e-05
-3.57041e-05
-3.65073e-05
-3.69022e-05
-3.69282e-05
-3.65851e-05
-3.58341e-05
-3.47206e-05
-3.31709e-05
-3.15888e-05
-2.97255e-05
-2.7332e-05
-2.35134e-05
-1.98018e-05
-1.64055e-05
-1.39168e-05
-1.23378e-05
-1.16586e-05
-1.16474e-05
-1.26305e-05
-9.80503e-06
-9.14278e-06
-9.01507e-06
-9.22174e-06
-9.93199e-06
-1.12521e-05
-1.33173e-05
-1.61468e-05
-1.97265e-05
-2.3585e-05
-2.74137e-05
-3.00726e-05
-3.20908e-05
-3.37563e-05
-3.53884e-05
-3.65531e-05
-3.73547e-05
-3.77451e-05
-3.77712e-05
-3.74327e-05
-3.66829e-05
-3.55669e-05
-3.39834e-05
-3.23507e-05
-3.03716e-05
-2.77571e-05
-2.39849e-05
-2.02007e-05
-1.67793e-05
-1.42405e-05
-1.2633e-05
-1.19476e-05
-1.19525e-05
-1.29819e-05
-9.97125e-06
-9.2813e-06
-9.14374e-06
-9.34936e-06
-1.00695e-05
-1.14099e-05
-1.35009e-05
-1.63653e-05
-1.99692e-05
-2.38868e-05
-2.7737e-05
-3.05056e-05
-3.26104e-05
-3.43085e-05
-3.59579e-05
-3.71216e-05
-3.79212e-05
-3.83084e-05
-3.8335e-05
-3.80006e-05
-3.72534e-05
-3.61382e-05
-3.45372e-05
-3.28714e-05
-3.08145e-05
-2.80784e-05
-2.4286e-05
-2.0447e-05
-1.70106e-05
-1.44513e-05
-1.28386e-05
-1.21605e-05
-1.21839e-05
-1.32548e-05
-1.00854e-05
-9.37912e-06
-9.23531e-06
-9.43959e-06
-1.01651e-05
-1.15178e-05
-1.36266e-05
-1.65171e-05
-2.01482e-05
-2.41135e-05
-2.80021e-05
-3.08398e-05
-3.29986e-05
-3.47251e-05
-3.63915e-05
-3.75615e-05
-3.83642e-05
-3.87524e-05
-3.87803e-05
-3.84471e-05
-3.76987e-05
-3.65786e-05
-3.49611e-05
-3.32671e-05
-3.11553e-05
-2.83493e-05
-2.45192e-05
-2.06347e-05
-1.71767e-05
-1.46002e-05
-1.29827e-05
-1.23091e-05
-1.23437e-05
-1.3439e-05
-1.01474e-05
-9.43546e-06
-9.28942e-06
-9.49337e-06
-1.02219e-05
-1.15822e-05
-1.37039e-05
-1.66148e-05
-2.02746e-05
-2.42783e-05
-2.82089e-05
-3.10895e-05
-3.32802e-05
-3.50306e-05
-3.67147e-05
-3.78981e-05
-3.87099e-05
-3.91038e-05
-3.91337e-05
-3.87989e-05
-3.80447e-05
-3.69138e-05
-3.52805e-05
-3.35635e-05
-3.14195e-05
-2.85695e-05
-2.4697e-05
-2.07739e-05
-1.7289e-05
-1.46951e-05
-1.30694e-05
-1.23946e-05
-1.24322e-05
-1.35367e-05
-1.01576e-05
-9.45085e-06
-9.30657e-06
-9.51114e-06
-1.02403e-05
-1.16028e-05
-1.37326e-05
-1.66582e-05
-2.03466e-05
-2.43806e-05
-2.83591e-05
-3.12622e-05
-3.34633e-05
-3.52323e-05
-3.69327e-05
-3.81358e-05
-3.89622e-05
-3.9366e-05
-3.93987e-05
-3.90597e-05
-3.82962e-05
-3.71502e-05
-3.55037e-05
-3.37704e-05
-3.16161e-05
-2.87414e-05
-2.48191e-05
-2.08629e-05
-1.73465e-05
-1.47359e-05
-1.30994e-05
-1.24182e-05
-1.24508e-05
-1.35494e-05
-1.01179e-05
-9.42751e-06
-9.2886e-06
-9.49343e-06
-1.02183e-05
-1.15741e-05
-1.37014e-05
-1.66291e-05
-2.03469e-05
-2.44022e-05
-2.84532e-05
-3.13583e-05
-3.3539e-05
-3.53196e-05
-3.70327e-05
-3.82607e-05
-3.91055e-05
-3.95233e-05
-3.95603e-05
-3.92158e-05
-3.84415e-05
-3.7278e-05
-3.56237e-05
-3.38825e-05
-3.17485e-05
-2.88681e-05
-2.48709e-05
-2.08891e-05
-1.73384e-05
-1.47174e-05
-1.30722e-05
-1.23828e-05
-1.24048e-05
-1.34948e-05
-1.00305e-05
-9.36749e-06
-9.23454e-06
-9.43324e-06
-1.01386e-05
-1.14621e-05
-1.3553e-05
-1.64424e-05
-2.01687e-05
-2.42312e-05
-2.84392e-05
-3.13254e-05
-3.3435e-05
-3.52026e-05
-3.69038e-05
-3.81492e-05
-3.90093e-05
-3.94421e-05
-3.94851e-05
-3.91376e-05
-3.8359e-05
-3.71891e-05
-3.55545e-05
-3.38321e-05
-3.1755e-05
-2.88977e-05
-2.47433e-05
-2.07499e-05
-1.71846e-05
-1.45894e-05
-1.29623e-05
-1.22792e-05
-1.22917e-05
-1.33478e-05
-9.90288e-06
-9.27866e-06
-9.15304e-06
-9.3401e-06
-1.00115e-05
-1.12771e-05
-1.32958e-05
-1.61014e-05
-1.98169e-05
-2.38046e-05
-2.83759e-05
-3.11793e-05
-3.31271e-05
-3.49112e-05
-3.66062e-05
-3.78709e-05
-3.87423e-05
-3.91899e-05
-3.92416e-05
-3.88973e-05
-3.81241e-05
-3.69531e-05
-3.53383e-05
-3.36159e-05
-3.17097e-05
-2.89016e-05
-2.43845e-05
-2.04617e-05
-1.68999e-05
-1.43714e-05
-1.279e-05
-1.21275e-05
-1.21291e-05
-1.31281e-05
-9.75275e-06
-9.16539e-06
-9.03983e-06
-9.19517e-06
-9.78992e-06
-1.09195e-05
-1.27344e-05
-1.52668e-05
-1.87286e-05
-2.21899e-05
-2.80649e-05
-3.09908e-05
-3.2559e-05
-3.42977e-05
-3.59069e-05
-3.71471e-05
-3.80034e-05
-3.84566e-05
-3.852e-05
-3.81944e-05
-3.74586e-05
-3.63378e-05
-3.48278e-05
-3.31805e-05
-3.16736e-05
-2.86472e-05
-2.28448e-05
-1.94628e-05
-1.61573e-05
-1.38821e-05
-1.24703e-05
-1.1896e-05
-1.1913e-05
-1.28233e-05
-9.57957e-06
-9.04225e-06
-8.92255e-06
-9.05021e-06
-9.57114e-06
-1.05671e-05
-1.21816e-05
-1.44852e-05
-1.81283e-05
-2.22104e-05
-2.97597e-05
-2.9019e-05
-3.18038e-05
-3.42626e-05
-3.60458e-05
-3.73493e-05
-3.8219e-05
-3.86837e-05
-3.87649e-05
-3.84656e-05
-3.77514e-05
-3.6607e-05
-3.49457e-05
-3.26148e-05
-2.98643e-05
-3.02986e-05
-2.30839e-05
-1.90396e-05
-1.55266e-05
-1.34414e-05
-1.21794e-05
-1.16784e-05
-1.16954e-05
-1.24934e-05
-9.38364e-06
-8.90872e-06
-8.78545e-06
-8.85868e-06
-9.24131e-06
-9.94826e-06
-1.09496e-05
-1.19269e-05
-1.20545e-05
-5.48949e-06
-4.00585e-05
-3.31156e-05
-3.37633e-05
-3.48815e-05
-3.58846e-05
-3.66007e-05
-3.70278e-05
-3.71271e-05
-3.69034e-05
-3.63726e-05
-3.55763e-05
-3.4603e-05
-3.41392e-05
-4.10323e-05
-6.36375e-06
-1.31618e-05
-1.31597e-05
-1.23647e-05
-1.1654e-05
-1.13717e-05
-1.14484e-05
-1.21501e-05
-9.19904e-06
-8.79096e-06
-8.6824e-06
-8.74767e-06
-9.10363e-06
-9.79537e-06
-1.0893e-05
-1.23786e-05
-1.45521e-05
-1.80604e-05
-1.78298e-05
-2.78604e-05
-2.9998e-05
-3.23536e-05
-3.39298e-05
-3.52593e-05
-3.61294e-05
-3.6666e-05
-3.67926e-05
-3.65087e-05
-3.58255e-05
-3.47546e-05
-3.33542e-05
-3.12421e-05
-2.92335e-05
-2.01631e-05
-1.99038e-05
-1.6254e-05
-1.39207e-05
-1.24668e-05
-1.1564e-05
-1.12183e-05
-1.12464e-05
-1.18503e-05
-9.03792e-06
-8.68934e-06
-8.59064e-06
-8.64244e-06
-8.95364e-06
-9.57296e-06
-1.05657e-05
-1.19762e-05
-1.38252e-05
-1.61162e-05
-2.03992e-05
-2.63711e-05
-2.81392e-05
-2.99401e-05
-3.1301e-05
-3.25678e-05
-3.34237e-05
-3.39589e-05
-3.41046e-05
-3.38748e-05
-3.32819e-05
-3.22984e-05
-3.09783e-05
-2.93053e-05
-2.77105e-05
-2.23299e-05
-1.78608e-05
-1.55646e-05
-1.36266e-05
-1.22255e-05
-1.13737e-05
-1.10386e-05
-1.10522e-05
-1.15861e-05
-8.91793e-06
-8.61908e-06
-8.54358e-06
-8.60591e-06
-8.90937e-06
-9.50864e-06
-1.04775e-05
-1.18835e-05
-1.38173e-05
-1.63186e-05
-1.95502e-05
-2.33233e-05
-2.53551e-05
-2.70703e-05
-2.84258e-05
-2.97279e-05
-3.0606e-05
-3.11488e-05
-3.13011e-05
-3.10822e-05
-3.04863e-05
-2.94999e-05
-2.81529e-05
-2.65031e-05
-2.47022e-05
-2.14273e-05
-1.82222e-05
-1.5671e-05
-1.3626e-05
-1.21912e-05
-1.13166e-05
-1.09488e-05
-1.09225e-05
-1.1389e-05
-8.84032e-06
-8.58619e-06
-8.5389e-06
-8.61847e-06
-8.91509e-06
-9.47863e-06
-1.03739e-05
-1.16658e-05
-1.3412e-05
-1.5661e-05
-1.82551e-05
-2.10706e-05
-2.2966e-05
-2.45899e-05
-2.59433e-05
-2.71971e-05
-2.80465e-05
-2.85725e-05
-2.87266e-05
-2.85293e-05
-2.79707e-05
-2.70529e-05
-2.57617e-05
-2.42202e-05
-2.24959e-05
-2.00932e-05
-1.75635e-05
-1.52798e-05
-1.34324e-05
-1.2101e-05
-1.12739e-05
-1.09034e-05
-1.08483e-05
-1.12522e-05
-8.80583e-06
-8.597e-06
-8.5888e-06
-8.70079e-06
-9.00676e-06
-9.54788e-06
-1.03749e-05
-1.15364e-05
-1.30638e-05
-1.49619e-05
-1.70863e-05
-1.93317e-05
-2.11137e-05
-2.27299e-05
-2.40956e-05
-2.52823e-05
-2.61004e-05
-2.66268e-05
-2.6788e-05
-2.65984e-05
-2.60653e-05
-2.51992e-05
-2.39803e-05
-2.25276e-05
-2.08783e-05
-1.89193e-05
-1.68368e-05
-1.49035e-05
-1.32891e-05
-1.20922e-05
-1.13208e-05
-1.09435e-05
-1.08509e-05
-1.11762e-05
-8.80523e-06
-8.65024e-06
-8.68743e-06
-8.84231e-06
-9.17036e-06
-9.70383e-06
-1.04798e-05
-1.15309e-05
-1.28712e-05
-1.44919e-05
-1.62843e-05
-1.81668e-05
-1.98374e-05
-2.13866e-05
-2.26899e-05
-2.38059e-05
-2.45893e-05
-2.50714e-05
-2.52241e-05
-2.50606e-05
-2.45734e-05
-2.37744e-05
-2.26564e-05
-2.13217e-05
-1.97857e-05
-1.80856e-05
-1.63152e-05
-1.46604e-05
-1.32548e-05
-1.21816e-05
-1.14565e-05
-1.10621e-05
-1.09214e-05
-1.11551e-05
-8.81976e-06
-8.71687e-06
-8.78389e-06
-8.97338e-06
-9.32478e-06
-9.8633e-06
-1.06162e-05
-1.16051e-05
-1.2835e-05
-1.42902e-05
-1.5902e-05
-1.75939e-05
-1.91996e-05
-2.06996e-05
-2.19739e-05
-2.3032e-05
-2.37855e-05
-2.4244e-05
-2.43922e-05