/*--------------------------------*- C++ -*----------------------------------*\
| =========                 |                                                 |
| \\      /  F ield         | OpenFOAM: The Open Source CFD Toolbox           |
|  \\    /   O peration     | Version:  2112                                  |
|   \\  /    A nd           | Website:  www.openfoam.com                      |
|    \\/     M anipulation  |                                                 |
\*---------------------------------------------------------------------------*/
FoamFile
{
    version     2.0;
    format      ascii;
    arch        "LSB;label=32;scalar=64";
    class       surfaceScalarField;
    location    "2.6";
    object      phi;
}
// * * * * * * * * * * * * * * * * * * * * * * * * * * * * * * * * * * * * * //

dimensions      [0 3 -1 0 0 0 0];

oriented        oriented;

internalField   nonuniform List<scalar> 
188215
(
8.54924e-10
1.92843e-09
-2.78335e-09
2.98774e-09
1.05207e-09
-3.18488e-09
5.60491e-09
1.70881e-10
-2.78806e-09
8.43034e-09
-6.6949e-10
-2.15593e-09
1.12881e-08
-1.1482e-09
-1.70951e-09
1.40914e-08
-1.31016e-09
-1.4932e-09
1.67913e-08
-1.24601e-09
-1.45391e-09
1.92788e-08
-9.50165e-10
-1.53733e-09
2.13133e-08
-3.20274e-10
-1.7142e-09
2.27379e-08
4.45636e-10
-1.87025e-09
2.33381e-08
1.41221e-09
-2.01238e-09
2.27055e-08
2.78821e-09
-2.15562e-09
2.10056e-08
3.95866e-09
-2.25875e-09
1.83165e-08
4.99206e-09
-2.30293e-09
1.49035e-08
5.72718e-09
-2.31425e-09
1.09405e-08
6.27237e-09
-2.30935e-09
6.63526e-09
6.60826e-09
-2.30302e-09
2.16563e-09
6.77136e-09
-2.30172e-09
-2.28737e-09
6.76113e-09
-2.30813e-09
-6.5433e-09
6.57771e-09
-2.32177e-09
-1.04254e-08
6.22198e-09
-2.33985e-09
-1.37276e-08
5.65782e-09
-2.35569e-09
-1.628e-08
4.90698e-09
-2.35451e-09
-1.78212e-08
3.86214e-09
-2.32096e-09
-1.82816e-08
2.69212e-09
-2.23173e-09
-1.74994e-08
1.33072e-09
-2.11293e-09
-1.5892e-08
4.10512e-10
-2.01787e-09
-1.36557e-08
-2.80974e-10
-1.95537e-09
-1.09891e-08
-7.0026e-10
-1.96633e-09
-8.15567e-09
-6.15821e-10
-2.21762e-09
-5.38787e-09
2.16675e-11
-2.78947e-09
-2.73097e-09
9.14356e-10
-3.57125e-09
-6.72525e-10
2.13153e-09
-4.18998e-09
3.13248e-09
-3.80501e-09
-9.41057e-10
6.80925e-09
-3.93976e-09
1.44505e-09
6.81e-09
-8.14404e-09
4.84669e-09
6.22865e-09
-9.45941e-09
8.21466e-09
5.80741e-09
-9.84487e-09
1.13664e-08
5.9196e-09
-1.02195e-08
1.4337e-08
6.59088e-09
-1.08717e-08
1.71571e-08
7.81529e-09
-1.18814e-08
1.97859e-08
9.68155e-09
-1.32604e-08
2.21624e-08
1.23019e-08
-1.49987e-08
2.38505e-08
1.59319e-08
-1.71744e-08
2.45701e-08
2.03935e-08
-1.97009e-08
2.38641e-08
2.59158e-08
-2.24216e-08
2.20152e-08
3.07971e-08
-2.49895e-08
1.91371e-08
3.51171e-08
-2.72468e-08
1.55351e-08
3.84225e-08
-2.90933e-08
1.13849e-08
4.09326e-08
-3.05101e-08
6.89359e-09
4.25732e-08
-3.14736e-08
2.23922e-09
4.34077e-08
-3.19819e-08
-2.39699e-09
4.34256e-08
-3.20283e-08
-6.83408e-09
4.26273e-08
-3.16125e-08
-1.08955e-08
4.1025e-08
-3.07416e-08
-1.43758e-08
3.85565e-08
-2.94183e-08
-1.71045e-08
3.53031e-08
-2.76675e-08
-1.87793e-08
3.10489e-08
-2.55119e-08
-1.92961e-08
2.62675e-08
-2.30586e-08
-1.83683e-08
2.08793e-08
-2.04764e-08
-1.64597e-08
1.66327e-08
-1.81307e-08
-1.38318e-08
1.32901e-08
-1.6199e-08
-1.08602e-08
1.11148e-08
-1.47868e-08
-7.55955e-09
9.91652e-09
-1.38329e-08
-3.93508e-09
9.65382e-09
-1.32566e-08
-3.89448e-10
1.01314e-08
-1.27627e-08
1.94416e-09
1.08472e-08
-1.10493e-08
1.06256e-08
-5.54899e-09
-2.21672e-09
1.30009e-08
-3.97494e-09
3.31471e-10
1.40378e-08
-9.77602e-09
4.23639e-09
1.41522e-08
-1.18285e-08
8.14052e-09
1.45413e-08
-1.2638e-08
1.17842e-08
1.56441e-08
-1.33682e-08
1.52206e-08
1.75703e-08
-1.44159e-08
1.85566e-08
2.0415e-08
-1.59356e-08
2.18162e-08
2.44177e-08
-1.79958e-08
2.48873e-08
2.98619e-08
-2.0631e-08
2.72734e-08
3.74221e-08
-2.38763e-08
2.84819e-08
4.68131e-08
-2.7628e-08
2.75712e-08
5.85238e-08
-3.16972e-08
2.52112e-08
6.87172e-08
-3.55602e-08
2.16619e-08
7.7631e-08
-3.89646e-08
1.74088e-08
8.44311e-08
-4.17555e-08
1.26214e-08
8.96126e-08
-4.38925e-08
7.5128e-09
9.30224e-08
-4.53406e-08
2.24883e-09
9.47724e-08
-4.61007e-08
-2.99598e-09
9.48338e-08
-4.61634e-08
-8.04698e-09
9.32068e-08
-4.55285e-08
-1.27393e-08
8.99227e-08
-4.42054e-08
-1.68596e-08
8.4871e-08
-4.21943e-08
-2.02417e-08
7.82172e-08
-3.9532e-08
-2.24e-08
6.94713e-08
-3.62641e-08
-2.30826e-08
5.95048e-08
-3.25546e-08
-2.16082e-08
4.80751e-08
-2.86703e-08
-1.8925e-08
3.9105e-08
-2.51554e-08
-1.54625e-08
3.20458e-08
-2.22182e-08
-1.1646e-08
2.72772e-08
-1.99788e-08
-7.52033e-09
2.41759e-08
-1.83851e-08
-3.11245e-09
2.2501e-08
-1.72551e-08
1.19264e-09
2.19064e-08
-1.60801e-08
3.71455e-09
2.16895e-08
-1.33642e-08
2.00898e-08
-5.74961e-09
-2.96133e-09
1.94906e-08
-3.52832e-09
-1.30011e-10
2.12956e-08
-1.00891e-08
4.3781e-09
2.20815e-08
-1.24374e-08
9.00164e-09
2.3317e-08
-1.33992e-08
1.34041e-08
2.55142e-08
-1.42726e-08
1.76772e-08
2.88209e-08
-1.55237e-08
2.20335e-08
3.34144e-08
-1.73558e-08
2.66093e-08
3.97233e-08
-1.98814e-08
3.12989e-08
4.83288e-08
-2.31564e-08
3.53237e-08
6.06323e-08
-2.7235e-08
3.76541e-08
7.64537e-08
-3.1971e-08
3.62039e-08
9.71818e-08
-3.72078e-08
3.26065e-08
1.14465e-07
-4.21502e-08
2.75146e-08
1.29217e-07
-4.64938e-08
2.17801e-08
1.40204e-07
-5.00389e-08
1.55325e-08
1.48586e-07
-5.27256e-08
8.98781e-09
1.54094e-07
-5.45267e-08
2.29284e-09
1.56933e-07
-5.54654e-08
-4.38214e-09
1.57043e-07
-5.55343e-08
-1.08662e-08
1.54424e-07
-5.4733e-08
-1.70117e-08
1.49136e-07
-5.30682e-08
-2.25985e-08
1.40975e-07
-5.05171e-08
-2.74969e-08
1.30224e-07
-4.71083e-08
-3.08476e-08
1.1573e-07
-4.29076e-08
-3.2006e-08
9.87887e-08
-3.81255e-08
-2.93167e-08
7.84699e-08
-3.30841e-08
-2.4896e-08
6.32885e-08
-2.86043e-08
-1.96641e-08
5.16747e-08
-2.48607e-08
-1.43132e-08
4.39409e-08
-2.20147e-08
-8.88286e-09
3.87307e-08
-1.99851e-08
-3.35755e-09
3.55209e-08
-1.85452e-08
1.84886e-09
3.37918e-08
-1.70918e-08
4.73704e-09
3.27476e-08
-1.39463e-08
3.0123e-08
-5.29622e-09
-3.24308e-09
2.57742e-08
-3.04054e-09
1.07172e-10
2.81764e-08
-1.02311e-08
5.48354e-09
2.95355e-08
-1.28304e-08
1.10839e-08
3.16063e-08
-1.38898e-08
1.65506e-08
3.49435e-08
-1.48959e-08
2.20686e-08
3.96913e-08
-1.63883e-08
2.80364e-08
4.60655e-08
-1.86189e-08
3.48379e-08
5.46706e-08
-2.17488e-08
4.2472e-08
6.65308e-08
-2.58361e-08
4.97324e-08
8.43473e-08
-3.09754e-08
5.44096e-08
1.08702e-07
-3.69259e-08
5.16958e-08
1.43674e-07
-4.37786e-08
4.55805e-08
1.70743e-07
-5.01629e-08
3.76438e-08
1.9297e-07
-5.58167e-08
2.93332e-08
2.08948e-07
-6.04334e-08
2.05778e-08
2.21196e-07
-6.38545e-08
1.15593e-08
2.29223e-07
-6.61104e-08
2.38934e-09
2.33378e-07
-6.72752e-08
-6.76064e-09
2.33543e-07
-6.73502e-08
-1.57177e-08
2.29715e-07
-6.63342e-08
-2.43668e-08
2.2201e-07
-6.42241e-08
-3.25159e-08
2.1007e-07
-6.09457e-08
-4.02286e-08
1.94405e-07
-5.64683e-08
-4.60369e-08
1.72495e-07
-5.09574e-08
-4.83686e-08
1.45853e-07
-4.47331e-08
-4.31974e-08
1.11377e-07
-3.80782e-08
-3.54423e-08
8.79344e-08
-3.2401e-08
-2.71205e-08
7.09759e-08
-2.7623e-08
-1.93303e-08
6.01553e-08
-2.40046e-08
-1.20045e-08
5.28282e-08
-2.14233e-08
-4.93748e-09
4.80868e-08
-1.96329e-08
1.51536e-09
4.52703e-08
-1.79314e-08
5.15277e-09
4.35141e-08
-1.44038e-08
4.00792e-08
-4.80335e-09
-3.22189e-09
3.16133e-08
-2.61721e-09
9.73381e-10
3.45095e-08
-1.05283e-08
7.54348e-09
3.6401e-08
-1.34356e-08
1.44355e-08
3.93366e-08
-1.46223e-08
2.12902e-08
4.39071e-08
-1.58183e-08
2.8441e-08
5.01979e-08
-1.76574e-08
3.65857e-08
5.83634e-08
-2.04425e-08
4.66263e-08
6.90125e-08
-2.43825e-08
5.89758e-08
8.36523e-08
-2.94711e-08
7.22113e-08
1.06934e-07
-3.58222e-08
8.18153e-08
1.41898e-07
-4.27998e-08
7.63368e-08
2.00765e-07
-5.16125e-08
6.55578e-08
2.41305e-07
-5.97828e-08
5.29698e-08
2.72876e-07
-6.73183e-08
4.07639e-08
2.94706e-07
-7.35513e-08
2.82466e-08
3.11662e-07
-7.79493e-08
1.54836e-08
3.22766e-07
-8.07808e-08
2.54323e-09
3.28545e-07
-8.22269e-08
-1.03796e-08
3.28777e-07
-8.23108e-08
-2.30872e-08
3.23453e-07
-8.10304e-08
-3.55057e-08
3.12788e-07
-7.83595e-08
-4.75498e-08
2.9623e-07
-7.41161e-08
-5.98934e-08
2.74776e-07
-6.80277e-08
-7.02989e-08
2.43537e-07
-6.06364e-08
-7.52744e-08
2.03457e-07
-5.26279e-08
-6.49652e-08
1.45076e-07
-4.40088e-08
-5.11641e-08
1.1146e-07
-3.73271e-08
-3.79952e-08
8.91763e-08
-3.13693e-08
-2.67359e-08
7.57012e-08
-2.68052e-08
-1.68976e-08
6.64806e-08
-2.34907e-08
-7.80632e-09
6.02201e-08
-2.12246e-08
3.24906e-10
5.63214e-08
-1.91823e-08
5.19883e-09
5.38069e-08
-1.51667e-08
4.96931e-08
-4.41509e-09
-2.98953e-09
3.68344e-08
-2.23156e-09
2.41103e-09
4.01601e-08
-1.10512e-08
1.05628e-08
4.26165e-08
-1.43672e-08
1.91143e-08
4.65292e-08
-1.57442e-08
2.76853e-08
5.25428e-08
-1.72068e-08
3.67728e-08
6.06156e-08
-1.95052e-08
4.7467e-08
7.06563e-08
-2.29871e-08
6.16106e-08
8.27623e-08
-2.78934e-08
8.07582e-08
9.85466e-08
-3.40417e-08
1.04203e-07
1.24878e-07
-4.13893e-08
1.24621e-07
1.69822e-07
-4.83419e-08
1.12836e-07
2.71531e-07
-5.89803e-08
9.36705e-08
3.29227e-07
-6.87569e-08
7.40843e-08
3.71309e-07
-7.88466e-08
5.65695e-08
3.99688e-07
-8.74674e-08
3.89225e-08
4.22222e-07
-9.29125e-08
2.09731e-08
4.37064e-07
-9.63483e-08
2.76514e-09
4.44837e-07
-9.80842e-08
-1.54317e-08
4.45154e-07
-9.81801e-08
-3.3345e-08
4.38e-07
-9.66333e-08
-5.0924e-08
4.23745e-07
-9.33786e-08
-6.83102e-08
4.01722e-07
-8.81058e-08
-8.76681e-08
3.73773e-07
-7.96383e-08
-1.06405e-07
3.31974e-07
-6.96996e-08
-1.17533e-07
2.74682e-07
-6.00973e-08
-9.60358e-08
1.73222e-07
-4.96427e-08
-7.20504e-08
1.30495e-07
-4.302e-08
-5.19905e-08
1.05212e-07
-3.60961e-08
-3.63607e-08
9.06153e-08
-3.05438e-08
-2.35309e-08
8.00122e-08
-2.63614e-08
-1.19253e-08
7.21174e-08
-2.35029e-08
-1.47512e-09
6.68985e-08
-2.10273e-08
5.02609e-09
6.35822e-08
-1.62766e-08
5.87968e-08
-4.07763e-09
-2.54627e-09
4.12194e-08
-1.83873e-09
4.47835e-09
4.49244e-08
-1.17888e-08
1.47152e-08
4.80181e-08
-1.56384e-08
2.54214e-08
5.31002e-08
-1.72772e-08
3.61152e-08
6.09367e-08
-1.90877e-08
4.7315e-08
7.13716e-08
-2.19558e-08
6.03182e-08
8.39174e-08
-2.62643e-08
7.81067e-08
9.72623e-08
-3.22884e-08
1.04436e-07
1.11644e-07
-3.94268e-08
1.4455e-07
1.32527e-07
-4.77632e-08
1.89186e-07
1.75172e-07
-4.99855e-08
1.63928e-07
3.56791e-07
-6.00018e-08
1.31709e-07
4.32684e-07
-7.1238e-08
1.02928e-07
4.85489e-07
-8.53992e-08
7.87206e-08
5.21567e-07
-9.76711e-08
5.41327e-08
5.50854e-07
-1.04044e-07
2.88386e-08
5.70358e-07
-1.08e-07
3.07949e-09
5.80576e-07
-1.0998e-07
-2.268e-08
5.81002e-07
-1.10089e-07
-4.79754e-08
5.71619e-07
-1.08323e-07
-7.25651e-08
5.52907e-07
-1.04572e-07
-9.67448e-08
5.24296e-07
-9.83941e-08
-1.25416e-07
4.88733e-07
-8.62887e-08
-1.57252e-07
4.36105e-07
-7.22958e-08
-1.81647e-07
3.60371e-07
-6.12938e-08
-1.35213e-07
1.78192e-07
-5.14031e-08
-9.4862e-08
1.3966e-07
-4.9516e-08
-6.75426e-08
1.19538e-07
-4.16446e-08
-4.79197e-08
1.06201e-07
-3.52084e-08
-3.21876e-08
9.43187e-08
-3.00385e-08
-1.76736e-08
8.40885e-08
-2.64852e-08
-4.2886e-09
7.69628e-08
-2.34493e-08
4.55019e-09
7.25023e-08
-1.77589e-08
6.70455e-08
-3.69854e-09
-1.87997e-09
4.45183e-08
-1.41895e-09
7.22152e-09
4.85467e-08
-1.27238e-08
2.01288e-08
5.23562e-08
-1.72454e-08
3.36163e-08
5.88289e-08
-1.92162e-08
4.69874e-08
6.90073e-08
-2.14418e-08
6.04758e-08
8.28286e-08
-2.49454e-08
7.49935e-08
9.9551e-08
-3.01513e-08
9.4075e-08
1.1553e-07
-3.73492e-08
1.24373e-07
1.27451e-07
-4.61039e-08
1.87674e-07
1.23451e-07
-5.42254e-08
2.82428e-07
1.37689e-07
-5.72714e-08
2.28327e-07
4.6459e-07
-5.36986e-08
1.77064e-07
5.46815e-07
-6.28677e-08
1.38506e-07
6.06456e-07
-8.24078e-08
1.06809e-07
6.52498e-07
-9.92343e-08
7.37375e-08
6.89733e-07
-1.05807e-07
3.90653e-08
7.15427e-07
-1.10396e-07
3.52095e-09
7.28758e-07
-1.12638e-07
-3.20401e-08
7.29316e-07
-1.12753e-07
-6.67692e-08
7.17086e-07
-1.10738e-07
-9.99565e-08
6.92455e-07
-1.06362e-07
-1.31825e-07
6.56159e-07
-9.99957e-08
-1.70578e-07
6.10819e-07
-8.33323e-08
-2.21745e-07
5.51259e-07
-6.39875e-08
-2.74651e-07
4.68403e-07
-5.51262e-08
-1.76863e-07
1.39549e-07
-5.9145e-08
-1.14413e-07
1.33418e-07
-5.62085e-08
-8.29048e-08
1.36531e-07
-4.85016e-08
-6.15049e-08
1.25403e-07
-4.06018e-08
-4.34493e-08
1.1069e-07
-3.44267e-08
-2.55589e-08
9.63477e-08
-3.01496e-08
-8.34782e-09
8.62352e-08
-2.64835e-08
3.68524e-09
8.00874e-08
-1.96181e-08
7.39659e-08
-3.23516e-09
-7.72253e-10
4.62531e-08
-9.62494e-10
1.09564e-08
5.06618e-08
-1.38438e-08
2.74553e-08
5.505e-08
-1.91926e-08
4.50068e-08
6.28577e-08
-2.15803e-08
6.27361e-08
7.55966e-08
-2.43186e-08
8.01851e-08
9.39469e-08
-2.85673e-08
9.65754e-08
1.17905e-07
-3.47444e-08
1.11669e-07
1.44318e-07
-4.38817e-08
1.25074e-07
1.68011e-07
-5.3966e-08
1.75555e-07
1.43402e-07
-7.04315e-08
3.9898e-07
-8.57361e-08
3.10624e-07
5.79311e-07
-2.63655e-08
2.40454e-07
6.43341e-07
-2.63563e-08
1.93175e-07
6.99198e-07
-4.54634e-08
1.51893e-07
7.57574e-07
-6.37947e-08
1.05146e-07
8.03017e-07
-6.65369e-08
5.51869e-08
8.35002e-07
-6.96163e-08
4.14569e-09
8.51076e-07
-7.12764e-08
-4.69223e-08
8.51748e-07
-7.13638e-08
-9.69802e-08
8.37022e-07
-6.98783e-08
-1.43964e-07
8.06386e-07
-6.69468e-08
-1.85676e-07
7.62267e-07
-6.43947e-08
-2.33739e-07
7.05072e-07
-4.61906e-08
-3.05153e-07
6.49935e-07
-2.72614e-08
-3.93233e-07
5.84329e-07
-2.78455e-08
-1.6507e-07
-8.86144e-08
-1.1376e-07
1.53986e-07
-7.18771e-08
-1.00144e-07
1.79094e-07
-5.61802e-08
-8.22693e-08
1.54957e-07
-4.74289e-08
-6.13254e-08
1.2938e-07
-3.96345e-08
-3.80928e-08
1.07767e-07
-3.46516e-08
-1.50029e-08
9.34247e-08
-3.02794e-08
1.70162e-09
8.53212e-08
-2.19384e-08
7.83158e-08
-2.64822e-09
4.2624e-10
4.63067e-08
-4.79921e-10
1.53131e-08
5.09433e-08
-1.51684e-08
3.61492e-08
5.56753e-08
-2.14613e-08
5.89472e-08
6.44162e-08
-2.43564e-08
8.30187e-08
7.92393e-08
-2.77142e-08
1.07399e-07
1.02186e-07
-3.26192e-08
1.27824e-07
1.36714e-07
-3.92336e-08
1.3145e-07
1.87086e-07
-4.63932e-08
1.03206e-07
2.5969e-07
-6.34349e-08
3.5115e-07
-1.04542e-07
1.84825e-07
3.18322e-07
7.61642e-08
2.4994e-07
5.39976e-07
3.8249e-08
2.46631e-07
6.71786e-07
3.07211e-08
2.02317e-07
7.69509e-07
3.23801e-08
1.40863e-07
8.35265e-07
2.92055e-08
7.38685e-08
8.76805e-07
2.51913e-08
4.96625e-09
8.96704e-07
2.3274e-08
-6.39687e-08
8.97404e-07
2.32789e-08
-1.31083e-07
8.78935e-07
2.52014e-08
-1.92839e-07
8.38913e-07
2.92289e-08
-2.37869e-07
7.74868e-07
3.2428e-08
-2.42858e-07
6.79198e-07
3.08631e-08
-1.8075e-07
5.49726e-07
3.81017e-08
3.28753e-07
7.48262e-08
-1.00093e-07
3.56148e-07
-1.02069e-07
-1.23497e-07
2.67715e-07
-6.52163e-08
-1.14352e-07
1.96217e-07
-5.04051e-08
-8.73853e-08
1.47413e-07
-4.49992e-08
-5.53119e-08
1.156e-07
-3.99068e-08
-2.39014e-08
9.69663e-08
-3.49521e-08
-9.1021e-10
8.71924e-08
-2.48624e-08
7.94334e-08
-2.02785e-09
1.78713e-09
4.44756e-08
4.40081e-11
2.06251e-08
4.8809e-08
-1.67037e-08
4.70929e-08
5.31735e-08
-2.39661e-08
7.78578e-08
6.11454e-08
-2.7494e-08
1.14493e-07
7.44022e-08
-3.17986e-08
1.60648e-07
9.41876e-08
-3.81563e-08
2.22157e-07
1.21833e-07
-4.66277e-08
3.06289e-07
1.57306e-07
-5.43525e-08
4.26457e-07
1.97937e-07
-5.84142e-08
5.81309e-07
2.39592e-07
-4.32944e-08
4.5373e-07
8.35592e-08
4.4019e-08
4.68984e-07
2.30666e-07
7.24026e-08
4.52444e-07
4.08733e-07
1.47782e-07
3.86937e-07
5.27231e-07
2.10062e-07
2.95271e-07
6.16269e-07
2.44907e-07
1.96991e-07
6.75738e-07
2.57807e-07
1.00481e-07
7.13003e-07
2.60311e-07
5.80533e-09
7.30914e-07
2.60466e-07
-8.88496e-08
7.31524e-07
2.60535e-07
-1.8529e-07
7.14852e-07
2.60524e-07
-2.83457e-07
6.78884e-07
2.58196e-07
-3.74985e-07
6.20799e-07
2.45597e-07
-4.40383e-07
5.33229e-07
2.11367e-07
-4.56417e-07
4.15899e-07
1.49861e-07
-4.42623e-07
2.3899e-07
7.59695e-08
-5.75915e-07
8.5727e-08
4.75646e-08
-4.20928e-07
2.4371e-07
-4.25501e-08
-2.97383e-07
2.0462e-07
-6.04501e-08
-2.07982e-07
1.65552e-07
-5.87351e-08
-1.39105e-07
1.31908e-07
-5.33724e-08
-8.3674e-08
1.07058e-07
-4.68896e-08
-3.75279e-08
9.15063e-08
-4.0686e-08
-4.86318e-09
8.30896e-08
-2.85618e-08
7.58815e-08
-1.31125e-09
2.87179e-09
4.09074e-08
6.96469e-10
2.5073e-08
4.47653e-08
-1.81575e-08
5.61454e-08
4.84442e-08
-2.63431e-08
9.27625e-08
5.4999e-08
-3.04708e-08
1.37243e-07
6.5563e-08
-3.56408e-08
1.94219e-07
8.05513e-08
-4.33405e-08
2.69813e-07
9.97493e-08
-5.351e-08
3.68784e-07
1.21668e-07
-6.33324e-08
4.93494e-07
1.41337e-07
-6.811e-08
6.34536e-07
1.55488e-07
-5.6937e-08
6.38018e-07
1.05071e-07
-2.49939e-08
6.38942e-07
1.91114e-07
3.86271e-08
5.84577e-07
2.99397e-07
1.63701e-07
4.82711e-07
3.81878e-07
2.4722e-07
3.61887e-07
4.45929e-07
2.91164e-07
2.38981e-07
4.88687e-07
3.09958e-07
1.20857e-07
5.15842e-07
3.15286e-07
6.45386e-09
5.28941e-07
3.16376e-07
-1.0791e-07
5.29441e-07
3.16447e-07
-2.2591e-07
5.17347e-07
3.15505e-07
-3.48613e-07
4.91213e-07
3.10374e-07
-4.69216e-07
4.49476e-07
2.91926e-07
-5.71102e-07
3.86412e-07
2.48703e-07
-6.26012e-07
3.04651e-07
1.66157e-07
-6.26548e-07
1.96736e-07
4.27908e-08
-6.26931e-07
1.08349e-07
-2.22396e-08
-4.86901e-07
1.60186e-07
-5.65061e-08
-3.59387e-07
1.47448e-07
-7.03423e-08
-2.5486e-07
1.29218e-07
-6.81927e-08
-1.70938e-07
1.09113e-07
-6.1126e-08
-1.03151e-07
9.25955e-08
-5.33245e-08
-4.72278e-08
8.14914e-08
-4.59082e-08
-7.49973e-09
7.51974e-08
-3.18359e-08
6.8995e-08
-6.13223e-10
3.76167e-09
3.58329e-08
1.31281e-09
2.88248e-08
3.91154e-08
-1.94133e-08
6.37163e-08
4.1957e-08
-2.84043e-08
1.04886e-07
4.68702e-08
-3.30406e-08
1.54844e-07
5.45669e-08
-3.89622e-08
2.18316e-07
6.50331e-08
-4.79535e-08
3.00633e-07
7.75937e-08
-6.01615e-08
4.04694e-07
9.10727e-08
-7.34662e-08
5.27251e-07
1.01857e-07
-8.30773e-08
6.52031e-07
1.10864e-07
-8.01568e-08
7.09609e-07
1.02282e-07
-5.47891e-08
7.30414e-07
1.51457e-07
1.88521e-08
6.65722e-07
2.15068e-07
1.4902e-07
5.47057e-07
2.67778e-07
2.32766e-07
4.06831e-07
3.09818e-07
2.76336e-07
2.67211e-07
3.38137e-07
2.9017e-07
1.34638e-07
3.56496e-07
2.91919e-07
6.96778e-09
3.6545e-07
2.9116e-07
-1.20656e-07
3.65869e-07
2.91195e-07
-2.53086e-07
3.57747e-07
2.92031e-07
-3.92487e-07
3.40203e-07
2.9041e-07
-5.32521e-07
3.12657e-07
2.76853e-07
-6.51391e-07
2.71325e-07
2.33957e-07
-7.17049e-07
2.19114e-07
1.51195e-07
-6.98912e-07
1.55818e-07
2.278e-08
-6.44179e-07
1.05968e-07
-5.23508e-08
-5.19767e-07
1.15431e-07
-7.96566e-08
-3.94408e-07
1.07432e-07
-8.53427e-08
-2.84479e-07
9.78947e-08
-7.86062e-08
-1.93042e-07
8.60673e-08
-6.83918e-08
-1.17481e-07
7.58926e-08
-5.88585e-08
-5.4505e-08
6.87488e-08
-5.02331e-08
-9.37586e-09
6.4534e-08
-3.44658e-08
5.9502e-08
1.17139e-10
4.31002e-09
2.97315e-08
1.79139e-09
3.14707e-08
3.2382e-08
-2.04272e-08
6.90563e-08
3.44475e-08
-3.00761e-08
1.13123e-07
3.7912e-08
-3.51086e-08
1.66061e-07
4.32283e-08
-4.15995e-08
2.32416e-07
5.02486e-08
-5.157e-08
3.1697e-07
5.83514e-08
-6.53117e-08
4.22123e-07
6.6901e-08
-8.09813e-08
5.4336e-07
7.40346e-08
-9.34151e-08
6.65735e-07
8.20895e-08
-9.36003e-08
7.49729e-07
8.69044e-08
-6.86165e-08
7.8244e-07
1.1708e-07
1.66681e-09
7.12694e-07
1.55767e-07
1.29047e-07
5.85164e-07
1.89016e-07
2.06291e-07
4.34469e-07
2.16047e-07
2.44466e-07
2.85162e-07
2.34739e-07
2.52704e-07
1.43603e-07
2.47075e-07
2.5098e-07
7.38189e-09
2.53199e-07
2.48472e-07
-1.288e-07
2.53579e-07
2.48473e-07
-2.7024e-07
2.48201e-07
2.50986e-07
-4.19374e-07
2.36575e-07
2.52762e-07
-5.6996e-07
2.18523e-07
2.44721e-07
-6.97843e-07
1.92048e-07
2.07159e-07
-7.68819e-07
1.59199e-07
1.30891e-07
-7.39168e-07
1.20842e-07
5.32599e-09
-6.57422e-07
9.05672e-08
-6.63456e-08
-5.35125e-07
8.63498e-08
-9.32157e-08
-4.10912e-07
7.90275e-08
-9.58082e-08
-2.99534e-07
7.28968e-08
-8.63799e-08
-2.05185e-07
6.57193e-08
-7.40016e-08
-1.2573e-07
5.95699e-08
-6.31315e-08
-5.86181e-08
5.51856e-08
-5.35492e-08
-1.01262e-08
5.25044e-08
-3.64624e-08
4.86126e-08
7.63166e-10
4.65e-09
2.2932e-08
2.14951e-09
3.33157e-08
2.49258e-08
-2.12095e-08
7.28027e-08
2.63206e-08
-3.13601e-08
1.18794e-07
2.86004e-08
-3.66801e-08
1.73523e-07
3.20733e-08
-4.35733e-08
2.41378e-07
3.66241e-08
-5.42313e-08
3.26897e-07
4.18738e-08
-6.9041e-08
4.32466e-07
4.76056e-08
-8.62737e-08
5.53925e-07
5.30691e-08
-1.00493e-07
6.78322e-07
6.01881e-08
-1.02495e-07
7.7496e-07
6.78462e-08
-7.75801e-08
8.14079e-07
8.71948e-08
-9.23459e-09
7.42378e-07
1.1118e-07
1.16289e-07
6.09838e-07
1.32367e-07
1.8919e-07
4.52626e-07
1.49819e-07
2.2344e-07
2.97109e-07
1.62224e-07
2.28032e-07
1.49659e-07
1.70536e-07
2.23988e-07
7.75721e-09
1.74766e-07
2.20335e-07
-1.34119e-07
1.75138e-07
2.20317e-07
-2.81489e-07
1.71634e-07
2.23937e-07
-4.369e-07
1.63995e-07
2.2799e-07
-5.94098e-07
1.52174e-07
2.23547e-07
-7.27114e-07
1.35195e-07
1.89869e-07
-8.00187e-07
1.14338e-07
1.17935e-07
-7.64299e-07
9.05928e-08
-5.63926e-09
-6.69605e-07
7.13079e-08
-7.54342e-08
-5.45075e-07
6.4028e-08
-1.02209e-07
-4.20425e-07
5.73958e-08
-1.03018e-07
-3.08294e-07
5.26506e-08
-9.18854e-08
-2.12437e-07
4.79317e-08
-7.80697e-08
-1.30729e-07
4.41165e-08
-6.62545e-08
-6.10222e-08
4.14602e-08
-5.5981e-08
-1.03766e-08
3.98007e-08
-3.79419e-08
3.69254e-08
1.31059e-09
4.8205e-09
1.57354e-08
2.37608e-09
3.44704e-08
1.70613e-08
-2.17854e-08
7.51944e-08
1.78857e-08
-3.22891e-08
1.2239e-07
1.92046e-08
-3.77999e-08
1.78177e-07
2.12343e-08
-4.49475e-08
2.46883e-07
2.39455e-08
-5.60281e-08
3.3303e-07
2.7203e-08
-7.14757e-08
4.39204e-07
3.10183e-08
-8.95873e-08
5.61816e-07
3.52226e-08
-1.04765e-07
6.88704e-07
4.09154e-08
-1.07615e-07
7.91625e-07
4.78266e-08
-8.29015e-08
8.3429e-07
5.98562e-08
-1.53265e-08
7.61406e-07
7.40702e-08
1.09993e-07
6.25786e-07
8.6861e-08
1.81126e-07
4.64582e-07
9.74736e-08
2.13549e-07
3.05128e-07
1.05257e-07
2.16421e-07
1.53819e-07
1.10558e-07
2.11288e-07
8.12171e-09
1.13365e-07
2.07099e-07
-1.37568e-07
1.13754e-07
2.07074e-07
-2.88853e-07
1.11702e-07
2.11217e-07
-4.48288e-07
1.07086e-07
2.16344e-07
-6.09591e-07
9.98749e-08
2.13602e-07
-7.45816e-07
8.96871e-08
1.81733e-07
-8.20186e-07
7.71581e-08
1.1155e-07
-7.80797e-07
6.30713e-08
-1.18669e-08
-6.79684e-07
5.10527e-08
-8.0858e-08
-5.52515e-07
4.42985e-08
-1.0744e-07
-4.26529e-07
3.88426e-08
-1.07432e-07
-3.13525e-07
3.50405e-08
-9.53944e-08
-2.16644e-07
3.1826e-08
-8.07748e-08
-1.33569e-07
2.94356e-08
-6.83942e-08
-6.22886e-08
2.78633e-08
-5.76834e-08
-1.03676e-08
2.68834e-08
-3.90036e-08
2.49787e-08
1.57916e-09
4.8943e-09
8.36107e-09
2.48e-09
3.51163e-08
9.01407e-09
-2.21747e-08
7.65748e-08
9.32078e-09
-3.28936e-08
1.24499e-07
9.7944e-09
-3.85144e-08
1.8096e-07
1.05764e-08
-4.58023e-08
2.50282e-07
1.17339e-08
-5.71106e-08
3.37032e-07
1.33482e-08
-7.2895e-08
4.43945e-07
1.55564e-08
-9.14517e-08
5.67741e-07
1.85271e-08
-1.07101e-07
6.96463e-07
2.25175e-08
-1.10323e-07
8.02429e-07
2.75318e-08
-8.56715e-08
8.46766e-07
3.36562e-08
-1.81369e-08
7.73175e-07
3.99984e-08
1.07662e-07
6.35722e-07
4.58162e-08
1.78498e-07
4.72153e-07
5.06406e-08
2.10402e-07
3.10293e-07
5.44071e-08
2.1271e-07
1.56585e-07
5.70646e-08
2.07201e-07
8.50154e-09
5.8623e-08
2.02825e-07
-1.39599e-07
5.90528e-08
2.02801e-07
-2.93351e-07
5.83261e-08
2.07129e-07
-4.55303e-07
5.64075e-08
2.1263e-07
-6.19116e-07
5.32387e-08
2.10449e-07
-7.57327e-07
4.88108e-08
1.79087e-07
-8.32538e-07
4.31819e-08
1.09187e-07
-7.91532e-07
3.68166e-08
-1.47507e-08
-6.8731e-07
3.05497e-08
-8.37193e-08
-5.58212e-07
2.54643e-08
-1.10264e-07
-4.30909e-07
2.14513e-08
-1.09911e-07
-3.16985e-07
1.85523e-08
-9.74365e-08
-2.19249e-07
1.65042e-08
-8.24143e-08
-1.35244e-07
1.51674e-08
-6.9736e-08
-6.2991e-08
1.43928e-08
-5.87829e-08
-1.03266e-08
1.39377e-08
-3.97187e-08
1.29858e-08
1.66626e-09
4.89518e-09
1.0034e-09
2.46249e-09
3.5319e-08
9.80083e-10
-2.23899e-08
7.70664e-08
7.67308e-10
-3.31939e-08
1.25321e-07
3.92609e-10
-3.88525e-08
1.82164e-07
-8.32775e-11
-4.61832e-08
2.51953e-07
-4.98935e-10
-5.7557e-08
3.393e-07
-5.6476e-10
-7.34335e-08
4.46987e-07
-2.92313e-11
-9.21012e-08
5.71711e-07
1.67558e-09
-1.07873e-07
7.01393e-07
4.02213e-09
-1.11187e-07
8.0816e-07
7.33174e-09
-8.65668e-08
8.52716e-07
8.03965e-09
-1.89395e-08
7.78691e-07
6.71656e-09
1.07307e-07
6.40402e-07
5.65342e-09
1.78451e-07
4.75837e-07
4.70671e-09
2.105e-07
3.12914e-07
4.47102e-09
2.12859e-07
1.58118e-07
4.50199e-09
2.07358e-07
8.9188e-09
4.84172e-09
2.02981e-07
-1.40327e-07
5.34096e-09
2.02958e-07
-2.95257e-07
5.97008e-09
2.07285e-07
-4.58414e-07
6.78856e-09
2.12776e-07
-6.2341e-07
7.69511e-09
2.1054e-07
-7.62658e-07
9.03679e-09
1.79022e-07
-8.38484e-07
1.0216e-08
1.08792e-07
-7.97347e-07
1.13167e-08
-1.56368e-08
-6.92306e-07
1.02355e-08
-8.47268e-08
-5.62195e-07
6.61862e-09
-1.11265e-07
-4.33894e-07
3.99042e-09
-1.1084e-07
-3.19116e-07
2.03486e-09
-9.82612e-08
-2.20671e-07
1.19908e-09
-8.31392e-08
-1.36071e-07
9.47346e-10
-7.03801e-08
-6.33148e-08
9.86605e-10
-5.93503e-08
-1.03152e-08
1.06544e-09
-4.01274e-08
1.07392e-09
1.59668e-09
4.82259e-09
-6.14173e-09
2.32254e-09
3.50772e-08
-6.8405e-09
-2.2434e-08
7.66656e-08
-7.62662e-09
-3.31945e-08
1.24846e-07
-8.96685e-09
-3.88213e-08
1.81768e-07
-1.09029e-08
-4.61024e-08
2.51868e-07
-1.32133e-08
-5.73858e-08
3.39808e-07
-1.5382e-08
-7.3122e-08
4.48283e-07
-1.69117e-08
-9.15927e-08
5.73733e-07
-1.66409e-08
-1.07134e-07
7.03635e-07
-1.56059e-08
-1.10273e-07
8.09082e-07
-1.24233e-08
-8.56927e-08
8.52318e-07
-1.72466e-08
-1.79499e-08
7.78038e-07
-2.76198e-08
1.08617e-07
6.3987e-07
-3.67418e-08
1.80564e-07
4.75663e-07
-4.44179e-08
2.13331e-07
3.13018e-07
-4.91807e-08
2.16297e-07
1.58435e-07
-5.20661e-08
2.11151e-07
9.39108e-09
-5.30597e-08
2.06946e-07
-1.39734e-07
-5.2456e-08
2.06922e-07
-2.94557e-07
-5.02883e-08
2.11082e-07
-4.57609e-07
-4.63693e-08
2.16209e-07
-6.22483e-07
-4.07756e-08
2.13345e-07
-7.61875e-07
-3.26428e-08
1.81072e-07
-8.38216e-07
-2.34431e-08
1.1e-07
-7.98545e-07
-1.35514e-08
-1.48032e-08
-6.94834e-07
-9.4525e-09
-8.40226e-08
-5.64488e-07
-1.319e-08
-1.10538e-07
-4.35444e-07
-1.47666e-08
-1.10287e-07
-3.19877e-07
-1.5613e-08
-9.79199e-08
-2.20889e-07
-1.48028e-08
-8.2986e-08
-1.36036e-07
-1.35537e-08
-7.03514e-08
-6.32508e-08
-1.23963e-08
-5.94025e-08
-1.03287e-08
-1.16156e-08
-4.0241e-08
-1.06077e-08
1.35286e-09
4.652e-09
-1.28483e-08
2.05452e-09
3.43254e-08
-1.42127e-08
-2.23012e-08
7.52473e-08
-1.56633e-08
-3.28852e-08
1.2286e-07
-1.81752e-08
-3.84045e-08
1.7944e-07
-2.1954e-08
-4.55293e-08
2.49555e-07
-2.67857e-08
-5.65418e-08
3.37991e-07
-3.19619e-08
-7.1857e-08
4.47413e-07
-3.66108e-08
-8.97226e-08
5.7378e-07
-3.84025e-08
-1.04605e-07
7.03655e-07
-3.83217e-08
-1.0716e-07
8.04991e-07
-3.12143e-08
-8.25447e-08
8.44641e-07
-4.25956e-08
-1.43012e-08
7.70275e-07
-6.61831e-08
1.12929e-07
6.33378e-07
-8.66633e-08
1.86819e-07
4.7116e-07
-1.0361e-07
2.2141e-07
3.10342e-07
-1.14378e-07
2.26017e-07
1.57451e-07
-1.21031e-07
2.21855e-07
9.97084e-09
-1.23688e-07
2.18108e-07
-1.37632e-07
-1.22914e-07
2.18061e-07
-2.90893e-07
-1.18737e-07
2.21709e-07
-4.52337e-07
-1.10723e-07
2.25797e-07
-6.15541e-07
-9.88092e-08
2.21238e-07
-7.54032e-07
-8.12391e-08
1.87087e-07
-8.30851e-07
-6.0662e-08
1.14038e-07
-7.94966e-07
-3.79789e-08
-1.1457e-08
-6.95348e-07
-2.79193e-08
-8.11513e-08
-5.6502e-07
-3.58019e-08
-1.07716e-07
-4.35111e-07
-3.66501e-08
-1.08026e-07
-3.18716e-07
-3.57336e-08
-9.6274e-08
-2.19415e-07
-3.22289e-08
-8.18755e-08
-1.34797e-07
-2.85724e-08
-6.95993e-08
-6.26028e-08
-2.56847e-08
-5.89053e-08
-1.02963e-08
-2.38767e-08
-4.00454e-08
-2.17796e-08
8.75679e-10
4.31327e-09
-1.88057e-08
1.64414e-09
3.28899e-08
-2.08097e-08
-2.19796e-08
7.24791e-08
-2.30054e-08
-3.22471e-08
1.18779e-07
-2.69041e-08
-3.75711e-08
1.74222e-07
-3.29918e-08
-4.44054e-08
2.43588e-07
-4.12473e-08
-5.49039e-08
3.3204e-07
-5.10114e-08
-6.94026e-08
4.42524e-07
-6.10563e-08
-8.60389e-08
5.70981e-07
-6.73472e-08
-9.95123e-08
7.02167e-07
-6.89046e-08
-1.00603e-07
7.94362e-07
-4.7249e-08
-7.61602e-08
8.26505e-07
-6.78555e-08
-6.88313e-09
7.52081e-07
-1.13647e-07
1.21888e-07
6.18227e-07
-1.52381e-07
1.99572e-07
4.60563e-07
-1.83567e-07
2.37621e-07
3.03898e-07
-2.03217e-07
2.45504e-07
1.54745e-07
-2.15241e-07
2.43364e-07
1.07056e-08
-2.20219e-07
2.40571e-07
-1.33501e-07
-2.19173e-07
2.40465e-07
-2.83166e-07
-2.12108e-07
2.43037e-07
-4.40707e-07
-1.98158e-07
2.44975e-07
-5.99767e-07
-1.76768e-07
2.37019e-07
-7.35726e-07
-1.44592e-07
1.99313e-07
-8.13242e-07
-1.05588e-07
1.22441e-07
-7.85182e-07
-6.1463e-08
-4.57558e-09
-6.94528e-07
-4.33635e-08
-7.52098e-08
-5.62875e-07
-6.58199e-08
-1.01635e-07
-4.30989e-07
-6.51937e-08
-1.03342e-07
-3.13755e-07
-6.00799e-08
-9.28885e-08
-2.14783e-07
-5.16236e-08
-7.95769e-08
-1.31374e-07
-4.39922e-08
-6.79888e-08
-6.08087e-08
-3.84781e-08
-5.77722e-08
-9.95226e-09
-3.52217e-08
-3.95115e-08
-3.19674e-08
2.35548e-10
3.7846e-09
-2.36857e-08
1.09541e-09
3.07015e-08
-2.62731e-08
-2.14535e-08
6.81946e-08
-2.92351e-08
-3.12634e-08
1.12217e-07
-3.46282e-08
-3.62983e-08
1.65284e-07
-4.33603e-08
-4.26987e-08
2.32355e-07
-5.58861e-08
-5.24316e-08
3.19193e-07
-7.21334e-08
-6.57167e-08
4.29594e-07
-9.10046e-08
-8.04526e-08
5.61494e-07
-1.07558e-07
-9.1689e-08
6.99721e-07
-1.16633e-07
-9.04994e-08
7.72674e-07
-5.50615e-08
-6.51401e-08
7.8932e-07
-9.08423e-08
6.34013e-09
7.17227e-07
-1.77477e-07
1.35923e-07
5.90374e-07
-2.4388e-07
2.18351e-07
4.4124e-07
-2.95097e-07
2.60665e-07
2.9212e-07
-3.2737e-07
2.73272e-07
1.49632e-07
-3.46715e-07
2.73961e-07
1.17032e-08
-3.54826e-07
2.72536e-07
-1.26426e-07
-3.53364e-07
2.72321e-07
-2.69553e-07
-3.42284e-07
2.73303e-07
-4.1981e-07
-3.20085e-07
2.72185e-07
-5.70869e-07
-2.85018e-07
2.59308e-07
-7.00561e-07
-2.32095e-07
2.17195e-07
-7.76891e-07
-1.64847e-07
1.35588e-07
-7.64877e-07
-8.12737e-08
7.79757e-09
-6.92823e-07
-5.06068e-08
-6.48113e-08
-5.54165e-07
-1.12153e-07
-9.23245e-08
-4.19055e-07
-1.04161e-07
-9.61429e-08
-3.02225e-07
-8.92086e-08
-8.77019e-08
-2.05344e-07
-7.2473e-08
-7.60313e-08
-1.24881e-07
-5.90238e-08
-6.54313e-08
-5.74377e-08
-5.00188e-08
-5.59025e-08
-9.1493e-09
-4.49504e-08
-3.85597e-08
-4.05777e-08
-5.39025e-10
2.94111e-09
-2.69942e-08
3.67435e-10
2.74807e-08
-3.00859e-08
-2.07267e-08
6.18094e-08
-3.3613e-08
-2.99508e-08
1.01941e-07
-4.0159e-08
-3.46003e-08
1.50121e-07
-5.11352e-08
-4.04054e-08
2.11119e-07
-6.7799e-08
-4.90848e-08
2.91314e-07
-9.16437e-08
-6.06847e-08
3.96368e-07
-1.23639e-07
-7.24205e-08
5.30823e-07
-1.62476e-07
-7.95357e-08
6.95018e-07
-2.10203e-07
-7.06244e-08
7.30133e-07
-4.97025e-08
-4.04737e-08
7.12013e-07
-9.37479e-08
2.1025e-08
6.48886e-07
-2.58746e-07