/*--------------------------------*- C++ -*----------------------------------*\
| =========                 |                                                 |
| \\      /  F ield         | OpenFOAM: The Open Source CFD Toolbox           |
|  \\    /   O peration     | Version:  2112                                  |
|   \\  /    A nd           | Website:  www.openfoam.com                      |
|    \\/     M anipulation  |                                                 |
\*---------------------------------------------------------------------------*/
FoamFile
{
    version     2.0;
    format      ascii;
    arch        "LSB;label=32;scalar=64";
    class       volVectorField;
    location    "2.6";
    object      U;
}
// * * * * * * * * * * * * * * * * * * * * * * * * * * * * * * * * * * * * * //

dimensions      [0 1 -1 0 0 0 0];

internalField   nonuniform List<vector> 
64906
(
(2.1482e-07 7.62964e-07 -1.4987e-06)
(2.47922e-06 -6.37961e-07 -1.53983e-06)
(6.14635e-06 -2.01262e-06 -9.86297e-07)
(1.00801e-05 -3.06695e-06 -3.05335e-07)
(1.41835e-05 -3.73491e-06 2.2519e-07)
(1.82534e-05 -4.1832e-06 5.85337e-07)
(2.22226e-05 -4.53011e-06 8.40218e-07)
(2.59671e-05 -4.81288e-06 1.05169e-06)
(2.9279e-05 -5.03518e-06 1.25743e-06)
(3.18172e-05 -4.96313e-06 1.57275e-06)
(3.33841e-05 -4.73498e-06 1.93517e-06)
(3.3398e-05 -4.23166e-06 2.3383e-06)
(3.16701e-05 -3.92586e-06 2.74141e-06)
(2.84875e-05 -3.6671e-06 3.16204e-06)
(2.4038e-05 -3.5705e-06 3.5314e-06)
(1.86962e-05 -3.51576e-06 3.83591e-06)
(1.26987e-05 -3.51427e-06 4.04515e-06)
(6.34577e-06 -3.52541e-06 4.15393e-06)
(-1.19489e-07 -3.54812e-06 4.156e-06)
(-6.42548e-06 -3.58238e-06 4.05201e-06)
(-1.23293e-05 -3.62948e-06 3.8484e-06)
(-1.75328e-05 -3.73012e-06 3.55059e-06)
(-2.18045e-05 -3.87157e-06 3.18955e-06)
(-2.47731e-05 -4.17495e-06 2.77794e-06)
(-2.62629e-05 -4.51988e-06 2.3836e-06)
(-2.59918e-05 -5.05862e-06 1.98312e-06)
(-2.41608e-05 -5.29833e-06 1.60962e-06)
(-2.13473e-05 -5.35193e-06 1.24812e-06)
(-1.7759e-05 -5.04949e-06 9.1316e-07)
(-1.3787e-05 -4.51824e-06 4.46411e-07)
(-9.72527e-06 -3.59695e-06 -2.38789e-07)
(-5.79424e-06 -2.06621e-06 -1.11862e-06)
(-2.18089e-06 -2.54641e-07 -1.95587e-06)
(3.76175e-08 1.39491e-06 -2.04526e-06)
(-1.89362e-06 5.42559e-06 -2.22438e-06)
(-3.89967e-07 4.32506e-06 -6.38096e-06)
(4.55357e-06 2.84924e-06 -7.55893e-06)
(9.42214e-06 1.709e-06 -7.77213e-06)
(1.41101e-05 1.22402e-06 -7.9902e-06)
(1.84909e-05 1.31013e-06 -8.44859e-06)
(2.26618e-05 1.87782e-06 -9.19415e-06)
(2.6586e-05 2.95325e-06 -1.02241e-05)
(3.02776e-05 4.60648e-06 -1.15388e-05)
(3.32632e-05 7.19881e-06 -1.31976e-05)
(3.51854e-05 1.05074e-05 -1.51356e-05)
(3.52424e-05 1.47243e-05 -1.72303e-05)
(3.32983e-05 1.83757e-05 -1.92082e-05)
(2.98674e-05 2.15913e-05 -2.09357e-05)
(2.5111e-05 2.39808e-05 -2.23471e-05)
(1.94976e-05 2.57732e-05 -2.34286e-05)
(1.32146e-05 2.69174e-05 -2.41654e-05)
(6.58938e-06 2.74882e-05 -2.45547e-05)
(-1.52692e-07 2.74819e-05 -2.45909e-05)
(-6.72576e-06 2.68989e-05 -2.42737e-05)
(-1.29059e-05 2.57439e-05 -2.36089e-05)
(-1.83669e-05 2.39433e-05 -2.26001e-05)
(-2.29283e-05 2.15542e-05 -2.1263e-05)
(-2.61236e-05 1.83497e-05 -1.96144e-05)
(-2.78066e-05 1.47382e-05 -1.77249e-05)
(-2.74603e-05 1.05909e-05 -1.57372e-05)
(-2.52304e-05 7.42929e-06 -1.394e-05)
(-2.19141e-05 5.06547e-06 -1.24755e-05)
(-1.78009e-05 3.80753e-06 -1.14271e-05)
(-1.32982e-05 3.42676e-06 -1.07651e-05)
(-8.30288e-06 4.00974e-06 -1.04388e-05)
(-3.13528e-06 5.58498e-06 -1.01736e-05)
(1.97319e-06 7.48394e-06 -8.64702e-06)
(2.96573e-06 8.60563e-06 -3.18688e-06)
(-3.27966e-06 1.41802e-05 -2.03219e-06)
(-2.34603e-06 1.50168e-05 -7.84071e-06)
(3.34856e-06 1.47524e-05 -9.71579e-06)
(8.94452e-06 1.47521e-05 -1.02907e-05)
(1.43678e-05 1.56237e-05 -1.07977e-05)
(1.94134e-05 1.74831e-05 -1.15835e-05)
(2.42757e-05 2.04017e-05 -1.27622e-05)
(2.89975e-05 2.46071e-05 -1.43771e-05)
(3.36841e-05 3.03579e-05 -1.64552e-05)
(3.76832e-05 3.8252e-05 -1.90297e-05)
(4.06407e-05 4.79337e-05 -2.20289e-05)
(4.09216e-05 5.98028e-05 -2.52936e-05)
(3.8321e-05 7.0303e-05 -2.83971e-05)
(3.4029e-05 7.95708e-05 -3.11183e-05)
(2.82707e-05 8.6701e-05 -3.33461e-05)
(2.17453e-05 9.21315e-05 -3.50505e-05)
(1.45471e-05 9.57032e-05 -3.62068e-05)
(7.04415e-06 9.75307e-05 -3.68149e-05)
(-5.80143e-07 9.75876e-05 -3.68654e-05)
(-8.02769e-06 9.58741e-05 -3.63582e-05)
(-1.51167e-05 9.24206e-05 -3.53025e-05)
(-2.14771e-05 8.71148e-05 -3.36994e-05)
(-2.7021e-05 8.01296e-05 -3.15751e-05)
(-3.10438e-05 7.10337e-05 -2.89637e-05)
(-3.33382e-05 6.0772e-05 -2.59831e-05)
(-3.26963e-05 4.92064e-05 -2.28667e-05)
(-2.93362e-05 3.99816e-05 -2.00585e-05)
(-2.48604e-05 3.26612e-05 -1.77374e-05)
(-1.95029e-05 2.77249e-05 -1.59954e-05)
(-1.38348e-05 2.46546e-05 -1.47996e-05)
(-7.68276e-06 2.32574e-05 -1.40082e-05)
(-1.42679e-06 2.31334e-05 -1.31657e-05)
(4.73851e-06 2.33893e-05 -1.07012e-05)
(4.88288e-06 2.19589e-05 -3.04904e-06)
(-4.15354e-06 2.33622e-05 -1.52596e-06)
(-3.42432e-06 2.54347e-05 -7.99617e-06)
(3.09974e-06 2.61022e-05 -1.00898e-05)
(9.65679e-06 2.72704e-05 -1.0741e-05)
(1.61397e-05 2.96256e-05 -1.13193e-05)
(2.23006e-05 3.33629e-05 -1.22288e-05)
(2.84736e-05 3.86868e-05 -1.36223e-05)
(3.48182e-05 4.6074e-05 -1.55807e-05)
(4.16885e-05 5.61089e-05 -1.81456e-05)
(4.80409e-05 7.01536e-05 -2.13727e-05)
(5.34206e-05 8.77671e-05 -2.51523e-05)
(5.41643e-05 0.000110005 -2.93536e-05)
(4.99341e-05 0.000129092 -3.33221e-05)
(4.36252e-05 0.000145637 -3.67847e-05)
(3.55985e-05 0.000158161 -3.96019e-05)
(2.69989e-05 0.000167704 -4.17307e-05)
(1.76952e-05 0.000173984 -4.31585e-05)
(8.14149e-06 0.000177214 -4.39042e-05)
(-1.55122e-06 0.000177337 -4.3959e-05)
(-1.10469e-05 0.00017435 -4.33224e-05)
(-2.02352e-05 0.000168318 -4.20026e-05)
(-2.86543e-05 0.000159027 -3.99814e-05)
(-3.644e-05 0.000146782 -3.72719e-05)
(-4.24266e-05 0.000130549 -3.39221e-05)
(-4.62787e-05 0.000111876 -3.0079e-05)
(-4.50538e-05 9.01401e-05 -2.60315e-05)
(-3.91324e-05 7.32802e-05 -2.24554e-05)
(-3.21378e-05 6.00942e-05 -1.95026e-05)
(-2.43301e-05 5.11746e-05 -1.73032e-05)
(-1.6681e-05 4.52253e-05 -1.57968e-05)
(-8.79102e-06 4.17236e-05 -1.48065e-05)
(-1.10876e-06 4.00439e-05 -1.3801e-05)
(6.21282e-06 3.91094e-05 -1.1028e-05)
(6.08311e-06 3.60501e-05 -2.47117e-06)
(-4.61655e-06 3.26068e-05 -1.00727e-06)
(-3.64551e-06 3.56631e-05 -8.02824e-06)
(4.07665e-06 3.72115e-05 -1.03072e-05)
(1.1932e-05 3.9579e-05 -1.09896e-05)
(1.98712e-05 4.35326e-05 -1.16338e-05)
(2.76425e-05 4.9295e-05 -1.27068e-05)
(3.58212e-05 5.71668e-05 -1.44027e-05)
(4.48005e-05 6.79072e-05 -1.68521e-05)
(5.54936e-05 8.26278e-05 -2.00966e-05)
(6.62545e-05 0.000104062 -2.42411e-05)
(7.66463e-05 0.000132225 -2.90786e-05)
(7.82628e-05 0.000170281 -3.47033e-05)
(7.04739e-05 0.000201155 -3.9933e-05)
(6.03042e-05 0.000227152 -4.4524e-05)
(4.82345e-05 0.000246258 -4.82575e-05)
(3.60862e-05 0.000260848 -5.10023e-05)
(2.31608e-05 0.000270426 -5.28132e-05)
(1.00698e-05 0.000275372 -5.375e-05)
(-3.20264e-06 0.000275568 -5.38094e-05)
(-1.6235e-05 0.000271011 -5.29904e-05)
(-2.90434e-05 0.00026182 -5.12945e-05)
(-4.09985e-05 0.000247609 -4.86622e-05)
(-5.28009e-05 0.000228903 -4.50377e-05)
(-6.25801e-05 0.000203329 -4.05576e-05)
(-6.9897e-05 0.000173017 -3.54501e-05)
(-6.76172e-05 0.00013562 -2.99773e-05)
(-5.65077e-05 0.000108549 -2.53538e-05)
(-4.49566e-05 8.82284e-05 -2.15036e-05)
(-3.30637e-05 7.48861e-05 -1.86584e-05)
(-2.2428e-05 6.58568e-05 -1.67128e-05)
(-1.20969e-05 6.01445e-05 -1.54771e-05)
(-2.44551e-06 5.68814e-05 -1.43289e-05)
(6.56486e-06 5.48652e-05 -1.12735e-05)
(6.75022e-06 5.04883e-05 -1.8741e-06)
(-4.87179e-06 4.13501e-05 -5.37208e-07)
(-3.23855e-06 4.51794e-05 -8.21568e-06)
(6.19932e-06 4.75012e-05 -1.0744e-05)
(1.58081e-05 5.10605e-05 -1.14875e-05)
(2.56572e-05 5.66797e-05 -1.2253e-05)
(3.55306e-05 6.45423e-05 -1.35951e-05)
(4.63621e-05 7.49555e-05 -1.57579e-05)
(5.89821e-05 8.88832e-05 -1.89338e-05)
(7.54758e-05 0.000108166 -2.31026e-05)
(9.36681e-05 0.00013796 -2.84092e-05)
(0.000114145 0.00017986 -3.41919e-05)
(0.000117553 0.000243866 -4.16915e-05)
(0.000102461 0.000291012 -4.86318e-05)
(8.56878e-05 0.000328926 -5.49877e-05)
(6.72906e-05 0.000355695 -6.0223e-05)
(4.98828e-05 0.00037628 -6.38519e-05)
(3.14823e-05 0.000389751 -6.61909e-05)
(1.3022e-05 0.000396742 -6.73862e-05)
(-5.7134e-06 0.000397023 -6.74536e-05)
(-2.4121e-05 0.000390586 -6.63913e-05)
(-4.2417e-05 0.000377653 -6.41806e-05)
(-5.96365e-05 0.000357573 -6.06751e-05)
(-7.77616e-05 0.000331303 -5.55536e-05)
(-9.40775e-05 0.00029387 -4.93092e-05)
(-0.000108599 0.000247386 -4.24902e-05)
(-0.000104242 0.000184108 -3.51318e-05)
(-8.28198e-05 0.00014378 -2.95777e-05)
(-6.37514e-05 0.000115325 -2.459e-05)
(-4.57892e-05 9.76381e-05 -2.08667e-05)
(-3.11189e-05 8.56651e-05 -1.8266e-05)
(-1.75927e-05 7.77938e-05 -1.66478e-05)
(-5.30464e-06 7.30239e-05 -1.52642e-05)
(6.13151e-06 6.99955e-05 -1.17993e-05)
(7.18524e-06 6.45762e-05 -1.34287e-06)
(-5.02901e-06 4.93486e-05 -6.72467e-08)
(-2.35096e-06 5.38566e-05 -8.59786e-06)
(9.42272e-06 5.69661e-05 -1.14776e-05)
(2.1338e-05 6.1842e-05 -1.23387e-05)
(3.36018e-05 6.93706e-05 -1.32975e-05)
(4.60273e-05 7.96038e-05 -1.50247e-05)
(5.99575e-05 9.26518e-05 -1.78176e-05)
(7.68928e-05 0.000109215 -2.19398e-05)
(0.00010117 0.000131746 -2.72093e-05)
(0.00013053 0.000168182 -3.36293e-05)
(0.000171143 0.000226059 -3.94858e-05)
(0.000178556 0.000334663 -4.90526e-05)
(0.000148195 0.000403663 -5.77006e-05)
(0.000120855 0.000456508 -6.661e-05)
(9.3491e-05 0.000492565 -7.41953e-05)
(6.90725e-05 0.000520837 -7.88213e-05)
(4.30929e-05 0.000539374 -8.1761e-05)
(1.71654e-05 0.000549043 -8.32427e-05)
(-9.22083e-06 0.00054943 -8.33219e-05)
(-3.5113e-05 0.00054052 -8.19963e-05)
(-6.10273e-05 0.000522709 -7.92053e-05)
(-8.53017e-05 0.000495082 -7.47209e-05)
(-0.000112446 0.000459605 -6.72584e-05)
(-0.000139291 0.000407223 -5.84674e-05)
(-0.000169033 0.000338874 -4.99495e-05)
(-0.000160169 0.000230856 -4.05028e-05)
(-0.00011829 0.000175414 -3.49037e-05)
(-8.81517e-05 0.000140455 -2.88217e-05)
(-6.21218e-05 0.000119653 -2.40542e-05)
(-4.26455e-05 0.000105228 -2.05949e-05)
(-2.52633e-05 9.51086e-05 -1.84516e-05)
(-9.66661e-06 8.86447e-05 -1.67303e-05)
(5.07468e-06 8.45113e-05 -1.2621e-05)
(7.56281e-06 7.80993e-05 -8.00778e-07)
(-5.11716e-06 5.63035e-05 4.53671e-07)
(-9.69125e-07 6.13957e-05 -9.15049e-06)
(1.39107e-05 6.53494e-05 -1.25006e-05)
(2.88629e-05 7.1716e-05 -1.35402e-05)
(4.42177e-05 8.1475e-05 -1.47688e-05)
(5.96824e-05 9.44501e-05 -1.70019e-05)
(7.66996e-05 0.000110235 -2.05973e-05)
(9.73631e-05 0.000128346 -2.59381e-05)
(0.000128649 0.000150472 -3.24396e-05)
(0.000171468 0.000189253 -4.0429e-05)
(0.000252577 0.000258925 -4.09842e-05)
(0.000270227 0.000449196 -5.06084e-05)
(0.000209837 0.00054237 -6.13944e-05)
(0.000168459 0.000609641 -7.47516e-05)
(0.000129762 0.000654822 -8.6187e-05)
(9.63216e-05 0.000690922 -9.17564e-05)
(5.97063e-05 0.000714813 -9.52624e-05)
(2.31104e-05 0.000727372 -9.69996e-05)
(-1.42649e-05 0.000727895 -9.70926e-05)
(-5.08578e-05 0.00071636 -9.55384e-05)
(-8.74865e-05 0.000693435 -9.22062e-05)
(-0.000120899 0.000658163 -8.68048e-05)
(-0.000159554 0.000613639 -7.55082e-05)
(-0.000200531 0.000546692 -6.2289e-05)
(-0.000260471 0.000454065 -5.1696e-05)
(-0.000240373 0.000263854 -4.20939e-05)
(-0.000157496 0.000198472 -4.18043e-05)
(-0.000114452 0.000160949 -3.41808e-05)
(-8.10334e-05 0.000140472 -2.82665e-05)
(-5.71794e-05 0.000124515 -2.37026e-05)
(-3.56859e-05 0.000111949 -2.08861e-05)
(-1.59264e-05 0.000103401 -1.86916e-05)
(3.28336e-06 9.7982e-05 -1.37336e-05)
(7.85189e-06 9.06381e-05 -1.43961e-07)
(-5.1563e-06 6.19225e-05 1.0439e-06)
(9.20148e-07 6.75698e-05 -9.85804e-06)
(1.97766e-05 7.25535e-05 -1.38045e-05)
(3.86454e-05 8.08575e-05 -1.50759e-05)
(5.79803e-05 9.3753e-05 -1.66282e-05)
(7.71566e-05 0.00011101 -1.94274e-05)
(9.70418e-05 0.000131691 -2.39175e-05)
(0.000119058 0.000152202 -3.0622e-05)
(0.00015411 0.000172579 -3.94254e-05)
(0.000202548 0.000201087 -4.77154e-05)
(0.000359981 0.0002205 -5.07151e-05)
(0.000403186 0.000568463 -4.65992e-05)
(0.000280048 0.000694806 -5.63317e-05)
(0.000225776 0.000782059 -7.63269e-05)
(0.000175526 0.000841746 -9.28089e-05)
(0.000131264 0.00089093 -9.89263e-05)
(8.12482e-05 0.000923799 -0.000103303)
(3.08833e-05 0.000940894 -0.000105379)
(-2.07721e-05 0.000941593 -0.000105481)
(-7.11809e-05 0.000925871 -0.000103608)
(-0.000121328 0.00089432 -9.94184e-05)
(-0.000165771 0.000846266 -9.34859e-05)
(-0.000216378 0.000787424 -7.71463e-05)
(-0.000270517 0.000700407 -5.73292e-05)
(-0.000393947 0.000574222 -4.78586e-05)
(-0.000346291 0.000223618 -5.23124e-05)
(-0.000186464 0.000211688 -4.93485e-05)
(-0.000139497 0.000184379 -4.13099e-05)
(-0.00010157 0.000165664 -3.32221e-05)
(-7.54632e-05 0.000147224 -2.74389e-05)
(-4.97183e-05 0.000129971 -2.38958e-05)
(-2.46696e-05 0.000117788 -2.11674e-05)
(5.40788e-07 0.000110221 -1.51374e-05)
(8.07041e-06 0.000101787 6.55568e-07)
(-5.02839e-06 6.56079e-05 1.7374e-06)
(3.60016e-06 7.17736e-05 -1.07126e-05)
(2.76451e-05 7.76872e-05 -1.53875e-05)
(5.19758e-05 8.79177e-05 -1.69481e-05)
(7.74034e-05 0.000104181 -1.88924e-05)
(0.000102995 0.000126566 -2.2335e-05)
(0.00012739 0.000153636 -2.77414e-05)
(0.000151213 0.00017801 -3.67223e-05)
(0.000179223 0.000186745 -4.70873e-05)
(0.000146832 0.00011501 -6.88896e-05)
(0.000433197 0.000207555 -7.22639e-05)
(0.00058921 0.000819075 -2.18055e-05)
(0.000367942 0.000892012 -2.64717e-05)
(0.000311903 0.00095679 -4.8847e-05)
(0.000248718 0.00102418 -6.81656e-05)
(0.000187402 0.00107956 -7.07014e-05)
(0.000115514 0.00111941 -7.39472e-05)
(4.29712e-05 0.00114001 -7.55519e-05)
(-3.10661e-05 0.00114091 -7.56345e-05)
(-0.00010368 0.00112208 -7.41968e-05)
(-0.000175806 0.00108396 -7.10888e-05)
(-0.000237549 0.00103014 -6.8736e-05)
(-0.000301623 0.000963902 -4.9541e-05)
(-0.000358314 0.000899117 -2.7352e-05)
(-0.000583896 0.000822916 -2.33415e-05)
(-0.00042058 0.000210822 -7.45572e-05)
(-0.000128893 0.000133247 -6.99131e-05)
(-0.000164668 0.000202875 -4.87354e-05)
(-0.000132831 0.000193372 -3.95544e-05)
(-0.000103978 0.000170174 -3.17797e-05)
(-7.20233e-05 0.000146413 -2.75693e-05)
(-3.85233e-05 0.000129572 -2.42666e-05)
(-4.39226e-06 0.000119549 -1.68872e-05)
(7.77355e-06 0.000110036 1.70641e-06)
(-4.72217e-06 6.70064e-05 2.55331e-06)
(6.84321e-06 7.36954e-05 -1.17703e-05)
(3.68528e-05 8.04621e-05 -1.72529e-05)
(6.79355e-05 9.27697e-05 -1.9164e-05)
(0.000101592 0.000113383 -2.15761e-05)
(0.000136857 0.000144593 -2.54944e-05)
(0.000170354 0.000189555 -3.11603e-05)
(0.00019529 0.00025018 -3.72371e-05)
(0.00016093 0.000328006 -5.53568e-05)
(0.000165825 0.000375684 -8.48922e-05)
(0.00026909 0.000709602 6.8702e-05)
(0.000307537 0.000907429 2.96118e-05)
(0.000375972 0.00103747 1.66202e-05)
(0.00032963 0.00115328 1.68538e-05)
(0.000249439 0.00123544 1.2442e-05)
(0.000155338 0.00129005 8.11386e-06)
(5.70619e-05 0.00131672 6.18649e-06)
(-4.27978e-05 0.00131775 6.19193e-06)
(-0.000141165 0.00129317 8.1239e-06)
(-0.000235552 0.00124071 1.24617e-05)
(-0.000316352 0.00116088 1.68871e-05)
(-0.000364303 0.00104756 1.67306e-05)
(-0.000299651 0.000919932 2.9339e-05)
(-0.000264093 0.000722302 6.72607e-05)
(-0.000162214 0.000388345 -8.24683e-05)
(-0.000154101 0.000342425 -5.65901e-05)
(-0.000179965 0.000264681 -4.05286e-05)
(-0.000146678 0.00020566 -3.59766e-05)
(-0.000102929 0.000164322 -3.18131e-05)
(-5.70613e-05 0.000139137 -2.81485e-05)
(-1.12259e-05 0.000125565 -1.92274e-05)
(7.02617e-06 0.000114469 2.89481e-06)
(-4.03715e-06 6.57409e-05 3.48648e-06)
(1.10085e-05 7.23872e-05 -1.29827e-05)
(4.81011e-05 7.91624e-05 -1.92962e-05)
(8.84737e-05 9.16543e-05 -2.16383e-05)
(0.000136002 0.000112802 -2.47572e-05)
(0.000194467 0.000145463 -2.98325e-05)
(0.000269473 0.000194279 -3.70993e-05)
(0.000374823 0.000264857 -4.36637e-05)
(0.000503443 0.000366412 -4.78257e-05)
(0.000763406 0.000505615 -3.12392e-05)
(0.000790049 0.000143941 4.91791e-05)
(0.000615943 0.00030971 6.45103e-05)
(0.000684581 0.000674079 0.000127028)
(0.000616819 0.000883471 0.000184097)
(0.000494115 0.00103284 0.000216278)
(0.000353813 0.00113219 0.000226623)
(0.000213453 0.00119359 0.000228458)
(7.62132e-05 0.00122277 0.000228542)
(-5.9527e-05 0.00122373 0.00022861)
(-0.000196698 0.00119653 0.000228662)
(-0.000336939 0.00113725 0.000226985)
(-0.000477013 0.0010403 0.000216898)
(-0.000599542 0.000893741 0.000185264)
(-0.000667195 0.000687657 0.000128825)
(-0.000596695 0.000326166 6.75378e-05)
(-0.00077808 0.000147488 5.17255e-05)
(-0.000758295 0.000509263 -3.03098e-05)
(-0.000493245 0.000375937 -4.93792e-05)
(-0.000358613 0.000277013 -4.72055e-05)
(-0.000244433 0.000209152 -4.27436e-05)
(-0.000157376 0.00016442 -3.74318e-05)
(-8.5691e-05 0.000138001 -3.28661e-05)
(-2.2361e-05 0.000124074 -2.21755e-05)
(4.69172e-06 0.000112775 4.39759e-06)
(-3.66168e-06 6.17596e-05 4.26273e-06)
(1.43701e-05 6.77665e-05 -1.4125e-05)
(5.7567e-05 7.36116e-05 -2.12386e-05)
(0.000105214 8.41207e-05 -2.39971e-05)
(0.000162271 0.000101259 -2.77632e-05)
(0.000233772 0.000126029 -3.39208e-05)
(0.000326306 0.000158685 -4.25871e-05)
(0.00045202 0.00019672 -5.11593e-05)
(0.000605048 0.000229537 -5.56204e-05)
(0.000832698 0.000245619 -4.52374e-05)
(0.00093959 0.000123514 -1.96775e-05)
(0.000924594 0.000307088 2.50201e-05)
(0.000903875 0.000498276 0.000137968)
(0.000774009 0.000639215 0.000211108)
(0.000610137 0.000748425 0.000248676)
(0.000430867 0.000821759 0.000263814)
(0.000257488 0.000868104 0.000267766)
(9.09773e-05 0.000890486 0.000268536)
(-7.24244e-05 0.000891278 0.000268602)
(-0.000238814 0.000870494 0.000267963)
(-0.00041197 0.00082579 0.000264175)
(-0.000590866 0.000754126 0.000249311)
(-0.000754611 0.00064655 0.00021235)
(-0.000884643 0.000506692 0.000140016)
(-0.000906051 0.000315527 2.8698e-05)
(-0.000926258 0.00012709 -1.73146e-05)
(-0.000823824 0.000252933 -4.48119e-05)
(-0.000594221 0.000238986 -5.73956e-05)
(-0.000435136 0.000208159 -5.51333e-05)
(-0.000299604 0.00017274 -4.9e-05)
(-0.000193245 0.000144052 -4.26441e-05)
(-0.000106096 0.000125169 -3.7165e-05)
(-2.99856e-05 0.000114628 -2.47699e-05)
(3.61626e-06 0.000104827 5.8302e-06)
(-3.40981e-06 5.54733e-05 4.93709e-06)
(1.71473e-05 6.07052e-05 -1.50963e-05)
(6.55608e-05 6.54374e-05 -2.29014e-05)
(0.000119095 7.37265e-05 -2.59986e-05)
(0.000183284 8.6879e-05 -3.03047e-05)
(0.000263365 0.000105122 -3.74902e-05)
(0.000365882 0.000127657 -4.78896e-05)
(0.000500692 0.000152424 -5.985e-05)
(0.000661236 0.000172877 -6.94745e-05)
(0.000857743 0.000189065 -6.93698e-05)
(0.000992147 0.00015878 -5.13464e-05)
(0.00105759 0.000248062 7.25707e-06)
(0.00103213 0.000361975 0.000124161)
(0.000879931 0.000456661 0.000194944)
(0.000688842 0.000531639 0.000230544)
(0.000482501 0.000581429 0.000240041)
(0.000287316 0.000613387 0.000240282)
(0.000101042 0.000628868 0.000239181)
(-8.10097e-05 0.000629518 0.000239213)
(-0.000267141 0.000615335 0.000240375)
(-0.000462075 0.000584674 0.000240226)
(-0.000668023 0.000536146 0.000230928)
(-0.000859109 0.000462358 0.000195877)
(-0.00101173 0.000368524 0.000125891)
(-0.00103985 0.000255154 1.06446e-05)
(-0.000979392 0.000164049 -4.93293e-05)
(-0.000847542 0.000195765 -6.8858e-05)
(-0.000649212 0.000181253 -7.12679e-05)
(-0.000482394 0.000162765 -6.40469e-05)
(-0.000337018 0.000140528 -5.48232e-05)
(-0.000219187 0.00012168 -4.70231e-05)
(-0.000121452 0.00010866 -4.06319e-05)
(-3.556e-05 0.000101103 -2.67694e-05)
(2.96439e-06 9.28748e-05 7.23767e-06)
(-3.37707e-06 4.73299e-05 5.48099e-06)
(1.89995e-05 5.16366e-05 -1.58783e-05)
(7.12664e-05 5.51349e-05 -2.42457e-05)
(0.000128783 6.10666e-05 -2.76016e-05)
(0.000197235 7.02217e-05 -3.23052e-05)
(0.000281563 8.24061e-05 -4.025e-05)
(0.000388116 9.65827e-05 -5.1918e-05)
(0.000525087 0.000111467 -6.60581e-05)
(0.000687296 0.000123351 -7.84804e-05)
(0.000874009 0.000135747 -8.16847e-05)
(0.00102602 0.000136994 -6.37346e-05)
(0.00113028 0.000190804 -8.24088e-06)
(0.00110666 0.000260628 0.000105967)
(0.000941889 0.000319282 0.00016966)
(0.000736453 0.000366662 0.000199583)
(0.000514992 0.000399172 0.000203589)
(0.000306608 0.000420529 0.000200549)
(0.000107694 0.000431057 0.000197805)
(-8.64719e-05 0.000431621 0.000197805)
(-0.000285265 0.000422205 0.000200544)
(-0.000493447 0.000401916 0.000203606)
(-0.000714593 0.000370389 0.000199722)
(-0.000920205 0.000323883 0.000170288)
(-0.0010856 0.000265852 0.000107373)
(-0.00111265 0.000196531 -5.08998e-06)
(-0.0010131 0.000142332 -6.18693e-05)
(-0.000862756 0.00014213 -8.12832e-05)
(-0.000674099 0.000130974 -8.03831e-05)
(-0.000505266 0.000120716 -7.04697e-05)
(-0.000357019 0.000108028 -5.92416e-05)
(-0.000233936 9.6995e-05 -5.036e-05)
(-0.000130415 8.91091e-05 -4.32604e-05)
(-3.83336e-05 8.43399e-05 -2.82654e-05)
(3.08983e-06 7.79355e-05 8.24689e-06)
(-3.42443e-06 3.79871e-05 5.90403e-06)
(2.02312e-05 4.13547e-05 -1.64771e-05)
(7.52895e-05 4.38211e-05 -2.52728e-05)
(0.000135549 4.78899e-05 -2.8813e-05)
(0.000206722 5.40908e-05 -3.37931e-05)
(0.000293438 6.22139e-05 -4.2266e-05)
(0.000401956 7.15322e-05 -5.48124e-05)
(0.000539622 8.14981e-05 -7.03626e-05)
(0.000702784 9.04225e-05 -8.44916e-05)
(0.00088812 0.000101547 -8.95309e-05)
(0.00105136 0.000111942 -7.14693e-05)
(0.00117424 0.000146327 -1.75908e-05)
(0.00115262 0.000189343 9.4958e-05)
(0.00098171 0.000227035 0.000154438)
(0.000767581 0.00025797 0.000180693)
(0.000536534 0.000279682 0.000181306)
(0.000319554 0.000294128 0.000176164)
(0.000112278 0.000301391 0.000172386)
(-8.99786e-05 0.000301924 0.00017237)
(-0.00029717 0.000295705 0.00017611)
(-0.000514027 0.000282236 0.000181236)
(-0.00074487 0.000261391 0.000180704)
(-0.000959344 0.000231187 0.000154899)
(-0.00113104 0.000194021 9.6202e-05)
(-0.00115644 0.000151433 -1.44621e-05)
(-0.00103813 0.000117087 -6.96975e-05)
(-0.000876077 0.000107388 -8.9208e-05)
(-0.000688578 9.71315e-05 -8.64999e-05)
(-0.000518401 8.94523e-05 -7.49458e-05)
(-0.000368854 8.12175e-05 -6.24177e-05)
(-0.000242867 7.43509e-05 -5.27769e-05)
(-0.000135848 6.94908e-05 -4.51688e-05)
(-3.97128e-05 6.64716e-05 -2.93558e-05)
(3.43036e-06 6.16059e-05 8.92802e-06)
(-3.52482e-06 2.78595e-05 6.18958e-06)
(2.09456e-05 3.02544e-05 -1.69182e-05)
(7.78551e-05 3.1826e-05 -2.60152e-05)
(0.000139869 3.43586e-05 -2.96758e-05)
(0.000212702 3.82194e-05 -3.48263e-05)
(0.000300784 4.32966e-05 -4.36148e-05)
(0.00041043 4.92291e-05 -5.66692e-05)
(0.000548736 5.59169e-05 -7.2975e-05)
(0.000713292 6.28238e-05 -8.79667e-05)
(0.000900101 7.21638e-05 -9.37968e-05)
(0.00107011 8.31968e-05 -7.58809e-05)
(0.00120234 0.000105162 -2.26957e-05)
(0.00118196 0.000131744 8.98425e-05)
(0.00100732 0.00015546 0.000147719)
(0.000787866 0.000175091 0.00017238)
(0.000550892 0.000189286 0.000171477)
(0.000328341 0.000198884 0.000165405)
(0.000115521 0.000203859 0.000161171)
(-9.21759e-05 0.000204399 0.00016115)
(-0.000304965 0.000200475 0.000165337)
(-0.000527495 0.000191837 0.00017138)
(-0.000764412 0.000178461 0.000172347)
(-0.000984397 0.000159469 0.000148122)
(-0.00115999 0.000136179 9.10107e-05)
(-0.00118433 0.000109872 -1.96985e-05)
(-0.00105657 8.79969e-05 -7.41965e-05)
(-0.0008875 7.73493e-05 -9.35639e-05)
(-0.000698328 6.85329e-05 -9.00913e-05)
(-0.000526435 6.24377e-05 -7.77163e-05)
(-0.000375789 5.69197e-05 -6.44991e-05)
(-0.000248009 5.265e-05 -5.44227e-05)
(-0.000138885 4.97532e-05 -4.65023e-05)
(-4.025e-05 4.79361e-05 -3.01423e-05)
(3.83807e-06 4.45252e-05 9.3475e-06)
(-3.616e-06 1.73373e-05 6.34855e-06)
(2.13159e-05 1.87639e-05 -1.72159e-05)
(7.93203e-05 1.95711e-05 -2.64977e-05)
(0.000142384 2.08459e-05 -3.02276e-05)
(0.000216236 2.28443e-05 -3.54715e-05)
(0.000305231 2.55943e-05 -4.44297e-05)
(0.000415767 2.90632e-05 -5.77516e-05)
(0.000554907 3.33712e-05 -7.44345e-05)
(0.000720881 3.85487e-05 -8.98416e-05)
(0.000909477 4.55459e-05 -9.60072e-05)
(0.00108324 5.42316e-05 -7.81241e-05)
(0.00121985 6.70401e-05 -2.4961e-05)
(0.00119999 8.15358e-05 8.81164e-05)
(0.0010232 9.47087e-05 0.000145757)
(0.000800582 0.000105662 0.00017)
(0.000560069 0.000113882 0.000168625)
(0.000334067 0.000119548 0.00016225)
(0.000117786 0.000122657 0.000157866)
(-9.33519e-05 0.000123237 0.000157847)
(-0.000309669 0.000121253 0.000162183)
(-0.000535782 0.000116595 0.00016853)
(-0.000776425 0.000109204 0.000169967)
(-0.000999796 9.88342e-05 0.000146152)
(-0.00117776 8.59867e-05 8.92625e-05)
(-0.00120173 7.15777e-05 -2.20286e-05)
(-0.00106958 5.86972e-05 -7.65128e-05)
(-0.000896615 5.00752e-05 -9.58651e-05)
(-0.000705507 4.32339e-05 -9.20801e-05)
(-0.000531971 3.83992e-05 -7.93172e-05)
(-0.000380188 3.46425e-05 -6.5761e-05)
(-0.000251107 3.20006e-05 -5.5458e-05)
(-0.00014063 3.03456e-05 -4.73662e-05)
(-4.04947e-05 2.93324e-05 -3.06766e-05)
(4.12514e-06 2.7284e-05 9.5724e-06)
(-3.68172e-06 6.69413e-06 6.38134e-06)
(2.14026e-05 7.14367e-06 -1.7381e-05)
(7.98146e-05 7.21698e-06 -2.67368e-05)
(0.000143316 7.30245e-06 -3.04911e-05)
(0.000217673 7.55091e-06 -3.57639e-05)
(0.000307266 8.12411e-06 -4.47718e-05)
(0.000418557 9.29207e-06 -5.81681e-05)
(0.000558666 1.13352e-05 -7.49447e-05)
(0.000725883 1.46793e-05 -9.04579e-05)
(0.000915852 1.91432e-05 -9.67056e-05)
(0.00109099 2.48867e-05 -7.88473e-05)
(0.00122846 2.97324e-05 -2.56073e-05)
(0.00120841 3.34848e-05 8.78953e-05)
(0.00103062 3.70361e-05 0.000145819)
(0.000806626 3.99472e-05 0.000170189)
(0.000564625 4.25495e-05 0.000168858)
(0.000337064 4.45184e-05 0.000162491)
(0.0001192 4.5881e-05 0.000158107)
(-9.35692e-05 4.65308e-05 0.00015809)
(-0.000311557 4.64264e-05 0.000162426)
(-0.000539395 4.55679e-05 0.000168764)
(-0.000781771 4.3857e-05 0.000170156)
(-0.0010068 4.1509e-05 0.000146203)
(-0.00118606 3.81854e-05 8.90168e-05)
(-0.00121043 3.42867e-05 -2.27395e-05)
(-0.00107745 2.90966e-05 -7.73226e-05)
(-0.000903048 2.30785e-05 -9.6671e-05)
(-0.000710483 1.83865e-05 -9.28195e-05)
(-0.000535593 1.49052e-05 -7.99652e-05)
(-0.000382708 1.27865e-05 -6.63261e-05)
(-0.000252698 1.15912e-05 -5.59624e-05)
(-0.000141447 1.10242e-05 -4.78172e-05)
(-4.06142e-05 1.07352e-05 -3.09903e-05)
(4.25549e-06 1.0058e-05 9.61466e-06)
(-3.7224e-06 -3.78096e-06 6.28943e-06)
(2.12045e-05 -4.30742e-06 -1.74149e-05)
(7.93353e-05 -5.00275e-06 -2.67357e-05)
(0.000142658 -6.18256e-06 -3.04713e-05)
(0.000216993 -7.81806e-06 -3.5713e-05)
(0.000306852 -9.62629e-06 -4.46566e-05)
(0.000418756 -1.10237e-05 -5.79458e-05)
(0.000559947 -1.14994e-05 -7.4557e-05)
(0.00072826 -1.00084e-05 -8.98663e-05)
(0.000919307 -7.74938e-06 -9.59523e-05)
(0.00109367 -3.81415e-06 -7.81422e-05)
(0.00122853 -6.66311e-06 -2.48251e-05)
(0.00120738 -1.43683e-05 8.89037e-05)
(0.00102966 -2.10422e-05 0.000147518)
(0.000806047 -2.66999e-05 0.000172473)
(0.000564597 -2.9989e-05 0.000171643)
(0.000337364 -3.18721e-05 0.000165558)
(0.000119786 -3.22919e-05 0.000161315)
(-9.28002e-05 -3.1521e-05 0.000161299)
(-0.000310604 -2.96057e-05 0.000165504)
(-0.000538314 -2.64093e-05 0.000171558)
(-0.000780442 -2.20734e-05 0.000172436)
(-0.00100547 -1.58183e-05 0.000147869)
(-0.00118506 -9.00429e-06 8.99559e-05)
(-0.00121085 -1.76145e-06 -2.20801e-05)
(-0.00108056 3.454e-07 -7.67505e-05)
(-0.000906898 -4.2134e-06 -9.60632e-05)
(-0.000713232 -7.07877e-06 -9.237e-05)
(-0.000537232 -9.17814e-06 -7.97062e-05)
(-0.000383301 -9.41389e-06 -6.62259e-05)
(-0.000252758 -8.90497e-06 -5.59559e-05)
(-0.00014132 -8.19092e-06 -4.78674e-05)
(-4.05983e-05 -7.65032e-06 -3.10908e-05)
(4.23542e-06 -6.93726e-06 9.47747e-06)
(-3.75755e-06 -1.3805e-05 6.0692e-06)
(2.06604e-05 -1.532e-05 -1.73127e-05)
(7.77529e-05 -1.69129e-05 -2.6485e-05)
(0.000140175 -1.96321e-05 -3.01546e-05)
(0.000213811 -2.36368e-05 -3.52948e-05)
(0.000303411 -2.85873e-05 -4.40412e-05)
(0.000415589 -3.35836e-05 -5.70023e-05)
(0.000557997 -3.76805e-05 -7.30962e-05)
(0.000727548 -3.85457e-05 -8.78079e-05)
(0.000920324 -3.78354e-05 -9.3338e-05)
(0.00109177 -3.20543e-05 -7.55026e-05)
(0.0012191 -4.33494e-05 -2.1738e-05)
(0.00119541 -6.59799e-05 9.24821e-05)
(0.0010191 -8.59833e-05 0.000152879)
(0.000797964 -0.000102761 0.000179428)
(0.000559482 -0.000113387 0.000180039)
(0.000334722 -0.000119931 0.000174791)
(0.000119527 -0.000122433 0.000170938)
(-9.08783e-05 -0.000121466 0.000170904)
(-0.000306423 -0.000117078 0.000174677)
(-0.000531903 -0.000108865 0.000179849)
(-0.00077146 -9.68789e-05 0.000179242)
(-0.000994507 -7.93672e-05 0.000153035)
(-0.00117328 -5.92648e-05 9.33128e-05)
(-0.0012021 -3.75676e-05 -1.92391e-05)
(-0.0010794 -2.76509e-05 -7.43348e-05)
(-0.000908599 -3.43898e-05 -9.36882e-05)
(-0.000713242 -3.60525e-05 -9.05263e-05)
(-0.000536119 -3.62332e-05 -7.84206e-05)
(-0.00038119 -3.34745e-05 -6.53959e-05)
(-0.000250689 -3.02273e-05 -5.53973e-05)
(-0.000139868 -2.74955e-05 -4.7488e-05)
(-4.0259e-05 -2.57164e-05 -3.09662e-05)
(4.11784e-06 -2.34639e-05 9.13173e-06)
(-3.84793e-06 -2.29767e-05 5.7116e-06)
(1.96039e-05 -2.54421e-05 -1.70655e-05)
(7.47253e-05 -2.80414e-05 -2.59694e-05)
(0.000135245 -3.25731e-05 -2.95163e-05)
(0.00020706 -3.94869e-05 -3.44601e-05)
(0.000295256 -4.85301e-05 -4.28166e-05)
(0.000406678 -5.85972e-05 -5.5112e-05)
(0.000550036 -6.81469e-05 -7.00939e-05)
(0.000721363 -7.27487e-05 -8.34442e-05)
(0.000919273 -7.36171e-05 -8.74601e-05)
(0.00108546 -5.70805e-05 -6.98962e-05)
(0.00119636 -7.88581e-05 -1.5273e-05)
(0.00116744 -0.000125648 0.000100331)
(0.000994481 -0.000165139 0.000164489)
(0.000779134 -0.000197547 0.000194301)
(0.000547389 -0.000218243 0.000197978)
(0.000328169 -0.000231076 0.000194566)
(0.000118176 -0.000236338 0.000191581)
(-8.74165e-05 -0.000235064 0.000191498)
(-0.000297894 -0.000227282 0.000194302)
(-0.000518097 -0.000212165 0.000197528)
(-0.000751408 -0.000189492 0.000193752)
(-0.000969316 -0.000155992 0.000164192)
(-0.00114564 -0.000116291 0.000100687)
(-0.00118051 -7.12028e-05 -1.32149e-05)
(-0.0010742 -5.19618e-05 -6.91033e-05)
(-0.000908438 -6.9704e-05 -8.82209e-05)
(-0.000708059 -7.00983e-05 -8.65028e-05)
(-0.000529394 -6.69725e-05 -7.56586e-05)
(-0.000373919 -5.93773e-05 -6.36185e-05)
(-0.000244753 -5.19279e-05 -5.4168e-05)
(-0.000136009 -4.62487e-05 -4.66058e-05)
(-3.90279e-05 -4.27689e-05 -3.05941e-05)
(4.12268e-06 -3.8916e-05 8.43061e-06)
(-4.00997e-06 -3.08786e-05 5.23289e-06)