/*--------------------------------*- C++ -*----------------------------------*\
| =========                 |                                                 |
| \\      /  F ield         | OpenFOAM: The Open Source CFD Toolbox           |
|  \\    /   O peration     | Version:  2112                                  |
|   \\  /    A nd           | Website:  www.openfoam.com                      |
|    \\/     M anipulation  |                                                 |
\*---------------------------------------------------------------------------*/
FoamFile
{
    version     2.0;
    format      ascii;
    arch        "LSB;label=32;scalar=64";
    class       volScalarField;
    location    "4.1";
    object      epsilon;
}
// * * * * * * * * * * * * * * * * * * * * * * * * * * * * * * * * * * * * * //

dimensions      [0 2 -3 0 0 0 0];

internalField   nonuniform List<scalar> 
64906
(
0.000128546
0.000153259
0.000169636
0.000178116
0.00018217
0.000183999
0.000184771
0.000185067
0.000185157
0.00018516
0.00018513
0.000185092
0.000185065
0.000185044
0.000185027
0.000185013
0.000185
0.000184991
0.000184988
0.000184993
0.000185003
0.000185016
0.000185031
0.000185048
0.000185063
0.000185064
0.000184991
0.000184718
0.000183968
0.000182157
0.000178114
0.000169641
0.000153271
0.000128556
0.000153279
0.000288363
0.00037339
0.000421104
0.0004468
0.00045988
0.000466037
0.000468602
0.000469409
0.000469417
0.00046912
0.000468769
0.000468481
0.000468292
0.000468184
0.000468122
0.000468086
0.000468069
0.000468069
0.000468086
0.000468122
0.000468179
0.00046827
0.000468406
0.000468542
0.000468486
0.000467766
0.00046539
0.000459457
0.000446578
0.000421028
0.000373399
0.0002884
0.000153309
0.000169688
0.000373439
0.000507456
0.000586484
0.000631262
0.000655179
0.000666864
0.000671719
0.00067297
0.000672477
0.000671325
0.000670141
0.000669227
0.000668656
0.000668348
0.000668181
0.000668088
0.000668045
0.000668048
0.000668095
0.000668189
0.000668346
0.000668613
0.000669053
0.000669607
0.000669874
0.000668857
0.000664585
0.000653622
0.000630368
0.000586086
0.000507356
0.00037348
0.00016974
0.000178191
0.000421209
0.000586547
0.000687444
0.000746467
0.000778781
0.000794584
0.00080058
0.000801041
0.000798705
0.000795405
0.00079234
0.000790073
0.000788707
0.000787986
0.00078758
0.000787339
0.000787225
0.000787229
0.00078735
0.000787592
0.00078798
0.000788631
0.000789783
0.000791473
0.000793113
0.000793153
0.000788585
0.000774586
0.000743948
0.000686196
0.000586096
0.000421168
0.000178258
0.000182261
0.000446949
0.000631394
0.000746563
0.000815179
0.000852908
0.000870561
0.000875503
0.000872747
0.00086598
0.000858156
0.000851462
0.000846758
0.000844089
0.000842755
0.000841955
0.00084144
0.000841188
0.000841194
0.000841455
0.000841971
0.000842748
0.000843989
0.000846377
0.00085033
0.000855184
0.000858867
0.00085705
0.000843388
0.000809358
0.000743544
0.000630163
0.000446676
0.000182326
0.000184097
0.000460064
0.000655405
0.000779049
0.000853163
0.00089314
0.000909677
0.000910196
0.000900182
0.000884558
0.000868341
0.000855702
0.000847432
0.000843193
0.00084131
0.000840008
0.000839072
0.0008386
0.000838607
0.000839091
0.00084003
0.00084131
0.000843092
0.000847019
0.000854439
0.000864974
0.00087645
0.000882314
0.000873932
0.000841386
0.000772828
0.000652728
0.000459321
0.000184137
0.000184871
0.000466264
0.000667254
0.000795216
0.000871468
0.000910605
0.000922511
0.000913941
0.000890408
0.000858665
0.000828154
0.000807954
0.000796263
0.00079133
0.000789739
0.000788007
0.000786556
0.000785819
0.000785828
0.000786579
0.000788037
0.000789754
0.000791256
0.000795893
0.000806737
0.000824747
0.000850202
0.000871456
0.000875332
0.000850059
0.000783879
0.000662254
0.000464736
0.000184855
0.00018517
0.000468909
0.000672418
0.000801957
0.00087785
0.00091345
0.000917027
0.000893466
0.000847051
0.000786717
0.000732035
0.00070832
0.000698507
0.000696608
0.000697484
0.000695808
0.000694039
0.000693156
0.000693165
0.000694065
0.000695846
0.00069752
0.000696583
0.000698252
0.000707338
0.000728991
0.000778554
0.000827971
0.000853936
0.000842561
0.000783454
0.000664194
0.000466266
0.000185059
0.000185268
0.000469866
0.00067422
0.000803779
0.00087783
0.000908128
0.000900396
0.000855565
0.000772825
0.000659473
0.000557437
0.000556413
0.000567583
0.000577053
0.00058339
0.000583067
0.000581884
0.00058128
0.000581289
0.000581911
0.00058311
0.000583445
0.000577084
0.000567491
0.000555853
0.000555279
0.000652347
0.000754394
0.000816069
0.000825257
0.000776756
0.000662235
0.000465924
0.000185032
0.000185285
0.000470118
0.000674603
0.000803621
0.000875549
0.000900522
0.000881114
0.000811695
0.000677306
0.000463197
0.000260243
0.000357832
0.000430032
0.000460973
0.00047349
0.000476318
0.000476828
0.000476882
0.00047689
0.000476852
0.000476359
0.00047355
0.000461047
0.000430098
0.000357814
0.000259643
0.000458101
0.000660085
0.000772682
0.000805925
0.000768687
0.000659225
0.000465007
0.000184924
0.000185277
0.000470163
0.000674658
0.000803343
0.000874094
0.000896106
0.000869878
0.000783869
0.000603594
0.000274178
0.000215539
0.000336554
0.00038165
0.000395926
0.000400896
0.000402402
0.000402767
0.000402772
0.000402416
0.000400923
0.00039597
0.00038172
0.000336654
0.000215589
0.000272013
0.000587668
0.000745271
0.000794734
0.000764093
0.000657459
0.000464428
0.000184841
0.000185261
0.000470215
0.000674881
0.000803834
0.000875038
0.000898117
0.000875114
0.000800046
0.000658619
0.000439068
0.000244002
0.000303743
0.00035954
0.000382386
0.000388587
0.000393431
0.000394977
0.000395265
0.000395264
0.000394975
0.000393429
0.00038858
0.000382378
0.000359512
0.000303567
0.000243309
0.000433958
0.000641476
0.000761038
0.00079973
0.000765845
0.000658092
0.000464598
0.000184827
0.000185251
0.000470325
0.000675348
0.000805052
0.000877828
0.000904293
0.000888822
0.000831043
0.000729528
0.000592496
0.00046523
0.00042324
0.000403099
0.00039606
0.000393396
0.00039378
0.00039397
0.000393944
0.00039394
0.000393957
0.000393756
0.00039335
0.000395975
0.000402899
0.00042263
0.000463153
0.000585643
0.000711361
0.000791481
0.000813062
0.000771671
0.000660493
0.000465367
0.000184889
0.000185244
0.000470461
0.00067592
0.00080655
0.000881211
0.000911412
0.000903163
0.000858898
0.000780987
0.00067817
0.000572744
0.000492417
0.000435728
0.000410022
0.00040047
0.000397531
0.000396596
0.000396285
0.000396278
0.000396573
0.000397491
0.000400401
0.000409896
0.000435446
0.000491614
0.00057009
0.000670507
0.000762123
0.000818796
0.000826951
0.000778354
0.000663408
0.000466332
0.000184961
0.000185235
0.000470584
0.000676445
0.000807907
0.000884183
0.000917356
0.000914246
0.000878198
0.000811867
0.000721537
0.000620637
0.00052669
0.000454414
0.000419342
0.0004057
0.000400988
0.000399416
0.000398914
0.000398903
0.000399385
0.000400936
0.000405618
0.000419197
0.000454101
0.000525804
0.000617743
0.000713479
0.000792556
0.000837656
0.000837607
0.000783864
0.000665918
0.000467176
0.000185013
0.000185222
0.000470671
0.00067684
0.000808914
0.000886329
0.000921468
0.000921462
0.000889787
0.000828642
0.000742629
0.000642062
0.000542516
0.000463639
0.000424316
0.000408652
0.00040309
0.000401191
0.000400561
0.000400545
0.000401151
0.00040303
0.000408564
0.000424163
0.000463312
0.000541578
0.000639054
0.00073436
0.000809048
0.000848922
0.000844475
0.000787611
0.000667676
0.000467763
0.000185036
0.000185206
0.000470718
0.000677088
0.000809543
0.000887639
0.000923891
0.000925517
0.000895925
0.000836917
0.000752274
0.000651299
0.000549376
0.000467685
0.000426566
0.000410016
0.000404074
0.000402011
0.000401287
0.000401265
0.000401962
0.000404008
0.000409922
0.000426409
0.00046735
0.000548361
0.000648234
0.000743893
0.000817158
0.000854852
0.000848295
0.000789778
0.000668715
0.000468099
0.000185035
0.00018519
0.000470732
0.000677208
0.000809846
0.000888255
0.000924999
0.000927312
0.000898534
0.000840275
0.000756001
0.000654729
0.000551905
0.000469173
0.000427398
0.000410515
0.000404423
0.00040228
0.000401489
0.00040146
0.000402223
0.000404352
0.000410417
0.000427237
0.000468832
0.000550872
0.000651642
0.000747573
0.000820441
0.000857362
0.000849972
0.000790756
0.00066919
0.000468242
0.000185019
0.000185176
0.000470723
0.000677218
0.000809869
0.000888291
0.000925051
0.000927381
0.000898623
0.000840384
0.000756124
0.000654856
0.000552022
0.000469255
0.000427445
0.000410534
0.000404419
0.00040225
0.000401419
0.000401384
0.000402187
0.000404344
0.000410433
0.000427283
0.000468915
0.000550992
0.000651774
0.000747702
0.000820555
0.000857454
0.000850042
0.000790803
0.000669216
0.000468238
0.000184997
0.000185173
0.000470698
0.000677118
0.000809611
0.000887745
0.000924043
0.000925725
0.000896193
0.000837247
0.000752652
0.000651697
0.000549748
0.000467944
0.000426718
0.00041008
0.00040407
0.000401931
0.000401104
0.000401066
0.000401865
0.000403992
0.000409979
0.000426558
0.000467612
0.000548739
0.000648653
0.000744292
0.000817505
0.00085513
0.000848503
0.00078992
0.000668793
0.000468094
0.000184983
0.000185182
0.000470651
0.000676889
0.00080902
0.000886498
0.000921713
0.000921799
0.000890234
0.000829206
0.000743296
0.000642786
0.000543173
0.00046411
0.000424597
0.000408783
0.000403104
0.000401087
0.000400324
0.00040029
0.000401021
0.000403026
0.000408684
0.000424446
0.000463798
0.000542223
0.000639825
0.000735072
0.000809644
0.000849385
0.000844814
0.00078784
0.000667804
0.000467768
0.000184974
0.000185192
0.000470567
0.000676503
0.000808032
0.000884385
0.000917658
0.000914682
0.000878804
0.000812677
0.00072255
0.000621794
0.000527658
0.000455146
0.00041977
0.000405901
0.00040102
0.000399299
0.00039867
0.000398643
0.000399239
0.000400946
0.00040581
0.000419634
0.000454872
0.000526837
0.000618997
0.000714571
0.000793409
0.000838276
0.00083804
0.000784153
0.00066608
0.000467196
0.000184948
0.0001852
0.000470437
0.000675955
0.000806638
0.000881367
0.000911674
0.000903592
0.000859579
0.000782014
0.000679602
0.000574471
0.000493875
0.000436674
0.000410468
0.000400587
0.000397414
0.000396314
0.000395901
0.000395881
0.000396263
0.000397345
0.000400499
0.000410346
0.000436455
0.000493211
0.000571992
0.000672064
0.000763173
0.000819444
0.000827351
0.00077861
0.000663556
0.000466353
0.000184893
0.000185205
0.000470257
0.000675269
0.000804947
0.000877723
0.000904248
0.000888943
0.000831492
0.000730542
0.000594251
0.000467564
0.000425168
0.000403674
0.000395756
0.000392595
0.000392643
0.000392655
0.000392544
0.000392527
0.000392605
0.000392558
0.000392463
0.000395575
0.000403459
0.000424776
0.000465756
0.000587547
0.000712245
0.000791713
0.000813059
0.000771642
0.000660488
0.000465335
0.000184813
0.000185203
0.000470005
0.000674454
0.000803157
0.000874156
0.000897132
0.000874195
0.000799497
0.00065895
0.000440784
0.000245032
0.000304101
0.000357081
0.000378282
0.000383484
0.000387792
0.000389133
0.000389341
0.000389317
0.000389049
0.000387602
0.000383093
0.00037765
0.000356376
0.000303853
0.000244352
0.000435723
0.000641116
0.000759736
0.000798444
0.00076495
0.000657606
0.00046438
0.000184735
0.00018518
0.000469553
0.000673315
0.000801218
0.000871275
0.000892744
0.000866153
0.000780079
0.000600558
0.000273229
0.000210446
0.000323334
0.000363673
0.000374947
0.000378849
0.000380048
0.000380309
0.000380248
0.000379809
0.00037824
0.000373583
0.000361133
0.000319793
0.000208261
0.000269831
0.000581955
0.000739328
0.000790133
0.000761061
0.000655773
0.000463721
0.000184705
0.000185083
0.000468496
0.000671088
0.000798197
0.00086845
0.000892033
0.000871429
0.000800915
0.000665837
0.000452645
0.00025301
0.00033014
0.000387279
0.000405086
0.000408802
0.000409512
0.000409733
0.000409758
0.000409635
0.000409216
0.000408042
0.000405131
0.000397309
0.000374363
0.000317126
0.00024667
0.000438771
0.000640704
0.000757061
0.000794676
0.000761268
0.000654934
0.000463162
0.000184661
0.000184795
0.000465879
0.000665931
0.000791399
0.000861956
0.000889323
0.000878785
0.000830489
0.000742687
0.000621662
0.000507537
0.000481075
0.000464148
0.000444983
0.000434099
0.000429709
0.000428261
0.000427811
0.000427621
0.000427416
0.000427107
0.000426987
0.000428159
0.000432524
0.000445005
0.000475191
0.000590297
0.000708008
0.000782622
0.000801788
0.000760953
0.000652655
0.000461574
0.000184486
0.000184038
0.000459798
0.000654413
0.000776008
0.000845425
0.000875797
0.00087448
0.000844728
0.000788497
0.00071174
0.000630833
0.000568182
0.000511221
0.000462998
0.000439762
0.000430998
0.000428121
0.000427264
0.000427032
0.000427051
0.000427533
0.000429703
0.000437326
0.000459261
0.000509004
0.000577019
0.000665988
0.000746291
0.000794734
0.000799549
0.000752938
0.000644526
0.000456703
0.000183847
0.000182225
0.00044684
0.000630862
0.000744646
0.000809966
0.000840843
0.000845695
0.000828897
0.000792677
0.000739794
0.00067599
0.000608867
0.000541112
0.00048362
0.000455599
0.000444775
0.000441122
0.00044002
0.00043976
0.000439913
0.000440848
0.000444226
0.000454732
0.000482826
0.00054213
0.000615366
0.000689873
0.000749555
0.000781448
0.000777078
0.000728536
0.000624208
0.000444882
0.000182135
0.000178176
0.000421244
0.000586442
0.000686607
0.00074369
0.000771764
0.000779379
0.000771055
0.000748666
0.000713139
0.000666192
0.000611429
0.000554546
0.000506246
0.000480413
0.000469621
0.000465702
0.000464452
0.000464173
0.000464406
0.000465597
0.000469428
0.000480169
0.000506141
0.000555507
0.000614476
0.000670506
0.000712343
0.000731714
0.000722291
0.000676572
0.000582546
0.000420219
0.000178161
0.000169691
0.000373576
0.000507641
0.000586426
0.000630328
0.000652116
0.000659423
0.000656226
0.000643979
0.000622911
0.000593361
0.000557213
0.000519073
0.000486675
0.000467902
0.000459346
0.000456078
0.000455008
0.000454768
0.00045499
0.000456034
0.000459272
0.000467824
0.000486731
0.000519562
0.000558286
0.000593985
0.000619338
0.00062911
0.000618632
0.000581299
0.000505864
0.000373217
0.000169731
0.000153307
0.000288511
0.000373668
0.000421421
0.000446922
0.000459311
0.000463842
0.00046317
0.00045824
0.000449022
0.000435342
0.000417912
0.000399116
0.000382888
0.000372956
0.000368159
0.000366229
0.000365564
0.000365413
0.000365569
0.000366234
0.000368164
0.000372967
0.000382955
0.000399316
0.000418223
0.00043517
0.000446566
0.000449903
0.000442485
0.000419716
0.000373232
0.000288514
0.000153362
0.000128575
0.000153349
0.000169811
0.000178368
0.000182483
0.000184333
0.000185044
0.000185114
0.000184686
0.000183713
0.000182196
0.000180114
0.000177698
0.000175491
0.000174087
0.000173375
0.000173053
0.000172905
0.000172854
0.000172911
0.00017306
0.000173379
0.000174086
0.000175488
0.000177699
0.000180116
0.000182143
0.000183432
0.000183643
0.000182301
0.000178411
0.000169915
0.000153432
0.000128617
0.000172208
0.000256754
0.000314853
0.000347716
0.000365133
0.000373818
0.000377825
0.000379465
0.000379969
0.000379964
0.000379761
0.00037952
0.000379314
0.000379167
0.000379072
0.00037901
0.000378969
0.000378948
0.000378947
0.000378965
0.000379002
0.000379059
0.000379143
0.000379255
0.000379366
0.000379352
0.000378909
0.000377389
0.00037352
0.000364958
0.00034763
0.000314823
0.000256753
0.000172219
0.00025676
0.000322269
0.000387322
0.000427865
0.000450644
0.00046249
0.000468136
0.000470497
0.000471225
0.000471199
0.00047088
0.000470508
0.0004702
0.000469988
0.000469858
0.000469779
0.000469732
0.00046971
0.00046971
0.000469732
0.000469778
0.000469852
0.000469965
0.000470124
0.000470284
0.000470264
0.00046962
0.000467439
0.00046201
0.000450365
0.00042774
0.0003873
0.000322311
0.000256762
0.000314891
0.000387342
0.000466941
0.000519207
0.000549988
0.000566673
0.000574864
0.000578258
0.000579107
0.000578721
0.000577867
0.000576984
0.000576287
0.000575826
0.000575554
0.000575394
0.000575301
0.000575258
0.000575258
0.000575303
0.000575394
0.000575544
0.000575784
0.000576149
0.000576584
0.000576809
0.000576118
0.000573131
0.000565453
0.00054925
0.000518846
0.000466832
0.000387375
0.000314883
0.000347791
0.000427913
0.000519239
0.000580979
0.000618385
0.000639109
0.00064927
0.000653115
0.000653399
0.000651896
0.000649788
0.000647825
0.00064636
0.000645436
0.000644912
0.00064461
0.000644431
0.000644345
0.000644346
0.000644434
0.00064461
0.000644897
0.000645371
0.000646151
0.000647237
0.000648268
0.000648256
0.000645285
0.00063626
0.000616616
0.000580052
0.000518871
0.000427857
0.000347733
0.000365244
0.000450721
0.000550062
0.000618441
0.000660506
0.000683871
0.000694835
0.00069793
0.000696299
0.000692256
0.000687624
0.000683672
0.000680907
0.000679267
0.000678384
0.00067788
0.000677568
0.000677412
0.000677414
0.000677571
0.00067788
0.000678366
0.000679186
0.000680642
0.000682926
0.000685714
0.000687746
0.000686421
0.000677819
0.000656696
0.000616367
0.000549134
0.000450434
0.000365049
0.000373962
0.0004626
0.000566812
0.000639277
0.000684031
0.000708404
0.000718557
0.00071903
0.000713252
0.000704285
0.000695115
0.000687965
0.000683404
0.00068093
0.00067969
0.000678992
0.000678521
0.000678271
0.000678273
0.000678525
0.000678995
0.000679674
0.000680844
0.000683111
0.000687124
0.000692946
0.000699165
0.000702114
0.000696603
0.000676584
0.000635154
0.000564861
0.000461859
0.000373491
0.000378007
0.000468296
0.000575123
0.000649677
0.000695397
0.000719114
0.000726513
0.000721786
0.000708484
0.000690839
0.000674225
0.000662684
0.000656518
0.000653676
0.000652389
0.000651746
0.000651189
0.000650852
0.000650855
0.000651196
0.000651753
0.00065238
0.000653601
0.000656235
0.000661829
0.000671948
0.000685383
0.000696574
0.000697893
0.00068212
0.000642306
0.000571543
0.000466815
0.00037707
0.000379703
0.000470748
0.000578745
0.000654004
0.000699364
0.00072095
0.000723573
0.000710517
0.000685
0.000653021
0.000625353
0.000608532
0.000603266
0.000602018
0.000601465
0.00060176
0.000601486
0.000601173
0.000601176
0.000601496
0.000601773
0.00060147
0.000601973
0.000603038
0.000607755
0.000623106
0.000647447
0.000672685
0.000685785
0.00067778
0.000642117
0.00057292
0.000468235
0.000378103
0.000380297
0.000471635
0.000579994
0.000655152
0.000699363
0.000717884
0.000714236
0.000689976
0.000646862
0.00059324
0.000555586
0.000527077
0.000530416
0.000535505
0.0005365
0.000540063
0.000541072
0.000541093
0.000541097
0.000541084
0.000540083
0.000536521
0.000535504
0.000530291
0.000526489
0.000553405
0.000587607
0.000634304
0.000664751
0.000667654
0.000637954
0.000571574
0.000467926
0.000377922
0.000380435
0.00047186
0.000580233
0.000655013
0.00069796
0.000713497
0.000703733
0.000667993
0.000605749
0.000532731
0.000612487
0.000429653
0.000452082
0.000470148
0.000472061
0.00048245
0.000485854
0.000486484
0.000486489
0.000485869
0.000482476
0.000472094
0.000470193
0.000452096
0.00042933
0.000608918
0.000526551
0.000592804
0.000642379
0.000656667
0.000632969
0.000569486
0.000467079
0.000377351
0.000380431
0.000471885
0.000580228
0.000654775
0.000697021
0.000710945
0.000697944
0.000656724
0.000592891
0.00067121
0.000428641
0.000382077
0.000407063
0.000420918
0.000422741
0.000422913
0.000422935
0.000422937
0.000422921
0.000422756
0.000420946
0.00040711
0.000382147
0.000428639
0.000658999
0.000579166
0.000630796
0.000650602
0.000630107
0.000568208
0.00046651
0.000376951
0.000380422
0.000471914
0.000580332
0.000655001
0.000697455
0.000711817
0.000699823
0.000660329
0.000592001
0.000507438
0.000537462
0.000382792
0.000422097
0.000452142
0.000481147
0.00046373
0.000457434
0.000456139
0.000456135
0.000457422
0.000463708
0.000481136
0.000452118
0.000422023
0.000382393
0.000533902
0.00050123
0.000579018
0.000634547
0.000652457
0.000630869
0.000568493
0.000466598
0.00037698
0.000380444
0.000472002
0.000580609
0.000655698
0.000699035
0.000715226
0.000706966
0.000674783
0.000619093
0.000546154
0.000480688
0.000431812
0.000422104
0.00042004
0.000423682
0.000418735
0.000416516
0.000415929
0.000415927
0.000416509
0.000418722
0.000423664
0.000419981
0.000421916
0.00043116
0.000478516
0.000540523
0.00060637
0.000649135
0.000659642
0.000634249
0.000570005
0.00046724
0.000377364
0.000380484
0.000472123
0.00058097
0.000656592
0.000701024
0.000719357
0.0007151
0.000689977
0.000645514
0.000586296
0.000523847
0.000471646
0.000438207
0.000417879
0.000410174
0.000406639
0.000405344
0.000404963
0.000404959
0.000405335
0.000406621
0.000410135
0.000417783
0.000437947
0.000470884
0.00052163
0.000580633
0.000632795
0.000664335
0.000667756
0.000638328
0.000571923
0.000468085
0.000377869
0.000380521
0.000472239
0.00058131
0.000657416
0.000702805
0.000722901
0.000721677
0.00070135
0.000663551
0.000611466
0.00055204
0.000495575
0.000452264
0.000423531
0.000411153
0.000406701
0.000405272
0.000404872
0.000404868
0.000405261
0.000406678
0.000411106
0.000423418
0.000451973
0.000494753
0.000549737
0.000605708
0.000650749
0.000675631
0.000674252
0.00064178
0.00057361
0.000468843
0.000378309
0.000380542
0.000472327
0.000581567
0.000658031
0.000704099
0.000725381
0.000726053
0.000708448
0.000673993
0.00062498
0.000566572
0.000507792
0.00046021
0.000427751
0.000413339
0.000408187
0.000406566
0.000406119
0.000406115
0.000406553
0.000408163
0.000413287
0.000427632
0.000459905
0.000506937
0.000564209
0.000619141
0.000661099
0.000682633
0.000678527
0.000644156
0.000574805
0.000469382
0.000378608
0.000380547
0.00047238
0.000581729
0.000658414
0.000704887
0.000726845
0.000728535
0.000712276
0.000679305
0.000631456
0.000573228
0.000513301
0.000463877
0.000429844
0.00041457
0.000409079
0.000407349
0.000406871
0.000406866
0.000407335
0.000409053
0.000414517
0.000429721
0.000463565
0.000512422
0.00057083
0.000625563
0.000666343
0.000686381
0.000680924
0.000645534
0.000575512
0.000469701
0.00037877
0.000380539
0.000472404
0.000581806
0.000658595
0.000705253
0.000727509
0.000729628
0.000713905
0.000681478
0.000633996
0.000575749
0.000515355
0.000465242
0.000430637
0.000415047
0.000409425
0.000407648
0.000407153
0.000407147
0.000407633
0.000409398
0.000414993
0.000430513
0.000464927
0.000514462
0.000573336
0.000628078
0.00066848
0.000687968
0.00068197
0.00064615
0.000575832
0.000469843
0.000378829
0.000380527
0.000472403
0.000581809
0.000658602
0.000705266
0.000727529
0.000729656
0.000713943
0.000681526
0.000634054
0.000575814
0.000515419
0.000465295
0.000430672
0.000415065
0.000409432
0.000407649
0.000407148
0.000407141
0.000407633
0.000409405
0.00041501
0.000430547
0.00046498
0.000514527
0.000573402
0.000628138
0.000668529
0.000688005
0.000681996
0.000646166
0.000575841
0.000469845
0.000378813
0.000380514
0.000472378
0.000581738
0.000658436
0.000704924
0.000726903
0.000728618
0.00071239
0.000679453
0.000631636
0.00057343
0.000513504
0.000464044
0.000429955
0.00041463
0.000409108
0.000407359
0.000406866
0.000406859
0.000407343
0.000409081
0.000414576
0.000429835
0.000463738
0.000512628
0.000571041
0.00062575
0.000666493
0.000686492
0.000681
0.000645583
0.000575538
0.000469707
0.00037873
0.000380498
0.000472324
0.000581581
0.000658063
0.000704156
0.000725471
0.000726188
0.00070864
0.00067425
0.000625304
0.000566945
0.000508161
0.000460519
0.000427959
0.000413456
0.000408254
0.000406604
0.000406138
0.000406131
0.00040659
0.00040823
0.000413407
0.000427847
0.00046023
0.000507321
0.000564603
0.000619478
0.000661358
0.000682816
0.000678649
0.000644232
0.000574846
0.000469394
0.000378556
0.000380469
0.000472233
0.000581319
0.000657446
0.000702864
0.000723004
0.000721845
0.000701606
0.000663921
0.000611962
0.000552638
0.000496162
0.000452739
0.000423826
0.000411303
0.000406782
0.00040532
0.0004049
0.000404895
0.000405308
0.000406761
0.000411262
0.00042373
0.000452481
0.000495384
0.000550374
0.000606222
0.00065111
0.000675863
0.000674394
0.000641863
0.000573654
0.000468855
0.000378249
0.00038042
0.000472102
0.000580952
0.000656581
0.000701034
0.00071941
0.000715231
0.000690235
0.000645958
0.000586973
0.000524715
0.00047248
0.000438738
0.000418054
0.00041009
0.000406477
0.00040515
0.000404753
0.000404749
0.000405139
0.000406455
0.000410046
0.000417963
0.000438517
0.000471792
0.000522558
0.000581308
0.000633179
0.000664515
0.000667828
0.000638353
0.00057193
0.00046808
0.000377792
0.000380345
0.000471929
0.000580496
0.000655544
0.000698859
0.000715061
0.000706864
0.000674828
0.000619413
0.00054689
0.000481812
0.000432669
0.000422047
0.000419217
0.000422335
0.000417316
0.000415058
0.000414454
0.000414448
0.000415036
0.000417262
0.000422232
0.000419041
0.000421773
0.000432065
0.000479688
0.000541117
0.00060644
0.000648943
0.000659394
0.000634046
0.000569872
0.000467164
0.000377237
0.000380225
0.000471692
0.000579954
0.000654454
0.000696765
0.000711028
0.000699
0.000659577
0.000591513
0.000507486
0.000539588
0.000381868
0.000419239
0.000447886
0.00047601
0.000458292
0.000451862
0.000450542
0.000450535
0.000451822
0.000458157
0.000475724
0.000447275
0.000418364
0.000380789
0.000535972
0.00050055
0.000577642
0.000633128
0.000651291
0.000630041
0.000567978
0.00046632
0.000376721
0.000379975
0.000471266
0.00057918
0.000653265
0.00069509
0.000708647
0.000695314
0.000653749
0.000589401
0.000664149
0.000408964
0.000366525
0.000387954
0.000399156
0.000399948
0.000399865
0.000399837
0.000399788
0.000399659
0.00039938
0.000397812
0.00038527
0.000362172
0.000400952
0.000646221
0.00057296
0.000626172
0.000647256
0.000627835
0.000566797
0.000465737
0.000376369
0.000379329
0.00047027
0.00057762
0.000651335
0.000693307
0.000707959
0.000697275
0.000660317
0.000596024
0.000518184
0.000572722
0.000396678
0.000410016
0.0004185
0.000414367
0.000421643
0.000424389
0.000424958
0.000424853
0.000423932
0.000420295
0.000410922
0.000411175
0.000397795
0.00038083
0.000544589
0.000501693
0.000577019
0.000631384
0.000648995
0.000627758
0.000566165
0.000465188
0.000376026
0.000377661
0.000467829
0.000573986
0.000646944
0.000689197
0.000705958
0.000700437
0.000673567
0.000626042
0.000564266
0.000511709
0.000466755
0.000449961
0.000436609
0.00042584
0.00042404
0.000423768
0.000423633
0.000423463
0.000423003
0.00042168
0.00041954
0.000422744
0.000427698
0.000440012
0.000485158
0.00054183
0.000603224
0.000643124
0.000652393
0.000627273
0.00056446
0.000463658
0.000374965
0.000373695
0.000462233
0.000565891
0.000637015
0.000678851
0.000697422
0.000696998
0.000679845
0.000647612
0.000604117
0.000557992
0.000516486
0.000483027
0.000457749
0.000439383
0.000431826
0.000429302
0.000428533
0.000428309
0.000428271
0.000428541
0.000430304
0.000437583
0.000454984
0.000482308
0.00052563
0.000576714
0.000621993
0.000648871
0.000650407
0.000621888
0.000558654
0.000459142
0.000371715
0.000365073
0.000450493
0.000549458
0.000616887
0.000656833
0.000675938
0.000679109
0.000669194
0.000647847
0.000616985
0.000579975
0.000540876
0.00050353
0.00047395
0.000452407
0.000442738
0.000439268
0.00043818
0.00043792
0.00043808
0.000439
0.000442224
0.000451743
0.000473457
0.000504711
0.000546034
0.000588454
0.000622238
0.000639846
0.000636051
0.000606047
0.000544403
0.000448422
0.000363773
0.000347711
0.000427819
0.000518948
0.000580124
0.000616191
0.000634126
0.000639052
0.000633936
0.000620191
0.000598641
0.000570478
0.000537855
0.00050444
0.000476195
0.000457186
0.000448142
0.00044464
0.000443472
0.0004432
0.000443441
0.00044456
0.000447997
0.000457032
0.000476267
0.000505391
0.00054027
0.000573357
0.000597856
0.000608767
0.000602018
0.000572967
0.000515741
0.000426588
0.00034697
0.00031488
0.000387353
0.000466895
0.000518901
0.000548966
0.000564051
0.000569091
0.00056686
0.000558516
0.000544369
0.000524745
0.000500869
0.000475681
0.000453962
0.000439678
0.000432561
0.000429646
0.000428626
0.000428388
0.000428625
0.000429639
0.000432547
0.000439686
0.000454114
0.000476202
0.000501814
0.000525231
0.00054171
0.000547787
0.000540228
0.000514685
0.000465113
0.000386734
0.00031455
0.000256788
0.000322343
0.000387421
0.000427899
0.00045038
0.000461449
0.000465441
0.000464676
0.000460026
0.000451564
0.00043926
0.000423765
0.000407096
0.000392592
0.000383168
0.000378393
0.000376381
0.000375658
0.000375489
0.000375669
0.000376402
0.000378422
0.00038322
0.000392716
0.000407363
0.000424118
0.000439101
0.000449228
0.000452232
0.000445684
0.000425778
0.000386598
0.000322094
0.000256711
0.000172239
0.000256787
0.000314933
0.000347806
0.000365095
0.000373346
0.000376334
0.000375928
0.000372763
0.000366802
0.000357917
0.000346516
0.00033413
0.000323403
0.000316766
0.000313517
0.000312159
0.000311662
0.000311543
0.000311673
0.00031218
0.000313543
0.000316804
0.000323479
0.000334286
0.000346718
0.000357779
0.000365177
0.000367268
0.000362178
0.000346604
0.000314533
0.0002567
0.000172273
0.00020021
0.000334914
0.00043047
0.000486724
0.000517918
0.000534205
0.000542052
0.000545371
0.000546393
0.000546328
0.000545823
0.000545227
0.00054472
0.000544361
0.00054413
0.000543986
0.000543899
0.000543857
0.000543856
0.000543896
0.000543979
0.000544113
0.000544313
0.000544589
0.00054487
0.000544888
0.000544007
0.000540963
0.000533437
0.000517441
0.000486466
0.000430353
0.000334877
0.00020022
0.000334916
0.000384218
0.000453495
0.000499796
0.000527086
0.000541851
0.000549142
0.000552288
0.000553282
0.000553244
0.000552789
0.00055225
0.000551794
0.000551472
0.00055127
0.000551147
0.000551075
0.000551042
0.000551042
0.000551075
0.000551144
0.000551257
0.000551431
0.000551669
0.000551901
0.000551873
0.000550992
0.000548096
0.000541111
0.000526635
0.000499575
0.000453433
0.000384247
0.000334876
0.000430512
0.000453509
0.000523937
0.000574882
0.000606553
0.000624409
0.00063346
0.000637317
0.000638313
0.000637875
0.000636872
0.000635812
0.000634952
0.00063436
0.000633995
0.00063378
0.000633656
0.000633599
0.000633599
0.000633656
0.000633775
0.000633975
0.000634294
0.000634756
0.000635281
0.000635532
0.000634709
0.000631313
0.000622856
0.000605578
0.000574373
0.000523754
0.000453506
0.000430404
0.000486819
0.000499836
0.00057491
0.000631302
0.000667387
0.000688144
0.000698627
0.000702708
0.000703067
0.000701512
0.000699278
0.000697154
0.000695521
0.000694439
0.000693791
0.000693421
0.00069321
0.00069311
0.00069311
0.000693209
0.000693414
0.000693762
0.000694344
0.000695245
0.000696422
0.000697476
0.000697367
0.000694166
0.000684868
0.000665275
0.000630132
0.000574394
0.000499683
0.000486546
0.000518071
0.000527161
0.000606628
0.000667447
0.000706885
0.000729574
0.000740529
0.00074377
0.000742286