/*--------------------------------*- C++ -*----------------------------------*\
| =========                 |                                                 |
| \\      /  F ield         | OpenFOAM: The Open Source CFD Toolbox           |
|  \\    /   O peration     | Version:  2112                                  |
|   \\  /    A nd           | Website:  www.openfoam.com                      |
|    \\/     M anipulation  |                                                 |
\*---------------------------------------------------------------------------*/
FoamFile
{
    version     2.0;
    format      ascii;
    arch        "LSB;label=32;scalar=64";
    class       volScalarField;
    location    "4.1";
    object      k;
}
// * * * * * * * * * * * * * * * * * * * * * * * * * * * * * * * * * * * * * //

dimensions      [0 2 -2 0 0 0 0];

internalField   nonuniform List<scalar> 
64906
(
0.000234573
0.000263971
0.000282633
0.000292097
0.000296592
0.000298621
0.000299481
0.000299812
0.000299913
0.000299916
0.000299882
0.000299838
0.000299807
0.000299783
0.000299764
0.000299748
0.000299734
0.000299724
0.00029972
0.000299726
0.000299737
0.000299752
0.000299769
0.000299787
0.000299805
0.000299807
0.000299725
0.00029942
0.000298586
0.000296576
0.000292094
0.000282639
0.000263985
0.000234585
0.000263995
0.000402776
0.000478842
0.0005191
0.000540239
0.000550896
0.000555905
0.000557995
0.000558654
0.000558659
0.000558412
0.000558119
0.000557878
0.000557719
0.000557628
0.000557576
0.000557545
0.000557531
0.000557531
0.000557545
0.000557575
0.000557623
0.0005577
0.000557815
0.000557928
0.000557884
0.000557297
0.000555361
0.000550537
0.000540045
0.00051903
0.000478846
0.000402809
0.000264029
0.000282692
0.000478885
0.00058792
0.000647831
0.000680699
0.000698011
0.000706431
0.00070993
0.000710831
0.000710469
0.000709628
0.000708759
0.000708086
0.000707662
0.000707432
0.000707306
0.000707236
0.000707204
0.000707206
0.000707241
0.000707312
0.00070743
0.000707629
0.000707955
0.000708363
0.000708561
0.000707828
0.000704749
0.00069685
0.000680018
0.000647515
0.000587832
0.000478916
0.000282751
0.000292181
0.000519188
0.000647878
0.000720584
0.000761595
0.000783675
0.000794403
0.000798469
0.00079878
0.000797184
0.000794924
0.000792815
0.000791247
0.000790296
0.00078979
0.000789505
0.000789336
0.000789256
0.000789259
0.000789343
0.000789512
0.000789785
0.000790241
0.000791041
0.000792208
0.000793334
0.000793364
0.000790261
0.000780749
0.000759804
0.000719663
0.00064752
0.000519144
0.000292254
0.000296693
0.000540361
0.000680796
0.000761663
0.000807997
0.000833005
0.000844619
0.000847866
0.000846056
0.00084159
0.0008364
0.000831932
0.000828773
0.000826967
0.000826057
0.000825512
0.000825163
0.000824993
0.000824997
0.000825173
0.000825522
0.00082605
0.000826896
0.000828509
0.000831158
0.00083439
0.000836826
0.000835623
0.000826606
0.000804008
0.000759518
0.00067986
0.00054012
0.000296763
0.000298729
0.000551047
0.000698177
0.000783862
0.000833178
0.000859264
0.000869976
0.000870324
0.000863846
0.000853673
0.000843026
0.000834649
0.00082912
0.000826259
0.000824975
0.000824092
0.000823462
0.000823146
0.00082315
0.000823474
0.000824106
0.000824972
0.000826186
0.000828834
0.000833787
0.000840758
0.000848279
0.000852086
0.000846607
0.000825272
0.000779534
0.000696188
0.000550415
0.00029877
0.000299591
0.000556091
0.000706718
0.000794843
0.00084523
0.000870589
0.000878264
0.000872782
0.000857591
0.000836865
0.00081666
0.000803067
0.000795094
0.00079168
0.000790553
0.000789357
0.000788365
0.000787863
0.000787868
0.00078838
0.000789377
0.000790562
0.000791625
0.000794831
0.000802219
0.000814327
0.000831175
0.000845061
0.000847543
0.000831007
0.000787047
0.000703049
0.000554814
0.000299568
0.000299926
0.000558249
0.000710445
0.000799424
0.000849439
0.000872463
0.0008748
0.000859664
0.000829421
0.000789262
0.000751906
0.000735221
0.000728136
0.000726666
0.000727213
0.000726
0.000724741
0.000724115
0.000724121
0.00072476
0.000726027
0.000727236
0.000726645
0.000727946
0.000734506
0.000749733
0.000783607
0.000816584
0.000833603
0.000826087
0.000786772
0.00070445
0.000556059
0.000299794
0.000300037
0.000559035
0.000711752
0.000800673
0.000849449
0.000869066
0.000864144
0.000835082
0.00078008
0.000701464
0.00062669
0.000625478
0.000633496
0.000640384
0.000645031
0.000644743
0.000643843
0.000643387
0.000643393
0.000643863
0.000644775
0.000645071
0.000640405
0.00063342
0.000625033
0.000625001
0.000696223
0.000767285
0.000808643
0.000814652
0.000782234
0.000703045
0.000555781
0.000299764
0.000300057
0.000559243
0.000712034
0.000800575
0.000847968
0.00086417
0.000851691
0.000806176
0.00071425
0.000554045
0.000376813
0.000465523
0.000525958
0.000550823
0.000560763
0.000562954
0.000563338
0.000563375
0.000563381
0.000563357
0.000562987
0.000560811
0.000550882
0.00052601
0.0004655
0.000376207
0.000549826
0.000701749
0.00077958
0.000801776
0.000776742
0.000700876
0.000555035
0.000299645
0.000300047
0.000559281
0.000712075
0.000800387
0.000847013
0.000861305
0.000844366
0.000787539
0.000661291
0.000390334
0.000331721
0.000446226
0.000485216
0.000497245
0.000501412
0.000502675
0.000502982
0.000502986
0.000502687
0.000501434
0.000497282
0.000485275
0.000446315
0.000331771
0.000388195
0.000649275
0.000760911
0.000794253
0.000773592
0.000699596
0.00055456
0.000299552
0.00030003
0.000559324
0.000712235
0.000800714
0.000847616
0.000862571
0.000847702
0.000798246
0.000700756
0.000534239
0.000360639
0.000416574
0.000465888
0.000485347
0.000490529
0.000494647
0.000495967
0.000496215
0.000496214
0.000495965
0.000494645
0.000490524
0.00048534
0.000465863
0.000416406
0.000359927
0.000529938
0.000688195
0.000771521
0.000797531
0.000774752
0.000700036
0.000554694
0.000299535
0.00030002
0.000559414
0.000712569
0.000801532
0.000849425
0.000866521
0.00085651
0.000818673
0.000750084
0.000652302
0.000554465
0.000519825
0.000502692
0.0004966
0.000494276
0.000494601
0.00049477
0.000494752
0.000494749
0.000494759
0.000494581
0.000494238
0.000496527
0.00050252
0.000519306
0.000552748
0.000647084
0.000737224
0.000791918
0.000806362
0.000778683
0.00070175
0.000555315
0.000299604
0.000300012
0.000559527
0.000712981
0.000802542
0.000851626
0.000871082
0.000865708
0.000836855
0.000784923
0.000713743
0.000636942
0.000575141
0.000529502
0.000508149
0.000500093
0.000497605
0.000496815
0.000496553
0.000496547
0.000496796
0.000497572
0.000500035
0.000508042
0.000529266
0.000574489
0.000634894
0.000708168
0.000771874
0.00081004
0.000815542
0.000783202
0.000703838
0.000556099
0.000299686
0.000300002
0.000559629
0.000713361
0.000803459
0.000853564
0.000874895
0.000872805
0.000849368
0.000805497
0.000743885
0.000672032
0.000601612
0.000544593
0.000515833
0.000504423
0.000500449
0.00049912
0.000498695
0.000498686
0.000499093
0.000500406
0.000504354
0.000515712
0.000544334
0.000600909
0.000669857
0.000738143
0.000792315
0.000822465
0.000822572
0.000786931
0.000705642
0.000556787
0.000299745
0.000299988
0.000559701
0.000713647
0.000804142
0.000854969
0.000877539
0.000877427
0.000856861
0.000816594
0.000758359
0.00068747
0.000613668
0.000551988
0.00051993
0.000506874
0.000502193
0.000500589
0.000500056
0.000500042
0.000500555
0.000502143
0.000506799
0.000519802
0.000551719
0.000612931
0.000685234
0.000752523
0.000803311
0.000829865
0.000827104
0.000789472
0.000706909
0.000557267
0.000299771
0.000299971
0.00055974
0.000713828
0.000804571
0.000855829
0.0008791
0.000880029
0.00086083
0.000822058
0.000764952
0.000694093
0.00061887
0.000555228
0.000521785
0.00050801
0.000503014
0.000501271
0.000500659
0.000500641
0.00050123
0.000502959
0.000507931
0.000521653
0.000554952
0.000618078
0.000691825
0.000759063
0.000808708
0.000833761
0.000829628
0.000790945
0.00070766
0.000557543
0.000299771
0.000299954
0.000559753
0.000713916
0.000804777
0.000856234
0.000879816
0.000881182
0.00086252
0.000824277
0.000767499
0.000696552
0.00062079
0.00055642
0.000522472
0.000508427
0.000503306
0.000501496
0.000500827
0.000500803
0.000501448
0.000503246
0.000508345
0.000522338
0.000556141
0.000619983
0.000694272
0.000761587
0.000810894
0.000835412
0.000830738
0.000791611
0.000708004
0.000557662
0.000299754
0.000299939
0.000559746
0.000713923
0.000804793
0.000856258
0.000879849
0.000881227
0.000862578
0.000824349
0.000767584
0.000696644
0.000620879
0.000556486
0.000522512
0.000508443
0.000503303
0.00050147
0.000500768
0.000500738
0.000501418
0.000503239
0.000508359
0.000522376
0.000556208
0.000620075
0.000694367
0.000761676
0.00081097
0.000835473
0.000830784
0.000791644
0.000708023
0.000557658
0.00029973
0.000299936
0.000559725
0.00071385
0.000804616
0.000855898
0.000879198
0.000880162
0.000861004
0.000822277
0.000765212
0.000694381
0.000619154
0.000555436
0.000521911
0.000508065
0.000503011
0.000501204
0.000500504
0.000500472
0.000501148
0.000502945
0.000507979
0.000521777
0.000555164
0.000618366
0.000692129
0.000759338
0.00080894
0.000833944
0.000829765
0.000791041
0.000707715
0.000557539
0.000299714
0.000299944
0.000559685
0.000713682
0.000804213
0.000855078
0.000877695
0.000877643
0.000857151
0.000816969
0.000758819
0.000687995
0.000614169
0.00055237
0.000520164
0.000506984
0.000502205
0.0005005
0.000499855
0.000499825
0.000500445
0.000502139
0.000506901
0.000520037
0.000552113
0.000613424
0.000685794
0.000753016
0.00080371
0.00083017
0.000827327
0.000789627
0.000707
0.000557271
0.000299703
0.000299956
0.000559614
0.000713401
0.000803542
0.000853694
0.000875087
0.000873083
0.000849761
0.000806038
0.00074459
0.00067288
0.000602363
0.000545188
0.000516191
0.000504591
0.000500475
0.000499019
0.000498486
0.000498463
0.000498968
0.000500412
0.000504514
0.000516077
0.000544961
0.000601709
0.000670777
0.000738905
0.000792888
0.000822873
0.000822857
0.000787125
0.000705757
0.000556802
0.000299672
0.000299964
0.000559506
0.000713004
0.000802596
0.000851722
0.000871244
0.000865978
0.000837296
0.000785615
0.00071476
0.000638241
0.000576295
0.000530281
0.000508521
0.000500188
0.0004975
0.000496569
0.000496219
0.000496202
0.000496526
0.000497441
0.000500113
0.000508417
0.000530096
0.000575753
0.000636325
0.000709274
0.000772585
0.000810464
0.0008158
0.00078337
0.000703941
0.000556114
0.00029961
0.000299969
0.000559357
0.000712507
0.000801451
0.000849342
0.000866475
0.00085657
0.000818954
0.000750774
0.000653601
0.000556344
0.000521429
0.000503173
0.00049633
0.000493578
0.000493614
0.00049363
0.000493539
0.000493524
0.000493587
0.000493541
0.000493465
0.000496173
0.000502986
0.00052109
0.000554844
0.000648496
0.000737825
0.000792053
0.000806339
0.000778649
0.000701736
0.000555286
0.000299521
0.000299965
0.000559147
0.000711914
0.000800235
0.000847008
0.000861896
0.000847061
0.000797837
0.000700962
0.000535638
0.000361667
0.000416896
0.000463701
0.000481776
0.000486113
0.000489787
0.000490936
0.000491116
0.000491096
0.000490864
0.000489623
0.000485775
0.000481226
0.000463075
0.000416658
0.000360967
0.000531377
0.000687893
0.00077058
0.000796621
0.000774106
0.000699664
0.000554508
0.000299434
0.000299939
0.000558773
0.000711085
0.00079891
0.000845107
0.00085905
0.000841842
0.000784882
0.000658969
0.000389388
0.00032634
0.000434208
0.000469543
0.000479168
0.000482493
0.000483518
0.000483742
0.000483689
0.000483311
0.000481965
0.000477982
0.000467314
0.000430975
0.00032403
0.000386042
0.000644909
0.000756706
0.000791056
0.00077145
0.000698338
0.000553967
0.000299399
0.000299829
0.000557904
0.000709467
0.000796841
0.000843219
0.00085854
0.000845218
0.000798774
0.000705897
0.000545337
0.000369597
0.0004407
0.000489878
0.000504633
0.000507652
0.000508197
0.000508366
0.000508383
0.00050828
0.00050793
0.000506959
0.00050456
0.000498058
0.000478771
0.000428865
0.000363264
0.000533858
0.000687567
0.000768718
0.000794048
0.000771554
0.000697712
0.000553502
0.000299349
0.000299507
0.000555767
0.00070574
0.000792207
0.000838904
0.000856702
0.000849881
0.000818239
0.000759143
0.00067377
0.00058797
0.000566711
0.000552843
0.000537193
0.000528234
0.000524594
0.000523389
0.000523014
0.000522856
0.000522688
0.000522441
0.000522367
0.000523391
0.000527138
0.000537655
0.000562345
0.000650484
0.0007348
0.000785841
0.00079871
0.000771278
0.000696038
0.000552199
0.000299151
0.000298662
0.000550819
0.000697433
0.000781735
0.000827972
0.000847832
0.000846959
0.000827441
0.000789946
0.00073732
0.000679733
0.000633314
0.000589664
0.000551514
0.000532662
0.000525461
0.000523084
0.000522374
0.000522181
0.000522198
0.0005226
0.000524402
0.000530692
0.000548566
0.000588048
0.000640007
0.00070486
0.000760937
0.000793815
0.000797112
0.000765744
0.000690145
0.000548231
0.00029844
0.000296652
0.000540262
0.000680383
0.00076029
0.000804413
0.000824889
0.00082806
0.000816891
0.000792594
0.000756482
0.000711784
0.000663255
0.000612514
0.00056784
0.000545425
0.000536638
0.000533652
0.000532748
0.000532534
0.00053266
0.000533428
0.000536193
0.000544734
0.000567235
0.00061333
0.000668034
0.000721524
0.000763025
0.000784795
0.000781945
0.00074894
0.000675399
0.000538599
0.000296544
0.000292163
0.000519211
0.000647782
0.000719952
0.000759607
0.000778774
0.000783915
0.000778199
0.000762792
0.000738076
0.00070484
0.000665149
0.000622729
0.000585606
0.000565265
0.000556652
0.000553503
0.000552494
0.000552268
0.000552458
0.000553418
0.000556499
0.000565076
0.000585535
0.000623472
0.000667382
0.000707868
0.000737414
0.000750952
0.000744537
0.000712663
0.000644776
0.000518313
0.000292141
0.000282695
0.000479
0.000588054
0.000647763
0.000679968
0.000695715
0.000700949
0.000698602
0.000689685
0.00067426
0.000652389
0.000625207
0.000595946
0.000570556
0.000555584
0.000548686
0.000546035
0.000545164
0.000544968
0.000545149
0.000546
0.000548627
0.000555523
0.000570606
0.00059633
0.000626016
0.000652823
0.000671576
0.000678789
0.000671237
0.000643817
0.000586601
0.000478664
0.000282736
0.000264027
0.000402913
0.000479079
0.000519354
0.000540314
0.000550389
0.000554051
0.000553479
0.000549429
0.00054185
0.000530547
0.000516019
0.000500164
0.000486295
0.000477708
0.000473529
0.000471839
0.000471255
0.000471122
0.000471259
0.000471844
0.000473533
0.000477718
0.000486355
0.000500336
0.000516276
0.00053039
0.000539804
0.000542583
0.000536577
0.000517873
0.000478672
0.000402906
0.00026409
0.000234609
0.000264077
0.000282831
0.000292377
0.000296936
0.000298983
0.000299769
0.000299843
0.00029936
0.000298268
0.000296571
0.000294243
0.00029154
0.000289065
0.000287484
0.00028668
0.000286316
0.000286148
0.000286091
0.000286155
0.000286323
0.000286684
0.000287484
0.000289062
0.000291542
0.000294246
0.00029651
0.000297951
0.000298195
0.000296718
0.000292417
0.000282945
0.000264173
0.000234661
0.000338451
0.000442225
0.000507032
0.000542024
0.000560201
0.000569202
0.000573355
0.000575058
0.000575584
0.000575577
0.000575363
0.000575108
0.000574889
0.000574734
0.000574632
0.000574566
0.000574524
0.000574502
0.0005745
0.000574519
0.000574558
0.000574619
0.000574708
0.000574827
0.000574944
0.00057493
0.000574469
0.00057289
0.000568882
0.00056001
0.000541928
0.000506996
0.000442222
0.000338464
0.000442232
0.000851516
0.00104198
0.00114696
0.00120472
0.00123523
0.0012502
0.00125663
0.00125859
0.00125836
0.00125723
0.00125593
0.00125483
0.00125405
0.00125355
0.00125324
0.00125306
0.00125297
0.00125297
0.00125306
0.00125324
0.00125353
0.00125396
0.00125456
0.00125518
0.00125528
0.00125361
0.00124775
0.00123347
0.00120359
0.00114631
0.00104166
0.000851383
0.000442232
0.000507073
0.00104206
0.00129385
0.00143732
0.00151908
0.00156369
0.00158608
0.00159555
0.00159784
0.00159645
0.00159358
0.00159056
0.00158811
0.00158644
0.00158542
0.00158481
0.00158446
0.00158429
0.00158429
0.00158446
0.00158481
0.00158538
0.00158627
0.0015876
0.00158918
0.00159013
0.00158838
0.00158019
0.0015594
0.0015163
0.00143573
0.00129307
0.00104176
0.00050706
0.000542104
0.00114712
0.00143742
0.00160683
0.00170556
0.00176027
0.0017875
0.00179791
0.00179842
0.0017937
0.00178702
0.00178059
0.00177562
0.00177239
0.0017705
0.00176937
0.00176871
0.00176839
0.00176839
0.00176871
0.00176936
0.00177043
0.00177214
0.00177488
0.00177861
0.00178215
0.00178261
0.00177485
0.00175098
0.00169948
0.0016033
0.00143564
0.00114641
0.000542035
0.000560316
0.00120496
0.0015193
0.00170573
0.00181567
0.00187646
0.00190523
0.00191326
0.00190834
0.00189638
0.00188226
0.00186968
0.00186044
0.00185478
0.00185166
0.00184976
0.00184859
0.00184802
0.00184803
0.00184859
0.00184975
0.00185157
0.00185447
0.00185951
0.0018672
0.00187624
0.00188283
0.00188002
0.00185793
0.00180348
0.00169856
0.0015156
0.00120341
0.0005601
0.000569352
0.00123557
0.00156413
0.00176081
0.00187698
0.00193973
0.00196591
0.00196673
0.0019505
0.0019248
0.00189738
0.00187479
0.00185927
0.00185056
0.00184616
0.00184331
0.0018414
0.00184046
0.00184046
0.00184141
0.0018433
0.00184608
0.00185023
0.00185826
0.00187203
0.0018906
0.0019095
0.00191872
0.00190532
0.00185445
0.00174752
0.00155716
0.00123253
0.000568843
0.000573545
0.00125072
0.00158695
0.00178886
0.00190708
0.0019677
0.00198642
0.00197342
0.00193688
0.00188671
0.00183678
0.00180032
0.00177779
0.00176684
0.00176223
0.00175849
0.00175568
0.00175427
0.00175428
0.0017557
0.00175849
0.00176217
0.00176655
0.00177682
0.00179754
0.00182969
0.00187039
0.00190282
0.00190789
0.00186848
0.00176621
0.001575
0.00124539
0.000572547
0.000575308
0.00125747
0.00159723
0.00180089
0.00191792
0.00197279
0.00197894
0.00194377
0.00187333
0.00177995
0.0016916
0.00164267
0.00161906
0.001611
0.00160942
0.00160562
0.00160218
0.00160044
0.00160045
0.0016022
0.00160564
0.0016094
0.00161079
0.00161828
0.00164017
0.00168471
0.00176329
0.0018379
0.00187555
0.00185681
0.00176556
0.00157863
0.00124905
0.000573618
0.00057593
0.00125999
0.00160091
0.00180426
0.00191816
0.0019649
0.00195437
0.00188817
0.00176414
0.00158982
0.0014228
0.00139078
0.00139492
0.00140399
0.00141087
0.00140982
0.00140741
0.00140608
0.00140609
0.00140744
0.00140985
0.00141089
0.00140392
0.00139445
0.00138897
0.00141682
0.00157345
0.0017279
0.00181812
0.00182951
0.00175415
0.00157475
0.00124805
0.000573431
0.000576076
0.00126063
0.00160166
0.00180396
0.00191441
0.0019531
0.00192554
0.00182394
0.00162416
0.00128072
0.000791812
0.0010187
0.00113907
0.00118882
0.0012065
0.00121389
0.0012154
0.00121544
0.00121544
0.00121543
0.00121393
0.00120655
0.00118887
0.00113901
0.00101818
0.000788613
0.00126545
0.00158735
0.00175252
0.00179885
0.00174022
0.00156871
0.00124555
0.000572839
0.000576073
0.00126068
0.00160165
0.00180325
0.00191167
0.0019457
0.00190806
0.00178331
0.00151812
0.0008421
0.000622591
0.000928353
0.00101278
0.0010405
0.00104894
0.00105126
0.00105177
0.00105178
0.00105128
0.00104897
0.00104056
0.00101287
0.000928461
0.000622583
0.000831533
0.00148106
0.00171106
0.00178039
0.00173172
0.00156481
0.00124377
0.000572422
0.000576065
0.00126073
0.00160191
0.00180373
0.00191248
0.00194739
0.00191298
0.0018003
0.00158401
0.00121695
0.000724749
0.000875539
0.000982073
0.00102707
0.00104538
0.00104773
0.00104788
0.00104781
0.00104781
0.00104787
0.00104772
0.00104536
0.00102703
0.000981925
0.000874869
0.000721424
0.00120158
0.00154689
0.00172826
0.00178531
0.0017332
0.00156524
0.00124378
0.000572448
0.000576088
0.00126095
0.00160266
0.00180551
0.0019163
0.00195557
0.00193091
0.00184109
0.00168053
0.00145287
0.00121594
0.00110287
0.00104273
0.00102075
0.00101429
0.00101289
0.00101248
0.00101229
0.00101229
0.00101247
0.00101287
0.00101423
0.00102059
0.00104224
0.00110116
0.00121013
0.00143642
0.00164364
0.00176957
0.00180367
0.00174161
0.00156909
0.00124537
0.000572843
0.000576131
0.0012613
0.00160369
0.00180788
0.00192127
0.0019656
0.00195069
0.00187944
0.00175283
0.00157901
0.00138732
0.001224
0.00109804
0.00103737
0.00101495
0.00100805
0.00100607
0.00100553
0.00100553
0.00100605
0.00100802
0.00101487
0.00103715
0.00109738
0.00122187
0.00138081
0.00156214
0.00171602
0.00180825
0.00182381
0.00175189
0.00157415
0.0012476
0.000573366
0.000576171
0.00126164
0.0016047
0.00181013
0.00192584
0.00197431
0.00196654
0.00190693
0.00179757
0.0016444
0.00146432
0.00128489
0.00113299
0.00105387
0.00102276
0.00101244
0.00100939
0.0010086
0.0010086
0.00100937
0.0010124
0.00102267
0.00105363
0.00113227
0.00128261
0.00145752
0.00162728
0.0017607
0.00183583
0.00183981
0.00176072
0.00157872
0.00124968
0.000573825
0.000576195
0.00126192
0.00160548
0.00181186
0.00192925
0.00198054
0.00197718
0.00192392
0.00182257
0.00167712
0.00149982
0.00131387
0.00115124
0.00106385
0.00102851
0.00101648
0.00101288
0.00101197
0.00101197
0.00101287
0.00101645
0.00102842
0.0010636
0.0011505
0.00131153
0.00149288
0.00165985
0.00178559
0.00185278
0.00185043
0.00176691
0.00158204
0.00125121
0.000574137
0.000576201
0.0012621
0.00160599
0.00181296
0.00193138
0.0019843
0.00198332
0.00193317
0.00183525
0.00169252
0.00151557
0.00132664
0.00115957
0.00106865
0.00103144
0.00101865
0.00101481
0.00101384
0.00101383
0.0010148
0.00101862
0.00103135
0.00106839
0.00115882
0.0013243
0.00150855
0.00167514
0.00179816
0.00186193
0.0018565
0.00177059
0.00158406
0.00125215
0.000574308
0.000576194
0.00126218
0.00160623
0.0018135
0.00193239
0.00198603
0.00198607
0.00193715
0.00184048
0.00169857
0.00152152
0.00133139
0.00116269
0.00107047
0.00103257
0.00101949
0.00101555
0.00101455
0.00101455
0.00101554
0.00101946
0.00103248
0.00107022
0.00116194
0.00132903
0.00151447
0.00168114
0.00180333
0.00186586
0.00185919
0.00177227
0.00158499
0.00125257
0.00057437
0.000576181
0.00126218
0.00160624
0.00181351
0.00193242
0.00198608
0.00198613
0.00193723
0.00184058
0.00169869
0.00152165
0.00133152
0.00116282
0.00107055
0.00103261
0.00101951
0.00101556
0.00101456
0.00101455
0.00101555
0.00101948
0.00103251
0.00107029
0.00116206
0.00132916
0.0015146
0.00168126
0.00180343
0.00186594
0.00185924
0.0017723
0.00158501
0.00125258
0.000574355
0.000576167
0.00126209
0.00160601
0.00181301
0.00193146
0.00198442
0.00198349
0.0019334
0.00183555
0.00169288
0.00151597
0.00132704
0.00115996
0.0010689
0.00103158
0.00101874
0.00101487
0.00101388
0.00101387
0.00101485
0.0010187
0.0010315
0.00106866
0.00115923
0.00132471
0.00150897
0.00167551
0.00179846
0.00186216
0.00185666
0.0017707
0.00158412
0.00125216
0.000574267
0.00057615
0.00126191
0.00160551
0.00181192
0.00192936
0.00198071
0.00197744
0.0019243
0.00182308
0.00167777
0.00150056
0.00131463
0.00115198
0.00106435
0.00102882
0.00101669
0.00101306
0.00101213
0.00101212
0.00101305
0.00101667
0.00102874
0.00106412
0.00115129
0.00131237
0.00149365
0.00166051
0.0017861
0.00185314
0.00185067
0.00176706
0.00158213
0.00125123
0.000574084
0.000576118
0.00126162
0.0016047
0.00181015
0.00192591
0.00197446
0.00196682
0.00190738
0.00179827
0.00164538
0.00146554
0.00128624
0.00113418
0.00105466
0.00102326
0.00101281
0.00100971
0.00100891
0.00100891
0.00100971
0.0010128
0.00102321
0.00105448
0.00113355
0.00128407
0.00145881
0.0016283
0.00176137
0.00183623
0.00184003
0.00176084
0.00157878
0.00124969
0.000573762
0.000576064
0.00126121
0.00160358
0.00180773
0.00192113
0.00196551
0.00195074
0.00187976
0.0017536
0.00158037
0.0013892
0.00122604
0.00109953
0.00103814
0.00101528
0.00100817
0.00100612
0.00100558
0.00100559
0.00100614
0.00100817
0.00101524
0.00103798
0.00109899
0.00122411
0.00138282
0.0015635
0.00171663
0.00180837
0.00182371
0.00175176
0.00157404
0.00124752
0.000573286
0.000575984
0.00126068
0.0016022
0.00180485
0.00191549
0.0019547
0.00193013
0.00184065
0.00168085
0.00145444
0.00121863
0.00110536
0.00104318
0.00101961
0.00101234
0.00101055
0.00101004
0.00100984
0.00100985
0.00101004
0.00101052
0.0010122
0.00101928
0.00104257
0.00110385
0.001213
0.00143786
0.00164336
0.00176848
0.00180249
0.00174066
0.00156847
0.00124502
0.000572709
0.000575856
0.00125995
0.00160054
0.00180178
0.00190999
0.0019445
0.0019099
0.00179742
0.00158219
0.00121793
0.000726675
0.000874855
0.000975281
0.00101674
0.00103304
0.00103458
0.00103456
0.00103449
0.00103447
0.00103448
0.0010343
0.00103228
0.00101527
0.000973332
0.000873549
0.000723297
0.00120181
0.00154305
0.00172355
0.00178122
0.0017302
0.00156332
0.00124274
0.000572174
0.000575592
0.00125867
0.00159815
0.00179828
0.00190536
0.0019382
0.00189952
0.00177397
0.00150881
0.000835992
0.000602981
0.000891631
0.000966686
0.000988024
0.00099478
0.00099694
0.000997496
0.000997389
0.000996478
0.000993459
0.000984818
0.00096033
0.000881851
0.000594946
0.000820463
0.00146528
0.00169708
0.00176964
0.00172416
0.00155998
0.00124114
0.000571804
0.000574914
0.00125578
0.00159347
0.0017926
0.00190017
0.00193616
0.00190577
0.00180071
0.0015964
0.00124714
0.000756454
0.000937342
0.00103243
0.00105738
0.00105823
0.0010619
0.0010635
0.00106387
0.00106362
0.00106239
0.0010586
0.00104972
0.00103894
0.0010005
0.000900178
0.00073106
0.00120847
0.00154283
0.00171942
0.00177507
0.00172374
0.001558
0.00123957
0.000571442
0.000573178
0.00124901
0.00158307
0.00178022
0.00188865
0.00193028
0.00191407
0.00184004
0.00170351
0.00150805
0.00130586
0.00122366
0.00117275
0.00112522
0.0010978
0.00108836
0.00108555
0.00108471
0.0010843
0.00108369
0.00108253
0.00108175
0.00108748
0.00110374
0.00114499
0.00123345
0.00144332
0.00163671
0.00175377
0.00178376
0.00172187
0.00155302
0.00123538
0.000570334
0.000569067
0.00123413
0.00156082
0.00175336
0.00186102
0.00190749
0.00190459
0.00185692
0.00176627
0.001639
0.00149681
0.00137265
0.0012573
0.00115529
0.00110309
0.00108323
0.00107676
0.00107483
0.00107431
0.00107433
0.00107537
0.0010804
0.00109866
0.00114946
0.00125711
0.00139473
0.00155456
0.00168942
0.00176833
0.00177778
0.00170715
0.00153726
0.00122361
0.000566964
0.000560131
0.00120391
0.00151689
0.00170021
0.00180364
0.00185194
0.00185843
0.0018296
0.0017683
0.0016777
0.00156507
0.00144119
0.00131228
0.0011961
0.00113508
0.00111072
0.00110234
0.00109977
0.00109916
0.00109955
0.00110178
0.00110964
0.00113362
0.00119543
0.00131633
0.0014551
0.00158823
0.0016906
0.00174493
0.00174055
0.00166579
0.00149972
0.00119644
0.000558732
0.000542014
0.00114646
0.00143595
0.00160333
0.00169765
0.00174367
0.00175515
0.00173902
0.0016981
0.00163355
0.00154756
0.00144541
0.00133684
0.00124158
0.00118749
0.00116378
0.00115492
0.00115201
0.00115133
0.00115194
0.00115474
0.00116346
0.00118723
0.00124214
0.0013398
0.00145195
0.00155482
0.00163007
0.00166573
0.00165282
0.00157957
0.00142448
0.00114165
0.000541199
0.000507058
0.00104172
0.00129315
0.00143552
0.0015147
0.00155397
0.00156633
0.00155839
0.00153264
0.0014895
0.00142958
0.00135622
0.00127797
0.00121012
0.00116908
0.00114964
0.00114182
0.00113908
0.00113844
0.00113909
0.00114183
0.00114966
0.00116923
0.00121074
0.0012796
0.00135882
0.00143052
0.00148133
0.00150237
0.00148596
0.00142088
0.0012864
0.00103903
0.000506679
0.000442263
0.000851404
0.0010418
0.00114636
0.00120295
0.0012308
0.00124049
0.00123733
0.00122325
0.00119834
0.00116264
0.00111804
0.00107021
0.00102871
0.00100265
0.000989693
0.000984246
0.000982265
0.000981801
0.000982311
0.000984335
0.000989833
0.00100289
0.0010292
0.0010711
0.00111911
0.00116214
0.00119179
0.00120223
0.00118772
0.00113903
0.00103865
0.000850231
0.000442165
0.000338492
0.000442261
0.000507115
0.00054211
0.000560142
0.000568679
0.000571757
0.000571316
0.000568005
0.000561771
0.000552449
0.000540413
0.00052722
0.000515678
0.000508472
0.000504922
0.000503433
0.000502886
0.000502755
0.000502899
0.000503455
0.000504951
0.000508515
0.000515762
0.000527388
0.000540624
0.000552292
0.000560052
0.000562266
0.000557025
0.000540794
0.000506656
0.000442152
0.000338536
0.000374381
0.000528264
0.000624974
0.000678685
0.000707688
0.000722669
0.000729868
0.000732918
0.000733858
0.000733796
0.000733326
0.00073277
0.000732296
0.000731959
0.000731743
0.000731608
0.000731526
0.000731487
0.000731486
0.000731523
0.000731601
0.000731726
0.000731913
0.000732172
0.000732434
0.000732451
0.00073164
0.000728844
0.000721941
0.000707229
0.000678431
0.000624853
0.000528222
0.000374393
0.000528266
0.00106895
0.0013185
0.0014598
0.00153993
0.00158355
0.00160558
0.00161526
0.00161821
0.00161773
0.00161579
0.00161354
0.00161161
0.00161021
0.00160931
0.00160875
0.00160842
0.00160826
0.00160826
0.00160841
0.00160873
0.00160925
0.00161004
0.0016111
0.0016122
0.00161247
0.00160999
0.00160125
0.00158036
0.00153781
0.00145853
0.00131781
0.00106862
0.000528221
0.000625015
0.00131861
0.00163937
0.00182606
0.00193527
0.0019964
0.0020278
0.00204131
0.00204451
0.00204226
0.0020377
0.00203285
0.00202883
0.00202604
0.00202429
0.00202323
0.00202262
0.00202233
0.00202233
0.00202261
0.0020232
0.00202419
0.00202572
0.00202794
0.00203054
0.00203216
0.0020298
0.00201826
0.00198931
0.00193053
0.00182321
0.00163785
0.00131792
0.000624901
0.000678776
0.00146001
0.0018262
0.00204351
0.00217309
0.00224647
0.0022837
0.00229809
0.00229863
0.00229159
0.00228154
0.0022717
0.00226392
0.00225873
0.00225563
0.00225376
0.00225266
0.00225215
0.00225215
0.00225266
0.00225372
0.00225548
0.00225827
0.00226265
0.00226847
0.00227395
0.00227492
0.00226439
0.00223204
0.00216335
0.0020376
0.001823
0.00145856
0.000678502
0.00070783
0.00154027
0.00193561
0.00217335
0.00231643
0.00239705
0.00243581
0.00244669
0.0024397
0.00242265
0.00240215
0.00238337
0.00236923
0.00236033
0.0023553
0.00235223
0.00235037
0.00234948
0.00234949
0.00235036
0.00235219
0.00235512
0.00235977
0.00236767
0.00237941
0.00239287
0.00240251
0.00239898
0.00236954
0.00229784
0.00216198
0.00192936
0.00153735
0.000707215
0.000722871
0.00158407
0.00199711
0.00224735
0.00239789
0.00248056
0.00251554
0.00251667
0.00249455
0.00245899
0.00242007
0.00238658
0.00236272
0.00234888
0.00234171
0.00233707
0.00233407
0.00233262
0.00233262
0.00233407
0.00233703
0.00234154
0.00234829
0.00236102
0.00238217
0.00240962
0.00243628
0.00244895
0.00243123
0.00236474
0.00222704
0.00198584
0.00157868
0.000721633
0.000730156
0.00160644
0.00202923
0.0022859
0.0024387
0.00251826
0.00254329
0.00252634
0.00247779
0.00241009
0.00234031
0.00228518
0.00224883
0.00223025
0.0022221
0.00221568
0.00221113
0.00220892
0.00220893
0.00221113
0.00221565
0.00222196
0.00222971
0.00224718
0.00228067
0.00232927
0.00238572
0.00242873
0.00243499
0.00238354
0.00225231
0.00201054
0.00159733
0.000727931
0.000733349
0.00161673
0.0020441
0.00230284