/*--------------------------------*- C++ -*----------------------------------*\
| =========                 |                                                 |
| \\      /  F ield         | OpenFOAM: The Open Source CFD Toolbox           |
|  \\    /   O peration     | Version:  2112                                  |
|   \\  /    A nd           | Website:  www.openfoam.com                      |
|    \\/     M anipulation  |                                                 |
\*---------------------------------------------------------------------------*/
FoamFile
{
    version     2.0;
    format      ascii;
    arch        "LSB;label=32;scalar=64";
    class       volScalarField;
    location    "4.1";
    object      nut;
}
// * * * * * * * * * * * * * * * * * * * * * * * * * * * * * * * * * * * * * //

dimensions      [0 2 -1 0 0 0 0];

internalField   nonuniform List<scalar> 
64906
(
3.85247e-05
4.09195e-05
4.2381e-05
4.31117e-05
4.34596e-05
4.36183e-05
4.36865e-05
4.37131e-05
4.37213e-05
4.37215e-05
4.37186e-05
4.37148e-05
4.37121e-05
4.371e-05
4.37085e-05
4.37072e-05
4.37061e-05
4.37053e-05
4.3705e-05
4.37055e-05
4.37064e-05
4.37076e-05
4.37089e-05
4.37105e-05
4.37121e-05
4.37124e-05
4.37057e-05
4.36813e-05
4.36151e-05
4.34581e-05
4.31113e-05
4.23814e-05
4.09205e-05
3.85258e-05
4.09214e-05
5.06325e-05
5.52669e-05
5.75912e-05
5.87896e-05
5.93933e-05
5.96792e-05
5.97998e-05
5.9838e-05
5.98379e-05
5.98228e-05
5.98049e-05
5.97901e-05
5.97802e-05
5.97744e-05
5.9771e-05
5.97691e-05
5.97682e-05
5.97682e-05
5.97691e-05
5.9771e-05
5.9774e-05
5.97789e-05
5.97861e-05
5.97931e-05
5.97908e-05
5.97568e-05
5.96454e-05
5.93704e-05
5.87768e-05
5.75859e-05
5.52664e-05
5.06343e-05
4.09242e-05
4.23857e-05
5.52694e-05
6.13029e-05
6.44036e-05
6.60607e-05
6.69279e-05
6.73512e-05
6.75283e-05
6.75739e-05
6.75548e-05
6.75104e-05
6.74642e-05
6.74281e-05
6.74049e-05
6.73921e-05
6.7385e-05
6.73811e-05
6.73793e-05
6.73794e-05
6.73813e-05
6.73852e-05
6.73919e-05
6.74029e-05
6.74207e-05
6.74426e-05
6.74533e-05
6.74163e-05
6.72607e-05
6.68643e-05
6.60222e-05
6.43845e-05
6.12965e-05
5.52705e-05
4.23902e-05
4.31183e-05
5.75963e-05
6.4406e-05
6.7979e-05
6.99327e-05
7.09739e-05
7.148e-05
7.16727e-05
7.16873e-05
7.161e-05
7.14999e-05
7.13961e-05
7.13181e-05
7.127e-05
7.12439e-05
7.12291e-05
7.12204e-05
7.12164e-05
7.12165e-05
7.12207e-05
7.12294e-05
7.12434e-05
7.12668e-05
7.13072e-05
7.13649e-05
7.14199e-05
7.14217e-05
7.12747e-05
7.08264e-05
6.98397e-05
6.79286e-05
6.43843e-05
5.75921e-05
4.31237e-05
4.34673e-05
5.87967e-05
6.60657e-05
6.99361e-05
7.20791e-05
7.32209e-05
7.37504e-05
7.38993e-05
7.38163e-05
7.36098e-05
7.33676e-05
7.31565e-05
7.30053e-05
7.29173e-05
7.28721e-05
7.28451e-05
7.28281e-05
7.28198e-05
7.282e-05
7.28285e-05
7.28455e-05
7.28716e-05
7.29134e-05
7.29917e-05
7.31178e-05
7.32692e-05
7.33816e-05
7.33258e-05
7.29141e-05
7.18824e-05
6.98251e-05
6.60129e-05
5.878e-05
4.34722e-05
4.36265e-05
5.9402e-05
6.69366e-05
7.09834e-05
7.32295e-05
7.44006e-05
7.48807e-05
7.48979e-05
7.46079e-05
7.41479e-05
7.36604e-05
7.32702e-05
7.30083e-05
7.28698e-05
7.2806e-05
7.27629e-05
7.27328e-05
7.27178e-05
7.2718e-05
7.27333e-05
7.27635e-05
7.28057e-05
7.28658e-05
7.29935e-05
7.32271e-05
7.35499e-05
7.38912e-05
7.40604e-05
7.38122e-05
7.28519e-05
7.07668e-05
6.68287e-05
5.93617e-05
4.36288e-05
4.36949e-05
5.96902e-05
6.73665e-05
7.15024e-05
7.37803e-05
7.49099e-05
7.52525e-05
7.5013e-05
7.43385e-05
7.34056e-05
7.24792e-05
7.18387e-05
7.14533e-05
7.12827e-05
7.12231e-05
7.11638e-05
7.1116e-05
7.1092e-05
7.10922e-05
7.11167e-05
7.11647e-05
7.12233e-05
7.12795e-05
7.14394e-05
7.17954e-05
7.23635e-05
7.31316e-05
7.3752e-05
7.38573e-05
7.31143e-05
7.11205e-05
6.7172e-05
5.96116e-05
4.36918e-05
4.3722e-05
5.98151e-05
6.75561e-05
7.1721e-05
7.39752e-05
7.49984e-05
7.51065e-05
7.44427e-05
7.30943e-05
7.12633e-05
6.95085e-05
6.86831e-05
6.8312e-05
6.82219e-05
6.82387e-05
6.81752e-05
6.81122e-05
6.80811e-05
6.80814e-05
6.8113e-05
6.81765e-05
6.82397e-05
6.82203e-05
6.83013e-05
6.86447e-05
6.93958e-05
7.09823e-05
7.24819e-05
7.32379e-05
7.28942e-05
7.11094e-05
6.72431e-05
5.96829e-05
4.37098e-05
4.37311e-05
5.98612e-05
6.76236e-05
7.17821e-05
7.39788e-05
7.48516e-05
7.46417e-05
7.33581e-05
7.08664e-05
6.71515e-05
6.34093e-05
6.32804e-05
6.36358e-05
6.396e-05
6.41866e-05
6.4165e-05
6.4116e-05
6.40917e-05
6.4092e-05
6.4117e-05
6.41666e-05
6.41886e-05
6.39607e-05
6.36308e-05
6.32541e-05
6.3313e-05
6.68746e-05
7.02357e-05
7.21156e-05
7.23764e-05
7.08976e-05
6.71733e-05
5.96672e-05
4.37075e-05
4.37329e-05
5.98738e-05
6.76387e-05
7.17786e-05
7.3913e-05
7.46357e-05
7.40925e-05
7.20625e-05
6.77889e-05
5.9644e-05
4.91038e-05
5.45061e-05
5.78954e-05
5.92368e-05
5.97709e-05
5.98814e-05
5.98989e-05
5.99e-05
5.99004e-05
5.98999e-05
5.98832e-05
5.97735e-05
5.92399e-05
5.7898e-05
5.45035e-05
4.9059e-05
5.93926e-05
6.71439e-05
7.07886e-05
7.17884e-05
7.06393e-05
6.70644e-05
5.96244e-05
4.36981e-05
4.37322e-05
5.98762e-05
6.7641e-05
7.17698e-05
7.38693e-05
7.4507e-05
7.37643e-05
7.12104e-05
6.52053e-05
5.00128e-05
4.59473e-05
5.32472e-05
5.55197e-05
5.62042e-05
5.64416e-05
5.65141e-05
5.65319e-05
5.65322e-05
5.65148e-05
5.64429e-05
5.62063e-05
5.55232e-05
5.32525e-05
4.59507e-05
4.98601e-05
6.45606e-05
6.9919e-05
7.14395e-05
7.04888e-05
6.69989e-05
5.95967e-05
4.36907e-05
4.37309e-05
5.98788e-05
6.7649e-05
7.17846e-05
7.38948e-05
7.45589e-05
7.39034e-05
7.16806e-05
6.7103e-05
5.85035e-05
4.79726e-05
5.14185e-05
5.43323e-05
5.54429e-05
5.57294e-05
5.59712e-05
5.605e-05
5.60652e-05
5.60652e-05
5.60499e-05
5.59712e-05
5.57291e-05
5.54425e-05
5.43307e-05
5.14069e-05
4.79196e-05
5.82432e-05
6.64485e-05
7.03933e-05
7.15805e-05
7.05386e-05
6.70188e-05
5.96036e-05
4.36891e-05
4.37302e-05
5.98841e-05
6.76658e-05
7.18225e-05
7.39747e-05
7.47293e-05
7.42835e-05
7.25838e-05
6.94097e-05
6.46331e-05
5.94736e-05
5.74607e-05
5.64203e-05
5.60395e-05
5.58923e-05
5.59113e-05
5.59225e-05
5.59221e-05
5.59219e-05
5.59218e-05
5.59101e-05
5.589e-05
5.60351e-05
5.64097e-05
5.74287e-05
5.93708e-05
6.43475e-05
6.87625e-05
7.13119e-05
7.19745e-05
7.07184e-05
6.71025e-05
5.96385e-05
4.36946e-05
4.37296e-05
5.98908e-05
6.76867e-05
7.18698e-05
7.4073e-05
7.49283e-05
7.46825e-05
7.33839e-05
7.0999e-05
6.76065e-05
6.37503e-05
6.04585e-05
5.79111e-05
5.66784e-05
5.62049e-05
5.60585e-05
5.60124e-05
5.59972e-05
5.59969e-05
5.60113e-05
5.60565e-05
5.62015e-05
5.6672e-05
5.78969e-05
6.04201e-05
6.36358e-05
6.73149e-05
7.03575e-05
7.21239e-05
7.23861e-05
7.09272e-05
6.72059e-05
5.96831e-05
4.37012e-05
4.37289e-05
5.9897e-05
6.77062e-05
7.19132e-05
7.41606e-05
7.5096e-05
7.49919e-05
7.39336e-05
7.19259e-05
6.90232e-05
6.54915e-05
6.18473e-05
5.87401e-05
5.71075e-05
5.64452e-05
5.62123e-05
5.61341e-05
5.61091e-05
5.61086e-05
5.61325e-05
5.62097e-05
5.64411e-05
5.71003e-05
5.87246e-05
6.18067e-05
6.5373e-05
6.87293e-05
7.12866e-05
7.26795e-05
7.27026e-05
7.1101e-05
6.72961e-05
5.97227e-05
4.37062e-05
4.37279e-05
5.99015e-05
6.77211e-05
7.19459e-05
7.42246e-05
7.52133e-05
7.51947e-05
7.42638e-05
7.24249e-05
6.96979e-05
6.62481e-05
6.24736e-05
5.91455e-05
5.7338e-05
5.65834e-05
5.63096e-05
5.62152e-05
5.61837e-05
5.6183e-05
5.62132e-05
5.63066e-05
5.6579e-05
5.73304e-05
5.91296e-05
6.24316e-05
6.61277e-05
6.94022e-05
7.17853e-05
7.30113e-05
7.2908e-05
7.12204e-05
6.73602e-05
5.97507e-05
4.37085e-05
4.37267e-05
5.99039e-05
6.77305e-05
7.19666e-05
7.42642e-05
7.52832e-05
7.53099e-05
7.44399e-05
7.26716e-05
7.00059e-05
6.65729e-05
6.2744e-05
5.93241e-05
5.74433e-05
5.66483e-05
5.63562e-05
5.62536e-05
5.62175e-05
5.62165e-05
5.62512e-05
5.63529e-05
5.66436e-05
5.74355e-05
5.93078e-05
6.26993e-05
6.64513e-05
6.97087e-05
7.20311e-05
7.31872e-05
7.30234e-05
7.12903e-05
6.73985e-05
5.97671e-05
4.37087e-05
4.37254e-05
5.99047e-05
6.77352e-05
7.19766e-05
7.4283e-05
7.53156e-05
7.53613e-05
7.45154e-05
7.27724e-05
7.01255e-05
6.66941e-05
6.28445e-05
5.93902e-05
5.74826e-05
5.66724e-05
5.6373e-05
5.62664e-05
5.6227e-05
5.62256e-05
5.62636e-05
5.63694e-05
5.66675e-05
5.74747e-05
5.93738e-05
6.27989e-05
6.65721e-05
6.98277e-05
7.21313e-05
7.32622e-05
7.30744e-05
7.13221e-05
6.74162e-05
5.97741e-05
4.37075e-05
4.37243e-05
5.99044e-05
6.77355e-05
7.19773e-05
7.42841e-05
7.5317e-05
7.53633e-05
7.4518e-05
7.27758e-05
7.01296e-05
6.66988e-05
6.28493e-05
5.9394e-05
5.7485e-05
5.66733e-05
5.63728e-05
5.62649e-05
5.62235e-05
5.62217e-05
5.62618e-05
5.6369e-05
5.66683e-05
5.74769e-05
5.93776e-05
6.28038e-05
6.65769e-05
6.9832e-05
7.21348e-05
7.32649e-05
7.30766e-05
7.13236e-05
6.74171e-05
5.97739e-05
4.37058e-05
4.3724e-05
5.9903e-05
6.77316e-05
7.19687e-05
7.42673e-05
7.52876e-05
7.53157e-05
7.44477e-05
7.26817e-05
7.00183e-05
6.65874e-05
6.27592e-05
5.93359e-05
5.74507e-05
5.66515e-05
5.6356e-05
5.62496e-05
5.62083e-05
5.62064e-05
5.62463e-05
5.63521e-05
5.66465e-05
5.74428e-05
5.93198e-05
6.27145e-05
6.64666e-05
6.9722e-05
7.20419e-05
7.31955e-05
7.30296e-05
7.12948e-05
6.74013e-05
5.97668e-05
4.37044e-05
4.37246e-05
5.99005e-05
6.77227e-05
7.19491e-05
7.42295e-05
7.52202e-05
7.52042e-05
7.42768e-05
7.24421e-05
6.972e-05
6.62746e-05
6.25001e-05
5.91672e-05
5.73517e-05
5.65899e-05
5.63102e-05
5.62098e-05
5.61717e-05
5.617e-05
5.62066e-05
5.63063e-05
5.6585e-05
5.73441e-05
5.9152e-05
6.24578e-05
6.6156e-05
6.94258e-05
7.18038e-05
7.30251e-05
7.29182e-05
7.12276e-05
6.73647e-05
5.97509e-05
4.37033e-05
4.37254e-05
5.98961e-05
6.77081e-05
7.19168e-05
7.41661e-05
7.51042e-05
7.50039e-05
7.39511e-05
7.19508e-05
6.90573e-05
6.55348e-05
6.18879e-05
5.8774e-05
5.71283e-05
5.64549e-05
5.62135e-05
5.61278e-05
5.60964e-05
5.6095e-05
5.61248e-05
5.62097e-05
5.64503e-05
5.71215e-05
5.87604e-05
6.185e-05
6.54199e-05
6.87661e-05
7.13131e-05
7.26978e-05
7.27153e-05
7.11098e-05
6.73017e-05
5.97235e-05
4.37006e-05
4.3726e-05
5.98895e-05
6.76875e-05
7.18717e-05
7.40766e-05
7.49346e-05
7.46937e-05
7.34031e-05
7.10309e-05
6.76562e-05
6.38181e-05
6.05223e-05
5.79559e-05
5.66998e-05
5.62098e-05
5.60513e-05
5.59966e-05
5.59762e-05
5.59752e-05
5.59941e-05
5.60477e-05
5.62052e-05
5.66935e-05
5.79445e-05
6.04898e-05
6.37104e-05
6.73691e-05
7.03903e-05
7.21424e-05
7.23969e-05
7.09343e-05
6.72105e-05
5.96837e-05
4.36954e-05
4.37262e-05
5.98804e-05
6.76618e-05
7.18173e-05
7.39691e-05
7.47251e-05
7.42838e-05
7.25945e-05
6.94411e-05
6.4699e-05
5.95783e-05
5.75535e-05
5.64476e-05
5.60216e-05
5.58483e-05
5.58496e-05
5.58515e-05
5.58466e-05
5.58457e-05
5.58489e-05
5.58452e-05
5.58414e-05
5.60119e-05
5.6436e-05
5.75317e-05
5.94874e-05
6.44191e-05
6.87891e-05
7.13154e-05
7.19708e-05
7.07146e-05
6.71004e-05
5.96361e-05
4.36881e-05
4.37258e-05
5.98677e-05
6.7631e-05
7.17592e-05
7.38633e-05
7.45239e-05
7.38691e-05
7.16562e-05
6.71088e-05
5.85812e-05
4.80437e-05
5.14375e-05
5.4194e-05
5.52225e-05
5.54588e-05
5.56747e-05
5.57435e-05
5.57546e-05
5.57534e-05
5.5739e-05
5.56646e-05
5.54381e-05
5.51888e-05
5.41548e-05
5.14207e-05
4.79912e-05
5.83226e-05
6.64275e-05
7.03422e-05
7.15322e-05
7.05034e-05
6.69971e-05
5.95915e-05
4.36811e-05
4.37235e-05
5.98452e-05
6.75876e-05
7.16949e-05
7.37753e-05
7.43965e-05
7.36392e-05
7.10742e-05
6.50755e-05
4.99438e-05
4.55454e-05
5.24792e-05
5.4561e-05
5.51122e-05
5.53042e-05
5.53642e-05
5.53776e-05
5.53743e-05
5.53516e-05
5.52721e-05
5.504e-05
5.44243e-05
5.2273e-05
4.5374e-05
4.97072e-05
6.43207e-05
6.97042e-05
7.12782e-05
7.03782e-05
6.69299e-05
5.95599e-05
4.36783e-05
4.37143e-05
5.97938e-05
6.75037e-05
7.15939e-05
7.36848e-05
7.43674e-05
7.37815e-05
7.16975e-05
6.7353e-05
5.91309e-05
4.85917e-05
5.29458e-05
5.57693e-05
5.65778e-05
5.67365e-05
5.67597e-05
5.67668e-05
5.67672e-05
5.6761e-05
5.67411e-05
5.66869e-05
5.65553e-05
5.61919e-05
5.51069e-05
5.21977e-05
4.8147e-05
5.84596e-05
6.64073e-05
7.02499e-05
7.14078e-05
7.03781e-05
6.68955e-05
5.95318e-05
4.36738e-05
4.36882e-05
5.96699e-05
6.73136e-05
7.13714e-05
7.34821e-05
7.4275e-05
7.39735e-05
7.25554e-05
6.98368e-05
6.57221e-05
6.13036e-05
6.00832e-05
5.92638e-05
5.83661e-05
5.78505e-05
5.76388e-05
5.75683e-05
5.75463e-05
5.75371e-05
5.75277e-05
5.75149e-05
5.75148e-05
5.75825e-05
5.78204e-05
5.84634e-05
5.98936e-05
6.45126e-05
6.86345e-05
7.10165e-05
7.16079e-05
7.0357e-05
6.68074e-05
5.94555e-05
4.36577e-05
4.36211e-05
5.93872e-05
6.68952e-05
7.08754e-05
7.29792e-05
7.38684e-05
7.38274e-05
7.29458e-05
7.12258e-05
6.87437e-05
6.5918e-05
6.3532e-05
6.12129e-05
5.91257e-05
5.8067e-05
5.76566e-05
5.752e-05
5.7479e-05
5.74678e-05
5.74689e-05
5.74925e-05
5.75974e-05
5.79591e-05
5.89713e-05
6.11429e-05
6.38883e-05
6.71402e-05
6.98282e-05
7.13607e-05
7.15214e-05
7.00892e-05
6.65093e-05
5.92293e-05
4.36015e-05
4.34638e-05
5.87894e-05
6.60413e-05
6.98636e-05
7.19008e-05
7.28313e-05
7.29713e-05
7.24554e-05
7.1326e-05
6.96193e-05
6.74526e-05
6.50251e-05
6.24004e-05
6.00053e-05
5.87665e-05
5.82726e-05
5.81032e-05
5.80515e-05
5.80393e-05
5.80465e-05
5.80906e-05
5.8248e-05
5.87295e-05
5.99761e-05
6.24492e-05
6.52688e-05
6.79164e-05
6.99063e-05
7.0934e-05
7.08159e-05
6.92924e-05
6.5771e-05
5.86852e-05
4.34537e-05
4.31166e-05
5.75965e-05
6.43984e-05
6.79425e-05
6.98278e-05
7.07263e-05
7.0963e-05
7.06867e-05
6.99466e-05
6.87496e-05
6.71158e-05
6.51229e-05
6.29366e-05
6.09667e-05
5.98595e-05
5.93831e-05
5.92071e-05
5.91503e-05
5.91374e-05
5.91483e-05
5.92024e-05
5.93747e-05
5.98498e-05
6.09645e-05
6.29776e-05
6.5236e-05
6.72581e-05
6.8703e-05
6.93626e-05
6.90722e-05
6.75612e-05
6.42288e-05
5.75376e-05
4.31137e-05
4.23857e-05
5.52757e-05
6.13084e-05
6.43964e-05
6.60166e-05
6.68006e-05
6.7058e-05
6.69344e-05
6.64772e-05
6.56858e-05
6.4556e-05
6.31347e-05
6.15783e-05
6.02006e-05
5.93727e-05
5.89862e-05
5.88363e-05
5.87866e-05
5.87754e-05
5.87858e-05
5.88343e-05
5.8983e-05
5.93697e-05
6.02041e-05
6.15998e-05
6.31767e-05
6.4574e-05
6.55399e-05
6.59152e-05
6.55484e-05
6.41752e-05
6.12202e-05
5.52512e-05
4.23883e-05
4.09239e-05
5.06412e-05
5.52803e-05
5.7604e-05
5.879e-05
5.93575e-05
5.95624e-05
5.95256e-05
5.92887e-05
5.88481e-05
5.81915e-05
5.73441e-05
5.64117e-05
5.55867e-05
5.50694e-05
5.48151e-05
5.47114e-05
5.46753e-05
5.4667e-05
5.46755e-05
5.47117e-05
5.48154e-05
5.50702e-05
5.55906e-05
5.64222e-05
5.73588e-05
5.818e-05
5.87258e-05
5.8892e-05
5.85611e-05
5.75086e-05
5.52509e-05
5.06388e-05
4.09288e-05
3.85279e-05
4.09281e-05
4.23966e-05
4.31333e-05
4.34855e-05
4.36449e-05
4.37062e-05
4.37109e-05
4.36711e-05
4.3583e-05
4.3447e-05
4.32621e-05
4.30483e-05
4.28527e-05
4.27271e-05
4.26629e-05
4.26338e-05
4.26203e-05
4.26157e-05
4.26209e-05
4.26343e-05
4.26633e-05
4.27271e-05
4.28525e-05
4.30486e-05
4.32624e-05
4.34419e-05
4.35571e-05
4.35782e-05
4.34653e-05
4.31347e-05
4.24049e-05
4.09357e-05
3.85323e-05
5.98659e-05
6.85506e-05
7.3486e-05
7.60423e-05
7.73532e-05
7.80037e-05
7.83066e-05
7.84323e-05
7.84714e-05
7.84706e-05
7.84541e-05
7.84344e-05
7.84174e-05
7.84052e-05
7.83973e-05
7.83921e-05
7.83888e-05
7.83871e-05
7.8387e-05
7.83885e-05
7.83915e-05
7.83963e-05
7.84032e-05
7.84124e-05
7.84214e-05
7.84206e-05
7.83863e-05
7.82701e-05
7.79781e-05
7.73376e-05
7.60341e-05
7.34827e-05
6.855e-05
5.98671e-05
6.85512e-05
0.000202493
0.000252282
0.000276713
0.000289854
0.000296917
0.000300491
0.000302066
0.000302538
0.000302445
0.000302108
0.000301721
0.000301389
0.00030115
0.000300995
0.000300898
0.00030084
0.000300813
0.000300813
0.00030084
0.000300896
0.000300987
0.000301123
0.00030131
0.000301505
0.000301567
0.000301175
0.000299761
0.000296378
0.000289491
0.000276484
0.000252141
0.000202403
6.85509e-05
7.34892e-05
0.00025231
0.000322662
0.000358105
0.000377616
0.00038834
0.000393849
0.000396226
0.00039678
0.000396357
0.000395515
0.00039462
0.000393881
0.000393368
0.000393049
0.000392855
0.000392742
0.000392689
0.00039269
0.000392742
0.000392852
0.000393033
0.000393313
0.000393724
0.00039421
0.000394524
0.000394129
0.000392111
0.000387046
0.000376741
0.000357563
0.000322348
0.000252144
7.34874e-05
7.60482e-05
0.00027676
0.000358131
0.000399966
0.000423367
0.00043634
0.000442903
0.000445437
0.000445499
0.000444186
0.000442311
0.000440468
0.000439006
0.000438035
0.000437456
0.000437104
0.000436896
0.000436798
0.000436798
0.000436896
0.000437099
0.000437432
0.000437955
0.000438779
0.000439885
0.000440935
0.000441172
0.000439353
0.00043368
0.000421559
0.000398844
0.000357497
0.000276453
7.60416e-05
7.73616e-05
0.000289919
0.000377675
0.000423413
0.000449199
0.00046339
0.00047017
0.00047204
0.000470716
0.000467548
0.000463714
0.000460179
0.000457495
0.000455814
0.000454871
0.000454278
0.000453911
0.000453737
0.000453738
0.000453911
0.000454272
0.000454842
0.000455716
0.000457217
0.000459465
0.000462036
0.000463914
0.000463421
0.000458341
0.000445762
0.000421277
0.000376474
0.000289358
7.73432e-05
7.80147e-05
0.000297009
0.000388462
0.000436495
0.000463541
0.000478018
0.000484069
0.000484156
0.000480058
0.000473438
0.000466117
0.000459811
0.000455249
0.000452631
0.000451307
0.000450373
0.000449756
0.000449461
0.000449462
0.000449757
0.000450368
0.000451278
0.000452528
0.000454949
0.000459022
0.000464238
0.000469356
0.000471909
0.000469021
0.000457457
0.000432719
0.000386339
0.000296027
7.79736e-05
7.83209e-05
0.000300635
0.0003941
0.000443299
0.000470702
0.000484575
0.000488812
0.000485596
0.00047656
0.000463739
0.000450352
0.000440185
0.000433268
0.000429807
0.00042841
0.000427013
0.000426017
0.000425553
0.000425554
0.000426019
0.000427012
0.000428387
0.000429715
0.000432981
0.000439394
0.000448394
0.000459383
0.000467809
0.00046942
0.000460635
0.000437106
0.000390622
0.000299025
7.82425e-05
7.84513e-05
0.000302309
0.000396723
0.000446308
0.00047337
0.000485845
0.000487106
0.000478583
0.000461084
0.000436645
0.000411826
0.000399077
0.000391077
0.000387991
0.000387589
0.00038557
0.000384094
0.000383461
0.000383463
0.000384098
0.000385572
0.000387576
0.000387923
0.000390843
0.000398375
0.00040995
0.000432199
0.000451932
0.000461649
0.000457812
0.000436911
0.00039148
0.000299874
7.8321e-05
7.84981e-05
0.000302951
0.000397698
0.000447196
0.000473486
0.000484025
0.000481297
0.000465041
0.000433008
0.000383449
0.000327928
0.000330281
0.000330161
0.000331291
0.000333923
0.000331227
0.000329481
0.000328844
0.000328846
0.000329484
0.00033123
0.00033392
0.000331255
0.000330018
0.00032979
0.000326458
0.000379194
0.000423625
0.000447538
0.000451191
0.000434098
0.000390475
0.000299593
7.83076e-05
7.85094e-05
0.000303115
0.000397908
0.000447143
0.000472588
0.00048117
0.000474176
0.000448222
0.000391929
0.000277102
9.21277e-05
0.000217378
0.000258301
0.000270548
0.000277521
0.000274884
0.000273637
0.000273299
0.0002733
0.00027364
0.000274889
0.000277527
0.000270543
0.000258268
0.000217318
9.19204e-05
0.000273709
0.000382539
0.000430305
0.000443495
0.000430595
0.000388907
0.000298931
7.8264e-05
7.85095e-05
0.000303122
0.000397903
0.000446951
0.000471868
0.000479243
0.00046947
0.000435825
0.000349848
9.50849e-05
8.1387e-05
0.00020301
0.000226785
0.00023149
0.000234244
0.000235185
0.000235403
0.000235404
0.000235189
0.000234251
0.000231499
0.000226796
0.00020302
8.13853e-05
9.44315e-05
0.000340866
0.000417721
0.00043849
0.000428336
0.000387846
0.000298441
7.82329e-05
7.8509e-05
0.000303126
0.000397961
0.000447039
0.000471974
0.000479491
0.000470625
0.000441745
0.000381447
0.000262668
8.7957e-05
0.000180232
0.000205645
0.000209976
0.000204415
0.000213049
0.000216042
0.000216626
0.000216626
0.000216044
0.000213053
0.000204411
0.000209968
0.000205619
0.000180144
8.77329e-05
0.000259243
0.000371936
0.000423642
0.000439663
0.000428549
0.000387866
0.000298393
7.82342e-05
7.85109e-05
0.000303178
0.000398148
0.000447443
0.000472791
0.000481221
0.000474645
0.000452093
0.000410563
0.000347841
0.000276824
0.000253511
0.000231826
0.000223248
0.00021854
0.000220511
0.000221507
0.000221735
0.000221735
0.000221506
0.000220507
0.000218523
0.000223211
0.000231713
0.000253107
0.000275428
0.000343553
0.000400975
0.000434153
0.000443865
0.000430412
0.00038874
0.000298746
7.82625e-05
7.85144e-05
0.000303264
0.000398412
0.000448007
0.000473901
0.000483378
0.000478907
0.000460748
0.000428369
0.000382732
0.000330669
0.000285883
0.000247626
0.000231773
0.00022603
0.000224903
0.000224735
0.000224707
0.000224707
0.000224735
0.000224899
0.000226015
0.000231728
0.000247476
0.000285353
0.000328966
0.000378251
0.000418815
0.000442967
0.000448314
0.000432726
0.00038994
0.000299276
7.83008e-05
7.85176e-05
0.000303357
0.000398676
0.000448559
0.000474951
0.000485284
0.000482288
0.000466633
0.000438269
0.000398
0.000349576
0.000299824
0.000255448
0.000236011
0.000228974
0.000226832
0.000226261
0.000226133
0.000226134
0.000226261
0.00022683
0.000228961
0.000235965
0.000255288
0.000299258
0.00034779
0.000393465
0.000428744
0.00044895
0.00045182
0.000434745
0.000391053
0.000299788
7.83347e-05
7.85197e-05
0.000303433
0.000398889
0.000448997
0.000475757
0.000486678
0.000484582
0.000470228
0.000443565
0.000405046
0.000357325
0.000305957
0.000259192
0.000238127
0.00023033
0.000227814
0.000227107
0.000226947
0.000226948
0.000227108
0.000227813
0.000230319
0.000238081
0.000259031
0.000305382
0.000355508
0.000400488
0.000434049
0.000452587
0.000454173
0.000436195
0.000391884
0.000300177
7.83582e-05
7.85203e-05
0.000303483
0.00039903
0.000449284
0.000476275
0.000487544
0.000485935
0.000472207
0.00044624
0.000408287
0.000360635
0.000308586
0.000260875
0.000239111
0.000230958
0.000228291
0.000227534
0.000227364
0.000227366
0.000227536
0.00022829
0.000230948
0.000239066
0.000260715
0.000308028
0.000358804
0.000403713
0.000436719
0.000454575
0.000455546
0.000437079
0.000392403
0.000300421
7.83712e-05
7.852e-05
0.000303508
0.0003991
0.000449425
0.000476525
0.000487952
0.000486553
0.000473074
0.000447354
0.000409565
0.000361881
0.000309563
0.000261514
0.000239487
0.000231197
0.000228473
0.000227699
0.000227527
0.000227528
0.000227701
0.000228472
0.000231186
0.000239441
0.000261352
0.000309001
0.000360043
0.000404981
0.000437827
0.000455442
0.000456167
0.000437489
0.000392646
0.000300536
7.83762e-05
7.85191e-05
0.000303508
0.000399102
0.000449428
0.000476531
0.000487959
0.000486563
0.000473088
0.000447371
0.000409584
0.000361901
0.000309583
0.000261539
0.000239502
0.000231204
0.000228477
0.000227703
0.000227531
0.000227533
0.000227705
0.000228477
0.000231194
0.000239457
0.000261377
0.00030902
0.000360063
0.000405
0.000437844
0.000455455
0.000456177
0.000437496
0.000392651
0.000300537
7.8375e-05
7.8518e-05
0.000303484
0.000399035
0.000449294
0.00047629
0.000487565
0.000485964
0.000472246
0.00044629
0.000408346
0.000360698
0.000308651
0.000260957
0.000239164
0.000230989
0.000228312
0.000227554
0.000227386
0.000227388
0.000227557
0.000228312
0.00023098
0.000239121
0.000260799
0.000308093
0.000358868
0.000403772
0.000436768
0.000454614
0.000455575
0.000437099
0.000392415
0.000300425
7.83683e-05
7.85164e-05
0.000303431
0.000398893
0.000449007
0.000475773
0.000486703
0.00048462
0.000470285
0.000443645
0.000405149
0.000357444
0.000306091
0.00025935
0.000238236
0.000230403
0.000227872
0.000227163
0.000227007
0.000227009
0.000227167
0.000227875
0.000230397
0.000238198
0.0002592
0.000305542
0.000355631
0.000400591
0.000434126
0.000452641
0.00045421
0.000436219
0.000391898
0.00030018
7.83543e-05
7.85137e-05
0.000303348
0.000398669
0.000448553
0.000474947
0.000485289
0.000482311
0.000466686
0.000438367
0.000398154
0.000349782
0.000300096
0.000255717
0.000236201
0.000229116
0.000226952
0.000226378
0.000226255
0.000226258
0.000226385
0.000226959
0.000229116
0.000236171
0.000255578
0.000299554
0.000348004
0.000393621
0.000428833
0.000448989
0.000451833
0.000434748
0.000391052
0.000299782
7.83301e-05
7.85093e-05
0.000303234
0.000398366
0.000447943
0.000473824
0.000483299
0.000478845
0.000460736
0.000428451
0.000382948
0.000331017
0.00028633
0.000248001
0.000232017
0.00022622
0.000225045
0.000224869
0.000224847
0.000224851
0.00022488
0.000225059
0.000226227
0.000231995
0.000247884
0.000285847
0.000329338
0.000378469
0.000418858
0.000442904
0.000448219
0.000432643
0.000389882
0.000299239
7.82947e-05
7.85029e-05
0.000303091
0.000397995
0.000447223
0.000472513
0.000480905
0.000474328
0.000451847
0.000410509
0.000348125
0.0002774
0.00025415
0.000232059
0.00022319
0.000218395
0.00022024
0.000221214
0.000221449
0.000221454
0.000221226
0.000220252
0.000218385
0.000223138
0.000231941
0.000253811
0.000276063
0.000343863
0.000400795
0.000433747
0.000443447
0.000430082
0.000388522
0.000298626
7.82522e-05
7.84929e-05
0.000302895
0.000397543
0.000446442
0.000471215
0.000478601
0.000469662
0.000440836
0.000380885
0.000263064
8.80766e-05
0.000180385
0.000204193
0.000207727
0.00020177
0.0002102
0.000213182
0.000213775
0.000213773
0.000213168
0.000210145
0.000201596
0.000207412
0.000203803
0.000180357
8.78483e-05
0.000259698
0.000370974
0.000422277
0.000438433
0.000427626
0.000387262
0.000298071
7.82128e-05
7.84724e-05
0.000302553
0.000396886
0.000445522
0.000470064
0.0004771
0.000467036
0.000433235
0.000347617
9.47067e-05
8.00139e-05
0.000195213
0.000216787
0.000220107
0.000222686
0.000223701
0.000223966
0.000223945
0.000223609
0.000222411
0.00021942
0.000215436
0.00019325
7.9452e-05
9.37518e-05
0.000337258
0.000413954
0.00043545
0.000426142
0.000386416
0.000297677
7.81851e-05
7.84211e-05
0.000301804
0.00039563
0.000444023
0.000468708
0.00047656
0.00046879
0.000441956
0.000384826
0.00027014
8.99215e-05
0.000199343
0.000233973
0.000240443
0.000243228
0.000240693
0.000239856
0.000239704
0.000239651
0.000239616
0.000239966
0.000241341
0.000236265
0.000226472
0.0001915
8.8324e-05
0.000261986
0.000371269
0.000421418
0.00043695
0.000425983
0.000385866
0.000297271
7.81572e-05
7.82923e-05
0.000300117
0.000392953
0.000440885
0.000465804
0.000475011
0.000470749
0.000452392
0.000417186
0.000362733
0.000299927
0.00028872
0.000275091
0.000260992
0.000254707
0.00025141
0.000250275
0.000249965
0.000249877
0.000249868
0.000250114
0.000251031
0.00025177
0.000256352
0.000268152
0.000282229
0.000346024
0.000399676
0.000430419
0.00043894
0.000425387
0.000384559
0.000296244
7.80746e-05
7.79923e-05
0.000296553
0.000387448
0.000434343
0.000459165
0.000469541
0.000468397
0.000456477
0.000433551
0.000400203
0.000361367
0.000328326
0.000294543
0.000262419
0.000249242
0.000244555
0.00024306
0.000242628
0.000242519
0.000242549
0.000242866
0.000244141
0.000248259
0.000261356
0.000294895
0.000333078
0.000377137
0.000412981
0.000433722
0.000437335
0.00042177
0.000380708
0.000293481
7.78292e-05
7.73467e-05
0.000289562
0.000376894
0.000421736
0.000445746
0.000456655
0.000457718
0.000450195
0.000434393
0.000410581
0.000380101
0.000345609
0.000307799
0.000271674
0.000256312
0.000250785
0.00024897
0.000248424
0.000248297
0.000248381
0.000248865
0.00025059
0.000256029
0.000271652
0.000308977
0.000348984
0.000385796
0.000413396
0.000428273
0.000428668
0.000412077
0.00037183
0.0002873
7.72361e-05
7.60405e-05
0.000276504
0.000357599
0.000398812
0.000420942
0.000431516
0.000433843
0.000429346
0.000418449
0.000401181
0.000377833
0.000349589
0.000318852
0.000291344
0.000277596
0.000271998
0.000269985
0.000269332
0.00026918
0.000269317
0.000269947
0.00027194
0.000277566
0.000291564
0.000319664
0.000351187
0.000379471
0.000399999
0.000410203
0.000408398
0.000391915
0.000354098
0.000274978
7.5974e-05
7.34874e-05
0.000252139
0.000322344
0.00035742
0.000376138
0.000385311
0.000387999
0.000385583
0.000378516
0.000366801
0.00035052
0.000330505
0.000309006
0.000290322
0.000279769
0.000274991
0.000273104
0.000272442
0.000272286
0.000272447
0.000273114
0.000275011
0.000279832
0.000290522
0.000309458
0.00033115
0.000350656
0.000364569
0.000370837
0.000367856
0.000353033
0.000320212
0.000251237
7.34546e-05
6.85534e-05
0.000202393
0.000252134
0.000276406
0.000289172
0.000295457
0.000297554
0.000296527
0.000292744
0.000286211
0.000276956
0.000265479
0.000253211
0.000242599
0.00023613
0.000232971
0.000231645
0.000231157
0.000231043
0.000231172
0.000231674
0.000233018
0.00023621
0.000242752
0.000253469
0.000265766
0.000276817
0.000284559
0.000287645
0.00028487
0.000274239
0.000251144
0.000201992
6.85437e-05
5.98697e-05
6.85532e-05
7.34915e-05
7.60467e-05
7.73451e-05
7.79589e-05
7.81793e-05
7.81432e-05
7.78959e-05
7.74336e-05
7.6744e-05
7.58525e-05
7.48704e-05
7.40042e-05
7.34579e-05
7.31864e-05
7.30718e-05
7.30294e-05
7.30192e-05
7.30304e-05
7.30735e-05
7.31887e-05
7.34613e-05
7.40108e-05
7.48833e-05
7.58677e-05
7.67301e-05
7.73029e-05
7.74717e-05
7.71027e-05
7.59404e-05
7.34519e-05
6.85425e-05
5.98735e-05
6.30064e-05
7.49913e-05
8.16625e-05
8.5172e-05
8.70292e-05
8.79859e-05
8.84485e-05
8.86464e-05
8.87078e-05
8.87033e-05
8.86716e-05
8.8634e-05
8.86017e-05
8.85787e-05
8.85638e-05
8.85546e-05
8.8549e-05
8.85464e-05
8.85463e-05
8.85488e-05
8.85541e-05
8.85626e-05
8.85755e-05
8.8593e-05
8.86107e-05
8.8612e-05
8.85591e-05
8.83781e-05
8.79352e-05
8.69966e-05
8.51533e-05
8.16531e-05
7.49876e-05
6.30074e-05
7.49915e-05
0.000267656
0.000345008
0.000383738
0.000404913
0.000416509
0.000422495
0.000425171
0.000425956
0.000425733
0.000425063
0.000424293
0.000423628
0.000423142
0.000422823
0.000422622
0.000422503
0.000422446
0.000422446
0.000422501
0.000422615
0.000422802
0.00042308
0.000423458
0.000423859
0.000424021
0.000423391
0.000421022
0.000415402
0.000404147
0.00038324
0.000344695
0.000267472
7.49876e-05
8.16654e-05
0.000345055
0.000461655
0.00052203
0.000555723
0.000574475
0.000584218
0.000588444
0.000589371
0.000588476
0.000586774
0.000584955
0.000583438
0.000582374
0.000581705
0.000581294
0.000581054
0.000580942
0.000580942
0.000581051
0.000581282
0.000581664
0.00058225
0.000583103
0.000584116
0.000584817
0.000584219
0.0005807
0.00057182
0.000553891
0.00052086
0.000460959
0.000344699
8.16561e-05
8.5178e-05
0.000383821
0.00052208
0.000595332
0.000636823
0.000660034
0.000671856
0.000676397
0.00067637
0.000673726
0.00066996
0.000666215
0.000663214
0.000661209
0.000660008
0.000659266
0.000658826
0.00065862
0.00065862
0.000658823
0.00065925
0.000659948
0.000661031
0.000662733
0.000665024
0.00066723
0.000667905
0.000664784
0.000654694
0.000633135
0.000592991
0.000520722
0.000383174
8.51572e-05
8.70385e-05
0.000405034
0.000555846
0.000636923
0.000683174
0.000708809
0.000721087
0.000724373