/*--------------------------------*- C++ -*----------------------------------*\
| =========                 |                                                 |
| \\      /  F ield         | OpenFOAM: The Open Source CFD Toolbox           |
|  \\    /   O peration     | Version:  2112                                  |
|   \\  /    A nd           | Website:  www.openfoam.com                      |
|    \\/     M anipulation  |                                                 |
\*---------------------------------------------------------------------------*/
FoamFile
{
    version     2.0;
    format      ascii;
    arch        "LSB;label=32;scalar=64";
    class       volScalarField;
    location    "4.1";
    object      p;
}
// * * * * * * * * * * * * * * * * * * * * * * * * * * * * * * * * * * * * * //

dimensions      [0 2 -2 0 0 0 0];

internalField   nonuniform List<scalar> 
64906
(
-4.87422e-06
-4.85826e-06
-4.84466e-06
-4.84516e-06
-4.87002e-06
-4.91284e-06
-4.9789e-06
-5.06879e-06
-5.18123e-06
-5.31341e-06
-5.45862e-06
-5.61035e-06
-5.77486e-06
-5.91362e-06
-6.03125e-06
-6.12667e-06
-6.19742e-06
-6.24223e-06
-6.26047e-06
-6.2523e-06
-6.21874e-06
-6.16142e-06
-6.08333e-06
-5.98618e-06
-5.86269e-06
-5.75217e-06
-5.65207e-06
-5.56691e-06
-5.50265e-06
-5.46142e-06
-5.4354e-06
-5.43717e-06
-5.45284e-06
-5.47015e-06
-4.82044e-06
-4.75548e-06
-4.70448e-06
-4.66679e-06
-4.65334e-06
-4.66242e-06
-4.69311e-06
-4.7434e-06
-4.80993e-06
-4.88925e-06
-4.97465e-06
-5.06327e-06
-5.13548e-06
-5.21521e-06
-5.28579e-06
-5.34455e-06
-5.38954e-06
-5.42057e-06
-5.43742e-06
-5.44021e-06
-5.42947e-06
-5.40561e-06
-5.37078e-06
-5.3275e-06
-5.29572e-06
-5.24968e-06
-5.20756e-06
-5.17401e-06
-5.15676e-06
-5.16026e-06
-5.18791e-06
-5.24343e-06
-5.31524e-06
-5.39663e-06
-4.79258e-06
-4.69311e-06
-4.59603e-06
-4.51273e-06
-4.46068e-06
-4.43877e-06
-4.44476e-06
-4.47624e-06
-4.52933e-06
-4.60138e-06
-4.68262e-06
-4.76935e-06
-4.84418e-06
-4.91297e-06
-4.96879e-06
-5.01417e-06
-5.0486e-06
-5.07357e-06
-5.08932e-06
-5.096e-06
-5.0936e-06
-5.08088e-06
-5.05872e-06
-5.02498e-06
-4.9878e-06
-4.9413e-06
-4.90412e-06
-4.88133e-06
-4.88535e-06
-4.92134e-06
-4.99499e-06
-5.11027e-06
-5.24104e-06
-5.36982e-06
-4.79216e-06
-4.65999e-06
-4.52013e-06
-4.39344e-06
-4.30802e-06
-4.264e-06
-4.2605e-06
-4.29708e-06
-4.37133e-06
-4.48331e-06
-4.61726e-06
-4.76727e-06
-4.89223e-06
-4.99632e-06
-5.07112e-06
-5.12721e-06
-5.16623e-06
-5.19256e-06
-5.20727e-06
-5.21042e-06
-5.20125e-06
-5.17554e-06
-5.13222e-06
-5.06119e-06
-4.97229e-06
-4.86203e-06
-4.77475e-06
-4.71801e-06
-4.7119e-06
-4.76001e-06
-4.86664e-06
-5.03512e-06
-5.21972e-06
-5.39157e-06
-4.8335e-06
-4.67328e-06
-4.49898e-06
-4.33964e-06
-4.23396e-06
-4.18538e-06
-4.19683e-06
-4.27327e-06
-4.41705e-06
-4.63608e-06
-4.90614e-06
-5.2199e-06
-5.47129e-06
-5.67072e-06
-5.806e-06
-5.90296e-06
-5.96572e-06
-6.00315e-06
-6.01713e-06
-6.0077e-06
-5.97317e-06
-5.90478e-06
-5.79916e-06
-5.63105e-06
-5.41485e-06
-5.14109e-06
-4.92196e-06
-4.76564e-06
-4.70246e-06
-4.72921e-06
-4.84552e-06
-5.04711e-06
-5.27359e-06
-5.48338e-06
-4.91906e-06
-4.732e-06
-4.52883e-06
-4.34687e-06
-4.23404e-06
-4.19882e-06
-4.24964e-06
-4.39997e-06
-4.66153e-06
-5.05886e-06
-5.56273e-06
-6.18441e-06
-6.65197e-06
-7.00989e-06
-7.24486e-06
-7.41179e-06
-7.51671e-06
-7.57476e-06
-7.58843e-06
-7.55763e-06
-7.47999e-06
-7.34026e-06
-7.13334e-06
-6.80488e-06
-6.3718e-06
-5.78992e-06
-5.34317e-06
-5.01663e-06
-4.84862e-06
-4.82049e-06
-4.9234e-06
-5.14128e-06
-5.40188e-06
-5.64778e-06
-5.04833e-06
-4.83169e-06
-4.60204e-06
-4.40469e-06
-4.29597e-06
-4.2896e-06
-4.39989e-06
-4.65055e-06
-5.06711e-06
-5.70948e-06
-6.53286e-06
-7.69973e-06
-8.46995e-06
-9.0388e-06
-9.39953e-06
-9.65697e-06
-9.81665e-06
-9.90217e-06
-9.91594e-06
-9.85774e-06
-9.7251e-06
-9.4939e-06
-9.15967e-06
-8.61781e-06
-7.88141e-06
-6.75138e-06
-5.9957e-06
-5.43171e-06
-5.12104e-06
-5.01159e-06
-5.08247e-06
-5.30477e-06
-5.59833e-06
-5.88343e-06
-5.2235e-06
-4.96673e-06
-4.70942e-06
-4.50274e-06
-4.40911e-06
-4.4465e-06
-4.63324e-06
-4.99844e-06
-5.58386e-06
-6.48435e-06
-7.6402e-06
-9.80613e-06
-1.09037e-05
-1.17252e-05
-1.22325e-05
-1.26022e-05
-1.28308e-05
-1.29513e-05
-1.29656e-05
-1.28733e-05
-1.26722e-05
-1.23284e-05
-1.18461e-05
-1.10478e-05
-9.98318e-06
-7.84292e-06
-6.77736e-06
-5.95951e-06
-5.4902e-06
-5.28435e-06
-5.30765e-06
-5.52036e-06
-5.8585e-06
-6.18588e-06
-5.42511e-06
-5.12315e-06
-4.84281e-06
-4.62855e-06
-4.55854e-06
-4.65153e-06
-4.92481e-06
-5.40344e-06
-6.08964e-06
-7.1459e-06
-8.65356e-06
-1.26463e-05
-1.37787e-05
-1.48311e-05
-1.54718e-05
-1.59398e-05
-1.6229e-05
-1.63812e-05
-1.63962e-05
-1.62736e-05
-1.60131e-05
-1.55711e-05
-1.49548e-05
-1.39187e-05
-1.28187e-05
-8.83897e-06
-7.48217e-06
-6.48426e-06
-5.91534e-06
-5.61139e-06
-5.58066e-06
-5.79255e-06
-6.1441e-06
-6.54665e-06
-5.65034e-06
-5.29678e-06
-4.99292e-06
-4.77883e-06
-4.74958e-06
-4.9255e-06
-5.32548e-06
-5.95357e-06
-6.83714e-06
-9.07391e-06
-7.21025e-06
-1.55105e-05
-1.66191e-05
-1.81248e-05
-1.8961e-05
-1.95836e-05
-1.99676e-05
-2.0166e-05
-2.01818e-05
-2.00147e-05
-1.96611e-05
-1.90662e-05
-1.82558e-05
-1.67627e-05
-1.57113e-05
-7.30484e-06
-9.3774e-06
-7.1981e-06
-6.46785e-06
-6.03249e-06
-5.90974e-06
-6.09606e-06
-6.4658e-06
-6.96166e-06
-5.88811e-06
-5.47631e-06
-5.14588e-06
-4.93437e-06
-4.95512e-06
-5.22927e-06
-5.73554e-06
-6.32029e-06
-6.88697e-06
-4.83577e-06
-2.27897e-05
-2.03532e-05
-2.12537e-05
-2.19961e-05
-2.26463e-05
-2.30754e-05
-2.32935e-05
-2.33097e-05
-2.31239e-05
-2.27263e-05
-2.2105e-05
-2.13858e-05
-2.04921e-05
-2.28566e-05
-5.44533e-06
-7.37611e-06
-6.86995e-06
-6.4588e-06
-6.25512e-06
-6.40181e-06
-6.7924e-06
-7.40048e-06
-6.12894e-06
-5.65632e-06
-5.30118e-06
-5.10228e-06
-5.20593e-06
-5.67876e-06
-6.61954e-06
-8.16143e-06
-1.06778e-05
-1.38285e-05
-2.06438e-05
-1.93933e-05
-2.18841e-05
-2.3616e-05
-2.48954e-05
-2.58532e-05
-2.64425e-05
-2.67238e-05
-2.67403e-05
-2.64922e-05
-2.59371e-05
-2.50147e-05
-2.37728e-05
-2.20847e-05
-1.96339e-05
-2.09779e-05
-1.41253e-05
-1.10285e-05
-8.62671e-06
-7.30197e-06
-6.71424e-06
-6.73385e-06
-7.1103e-06
-7.86537e-06
-6.35809e-06
-5.82646e-06
-5.44082e-06
-5.24109e-06
-5.39394e-06
-5.97824e-06
-7.09692e-06
-8.82944e-06
-1.12595e-05
-1.40446e-05
-1.86473e-05
-2.11017e-05
-2.32484e-05
-2.51047e-05
-2.65711e-05
-2.76152e-05
-2.82614e-05
-2.85704e-05
-2.85865e-05
-2.83099e-05
-2.76973e-05
-2.6688e-05
-2.52583e-05
-2.34346e-05
-2.13074e-05
-1.89053e-05
-1.43373e-05
-1.1578e-05
-9.25763e-06
-7.75998e-06
-7.03494e-06
-7.01071e-06
-7.42159e-06
-8.27996e-06
-6.56683e-06
-5.98426e-06
-5.56715e-06
-5.35947e-06
-5.54191e-06
-6.19827e-06
-7.43158e-06
-9.31622e-06
-1.19218e-05
-1.50683e-05
-1.88593e-05
-2.17043e-05
-2.42165e-05
-2.62339e-05
-2.7795e-05
-2.8857e-05
-2.95052e-05
-2.98108e-05
-2.98258e-05
-2.95509e-05
-2.89346e-05
-2.79061e-05
-2.63811e-05
-2.4396e-05
-2.19156e-05
-1.9089e-05
-1.53054e-05
-1.21957e-05
-9.71247e-06
-8.08476e-06
-7.28467e-06
-7.24997e-06
-7.70322e-06
-8.6557e-06
-6.74728e-06
-6.12243e-06
-5.67319e-06
-5.44824e-06
-5.63631e-06
-6.32037e-06
-7.59681e-06
-9.53259e-06
-1.21684e-05
-1.53463e-05
-1.88943e-05
-2.20294e-05
-2.47822e-05
-2.68707e-05
-2.84562e-05
-2.95011e-05
-3.01296e-05
-3.04214e-05
-3.04353e-05
-3.01716e-05
-2.95724e-05
-2.85583e-05
-2.70061e-05
-2.49465e-05
-2.22229e-05
-1.90953e-05
-1.55544e-05
-1.24163e-05
-9.9125e-06
-8.25406e-06
-7.44571e-06
-7.43494e-06
-7.9386e-06
-8.97521e-06
-6.8962e-06
-6.23797e-06
-5.76073e-06
-5.51692e-06
-5.70075e-06
-6.39361e-06
-7.68633e-06
-9.64233e-06
-1.22891e-05
-1.5488e-05
-1.9003e-05
-2.2286e-05
-2.51577e-05
-2.72918e-05
-2.88854e-05
-2.9909e-05
-3.05149e-05
-3.07918e-05
-3.08044e-05
-3.05533e-05
-2.9974e-05
-2.89782e-05
-2.74148e-05
-2.53067e-05
-2.24627e-05
-1.91825e-05
-1.56751e-05
-1.25202e-05
-1.00155e-05
-8.35493e-06
-7.55928e-06
-7.58048e-06
-8.1295e-06
-9.23338e-06
-7.01201e-06
-6.32651e-06
-5.8282e-06
-5.56752e-06
-5.74305e-06
-6.43518e-06
-7.73156e-06
-9.69553e-06
-1.23504e-05
-1.55736e-05
-1.91094e-05
-2.24642e-05
-2.5422e-05
-2.75875e-05
-2.91854e-05
-3.01958e-05
-3.0787e-05
-3.10543e-05
-3.10661e-05
-3.08228e-05
-3.02559e-05
-2.92705e-05
-2.76997e-05
-2.55583e-05
-2.26414e-05
-1.92744e-05
-1.57464e-05
-1.25718e-05
-1.00679e-05
-8.41391e-06
-7.63653e-06
-7.68792e-06
-8.27303e-06
-9.42687e-06
-7.09068e-06
-6.38933e-06
-5.87693e-06
-5.60486e-06
-5.77443e-06
-6.4659e-06
-7.76604e-06
-9.73933e-06
-1.24084e-05
-1.56589e-05
-1.92289e-05
-2.264e-05
-2.56445e-05
-2.78339e-05
-2.94403e-05
-3.04488e-05
-3.10356e-05
-3.12994e-05
-3.13109e-05
-3.10703e-05
-3.05066e-05
-2.95211e-05
-2.79385e-05
-2.57667e-05
-2.27821e-05
-1.93786e-05
-1.58225e-05
-1.26251e-05
-1.01134e-05
-8.45991e-06
-7.69296e-06
-7.76348e-06
-8.3712e-06
-9.55651e-06
-7.13318e-06
-6.42479e-06
-5.90684e-06
-5.63036e-06
-5.79842e-06
-6.49209e-06
-7.79905e-06
-9.78526e-06
-1.24742e-05
-1.57523e-05
-1.93548e-05
-2.28001e-05
-2.58318e-05
-2.80407e-05
-2.96598e-05
-3.06767e-05
-3.12684e-05
-3.15347e-05
-3.15467e-05
-3.13043e-05
-3.0736e-05
-2.97417e-05
-2.81451e-05
-2.59516e-05
-2.2937e-05
-1.95008e-05
-1.59141e-05
-1.26909e-05
-1.01625e-05
-8.50052e-06
-7.73284e-06
-7.80887e-06
-8.42498e-06
-9.62341e-06
-7.13956e-06
-6.43368e-06
-5.91837e-06
-5.64429e-06
-5.81528e-06
-6.51396e-06
-7.83054e-06
-9.83211e-06
-1.2545e-05
-1.58508e-05
-1.94855e-05
-2.29456e-05
-2.59848e-05
-2.82071e-05
-2.98413e-05
-3.08755e-05
-3.14806e-05
-3.17553e-05
-3.17686e-05
-3.15205e-05
-3.09409e-05
-2.99311e-05
-2.83205e-05
-2.61153e-05
-2.30949e-05
-1.96402e-05
-1.60192e-05
-1.27674e-05
-1.02141e-05
-8.53558e-06
-7.75655e-06
-7.82493e-06
-8.43557e-06
-9.62882e-06
-7.11146e-06
-6.41772e-06
-5.9124e-06
-5.64598e-06
-5.82154e-06
-6.52396e-06
-7.8481e-06
-9.86416e-06
-1.26053e-05
-1.59414e-05
-1.96228e-05
-2.3079e-05
-2.61007e-05
-2.83283e-05
-2.99786e-05
-3.10387e-05
-3.16657e-05
-3.19543e-05
-3.197e-05
-3.17129e-05
-3.1116e-05
-3.00847e-05
-2.84623e-05
-2.62584e-05
-2.32756e-05
-1.98014e-05
-1.61278e-05
-1.28425e-05
-1.02575e-05
-8.55823e-06
-7.76155e-06
-7.81229e-06
-8.40487e-06
-9.57499e-06
-7.0518e-06
-6.37842e-06
-5.8889e-06
-5.6317e-06
-5.80718e-06
-6.5022e-06
-7.81786e-06
-9.83036e-06
-1.25897e-05
-1.59579e-05
-1.97538e-05
-2.31959e-05
-2.61408e-05
-2.83462e-05
-2.99997e-05
-3.10879e-05
-3.1742e-05
-3.20491e-05
-3.20686e-05
-3.18005e-05
-3.11839e-05
-3.01321e-05
-2.85127e-05
-2.63347e-05
-2.34129e-05
-1.99602e-05
-1.61738e-05
-1.2855e-05
-1.0247e-05
-8.54064e-06
-7.73457e-06
-7.76728e-06
-8.33348e-06
-9.46411e-06
-6.96458e-06
-6.32092e-06
-5.85119e-06
-5.60229e-06
-5.7689e-06
-6.43815e-06
-7.717e-06
-9.69032e-06
-1.24501e-05
-1.5851e-05
-1.99416e-05
-2.32867e-05
-2.6064e-05
-2.82222e-05
-2.98617e-05
-3.09741e-05
-3.16535e-05
-3.19793e-05
-3.20047e-05
-3.17299e-05
-3.11003e-05
-3.00376e-05
-2.84436e-05
-2.63219e-05
-2.35584e-05
-2.01944e-05
-1.61271e-05
-1.27702e-05
-1.01524e-05
-8.46896e-06
-7.67344e-06
-7.69461e-06
-8.22892e-06
-9.30312e-06
-6.85496e-06
-6.2488e-06
-5.79872e-06
-5.55042e-06
-5.68678e-06
-6.28849e-06
-7.45749e-06
-9.27024e-06
-1.18015e-05
-1.47839e-05
-1.99472e-05
-2.36045e-05
-2.5793e-05
-2.7758e-05
-2.93059e-05
-3.04079e-05
-3.10955e-05
-3.14348e-05
-3.14688e-05
-3.11984e-05
-3.05791e-05
-2.9548e-05
-2.80649e-05
-2.61605e-05
-2.40059e-05
-2.02528e-05
-1.51174e-05
-1.21911e-05
-9.80605e-06
-8.265e-06
-7.5443e-06
-7.58431e-06
-8.09468e-06
-9.09588e-06
-6.73336e-06
-6.17087e-06
-5.74189e-06
-5.49201e-06
-5.58742e-06
-6.09832e-06
-7.13242e-06
-8.83734e-06
-1.16231e-05
-1.53286e-05
-2.13697e-05
-2.20077e-05
-2.49815e-05
-2.71362e-05
-2.86013e-05
-2.96847e-05
-3.03614e-05
-3.07011e-05
-3.07497e-05
-3.05097e-05
-2.99335e-05
-2.89559e-05
-2.75791e-05
-2.55043e-05
-2.25521e-05
-2.16468e-05
-1.59216e-05
-1.22158e-05
-9.52187e-06
-8.03431e-06
-7.39512e-06
-7.46788e-06
-7.97244e-06
-8.84595e-06
-6.60814e-06
-6.09024e-06
-5.67887e-06
-5.41794e-06
-5.44262e-06
-5.76805e-06
-6.33894e-06
-6.8999e-06
-7.34663e-06
-4.17067e-06
-2.87219e-05
-2.51541e-05
-2.61249e-05
-2.70087e-05
-2.78089e-05
-2.83634e-05
-2.86695e-05
-2.87349e-05
-2.85651e-05
-2.81525e-05
-2.75115e-05
-2.67608e-05
-2.59419e-05
-2.9465e-05
-4.72738e-06
-8.04903e-06
-7.70172e-06
-7.3459e-06
-7.1192e-06
-7.30726e-06
-7.81642e-06
-8.6144e-06
-6.49474e-06
-6.01989e-06
-5.63381e-06
-5.38282e-06
-5.39763e-06
-5.72298e-06
-6.43128e-06
-7.6232e-06
-9.5878e-06
-1.27864e-05
-1.36372e-05
-2.02122e-05
-2.23229e-05
-2.43511e-05
-2.56789e-05
-2.66967e-05
-2.73607e-05
-2.77313e-05
-2.78208e-05
-2.76401e-05
-2.71779e-05
-2.63909e-05
-2.52512e-05
-2.34716e-05
-2.14275e-05
-1.54471e-05
-1.43335e-05
-1.08725e-05
-8.74358e-06
-7.58502e-06
-7.11901e-06
-7.23216e-06
-7.68798e-06
-8.41528e-06
-6.39984e-06
-5.96485e-06
-5.6054e-06
-5.36737e-06
-5.36947e-06
-5.65374e-06
-6.27064e-06
-7.26465e-06
-8.65932e-06
-1.0466e-05
-1.41209e-05
-1.86239e-05
-2.06426e-05
-2.25316e-05
-2.39112e-05
-2.49768e-05
-2.567e-05
-2.60624e-05
-2.61688e-05
-2.60059e-05
-2.55618e-05
-2.47928e-05
-2.36457e-05
-2.20554e-05
-2.01021e-05
-1.57977e-05
-1.17533e-05
-9.90575e-06
-8.44148e-06
-7.48086e-06
-7.06111e-06
-7.15594e-06
-7.5721e-06
-8.23091e-06
-6.33055e-06
-5.93887e-06
-5.61458e-06
-5.40266e-06
-5.40936e-06
-5.67568e-06
-6.25748e-06
-7.22614e-06
-8.6905e-06
-1.07133e-05
-1.33327e-05
-1.64709e-05
-1.87489e-05
-2.07169e-05
-2.21611e-05
-2.32752e-05
-2.39919e-05
-2.43944e-05
-2.45069e-05
-2.43506e-05
-2.39074e-05
-2.31336e-05
-2.19658e-05
-2.03561e-05
-1.82044e-05
-1.51622e-05
-1.23814e-05
-1.01429e-05
-8.51057e-06
-7.51116e-06
-7.07465e-06
-7.13506e-06
-7.50471e-06
-8.11425e-06
-6.30083e-06
-5.95124e-06
-5.67186e-06
-5.49744e-06
-5.51804e-06
-5.76767e-06
-6.29329e-06
-7.1554e-06
-8.4248e-06
-1.01553e-05
-1.23244e-05
-1.47666e-05
-1.68911e-05
-1.87679e-05
-2.0173e-05
-2.12433e-05
-2.19282e-05
-2.23119e-05
-2.24229e-05
-2.22839e-05
-2.18751e-05
-2.11558e-05
-2.00529e-05
-1.85456e-05
-1.65414e-05
-1.41478e-05
-1.18187e-05
-9.88454e-06
-8.45375e-06
-7.54752e-06
-7.13745e-06
-7.17254e-06
-7.49351e-06
-8.05207e-06
-6.31237e-06
-6.01176e-06
-5.7932e-06
-5.67529e-06
-5.72936e-06
-5.98016e-06
-6.46097e-06
-7.21398e-06
-8.2853e-06
-9.70086e-06
-1.14269e-05
-1.33477e-05
-1.51589e-05
-1.68139e-05
-1.8087e-05
-1.90513e-05
-1.9675e-05
-2.0026e-05
-2.01303e-05
-2.00118e-05
-1.96486e-05
-1.90088e-05
-1.80311e-05
-1.67122e-05
-1.50143e-05
-1.31147e-05
-1.1261e-05
-9.67967e-06
-8.4775e-06
-7.69094e-06
-7.31074e-06
-7.30705e-06
-7.55909e-06
-8.04836e-06
-6.35749e-06
-6.12233e-06
-5.98521e-06
-5.94714e-06
-6.05875e-06
-6.33652e-06
-6.80314e-06
-7.48501e-06
-8.40835e-06
-9.5776e-06
-1.09577e-05
-1.2474e-05
-1.39549e-05
-1.53233e-05
-1.64044e-05
-1.72281e-05
-1.77721e-05
-1.80828e-05
-1.81797e-05
-1.80778e-05
-1.7764e-05
-1.72161e-05
-1.63932e-05
-1.53019e-05
-1.39341e-05
-1.2445e-05
-1.09882e-05
-9.71246e-06
-8.70692e-06
-8.01158e-06
-7.63368e-06
-7.56032e-06
-7.7086e-06
-8.10209e-06
-6.41812e-06
-6.26151e-06
-6.21063e-06
-6.25841e-06
-6.44116e-06
-6.77298e-06
-7.26953e-06
-7.94559e-06
-8.80576e-06
-9.84554e-06
-1.10396e-05
-1.23279e-05
-1.35914e-05
-1.47585e-05
-1.57074e-05
-1.64403e-05
-1.69393e-05
-1.72294e-05
-1.73218e-05
-1.72255e-05
-1.69331e-05
-1.64327e-05
-1.57036e-05
-1.47585e-05
-1.36086e-05
-1.23677e-05
-1.1139e-05
-1.00473e-05
-9.14844e-06
-8.48188e-06
-8.06442e-06
-7.89526e-06
-7.92715e-06
-8.17773e-06
-6.47182e-06
-6.41083e-06
-6.43824e-06
-6.56131e-06
-6.81429e-06
-7.21719e-06
-7.78897e-06
-8.54391e-06
-9.48608e-06
-1.06024e-05
-1.18437e-05
-1.31451e-05
-1.44169e-05
-1.5591e-05
-1.6571e-05
-1.73414e-05
-1.78802e-05
-1.81962e-05
-1.82947e-05
-1.81805e-05
-1.78499e-05
-1.72979e-05
-1.65189e-05
-1.55344e-05
-1.43722e-05
-1.31295e-05
-1.18989e-05
-1.07606e-05
-9.79938e-06
-9.05847e-06
-8.55139e-06
-8.27134e-06
-8.17634e-06
-8.25959e-06
-4.92371e-06
-4.92697e-06
-4.93776e-06
-4.95912e-06
-4.99417e-06
-5.05287e-06
-5.13703e-06
-5.2484e-06
-5.38587e-06
-5.54664e-06
-5.72261e-06
-5.90695e-06
-6.08931e-06
-6.25578e-06
-6.39818e-06
-6.51313e-06
-6.59712e-06
-6.64883e-06
-6.66754e-06
-6.65341e-06
-6.60755e-06
-6.53161e-06
-6.42953e-06
-6.30499e-06
-6.16591e-06
-6.02595e-06
-5.89685e-06
-5.78447e-06
-5.69579e-06
-5.63097e-06
-5.59252e-06
-5.56539e-06
-5.54751e-06
-5.53526e-06
-4.8827e-06
-4.85867e-06
-4.84816e-06
-4.84366e-06
-4.857e-06
-4.89239e-06
-4.95173e-06
-5.03495e-06
-5.13835e-06
-5.25866e-06
-5.38568e-06
-5.5169e-06
-5.63939e-06
-5.75708e-06
-5.85902e-06
-5.94328e-06
-6.00594e-06
-6.04661e-06
-6.06458e-06
-6.05999e-06
-6.03387e-06
-5.98687e-06
-5.92324e-06
-5.84509e-06
-5.76429e-06
-5.67674e-06
-5.59517e-06
-5.52233e-06
-5.46847e-06
-5.43609e-06
-5.42708e-06
-5.4371e-06
-5.4523e-06
-5.47631e-06
-4.87028e-06
-4.83977e-06
-4.81792e-06
-4.79247e-06
-4.7888e-06
-4.81335e-06
-4.86966e-06
-4.95903e-06
-5.07712e-06
-5.22365e-06
-5.38099e-06
-5.55147e-06
-5.70359e-06
-5.84571e-06
-5.96143e-06
-6.05508e-06
-6.12212e-06
-6.16462e-06
-6.18207e-06
-6.17456e-06
-6.14293e-06
-6.08532e-06
-6.00676e-06
-5.90317e-06
-5.79202e-06
-5.66501e-06
-5.55491e-06
-5.45967e-06
-5.39819e-06
-5.37052e-06
-5.37795e-06
-5.41296e-06
-5.44067e-06
-5.47011e-06
-4.88499e-06
-4.84058e-06
-4.80182e-06
-4.75411e-06
-4.73577e-06
-4.75721e-06
-4.82528e-06
-4.94521e-06
-5.11324e-06
-5.33615e-06
-5.58249e-06
-5.86459e-06
-6.1036e-06
-6.32101e-06
-6.48627e-06
-6.61542e-06
-6.70271e-06
-6.7549e-06
-6.77174e-06
-6.75328e-06
-6.70006e-06
-6.60548e-06
-6.47597e-06
-6.29578e-06
-6.09721e-06
-5.85899e-06
-5.66332e-06
-5.49794e-06
-5.39713e-06
-5.35406e-06
-5.368e-06
-5.42475e-06
-5.46987e-06
-5.51161e-06
-4.9417e-06
-4.87948e-06
-4.82599e-06
-4.76339e-06
-4.74147e-06
-4.77566e-06
-4.87767e-06
-5.05971e-06
-5.32023e-06
-5.68185e-06
-6.08996e-06
-6.58474e-06
-6.97924e-06
-7.33112e-06
-7.58421e-06
-7.77723e-06
-7.90167e-06
-7.97218e-06
-7.98862e-06
-7.95092e-06
-7.85953e-06
-7.69974e-06
-7.48105e-06
-7.16493e-06
-6.81058e-06
-6.36035e-06
-6.00786e-06
-5.71119e-06
-5.53005e-06
-5.44163e-06
-5.44176e-06
-5.50602e-06
-5.56267e-06
-5.62519e-06
-5.04388e-06
-4.95857e-06
-4.89261e-06
-4.82313e-06
-4.80974e-06
-4.87313e-06
-5.03043e-06
-5.30303e-06
-5.69298e-06
-6.25331e-06
-6.90083e-06
-7.75169e-06
-8.3739e-06
-8.92261e-06
-9.29919e-06
-9.58354e-06
-9.76109e-06
-9.85854e-06
-9.87484e-06
-9.8098e-06
-9.66462e-06
-9.4123e-06
-9.06864e-06
-8.55365e-06
-7.97101e-06
-7.16465e-06
-6.5796e-06
-6.09199e-06
-5.7945e-06
-5.63344e-06
-5.60051e-06
-5.65939e-06
-5.72469e-06
-5.81239e-06
-5.19117e-06
-5.0769e-06
-5.00047e-06
-4.93107e-06
-4.93685e-06
-5.04258e-06
-5.26965e-06
-5.64869e-06
-6.18497e-06
-6.99615e-06
-7.95141e-06
-9.39044e-06
-1.02903e-05
-1.10721e-05
-1.15808e-05
-1.19651e-05
-1.21988e-05
-1.23259e-05
-1.23424e-05
-1.22478e-05
-1.20463e-05
-1.16929e-05
-1.12154e-05
-1.04641e-05
-9.60299e-06
-8.20648e-06
-7.32504e-06
-6.59379e-06
-6.16309e-06
-5.91397e-06
-5.83551e-06
-5.8804e-06
-5.95305e-06
-6.07496e-06
-5.37451e-06
-5.22928e-06
-5.14511e-06
-5.08394e-06
-5.12224e-06
-5.28636e-06
-5.5984e-06
-6.08809e-06
-6.76103e-06
-7.7745e-06
-9.0815e-06
-1.15188e-05
-1.26662e-05
-1.37026e-05
-1.43539e-05
-1.48594e-05
-1.51636e-05
-1.53283e-05
-1.53452e-05
-1.52138e-05
-1.49421e-05
-1.44667e-05
-1.38446e-05
-1.28339e-05
-1.17219e-05
-9.31857e-06
-8.10736e-06
-7.17684e-06
-6.62223e-06
-6.28096e-06
-6.14416e-06
-6.1643e-06
-6.2428e-06
-6.41005e-06
-5.59585e-06
-5.4067e-06
-5.31534e-06
-5.26648e-06
-5.34455e-06
-5.57221e-06
-5.96294e-06
-6.53029e-06
-7.19992e-06
-8.26803e-06
-9.81047e-06
-1.4433e-05
-1.53408e-05
-1.64239e-05
-1.71209e-05
-1.76766e-05
-1.80075e-05
-1.81911e-05
-1.82084e-05
-1.80588e-05
-1.77606e-05
-1.72342e-05
-1.65646e-05
-1.54984e-05
-1.46214e-05
-1.00174e-05
-8.63771e-06
-7.63107e-06
-7.08508e-06
-6.68142e-06
-6.49344e-06
-6.49066e-06
-6.57115e-06
-6.80379e-06
-5.84487e-06
-5.60331e-06
-5.50991e-06
-5.48916e-06
-5.63756e-06
-5.97611e-06
-6.51932e-06
-7.19651e-06
-7.95554e-06
-9.9406e-06
-6.77737e-06
-1.66154e-05
-1.74484e-05
-1.88774e-05
-1.97143e-05
-2.04291e-05
-2.08392e-05
-2.106e-05
-2.10774e-05
-2.08908e-05
-2.05142e-05
-1.98295e-05
-1.90198e-05
-1.76032e-05
-1.68276e-05
-6.85259e-06
-1.02543e-05
-8.34419e-06
-7.74275e-06
-7.24867e-06
-6.93998e-06
-6.87266e-06
-6.9374e-06
-7.2473e-06
-6.10835e-06
-5.80432e-06
-5.70574e-06
-5.71265e-06
-5.9314e-06
-6.3772e-06
-7.03293e-06
-7.70739e-06
-7.94325e-06
-4.05652e-06
-2.3785e-05
-2.00326e-05
-2.0668e-05
-2.13711e-05
-2.19546e-05
-2.23361e-05
-2.25418e-05
-2.25585e-05
-2.23856e-05
-2.20361e-05
-2.14818e-05
-2.08032e-05
-2.01721e-05
-2.38195e-05
-4.75215e-06
-8.44703e-06
-8.27763e-06
-7.77403e-06
-7.37341e-06
-7.24398e-06
-7.3018e-06
-7.72434e-06
-6.37658e-06
-6.0074e-06
-5.91377e-06
-5.97516e-06
-6.33021e-06
-7.04394e-06
-8.22178e-06
-9.91543e-06
-1.26273e-05
-1.53119e-05
-2.1758e-05
-1.8681e-05
-2.05015e-05
-2.20239e-05
-2.31511e-05
-2.38887e-05
-2.43731e-05
-2.46192e-05
-2.46354e-05
-2.44218e-05
-2.39702e-05
-2.3266e-05
-2.21736e-05
-2.06916e-05
-1.89073e-05
-2.20797e-05
-1.55705e-05
-1.29531e-05
-1.03807e-05
-8.89907e-06
-8.02221e-06
-7.68246e-06
-7.67478e-06
-8.22148e-06
-6.63259e-06
-6.19903e-06
-6.09962e-06
-6.19081e-06
-6.62593e-06
-7.47786e-06
-8.85108e-06
-1.07361e-05
-1.3282e-05
-1.56143e-05
-1.9511e-05
-2.03896e-05
-2.14048e-05
-2.24572e-05
-2.34122e-05
-2.41223e-05
-2.46188e-05
-2.48728e-05
-2.4888e-05
-2.46643e-05
-2.41981e-05
-2.35169e-05
-2.25897e-05
-2.15566e-05
-2.05474e-05
-1.97214e-05
-1.58638e-05
-1.35747e-05
-1.11621e-05
-9.50537e-06
-8.46494e-06
-8.03824e-06
-8.01915e-06
-8.68484e-06
-6.86717e-06
-6.37915e-06
-6.27467e-06
-6.39231e-06
-6.89906e-06
-7.87592e-06
-9.42557e-06
-1.15281e-05
-1.42258e-05
-1.69505e-05
-1.99347e-05
-2.13239e-05
-2.24168e-05
-2.3396e-05
-2.43254e-05
-2.50169e-05
-2.55049e-05
-2.57515e-05
-2.57656e-05
-2.55473e-05
-2.50877e-05
-2.44225e-05
-2.35185e-05
-2.25547e-05
-2.14761e-05
-2.01025e-05
-1.71413e-05
-1.44722e-05
-1.19171e-05
-1.00633e-05
-8.87907e-06
-8.37657e-06
-8.34622e-06
-9.10611e-06
-7.0697e-06
-6.53687e-06
-6.42122e-06
-6.5468e-06
-7.08761e-06
-8.12436e-06
-9.74797e-06
-1.19331e-05
-1.46483e-05
-1.74648e-05
-2.0225e-05
-2.18936e-05
-2.31313e-05
-2.40924e-05
-2.50091e-05
-2.56813e-05
-2.61587e-05
-2.63975e-05
-2.64105e-05
-2.61976e-05
-2.57459e-05
-2.50966e-05
-2.42014e-05
-2.32494e-05
-2.20229e-05
-2.03598e-05
-1.76243e-05
-1.48708e-05
-1.23074e-05
-1.039e-05
-9.16066e-06
-8.64029e-06
-8.6237e-06
-9.46107e-06
-7.23621e-06
-6.66975e-06
-6.54362e-06
-6.67127e-06
-7.23219e-06
-8.30674e-06
-9.97746e-06
-1.22182e-05
-1.49565e-05
-1.78273e-05
-2.05376e-05
-2.23601e-05
-2.36777e-05
-2.4662e-05
-2.55885e-05
-2.62527e-05
-2.67221e-05
-2.69539e-05
-2.69659e-05
-2.67579e-05
-2.63117e-05
-2.56672e-05
-2.47584e-05
-2.37779e-05
-2.24644e-05
-2.06483e-05
-1.79657e-05
-1.51636e-05
-1.25872e-05
-1.06314e-05
-9.37972e-06
-8.85568e-06
-8.85411e-06
-9.74619e-06
-7.36347e-06
-6.77252e-06
-6.63684e-06
-6.76152e-06
-7.32976e-06
-8.42142e-06
-1.0114e-05
-1.23832e-05
-1.51379e-05
-1.80521e-05
-2.0776e-05
-2.27084e-05
-2.40638e-05
-2.50674e-05
-2.60023e-05
-2.66631e-05
-2.71284e-05
-2.73562e-05
-2.73675e-05
-2.71617e-05
-2.67174e-05
-2.60733e-05
-2.51522e-05
-2.41467e-05
-2.27799e-05
-2.08671e-05
-1.81768e-05
-1.53377e-05
-1.27542e-05
-1.07839e-05
-9.5294e-06
-9.01308e-06
-9.02775e-06
-9.95774e-06
-7.44979e-06
-6.84465e-06
-6.70277e-06
-6.82476e-06
-7.3965e-06
-8.49812e-06
-1.02054e-05
-1.24959e-05
-1.5271e-05
-1.82219e-05
-2.09756e-05
-2.29739e-05
-2.43562e-05
-2.53771e-05
-2.63215e-05
-2.69848e-05
-2.74505e-05
-2.76777e-05
-2.76887e-05
-2.7483e-05
-2.7037e-05
-2.63884e-05
-2.54545e-05
-2.44282e-05
-2.30401e-05
-2.10562e-05
-1.83403e-05
-1.54694e-05
-1.28722e-05
-1.08899e-05
-9.63292e-06
-9.12189e-06
-9.14652e-06
-1.00984e-05
-7.49517e-06
-6.88515e-06
-6.741e-06
-6.86182e-06
-7.4351e-06
-8.54194e-06
-1.02588e-05
-1.25655e-05
-1.53626e-05
-1.83433e-05
-2.11287e-05
-2.31553e-05
-2.45627e-05
-2.5598e-05
-2.65518e-05
-2.72222e-05
-2.76923e-05
-2.7922e-05
-2.79336e-05
-2.77263e-05
-2.72762e-05
-2.66201e-05
-2.56757e-05
-2.4634e-05
-2.32269e-05
-2.12097e-05
-1.8464e-05
-1.55657e-05
-1.29496e-05
-1.09554e-05
-9.69351e-06
-9.18281e-06
-9.21028e-06
-1.017e-05
-7.50011e-06
-6.89461e-06
-6.75206e-06
-6.87314e-06
-7.44594e-06
-8.55306e-06
-1.02749e-05
-1.25905e-05
-1.54102e-05
-1.84149e-05
-2.12381e-05
-2.32842e-05
-2.46905e-05
-2.57341e-05
-2.66954e-05
-2.73764e-05
-2.78545e-05
-2.80899e-05
-2.8103e-05
-2.78929e-05
-2.74373e-05
-2.67727e-05
-2.58221e-05
-2.4773e-05
-2.33616e-05
-2.13305e-05
-1.85477e-05
-1.56251e-05
-1.2986e-05
-1.09807e-05
-9.71192e-06
-9.19702e-06
-9.22045e-06
-1.01741e-05
-7.4663e-06
-6.87529e-06
-6.7378e-06
-6.8594e-06
-7.42759e-06
-8.52685e-06
-1.02438e-05
-1.25595e-05
-1.54032e-05
-1.84256e-05
-2.13065e-05
-2.33406e-05
-2.47382e-05
-2.57876e-05
-2.67558e-05
-2.74523e-05
-2.79422e-05
-2.81866e-05
-2.82025e-05
-2.79891e-05
-2.75268e-05
-2.68518e-05
-2.58987e-05
-2.48483e-05
-2.34399e-05
-2.14254e-05
-1.8584e-05
-1.56408e-05
-1.29745e-05
-1.09627e-05
-9.68865e-06
-9.16763e-06
-9.1809e-06
-1.01124e-05
-7.39607e-06
-6.82926e-06
-6.69761e-06
-6.81461e-06
-7.365e-06
-8.43416e-06
-1.01175e-05
-1.23996e-05
-1.52523e-05
-1.82835e-05
-2.12946e-05
-2.32835e-05
-2.46637e-05
-2.57092e-05
-2.66744e-05
-2.73865e-05
-2.78901e-05
-2.81463e-05
-2.81664e-05
-2.79497e-05
-2.7482e-05
-2.68002e-05
-2.58576e-05
-2.48205e-05
-2.34465e-05
-2.14552e-05
-1.84825e-05
-1.55274e-05
-1.28483e-05
-1.08595e-05
-9.60249e-06
-9.08783e-06
-9.09263e-06
-9.98595e-06
-7.29459e-06
-6.76345e-06
-6.63917e-06
-6.74738e-06
-7.26841e-06
-8.28736e-06
-9.91023e-06
-1.21259e-05
-1.49835e-05
-1.797e-05
-2.12888e-05
-2.32252e-05
-2.44845e-05
-2.55633e-05
-2.6549e-05
-2.72903e-05
-2.7812e-05
-2.80829e-05
-2.81094e-05
-2.78913e-05
-2.74184e-05
-2.6722e-05
-2.57714e-05
-2.47154e-05
-2.34661e-05
-2.15087e-05
-1.82364e-05
-1.53213e-05
-1.26321e-05
-1.06941e-05
-9.47388e-06
-8.97598e-06
-8.97099e-06
-9.80314e-06
-7.16751e-06
-6.68074e-06
-6.55844e-06
-6.641e-06
-7.09697e-06
-8.00073e-06
-9.45441e-06
-1.14456e-05
-1.40924e-05
-1.66106e-05
-2.10631e-05
-2.32725e-05
-2.41734e-05
-2.52577e-05
-2.6242e-05
-2.69975e-05
-2.75312e-05
-2.78165e-05
-2.78509e-05
-2.7635e-05
-2.71657e-05
-2.64753e-05
-2.55441e-05
-2.45119e-05
-2.36437e-05
-2.13327e-05
-1.69441e-05
-1.45131e-05
-1.20435e-05
-1.03125e-05
-9.2305e-06
-8.80529e-06
-8.8146e-06
-9.56915e-06
-7.02776e-06
-6.59428e-06
-6.4784e-06
-6.53973e-06
-6.93588e-06
-7.73362e-06
-9.04094e-06
-1.08943e-05
-1.38135e-05
-1.70323e-05
-2.23589e-05
-2.14963e-05
-2.37032e-05
-2.55074e-05
-2.67414e-05
-2.7574e-05
-2.81331e-05
-2.8434e-05
-2.84819e-05
-2.82792e-05
-2.78114e-05
-2.70734e-05
-2.59107e-05
-2.41922e-05
-2.20192e-05
-2.25979e-05
-1.75969e-05
-1.44142e-05
-1.16404e-05
-1.00068e-05
-9.02539e-06
-8.65481e-06
-8.66643e-06
-9.31267e-06
-6.88397e-06
-6.5031e-06
-6.38415e-06
-6.4019e-06
-6.68274e-06
-7.23619e-06
-8.02012e-06
-8.73077e-06
-8.70594e-06
-3.03886e-06
-3.00341e-05
-2.45593e-05
-2.5085e-05
-2.57918e-05
-2.64321e-05
-2.68902e-05
-2.71626e-05
-2.72231e-05
-2.70762e-05
-2.67344e-05
-2.62238e-05
-2.5605e-05
-2.52086e-05
-3.06301e-05
-3.63994e-06
-9.48158e-06
-9.64759e-06
-9.12904e-06
-8.61681e-06
-8.42902e-06
-8.49244e-06
-9.05096e-06
-6.75401e-06
-6.42394e-06
-6.31933e-06
-6.33602e-06
-6.60307e-06
-7.16262e-06
-8.07466e-06
-9.3236e-06
-1.11667e-05
-1.41148e-05
-1.3689e-05
-2.09136e-05
-2.24185e-05
-2.40962e-05
-2.51454e-05
-2.60717e-05
-2.66686e-05
-2.70192e-05
-2.70999e-05
-2.69178e-05
-2.64728e-05
-2.57119e-05
-2.47319e-05
-2.32394e-05
-2.18844e-05
-1.54622e-05
-1.55184e-05
-1.24714e-05
-1.05151e-05
-9.32066e-06
-8.59628e-06
-8.33545e-06
-8.35267e-06
-8.82679e-06
-6.64518e-06
-6.35699e-06
-6.26361e-06
-6.27402e-06
-6.50698e-06
-7.00608e-06
-7.8195e-06
-8.95968e-06
-1.04102e-05
-1.20924e-05
-1.55228e-05
-1.99825e-05
-2.11525e-05
-2.23803e-05
-2.32923e-05
-2.41518e-05
-2.47267e-05
-2.50816e-05
-2.51749e-05
-2.50165e-05
-2.46097e-05
-2.39308e-05
-2.30355e-05
-2.19061e-05
-2.08754e-05
-1.68972e-05
-1.33052e-05
-1.16756e-05
-1.02133e-05
-9.12793e-06
-8.46182e-06
-8.20976e-06
-8.21487e-06
-8.64202e-06
-6.57192e-06
-6.31902e-06
-6.24698e-06
-6.27154e-06
-6.50281e-06
-6.98972e-06
-7.78996e-06
-8.94049e-06
-1.04981e-05
-1.245e-05
-1.4921e-05
-1.77209e-05
-1.92204e-05
-2.0443e-05
-2.13837e-05
-2.22748e-05
-2.28683e-05
-2.32302e-05
-2.33276e-05
-2.31731e-05
-2.27588e-05
-2.20761e-05
-2.11454e-05
-1.99838e-05
-1.8651e-05
-1.62495e-05
-1.38302e-05
-1.18675e-05
-1.0268e-05
-9.13592e-06
-8.44237e-06
-8.15727e-06
-8.12711e-06
-8.49891e-06
-6.52716e-06
-6.31161e-06
-6.26524e-06
-6.30877e-06
-6.53736e-06
-6.99561e-06
-7.7342e-06
-8.78964e-06
-1.01889e-05
-1.19387e-05
-1.39261e-05
-1.60259e-05
-1.74472e-05
-1.86535e-05
-1.96164e-05
-2.04811e-05
-2.10593e-05
-2.14117e-05
-2.15107e-05
-2.13709e-05
-2.09818e-05
-2.03446e-05
-1.94396e-05
-1.8334e-05
-1.70553e-05
-1.5225e-05
-1.33096e-05
-1.15641e-05
-1.01313e-05
-9.08335e-06
-8.42683e-06
-8.13643e-06
-8.08274e-06
-8.40502e-06
-6.51284e-06
-6.33881e-06
-6.32648e-06
-6.40123e-06
-6.64041e-06
-7.08088e-06
-7.76237e-06
-8.71084e-06
-9.93448e-06
-1.14108e-05
-1.30283e-05
-1.46916e-05
-1.6e-05
-1.71756e-05
-1.81349e-05
-1.89608e-05
-1.95287e-05
-1.98747e-05
-1.99764e-05
-1.98478e-05
-1.94777e-05
-1.88728e-05
-1.80182e-05
-1.6984e-05
-1.57678e-05
-1.43154e-05
-1.27596e-05
-1.12898e-05
-1.00396e-05
-9.0961e-06
-8.48111e-06
-8.18147e-06
-8.09738e-06
-8.36315e-06
-6.52514e-06
-6.39579e-06
-6.42262e-06
-6.53689e-06
-6.79619e-06
-7.22873e-06
-7.86347e-06
-8.71675e-06
-9.786e-06
-1.10431e-05
-1.23963e-05
-1.3775e-05
-1.49749e-05
-1.60641e-05
-1.69663e-05
-1.7732e-05
-1.82673e-05
-1.85938e-05
-1.86945e-05
-1.85794e-05
-1.82407e-05
-1.76878e-05
-1.69122e-05
-1.59785e-05
-1.48877e-05
-1.36578e-05
-1.23545e-05
-1.11055e-05
-1.00206e-05
-9.17617e-06
-8.59858e-06
-8.28408e-06
-8.16349e-06
-8.36328e-06
-6.54562e-06
-6.4542e-06
-6.50131e-06
-6.64238e-06
-6.91836e-06
-7.35063e-06
-7.95916e-06
-8.75394e-06
-9.72762e-06
-1.0853e-05
-1.20639e-05
-1.32982e-05
-1.44412e-05
-1.54834e-05
-1.63548e-05
-1.70734e-05
-1.75833e-05
-1.7893e-05
-1.79912e-05
-1.78836e-05
-1.75663e-05
-1.70476e-05