/*--------------------------------*- C++ -*----------------------------------*\
| =========                 |                                                 |
| \\      /  F ield         | OpenFOAM: The Open Source CFD Toolbox           |
|  \\    /   O peration     | Version:  2112                                  |
|   \\  /    A nd           | Website:  www.openfoam.com                      |
|    \\/     M anipulation  |                                                 |
\*---------------------------------------------------------------------------*/
FoamFile
{
    version     2.0;
    format      ascii;
    arch        "LSB;label=32;scalar=64";
    class       surfaceScalarField;
    location    "4.1";
    object      phi;
}
// * * * * * * * * * * * * * * * * * * * * * * * * * * * * * * * * * * * * * //

dimensions      [0 3 -1 0 0 0 0];

oriented        oriented;

internalField   nonuniform List<scalar> 
188215
(
5.55389e-10
1.13616e-09
-1.69155e-09
2.56329e-09
1.47514e-10
-2.15541e-09
5.45452e-09
-1.35172e-09
-1.53951e-09
8.7582e-09
-2.71486e-09
-5.88821e-10
1.22519e-08
-3.6708e-09
1.77099e-10
1.56938e-08
-4.29827e-09
8.56349e-10
1.90688e-08
-4.62652e-09
1.2515e-09
2.22398e-08
-4.66239e-09
1.4914e-09
2.49985e-08
-4.38184e-09
1.6232e-09
2.69492e-08
-3.61761e-09
1.66691e-09
2.77923e-08
-2.46087e-09
1.61775e-09
2.69325e-08
-6.37119e-10
1.49697e-09
2.48119e-08
5.86235e-10
1.53432e-09
2.16018e-08
1.46631e-09
1.74384e-09
1.75629e-08
2.05303e-09
1.98582e-09
1.29061e-08
2.45212e-09
2.2047e-09
7.87342e-09
2.6675e-09
2.36516e-09
2.66544e-09
2.75816e-09
2.44982e-09
-2.5209e-09
2.73373e-09
2.45261e-09
-7.48955e-09
2.59417e-09
2.37448e-09
-1.20415e-08
2.33005e-09
2.22188e-09
-1.5938e-08
1.88379e-09
2.01275e-09
-1.8979e-08
1.2579e-09
1.78311e-09
-2.09412e-08
3.71309e-10
1.59081e-09
-2.15271e-08
-1.02059e-09
1.60654e-09
-2.04521e-08
-2.788e-09
1.71299e-09
-1.82831e-08
-3.87549e-09
1.70646e-09
-1.53202e-08
-4.49147e-09
1.52862e-09
-1.19744e-08
-4.4605e-09
1.11472e-09
-8.41979e-09
-3.85458e-09
2.99942e-10
-5.0672e-09
-2.64774e-09
-7.04851e-10
-2.27218e-09
-7.97836e-10
-1.99718e-09
-3.52781e-10
9.81915e-10
-2.90131e-09
2.13388e-09
-2.48666e-09
-1.77734e-09
6.05327e-09
-3.13976e-09
5.62672e-10
5.98655e-09
-8.17905e-09
4.23023e-09
4.92724e-09
-9.94652e-09
8.08823e-09
3.90845e-09
-1.04813e-08
1.18548e-08
3.48672e-09
-1.09241e-08
1.54851e-08
3.75411e-09
-1.16827e-08
1.89836e-08
4.76479e-09
-1.28898e-08
2.22639e-08
6.66038e-09
-1.4603e-08
2.51221e-08
9.60742e-09
-1.68475e-08
2.71545e-08
1.39746e-08
-1.96246e-08
2.80112e-08
1.95056e-08
-2.28232e-08
2.73381e-08
2.62678e-08
-2.62318e-08
2.52682e-08
3.21389e-08
-2.94827e-08
2.19415e-08
3.71729e-08
-3.238e-08
1.77996e-08
4.09206e-08
-3.47256e-08
1.3069e-08
4.36823e-08
-3.64995e-08
7.98369e-09
4.54416e-08
-3.76888e-08
2.73423e-09
4.63142e-08
-3.83065e-08
-2.49222e-09
4.63127e-08
-3.83525e-08
-7.50866e-09
4.54371e-08
-3.78265e-08
-1.21266e-08
4.36766e-08
-3.67286e-08
-1.61135e-08
4.09173e-08
-3.50467e-08
-1.92443e-08
3.71857e-08
-3.27969e-08
-2.10513e-08
3.21872e-08
-3.00089e-08
-2.15208e-08
2.63716e-08
-2.69227e-08
-2.03958e-08
1.97606e-08
-2.36736e-08
-1.80778e-08
1.45096e-08
-2.07031e-08
-1.48906e-08
1.05601e-08
-1.82387e-08
-1.12094e-08
8.26723e-09
-1.6409e-08
-7.20608e-09
7.3376e-09
-1.51955e-08
-3.04669e-09
7.63487e-09
-1.4442e-08
8.93477e-10
8.88635e-09
-1.36243e-08
3.08316e-09
1.01124e-08
-1.13202e-08
9.90906e-09
-4.69202e-09
-3.6108e-09
1.29229e-08
-3.25881e-09
-1.31904e-09
1.40437e-08
-1.03489e-08
2.8638e-09
1.38063e-08
-1.30619e-08
7.32773e-09
1.36888e-08
-1.42443e-08
1.16693e-08
1.44007e-08
-1.52555e-08
1.5876e-08
1.61572e-08
-1.66098e-08
2.00218e-08
1.91646e-08
-1.85455e-08
2.40835e-08
2.37863e-08
-2.11876e-08
2.78547e-08
3.04347e-08
-2.45984e-08
3.07376e-08
3.98934e-08
-2.88017e-08
3.21357e-08
5.17485e-08
-3.3641e-08
3.10993e-08
6.61606e-08
-3.88563e-08
2.83698e-08
7.86642e-08
-4.37959e-08
2.42931e-08
8.93932e-08
-4.81435e-08
1.94721e-08
9.7429e-08
-5.16875e-08
1.41282e-08
1.03405e-07
-5.43793e-08
8.48687e-09
1.07269e-07
-5.61856e-08
2.70857e-09
1.09217e-07
-5.71243e-08
-3.04578e-09
1.0926e-07
-5.71925e-08
-8.61504e-09
1.07397e-07
-5.63901e-08
-1.38397e-08
1.03621e-07
-5.47197e-08
-1.84923e-08
9.77358e-08
-5.21659e-08
-2.2353e-08
8.98121e-08
-4.87657e-08
-2.48137e-08
7.92261e-08
-4.45782e-08
-2.55539e-08
6.69452e-08
-3.98333e-08
-2.37953e-08
5.2857e-08
-3.4855e-08
-2.04947e-08
4.1535e-08
-3.0326e-08
-1.61856e-08
3.27694e-08
-2.65184e-08
-1.14152e-08
2.70841e-08
-2.35873e-08
-6.36456e-09
2.3738e-08
-2.1451e-08
-1.20559e-09
2.23067e-08
-1.98308e-08
3.49942e-09
2.22557e-08
-1.80743e-08
5.63195e-09
2.24002e-08
-1.44203e-08
2.05945e-08
-5.05352e-09
-4.91173e-09
2.04709e-08
-2.63631e-09
-2.52398e-09
2.2487e-08
-1.08311e-08
2.30448e-09
2.29854e-08
-1.40077e-08
7.6028e-09
2.38514e-08
-1.54609e-08
1.28856e-08
2.58482e-08
-1.67304e-08
1.81738e-08
2.92613e-08
-1.83924e-08
2.36498e-08
3.44233e-08
-2.07347e-08
2.9395e-08
4.19604e-08
-2.39194e-08
3.51705e-08
5.26752e-08
-2.8016e-08
3.99749e-08
6.81621e-08
-3.30731e-08
4.25468e-08
8.80625e-08
-3.88859e-08
4.07607e-08
1.13219e-07
-4.52719e-08
3.64865e-08
1.34211e-07
-5.12728e-08
3.05723e-08
1.51855e-07
-5.65471e-08
2.40511e-08
1.64792e-07
-6.08419e-08
1.71138e-08
1.74429e-07
-6.40862e-08
9.96408e-09
1.80662e-07
-6.62441e-08
2.71424e-09
1.83828e-07
-6.73612e-08
-4.51128e-09
1.83923e-07
-6.74375e-08
-1.15869e-08
1.80945e-07
-6.64725e-08
-1.83989e-08
1.74898e-07
-6.44653e-08
-2.47362e-08
1.65446e-07
-6.1373e-08
-3.04041e-08
1.52715e-07
-5.72351e-08
-3.43557e-08
1.35312e-07
-5.21341e-08
-3.57473e-08
1.14678e-07
-4.63415e-08
-3.26743e-08
9.00016e-08
-4.02176e-08
-2.72859e-08
7.08961e-08
-3.47495e-08
-2.0736e-08
5.63414e-08
-3.0122e-08
-1.39667e-08
4.68461e-08
-2.65313e-08
-7.21984e-09
4.0848e-08
-2.38569e-08
-6.8053e-10
3.75497e-08
-2.17824e-08
5.04266e-09
3.61371e-08
-1.96046e-08
7.38004e-09
3.53607e-08
-1.52979e-08
3.23865e-08
-4.41195e-09
-5.64673e-09
2.79592e-08
-1.84157e-09
-2.83276e-09
3.06548e-08
-1.09818e-08
2.93263e-09
3.17673e-08
-1.45473e-08
9.39419e-09
3.35843e-08
-1.61945e-08
1.60239e-08
3.68904e-08
-1.76719e-08
2.29371e-08
4.1978e-08
-1.96299e-08
3.05141e-08
4.92402e-08
-2.23939e-08
3.90756e-08
5.95515e-08
-2.61526e-08
4.84113e-08
7.42847e-08
-3.09452e-08
5.69081e-08
9.65177e-08
-3.68523e-08
6.18913e-08
1.26646e-07
-4.35665e-08
5.84516e-08
1.67943e-07
-5.12847e-08
5.11039e-08
1.99993e-07
-5.84336e-08
4.17991e-08
2.25955e-07
-6.4796e-08
3.22727e-08
2.44316e-07
-6.99972e-08
2.25248e-08
2.58037e-07
-7.386e-08
1.26815e-08
2.66891e-07
-7.63854e-08
2.77898e-09
2.71414e-07
-7.76841e-08
-7.10015e-09
2.71567e-07
-7.77652e-08
-1.68711e-08
2.67343e-07
-7.66277e-08
-2.6493e-08
2.58781e-07
-7.42606e-08
-3.58235e-08
2.45332e-07
-7.05558e-08
-4.48486e-08
2.27255e-07
-6.55151e-08
-5.18e-08
2.01594e-07
-5.93306e-08
-5.47248e-08
1.70003e-07
-5.23995e-08
-4.90569e-08
1.29293e-07
-4.49593e-08
-3.98093e-08
1.00272e-07
-3.86233e-08
-2.94648e-08
7.91784e-08
-3.31814e-08
-1.95666e-08
6.58833e-08
-2.89354e-08
-1.03471e-08
5.73568e-08
-2.57283e-08
-1.84325e-09
5.22987e-08
-2.32528e-08
5.34509e-09
4.96707e-08
-2.0722e-08
8.3656e-09
4.81714e-08
-1.58312e-08
4.43134e-08
-3.56127e-09
-5.99084e-09
3.5004e-08
-1.0539e-09
-2.34483e-09
3.82374e-08
-1.12286e-08
4.75935e-09
3.99004e-08
-1.52373e-08
1.27884e-08
4.26561e-08
-1.71009e-08
2.11841e-08
4.73121e-08
-1.88174e-08
3.02197e-08
5.40765e-08
-2.11341e-08
4.05977e-08
6.32656e-08
-2.44033e-08
5.31665e-08
7.58044e-08
-2.88217e-08
6.80528e-08
9.37027e-08
-3.43045e-08
8.31884e-08
1.22313e-07
-4.0931e-08
9.32186e-08
1.6456e-07
-4.79442e-08
8.63308e-08
2.31836e-07
-5.70056e-08
7.3469e-08
2.78205e-07
-6.5351e-08
5.87274e-08
3.13891e-07
-7.31944e-08
4.47096e-08
3.38054e-07
-7.97211e-08
3.07758e-08
3.56331e-07
-8.43599e-08
1.68613e-08
3.68111e-07
-8.73058e-08
2.91002e-09
3.74173e-07
-8.88073e-08
-1.10219e-08
3.74392e-07
-8.88934e-08
-2.48753e-08
3.68759e-07
-8.75625e-08
-3.86984e-08
3.57386e-07
-8.47821e-08
-5.25274e-08
3.39469e-07
-8.03079e-08
-6.6972e-08
3.15645e-07
-7.3945e-08
-7.93602e-08
2.80267e-07
-6.62855e-08
-8.5586e-08
2.34402e-07
-5.81738e-08
-7.46124e-08
1.67722e-07
-4.94022e-08
-5.85927e-08
1.27062e-07
-4.28103e-08
-4.24714e-08
9.97527e-08
-3.66956e-08
-2.82234e-08
8.34604e-08
-3.1825e-08
-1.57586e-08
7.29268e-08
-2.80347e-08
-4.66056e-09
6.63177e-08
-2.51171e-08
4.58764e-09
6.26003e-08
-2.21778e-08
8.86423e-09
6.04867e-08
-1.65919e-08
5.59097e-08
-2.73209e-09
-6.07846e-09
4.13834e-08
-3.0093e-10
-1.13303e-09
4.49974e-08
-1.17055e-08
7.78142e-09
4.72595e-08
-1.62736e-08
1.78364e-08
5.1014e-08
-1.84129e-08
2.8399e-08
5.71727e-08
-2.04232e-08
3.99078e-08
6.57335e-08
-2.31659e-08
5.34893e-08
7.66855e-08
-2.70014e-08
7.09935e-08
9.04056e-08
-3.21054e-08
9.37024e-08
1.09126e-07
-3.81325e-08
1.19887e-07
1.41091e-07
-4.49618e-08
1.41113e-07
1.94046e-07
-5.0713e-08
1.26763e-07
3.06815e-07
-6.06293e-08
1.04336e-07
3.7032e-07
-6.96874e-08
8.16204e-08
4.16207e-07
-7.95998e-08
6.16285e-08
4.46228e-07
-8.81815e-08
4.21075e-08
4.69479e-07
-9.36272e-08
2.26473e-08
4.84555e-07
-9.69837e-08
3.11957e-09
4.9238e-07
-9.86798e-08
-1.63979e-08
4.92681e-07
-9.87712e-08
-3.58244e-08
4.85441e-07
-9.72554e-08
-5.52791e-08
4.70913e-07
-9.40718e-08
-7.51311e-08
4.4812e-07
-8.8799e-08
-9.7578e-08
4.18477e-07
-8.03854e-08
-1.19469e-07
3.7283e-07
-7.06707e-08
-1.3298e-07
3.09793e-07
-6.18805e-08
-1.10397e-07
1.97403e-07
-5.2264e-08
-8.32976e-08
1.46956e-07
-4.69932e-08
-5.91587e-08
1.16337e-07
-4.07234e-08
-3.9572e-08
9.92729e-08
-3.53993e-08
-2.33175e-08
8.77026e-08
-3.10304e-08
-9.05958e-09
7.96953e-08
-2.76354e-08
2.91005e-09
7.4835e-08
-2.42043e-08
9.07298e-09
7.20603e-08
-1.77366e-08
6.68765e-08
-1.89384e-09
-5.97845e-09
4.6767e-08
5.94852e-10
7.65735e-10
5.06959e-08
-1.24426e-08
1.21766e-08
5.35845e-08
-1.77359e-08
2.48762e-08
5.85306e-08
-2.02162e-08
3.80886e-08
6.65476e-08
-2.25873e-08
5.22476e-08
7.74105e-08
-2.58359e-08
6.86857e-08
9.05682e-08
-3.03208e-08
9.04866e-08
1.04813e-07
-3.62087e-08
1.21404e-07
1.20834e-07
-4.26254e-08
1.65531e-07
1.46555e-07
-4.9591e-08
2.12053e-07
1.96151e-07
-4.86271e-08
1.8232e-07
3.9315e-07
-5.66015e-08
1.45367e-07
4.73362e-07
-6.60882e-08
1.12323e-07
5.29146e-07
-7.98962e-08
8.50069e-08
5.65526e-07
-9.19817e-08
5.80777e-08
5.94634e-07
-9.8226e-08
3.08681e-08
6.13726e-07
-1.01961e-07
3.43227e-09
6.23659e-07
-1.03843e-07
-2.40083e-08
6.24061e-07
-1.03939e-07
-5.12323e-08
6.14912e-07
-1.02247e-07
-7.81844e-08
5.96557e-07
-9.86919e-08
-1.05487e-07
5.68055e-07
-9.26325e-08
-1.38411e-07
5.32125e-07
-8.07243e-08
-1.74878e-07
4.76439e-07
-6.71418e-08
-2.03531e-07
3.96461e-07
-5.80148e-08
-1.54927e-07
1.99088e-07
-5.02885e-08
-1.1011e-07
1.53876e-07
-5.17374e-08
-7.75842e-08
1.29221e-07
-4.54098e-08
-5.31837e-08
1.14711e-07
-3.98391e-08
-3.32817e-08
1.02644e-07
-3.48433e-08
-1.54055e-08
9.27435e-08
-3.09244e-08
1.52625e-11
8.63068e-08
-2.68926e-08
8.96426e-09
8.2427e-08
-1.93156e-08
7.67953e-08
-9.54536e-10
-5.69617e-09
5.08239e-08
1.6392e-09
3.42602e-09
5.50198e-08
-1.34461e-08
1.80787e-08
5.85923e-08
-1.96605e-08
3.41762e-08
6.49829e-08
-2.25498e-08
5.06485e-08
7.54115e-08
-2.53362e-08
6.75545e-08
8.96313e-08
-2.91269e-08
8.5735e-08
1.06682e-07
-3.42938e-08
1.08728e-07
1.22797e-07
-4.09767e-08
1.43466e-07
1.34456e-07
-4.83593e-08
2.1501e-07
1.29032e-07
-5.40218e-08
3.1293e-07
1.51408e-07
-5.31776e-08
2.51574e-07
4.99955e-07
-4.54484e-08
1.9332e-07
5.82858e-07
-5.12434e-08
1.4924e-07
6.43849e-07
-7.06223e-08
1.13964e-07
6.88123e-07
-8.73213e-08
7.81996e-08
7.24056e-07
-9.36577e-08
4.13332e-08
7.4859e-07
-9.79971e-08
3.8793e-09
7.6127e-07
-1.00157e-07
-3.35991e-08
7.61791e-07
-1.00252e-07
-7.05464e-08
7.50136e-07
-9.82771e-08
-1.06468e-07
7.26586e-07
-9.41079e-08
-1.41961e-07
6.91502e-07
-8.79542e-08
-1.86262e-07
6.47847e-07
-7.14204e-08
-2.44336e-07
5.86808e-07
-5.22949e-08
-3.04126e-07
5.03211e-07
-4.69601e-08
-2.02933e-07
1.53214e-07
-5.53188e-08
-1.31989e-07
1.39371e-07
-5.64387e-08
-9.52181e-08
1.43841e-07
-5.13907e-08
-6.88998e-08
1.33441e-07
-4.50479e-08
-4.61742e-08
1.19386e-07
-3.94679e-08
-2.41532e-08
1.05782e-07
-3.50594e-08
-3.94922e-09
9.65525e-08
-3.04497e-08
8.55962e-09
9.12357e-08
-2.13175e-08
8.52918e-08
6.31766e-11
-5.03031e-09
5.31193e-08
2.73491e-09
7.27864e-09
5.74624e-08
-1.47516e-08
2.62987e-08
6.16447e-08
-2.20724e-08
4.73252e-08
6.94395e-08
-2.54831e-08
6.90117e-08
8.25302e-08
-2.88051e-08
9.05913e-08
1.01335e-07
-3.32829e-08
1.11208e-07
1.25376e-07
-3.93113e-08
1.30795e-07
1.51177e-07
-4.79666e-08
1.47093e-07
1.74934e-07
-5.6776e-08
2.01439e-07
1.47159e-07
-7.24727e-08
4.34641e-07
-8.1794e-08
3.4339e-07
6.04245e-07
-1.30393e-08
2.6146e-07
6.70966e-07
-6.17749e-09
2.064e-07
7.23499e-07
-2.45898e-08
1.6093e-07
7.77007e-07
-4.34139e-08
1.1082e-07
8.19337e-07
-4.51701e-08
5.80093e-08
8.49124e-07
-4.77234e-08
4.51798e-09
8.64091e-07
-4.93298e-08
-4.90086e-08
8.64712e-07
-4.93947e-08
-1.01947e-07
8.50993e-07
-4.79182e-08
-1.52349e-07
8.22453e-07
-4.54648e-08
-1.98321e-07
7.81348e-07
-4.38738e-08
-2.54196e-07
7.28896e-07
-2.51749e-08
-3.37456e-07
6.77008e-07
-6.94083e-09
-4.28223e-07
6.08469e-07
-1.44908e-08
-1.90118e-07
-8.48912e-08
-1.34152e-07
1.57594e-07
-7.41894e-08
-1.16844e-07
1.86071e-07
-5.95387e-08
-9.33436e-08
1.62368e-07
-5.24276e-08
-6.69106e-08
1.38274e-07
-4.53204e-08
-3.84651e-08
1.17711e-07
-4.03743e-08
-1.11218e-08
1.04287e-07
-3.50778e-08
7.11641e-09
9.70681e-08
-2.40707e-08
9.0778e-08
1.63023e-09
-4.1464e-09
5.34199e-08
3.84578e-09
1.19211e-08
5.77291e-08
-1.63342e-08
3.61774e-08
6.23206e-08
-2.49322e-08
6.34709e-08
7.11253e-08
-2.89794e-08
9.24469e-08
8.64842e-08
-3.29301e-08
1.21291e-07
1.10363e-07
-3.7873e-08
1.44273e-07
1.46233e-07
-4.38384e-08
1.46262e-07
1.98735e-07
-4.95468e-08
1.12856e-07
2.75097e-07
-6.67573e-08
3.73224e-07
-1.13209e-07
1.94919e-07
3.27278e-07
8.20484e-08
2.60952e-07
5.55803e-07
4.91295e-08
2.57496e-07
6.85352e-07
4.16033e-08
2.10598e-07
7.80892e-07
4.30127e-08
1.46044e-07
8.44523e-07
3.93681e-08
7.64501e-08
8.8438e-07
3.43368e-08
5.33656e-09
9.03429e-07
3.17761e-08
-6.58187e-08
9.04088e-07
3.17789e-08
-1.3556e-07
8.86396e-07
3.43379e-08
-2.00473e-07
8.47989e-07
3.93773e-08
-2.48209e-07
7.86026e-07
4.30588e-08
-2.53603e-07
6.92527e-07
4.17631e-08
-1.90785e-07
5.6518e-07
4.90103e-08
3.37022e-07
8.06628e-08
-1.09088e-07
3.76695e-07
-1.10013e-07
-1.36521e-07
2.82578e-07
-6.90734e-08
-1.27527e-07
2.08106e-07
-5.47318e-08
-9.62967e-08
1.58139e-07
-5.10957e-08
-5.81548e-08
1.26175e-07
-4.66058e-08
-2.10596e-08
1.08051e-07
-4.08595e-08
4.76861e-09
9.89053e-08
-2.76653e-08
9.25306e-08
3.01599e-09
-2.76777e-09
5.12585e-08
4.92918e-09
1.77566e-08
5.5319e-08
-1.81142e-08
4.87129e-08
5.94937e-08
-2.81294e-08
8.5411e-08
6.74533e-08
-3.30261e-08
1.28865e-07
8.11075e-08
-3.80771e-08
1.82198e-07
1.01579e-07
-4.45494e-08
2.50714e-07
1.3003e-07
-5.23131e-08
3.41065e-07
1.66603e-07
-5.82189e-08
4.66363e-07
2.09664e-07
-5.98652e-08
6.2164e-07
2.59669e-07
-4.17219e-08
4.86247e-07
8.6492e-08
4.89007e-08
4.91191e-07
2.31906e-07
9.04275e-08
4.69541e-07
4.18102e-07
1.59352e-07
4.00142e-07
5.37072e-07
2.17678e-07
3.04748e-07
6.25789e-07
2.50497e-07
2.02726e-07
6.84444e-07
2.621e-07
1.03262e-07
7.20918e-07
2.62927e-07
6.17083e-09
7.38419e-07
2.621e-07
-9.08983e-08
7.39003e-07
2.62154e-07
-1.90289e-07
7.22694e-07
2.63093e-07
-2.92194e-07
6.87471e-07
2.62424e-07
-3.8748e-07
6.3016e-07
2.51152e-07
-4.56832e-07
5.42855e-07
2.19024e-07
-4.78158e-07
4.24922e-07
1.61583e-07
-4.75351e-07
2.39911e-07
9.43033e-08
-6.16082e-07
8.81409e-08
5.25901e-08
-4.60711e-07
2.62445e-07
-4.11209e-08
-3.31009e-07
2.15724e-07
-6.28479e-08
-2.33712e-07
1.74991e-07
-6.41814e-08
-1.55736e-07
1.41211e-07
-6.1047e-08
-9.10362e-08
1.16747e-07
-5.5272e-08
-3.68106e-08
1.01963e-07
-4.81368e-08
-3.35679e-10
9.45462e-08
-3.21158e-08
8.80603e-08
4.13465e-09
-1.78611e-09
4.70619e-08
5.98272e-09
2.2583e-08
5.07171e-08
-1.97672e-08
5.90833e-08
5.41507e-08
-3.11572e-08
1.0285e-07
6.05568e-08
-3.68701e-08
1.556e-07
7.12662e-08
-4.29092e-08
2.21309e-07
8.65663e-08
-5.06958e-08
3.05103e-07
1.06035e-07
-5.97993e-08
4.10378e-07
1.28203e-07
-6.68744e-08
5.393e-07
1.48183e-07
-6.7441e-08
6.85646e-07
1.63975e-07
-5.06514e-08
6.81909e-07
1.0604e-07
-1.58118e-08
6.65622e-07
1.93642e-07
5.45511e-08
6.05058e-07
3.06653e-07
1.72012e-07
4.98981e-07
3.9155e-07
2.516e-07
3.74111e-07
4.5651e-07
2.94148e-07
2.46753e-07
4.98918e-07
3.12885e-07
1.24687e-07
5.25399e-07
3.17585e-07
6.83743e-09
5.38083e-07
3.18186e-07
-1.10969e-07
5.38562e-07
3.18248e-07
-2.32898e-07
5.26841e-07
3.17781e-07
-3.60046e-07
5.01337e-07
3.13282e-07
-4.84738e-07
4.59904e-07
2.94947e-07
-5.91005e-07
3.9587e-07
2.53252e-07
-6.52512e-07
3.11612e-07
1.74818e-07
-6.70651e-07
1.98814e-07
5.92367e-08
-6.78432e-07
1.08705e-07
-1.27828e-08
-5.3321e-07
1.67883e-07
-5.06606e-08
-4.00412e-07
1.53882e-07
-7.09553e-08
-2.87655e-07
1.35953e-07
-7.37205e-08
-1.93031e-07
1.16472e-07
-6.98851e-08
-1.1389e-07
1.00797e-07
-6.3191e-08
-4.78428e-08
9.07248e-08
-5.481e-08
-2.53201e-09
8.55139e-08
-3.62785e-08
7.98731e-08
5.65519e-09
-1.02871e-09
4.11202e-08
6.97042e-09
2.65367e-08
4.4302e-08
-2.11503e-08
6.761e-08
4.68455e-08
-3.37682e-08
1.16894e-07
5.14812e-08
-4.02089e-08
1.76236e-07
5.90816e-08
-4.71567e-08
2.49604e-07
6.9523e-08
-5.63252e-08
3.41126e-07
8.19379e-08
-6.74244e-08
4.52058e-07
9.51132e-08
-7.78428e-08
5.77924e-07
1.05338e-07
-8.3021e-08
7.02073e-07
1.14451e-07
-7.46254e-08
7.5103e-07
1.03201e-07
-4.61169e-08
7.57641e-07
1.53754e-07
3.32775e-08
6.86592e-07
2.21039e-07
1.56663e-07
5.64179e-07
2.76328e-07
2.37635e-07
4.19608e-07
3.19389e-07
2.81691e-07
2.75277e-07
3.47434e-07
2.95815e-07
1.38578e-07
3.65161e-07
2.96937e-07
7.35138e-09
3.73692e-07
2.95617e-07
-1.23824e-07
3.74093e-07
2.95645e-07
-2.60367e-07
3.66356e-07
2.97029e-07
-4.04475e-07
3.49401e-07
2.96044e-07
-5.48919e-07
3.2208e-07
2.82268e-07
-6.71767e-07
2.79666e-07
2.39053e-07
-7.44209e-07
2.24803e-07
1.59251e-07
-7.40923e-07
1.5775e-07
3.7777e-08
-6.95269e-07
1.0642e-07
-4.33691e-08
-5.71283e-07
1.18534e-07
-7.46366e-08
-4.41399e-07
1.10728e-07
-8.67299e-08
-3.22474e-07
1.02259e-07
-8.52309e-08
-2.19011e-07
9.14808e-08
-7.84722e-08
-1.305e-07
8.24145e-08
-7.01276e-08
-5.58293e-08
7.64318e-08
-6.03778e-08
-3.99386e-09
7.32661e-08
-3.95877e-08
6.86262e-08
7.25301e-09
-7.23944e-10
3.40198e-08
7.82437e-09
2.91492e-08
3.6659e-08
-2.22301e-08
7.34246e-08
3.84223e-08
-3.58522e-08
1.2623e-07
4.15541e-08
-4.28784e-08
1.89212e-07
4.66389e-08
-5.0539e-08
2.66071e-07
5.34523e-08
-6.07886e-08
3.60204e-07
6.12367e-08
-7.34318e-08
4.7209e-07
6.93499e-08
-8.61222e-08
5.95465e-07
7.58835e-08
-9.3921e-08
7.14613e-07
8.38201e-08
-8.85164e-08
7.90342e-07
8.80579e-08
-6.05863e-08
8.09432e-07
1.1972e-07
1.49447e-08
7.33247e-07
1.6129e-07
1.35934e-07
6.02068e-07
1.96671e-07
2.10836e-07
4.46878e-07
2.24532e-07
2.50047e-07
2.92864e-07
2.43054e-07
2.58394e-07
1.47327e-07
2.54919e-07
2.5578e-07
7.75601e-09
2.60715e-07
2.52548e-07
-1.31774e-07
2.61084e-07
2.52538e-07
-2.77186e-07
2.56012e-07
2.55757e-07
-4.31037e-07
2.44826e-07
2.58426e-07
-5.86207e-07
2.26906e-07
2.50344e-07
-7.18009e-07
1.99551e-07
2.11917e-07
-7.95905e-07
1.64518e-07
1.38181e-07
-7.80588e-07
1.23261e-07
1.91722e-08
-7.076e-07
9.14531e-08
-5.80206e-08
-5.8822e-07
8.78605e-08
-8.87058e-08
-4.60518e-07
8.08867e-08
-9.78613e-08
-3.40086e-07
7.57633e-08
-9.39358e-08
-2.33063e-07
6.96208e-08
-8.51633e-08
-1.39722e-07
6.45607e-08
-7.54875e-08
-5.99646e-08
6.12683e-08
-6.45937e-08
-4.21043e-09
5.94876e-08
-4.19757e-08
5.58234e-08
8.59231e-09
-6.63482e-10
2.61649e-08
8.51833e-09
3.08288e-08
2.8213e-08
-2.30463e-08
7.73253e-08
2.93505e-08
-3.74246e-08
1.32438e-07
3.13281e-08
-4.48868e-08
1.97588e-07
3.4559e-08
-5.30699e-08
2.76259e-07
3.88891e-08
-6.41078e-08
3.71498e-07
4.38682e-08
-7.78705e-08
4.83653e-07
4.93038e-08
-9.21088e-08
6.06695e-07
5.44519e-08
-1.0161e-07
7.26844e-07
6.16631e-08
-9.79921e-08
8.15365e-07
6.9586e-08
-7.0049e-08
8.40998e-07
9.03913e-08
3.69535e-09
7.62752e-07
1.16528e-07
1.23007e-07
6.26402e-07
1.39357e-07
1.93665e-07
4.64512e-07
1.57506e-07
2.28916e-07
3.04298e-07
1.69921e-07
2.33347e-07
1.53074e-07
1.77999e-07
2.28144e-07
8.12313e-09
1.82051e-07
2.23614e-07
-1.36802e-07
1.82426e-07
2.23583e-07
-2.87949e-07
1.79103e-07
2.28056e-07
-4.4808e-07
1.71691e-07
2.33265e-07
-6.10063e-07
1.59843e-07
2.29046e-07
-7.47191e-07
1.42136e-07
1.94543e-07
-8.273e-07
1.19591e-07
1.25037e-07
-8.05671e-07
9.36285e-08
8.00324e-09
-7.19544e-07
7.294e-08
-6.76145e-08
-5.98851e-07
6.54637e-08
-9.82958e-08
-4.71146e-07
5.89119e-08
-1.05731e-07
-3.4994e-07
5.47841e-08
-1.00226e-07
-2.41055e-07
5.08021e-08
-9.00665e-08
-1.44921e-07
4.78195e-08
-7.93931e-08
-6.20402e-08
4.60113e-08
-6.76233e-08
-3.93973e-09
4.50226e-08
-4.36354e-08
4.22708e-08
9.61294e-09
-7.66871e-10
1.79165e-08
9.01532e-09
3.17748e-08
1.93192e-08
-2.36478e-08
7.96931e-08
1.99749e-08
-3.85427e-08
1.36225e-07
2.10924e-08
-4.62967e-08
2.02634e-07
2.29683e-08
-5.48174e-08
2.82306e-07
2.55677e-08
-6.63508e-08
3.78233e-07
2.87369e-08
-8.07963e-08
4.90931e-07
3.25221e-08
-9.59154e-08
6.14935e-07
3.67797e-08
-1.06332e-07
7.37267e-07
4.28463e-08
-1.03515e-07
8.32138e-07
5.03903e-08
-7.56755e-08
8.61522e-07
6.37161e-08
-2.70827e-09
7.81922e-07
7.94162e-08
1.16712e-07
6.42255e-07
9.34198e-08
1.85604e-07
4.76187e-07
1.04661e-07
2.18914e-07
3.12011e-07
1.12649e-07
2.21448e-07
1.57046e-07
1.17958e-07
2.15006e-07
8.49007e-09
1.20744e-07
2.09863e-07
-1.40063e-07
1.21153e-07
2.09826e-07
-2.95016e-07
1.19158e-07
2.14898e-07
-4.59211e-07
1.14558e-07
2.21328e-07
-6.25506e-07
1.07155e-07
2.18984e-07
-7.66106e-07
9.63338e-08
1.86401e-07
-8.47752e-07
8.25753e-08
1.18661e-07
-8.22302e-07
6.69866e-08
1.19215e-09
-7.29691e-07
5.36706e-08
-7.33419e-08
-6.06605e-07
4.6321e-08
-1.03943e-07
-4.77658e-07
4.05944e-08
-1.10629e-07
-3.55516e-07
3.69283e-08
-1.04286e-07
-2.45397e-07
3.40204e-08
-9.33376e-08
-1.476e-07
3.20669e-08
-8.20437e-08
-6.2881e-08
3.09869e-08
-6.96948e-08
-3.48453e-09
3.03998e-08
-4.47736e-08
2.85313e-08
1.0255e-08
-8.83656e-10
9.50493e-09
9.29521e-09
3.2259e-08
1.02383e-08
-2.40618e-08
8.10137e-08
1.04837e-08
-3.92635e-08
1.38398e-07
1.08922e-08
-4.71842e-08
2.056e-07
1.16575e-08
-5.5891e-08
2.85992e-07
1.28669e-08
-6.76911e-08
3.82598e-07
1.46283e-08
-8.24975e-08
4.96068e-07
1.71127e-08
-9.80607e-08
6.21262e-07
2.05032e-08
-1.08918e-07
7.45412e-07
2.51214e-08
-1.06425e-07
8.43451e-07
3.09433e-08
-7.85919e-08
8.74525e-07
3.80894e-08
-5.44697e-09
7.94092e-07
4.53817e-08
1.14468e-07
6.52382e-07
5.2013e-08
1.83117e-07
4.83779e-07
5.73952e-08
2.15868e-07
3.17124e-07
6.15266e-08
2.17777e-07
1.59774e-07
6.44034e-08
2.10904e-07
8.88803e-09
6.60827e-08
2.05548e-07
-1.42022e-07
6.65508e-08
2.05513e-07
-2.9944e-07
6.57765e-08
2.10799e-07
-4.66242e-07
6.37e-08
2.1766e-07
-6.35234e-07
6.02111e-08
2.15936e-07
-7.78046e-07
5.52473e-08
1.83898e-07
-8.60681e-07
4.8806e-08
1.16404e-07
-8.33567e-07
4.14856e-08
-1.61237e-09
-7.37716e-07
3.41542e-08
-7.6335e-08
-6.1267e-07
2.82578e-08
-1.06982e-07
-4.82335e-07
2.36476e-08
-1.13389e-07
-3.59157e-07
2.04039e-08
-1.06654e-07
-2.48019e-07
1.81947e-08
-9.53122e-08
-1.49111e-07
1.68473e-08
-8.36881e-08
-6.3275e-08
1.61645e-08
-7.1014e-08
-3.14895e-09
1.58097e-08
-4.5536e-08
1.48155e-08
1.05668e-08
-9.71454e-10
1.12874e-09
9.34765e-09
3.23869e-08
1.18677e-09
-2.43068e-08
8.1476e-08
1.0171e-09
-3.96225e-08
1.39253e-07
7.10469e-10
-4.75955e-08
2.06913e-07
3.50188e-10
-5.63527e-08
2.87868e-07
1.30618e-10
-6.82185e-08
3.85181e-07
4.27238e-10
-8.31121e-08
4.9953e-07
1.53585e-09
-9.87721e-08
6.25761e-07
3.99357e-09
-1.09721e-07
7.50961e-07
7.20938e-09
-1.07288e-07
8.49856e-07
1.15306e-08
-7.94824e-08
8.81105e-07
1.30718e-08
-6.23113e-09
8.00133e-07
1.21956e-08
1.14158e-07
6.5746e-07
1.15318e-08
1.83154e-07
4.87746e-07
1.10439e-08
2.16065e-07
3.1993e-07
1.13039e-08
2.18039e-07
1.61413e-07
1.17472e-08
2.11174e-07
9.34115e-09
1.23359e-08
2.05818e-07
-1.42788e-07
1.28942e-08
2.05786e-07
-3.01474e-07
1.33863e-08
2.11076e-07
-4.69595e-07
1.3893e-08
2.17928e-07
-6.39908e-07
1.43869e-08
2.16137e-07
-7.83902e-07
1.53188e-08
1.83922e-07
-8.67265e-07
1.61042e-08
1.16065e-07
-8.40087e-07
1.67176e-08
-2.41023e-09
-7.43342e-07
1.47522e-08
-7.73433e-08
-6.1717e-07
1.00954e-08
-1.08009e-07
-4.85698e-07
6.56214e-09
-1.14386e-07
-3.61526e-07
3.81569e-09
-1.07584e-07
-2.49545e-07
2.37963e-09
-9.61657e-08
-1.49923e-07
1.68966e-09
-8.44645e-08
-6.34973e-08
1.43431e-09
-7.16955e-08
-3.01918e-09
1.33228e-09
-4.60006e-08
1.22693e-09
1.05694e-08
-1.0337e-09
-7.0103e-09
9.17274e-09
3.21543e-08
-7.61306e-09
-2.43881e-08
8.10736e-08
-8.27585e-09
-3.96264e-08
1.38782e-07
-9.45732e-09
-4.75402e-08
2.06556e-07
-1.12063e-08
-5.62184e-08
2.87881e-07
-1.32319e-08
-6.79622e-08
3.85891e-07
-1.49089e-08
-8.26741e-08
5.01221e-07
-1.5701e-08
-9.80931e-08
6.28399e-07
-1.43911e-08
-1.08793e-07
7.54022e-07
-1.22396e-08
-1.06174e-07
8.51593e-07
-7.58586e-09
-7.84545e-08
8.81379e-07
-1.15209e-08
-5.19246e-09
8.00049e-07
-2.1905e-08
1.1543e-07
6.57453e-07
-3.10977e-08
1.85225e-07
4.88058e-07
-3.84868e-08
2.18926e-07
3.20421e-07
-4.26553e-08
2.21596e-07
1.6197e-07
-4.49472e-08
2.15145e-07
9.87451e-09
-4.55524e-08
2.09984e-07
-1.42319e-07
-4.48613e-08
2.09949e-07
-3.01059e-07
-4.29118e-08
2.15038e-07
-4.69197e-07
-3.94321e-08
2.21463e-07
-6.39458e-07
-3.4305e-08
2.18953e-07
-7.83671e-07
-2.63807e-08
1.85912e-07
-8.67677e-07
-1.70957e-08
1.17206e-07
-8.42099e-07
-7.23077e-09
-1.62976e-09
-7.46681e-07
-4.13482e-09
-7.65317e-08
-6.20073e-07
-9.3827e-09
-1.07129e-07
-4.87661e-07
-1.21529e-08
-1.13698e-07
-3.62542e-07
-1.41669e-08
-1.07136e-07
-2.49923e-07
-1.43008e-08
-9.59392e-08
-1.50004e-07
-1.38269e-08
-8.44019e-08
-6.35276e-08
-1.32818e-08
-7.17604e-08
-3.08058e-09
-1.29329e-08
-4.61819e-08
-1.21133e-08
1.02596e-08
-1.12053e-09
-1.46648e-08
8.77502e-09
3.14524e-08
-1.58904e-08
-2.42956e-08
7.9609e-08
-1.71788e-08
-3.92537e-08
1.36649e-07
-1.95075e-08
-4.69903e-08
2.04013e-07
-2.31229e-08
-5.54474e-08
2.85353e-07
-2.77177e-08
-6.68537e-08
3.83969e-07
-3.243e-08
-8.10954e-08
5.00486e-07
-3.63313e-08
-9.58865e-08
6.28969e-07
-3.69498e-08
-1.05924e-07
7.5508e-07
-3.56367e-08
-1.02714e-07
8.48594e-07
-2.60709e-08
-7.50293e-08
8.74551e-07
-3.58213e-08
-1.65634e-09
7.92981e-07
-5.99316e-08
1.19597e-07
6.51656e-07
-8.10116e-08
1.91239e-07
4.84259e-07
-9.79219e-08
2.26831e-07
3.18337e-07
-1.08032e-07
2.313e-07
1.61351e-07
-1.13919e-07
2.25957e-07
1.0536e-08
-1.16056e-07
2.21319e-07
-1.40423e-07
-1.15159e-07
2.21256e-07
-2.9784e-07
-1.11259e-07
2.25765e-07
-4.64503e-07
-1.03787e-07
2.31018e-07
-6.33113e-07
-9.23385e-08
2.26643e-07
-7.76454e-07
-7.46823e-08
1.91643e-07
-8.61089e-07
-5.34789e-08
1.21018e-07
-8.396e-07
-3.0367e-08
1.6471e-09
-7.48176e-07
-2.20829e-08
-7.34759e-08
-6.21109e-07
-3.24144e-08
-1.04036e-07
-4.87498e-07
-3.46e-08
-1.11164e-07
-3.61387e-07
-3.50719e-08
-1.05206e-07
-2.48444e-07
-3.26845e-08
-9.45596e-08
-1.48849e-07
-2.99888e-08
-8.34329e-08
-6.30709e-08
-2.79164e-08
-7.11434e-08
-3.22824e-09
-2.67419e-08
-4.60336e-08
-2.495e-08
9.60845e-09
-1.36283e-09
-2.14636e-08
8.16161e-09
3.00231e-08
-2.32708e-08
-2.40054e-08
7.66136e-08
-2.5305e-08
-3.84643e-08
1.32065e-07
-2.90654e-08
-4.58933e-08
1.9802e-07
-3.51165e-08
-5.39619e-08
2.78402e-07
-4.33332e-08
-6.47659e-08
3.7699e-07
-5.28763e-08
-7.81423e-08
4.94833e-07
-6.2467e-08
-9.1707e-08
6.26119e-07
-6.78495e-08
-1.00386e-07
7.54859e-07
-6.86763e-08
-9.57002e-08
8.39559e-07
-4.2428e-08
-6.83435e-08
8.57441e-07
-5.98953e-08
6.19164e-09
7.75504e-07
-1.06121e-07
1.28127e-07
6.37169e-07
-1.45936e-07
2.03259e-07
4.74429e-07
-1.77357e-07
2.42175e-07
3.12601e-07
-1.96316e-07
2.50112e-07
1.59105e-07
-2.0742e-07
2.46998e-07
1.13816e-08
-2.11761e-07
2.43429e-07
-1.36532e-07
-2.1054e-07
2.43296e-07
-2.90613e-07
-2.03766e-07
2.46587e-07
-4.53447e-07
-1.90408e-07
2.49455e-07
-6.17831e-07
-1.69418e-07
2.41464e-07
-7.58714e-07
-1.3682e-07
2.0302e-07
-8.44355e-07
-9.67105e-08
1.28873e-07
-8.3131e-07
-5.23267e-08
8.91481e-09
-7.48462e-07
-3.76167e-08
-6.73147e-08
-6.18821e-07
-6.44659e-08
-9.75889e-08
-4.8263e-07
-6.46811e-08
-1.0611e-07
-3.5555e-07
-6.07869e-08
-1.01365e-07
-2.43138e-07
-5.33246e-08
-9.1772e-08
-1.45124e-07
-4.66281e-08
-8.13744e-08
-6.13596e-08
-4.19873e-08
-6.96934e-08
-3.16104e-09
-3.94957e-08
-4.54448e-08
-3.66733e-08
8.56227e-09
-1.81052e-09
-2.70179e-08
7.36482e-09
2.773e-08
-2.93267e-08
-2.34847e-08
7.18153e-08
-3.21613e-08
-3.72291e-08
1.24479e-07
-3.75043e-08
-4.4225e-08
1.87497e-07
-4.63853e-08
-5.17487e-08
2.65036e-07
-5.91576e-08
-6.17147e-08
3.6166e-07
-7.55998e-08
-7.39004e-08
4.79652e-07
-9.47469e-08
-8.57125e-08
6.1571e-07
-1.11442e-07
-9.2466e-08
7.53986e-07
-1.21209e-07
-8.57425e-08
8.19699e-07
-5.11171e-08
-5.70235e-08
8.21574e-07
-8.18383e-08
2.00672e-08
7.41364e-07
-1.67899e-07
1.41988e-07
6.09849e-07
-2.3542e-07
2.20999e-07
4.55762e-07
-2.86693e-07
2.63423e-07
3.01444e-07
-3.18126e-07
2.76128e-07
1.5442e-07
-3.36379e-07
2.75983e-07
1.25437e-08
-3.43752e-07
2.73867e-07
-1.29557e-07
-3.42044e-07
2.73604e-07
-2.77295e-07
-3.31204e-07
2.75176e-07
-4.32891e-07
-3.09614e-07
2.74802e-07
-5.89182e-07
-2.74936e-07
2.61809e-07
-7.24015e-07
-2.21661e-07
2.19675e-07
-8.09194e-07
-1.53197e-07
1.41665e-07
-8.12535e-07
-7.07014e-08
2.17158e-08
-7.47921e-07
-4.54858e-08
-5.67447e-08
-6.09052e-07
-1.14748e-07
-8.85874e-08
-4.68448e-07
-1.06373e-07
-9.89119e-08
-3.41693e-07
-9.17646e-08
-9.57772e-08
-2.3193e-07
-7.5473e-08
-8.76148e-08
-1.3764e-07
-6.27603e-08
-7.81574e-08
-5.77714e-08
-5.45783e-08
-6.7278e-08
-2.66298e-09
-5.0335e-08
-4.42691e-08
-4.65223e-08
7.18605e-09
-2.66675e-09
-3.0764e-08
6.41284e-09
2.42099e-08
-3.34792e-08
-2.27241e-08
6.45044e-08
-3.68897e-08
-3.5566e-08
1.12453e-07
-4.34407e-08
-4.20118e-08
1.69584e-07
-5.46938e-08
-4.88226e-08
2.39912e-07
-7.18079e-08
-5.76775e-08
3.28709e-07
-9.61496e-08
-6.82473e-08
4.40338e-07
-1.29177e-07
-7.7199e-08
5.79656e-07
-1.70705e-07
-8.00555e-08
7.52692e-07
-2.28694e-07
-6.55517e-08
7.84021e-07
-4.98034e-08
-3.26421e-08
7.43055e-07
-7.57819e-08
3.49098e-08
6.72619e-07
-2.47222e-07
1.49759e-07
5.56401e-07