/*--------------------------------*- C++ -*----------------------------------*\
| =========                 |                                                 |
| \\      /  F ield         | OpenFOAM: The Open Source CFD Toolbox           |
|  \\    /   O peration     | Version:  2112                                  |
|   \\  /    A nd           | Website:  www.openfoam.com                      |
|    \\/     M anipulation  |                                                 |
\*---------------------------------------------------------------------------*/
FoamFile
{
    version     2.0;
    format      ascii;
    arch        "LSB;label=32;scalar=64";
    class       volVectorField;
    location    "4.1";
    object      U;
}
// * * * * * * * * * * * * * * * * * * * * * * * * * * * * * * * * * * * * * //

dimensions      [0 1 -1 0 0 0 0];

internalField   nonuniform List<vector> 
64906
(
(-8.84277e-08 -2.27432e-07 -4.38041e-07)
(1.83942e-06 -1.9646e-06 -4.67002e-07)
(5.67771e-06 -3.75575e-06 3.83481e-07)
(1.01698e-05 -5.3418e-06 1.50043e-06)
(1.50944e-05 -6.54094e-06 2.46645e-06)
(2.0086e-05 -7.50469e-06 3.14257e-06)
(2.5007e-05 -8.32034e-06 3.7265e-06)
(2.9739e-05 -9.04715e-06 4.30494e-06)
(3.40865e-05 -9.72013e-06 4.91055e-06)
(3.75477e-05 -1.02408e-05 5.563e-06)
(3.96952e-05 -1.06958e-05 6.21341e-06)
(3.97177e-05 -1.08913e-05 6.87084e-06)
(3.75014e-05 -1.11205e-05 7.62449e-06)
(3.36255e-05 -1.1282e-05 8.43042e-06)
(2.83318e-05 -1.16013e-05 9.13077e-06)
(2.20324e-05 -1.19057e-05 9.69328e-06)
(1.50054e-05 -1.21743e-05 1.00789e-05)
(7.59543e-06 -1.23362e-05 1.02807e-05)
(6.82611e-08 -1.23797e-05 1.0292e-05)
(-7.28061e-06 -1.23055e-05 1.01137e-05)
(-1.41862e-05 -1.21262e-05 9.75251e-06)
(-2.03071e-05 -1.19133e-05 9.21586e-06)
(-2.53768e-05 -1.16848e-05 8.5441e-06)
(-2.90149e-05 -1.16047e-05 7.7729e-06)
(-3.09214e-05 -1.13818e-05 7.09138e-06)
(-3.05323e-05 -1.1245e-05 6.46213e-06)
(-2.8057e-05 -1.08107e-05 5.82114e-06)
(-2.42913e-05 -1.02442e-05 5.13458e-06)
(-1.96633e-05 -9.37976e-06 4.40174e-06)
(-1.46662e-05 -8.21112e-06 3.51511e-06)
(-9.63281e-06 -6.62566e-06 2.22881e-06)
(-5.16508e-06 -4.48592e-06 6.72279e-07)
(-1.4943e-06 -1.99947e-06 -5.52102e-07)
(3.53777e-07 5.9268e-08 -7.131e-07)
(-2.79861e-06 3.95017e-06 -1.34284e-06)
(-1.7935e-06 2.62642e-06 -6.23555e-06)
(3.43022e-06 5.46039e-07 -7.80217e-06)
(8.85875e-06 -1.43718e-06 -8.1288e-06)
(1.43573e-05 -2.73657e-06 -8.36086e-06)
(1.96549e-05 -3.3571e-06 -8.85878e-06)
(2.47941e-05 -3.29827e-06 -9.71563e-06)
(2.96862e-05 -2.50629e-06 -1.09615e-05)
(3.42205e-05 -8.92131e-07 -1.26152e-05)
(3.7829e-05 1.8481e-06 -1.46814e-05)
(4.01275e-05 5.4572e-06 -1.70923e-05)
(4.02997e-05 1.00444e-05 -1.96839e-05)
(3.81946e-05 1.40201e-05 -2.21998e-05)
(3.42629e-05 1.74647e-05 -2.44196e-05)
(2.87709e-05 1.9893e-05 -2.6204e-05)
(2.23433e-05 2.16211e-05 -2.75463e-05)
(1.52092e-05 2.26646e-05 -2.84448e-05)
(7.72778e-06 2.31572e-05 -2.89115e-05)
(1.31908e-07 2.31207e-05 -2.89463e-05)
(-7.28311e-06 2.25547e-05 -2.85487e-05)
(-1.42867e-05 2.14382e-05 -2.77186e-05)
(-2.05204e-05 1.96384e-05 -2.6445e-05)
(-2.57598e-05 1.71495e-05 -2.47315e-05)
(-2.93582e-05 1.36678e-05 -2.25923e-05)
(-3.11273e-05 9.73545e-06 -2.02038e-05)
(-3.06116e-05 5.20848e-06 -1.77361e-05)
(-2.79155e-05 1.79123e-06 -1.54987e-05)
(-2.38745e-05 -5.89018e-07 -1.36768e-05)
(-1.88189e-05 -1.54179e-06 -1.23612e-05)
(-1.3286e-05 -1.24115e-06 -1.15484e-05)
(-7.37254e-06 2.64542e-07 -1.11198e-05)
(-1.48025e-06 2.8254e-06 -1.0607e-05)
(3.96059e-06 5.50096e-06 -8.60169e-06)
(4.18272e-06 6.83315e-06 -2.15709e-06)
(-4.78529e-06 1.34912e-05 -1.14735e-06)
(-4.77875e-06 1.43708e-05 -8.16784e-06)
(1.10121e-06 1.35258e-05 -1.06154e-05)
(7.33145e-06 1.27332e-05 -1.14847e-05)
(1.36861e-05 1.29368e-05 -1.2191e-05)
(1.97846e-05 1.43814e-05 -1.3192e-05)
(2.57864e-05 1.7269e-05 -1.46807e-05)
(3.16797e-05 2.19528e-05 -1.67526e-05)
(3.74855e-05 2.88155e-05 -1.94615e-05)
(4.23898e-05 3.85989e-05 -2.28374e-05)
(4.58861e-05 5.07925e-05 -2.67678e-05)
(4.61932e-05 6.54564e-05 -3.1029e-05)
(4.31908e-05 7.83286e-05 -3.50729e-05)
(3.82233e-05 8.94325e-05 -3.86069e-05)
(3.1644e-05 9.78009e-05 -4.1475e-05)
(2.43055e-05 0.000104015 -4.36461e-05)
(1.63218e-05 0.000108021 -4.51014e-05)
(8.07088e-06 0.000110031 -4.5858e-05)
(-2.85409e-07 0.00011006 -4.59129e-05)
(-8.46698e-06 0.000108109 -4.52654e-05)
(-1.63137e-05 0.000104165 -4.39187e-05)
(-2.34442e-05 9.80197e-05 -4.18575e-05)
(-2.97487e-05 8.97466e-05 -3.91033e-05)
(-3.43633e-05 7.87754e-05 -3.56957e-05)
(-3.6963e-05 6.61084e-05 -3.18056e-05)
(-3.6179e-05 5.1793e-05 -2.77332e-05)
(-3.21272e-05 4.01866e-05 -2.40521e-05)
(-2.65561e-05 3.12143e-05 -2.10018e-05)
(-1.98612e-05 2.55314e-05 -1.87023e-05)
(-1.28227e-05 2.24729e-05 -1.70876e-05)
(-5.40274e-06 2.16463e-05 -1.59202e-05)
(1.71903e-06 2.2458e-05 -1.46128e-05)
(8.10513e-06 2.32963e-05 -1.13358e-05)
(6.96109e-06 2.1679e-05 -2.05004e-06)
(-6.24148e-06 2.39603e-05 -4.23216e-07)
(-6.84022e-06 2.62518e-05 -8.44415e-06)
(-1.95395e-07 2.64695e-05 -1.12413e-05)
(7.09202e-06 2.70141e-05 -1.22752e-05)
(1.47354e-05 2.8949e-05 -1.31456e-05)
(2.22505e-05 3.26495e-05 -1.436e-05)
(2.99578e-05 3.85152e-05 -1.61541e-05)
(3.79637e-05 4.72511e-05 -1.86589e-05)
(4.6521e-05 5.96798e-05 -2.19332e-05)
(5.42968e-05 7.73571e-05 -2.60327e-05)
(6.04961e-05 9.96132e-05 -3.07923e-05)
(6.11222e-05 0.000126903 -3.60539e-05)
(5.60707e-05 0.000150307 -4.09951e-05)
(4.86337e-05 0.000170257 -4.52989e-05)
(3.93982e-05 0.000185117 -4.87846e-05)
(2.97401e-05 0.000196179 -5.14054e-05)
(1.95109e-05 0.00020334 -5.31445e-05)
(9.13775e-06 0.000206965 -5.40455e-05)
(-1.33649e-06 0.000207063 -5.41064e-05)
(-1.16386e-05 0.000203632 -5.33264e-05)
(-2.17266e-05 0.000196667 -5.17068e-05)
(-3.11616e-05 0.000185804 -4.92059e-05)
(-4.00931e-05 0.000171177 -4.58427e-05)
(-4.7116e-05 0.00015151 -4.16735e-05)
(-5.16638e-05 0.000128531 -3.6893e-05)
(-5.03823e-05 0.000101825 -3.18357e-05)
(-4.34063e-05 8.05162e-05 -2.73504e-05)
(-3.46884e-05 6.40126e-05 -2.3604e-05)
(-2.48406e-05 5.3158e-05 -2.07634e-05)
(-1.51986e-05 4.64445e-05 -1.87282e-05)
(-5.51808e-06 4.30303e-05 -1.72309e-05)
(3.29878e-06 4.19449e-05 -1.56486e-05)
(1.08387e-05 4.14375e-05 -1.18765e-05)
(8.94483e-06 3.79647e-05 -1.21327e-06)
(-7.16954e-06 3.4881e-05 4.23979e-07)
(-7.86239e-06 3.83072e-05 -8.45234e-06)
(1.02249e-09 3.94831e-05 -1.15429e-05)
(8.79001e-06 4.14166e-05 -1.26822e-05)
(1.82342e-05 4.52224e-05 -1.3683e-05)
(2.78254e-05 5.13354e-05 -1.51183e-05)
(3.81561e-05 6.03025e-05 -1.72593e-05)
(4.95746e-05 7.32195e-05 -2.02695e-05)
(6.28637e-05 9.1591e-05 -2.41767e-05)
(7.58865e-05 0.000118514 -2.90738e-05)
(8.75571e-05 0.000153724 -3.46783e-05)
(8.87651e-05 0.000199456 -4.11864e-05)
(7.93841e-05 0.000236618 -4.71854e-05)
(6.72649e-05 0.000267459 -5.24682e-05)
(5.32565e-05 0.00028978 -5.67606e-05)
(3.95408e-05 0.000306421 -5.99223e-05)
(2.53255e-05 0.000317179 -6.19819e-05)
(1.11424e-05 0.000322656 -6.30418e-05)
(-3.15588e-06 0.000322832 -6.31066e-05)
(-1.72697e-05 0.000317701 -6.21752e-05)
(-3.1347e-05 0.000307287 -6.02407e-05)
(-4.48312e-05 0.000290976 -5.7203e-05)
(-5.85096e-05 0.000269013 -5.30344e-05)
(-7.01356e-05 0.000238573 -4.78871e-05)
(-7.88906e-05 0.000202009 -4.20524e-05)
(-7.67895e-05 0.000157054 -3.57557e-05)
(-6.40819e-05 0.000123185 -3.04492e-05)
(-4.98579e-05 9.77543e-05 -2.59328e-05)
(-3.48765e-05 8.12977e-05 -2.24939e-05)
(-2.13323e-05 7.07689e-05 -1.99962e-05)
(-8.4833e-06 6.47079e-05 -1.81872e-05)
(2.75226e-06 6.17646e-05 -1.63674e-05)
(1.21518e-05 6.00967e-05 -1.21394e-05)
(1.02268e-05 5.51485e-05 -2.18754e-07)
(-7.80562e-06 4.53747e-05 1.28457e-06)
(-8.07669e-06 4.96633e-05 -8.56783e-06)
(1.63795e-06 5.16498e-05 -1.20149e-05)
(1.25117e-05 5.49052e-05 -1.32875e-05)
(2.43338e-05 6.05776e-05 -1.44578e-05)
(3.66351e-05 6.90544e-05 -1.6193e-05)
(5.04054e-05 8.09006e-05 -1.87949e-05)
(6.64551e-05 9.75132e-05 -2.24533e-05)
(8.67457e-05 0.000121335 -2.70694e-05)
(0.000108383 0.000158257 -3.27498e-05)
(0.000130887 0.000209517 -3.86675e-05)
(0.000133379 0.000284024 -4.65569e-05)
(0.000115411 0.000339008 -5.37714e-05)
(9.54817e-05 0.000382673 -6.04942e-05)
(7.41162e-05 0.000412957 -6.6055e-05)
(5.44436e-05 0.000435645 -6.99429e-05)
(3.42285e-05 0.000450261 -7.23995e-05)
(1.42558e-05 0.000457751 -7.36507e-05)
(-5.89404e-06 0.000458014 -7.37207e-05)
(-2.5808e-05 0.00045104 -7.26075e-05)
(-4.59075e-05 0.000436921 -7.02835e-05)
(-6.53647e-05 0.000414685 -6.65263e-05)
(-8.64047e-05 0.000384854 -6.1092e-05)
(-0.00010577 0.000341646 -5.45079e-05)
(-0.00012299 0.000287379 -4.74675e-05)
(-0.000119268 0.000213746 -3.97892e-05)
(-9.54199e-05 0.000164365 -3.42011e-05)
(-7.23857e-05 0.000129209 -2.8938e-05)
(-4.99809e-05 0.000107587 -2.48449e-05)
(-3.1248e-05 9.3705e-05 -2.17719e-05)
(-1.42801e-05 8.52888e-05 -1.95747e-05)
(2.38662e-07 8.07445e-05 -1.744e-05)
(1.24248e-05 7.81654e-05 -1.26275e-05)
(1.11671e-05 7.20954e-05 7.88043e-07)
(-8.31581e-06 5.50888e-05 2.20148e-06)
(-7.67982e-06 6.00571e-05 -8.88375e-06)
(4.64922e-06 6.28678e-05 -1.2807e-05)
(1.82987e-05 6.75069e-05 -1.427e-05)
(3.31211e-05 7.52159e-05 -1.56671e-05)
(4.86673e-05 8.61778e-05 -1.77837e-05)
(6.63707e-05 0.000100703 -2.09408e-05)
(8.77598e-05 0.000119952 -2.53457e-05)
(0.000117204 0.000147225 -3.06455e-05)
(0.000151457 0.00019172 -3.6745e-05)
(0.000195432 0.000260878 -4.1547e-05)
(0.000201236 0.000383188 -5.06583e-05)
(0.000165872 0.000460646 -5.87272e-05)
(0.000133835 0.000519415 -6.75563e-05)
(0.000102294 0.000558543 -7.51642e-05)
(7.48708e-05 0.000588433 -7.98346e-05)
(4.65044e-05 0.000607724 -8.27087e-05)
(1.85988e-05 0.000617679 -8.4154e-05)
(-9.63696e-06 0.000618047 -8.42303e-05)
(-3.75085e-05 0.000608808 -8.2935e-05)
(-6.58148e-05 0.000590194 -8.02032e-05)
(-9.30878e-05 0.000560886 -7.56739e-05)
(-0.000124379 0.000522277 -6.81977e-05)
(-0.000155816 0.000463925 -5.95191e-05)
(-0.000190372 0.000387194 -5.16514e-05)
(-0.000182794 0.000265639 -4.27424e-05)
(-0.000137077 0.000199282 -3.83209e-05)
(-0.000101426 0.000156714 -3.26717e-05)
(-6.94036e-05 0.000131831 -2.79681e-05)
(-4.46353e-05 0.0001156 -2.42453e-05)
(-2.27925e-05 0.00010506 -2.15876e-05)
(-4.09515e-06 9.89403e-05 -1.90394e-05)
(1.19528e-05 9.5459e-05 -1.34441e-05)
(1.20106e-05 8.8402e-05 1.89253e-06)
(-8.81581e-06 6.36044e-05 3.15138e-06)
(-6.70634e-06 6.90755e-05 -9.40003e-06)
(9.21551e-06 7.27386e-05 -1.39766e-05)
(2.6519e-05 7.88829e-05 -1.56794e-05)
(4.5174e-05 8.88579e-05 -1.73679e-05)
(6.45186e-05 0.000102469 -1.99615e-05)
(8.60732e-05 0.000119335 -2.38026e-05)
(0.000111988 0.000139309 -2.91743e-05)
(0.000149518 0.000164775 -3.5192e-05)
(0.000198758 0.000210863 -4.21573e-05)
(0.000286272 0.000293253 -3.94648e-05)
(0.000301541 0.000501285 -4.74242e-05)
(0.000232438 0.000601463 -5.65679e-05)
(0.000184798 0.000673546 -6.96758e-05)
(0.000140661 0.000720198 -8.0991e-05)
(0.000103535 0.00075659 -8.64688e-05)
(6.39081e-05 0.00078029 -8.97526e-05)
(2.47956e-05 0.000792658 -9.13827e-05)
(-1.49379e-05 0.000793152 -9.14661e-05)
(-5.4058e-05 0.000781746 -8.99993e-05)
(-9.37262e-05 0.000758943 -8.68701e-05)
(-0.000130849 0.00072329 -8.15512e-05)
(-0.00017496 0.000677213 -7.03817e-05)
(-0.000222108 0.000605365 -5.74537e-05)
(-0.000290578 0.000505834 -4.86071e-05)
(-0.000272486 0.000298167 -4.07429e-05)
(-0.000182657 0.000220544 -4.38135e-05)
(-0.000132489 0.000176056 -3.73644e-05)
(-9.17881e-05 0.000152893 -3.20587e-05)
(-6.15813e-05 0.000136044 -2.75093e-05)
(-3.45885e-05 0.000123645 -2.42968e-05)
(-1.06945e-05 0.000115868 -2.12229e-05)
(1.06295e-05 0.000111263 -1.45878e-05)
(1.28165e-05 0.000103488 3.24688e-06)
(-9.34518e-06 7.05096e-05 4.12966e-06)
(-5.1767e-06 7.64526e-05 -1.01398e-05)
(1.54314e-05 8.11206e-05 -1.55356e-05)
(3.74541e-05 8.92676e-05 -1.75321e-05)
(6.09758e-05 0.000102473 -1.95535e-05)
(8.47998e-05 0.000120325 -2.26534e-05)
(0.000109748 0.000141714 -2.7231e-05)
(0.000136877 0.000163119 -3.36623e-05)
(0.000178139 0.000185639 -4.14671e-05)
(0.000234659 0.000223995 -4.77408e-05)
(0.000405577 0.00024671 -4.73328e-05)
(0.000445554 0.000618138 -3.91901e-05)
(0.000306075 0.000751189 -4.54948e-05)
(0.000244711 0.000842997 -6.55303e-05)
(0.000187903 0.000902166 -8.19701e-05)
(0.000139477 0.000950656 -8.79383e-05)
(8.59787e-05 0.000982599 -9.20953e-05)
(3.27449e-05 0.000999104 -9.40815e-05)
(-2.16056e-05 0.000999761 -9.41678e-05)
(-7.49029e-05 0.000984542 -9.23502e-05)
(-0.000128583 0.000953824 -8.83476e-05)
(-0.000177247 0.000906352 -8.25457e-05)
(-0.000234504 0.000847923 -6.62511e-05)
(-0.00029567 0.000756236 -4.6441e-05)
(-0.000435167 0.000623513 -4.05302e-05)
(-0.000390244 0.000249617 -4.9139e-05)
(-0.000216527 0.000234678 -4.9706e-05)
(-0.000160853 0.000197805 -4.38397e-05)
(-0.000115352 0.000177804 -3.69055e-05)
(-8.26765e-05 0.000159592 -3.14778e-05)
(-5.04802e-05 0.000143084 -2.77206e-05)
(-2.0247e-05 0.000132039 -2.41445e-05)
(8.20201e-06 0.000125489 -1.60571e-05)
(1.3718e-05 0.000117032 4.87158e-06)
(-9.74697e-06 7.51595e-05 5.2232e-06)
(-2.74712e-06 8.14097e-05 -1.1118e-05)
(2.4047e-05 8.7002e-05 -1.74965e-05)
(5.26813e-05 9.71531e-05 -1.98706e-05)
(8.35604e-05 0.000113809 -2.23149e-05)
(0.000115 0.000136678 -2.60341e-05)
(0.000145354 0.000163589 -3.14741e-05)
(0.000174936 0.000186021 -4.03715e-05)
(0.000212447 0.000190691 -5.00129e-05)
(0.000174143 0.000105622 -7.31007e-05)
(0.000479819 0.000219995 -7.26e-05)
(0.000650193 0.000870071 -9.88407e-06)
(0.000400709 0.000939754 -7.24952e-06)
(0.000336047 0.00100131 -2.9797e-05)
(0.000264053 0.0010635 -4.9862e-05)
(0.00019796 0.00111541 -5.14772e-05)
(0.000121473 0.00115265 -5.42852e-05)
(4.52225e-05 0.0011719 -5.58432e-05)
(-3.22486e-05 0.00117273 -5.59067e-05)
(-0.000108592 0.00115512 -5.44779e-05)
(-0.000185379 0.00111947 -5.17677e-05)
(-0.000251975 0.00106895 -5.03182e-05)
(-0.000325009 0.00100773 -3.03866e-05)
(-0.000390291 0.000945906 -8.07408e-06)
(-0.000644185 0.000872642 -1.14874e-05)
(-0.000466315 0.000223235 -7.50901e-05)
(-0.000154516 0.000124644 -7.42213e-05)
(-0.000195202 0.000207308 -5.20138e-05)
(-0.000152239 0.000202453 -4.38874e-05)
(-0.000115995 0.000182314 -3.64117e-05)
(-7.62505e-05 0.000160279 -3.21062e-05)
(-3.58946e-05 0.000144877 -2.79557e-05)
(3.32266e-06 0.000136143 -1.81133e-05)
(1.42098e-05 0.000127272 6.59511e-06)
(-1.01512e-05 7.71643e-05 6.35525e-06)
(2.25753e-07 8.35842e-05 -1.23299e-05)
(3.43134e-05 9.01147e-05 -1.98466e-05)
(7.10568e-05 0.00010249 -2.26884e-05)
(0.000111629 0.000123793 -2.56234e-05)
(0.00015377 0.000156087 -2.96564e-05)
(0.00019274 0.000202249 -3.48703e-05)
(0.000220205 0.000264333 -3.96563e-05)
(0.000177737 0.000345727 -5.89602e-05)
(0.000177278 0.000394218 -9.54513e-05)
(0.000287307 0.000738541 7.39094e-05)
(0.000317974 0.000941899 3.82287e-05)
(0.000395823 0.00106448 2.47578e-05)
(0.000343465 0.00117367 2.45529e-05)
(0.000259091 0.00125102 1.96146e-05)
(0.000160726 0.00130223 1.4208e-05)
(5.91565e-05 0.0013272 1.16287e-05)
(-4.3829e-05 0.00132816 1.16317e-05)
(-0.000145514 0.00130514 1.42073e-05)
(-0.000244222 0.00125597 1.9614e-05)
(-0.000329309 0.00118084 2.45722e-05)
(-0.000383531 0.00107402 2.48633e-05)
(-0.000309936 0.000953764 3.79377e-05)
(-0.000282374 0.000750044 7.22903e-05)
(-0.000173252 0.000405575 -9.21336e-05)
(-0.000169414 0.000359887 -6.04915e-05)
(-0.000201314 0.000279434 -4.3896e-05)
(-0.00016323 0.000220251 -4.09248e-05)
(-0.000111513 0.000179394 -3.72163e-05)
(-5.71017e-05 0.000155177 -3.28086e-05)
(-3.62529e-06 0.000142682 -2.09284e-05)
(1.45341e-05 0.000133098 8.27857e-06)
(-1.0304e-05 7.58405e-05 7.51231e-06)
(4.14232e-06 8.20709e-05 -1.36893e-05)
(4.70323e-05 8.86298e-05 -2.24623e-05)
(9.48035e-05 0.000101209 -2.59338e-05)
(0.000151618 0.000123128 -2.97509e-05)
(0.000220224 0.000157163 -3.51002e-05)
(0.000305511 0.000208074 -4.20374e-05)
(0.000420616 0.000282419 -4.72703e-05)
(0.000554996 0.000391739 -4.97157e-05)
(0.000823627 0.000552467 -3.06168e-05)
(0.000852485 0.000151383 5.27387e-05)
(0.000645727 0.000302393 8.07148e-05)
(0.00071263 0.000687444 0.0001351)
(0.000640922 0.000899536 0.000186939)
(0.000510228 0.00104796 0.000216018)
(0.000364595 0.00114583 0.000224994)
(0.000219295 0.00120579 0.000225045)
(7.84109e-05 0.00123422 0.000224103)
(-6.06732e-05 0.00123514 0.000224157)
(-0.000201485 0.00120861 0.000225205)
(-0.000346655 0.00115071 0.000225285)
(-0.000492066 0.0010552 0.00021658)
(-0.000622624 0.000909588 0.000188102)
(-0.000694529 0.000700867 0.000136987)
(-0.000626313 0.000318355 8.3941e-05)
(-0.000840607 0.000154139 5.53481e-05)
(-0.000818555 0.000553426 -2.97076e-05)
(-0.000544171 0.000400134 -5.1955e-05)
(-0.000401772 0.000294739 -5.20716e-05)
(-0.000275096 0.000224579 -4.93372e-05)
(-0.000174557 0.000179507 -4.44214e-05)
(-9.04004e-05 0.000153834 -3.89208e-05)
(-1.53726e-05 0.000141018 -2.44567e-05)
(1.33896e-05 0.000131223 1.00036e-05)
(-1.07471e-05 7.11395e-05 8.61602e-06)
(7.15475e-06 7.6817e-05 -1.4948e-05)
(5.76853e-05 8.23515e-05 -2.49371e-05)
(0.000114239 9.27495e-05 -2.90181e-05)
(0.000182495 0.000110281 -3.36196e-05)
(0.000266301 0.000135752 -4.00872e-05)
(0.000371187 0.000169059 -4.81573e-05)
(0.000507465 0.000207467 -5.4514e-05)
(0.00066713 0.000239919 -5.52314e-05)
(0.000903483 0.00025785 -3.91613e-05)
(0.00101558 0.000123348 -1.13207e-05)
(0.000974375 0.000315141 3.9085e-05)
(0.000935095 0.000509851 0.000142364)
(0.000801357 0.000653097 0.00021132)
(0.000630755 0.000763653 0.000247021)
(0.000445115 0.00083676 0.000261574)
(0.000265492 0.000882477 0.000264614)
(9.39083e-05 0.000904492 0.0002648)
(-7.42532e-05 0.000905256 0.000264859)
(-0.000245704 0.000884782 0.000264789)
(-0.000425082 0.000840646 0.000261904)
(-0.000610348 0.000769141 0.000247657)
(-0.000780955 0.000660116 0.000212664)
(-0.00091526 0.000517722 0.000144673)
(-0.000955659 0.000322738 4.3155e-05)
(-0.00100269 0.000126017 -8.69833e-06)
(-0.000895553 0.000263807 -3.90698e-05)
(-0.000656595 0.000248652 -5.80263e-05)
(-0.000488636 0.000219148 -6.01224e-05)
(-0.000339338 0.000184675 -5.6664e-05)
(-0.000216758 0.000157013 -5.10115e-05)
(-0.000114199 0.000139469 -4.4521e-05)
(-2.33099e-05 0.000130447 -2.77849e-05)
(1.32267e-05 0.000121559 1.19179e-05)
(-1.12409e-05 6.37536e-05 9.66082e-06)
(9.49155e-06 6.87787e-05 -1.59798e-05)
(6.64925e-05 7.31175e-05 -2.70372e-05)
(0.000130142 8.10942e-05 -3.16457e-05)
(0.000207034 9.42724e-05 -3.69506e-05)
(0.000301079 0.000112701 -4.45957e-05)
(0.000417636 0.000135272 -5.44659e-05)
(0.000564266 0.000159874 -6.4231e-05)
(0.000732415 0.000179965 -7.00285e-05)
(0.000930846 0.000197468 -6.46555e-05)
(0.00106229 0.000161843 -4.40801e-05)
(0.00110701 0.000251735 1.96575e-05)
(0.00106436 0.000371098 0.000127697)
(0.000908611 0.000469637 0.00019555)
(0.000710594 0.000546086 0.00023099)
(0.000497327 0.000595368 0.000240138)
(0.000295533 0.000626287 0.000239373)
(0.00010402 0.000641094 0.000237573)
(-8.28853e-05 0.000641712 0.000237597)
(-0.000274243 0.000628142 0.000239441)
(-0.000475761 0.000598454 0.000240291)
(-0.000688647 0.000550361 0.000231382)
(-0.000886834 0.00047501 0.000196615)
(-0.00104346 0.000377209 0.000129721)
(-0.00108955 0.000258296 2.3478e-05)
(-0.00105083 0.000166364 -4.17997e-05)
(-0.000922267 0.000203203 -6.45195e-05)
(-0.000721025 0.000187886 -7.29687e-05)
(-0.00054419 0.000170587 -7.02755e-05)
(-0.000383436 0.000149691 -6.37905e-05)
(-0.000247155 0.000132315 -5.66697e-05)
(-0.000131727 0.000120909 -4.90686e-05)
(-2.86902e-05 0.000114905 -3.03147e-05)
(1.35418e-05 0.000107343 1.38462e-05)
(-1.18624e-05 5.42388e-05 1.05543e-05)
(1.08061e-05 5.8469e-05 -1.67812e-05)
(7.25143e-05 6.15231e-05 -2.86978e-05)
(0.000140949 6.69888e-05 -3.37222e-05)
(0.000223046 7.58636e-05 -3.95644e-05)
(0.000322267 8.78133e-05 -4.81088e-05)
(0.000443664 0.000101554 -5.93389e-05)
(0.000592654 0.000115766 -7.12988e-05)
(0.000761961 0.000126604 -7.97658e-05)
(0.00094711 0.000138666 -7.75572e-05)
(0.00109328 0.000138011 -5.7094e-05)
(0.00117895 0.000193867 3.09676e-06)
(0.00113894 0.000268452 0.000108661)
(0.000970352 0.000330338 0.000169798)
(0.000757842 0.00037893 0.000199929)
(0.000529237 0.000411016 0.0002033)
(0.000314368 0.000431526 0.000198933)
(0.000110491 0.000441489 0.000195309)
(-8.81946e-05 0.00044203 0.000195297)
(-0.000291942 0.000433132 0.000198892)
(-0.000506599 0.000413632 0.000203265)
(-0.000734927 0.00038246 0.000200047)
(-0.00094783 0.000334657 0.000170527)
(-0.00111758 0.000273301 0.000110333)
(-0.00116188 0.000199145 6.6772e-06)
(-0.00108203 0.000142832 -5.49853e-05)
(-0.000937766 0.000144583 -7.75935e-05)
(-0.000749519 0.000134129 -8.2902e-05)
(-0.000570952 0.000125571 -7.76947e-05)
(-0.000406798 0.000114523 -6.92428e-05)
(-0.000264023 0.000105177 -6.0967e-05)
(-0.00014144 9.89811e-05 -5.24474e-05)
(-3.07239e-05 9.56485e-05 -3.20802e-05)
(1.47004e-05 8.96864e-05 1.53843e-05)
(-1.24285e-05 4.34043e-05 1.12779e-05)
(1.15136e-05 4.68043e-05 -1.73756e-05)
(7.65348e-05 4.8858e-05 -2.99359e-05)
(0.000148214 5.24487e-05 -3.52647e-05)
(0.000233596 5.82765e-05 -4.14949e-05)
(0.000335708 6.60503e-05 -5.06891e-05)
(0.000459451 7.4898e-05 -6.29024e-05)
(0.000609128 8.42904e-05 -7.63285e-05)
(0.000779024 9.25207e-05 -8.64632e-05)
(0.000961353 0.000103586 -8.60363e-05)
(0.00111771 0.000113944 -6.52465e-05)
(0.00122274 0.000150557 -6.33714e-06)
(0.00118489 0.000197021 9.75418e-05)
(0.0010099 0.000237305 0.000154459)
(0.00078835 0.00026923 0.000180795)
(0.000549973 0.000290753 0.000180456)
(0.000326679 0.000304645 0.000173704)
(0.000114832 0.000311517 0.000168891)
(-9.14808e-05 0.000312043 0.000168861)
(-0.000303244 0.000306197 0.000173606)
(-0.000526419 0.000293254 0.000180318)
(-0.000764653 0.000272554 0.000180761)
(-0.000986799 0.000241302 0.000155001)
(-0.00116313 0.000201476 9.8998e-05)
(-0.00120571 0.000155383 -3.066e-06)
(-0.00110635 0.00011883 -6.32668e-05)
(-0.000951326 0.000109263 -8.61619e-05)
(-0.000765522 9.93547e-05 -8.97388e-05)
(-0.000585769 9.28797e-05 -8.29638e-05)
(-0.000420052 8.59666e-05 -7.31878e-05)
(-0.000273667 8.05297e-05 -6.40491e-05)
(-0.000146806 7.71021e-05 -5.48274e-05)
(-3.11895e-05 7.52305e-05 -3.32594e-05)
(1.59465e-05 7.06153e-05 1.65603e-05)
(-1.29008e-05 3.17515e-05 1.17931e-05)
(1.17932e-05 3.42395e-05 -1.78095e-05)
(7.89396e-05 3.54967e-05 -3.0811e-05)
(0.000152662 3.76509e-05 -3.63403e-05)
(0.000240012 4.12027e-05 -4.2814e-05)
(0.000343745 4.60107e-05 -5.24045e-05)
(0.000468791 5.1654e-05 -6.51985e-05)
(0.000619088 5.80813e-05 -7.94208e-05)
(0.000790242 6.47902e-05 -9.04019e-05)
(0.000973553 7.44694e-05 -9.07059e-05)
(0.00113639 8.62169e-05 -6.99183e-05)
(0.00125116 0.000110172 -1.11833e-05)
(0.00121467 0.000139301 9.24689e-05)
(0.0010356 0.000165007 0.000147745)
(0.000808344 0.000185547 0.000172336)
(0.000563862 0.000199879 0.000170292)
(0.000335081 0.000209313 0.000162463)
(0.000117932 0.000214146 0.000157119)
(-9.35281e-05 0.000214701 0.000157084)
(-0.000310656 0.000210945 0.000162348)
(-0.000539441 0.000202484 0.000170123)
(-0.000783952 0.000188965 0.000172253)
(-0.00101203 0.000169037 0.000148222)
(-0.00119267 0.000143714 9.38938e-05)
(-0.00123407 0.000114811 -7.82339e-06)
(-0.00112477 9.09877e-05 -6.79953e-05)
(-0.00096297 7.97073e-05 -9.09285e-05)
(-0.00077587 7.07511e-05 -9.38169e-05)
(-0.000594376 6.52074e-05 -8.62575e-05)
(-0.000427383 6.0465e-05 -7.57666e-05)
(-0.000278809 5.7137e-05 -6.61113e-05)
(-0.000149434 5.5228e-05 -5.64369e-05)
(-3.08717e-05 5.41868e-05 -3.40577e-05)
(1.70765e-05 5.08944e-05 1.73205e-05)
(-1.32193e-05 1.97246e-05 1.20959e-05)
(1.18752e-05 2.12633e-05 -1.8108e-05)
(8.02483e-05 2.19034e-05 -3.13742e-05)
(0.000155181 2.29825e-05 -3.70175e-05)
(0.000243732 2.48529e-05 -4.3624e-05)
(0.000348538 2.75547e-05 -5.34259e-05)
(0.000474609 3.10637e-05 -6.65248e-05)
(0.000625806 3.55516e-05 -8.11423e-05)
(0.000798422 4.10787e-05 -9.25226e-05)
(0.000983462 4.88044e-05 -9.31045e-05)
(0.00115012 5.85417e-05 -7.22902e-05)
(0.00126945 7.30046e-05 -1.35252e-05)
(0.00123346 8.92257e-05 9.08527e-05)
(0.00105194 0.000103841 0.00014596)
(0.000821196 0.000115644 0.000170084)
(0.000572992 0.000124277 0.000167505)
(0.000340723 0.00013011 0.000159321)
(0.000120177 0.000133293 0.000153805)
(-9.4632e-05 0.000133914 0.000153773)
(-0.000315235 0.000131933 0.000159213)
(-0.000547658 0.000127169 0.000167344)
(-0.000796104 0.000119405 0.000170007)
(-0.00102791 0.000108198 0.000146435)
(-0.00121124 9.38997e-05 9.23065e-05)
(-0.00125231 7.77554e-05 -9.91622e-06)
(-0.00113841 6.31902e-05 -7.0398e-05)
(-0.000972607 5.35408e-05 -9.34251e-05)
(-0.000783548 4.60662e-05 -9.60722e-05)
(-0.000600261 4.10707e-05 -8.81539e-05)
(-0.000431944 3.74147e-05 -7.73142e-05)
(-0.000281806 3.50798e-05 -6.73877e-05)
(-0.000150842 3.38468e-05 -5.74617e-05)
(-3.05338e-05 3.31883e-05 -3.45968e-05)
(1.78302e-05 3.11367e-05 1.77388e-05)
(-1.33708e-05 7.60071e-06 1.21821e-05)
(1.18444e-05 8.1652e-06 -1.82896e-05)
(8.06656e-05 8.22852e-06 -3.1657e-05)
(0.000156112 8.32188e-06 -3.73367e-05)
(0.000245268 8.65324e-06 -4.39788e-05)
(0.000350793 9.43382e-06 -5.38313e-05)
(0.000477768 1.09817e-05 -6.70035e-05)
(0.000630087 1.36137e-05 -8.17062e-05)
(0.000804107 1.78059e-05 -9.31666e-05)
(0.000990659 2.33456e-05 -9.37961e-05)
(0.00115882 3.03617e-05 -7.30003e-05)
(0.00127902 3.64919e-05 -1.41794e-05)
(0.00124273 4.12286e-05 9.06915e-05)
(0.00106004 4.56471e-05 0.000146129)
(0.000827728 4.92841e-05 0.000170397)
(0.000577884 5.25008e-05 0.000167872)
(0.000343925 5.49194e-05 0.000159695)
(0.000121693 5.65541e-05 0.000154181)
(-9.48479e-05 5.72771e-05 0.000154153)
(-0.000317235 5.70404e-05 0.000159596)
(-0.000551534 5.58524e-05 0.000167724)
(-0.000801895 5.36162e-05 0.000170333)
(-0.00103559 5.05884e-05 0.000146606)
(-0.0012204 4.63968e-05 9.21401e-05)
(-0.00126202 4.14759e-05 -1.05362e-05)
(-0.00114727 3.49346e-05 -7.11897e-05)
(-0.000979861 2.76193e-05 -9.42421e-05)
(-0.000789168 2.18497e-05 -9.68683e-05)
(-0.00060432 1.75431e-05 -8.88913e-05)
(-0.000434706 1.48654e-05 -7.7986e-05)
(-0.000283454 1.33376e-05 -6.79991e-05)
(-0.000151571 1.26166e-05 -5.80016e-05)
(-3.04302e-05 1.22641e-05 -3.49424e-05)
(1.81504e-05 1.14766e-05 1.78395e-05)
(-1.33583e-05 -4.32506e-06 1.20534e-05)
(1.16962e-05 -4.72494e-06 -1.83563e-05)
(8.0185e-05 -5.292e-06 -3.16636e-05)
(0.000155446 -6.2915e-06 -3.73043e-05)
(0.000244604 -7.67962e-06 -4.3892e-05)
(0.000350462 -9.08817e-06 -5.36521e-05)
(0.00047816 -9.82648e-06 -6.6672e-05)
(0.000631781 -9.34438e-06 -8.11537e-05)
(0.000807193 -6.52518e-06 -9.23805e-05)
(0.000995168 -2.82298e-06 -9.284e-05)
(0.00116277 2.78566e-06 -7.21426e-05)
(0.0012802 1.08381e-06 -1.32981e-05)
(0.00124256 -6.31042e-06 9.16755e-05)
(0.00105986 -1.26996e-05 0.00014782)
(0.000827886 -1.77772e-05 0.000172754)
(0.000578503 -2.02623e-05 0.000170818)
(0.000344687 -2.14192e-05 0.000162977)
(0.000122502 -2.1374e-05 0.000157623)
(-9.41266e-05 -2.04949e-05 0.000157596)
(-0.000316583 -1.88355e-05 0.000162882)
(-0.000550966 -1.61793e-05 0.000170668)
(-0.000801209 -1.25003e-05 0.000172675)
(-0.00103498 -6.74066e-06 0.00014825)
(-0.00122026 -2.0513e-07 9.30295e-05)
(-0.00126356 6.66131e-06 -9.88748e-06)
(-0.00115163 7.50924e-06 -7.05036e-05)
(-0.00098475 1.22359e-06 -9.34687e-05)
(-0.000792634 -3.16934e-06 -9.6269e-05)
(-0.000606419 -6.72245e-06 -8.85176e-05)
(-0.000435574 -8.11762e-06 -7.78146e-05)
(-0.000283698 -8.52144e-06 -6.79666e-05)
(-0.000151585 -8.48881e-06 -5.80707e-05)
(-3.05365e-05 -8.40409e-06 -3.5103e-05)
(1.80522e-05 -7.90811e-06 1.76253e-05)
(-1.32011e-05 -1.57579e-05 1.17132e-05)
(1.13385e-05 -1.71083e-05 -1.82974e-05)
(7.85962e-05 -1.84871e-05 -3.13726e-05)
(0.000152814 -2.09419e-05 -3.6893e-05)
(0.000241142 -2.4666e-05 -4.3322e-05)
(0.000346687 -2.92018e-05 -5.28126e-05)
(0.000474713 -3.34594e-05 -6.54348e-05)
(0.000629808 -3.64227e-05 -7.93489e-05)
(0.000806873 -3.56265e-05 -8.99562e-05)
(0.000997334 -3.31499e-05 -8.98623e-05)
(0.00116261 -2.48071e-05 -6.92108e-05)
(0.00127226 -3.45381e-05 -1.00541e-05)
(0.0012316 -5.74584e-05 9.51545e-05)
(0.00105025 -7.78629e-05 0.000153022)
(0.00082082 -9.43246e-05 0.00017966)
(0.000574361 -0.000103991 0.000179335)
(0.000342758 -0.00010952 0.000172452)
(0.000122575 -0.000111348 0.000167549)
(-9.23012e-05 -0.000110234 0.000167502)
(-0.000312892 -0.000106232 0.000172292)
(-0.000545329 -9.87726e-05 0.000179069)
(-0.000793083 -8.75259e-05 0.000179412)
(-0.00102486 -7.0192e-05 0.000153225)
(-0.00120941 -4.96586e-05 9.61989e-05)
(-0.00125624 -2.77638e-05 -7.26042e-06)
(-0.00115215 -1.95923e-05 -6.78915e-05)
(-0.000987534 -2.89237e-05 -9.07932e-05)
(-0.000793043 -3.249e-05 -9.41186e-05)
(-0.000605386 -3.45801e-05 -8.69359e-05)
(-0.000433412 -3.33674e-05 -7.67324e-05)
(-0.00028166 -3.14172e-05 -6.72266e-05)
(-0.000150314 -2.97458e-05 -5.76066e-05)
(-3.05692e-05 -2.87481e-05 -3.50345e-05)
(1.76134e-05 -2.68426e-05 1.7075e-05)
(-1.29674e-05 -2.62315e-05 1.11632e-05)
(1.05417e-05 -2.8462e-05 -1.80937e-05)
(7.5404e-05 -3.08188e-05 -3.07471e-05)
(0.000147355 -3.50975e-05 -3.60529e-05)
(0.000233457 -4.18306e-05 -4.21926e-05)
(0.000337241 -5.06142e-05 -5.11846e-05)
(0.000464272 -6.00869e-05 -6.30438e-05)
(0.000620452 -6.86065e-05 -7.57862e-05)
(0.000799865 -7.13822e-05 -8.50472e-05)
(0.00099716 -7.02497e-05 -8.34436e-05)
(0.00115885 -4.92636e-05 -6.32977e-05)
(0.00125164 -6.81685e-05 -4.0326e-06)
(0.00120469 -0.000115791 0.000102647)
(0.00102648 -0.000156282 0.000164079)
(0.000803009 -0.0001887 0.000193949)
(0.00056339 -0.000208334 0.00019693)
(0.00033709 -0.000219924 0.000192104)
(0.000121653 -0.000224349 0.000188188)
(-8.89488e-05 -0.000222867 0.000188083)
(-0.000304938 -0.000215512 0.000191764)
(-0.000532352 -0.000201254 0.00019635)
(-0.000773785 -0.000179306 0.000193259)
(-0.00100028 -0.000145584 0.000163729)
(-0.00118264 -0.00010485 0.000103082)
(-0.00123659 -5.91707e-05 -1.87108e-06)
(-0.00114929 -4.29634e-05 -6.24453e-05)
(-0.00098804 -6.50152e-05 -8.48686e-05)
(-0.00078698 -6.76118e-05 -8.96217e-05)
(-0.00059738 -6.67052e-05 -8.36553e-05)
(-0.000424936 -6.07909e-05 -7.44663e-05)
(-0.000274989 -5.48036e-05 -6.55962e-05)
(-0.000146278 -5.0398e-05 -5.64661e-05)
(-2.97748e-05 -4.79526e-05 -3.46402e-05)
(1.71079e-05 -4.46219e-05 1.61177e-05)
(-1.26856e-05 -3.52553e-05 1.04432e-05)
(9.17635e-06 -3.83333e-05 -1.77096e-05)