/*--------------------------------*- C++ -*----------------------------------*\
| =========                 |                                                 |
| \\      /  F ield         | OpenFOAM: The Open Source CFD Toolbox           |
|  \\    /   O peration     | Version:  2112                                  |
|   \\  /    A nd           | Website:  www.openfoam.com                      |
|    \\/     M anipulation  |                                                 |
\*---------------------------------------------------------------------------*/
FoamFile
{
    version     2.0;
    format      ascii;
    arch        "LSB;label=32;scalar=64";
    class       volScalarField;
    location    "3.9";
    object      epsilon;
}
// * * * * * * * * * * * * * * * * * * * * * * * * * * * * * * * * * * * * * //

dimensions      [0 2 -3 0 0 0 0];

internalField   nonuniform List<scalar> 
64906
(
0.000148524
0.000176154
0.000194224
0.000203412
0.000207707
0.000209594
0.00021037
0.00021066
0.000210748
0.000210752
0.000210725
0.000210693
0.000210669
0.00021065
0.000210634
0.00021062
0.000210608
0.000210598
0.000210594
0.0002106
0.00021061
0.000210623
0.000210637
0.000210652
0.000210665
0.000210664
0.000210592
0.000210324
0.000209569
0.000207697
0.000203413
0.000194232
0.000176168
0.000148535
0.000176175
0.00032906
0.000424158
0.0004767
0.000504453
0.000518266
0.000524616
0.000527205
0.000528011
0.000528031
0.000527758
0.000527436
0.000527177
0.00052701
0.000526918
0.000526866
0.000526836
0.00052682
0.000526821
0.000526836
0.000526866
0.000526915
0.000526993
0.000527113
0.000527233
0.000527171
0.00052645
0.000524041
0.000517902
0.000504274
0.000476652
0.000424186
0.000329107
0.000176208
0.000194279
0.000424209
0.000573928
0.00066102
0.000709533
0.00073494
0.0007471
0.000752063
0.000753335
0.00075287
0.000751769
0.00075065
0.000749802
0.000749288
0.000749021
0.000748879
0.0007488
0.000748764
0.000748767
0.000748808
0.00074889
0.000749024
0.000749256
0.000749654
0.000750169
0.00075041
0.000749368
0.000744978
0.000733519
0.000708746
0.000660697
0.000573876
0.000424276
0.000194337
0.000203492
0.00047681
0.000661087
0.000772157
0.000836135
0.000870551
0.000887084
0.000893265
0.000893748
0.00089142
0.000888158
0.000885171
0.000882998
0.000881723
0.000881072
0.000880709
0.000880489
0.000880384
0.000880389
0.000880502
0.000880725
0.000881075
0.000881665
0.000882748
0.000884384
0.000886
0.000886025
0.000881289
0.000866562
0.000833798
0.000771048
0.000660726
0.000476814
0.000203567
0.000207803
0.000504608
0.000709669
0.000836228
0.000910562
0.000950793
0.000969326
0.000974437
0.000971586
0.000964659
0.000956729
0.000950041
0.000945422
0.000942869
0.000941635
0.00094089
0.000940397
0.000940151
0.000940158
0.000940414
0.000940911
0.000941638
0.000942792
0.000945092
0.000949009
0.000953924
0.00095774
0.000955877
0.00094145
0.000904966
0.000833413
0.000708582
0.000504408
0.00020788
0.000209698
0.000518453
0.000735162
0.000870803
0.000951029
0.00099369
0.00101108
0.00101154
0.001001
0.000984694
0.000967911
0.000955053
0.000946807
0.000942711
0.000940968
0.000939721
0.000938791
0.000938316
0.000938324
0.000938813
0.000939749
0.000940979
0.000942635
0.00094645
0.000953903
0.000964735
0.000976813
0.000983149
0.000974347
0.000939394
0.000864813
0.000732681
0.000517818
0.000209755
0.000210477
0.000524839
0.000747468
0.000887671
0.000970176
0.00101197
0.00102445
0.00101518
0.000990098
0.000956377
0.000924218
0.000903459
0.000891794
0.00088712
0.000885771
0.000884092
0.000882616
0.000881857
0.000881865
0.000882641
0.000884128
0.000885797
0.00088707
0.000891478
0.000902353
0.000921011
0.000948169
0.000971199
0.000975672
0.000948549
0.000876489
0.000742692
0.000523452
0.000210483
0.000210768
0.000527496
0.000752708
0.000894546
0.000976668
0.0010147
0.00101824
0.000992732
0.000942655
0.000877541
0.000818879
0.000794708
0.000785526
0.000784362
0.000785749
0.000784157
0.000782342
0.000781422
0.000781432
0.00078237
0.000784201
0.000785794
0.000784357
0.000785315
0.000793823
0.00081602
0.000869644
0.000923674
0.000952367
0.000940379
0.000875953
0.000744681
0.000525018
0.000210686
0.00021086
0.000528431
0.000754486
0.000896327
0.000976491
0.00100885
0.00100014
0.00095135
0.000861156
0.000737124
0.000625619
0.000627191
0.000641762
0.00065331
0.000660683
0.000660605
0.000659433
0.000658812
0.000658822
0.000659462
0.000660653
0.000660745
0.000653356
0.000641701
0.000626701
0.0006236
0.000730245
0.000842859
0.000911091
0.000921693
0.000868797
0.000742612
0.000524661
0.000210659
0.000210874
0.000528668
0.000754842
0.00089611
0.000974029
0.00100067
0.00097926
0.000903373
0.00075577
0.000519104
0.000293775
0.000406056
0.000489315
0.000524902
0.000539071
0.000542498
0.000543175
0.000543263
0.000543272
0.000543201
0.000542543
0.000539138
0.000524986
0.000489401
0.000406071
0.000293218
0.000514197
0.000738692
0.000863647
0.000900825
0.000860223
0.000739472
0.000523726
0.00021055
0.000210864
0.000528706
0.000754889
0.000895819
0.000972521
0.000996036
0.000967258
0.000873129
0.000674472
0.000308598
0.000246007
0.000385324
0.000437092
0.000453414
0.000459014
0.000460683
0.000461081
0.000461086
0.000460699
0.000459043
0.000453461
0.000437168
0.000385438
0.000246066
0.000306528
0.000658674
0.000833832
0.000888891
0.000855432
0.000737674
0.000523148
0.000210466
0.000210847
0.000528755
0.000755121
0.000896357
0.000973607
0.00099841
0.000973404
0.000891744
0.000736802
0.00049427
0.000276964
0.000348558
0.000413918
0.00044061
0.000448031
0.000453334
0.000454976
0.000455269
0.000455267
0.000454973
0.000453331
0.000448023
0.000440601
0.000413893
0.000348389
0.0002763
0.000489306
0.000719778
0.000852013
0.000894775
0.000857527
0.00073843
0.000523345
0.000210456
0.000210837
0.00052886
0.000755599
0.000897649
0.000976642
0.00100525
0.000988769
0.000926664
0.000816778
0.000667409
0.000528266
0.000484862
0.000464618
0.000457743
0.000455181
0.000455605
0.000455771
0.000455722
0.000455717
0.000455756
0.000455578
0.000455132
0.000457654
0.000464416
0.000484269
0.000526265
0.000660745
0.000798712
0.000886337
0.000909716
0.000863974
0.000741034
0.000524154
0.000210518
0.000210828
0.00052899
0.000756178
0.000899209
0.000980251
0.001013
0.00100461
0.000957746
0.00087454
0.000763938
0.000650003
0.000563395
0.000502002
0.000474173
0.00046387
0.00046068
0.000459648
0.000459302
0.000459294
0.000459624
0.000460637
0.000463797
0.000474041
0.00050172
0.000562621
0.000647454
0.000756479
0.000855759
0.000916838
0.000925056
0.000871234
0.00074413
0.000525148
0.000210588
0.000210818
0.000529104
0.0007567
0.000900598
0.000983369
0.00101937
0.00101669
0.000979052
0.000908937
0.000812539
0.000703928
0.000602054
0.000523169
0.000484867
0.000470008
0.000464887
0.00046318
0.000462633
0.000462621
0.000463145
0.000464831
0.000469921
0.000484717
0.000522857
0.000601205
0.000701151
0.000804691
0.000889697
0.000937675
0.000936669
0.000877127
0.000746749
0.000526
0.000210635
0.000210803
0.000529182
0.000757085
0.000901611
0.000985584
0.00102371
0.00102444
0.000991674
0.000927406
0.000835939
0.000727812
0.000619734
0.000533485
0.000490468
0.000473381
0.000467338
0.000465282
0.000464601
0.000464583
0.000465238
0.000467274
0.000473286
0.00049031
0.00053316
0.000618827
0.000724928
0.000827882
0.000907877
0.000949956
0.000944042
0.00088107
0.000748553
0.000526581
0.000210653
0.000210785
0.000529222
0.000757323
0.000902235
0.000986914
0.00102622
0.00102872
0.00099826
0.00093639
0.000846496
0.000737973
0.000627309
0.000537945
0.000492959
0.000474907
0.000468456
0.000466225
0.000465444
0.00046542
0.000466172
0.000468385
0.000474807
0.000492795
0.000537611
0.000626324
0.000735035
0.00083833
0.000916694
0.000956327
0.00094808
0.000883314
0.000749601
0.000526907
0.000210647
0.000210767
0.000529233
0.000757438
0.000902533
0.000987533
0.00102736
0.0010306
0.00100102
0.000939988
0.000850523
0.000741697
0.000630058
0.00053956
0.000493865
0.000475456
0.000468846
0.000466529
0.000465675
0.000465644
0.000466468
0.000468769
0.000475352
0.000493698
0.000539223
0.00062906
0.000738738
0.000842312
0.000920218
0.00095899
0.000949831
0.000884314
0.000750075
0.000527044
0.000210628
0.000210752
0.000529224
0.000757448
0.000902557
0.000987571
0.00102741
0.00103067
0.00100112
0.000940102
0.000850652
0.000741831
0.000630182
0.000539646
0.000493915
0.000475476
0.000468841
0.000466497
0.0004656
0.000465562
0.00046643
0.00046876
0.000475369
0.000493747
0.000539309
0.000629187
0.000738878
0.000842448
0.000920339
0.000959087
0.000949905
0.000884364
0.000750102
0.000527039
0.000210604
0.000210749
0.000529202
0.000757355
0.000902307
0.000987027
0.00102638
0.00102894
0.000998543
0.000936737
0.000846894
0.000738393
0.000627702
0.000538216
0.000493119
0.000474975
0.000468452
0.00046614
0.000465247
0.000465206
0.000466068
0.000468368
0.000474867
0.000492953
0.000537887
0.000626729
0.000735479
0.000838753
0.000917062
0.000956623
0.000948301
0.000883464
0.000749683
0.000526901
0.000210591
0.000210759
0.000529162
0.000757137
0.000901726
0.000985765
0.00102397
0.0010248
0.000992149
0.000928004
0.000836644
0.000728578
0.000620447
0.000533983
0.000490768
0.000473522
0.000467355
0.000465173
0.000464349
0.000464311
0.000465102
0.000467271
0.000473417
0.000490611
0.000533674
0.000619528
0.000725747
0.000828639
0.000908514
0.000950453
0.000944406
0.000881316
0.000748689
0.000526586
0.000210586
0.000210771
0.000529088
0.000756765
0.000900739
0.000983596
0.00101971
0.00101717
0.000979707
0.000909804
0.000813618
0.000705157
0.000603085
0.000523946
0.000485327
0.000470231
0.000464931
0.000463064
0.000462382
0.000462353
0.000463
0.000464852
0.000470134
0.000485188
0.000523677
0.000602304
0.000702489
0.00080586
0.000890618
0.000938351
0.000937146
0.000877446
0.000746927
0.000526022
0.000210565
0.000210781
0.00052897
0.000756229
0.000899327
0.000980452
0.00101332
0.00100511
0.000958507
0.000875658
0.000765474
0.000651848
0.000564947
0.000503018
0.000474667
0.000464021
0.000460586
0.000459381
0.000458925
0.000458904
0.000459327
0.000460513
0.000463929
0.000474544
0.000502806
0.000564327
0.000649495
0.000758159
0.000856917
0.000917579
0.000925531
0.000871542
0.000744306
0.000525176
0.000210515
0.000210788
0.000528805
0.000755554
0.000897602
0.000976619
0.00100531
0.000989012
0.000927246
0.00081793
0.000669312
0.000530774
0.000486928
0.000465268
0.000457478
0.000454396
0.000454474
0.000454455
0.000454318
0.0004543
0.000454404
0.000454387
0.000454261
0.000457292
0.000465058
0.000486577
0.000529071
0.000662826
0.000799758
0.000886717
0.000909837
0.000864037
0.000741082
0.000524142
0.00021044
0.000210788
0.000528571
0.000754757
0.000895786
0.000972872
0.000997609
0.000972693
0.00089141
0.000737334
0.000496155
0.000278069
0.000348991
0.000411405
0.000436379
0.000442751
0.0004475
0.000448928
0.000449137
0.000449113
0.000448842
0.000447302
0.000442344
0.000435718
0.000410671
0.000348759
0.000277427
0.000491277
0.000719636
0.000850933
0.00089369
0.000856787
0.00073804
0.000523167
0.000210364
0.00021077
0.000528147
0.000753655
0.000893864
0.000969933
0.00099296
0.000963855
0.000869656
0.000671683
0.000307727
0.000240771
0.000371486
0.000418175
0.000431292
0.000435735
0.000437068
0.000437352
0.000437288
0.000436817
0.000435093
0.000429846
0.00041547
0.000367714
0.00023848
0.00030441
0.000653162
0.000828168
0.000884579
0.000852638
0.000736145
0.000522513
0.000210334
0.00021068
0.000527122
0.000751467
0.00089089
0.000967205
0.000992534
0.000969984
0.000893009
0.000744636
0.000508723
0.000286535
0.000377124
0.000444043
0.000465275
0.00046989
0.000470933
0.000471258
0.000471306
0.000471176
0.000470709
0.000469363
0.000465942
0.000456875
0.000430073
0.000363172
0.000279973
0.000494667
0.000719358
0.000848279
0.000889904
0.000853098
0.00073539
0.000521988
0.000210299
0.000210401
0.000524501
0.000746252
0.000884
0.000960705
0.000990198
0.00097875
0.000926475
0.000831002
0.000698723
0.000573982
0.000547841
0.000531451
0.00051138
0.000499811
0.000495166
0.000493644
0.000493171
0.000492969
0.000492739
0.00049236
0.000492092
0.000493051
0.000496965
0.000508864
0.000539568
0.000666119
0.000795613
0.000877457
0.000898315
0.000853149
0.000733173
0.000520409
0.00021013
0.000209642
0.000518236
0.000734285
0.00086795
0.000943478
0.000976275
0.000974956
0.00094319
0.000882891
0.00080026
0.000713146
0.000646293
0.000585023
0.000532537
0.000507206
0.000497676
0.000494563
0.000493641
0.000493393
0.00049341
0.000493914
0.000496222
0.000504414
0.000528105
0.000581948
0.000655421
0.000752142
0.000839385
0.000891787
0.00089655
0.000844896
0.000724692
0.000515352
0.000209483
0.00020777
0.000504542
0.000709246
0.000834512
0.000905625
0.00093897
0.000944358
0.000926769
0.00088852
0.000832347
0.000764219
0.000692146
0.000618679
0.000555819
0.000525161
0.000513352
0.000509388
0.000508202
0.000507924
0.000508086
0.000509088
0.000512737
0.000524157
0.000554807
0.000619547
0.000699083
0.00077968
0.000843913
0.000877897
0.000872474
0.000818673
0.000702914
0.00050277
0.000207706
0.000203479
0.000476881
0.000661073
0.000771498
0.000833642
0.000863905
0.00087222
0.000863747
0.000840482
0.000803204
0.000753459
0.000694828
0.00063329
0.000580659
0.000552497
0.000540775
0.000536547
0.000535211
0.000534921
0.000535161
0.000536432
0.000540559
0.000552203
0.000580482
0.000634241
0.00069811
0.000758379
0.000803009
0.000823293
0.000812416
0.00076182
0.000657462
0.000475998
0.000203484
0.000194286
0.000424374
0.000574182
0.000661096
0.000708825
0.000732216
0.000740099
0.000737003
0.000724509
0.00070271
0.000671733
0.000633352
0.000592406
0.000557379
0.000537087
0.000527877
0.000524384
0.000523251
0.000522999
0.000523232
0.000524337
0.000527793
0.00053699
0.000557413
0.000592898
0.000634517
0.000672566
0.000699298
0.000709275
0.000697457
0.000656284
0.00057261
0.000424108
0.00019434
0.000176207
0.000329226
0.000424477
0.000477092
0.000504701
0.000517898
0.000522715
0.000522159
0.000517251
0.000507893
0.000493775
0.00047552
0.000455596
0.000438268
0.000427665
0.000422569
0.000420533
0.000419838
0.000419681
0.000419843
0.000420538
0.000422572
0.000427673
0.00043833
0.000455797
0.000475858
0.000493666
0.000505483
0.000508741
0.000500521
0.000475572
0.000424146
0.000329274
0.000176271
0.000148556
0.000176251
0.000194411
0.000203683
0.000208046
0.000209968
0.000210701
0.000210791
0.000210389
0.000209439
0.000207931
0.000205819
0.000203333
0.000201042
0.000199586
0.000198851
0.000198519
0.000198366
0.000198313
0.000198373
0.000198526
0.000198854
0.000199585
0.000201037
0.000203331
0.00020582
0.000207881
0.000209167
0.000209348
0.000207915
0.000203758
0.000194534
0.000176343
0.000148602
0.000198596
0.000293955
0.000358754
0.000394841
0.000413595
0.000422736
0.000426853
0.0004285
0.000429
0.000428999
0.000428811
0.000428586
0.000428397
0.000428263
0.000428176
0.000428118
0.00042808
0.00042806
0.000428059
0.000428076
0.000428111
0.000428164
0.00042824
0.000428344
0.000428447
0.000428431
0.000427991
0.000426458
0.000422471
0.000413443
0.00039477
0.000358733
0.000293958
0.000198608
0.000293961
0.000367512
0.000440164
0.000484823
0.000509473
0.000522025
0.000527875
0.000530271
0.000530998
0.000530978
0.000530677
0.000530327
0.00053004
0.000529846
0.000529727
0.000529656
0.000529613
0.000529592
0.000529592
0.000529613
0.000529656
0.000529723
0.000529827
0.000529975
0.000530124
0.000530101
0.000529455
0.000527233
0.00052159
0.000509225
0.000484716
0.000440149
0.000367554
0.000293967
0.000358795
0.000440185
0.00052905
0.000586671
0.000620064
0.000637831
0.000646383
0.000649864
0.000650725
0.000650349
0.000649518
0.000648669
0.000648008
0.000647578
0.000647329
0.000647183
0.000647098
0.000647057
0.000647058
0.0006471
0.000647185
0.000647322
0.000647544
0.000647886
0.000648304
0.000648519
0.000647815
0.000644738
0.000636688
0.000619386
0.000586348
0.00052896
0.000440225
0.000358798
0.000394921
0.000484874
0.000586704
0.000654736
0.000695346
0.000717468
0.000728128
0.0007321
0.00073239
0.000730875
0.000728771
0.000726839
0.00072542
0.000724543
0.000724056
0.000723777
0.000723609
0.000723527
0.000723528
0.000723612
0.000723779
0.000724046
0.00072449
0.000725236
0.000726299
0.000727329
0.000727316
0.000724235
0.00071472
0.000693669
0.000653877
0.000586377
0.000484838
0.000394887
0.000413711
0.000509553
0.000620139
0.0006954
0.000741059
0.000766032
0.00077757
0.000780771
0.000779063
0.000774896
0.000770173
0.000766203
0.000763478
0.000761899
0.000761069
0.000760595
0.000760295
0.000760143
0.000760145
0.000760299
0.000760598
0.000761057
0.000761832
0.000763243
0.000765517
0.00076836
0.000770486
0.000769135
0.00076004
0.00073735
0.000693424
0.000619281
0.000509305
0.000413558
0.000422883
0.000522135
0.000637966
0.000717626
0.000766181
0.000792254
0.000802952
0.000803378
0.000797257
0.000787844
0.000778314
0.000771011
0.000766464
0.000764073
0.00076291
0.000762251
0.000761789
0.000761539
0.000761541
0.000761795
0.000762257
0.0007629
0.000764003
0.000766206
0.000770239
0.000776257
0.000782844
0.000786079
0.000780295
0.000758762
0.000713602
0.00063611
0.000521459
0.000422475
0.000427034
0.000528029
0.000646626
0.000728509
0.000778102
0.000803488
0.00081125
0.000806085
0.000791824
0.000772996
0.000755434
0.000743496
0.000737359
0.000734681
0.000733527
0.000732948
0.000732398
0.000732055
0.000732058
0.000732407
0.000732958
0.000733525
0.000734622
0.000737112
0.000742715
0.000753281
0.000767682
0.000779899
0.000781547
0.000764605
0.000721168
0.000643147
0.000526635
0.000426183
0.000428729
0.000530504
0.000650316
0.000732935
0.000782146
0.000805257
0.000807868
0.000793631
0.000765962
0.000731338
0.000701662
0.000684086
0.000679108
0.000678306
0.000678029
0.000678467
0.000678218
0.000677897
0.000677901
0.000678229
0.000678483
0.00067804
0.000678274
0.000678912
0.000683379
0.000699545
0.000725926
0.000753664
0.000768287
0.000759841
0.000720902
0.000644558
0.00052809
0.000427233
0.000429308
0.000531374
0.000651551
0.000734057
0.000782045
0.00080186
0.000797647
0.00077108
0.000723875
0.000665103
0.000624396
0.000593985
0.00059854
0.000604817
0.000606368
0.000610287
0.000611398
0.000611431
0.000611435
0.000611411
0.000610309
0.000606394
0.000604826
0.000598439
0.000593455
0.000622342
0.000659645
0.000711364
0.000745278
0.000748864
0.000716433
0.000643125
0.000527763
0.000427044
0.000429435
0.000531584
0.000651769
0.000733876
0.00078052
0.000797121
0.000786223
0.000746944
0.000678325
0.000597554
0.000688643
0.000485863
0.000511057
0.000531651
0.000534525
0.000545606
0.000549249
0.00054993
0.000549935
0.000549266
0.000545634
0.000534562
0.000531702
0.000511084
0.000485577
0.000685232
0.000591561
0.000665443
0.000720774
0.000736979
0.000711118
0.000640935
0.000526891
0.000426467
0.000429426
0.000531602
0.000651755
0.000733623
0.00077954
0.000794433
0.000780038
0.000734743
0.000664315
0.000752131
0.000489403
0.000435316
0.000463409
0.00047886
0.000481086
0.000481332
0.000481361
0.000481363
0.00048134
0.000481103
0.000478891
0.000463459
0.000435393
0.000489426
0.000740135
0.000650654
0.000708264
0.000730527
0.000708127
0.000639625
0.000526317
0.000426069
0.000429414
0.000531628
0.000651862
0.000733874
0.000780052
0.000795497
0.000782354
0.000739227
0.000664273
0.000571337
0.000609455
0.000436196
0.00047901
0.000512116
0.000543128
0.000525156
0.000518536
0.000517148
0.000517144
0.000518524
0.000525134
0.000543115
0.000512092
0.000478939
0.000435814
0.000606004
0.000565298
0.000651347
0.000712889
0.000732816
0.00070908
0.000639984
0.000526429
0.000426112
0.000429432
0.000531712
0.000652147
0.000734616
0.000781778
0.000799295
0.000790421
0.000755694
0.000695318
0.000616027
0.000545443
0.000492938
0.000483488
0.000481934
0.00048609
0.000480842
0.000478426
0.000477772
0.000477769
0.000478418
0.000480828
0.000486071
0.000481875
0.000483308
0.000492321
0.000543372
0.000610556
0.000682641
0.000729481
0.000740915
0.000712838
0.000641632
0.00052711
0.000426513
0.000429467
0.000531828
0.000652512
0.00073555
0.000783907
0.000803807
0.000799446
0.000772741
0.00072517
0.000661538
0.000594405
0.000538464
0.000502915
0.000481296
0.000473107
0.000469304
0.000467889
0.000467466
0.000467463
0.000467879
0.000469284
0.000473068
0.000481202
0.000502668
0.000537748
0.000592296
0.000656032
0.000712487
0.00074652
0.000749904
0.000717282
0.000643676
0.000527985
0.000427028
0.000429497
0.000531938
0.00065285
0.000736396
0.000785781
0.000807614
0.000806632
0.00078533
0.000745316
0.000689794
0.000626124
0.000565454
0.000518916
0.000488008
0.000474686
0.00046989
0.000468348
0.000467914
0.00046791
0.000468336
0.000469866
0.000474638
0.000487898
0.000518641
0.000564683
0.000623933
0.000684193
0.000732543
0.000759021
0.000756996
0.000720983
0.000645443
0.000528755
0.000427467
0.000429511
0.000532019
0.000653102
0.000737017
0.000787119
0.000810234
0.000811338
0.000793072
0.000756823
0.000704783
0.000642289
0.000579054
0.000527773
0.000492764
0.000477217
0.000471669
0.000469928
0.000469449
0.000469445
0.000469915
0.000471644
0.000477165
0.000492648
0.000527486
0.000578252
0.000640043
0.000699102
0.000743954
0.000766659
0.000761591
0.000723488
0.000646673
0.000529294
0.000427758
0.00042951
0.000532067
0.000653257
0.000737397
0.000787921
0.000811755
0.000813964
0.000797183
0.00076259
0.000711864
0.000649593
0.000585102
0.000531795
0.000495071
0.000478592
0.000472682
0.000470827
0.000470317
0.000470311
0.000470813
0.000472656
0.000478538
0.000494951
0.000531501
0.000584276
0.000647314
0.000706131
0.000749652
0.000770687
0.000764126
0.000724918
0.000647389
0.000529607
0.00042791
0.0004295
0.000532088
0.00065333
0.000737574
0.000788289
0.000812437
0.000815106
0.000798909
0.000764919
0.000714606
0.000652324
0.000587327
0.000533271
0.000495931
0.000479114
0.000473066
0.000471163
0.000470635
0.000470628
0.000471148
0.000473039
0.00047906
0.00049581
0.000532973
0.000586489
0.000650031
0.000708849
0.000751945
0.00077237
0.000765219
0.000725549
0.000647708
0.000529744
0.000427963
0.000429487
0.000532087
0.000653334
0.000737582
0.000788302
0.000812458
0.000815135
0.000798949
0.000764969
0.000714666
0.00065239
0.000587394
0.000533326
0.000495967
0.000479133
0.000473074
0.000471164
0.00047063
0.000470622
0.000471148
0.000473046
0.000479078
0.000495846
0.000533029
0.000586557
0.0006501
0.000708911
0.000751996
0.000772408
0.000765246
0.000725566
0.000647718
0.000529745
0.000427947
0.000429477
0.000532065
0.000653267
0.00073742
0.000787961
0.000811816
0.000814051
0.000797301
0.000762744
0.000712051
0.000649803
0.000585314
0.000531969
0.000495187
0.000478655
0.000472713
0.000470839
0.000470312
0.000470305
0.000470823
0.000472686
0.000478601
0.00049507
0.00053168
0.000584492
0.000647535
0.000706327
0.00074981
0.000770804
0.000764207
0.000724969
0.000647416
0.000529612
0.000427869
0.000429466
0.000532016
0.000653117
0.000737052
0.000787181
0.000810331
0.000811482
0.000793274
0.000757092
0.00070512
0.000642679
0.000579441
0.000528096
0.000492983
0.000477342
0.000471743
0.000469972
0.000469473
0.000469466
0.000469957
0.000471719
0.000477294
0.000492875
0.000527825
0.000578655
0.000640456
0.000699456
0.000744228
0.000766855
0.000761723
0.000723571
0.000646717
0.000529306
0.000427703
0.000429444
0.000531934
0.000652864
0.000736433
0.000785851
0.000807731
0.000806816
0.000785605
0.000745708
0.000690316
0.000626751
0.000566071
0.000519417
0.000488325
0.000474854
0.000469988
0.000468412
0.000467959
0.000467954
0.0004684
0.000469968
0.000474814
0.000488233
0.000519178
0.000565347
0.000624606
0.000684739
0.000732932
0.000759278
0.000757156
0.000721079
0.000645494
0.000528771
0.000427405
0.000429402
0.000531812
0.000652503
0.000735554
0.000783939
0.000803888
0.000799609
0.000773034
0.000725653
0.000662257
0.000595322
0.000539349
0.00050349
0.000481508
0.000473057
0.000469175
0.000467728
0.000467291
0.000467287
0.000467718
0.000469155
0.000473015
0.000481422
0.000503285
0.000538713
0.000593283
0.000656761
0.00071292
0.000746743
0.000750011
0.000717332
0.000643699
0.000527987
0.000426951
0.000429337
0.00053165
0.000652054
0.000734494
0.000781644
0.000799184
0.000790381
0.000755805
0.000695703
0.000616828
0.00054664
0.000493865
0.000483482
0.00048115
0.000484779
0.000479458
0.000477005
0.000476335
0.000476329
0.000476984
0.000479407
0.000484679
0.000480978
0.000483218
0.0004933
0.00054463
0.00061123
0.000682791
0.000729364
0.000740731
0.000712683
0.00064153
0.00052705
0.000426393
0.000429231
0.000531428
0.000651523
0.000733386
0.00077944
0.000794806
0.000781643
0.000738591
0.000663897
0.000571488
0.000611782
0.000435273
0.000476095
0.000507756
0.00053786
0.00051957
0.000512811
0.000511398
0.000511391
0.00051277
0.000519433
0.000537564
0.00050712
0.000475183
0.000434174
0.0006083
0.000564722
0.000650086
0.00071159
0.000731759
0.000708337
0.000639527
0.000526183
0.000425871
0.000428999
0.000531025
0.000650772
0.000732207
0.000777732
0.000792288
0.000777585
0.000731954
0.000661
0.000745226
0.000468831
0.000419125
0.00044342
0.000456046
0.000457163
0.00045713
0.000457105
0.000457054
0.000456917
0.000456568
0.000454629
0.000440575
0.000414498
0.000460275
0.000727292
0.000644557
0.000703795
0.000727337
0.000705987
0.000638308
0.000525602
0.000425524
0.000428376
0.000530053
0.000649234
0.000730301
0.000776004
0.000791757
0.000779971
0.000739483
0.000668766
0.00058297
0.00064758
0.000451518
0.000466894
0.000477131
0.000473434
0.000481194
0.000484127
0.000484738
0.000484628
0.000483645
0.000479765
0.000469763
0.000469306
0.000453842
0.000434639
0.000617894
0.00056614
0.00064958
0.000709883
0.000729468
0.000706059
0.000637731
0.000525082
0.000425201
0.000426712
0.000527594
0.000645543
0.000725835
0.000771873
0.000789958
0.000783902
0.00075471
0.000702949
0.000635584
0.000578965
0.000530735
0.000513473
0.000499757
0.0004885
0.000486605
0.000486324
0.000486185
0.000486005
0.00048551
0.000484079
0.000481731
0.000484852
0.000489594
0.000502118
0.000550836
0.000612308
0.000679654
0.000723462
0.000733589
0.000705789
0.00063606
0.00052355
0.000424147
0.000422638
0.0005218
0.000637104
0.000715451
0.000761063
0.000781144
0.000780714
0.000762329
0.000727696
0.000680895
0.000631427
0.000587124
0.0005515
0.00052456
0.000504883
0.000496762
0.000494053
0.000493233
0.000492994
0.000492951
0.000493228
0.000495085
0.000502812
0.000521305
0.000550393
0.00059697
0.000652217
0.000701334
0.000730433
0.000731853
0.000700229
0.00062999
0.000518844
0.000420786
0.000413559
0.000509351
0.00061959
0.000693942
0.000737507
0.00075817
0.000761666
0.000751239
0.000728646
0.000695863
0.000656453
0.000614707
0.000574659
0.00054286
0.000519654
0.000509229
0.000505499
0.000504336
0.000504059
0.000504229
0.000505208
0.000508659
0.000518883
0.00054221
0.000575791
0.000620266
0.000665923
0.000702214
0.000720972
0.000716463
0.000683191
0.000614695
0.000507404
0.000412367
0.000394855
0.000484798
0.000586455
0.000653965
0.000693286
0.000712649
0.00071802
0.000712784
0.000698463
0.000675845
0.000646077
0.000611342
0.000575515
0.000545113
0.000524628
0.000514895
0.000511144
0.000509901
0.000509614
0.000509869
0.000511058
0.000514733
0.00052444
0.000545144
0.000576485
0.000613958
0.000649376
0.000675453
0.000686857
0.000679142
0.000646977
0.000583403
0.000483664
0.000394194
0.000358793
0.000440205
0.000529029
0.000586424
0.000619152
0.000635377
0.000640817
0.000638633
0.000630083
0.000615423
0.000594872
0.000569615
0.000542743
0.000519461
0.00050414
0.000496528
0.000493428
0.00049235
0.0004921
0.000492349
0.00049342
0.00049651
0.000504141
0.000519605
0.000543283
0.000570649
0.000595523
0.000612879
0.000619072
0.000610572
0.000582382
0.000527368
0.00043965
0.000358511
0.000293995
0.000367589
0.000440276
0.000484893
0.000509281
0.00052111
0.00052537
0.000524686
0.000520012
0.000511372
0.000498637
0.000482399
0.000464756
0.000449315
0.000439283
0.000434217
0.000432096
0.000431339
0.000431163
0.000431351
0.000432118
0.000434248
0.000439335
0.00044944
0.000465032
0.000482788
0.000498545
0.000509076
0.00051203
0.000504762
0.000482908
0.000439532
0.000367375
0.000293939
0.00019863
0.000293994
0.000358853
0.000394971
0.000413628
0.000422381
0.000425539
0.000425204
0.000422062
0.000416033
0.000406901
0.000395008
0.000381932
0.000370524
0.00036347
0.000360031
0.000358603
0.000358083
0.00035796
0.000358096
0.000358625
0.000360058
0.000363508
0.0003706
0.000382091
0.000395228
0.000406803
0.000414441
0.000416471
0.000410871
0.000393878
0.00035851
0.000293929
0.000198669
0.000230242
0.000381983
0.000488577
0.000550457
0.000584163
0.000601398
0.000609519
0.000612883
0.000613906
0.00061385
0.00061337
0.000612807
0.00061233
0.000611995
0.000611782
0.000611648
0.000611567
0.000611527
0.000611526
0.000611564
0.000611642
0.000611767
0.000611953
0.000612214
0.000612481
0.000612494
0.000611611
0.000608512
0.000600697
0.000583735
0.000550231
0.000488478
0.000381954
0.000230254
0.000381984
0.000437233
0.000514567
0.000565602
0.000595197
0.000610905
0.000618504
0.00062172
0.000622721
0.000622689
0.000622251
0.000621737
0.000621305
0.000621004
0.000620816
0.000620703
0.000620636
0.000620604
0.000620605
0.000620636
0.000620701
0.000620807
0.000620969
0.000621195
0.000621416
0.000621385
0.000620496
0.000617524
0.000610219
0.000594784
0.000565402
0.000514512
0.000437262
0.000381953
0.000488621
0.000514581
0.00059324
0.000649465
0.000683906
0.000702997
0.000712503
0.000716486
0.000717501
0.000717066
0.000716073
0.000715036
0.000714204
0.00071364
0.000713296
0.000713094
0.000712977
0.000712922
0.000712923
0.000712977
0.000713091
0.00071328
0.000713582
0.000714028
0.000714543
0.000714792
0.000713952
0.000710432
0.000701516
0.000682988
0.000648993
0.000593074
0.000514583
0.000488537
0.000550558
0.000565643
0.000649494
0.000711748
0.00075104
0.000773297
0.000784362
0.000788604
0.000788965
0.000787374
0.000785114
0.000782991
0.000781383
0.000780333
0.000779713
0.000779362
0.00077916
0.000779064
0.000779064
0.00077916
0.000779358
0.00077969
0.000780251
0.000781134
0.00078231
0.000783384
0.000783283
0.000779948
0.000770092
0.000749003
0.000710637
0.000649014
0.000565511
0.000550333
0.000584322
0.000595273
0.00068398
0.000751098
0.00079406
0.000818431
0.000830029
0.000833398
0.000831814
0.000827722
0.000823017