/*--------------------------------*- C++ -*----------------------------------*\
| =========                 |                                                 |
| \\      /  F ield         | OpenFOAM: The Open Source CFD Toolbox           |
|  \\    /   O peration     | Version:  2112                                  |
|   \\  /    A nd           | Website:  www.openfoam.com                      |
|    \\/     M anipulation  |                                                 |
\*---------------------------------------------------------------------------*/
FoamFile
{
    version     2.0;
    format      ascii;
    arch        "LSB;label=32;scalar=64";
    class       volScalarField;
    location    "3.9";
    object      k;
}
// * * * * * * * * * * * * * * * * * * * * * * * * * * * * * * * * * * * * * //

dimensions      [0 2 -2 0 0 0 0];

internalField   nonuniform List<scalar> 
64906
(
0.000257977
0.000289311
0.000308975
0.000318782
0.000323341
0.000325347
0.000326176
0.000326488
0.000326582
0.000326586
0.000326557
0.000326521
0.000326495
0.000326474
0.000326457
0.000326442
0.000326428
0.000326418
0.000326414
0.00032642
0.000326431
0.000326445
0.00032646
0.000326477
0.00032649
0.00032649
0.000326413
0.000326125
0.000325319
0.000323329
0.000318782
0.000308983
0.000289326
0.00025799
0.000289334
0.000439363
0.00052079
0.00056329
0.00058521
0.00059603
0.000601001
0.000603034
0.000603668
0.000603681
0.000603462
0.000603203
0.000602993
0.000602858
0.000602782
0.00060274
0.000602714
0.000602702
0.000602702
0.000602714
0.000602739
0.000602779
0.000602843
0.000602941
0.000603039
0.000602991
0.000602424
0.000600534
0.00059573
0.000585058
0.000563246
0.00052081
0.000439404
0.000289371
0.000309035
0.000520833
0.000637593
0.00070098
0.000735216
0.000752921
0.000761366
0.000764816
0.0007657
0.00076537
0.000764593
0.000763799
0.000763195
0.000762826
0.000762631
0.000762528
0.00076247
0.000762444
0.000762446
0.000762476
0.000762535
0.000762633
0.000762801
0.000763087
0.000763454
0.000763628
0.000762904
0.000759853
0.000751897
0.000734637
0.000700731
0.000637544
0.000520884
0.000309096
0.000318867
0.000563378
0.000701028
0.000777958
0.000820747
0.000843412
0.000854242
0.000858289
0.000858604
0.000857067
0.000854908
0.000852921
0.000851468
0.000850608
0.000850165
0.000849917
0.000849768
0.000849697
0.0008497
0.000849776
0.000849927
0.000850165
0.000850567
0.000851295
0.000852387
0.00085346
0.000853479
0.000850375
0.000840723
0.000819141
0.000777166
0.000700748
0.000563373
0.000318945
0.000323443
0.000585332
0.000735313
0.000820811
0.000869174
0.000894899
0.000906674
0.000909921
0.000908111
0.000903694
0.000898611
0.000894296
0.000891296
0.000889625
0.000888809
0.000888317
0.000887994
0.000887834
0.000887838
0.000888004
0.000888329
0.000888809
0.000889571
0.000891075
0.000893614
0.000896776
0.000899212
0.00089802
0.00088883
0.000865467
0.000818878
0.000734512
0.000585158
0.000323522
0.000325457
0.000596177
0.000753078
0.000843582
0.000895055
0.000921929
0.000932814
0.000933114
0.000926531
0.00091627
0.000905628
0.000897396
0.000892068
0.000889393
0.00088824
0.000887423
0.000886819
0.000886511
0.000886516
0.000886832
0.00088744
0.000888245
0.00088934
0.000891828
0.000896636
0.000903558
0.000911199
0.000915167
0.000909611
0.000887506
0.000839556
0.000751296
0.000595653
0.000325513
0.000326288
0.000601177
0.000761628
0.000854637
0.000907228
0.000933381
0.000941157
0.000935434
0.000919791
0.000898534
0.000877983
0.000864498
0.000856813
0.00085368
0.000852745
0.000851625
0.000850653
0.000850154
0.00085016
0.000850669
0.000851648
0.000852761
0.000853643
0.000856596
0.000863753
0.000875858
0.000893197
0.000907711
0.000910472
0.000893349
0.00084721
0.000758243
0.000600056
0.000326289
0.000326601
0.000603265
0.000765276
0.000859149
0.000911367
0.000935125
0.000937367
0.00092154
0.000890039
0.000848229
0.000809601
0.000793191
0.000786762
0.000785823
0.000786683
0.000785571
0.000784328
0.000783701
0.000783708
0.000784348
0.0007856
0.000786712
0.000785816
0.000786609
0.000792568
0.000807628
0.00084294
0.000877695
0.000895825
0.000888178
0.000846874
0.000759628
0.000601283
0.000326506
0.000326702
0.000604005
0.000766521
0.000860329
0.00091128
0.000931515
0.000926166
0.000895627
0.000837779
0.000754868
0.000676211
0.000676846
0.000686935
0.000695003
0.000700188
0.000700083
0.000699226
0.000698775
0.000698782
0.000699246
0.000700117
0.000700231
0.000695034
0.000686884
0.000676469
0.000674684
0.000749981
0.000825506
0.000869591
0.00087627
0.000842199
0.000758198
0.000601005
0.000326477
0.000326718
0.000604194
0.000766773
0.000860196
0.000909735
0.000926432
0.000913142
0.000865122
0.000767765
0.000597233
0.000408108
0.000505958
0.000572696
0.000600068
0.000610835
0.000613384
0.000613877
0.000613939
0.000613946
0.000613897
0.000613419
0.000610886
0.000600132
0.000572761
0.000505964
0.000407565
0.000593312
0.000755792
0.000838967
0.000862874
0.000836574
0.000756019
0.000600272
0.000326361
0.000326707
0.000604225
0.000766807
0.000860007
0.000908778
0.000923526
0.000905588
0.000845584
0.000711496
0.000421932
0.000361903
0.000487858
0.000530604
0.00054374
0.000548228
0.000549568
0.000549888
0.000549892
0.00054958
0.000548251
0.000543778
0.000530667
0.000487954
0.00036196
0.000419962
0.00069999
0.000819409
0.000855143
0.000833408
0.000754762
0.000599816
0.000326271
0.00032669
0.000604264
0.000766967
0.000860353
0.00090945
0.000924972
0.000909371
0.000857466
0.00075454
0.000577597
0.000392025
0.000456133
0.000511235
0.000532906
0.000538818
0.000543119
0.000544458
0.0005447
0.000544699
0.000544456
0.000543117
0.000538812
0.000532899
0.000511213
0.000455978
0.00039137
0.000573572
0.000742505
0.000831192
0.000858867
0.000834748
0.00075527
0.000599966
0.00032626
0.000326679
0.000604348
0.000767299
0.00086119
0.000911351
0.0009292
0.000918901
0.000879653
0.000808097
0.000705565
0.000602912
0.000568569
0.000552066
0.000546359
0.000544215
0.000544558
0.000544701
0.000544666
0.000544662
0.000544689
0.000544536
0.000544176
0.000546287
0.0005519
0.000568085
0.000601323
0.000700678
0.000795762
0.000853333
0.000868401
0.000838942
0.000757061
0.000600596
0.000326326
0.00032667
0.000604451
0.000767701
0.000862207
0.000913621
0.000933997
0.000928712
0.000899218
0.000845743
0.000772058
0.000692372
0.000628554
0.000581342
0.000559299
0.00055102
0.000548448
0.000547619
0.000547341
0.000547334
0.000547599
0.000548413
0.000550961
0.000559193
0.000581116
0.000627952
0.000690481
0.00076683
0.000833213
0.000872819
0.000878172
0.000843674
0.000759199
0.000601373
0.000326401
0.000326659
0.000604543
0.000768066
0.000863114
0.000915587
0.000937947
0.000936184
0.000912543
0.000867811
0.000804514
0.000730234
0.000657093
0.000597642
0.000567695
0.000555855
0.000551743
0.000550368
0.000549928
0.000549918
0.000550341
0.000551698
0.000555785
0.000567574
0.000597396
0.000656447
0.000728228
0.000799126
0.000855143
0.000886043
0.000885559
0.000847521
0.000761014
0.000602042
0.000326453
0.000326644
0.000604606
0.000768335
0.000863779
0.000916989
0.000940642
0.000940978
0.00092042
0.000879581
0.000819949
0.000746735
0.000669972
0.000605532
0.000572089
0.000558521
0.000553678
0.000552025
0.000551476
0.000551462
0.000551989
0.000553626
0.000558445
0.000571962
0.000605277
0.00066929
0.000744674
0.00081447
0.00086681
0.000893818
0.000890251
0.0008501
0.000762268
0.0006025
0.000326474
0.000326625
0.000604638
0.000768503
0.00086419
0.000917834
0.000942209
0.000943637
0.000924532
0.000885299
0.000826889
0.000753724
0.000675469
0.00060894
0.000574046
0.000559731
0.000554566
0.000552772
0.000552143
0.000552124
0.000552729
0.000554509
0.000559651
0.000573915
0.000608679
0.000674732
0.000751634
0.00082136
0.00087246
0.000897854
0.000892826
0.000851572
0.000763
0.000602759
0.000326469
0.000326606
0.000604647
0.000768584
0.000864386
0.000918228
0.000942919
0.000944801
0.000926261
0.000887592
0.000829538
0.000756287
0.000677467
0.000610177
0.00057476
0.000560169
0.000554876
0.000553014
0.000552326
0.000552301
0.000552965
0.000554815
0.000560085
0.000574627
0.000609913
0.00067672
0.000754185
0.000823987
0.000874722
0.000899543
0.000893944
0.00085223
0.000763331
0.000602868
0.000326449
0.000326591
0.00060464
0.000768591
0.000864402
0.000918252
0.000942953
0.000944846
0.000926319
0.000887665
0.000829623
0.000756379
0.000677558
0.000610243
0.0005748
0.000560185
0.000554873
0.000552988
0.000552266
0.000552235
0.000552934
0.000554807
0.000560099
0.000574666
0.00060998
0.000676813
0.000754282
0.000824077
0.000874799
0.000899605
0.000893991
0.000852263
0.00076335
0.000602865
0.000326425
0.000326587
0.000604623
0.000768525
0.000864236
0.000917905
0.000942309
0.000943772
0.000924709
0.000885521
0.000827153
0.000754016
0.000675757
0.00060915
0.000574173
0.000559786
0.000554563
0.000552703
0.000551984
0.000551951
0.000552646
0.000554495
0.0005597
0.000574041
0.000608892
0.000675028
0.000751942
0.000821641
0.000872697
0.000898041
0.000892966
0.00085167
0.000763056
0.000602755
0.00032641
0.000326598
0.00060459
0.000768371
0.000863853
0.000917103
0.000940804
0.000941201
0.000920717
0.000879965
0.000820417
0.000747268
0.000670493
0.000605917
0.000572327
0.000558634
0.000553692
0.000551936
0.000551272
0.000551242
0.000551879
0.000553624
0.00055855
0.000572201
0.000605674
0.000669802
0.000745244
0.000814974
0.000867221
0.000894133
0.000890482
0.00085026
0.000762362
0.000602505
0.000326404
0.00032661
0.00060453
0.00076811
0.000863204
0.000915728
0.000938153
0.000936478
0.000912954
0.00086837
0.000805236
0.000731098
0.000657857
0.000598246
0.000568061
0.000556033
0.000551777
0.000550273
0.000549723
0.000549699
0.000550221
0.000551713
0.000555954
0.000567949
0.000598033
0.000657261
0.000729169
0.00079991
0.000855739
0.000886472
0.000885861
0.000847727
0.000761136
0.000602059
0.00032638
0.000326621
0.000604434
0.000767734
0.000862279
0.000913741
0.00093419
0.000929017
0.000899694
0.000846469
0.000773106
0.000693702
0.000629729
0.00058214
0.000559692
0.000551136
0.000548366
0.000547395
0.000547028
0.000547011
0.000547351
0.000548306
0.000551062
0.000559592
0.000581969
0.000629243
0.000691952
0.000767979
0.000833969
0.000873287
0.000878469
0.00084387
0.000759318
0.000601394
0.000326325
0.000326627
0.000604302
0.000767262
0.00086115
0.000911323
0.000929222
0.000919036
0.00088001
0.000808855
0.000706919
0.000604846
0.000570211
0.000552583
0.000546131
0.000543562
0.00054362
0.000543612
0.000543504
0.00054349
0.00054357
0.000543548
0.000543451
0.000545979
0.000552409
0.000569918
0.000603487
0.000702161
0.000796448
0.000853559
0.00086846
0.000838968
0.000757086
0.000600582
0.000326244
0.000326627
0.000604114
0.000766703
0.000859959
0.000908955
0.000924434
0.000908882
0.000857209
0.000754878
0.000579074
0.000393082
0.000456506
0.000509099
0.00052939
0.000534456
0.000538317
0.000539487
0.000539661
0.000539641
0.000539416
0.000538155
0.00053412
0.000528841
0.000508477
0.000456293
0.000392447
0.000575116
0.000742364
0.000830429
0.000858118
0.000834227
0.000754979
0.000599818
0.000326162
0.000326606
0.000603776
0.000765928
0.00085869
0.000907082
0.000921524
0.00090335
0.000843222
0.00070943
0.000421094
0.000356608
0.00047583
0.000514839
0.000525519
0.000529132
0.000530221
0.000530455
0.000530401
0.000530013
0.000528601
0.000524319
0.000512572
0.000472539
0.000354291
0.000417949
0.000695924
0.000815535
0.000852244
0.000831498
0.000753658
0.000599301
0.000326129
0.000326508
0.000602964
0.000764393
0.000856722
0.000905316
0.000921205
0.000907137
0.000858234
0.000759925
0.000588967
0.00040116
0.000481096
0.000536116
0.000552912
0.000556494
0.000557273
0.000557516
0.000557551
0.000557446
0.000557074
0.00055601
0.000553318
0.00054613
0.000524639
0.000468957
0.000394866
0.000577769
0.000742142
0.000828647
0.000855624
0.00083176
0.000753112
0.00059888
0.00032609
0.000326207
0.000600902
0.000760758
0.000852186
0.000901141
0.000919654
0.000912506
0.00087947
0.000817543
0.000727742
0.000637652
0.000617418
0.000604488
0.000588808
0.000579711
0.000576035
0.000574825
0.000574449
0.000574289
0.000574109
0.000573818
0.000573635
0.000574456
0.000577708
0.000587365
0.000611489
0.000704454
0.000793593
0.000847458
0.000860937
0.000831729
0.000751539
0.000597632
0.000325907
0.000325396
0.000595995
0.00075244
0.000841653
0.000890144
0.000910833
0.00090999
0.000889888
0.000851134
0.000796599
0.000737007
0.000689475
0.000644523
0.000604856
0.000585249
0.000577782
0.000575329
0.000574601
0.000574404
0.000574418
0.00057482
0.000576647
0.000583095
0.00060152
0.000642362
0.00069612
0.000763769
0.000822321
0.000856541
0.00085969
0.000826236
0.000745619
0.00059367
0.000325217
0.000323406
0.000585271
0.000734991
0.000819619
0.000865891
0.000887211
0.000890609
0.000879328
0.000854596
0.000817667
0.000771789
0.000721792
0.000669116
0.000622445
0.000599042
0.000589898
0.000586809
0.000585881
0.000585663
0.000585791
0.000586576
0.000589424
0.000598279
0.000621707
0.000669795
0.000726689
0.000782208
0.000825135
0.000847457
0.000844045
0.000808854
0.000730416
0.000583818
0.000323331
0.000318852
0.000563429
0.000701001
0.00077747
0.000819017
0.000838924
0.000844335
0.000838721
0.000823291
0.000798324
0.000764473
0.000723698
0.000679746
0.000641071
0.000619893
0.000610963
0.000607719
0.00060669
0.000606465
0.000606652
0.000607631
0.000610799
0.000619676
0.00064095
0.000680453
0.000726008
0.000767794
0.000798083
0.000811725
0.000804602
0.000770689
0.000698312
0.000562682
0.000318852
0.000309041
0.000520966
0.000637773
0.000701011
0.000734671
0.000750942
0.00075638
0.000754186
0.00074542
0.000730059
0.000708023
0.000680327
0.000650233
0.000623974
0.000608505
0.000601411
0.000598705
0.000597824
0.000597627
0.000597809
0.000598669
0.000601348
0.000608434
0.000624005
0.000650605
0.000681172
0.000708588
0.000727589
0.000734676
0.000726489
0.000697438
0.000636531
0.000520721
0.000309096
0.000289369
0.000439511
0.000521051
0.000563594
0.000585382
0.000595698
0.000599444
0.000598981
0.000595098
0.000587696
0.000576488
0.000561889
0.000545787
0.000531614
0.000522847
0.000518602
0.000516898
0.000516314
0.000516183
0.000516318
0.000516903
0.000518605
0.000522855
0.000531667
0.000545953
0.000562159
0.000576388
0.000585766
0.00058838
0.000581988
0.000562318
0.000520748
0.000439545
0.000289439
0.000258015
0.000289419
0.000309177
0.000319069
0.000323698
0.000325736
0.000326514
0.000326605
0.000326167
0.000325145
0.000323525
0.000321262
0.000318599
0.00031614
0.000314572
0.000313778
0.000313419
0.000313253
0.000313196
0.00031326
0.000313427
0.000313782
0.00031457
0.000316135
0.000318598
0.000321264
0.000323471
0.000324851
0.000325053
0.000323542
0.000319141
0.000309306
0.00028952
0.000258069
0.000371758
0.000483436
0.000552549
0.000589352
0.000608125
0.000617223
0.000621325
0.000622971
0.000623472
0.00062347
0.000623279
0.00062305
0.000622856
0.000622719
0.00062263
0.000622571
0.000622533
0.000622512
0.000622511
0.000622528
0.000622563
0.000622618
0.000622696
0.000622802
0.000622907
0.000622891
0.00062245
0.000620919
0.000616948
0.000607964
0.000589275
0.000552523
0.000483437
0.000371772
0.000483443
0.000927811
0.00113241
0.0012438
0.00130416
0.00133547
0.00135054
0.00135689
0.00135879
0.00135859
0.00135755
0.00135634
0.00135533
0.00135462
0.00135418
0.0013539
0.00135373
0.00135365
0.00135366
0.00135374
0.0013539
0.00135416
0.00135455
0.0013551
0.00135568
0.00135577
0.00135413
0.00134832
0.0013339
0.00130317
0.00124325
0.00113214
0.000927706
0.000483448
0.000552591
0.00113249
0.00140289
0.00155532
0.00164101
0.00168703
0.00170975
0.00171922
0.00172149
0.00172017
0.00171744
0.00171459
0.0017123
0.00171077
0.00170985
0.00170929
0.00170897
0.00170881
0.00170882
0.00170897
0.00170929
0.00170981
0.00171063
0.00171187
0.00171336
0.00171425
0.00171251
0.00170429
0.00168311
0.00163851
0.00155392
0.00140223
0.00113226
0.000552591
0.000589433
0.00124397
0.00155541
0.00173539
0.001839
0.00189563
0.00192341
0.0019339
0.00193443
0.00192979
0.00192328
0.00191709
0.00191236
0.00190932
0.00190758
0.00190654
0.00190592
0.00190562
0.00190562
0.00190592
0.00190653
0.00190752
0.00190912
0.00191171
0.0019153
0.00191876
0.00191921
0.00191136
0.00188689
0.00183338
0.00173219
0.00155385
0.00124338
0.000589392
0.00060824
0.0013044
0.00164122
0.00183916
0.0019546
0.00201765
0.00204712
0.00205524
0.00205025
0.00203827
0.00202424
0.00201187
0.00200291
0.00199752
0.00199459
0.0019928
0.00199168
0.00199114
0.00199114
0.00199169
0.0019928
0.00199452
0.00199726
0.0020021
0.00200964
0.00201864
0.00202533
0.00202251
0.00199978
0.00194305
0.00183251
0.00163788
0.00130306
0.000608075
0.00061737
0.00133579
0.00168744
0.00189612
0.00201813
0.0020833
0.00211017
0.00211088
0.00209422
0.00206803
0.00204033
0.0020178
0.00200256
0.00199417
0.00199004
0.00198731
0.00198545
0.00198452
0.00198453
0.00198546
0.00198731
0.00198998
0.0019939
0.00200167
0.00201531
0.00203403
0.00205343
0.00206312
0.00204939
0.00199628
0.00188349
0.00168099
0.00133308
0.000616944
0.000621506
0.00135101
0.00171053
0.00192465
0.00204883
0.00211185
0.00213101
0.00211733
0.00207939
0.00202754
0.00197636
0.00193965
0.00191745
0.00190698
0.00190274
0.00189914
0.00189636
0.00189494
0.00189495
0.00189638
0.00189915
0.0019027
0.00190674
0.00191661
0.00193715
0.00196978
0.002012
0.00204611
0.00205182
0.00201069
0.00190272
0.00169925
0.00134612
0.000620631
0.000623203
0.00135764
0.00172073
0.00193664
0.00205961
0.00211668
0.00212269
0.00208564
0.00201179
0.00191405
0.00182224
0.00177298
0.00175029
0.00174319
0.00174226
0.00173865
0.00173522
0.00173347
0.00173348
0.00173524
0.00173868
0.00174225
0.00174303
0.00174961
0.00177074
0.00181586
0.00189822
0.00197725
0.00201759
0.00199832
0.00190191
0.00170287
0.00134978
0.000621679
0.000623785
0.00136005
0.00172428
0.00193986
0.0020596
0.00210819
0.00209664
0.00202663
0.00189549
0.00171095
0.00153488
0.00150481
0.00151257
0.00152401
0.00153205
0.00153142
0.0015291
0.00152777
0.00152778
0.00152912
0.00153145
0.00153208
0.00152396
0.00151218
0.0015032
0.00152936
0.00169542
0.00186024
0.00195688
0.00196968
0.00189004
0.00169887
0.00134875
0.000621492
0.000623915
0.00136063
0.00172496
0.00193946
0.00205564
0.00209584
0.0020663
0.00195852
0.00174601
0.0013791
0.000855375
0.00110634
0.00123958
0.00129465
0.00131416
0.00132248
0.00132428
0.00132438
0.00132439
0.00132431
0.00132252
0.00131422
0.00129471
0.00123956
0.00110592
0.000852427
0.00136463
0.00171023
0.00188747
0.00193761
0.00187566
0.00169274
0.00134625
0.000620915
0.000623907
0.00136066
0.00172492
0.00193872
0.00205286
0.00208827
0.0020482
0.00191583
0.00163315
0.000907694
0.000679425
0.00101575
0.0011083
0.00113856
0.00114784
0.00115038
0.00115093
0.00115094
0.0011504
0.00114787
0.00113862
0.00110839
0.00101587
0.000679441
0.000897679
0.00159712
0.001844
0.00191858
0.00186706
0.00168886
0.00134451
0.000620516
0.000623896
0.00136069
0.00172518
0.00193926
0.00205384
0.00209038
0.00205408
0.00193521
0.00170599
0.00131498
0.000787342
0.000959516
0.00107792
0.00112769
0.00114781
0.0011505
0.00115067
0.00115058
0.00115058
0.00115067
0.00115048
0.00114779
0.00112764
0.00107778
0.000958899
0.000784244
0.00130038
0.00166993
0.00186361
0.00192449
0.00186898
0.00168948
0.00134459
0.000620556
0.000623915
0.00136091
0.00172594
0.00194112
0.00205793
0.00209928
0.00207373
0.00197994
0.00181155
0.00157198
0.00132294
0.00120788
0.00114795
0.00112648
0.00112041
0.00111896
0.00111846
0.00111822
0.00111821
0.00111845
0.00111894
0.00112035
0.00112633
0.00114749
0.0012063
0.00131753
0.00155638
0.00177572
0.00190884
0.00194456
0.0018781
0.00169359
0.00134625
0.000620953
0.000623951
0.00136123
0.00172697
0.00194354
0.00206315
0.00210997
0.00209505
0.00202156
0.00189022
0.00170922
0.00150941
0.00133985
0.00120914
0.0011463
0.00112315
0.00111596
0.00111387
0.00111329
0.00111328
0.00111385
0.00111593
0.00112306
0.00114608
0.00120852
0.00133789
0.00150336
0.00169321
0.00185444
0.00195077
0.00196621
0.00188901
0.00169886
0.00134852
0.000621466
0.000623983
0.00136155
0.00172794
0.00194581
0.00206785
0.00211912
0.00211193
0.0020511
0.00193855
0.00178002
0.00159284
0.00140582
0.00124716
0.00116456
0.00113214
0.0011214
0.00111822
0.0011174
0.0011174
0.0011182
0.00112136
0.00113205
0.00116433
0.00124649
0.00140373
0.00158653
0.00176377
0.0019027
0.00198037
0.00198321
0.00189824
0.00170354
0.00135058
0.000621907
0.000623999
0.0013618
0.0017287
0.00194752
0.00207131
0.00212555
0.00212311
0.00206914
0.00196529
0.00181516
0.001631
0.00143693
0.00126676
0.00117535
0.00113846
0.00112594
0.00112221
0.00112126
0.00112126
0.00112219
0.0011259
0.00113837
0.00117511
0.00126608
0.00143479
0.00162455
0.00179875
0.00192932
0.00199835
0.00199434
0.00190462
0.00170688
0.00135208
0.0006222
0.000624
0.00136196
0.00172918
0.0019486
0.00207344
0.00212939
0.00212946
0.00207883
0.00197869
0.0018315
0.00164775
0.00145048
0.00127559
0.00118046
0.00114161
0.0011283
0.00112432
0.00112332
0.00112332
0.00112431
0.00112827
0.00114152
0.00118021
0.0012749
0.00144834
0.00164123
0.00181499
0.00194261
0.00200794
0.00200061
0.00190836
0.00170889
0.00135298
0.000622355
0.00062399
0.00136203
0.0017294
0.00194911
0.00207443
0.00213114
0.00213228
0.00208296
0.00198415
0.00183786
0.00165401
0.00145547
0.00127886
0.00118237
0.0011428
0.0011292
0.00112512
0.00112409
0.00112409
0.00112511
0.00112917
0.00114271
0.00118213
0.00127816
0.00145331
0.00164746
0.00182129
0.00194801
0.00201201
0.00200336
0.00191004
0.0017098
0.00135338
0.00062241
0.000623977
0.00136203
0.00172941
0.00194913
0.00207446
0.00213118
0.00213234
0.00208305
0.00198425
0.00183798
0.00165414
0.0014556
0.00127898
0.00118245
0.00114284
0.00112922
0.00112513
0.0011241
0.00112409
0.00112512
0.00112919
0.00114275
0.00118221
0.00127829
0.00145343
0.00164759
0.00182141
0.00194811
0.00201209
0.00200342
0.00191008
0.00170982
0.00135339
0.000622394
0.000623966
0.00136195
0.0017292
0.00194865
0.00207352
0.00212951
0.00212964
0.00207907
0.001979
0.00183187
0.00164815
0.00145088
0.00127598
0.00118071
0.00114175
0.00112839
0.00112438
0.00112337
0.00112336
0.00112437
0.00112836
0.00114167
0.00118048
0.0012753
0.00144875
0.00164165
0.00181537
0.00194292
0.00200818
0.00200078
0.00190847
0.00170895
0.00135299
0.000622314
0.000623954
0.00136179
0.00172873
0.00194759
0.00207143
0.00212574
0.00212338
0.00206954
0.00196582
0.00181581
0.00163175
0.00143769
0.0012675
0.00117586
0.00113877
0.00112616
0.00112239
0.00112143
0.00112143
0.00112238
0.00112614
0.0011387
0.00117565
0.00126687
0.00143562
0.00162534
0.00179943
0.00192985
0.00199873
0.0019946
0.00190479
0.00170698
0.0013521
0.000622146
0.00062393
0.00136153
0.00172796
0.00194586
0.00206796
0.00211931
0.00211225
0.0020516
0.00193929
0.00178104
0.00159409
0.00140718
0.00124837
0.00116538
0.00113267
0.0011218
0.00111857
0.00111774
0.00111774
0.00111857
0.00112179
0.00113263
0.0011652
0.00124779
0.0014052
0.00158785
0.00176483
0.00190342
0.00198082
0.00198347
0.00189839
0.00170362
0.00135059
0.000621845
0.000623887
0.00136115
0.00172688
0.00194345
0.00206307
0.00210996
0.0020952
0.00202198
0.00189107
0.00171064
0.00151134
0.00134193
0.00121068
0.00114712
0.00112353
0.00111616
0.00111401
0.00111342
0.00111343
0.00111402
0.00111616
0.0011235
0.00114697
0.0012102
0.00134019
0.00150544
0.00169465
0.00185515
0.00195099
0.00196622
0.00188896
0.00169881
0.00134846
0.00062139
0.000623819
0.00136067
0.00172556
0.00194058
0.00205728
0.00209859
0.00207314
0.00197969
0.00181204
0.00157368
0.00132573
0.00121045
0.00114849
0.00112545
0.00111858
0.00111676
0.00111616
0.00111592
0.00111592
0.00111617
0.00111673
0.00111844
0.00112514
0.00114793
0.00120909
0.00132054
0.00155797
0.00177564
0.00190797
0.00194358
0.00187731
0.00169308
0.00134596
0.000620831
0.000623709
0.00136001
0.00172398
0.00193754
0.00205165
0.00208785
0.00205139
0.00193272
0.00170451
0.00131617
0.000789364
0.000958936
0.00107121
0.00111742
0.00113552
0.0011374
0.00113741
0.00113732
0.00113731
0.00113734
0.00113712
0.00113476
0.00111594
0.00106925
0.000957695
0.000786236
0.00130088
0.00166647
0.00185932
0.0019208
0.0018663
0.00168778
0.00134368
0.00062031
0.000623473
0.00135883
0.00172171
0.00193416
0.00204706
0.00208138
0.00204034
0.0019072
0.00162449
0.000901929
0.000659805
0.000978665
0.00106154
0.00108525
0.00109273
0.00109507
0.00109566
0.00109555
0.00109461
0.00109139
0.00108198
0.00105503
0.000968622
0.000651603
0.00088696
0.00158202
0.00183075
0.00190852
0.00186007
0.00168444
0.00134213
0.000619961
0.000622844
0.00135608
0.00171721
0.00192868
0.00204213
0.00207977
0.00204753
0.00193638
0.00171931
0.00134639
0.000820248
0.00102393
0.00113065
0.00115968
0.00116158
0.00116587
0.00116768
0.00116811
0.00116785
0.00116655
0.00116247
0.00115279
0.00114054
0.00109751
0.000985558
0.000794526
0.0013081
0.00166658
0.00185541
0.00191482
0.00186001
0.00168265
0.00134067
0.000619631
0.000621177
0.00134945
0.00170693
0.00191642
0.00203082
0.00207448
0.00205743
0.00197968
0.00183593
0.00162966
0.00141697
0.00133428
0.00128395
0.00123578
0.00120769
0.00119809
0.00119526
0.00119441
0.00119399
0.00119334
0.00119205
0.00119099
0.00119639
0.00121199
0.00125252
0.0013425
0.00156433
0.00176945
0.00189348
0.00192498
0.00185868
0.00167787
0.0013366
0.000618572
0.000617118
0.00133449
0.00168441
0.00188912
0.00200275
0.00205157
0.00204871
0.00199925
0.00190494
0.00177232
0.00162439
0.0014961
0.0013766
0.00127042
0.00121601
0.00119533
0.00118861
0.00118662
0.00118608
0.00118609
0.00118714
0.00119228
0.00121112
0.00126373
0.00137553
0.00151881
0.00168632
0.00182785
0.00191046
0.00191969
0.00184391
0.00166188
0.00132469
0.000615223
0.000608081
0.00130347
0.00163906
0.00183408
0.00194324
0.00199395
0.00200104
0.00197161
0.00190866
0.00181527
0.00169885
0.00157044
0.00143611
0.00131463
0.00125079
0.00122533
0.00121662
0.00121396
0.00121333
0.00121373
0.00121602
0.00122417
0.00124915
0.00131367
0.00144001
0.00158496
0.00172391
0.0018305
0.00188666
0.00188103
0.00180084
0.00162286
0.0012966
0.000606846
0.000589361
0.00124339
0.00155414
0.00173226
0.00183172
0.00187994
0.00189218
0.0018761
0.00183462
0.00176875
0.00168043
0.0015748
0.0014618
0.00136228
0.00130579
0.00128108
0.00127191
0.0012689
0.00126821
0.00126883
0.00127171
0.00128074
0.00130546
0.00136275
0.00146477
0.0015817
0.00168857
0.00176635
0.00180268
0.00178808
0.00170963
0.00154348
0.00123904
0.000588661
0.000552587
0.00113221
0.00140232
0.00155379
0.00163711
0.00167809
0.00169112
0.00168346
0.00165774
0.00161421
0.00155319
0.00147781
0.0013968
0.00132627
0.00128364
0.00126351
0.00125546
0.00125265
0.001252
0.00125266
0.00125547
0.00126352
0.00128376
0.00132686
0.00139845
0.00148059
0.00155455
0.00160659
0.00162761
0.00160954
0.00154006
0.00139617
0.00112981
0.000552274
0.00048348
0.000927728
0.00113231
0.00124337
0.00130269
0.00133156
0.00134164
0.00133876
0.00132493
0.00130016
0.00126421
0.00121883
0.00116974
0.00112694
0.00110008
0.00108678
0.00108122
0.00107921
0.00107874
0.00107926
0.00108131
0.00108692
0.00110032
0.00112742
0.00117064
0.00121998
0.00126392
0.00129391
0.00130407
0.00128836
0.00123664
0.00112949
0.000926706
0.00048341
0.0003718
0.000483478
0.000552649
0.000589475
0.000608139
0.000616836
0.000619962
0.000619607
0.000616446
0.000610385
0.000601187
0.000589147
0.000575808
0.000564066
0.000556742
0.00055315
0.000551653
0.000551106
0.000550976
0.00055112
0.000551676
0.000553179
0.000556782
0.000564145
0.000575972
0.000589369
0.000601076
0.000608768
0.000610836
0.000605304
0.000588322
0.000552268
0.000483398
0.000371849
0.000410465
0.000576053
0.000679338
0.000736
0.000766097
0.000781341
0.000788514
0.000791493
0.0007924
0.000792349
0.000791917
0.00079141
0.000790981
0.000790678
0.000790485
0.000790364
0.00079029
0.000790254
0.000790253
0.000790287
0.000790358
0.00079047
0.000790639
0.000790874
0.000791114
0.000791127
0.000790343
0.000787601
0.000780701
0.0007657
0.000735784
0.000679239
0.000576022
0.000410478
0.000576055
0.00116256
0.00143065
0.00158077
0.00166473
0.00170968
0.001732
0.00174164
0.00174454
0.0017441
0.00174228
0.00174017
0.00173837
0.00173708
0.00173625
0.00173574
0.00173543
0.00173529
0.00173529
0.00173543
0.00173573
0.00173621
0.00173693
0.00173793
0.00173897
0.00173921
0.00173676
0.00172802
0.00170679
0.00166283
0.00157964
0.00143005
0.00116228
0.00057602
0.000679379
0.00143076
0.00177533
0.0019739
0.00208865
0.00215198
0.00218402
0.00219762
0.00220083
0.00219866
0.00219426
0.00218961
0.00218581
0.00218319
0.00218157
0.00218059
0.00218002
0.00217975
0.00217975
0.00218002
0.00218057
0.00218149
0.00218292
0.00218502
0.00218752
0.00218909
0.00218673
0.00217506
0.00214539
0.00208431
0.00197134
0.00177399
0.00143019
0.000679293
0.000736091
0.00158098
0.00197403
0.00220522
0.00234156
0.00241782
0.00245602
0.00247061
0.00247117
0.0024642
0.0024543
0.00244468
0.00243716
0.00243221
0.00242928
0.00242752
0.00242648
0.00242599
0.00242599
0.00242648
0.00242749
0.00242916
0.00243182
0.00243604
0.00244175
0.00244718
0.00244816
0.00243744
0.00240409
0.00233245
0.00219979
0.00197117
0.00157973
0.000735873
0.000766239
0.00166506
0.00208897
0.00234181
0.00249246
0.00257642
0.00261633
0.0026274
0.00262026
0.00260304
0.00258249
0.00256383
0.00254992
0.00254128
0.00253646
0.00253352
0.00253172
0.00253085
0.00253085
0.00253171
0.00253349
0.00253632
0.0025408
0.00254853
0.00256021
0.00257378
0.00258365
0.0025801
0.00254966
0.00247465
0.00233112
0.00208324
0.00166246
0.000765721
0.000781537
0.00171018
0.00215262
0.00241863
0.00257719
0.00266341
0.0026995
0.0027005
0.00267766
0.00264121
0.0026016
0.00256785
0.00254407
0.00253049
0.00252358
0.00251905
0.00251608
0.00251464
0.00251464
0.00251609
0.00251903
0.00252344
0.00252999
0.00254256
0.00256382
0.00259179
0.00261935
0.00263272
0.00261448
0.0025448
0.00239915
0.00214206
0.00170526
0.000780454
0.000788784
0.00173279
0.00218533
0.00245804
0.00261904
0.0027021
0.00272785
0.00270992
0.00265929
0.00258902
0.00251707
0.00246095
0.00242447
0.00240619
0.00239839
0.00239205
0.00238748
0.00238524
0.00238525
0.00238749
0.00239204
0.00239828
0.00240573
0.00242301
0.00245684
0.00250673
0.00256559
0.00261101
0.00261809
0.00256421
0.00242527
0.00216748
0.00172431
0.000786782
0.000791887
0.00174297
0.00220017
0.00247504