/*--------------------------------*- C++ -*----------------------------------*\
| =========                 |                                                 |
| \\      /  F ield         | OpenFOAM: The Open Source CFD Toolbox           |
|  \\    /   O peration     | Version:  2112                                  |
|   \\  /    A nd           | Website:  www.openfoam.com                      |
|    \\/     M anipulation  |                                                 |
\*---------------------------------------------------------------------------*/
FoamFile
{
    version     2.0;
    format      ascii;
    arch        "LSB;label=32;scalar=64";
    class       volScalarField;
    location    "3.9";
    object      nut;
}
// * * * * * * * * * * * * * * * * * * * * * * * * * * * * * * * * * * * * * //

dimensions      [0 2 -1 0 0 0 0];

internalField   nonuniform List<scalar> 
64906
(
4.03282e-05
4.2764e-05
4.4237e-05
4.49627e-05
4.53015e-05
4.54525e-05
4.55159e-05
4.55401e-05
4.55475e-05
4.55477e-05
4.55453e-05
4.55422e-05
4.554e-05
4.55383e-05
4.5537e-05
4.55358e-05
4.55348e-05
4.5534e-05
4.55338e-05
4.55342e-05
4.5535e-05
4.55361e-05
4.55373e-05
4.55386e-05
4.55398e-05
4.55399e-05
4.5534e-05
4.55117e-05
4.54501e-05
4.53004e-05
4.49626e-05
4.42375e-05
4.27652e-05
4.03292e-05
4.27659e-05
5.27976e-05
5.75493e-05
5.99048e-05
6.11005e-05
6.16915e-05
6.19657e-05
6.20792e-05
6.21148e-05
6.21152e-05
6.21022e-05
6.20868e-05
6.20742e-05
6.20659e-05
6.20612e-05
6.20585e-05
6.20569e-05
6.20562e-05
6.20562e-05
6.20569e-05
6.20585e-05
6.2061e-05
6.2065e-05
6.20709e-05
6.20769e-05
6.20744e-05
6.20426e-05
6.19373e-05
6.16728e-05
6.10905e-05
5.99014e-05
5.75499e-05
5.27999e-05
4.27687e-05
4.42415e-05
5.75518e-05
6.37488e-05
6.6902e-05
6.85647e-05
6.94208e-05
6.98315e-05
7.00007e-05
7.00441e-05
7.00271e-05
6.99872e-05
6.99461e-05
6.99145e-05
6.98947e-05
6.98841e-05
6.98783e-05
6.98751e-05
6.98736e-05
6.98737e-05
6.98753e-05
6.98786e-05
6.9884e-05
6.98932e-05
6.99085e-05
6.99277e-05
6.9937e-05
6.99015e-05
6.97523e-05
6.93661e-05
6.85326e-05
6.68871e-05
6.37447e-05
5.7554e-05
4.42461e-05
4.49691e-05
5.99098e-05
6.69043e-05
7.05422e-05
7.25079e-05
7.35407e-05
7.40355e-05
7.42214e-05
7.42357e-05
7.41635e-05
7.40613e-05
7.39661e-05
7.38957e-05
7.38532e-05
7.38308e-05
7.38182e-05
7.38107e-05
7.38071e-05
7.38073e-05
7.3811e-05
7.38186e-05
7.38306e-05
7.38509e-05
7.38867e-05
7.39394e-05
7.39904e-05
7.39916e-05
7.38491e-05
7.34089e-05
7.24267e-05
7.04998e-05
6.68875e-05
5.99081e-05
4.49747e-05
4.53091e-05
6.11073e-05
6.85694e-05
7.2511e-05
7.467e-05
7.58062e-05
7.63265e-05
7.64708e-05
7.63904e-05
7.61923e-05
7.5962e-05
7.5764e-05
7.56243e-05
7.55448e-05
7.55051e-05
7.54813e-05
7.5466e-05
7.54584e-05
7.54586e-05
7.54664e-05
7.54818e-05
7.55049e-05
7.55419e-05
7.56131e-05
7.57306e-05
7.58746e-05
7.59835e-05
7.59298e-05
7.55235e-05
7.44923e-05
7.24136e-05
6.85253e-05
6.10951e-05
4.53145e-05
4.54606e-05
6.16997e-05
6.94288e-05
7.35491e-05
7.58138e-05
7.69816e-05
7.74545e-05
7.74693e-05
7.71837e-05
7.67341e-05
7.62619e-05
7.58898e-05
7.56444e-05
7.55181e-05
7.5462e-05
7.54231e-05
7.53951e-05
7.5381e-05
7.53812e-05
7.53957e-05
7.54238e-05
7.5462e-05
7.55152e-05
7.56323e-05
7.58527e-05
7.61635e-05
7.64993e-05
7.66697e-05
7.64258e-05
7.54636e-05
7.33533e-05
6.93346e-05
6.16669e-05
4.5464e-05
4.55242e-05
6.19757e-05
6.9845e-05
7.4055e-05
7.63529e-05
7.74808e-05
7.78176e-05
7.75755e-05
7.6903e-05
7.59771e-05
7.50654e-05
7.44495e-05
7.40884e-05
7.39351e-05
7.38856e-05
7.38316e-05
7.37863e-05
7.37632e-05
7.37635e-05
7.3787e-05
7.38326e-05
7.38861e-05
7.39328e-05
7.40771e-05
7.44123e-05
7.49628e-05
7.57271e-05
7.63536e-05
7.64666e-05
7.57224e-05
7.37018e-05
6.96707e-05
6.19085e-05
4.5523e-05
4.55485e-05
6.20926e-05
7.00248e-05
7.42638e-05
7.65389e-05
7.75614e-05
7.76627e-05
7.69909e-05
7.56324e-05
7.37907e-05
7.20385e-05
7.1251e-05
7.09201e-05
7.08558e-05
7.08856e-05
7.08289e-05
7.07688e-05
7.07388e-05
7.07391e-05
7.07697e-05
7.08302e-05
7.08868e-05
7.0855e-05
7.09116e-05
7.12183e-05
7.19389e-05
7.35351e-05
7.50604e-05
7.58376e-05
7.54987e-05
7.36884e-05
6.97387e-05
6.19764e-05
4.55396e-05
4.55566e-05
6.21348e-05
7.00872e-05
7.43199e-05
7.65382e-05
7.74101e-05
7.71895e-05
7.58851e-05
7.33533e-05
6.95734e-05
6.57804e-05
6.57389e-05
6.61758e-05
6.6542e-05
6.67849e-05
6.67728e-05
6.67278e-05
6.67047e-05
6.6705e-05
6.67288e-05
6.67745e-05
6.6787e-05
6.65433e-05
6.61724e-05
6.57171e-05
6.56958e-05
6.93225e-05
7.27658e-05
7.46984e-05
7.49776e-05
7.34774e-05
6.967e-05
6.19612e-05
4.55374e-05
4.5558e-05
6.21458e-05
7.01004e-05
7.43149e-05
7.64716e-05
7.7193e-05
7.66339e-05
7.45642e-05
7.01956e-05
6.18409e-05
5.10243e-05
5.67396e-05
6.03256e-05
6.17397e-05
6.22937e-05
6.2418e-05
6.24405e-05
6.24429e-05
6.24432e-05
6.24415e-05
6.24198e-05
6.22964e-05
6.1743e-05
6.03288e-05
5.67387e-05
5.09853e-05
6.16139e-05
6.95959e-05
7.33494e-05
7.43869e-05
7.32219e-05
6.95641e-05
6.19205e-05
4.55286e-05
4.55572e-05
6.21478e-05
7.01023e-05
7.43063e-05
7.64292e-05
7.70665e-05
7.63065e-05
7.37017e-05
6.75497e-05
5.192e-05
4.79158e-05
5.55907e-05
5.79711e-05
5.86854e-05
5.89303e-05
5.90041e-05
5.9022e-05
5.90222e-05
5.90048e-05
5.89316e-05
5.86876e-05
5.79746e-05
5.55963e-05
4.79195e-05
5.17835e-05
6.69508e-05
7.24712e-05
7.40409e-05
7.30757e-05
6.9502e-05
6.18948e-05
4.55217e-05
4.55559e-05
6.21501e-05
7.011e-05
7.43215e-05
7.64568e-05
7.71243e-05
7.64595e-05
7.42055e-05
6.95435e-05
6.07473e-05
4.99398e-05
5.37218e-05
5.68289e-05
5.80082e-05
5.83202e-05
5.85618e-05
5.86385e-05
5.86528e-05
5.86528e-05
5.86384e-05
5.85617e-05
5.83199e-05
5.80078e-05
5.68275e-05
5.37115e-05
4.98927e-05
6.05114e-05
6.89354e-05
7.29791e-05
7.4196e-05
7.31317e-05
6.95245e-05
6.19024e-05
4.55206e-05
4.55551e-05
6.21549e-05
7.01262e-05
7.43591e-05
7.65382e-05
7.73011e-05
7.68573e-05
7.51525e-05
7.19558e-05
6.71313e-05
6.19295e-05
6.00054e-05
5.90375e-05
5.86918e-05
5.85599e-05
5.8579e-05
5.85885e-05
5.85872e-05
5.8587e-05
5.85878e-05
5.85778e-05
5.85577e-05
5.86876e-05
5.90278e-05
5.99768e-05
6.18377e-05
6.68722e-05
7.1354e-05
7.39402e-05
7.46067e-05
7.33171e-05
6.96092e-05
6.19367e-05
4.55257e-05
4.55545e-05
6.21609e-05
7.0146e-05
7.44054e-05
7.66367e-05
7.75039e-05
7.72692e-05
7.59839e-05
7.36105e-05
7.02239e-05
6.63752e-05
6.31124e-05
6.05899e-05
5.93737e-05
5.89089e-05
5.87644e-05
5.87183e-05
5.87029e-05
5.87026e-05
5.87172e-05
5.87625e-05
5.89055e-05
5.93676e-05
6.05769e-05
6.30782e-05
6.6273e-05
6.99591e-05
7.30135e-05
7.47822e-05
7.50298e-05
7.35287e-05
6.97117e-05
6.19796e-05
4.55317e-05
4.55537e-05
6.21663e-05
7.01642e-05
7.44471e-05
7.6723e-05
7.76724e-05
7.75846e-05
7.65497e-05
7.45692e-05
7.16911e-05
6.81771e-05
6.45448e-05
6.14445e-05
5.98205e-05
5.91644e-05
5.89344e-05
5.88573e-05
5.88326e-05
5.8832e-05
5.88557e-05
5.89318e-05
5.91604e-05
5.98136e-05
6.14304e-05
6.45088e-05
6.80715e-05
7.14239e-05
7.39738e-05
7.53529e-05
7.53514e-05
7.37022e-05
6.97997e-05
6.2017e-05
4.55359e-05
4.55527e-05
6.21701e-05
7.01778e-05
7.44781e-05
7.67851e-05
7.77886e-05
7.77887e-05
7.68857e-05
7.50801e-05
7.23838e-05
6.89536e-05
6.51855e-05
6.18578e-05
6.00563e-05
5.93077e-05
5.90373e-05
5.89444e-05
5.89136e-05
5.89128e-05
5.89424e-05
5.90344e-05
5.93034e-05
6.00491e-05
6.18434e-05
6.51482e-05
6.88462e-05
7.21148e-05
7.44841e-05
7.56898e-05
7.55572e-05
7.38197e-05
6.98612e-05
6.20429e-05
4.55378e-05
4.55514e-05
6.21721e-05
7.01864e-05
7.44974e-05
7.6823e-05
7.78569e-05
7.79029e-05
7.70624e-05
7.53296e-05
7.26963e-05
6.92831e-05
6.54595e-05
6.20375e-05
6.01624e-05
5.93737e-05
5.90854e-05
5.89846e-05
5.89492e-05
5.89481e-05
5.89822e-05
5.90822e-05
5.93691e-05
6.0155e-05
6.20227e-05
6.54193e-05
6.91747e-05
7.2426e-05
7.47326e-05
7.5866e-05
7.56712e-05
7.38874e-05
6.98974e-05
6.20578e-05
4.55377e-05
4.55501e-05
6.21728e-05
7.01905e-05
7.45067e-05
7.68408e-05
7.78881e-05
7.79534e-05
7.71373e-05
7.54305e-05
7.28163e-05
6.94047e-05
6.55599e-05
6.21032e-05
6.02015e-05
5.93978e-05
5.91024e-05
5.89978e-05
5.89591e-05
5.89577e-05
5.8995e-05
5.90989e-05
5.93931e-05
6.01939e-05
6.20883e-05
6.55192e-05
6.92959e-05
7.25454e-05
7.48327e-05
7.59403e-05
7.57211e-05
7.3918e-05
6.9914e-05
6.20641e-05
4.55363e-05
4.55489e-05
6.21724e-05
7.01909e-05
7.45074e-05
7.68419e-05
7.78895e-05
7.79553e-05
7.71399e-05
7.54337e-05
7.28203e-05
6.94092e-05
6.55645e-05
6.21069e-05
6.02037e-05
5.93987e-05
5.91022e-05
5.89963e-05
5.89557e-05
5.8954e-05
5.89933e-05
5.90985e-05
5.93938e-05
6.01961e-05
6.20919e-05
6.55239e-05
6.93006e-05
7.25496e-05
7.48362e-05
7.59431e-05
7.57232e-05
7.39195e-05
6.99149e-05
6.20639e-05
4.55346e-05
4.55487e-05
6.21713e-05
7.01874e-05
7.44995e-05
7.68261e-05
7.78612e-05
7.79087e-05
7.70701e-05
7.53395e-05
7.27084e-05
6.92972e-05
6.54742e-05
6.20489e-05
6.01695e-05
5.93768e-05
5.90852e-05
5.89807e-05
5.89402e-05
5.89384e-05
5.89775e-05
5.90814e-05
5.93719e-05
6.0162e-05
6.20343e-05
6.54344e-05
6.91897e-05
7.2439e-05
7.47431e-05
7.58742e-05
7.56774e-05
7.38919e-05
6.99001e-05
6.20575e-05
4.55334e-05
4.55494e-05
6.21692e-05
7.01795e-05
7.44814e-05
7.679e-05
7.77955e-05
7.77982e-05
7.68986e-05
7.50971e-05
7.24054e-05
6.89795e-05
6.52118e-05
6.18788e-05
6.00696e-05
5.9314e-05
5.9038e-05
5.89393e-05
5.8902e-05
5.89003e-05
5.89361e-05
5.90342e-05
5.93093e-05
6.00624e-05
6.1865e-05
6.51739e-05
6.88739e-05
7.21381e-05
7.45024e-05
7.57036e-05
7.55673e-05
7.38269e-05
6.98656e-05
6.20431e-05
4.55327e-05
4.55503e-05
6.21655e-05
7.01662e-05
7.4451e-05
7.67289e-05
7.7681e-05
7.7597e-05
7.65674e-05
7.4594e-05
7.17246e-05
6.82195e-05
6.45843e-05
6.14774e-05
5.98408e-05
5.91742e-05
5.8936e-05
5.88515e-05
5.88206e-05
5.88193e-05
5.88486e-05
5.89323e-05
5.91697e-05
5.98344e-05
6.14651e-05
6.4551e-05
6.81175e-05
7.14604e-05
7.40003e-05
7.53715e-05
7.53644e-05
7.37113e-05
6.98054e-05
6.20179e-05
4.55305e-05
4.55509e-05
6.21598e-05
7.01473e-05
7.44081e-05
7.66413e-05
7.75114e-05
7.72815e-05
7.60041e-05
7.36428e-05
7.02733e-05
6.64418e-05
6.31746e-05
6.06337e-05
5.93952e-05
5.89147e-05
5.87587e-05
5.87045e-05
5.8684e-05
5.86831e-05
5.8702e-05
5.87553e-05
5.89104e-05
5.93894e-05
6.06236e-05
6.31465e-05
6.63467e-05
7.00133e-05
7.30471e-05
7.4802e-05
7.5042e-05
7.35368e-05
6.97169e-05
6.19805e-05
4.55261e-05
4.55514e-05
6.2152e-05
7.01236e-05
7.43561e-05
7.65353e-05
7.73e-05
7.6861e-05
7.51663e-05
7.19892e-05
6.71976e-05
6.2033e-05
6.00964e-05
5.90656e-05
5.86769e-05
5.85203e-05
5.85227e-05
5.85234e-05
5.85179e-05
5.8517e-05
5.85209e-05
5.85185e-05
5.85138e-05
5.86679e-05
5.90552e-05
6.00781e-05
6.19534e-05
6.69447e-05
7.13837e-05
7.39477e-05
7.46068e-05
7.33164e-05
6.96091e-05
6.19354e-05
4.55196e-05
4.55512e-05
6.21409e-05
7.00954e-05
7.43009e-05
7.64314e-05
7.70964e-05
7.64331e-05
7.41889e-05
6.95555e-05
6.08266e-05
5.001e-05
5.3743e-05
5.66993e-05
5.78002e-05
5.8064e-05
5.82809e-05
5.83481e-05
5.83586e-05
5.83574e-05
5.8344e-05
5.82714e-05
5.80443e-05
5.7768e-05
5.66619e-05
5.37284e-05
4.99639e-05
6.05936e-05
6.89228e-05
7.29378e-05
7.41566e-05
7.31035e-05
6.95076e-05
6.1893e-05
4.55131e-05
4.55494e-05
6.21211e-05
7.0056e-05
7.42411e-05
7.63474e-05
7.69704e-05
7.61979e-05
7.35833e-05
6.74368e-05
5.18604e-05
4.75357e-05
5.48533e-05
5.70462e-05
5.763e-05
5.78294e-05
5.78905e-05
5.79038e-05
5.79007e-05
5.78784e-05
5.77984e-05
5.756e-05
5.69131e-05
5.46523e-05
4.73706e-05
5.16451e-05
6.67336e-05
7.22785e-05
7.38982e-05
7.29794e-05
6.94429e-05
6.18637e-05
4.55107e-05
4.55415e-05
6.20746e-05
6.99788e-05
7.41478e-05
7.62648e-05
7.69502e-05
7.63526e-05
7.42331e-05
6.97976e-05
6.13682e-05
5.05475e-05
5.5236e-05
5.82552e-05
5.9135e-05
5.93152e-05
5.93499e-05
5.93607e-05
5.93619e-05
5.9356e-05
5.93357e-05
5.92787e-05
5.91371e-05
5.87539e-05
5.76e-05
5.44999e-05
5.01218e-05
6.07349e-05
6.89082e-05
7.28521e-05
7.40398e-05
7.29861e-05
6.94134e-05
6.18389e-05
4.55071e-05
4.55179e-05
6.19588e-05
6.97991e-05
7.39366e-05
7.60742e-05
7.68722e-05
7.65672e-05
7.51365e-05
7.23871e-05
6.8217e-05
6.37547e-05
6.26249e-05
6.18806e-05
6.10164e-05
6.05146e-05
6.03099e-05
6.02422e-05
6.02211e-05
6.02121e-05
6.02025e-05
6.01879e-05
6.01821e-05
6.02371e-05
6.04413e-05
6.10179e-05
6.23696e-05
6.70495e-05
7.12421e-05
7.36636e-05
7.42603e-05
7.29762e-05
6.93329e-05
6.17682e-05
4.54928e-05
4.54558e-05
6.1688e-05
6.9394e-05
7.34536e-05
7.55842e-05
7.64801e-05
7.64419e-05
7.55639e-05
7.38467e-05
7.1366e-05
6.85499e-05
6.61989e-05
6.39068e-05
6.18296e-05
6.0777e-05
6.03703e-05
6.02357e-05
6.01954e-05
6.01845e-05
6.01854e-05
6.0208e-05
6.03097e-05
6.06644e-05
6.16627e-05
6.38143e-05
6.65412e-05
6.98019e-05
7.25043e-05
7.40419e-05
7.41911e-05
7.27189e-05
6.90436e-05
6.155e-05
4.54402e-05
4.53061e-05
6.11024e-05
6.85504e-05
7.24493e-05
7.4511e-05
7.54475e-05
7.55927e-05
7.50883e-05
7.3977e-05
7.22921e-05
7.0149e-05
6.77438e-05
6.51298e-05
6.2735e-05
6.14985e-05
6.10073e-05
6.08398e-05
6.0789e-05
6.0777e-05
6.07841e-05
6.08271e-05
6.09822e-05
6.14594e-05
6.27006e-05
6.51707e-05
6.79846e-05
7.0627e-05
7.26098e-05
7.36265e-05
7.34887e-05
7.19238e-05
6.83094e-05
6.10137e-05
4.52988e-05
4.49678e-05
5.99116e-05
6.69006e-05
7.05139e-05
7.24184e-05
7.33199e-05
7.35608e-05
7.32978e-05
7.25806e-05
7.14127e-05
6.98084e-05
6.7839e-05
6.56648e-05
6.36991e-05
6.25959e-05
6.21234e-05
6.195e-05
6.18944e-05
6.1882e-05
6.18924e-05
6.19453e-05
6.21148e-05
6.25853e-05
6.36946e-05
6.57029e-05
6.79518e-05
6.99594e-05
7.13868e-05
7.20288e-05
7.17177e-05
7.01696e-05
6.6753e-05
5.98635e-05
4.49667e-05
4.42419e-05
5.7559e-05
6.37567e-05
6.69001e-05
6.85314e-05
6.93132e-05
6.95717e-05
6.94592e-05
6.90241e-05
6.82625e-05
6.71646e-05
6.57709e-05
6.42335e-05
6.28673e-05
6.20478e-05
6.16671e-05
6.15204e-05
6.14722e-05
6.14614e-05
6.14714e-05
6.15184e-05
6.16637e-05
6.20444e-05
6.28697e-05
6.42537e-05
6.58133e-05
6.71885e-05
6.81321e-05
6.84889e-05
6.81057e-05
6.67055e-05
6.36829e-05
5.75409e-05
4.42454e-05
4.27685e-05
5.28067e-05
5.75637e-05
5.99201e-05
6.11064e-05
6.16666e-05
6.18691e-05
6.18395e-05
6.16194e-05
6.12034e-05
6.05751e-05
5.97552e-05
5.88449e-05
5.80357e-05
5.75292e-05
5.72814e-05
5.71811e-05
5.71465e-05
5.71386e-05
5.71467e-05
5.71813e-05
5.72816e-05
5.75298e-05
5.80391e-05
5.88547e-05
5.977e-05
6.05674e-05
6.10919e-05
6.12436e-05
6.09044e-05
5.98398e-05
5.75417e-05
5.2807e-05
4.27737e-05
4.03313e-05
4.27725e-05
4.42523e-05
4.4984e-05
4.53275e-05
4.54801e-05
4.55385e-05
4.55444e-05
4.55094e-05
4.54295e-05
4.53044e-05
4.51312e-05
4.49286e-05
4.47419e-05
4.46223e-05
4.45614e-05
4.45339e-05
4.45211e-05
4.45168e-05
4.45217e-05
4.45344e-05
4.45617e-05
4.46222e-05
4.47416e-05
4.49287e-05
4.51315e-05
4.53e-05
4.54065e-05
4.54238e-05
4.53127e-05
4.49878e-05
4.42614e-05
4.27802e-05
4.03357e-05
6.26314e-05
7.15548e-05
7.65925e-05
7.91716e-05
8.04733e-05
8.11068e-05
8.13956e-05
8.15131e-05
8.15492e-05
8.15488e-05
8.15344e-05
8.15173e-05
8.15026e-05
8.14922e-05
8.14855e-05
8.1481e-05
8.14782e-05
8.14767e-05
8.14766e-05
8.14778e-05
8.14805e-05
8.14846e-05
8.14905e-05
8.14985e-05
8.15064e-05
8.15053e-05
8.14737e-05
8.13646e-05
8.10855e-05
8.04606e-05
7.91652e-05
7.65901e-05
7.15547e-05
6.26326e-05
7.15554e-05
0.000210809
0.0002622
0.000287185
0.000300459
0.000307482
0.000310974
0.000312487
0.000312937
0.000312855
0.000312551
0.000312203
0.000311907
0.000311695
0.000311559
0.000311474
0.000311423
0.000311399
0.000311399
0.000311423
0.000311473
0.000311553
0.000311674
0.000311841
0.000312018
0.000312071
0.000311697
0.000310332
0.000307014
0.000300149
0.000286993
0.000262084
0.000210737
7.15555e-05
7.65956e-05
0.000262227
0.000334807
0.000371095
0.000390865
0.000401592
0.000407023
0.000409337
0.000409876
0.000409486
0.000408708
0.000407887
0.000407216
0.000406755
0.000406473
0.000406301
0.0004062
0.000406153
0.000406153
0.000406201
0.000406299
0.00040646
0.000406711
0.000407084
0.000407531
0.00040782
0.000407433
0.000405459
0.000400441
0.000390102
0.000370634
0.000334549
0.000262095
7.6595e-05
7.91774e-05
0.00028723
0.000371119
0.000413971
0.000437731
0.000450761
0.000457277
0.000459768
0.000459838
0.000458587
0.000456812
0.000455081
0.000453723
0.000452832
0.000452308
0.00045199
0.0004518
0.00045171
0.000451711
0.000451801
0.000451987
0.00045229
0.000452767
0.00045353
0.000454571
0.00045557
0.000455792
0.000453992
0.000448331
0.000436109
0.00041299
0.000370583
0.000286981
7.91731e-05
8.04814e-05
0.00030052
0.000390918
0.000437772
0.000463988
0.000478286
0.000485052
0.000486903
0.000485606
0.000482526
0.000478825
0.000475443
0.0004729
0.00047133
0.000470462
0.000469914
0.000469571
0.000469407
0.000469408
0.000469572
0.00046991
0.00047044
0.00047125
0.000472663
0.000474814
0.000477305
0.000479146
0.000478655
0.000473557
0.000460824
0.00043585
0.00038987
0.000300049
8.04674e-05
8.11172e-05
0.000307566
0.000401699
0.000450897
0.00047842
0.000493039
0.000499098
0.000499172
0.000495097
0.000488559
0.000481382
0.000475267
0.000470892
0.000468418
0.000467188
0.00046631
0.000465721
0.000465438
0.000465439
0.000465723
0.000466308
0.000467166
0.000468333
0.000470635
0.000474572
0.000479679
0.000484762
0.000487331
0.00048443
0.000472693
0.00044742
0.000399798
0.000306716
8.10835e-05
8.14086e-05
0.000311101
0.000407242
0.000457626
0.000485531
0.000499562
0.000503803
0.000500538
0.000491456
0.000478635
0.000465346
0.00045542
0.000448759
0.000445488
0.000444205
0.000442877
0.000441912
0.00044146
0.000441462
0.000441915
0.000442877
0.000444188
0.000445413
0.000448514
0.000454723
0.000463574
0.000474588
0.000483129
0.000484804
0.00047588
0.000451812
0.000404062
0.000309673
8.13418e-05
8.153e-05
0.000312698
0.000409772
0.000460547
0.000488119
0.000500747
0.000501968
0.000493291
0.000475554
0.000450849
0.000425917
0.000413561
0.000405998
0.000403188
0.000402919
0.000400995
0.000399562
0.000398942
0.000398944
0.000399565
0.000400998
0.00040291
0.000403133
0.0004058
0.000412944
0.000424222
0.000446727
0.000466863
0.000476853
0.000472988
0.00045159
0.000404898
0.000310498
8.1416e-05
8.15725e-05
0.000313294
0.000410687
0.000461374
0.000488174
0.000498845
0.000496
0.000479394
0.000446707
0.000396123
0.000339572
0.000343108
0.000344016
0.000345617
0.000348377
0.000345856
0.000344183
0.000343566
0.000343567
0.000344186
0.00034586
0.000348377
0.000345589
0.000343897
0.000342681
0.000338247
0.000392183
0.000437813
0.000462435
0.000466264
0.000448756
0.000403896
0.00031022
8.1403e-05
8.15822e-05
0.000313438
0.000410871
0.000461296
0.000487252
0.000495945
0.000488747
0.00046218
0.000404481
0.000286457
9.56228e-05
0.00022673
0.000270596
0.000283742
0.000290783
0.000288496
0.000287365
0.000287051
0.000287052
0.000287367
0.000288501
0.00029079
0.000283741
0.000270574
0.000226689
9.54374e-05
0.000283316
0.000395585
0.000444841
0.000458481
0.000445257
0.000402353
0.00030958
8.13621e-05
8.15819e-05
0.000313439
0.00041086
0.000461106
0.000486544
0.000494036
0.000484029
0.000449594
0.000361344
9.85888e-05
8.48905e-05
0.00021331
0.000238557
0.00024364
0.000246479
0.000247445
0.000247669
0.00024767
0.000247448
0.000246486
0.000243649
0.000238569
0.000213324
8.48904e-05
9.79883e-05
0.000352833
0.000432086
0.00045349
0.000443045
0.000401334
0.000309117
8.13333e-05
8.15813e-05
0.00031344
0.000410918
0.000461206
0.00048669
0.000494374
0.000485372
0.000455953
0.000394319
0.00027239
9.15436e-05
0.000189961
0.000218307
0.000223486
0.000218314
0.000226844
0.00022981
0.00023039
0.000230391
0.000229812
0.000226848
0.00021831
0.000223478
0.000218285
0.000189883
9.13419e-05
0.000269218
0.000385324
0.000438459
0.000454862
0.00044336
0.000401404
0.00030909
8.13355e-05
8.15828e-05
0.000313489
0.000411103
0.000461622
0.000487553
0.00049622
0.000489651
0.000466873
0.000424777
0.000361027
0.000288784
0.000266377
0.000245303
0.000236975
0.000232425
0.000234353
0.000235325
0.000235546
0.000235545
0.000235323
0.000234349
0.000232409
0.000236939
0.000245198
0.000266014
0.00028752
0.000357066
0.000415716
0.000449539
0.000459321
0.000445336
0.000402321
0.000309453
8.13632e-05
8.15857e-05
0.000313569
0.00041136
0.000462189
0.000488695
0.000498473
0.000494134
0.000475973
0.000443433
0.000397451
0.000344964
0.000300051
0.000261637
0.000245711
0.000239969
0.000238829
0.000238652
0.00023862
0.00023862
0.000238651
0.000238825
0.000239954
0.000245668
0.0002615
0.000299576
0.000343424
0.000393313
0.000434402
0.000458788
0.000463979
0.000447737
0.000403544
0.000309979
8.13995e-05
8.15883e-05
0.000313652
0.000411612
0.000462734
0.000489756
0.000500437
0.000497655
0.00048213
0.000453793
0.000413404
0.000364693
0.000314559
0.000269766
0.000250116
0.000243018
0.000240861
0.000240285
0.000240156
0.000240156
0.000240285
0.000240858
0.000243005
0.000250072
0.00026962
0.000314053
0.000363077
0.000409213
0.000444786
0.000465032
0.000467613
0.0004498
0.000404658
0.000310477
8.14311e-05
8.15898e-05
0.00031372
0.000411812
0.000463158
0.000490559
0.000501852
0.000500016
0.00048586
0.000459307
0.000420742
0.000372753
0.000320917
0.000273643
0.000252312
0.000244432
0.000241898
0.000241188
0.000241028
0.000241029
0.000241189
0.000241897
0.000244421
0.000252269
0.000273497
0.000320406
0.000371109
0.000416527
0.000450303
0.000468796
0.000470024
0.000451262
0.000405477
0.000310849
8.14525e-05
8.15901e-05
0.000313764
0.000411942
0.000463433
0.000491068
0.000502719
0.000501392
0.000487893
0.000462068
0.000424092
0.000376171
0.000323617
0.000275371
0.000253323
0.000245082
0.000242396
0.000241637
0.000241468
0.000241469
0.000241639
0.000242395
0.000245071
0.000253281
0.000275225
0.000323122
0.000374514
0.00041986
0.000453056
0.000470833
0.000471414
0.000452141
0.00040598
0.000311078
8.14641e-05
8.15895e-05
0.000313785
0.000412005
0.000463565
0.00049131
0.000503124
0.000502014
0.000488775
0.000463209
0.000425402
0.000377447
0.000324615
0.000276019
0.000253705
0.000245326
0.000242584
0.000241809
0.000241637
0.000241639
0.000241811
0.000242583
0.000245315
0.000253663
0.000275873
0.000324113
0.000375782
0.000421161
0.000454189
0.000471713
0.000472036
0.000452544
0.000406214
0.000311184
8.14683e-05
8.15887e-05
0.000313785
0.000412007
0.000463569
0.000491315
0.000503131
0.000502025
0.000488789
0.000463225
0.000425421
0.000377466
0.000324634
0.000276044
0.00025372
0.000245333
0.000242588
0.000241813
0.000241642
0.000241643
0.000241815
0.000242588
0.000245323
0.000253678
0.000275898
0.000324132
0.000375802
0.00042118
0.000454206
0.000471726
0.000472047
0.000452551
0.000406218
0.000311185
8.14672e-05
8.15878e-05
0.000313764
0.000411947
0.000463443
0.000491083
0.000502742
0.000501422
0.000487933
0.000462118
0.000424151
0.000376232
0.000323681
0.00027545
0.000253375
0.000245112
0.000242417
0.000241657
0.00024149
0.000241492
0.00024166
0.000242417
0.000245103
0.000253334
0.000275307
0.000323183
0.000374576
0.000419919
0.000453107
0.000470873
0.000471444
0.000452162
0.000405992
0.000311081
8.14613e-05
8.15867e-05
0.000313718
0.000411817
0.00046317
0.000490578
0.000501882
0.000500058
0.000485921
0.000459389
0.000420845
0.00037287
0.000321041
0.000273797
0.000252419
0.000244505
0.000241956
0.000241245
0.000241089
0.000241091
0.000241249
0.000241959
0.000244499
0.000252383
0.000273661
0.000320556
0.00037123
0.000416631
0.000450384
0.000468854
0.000470065
0.00045129
0.000405493
0.000310852
8.14488e-05
8.15846e-05
0.000313645
0.00041161
0.000462735
0.000489762
0.000500452
0.000497689
0.000482194
0.0004539
0.000413562
0.000364898
0.000314824
0.000270029
0.000250303
0.00024316
0.000240982
0.000240405
0.00024028
0.000240283
0.000240411
0.000240989
0.00024316
0.000250276
0.000269905
0.000314345
0.000363293
0.000409375
0.000444885
0.000465083
0.000467637
0.000449813
0.000404664
0.000310474
8.14268e-05
8.15811e-05
0.000313544
0.000411325
0.000462143
0.000488641
0.000498421
0.000494101
0.000475988
0.000443535
0.000397679
0.000345316
0.000300492
0.000262007
0.000245955
0.00024016
0.000238977
0.000238794
0.000238768
0.000238772
0.000238805
0.000238991
0.000240168
0.000245936
0.000261904
0.000300067
0.000343803
0.000393546
0.000434471
0.000458755
0.000463914
0.000447678
0.000403503
0.00030995
8.1394e-05
8.15758e-05
0.000313416
0.000410978
0.000461442
0.000487326
0.000495963
0.000489399
0.000466688
0.000424771
0.000361336
0.000289368
0.00026701
0.000245537
0.000236928
0.000232292
0.000234105
0.000235057
0.000235286
0.000235291
0.00023507
0.000234117
0.000232283
0.000236879
0.000245431
0.000266716
0.000288167
0.000357402
0.00041559
0.000449202
0.000458971
0.000445062
0.000402142
0.000309353
8.13542e-05
8.15673e-05
0.000313242
0.000410559
0.000460691
0.000486034
0.000493603
0.00048454
0.000455172
0.000393857
0.00027281
9.16643e-05
0.000190134
0.000216918
0.000221318
0.000215755
0.000224092
0.00022705
0.000227641
0.000227639
0.000227037
0.00022404
0.000215587
0.000221011
0.000216541
0.000190123
9.14599e-05
0.000269699
0.000384476
0.00043724
0.000453773
0.000442552
0.000400883
0.000308813
8.13171e-05
8.15495e-05
0.000312935
0.000409954
0.000459827
0.000484925
0.00049211
0.000481836
0.000447251
0.000359314
9.82425e-05
8.35712e-05
0.000205668
0.00022872
0.000232429
0.000235069
0.000236095
0.000236361
0.000236341
0.000236005
0.000234799
0.00023175
0.000227378
0.000203718
8.30217e-05
9.73512e-05
0.000349465
0.000428604
0.000450713
0.000441066
0.000400059
0.000308442
8.12917e-05
8.15034e-05
0.000312244
0.000408779
0.000458417
0.000483664
0.000491679
0.000483754
0.000456345
0.000397812
0.000279858
9.35059e-05
0.000208983
0.000246422
0.000253675
0.000256498
0.000254226
0.000253474
0.000253339
0.000253286
0.000253236
0.000253502
0.000254605
0.000249466
0.000238867
0.000201131
9.19485e-05
0.000272018
0.000384825
0.00043645
0.00045237
0.000440994
0.000399571
0.000308075
8.12672e-05
8.13839e-05
0.000310639
0.000406207
0.000455392
0.000480884
0.000490294
0.000485993
0.00046736
0.000431551
0.000376066
0.000312112
0.000301897
0.00028895
0.000275019
0.000268714
0.000265488
0.000264388
0.000264088
0.000264
0.000263982
0.000264187
0.000265005
0.000265694
0.000270024
0.000281194
0.000294473
0.000359691
0.0004146
0.000446011
0.000454615
0.000440533
0.000398348
0.000307104
8.11907e-05
8.1098e-05
0.000307164
0.000400798
0.000448934
0.000474326
0.000484935
0.000483853
0.000471884
0.000448801
0.00041519
0.000376099
0.000343111
0.000309252
0.000276913
0.000263586
0.000258861
0.000257362
0.00025693
0.000256822
0.000256849
0.000257157
0.000258415
0.000262547
0.000275713
0.000309393
0.000347775
0.0003924
0.000428746
0.000449717
0.000453192
0.000437002
0.000394554
0.000304392
8.09554e-05
8.0469e-05
0.00030021
0.000390238
0.000436273
0.000460818
0.00047196
0.000473139
0.000465701
0.000449967
0.000426189
0.000395685
0.000361092
0.000323005
0.000286527
0.000270955
0.000265361
0.000263531
0.000262983
0.000262857
0.00026294
0.000263423
0.000265155
0.000270646
0.000286451
0.000324122
0.000364502
0.00040165
0.000429452
0.000444334
0.000444468
0.000427217
0.000385609
0.000298196
8.03741e-05
7.91714e-05
0.000287011
0.000370669
0.000412968
0.000435558
0.000446328
0.000448778
0.000444423
0.000433702
0.000416609
0.00039337
0.0003651
0.000334167
0.0003064
0.000292508
0.000286866
0.000284845
0.000284194
0.000284042
0.000284178
0.000284807
0.000286803
0.000292466
0.000306595
0.00033496
0.000366736
0.000395172
0.000415721
0.000425806
0.000423697
0.00040659
0.000367516
0.000285673
7.91157e-05
7.65948e-05
0.000262083
0.000334549
0.000370523
0.000389583
0.000398881
0.00040166
0.000399389
0.000392534
0.000381058
0.00036498
0.000345061
0.000323532
0.000304757
0.000294154
0.00028937
0.00028749
0.000286835
0.000286681
0.00028684
0.000287499
0.000289387
0.00029421
0.000304943
0.000323976
0.000345733
0.00036522
0.000379032
0.000385126
0.000381866
0.000366531
0.000332662
0.000261304
7.65684e-05
7.1558e-05
0.000210728
0.000262088
0.000286944
0.000299894
0.00030622
0.000308355
0.000307429
0.000303821
0.000297509
0.000288469
0.000277153
0.000264968
0.000254387
0.000247941
0.000244805
0.000243496
0.000243018
0.000242906
0.000243032
0.000243524
0.000244851
0.000248017
0.000254532
0.000265221
0.000277452
0.000288388
0.000295985
0.000298916
0.000295957
0.000285011
0.000261229
0.000210386
7.1551e-05
6.26351e-05
7.15579e-05
7.65991e-05
7.91787e-05
8.04708e-05
8.10733e-05
8.12893e-05
8.12604e-05
8.10319e-05
8.05978e-05
7.99416e-05
7.90832e-05
7.81289e-05
7.72832e-05
7.67506e-05
7.64872e-05
7.63766e-05
7.6336e-05
7.63263e-05
7.63369e-05
7.63783e-05
7.64893e-05
7.67537e-05
7.72892e-05
7.81411e-05
7.90987e-05
7.99315e-05
8.0479e-05
8.0632e-05
8.0257e-05
7.90881e-05
7.6567e-05
7.155e-05
6.26392e-05
6.58581e-05
7.81852e-05
8.50122e-05
8.85675e-05
9.04224e-05
9.13614e-05
9.18068e-05
9.19939e-05
9.20513e-05
9.20477e-05
9.20194e-05
9.19861e-05
9.19577e-05
9.19376e-05
9.19248e-05
9.19167e-05
9.19118e-05
9.19095e-05
9.19094e-05
9.19117e-05
9.19163e-05
9.19238e-05
9.1935e-05
9.19504e-05
9.19662e-05
9.19672e-05
9.19176e-05
9.17458e-05
9.1318e-05
9.03949e-05
8.85521e-05
8.50046e-05
7.81824e-05
6.58592e-05
7.81853e-05
0.000278201
0.000357988
0.00039762
0.000419051
0.000430626
0.000436509
0.000439101
0.000439857
0.000439659
0.000439047
0.000438346
0.000437745
0.000437309
0.000437025
0.000436845
0.000436738
0.000436687
0.000436687
0.000436737
0.00043684
0.000437007
0.000437257
0.000437601
0.000437969
0.000438115
0.000437505
0.000435198
0.000429652
0.000418387
0.000397195
0.000357726
0.00027805
7.81823e-05
8.50149e-05
0.000358034
0.000478155
0.000539931
0.000574088
0.000592877
0.000602517
0.000606652
0.000607564
0.000606733
0.000605147
0.000603462
0.000602068
0.000601101
0.000600499
0.00060013
0.000599912
0.000599811
0.000599811
0.000599911
0.000600121
0.000600466
0.000600998
0.000601782
0.000602726
0.000603381
0.000602786
0.000599324
0.000590497
0.000572473
0.000538924
0.000477571
0.000357744
8.5008e-05
8.85733e-05
0.0003977
0.000539979
0.000614922
0.000657037
0.00068037
0.000692133
0.000696615
0.000696612
0.000694084
0.0006905
0.000686959
0.000684144
0.000682284
0.000681182
0.000680502
0.000680095
0.000679904
0.000679904
0.000680093
0.00068049
0.000681134
0.000682135
0.00068373
0.000685906
0.00068802
0.000688661
0.000685558
0.000675465
0.000653707
0.000612856
0.000538813
0.000397161
8.8557e-05
9.04313e-05
0.000419164
0.000574199
0.000657126
0.000704116
0.000729951
0.000742223
0.00074549
0.000742857
0.00073675