/*--------------------------------*- C++ -*----------------------------------*\
| =========                 |                                                 |
| \\      /  F ield         | OpenFOAM: The Open Source CFD Toolbox           |
|  \\    /   O peration     | Version:  2112                                  |
|   \\  /    A nd           | Website:  www.openfoam.com                      |
|    \\/     M anipulation  |                                                 |
\*---------------------------------------------------------------------------*/
FoamFile
{
    version     2.0;
    format      ascii;
    arch        "LSB;label=32;scalar=64";
    class       volScalarField;
    location    "3.9";
    object      p;
}
// * * * * * * * * * * * * * * * * * * * * * * * * * * * * * * * * * * * * * //

dimensions      [0 2 -2 0 0 0 0];

internalField   nonuniform List<scalar> 
64906
(
-5.04128e-06
-5.02442e-06
-5.01071e-06
-5.01027e-06
-5.02957e-06
-5.08118e-06
-5.15055e-06
-5.2432e-06
-5.35873e-06
-5.49485e-06
-5.64617e-06
-5.81206e-06
-5.96951e-06
-6.10788e-06
-6.22676e-06
-6.32364e-06
-6.39563e-06
-6.44135e-06
-6.46015e-06
-6.45216e-06
-6.41843e-06
-6.36061e-06
-6.2818e-06
-6.18412e-06
-6.06408e-06
-5.94672e-06
-5.84304e-06
-5.75525e-06
-5.6879e-06
-5.63796e-06
-5.61779e-06
-5.62087e-06
-5.63764e-06
-5.65591e-06
-4.98688e-06
-4.92018e-06
-4.8676e-06
-4.82913e-06
-4.8151e-06
-4.82623e-06
-4.85877e-06
-4.911e-06
-4.97961e-06
-5.06099e-06
-5.14727e-06
-5.22974e-06
-5.31297e-06
-5.39633e-06
-5.46867e-06
-5.52864e-06
-5.57457e-06
-5.60632e-06
-5.6237e-06
-5.62682e-06
-5.61623e-06
-5.59228e-06
-5.55704e-06
-5.51253e-06
-5.47452e-06
-5.43111e-06
-5.3887e-06
-5.35415e-06
-5.33575e-06
-5.33789e-06
-5.36661e-06
-5.42355e-06
-5.49747e-06
-5.58135e-06
-4.95934e-06
-4.85699e-06
-4.75793e-06
-4.67375e-06
-4.62162e-06
-4.60065e-06
-4.60795e-06
-4.64097e-06
-4.69574e-06
-4.7695e-06
-4.852e-06
-4.93921e-06
-5.01759e-06
-5.08876e-06
-5.14599e-06
-5.19233e-06
-5.22747e-06
-5.25302e-06
-5.26927e-06
-5.27636e-06
-5.27428e-06
-5.2617e-06
-5.23939e-06
-5.20481e-06
-5.16584e-06
-5.11907e-06
-5.08139e-06
-5.05791e-06
-5.06142e-06
-5.0973e-06
-5.17195e-06
-5.28868e-06
-5.42248e-06
-5.55536e-06
-4.96034e-06
-4.82463e-06
-4.68233e-06
-4.55472e-06
-4.46917e-06
-4.42585e-06
-4.42352e-06
-4.46163e-06
-4.5377e-06
-4.65187e-06
-4.7881e-06
-4.94065e-06
-5.0682e-06
-5.17434e-06
-5.2504e-06
-5.30738e-06
-5.34702e-06
-5.37388e-06
-5.38905e-06
-5.39261e-06
-5.38379e-06
-5.35824e-06
-5.31481e-06
-5.24297e-06
-5.15272e-06
-5.04084e-06
-4.95224e-06
-4.89439e-06
-4.88777e-06
-4.93607e-06
-5.04406e-06
-5.21381e-06
-5.4021e-06
-5.57981e-06
-5.00419e-06
-4.83999e-06
-4.66296e-06
-4.5027e-06
-4.39686e-06
-4.34898e-06
-4.36171e-06
-4.43999e-06
-4.58631e-06
-4.809e-06
-5.08349e-06
-5.40263e-06
-5.65807e-06
-5.86059e-06
-5.99772e-06
-6.096e-06
-6.15961e-06
-6.19767e-06
-6.21208e-06
-6.20289e-06
-6.16843e-06
-6.09973e-06
-5.99336e-06
-5.82331e-06
-5.60426e-06
-5.32623e-06
-5.10377e-06
-4.94498e-06
-4.88069e-06
-4.90752e-06
-5.0253e-06
-5.22872e-06
-5.45941e-06
-5.67487e-06
-5.09337e-06
-4.90191e-06
-4.69586e-06
-4.51297e-06
-4.40008e-06
-4.36573e-06
-4.41816e-06
-4.57108e-06
-4.83667e-06
-5.24054e-06
-5.75319e-06
-6.38634e-06
-6.86199e-06
-7.22592e-06
-7.4645e-06
-7.63403e-06
-7.74057e-06
-7.79963e-06
-7.81369e-06
-7.78269e-06
-7.7043e-06
-7.56294e-06
-7.35348e-06
-7.0202e-06
-6.5803e-06
-5.98818e-06
-5.53396e-06
-5.20218e-06
-5.03171e-06
-5.00314e-06
-5.10747e-06
-5.32771e-06
-5.59237e-06
-5.84438e-06
-5.22746e-06
-5.00572e-06
-4.77316e-06
-4.57483e-06
-4.46623e-06
-4.46108e-06
-4.57358e-06
-4.82804e-06
-5.25099e-06
-5.90443e-06
-6.74391e-06
-7.93483e-06
-8.72064e-06
-9.30062e-06
-9.66814e-06
-9.93048e-06
-1.00932e-05
-1.01804e-05
-1.01945e-05
-1.01354e-05
-1.00005e-05
-9.76534e-06
-9.42536e-06
-8.87358e-06
-8.12304e-06
-6.97031e-06
-6.2002e-06
-5.6266e-06
-5.31128e-06
-5.20047e-06
-5.27275e-06
-5.49827e-06
-5.79398e-06
-6.08651e-06
-5.40967e-06
-5.14547e-06
-4.88568e-06
-4.67774e-06
-4.58455e-06
-4.62371e-06
-4.81363e-06
-5.18427e-06
-5.77896e-06
-6.6953e-06
-7.87765e-06
-1.00931e-05
-1.12173e-05
-1.20575e-05
-1.25767e-05
-1.29551e-05
-1.3189e-05
-1.33125e-05
-1.33271e-05
-1.32325e-05
-1.30269e-05
-1.26751e-05
-1.21819e-05
-1.1366e-05
-1.02765e-05
-8.0882e-06
-6.99872e-06
-6.16657e-06
-5.68982e-06
-5.48129e-06
-5.50612e-06
-5.72645e-06
-6.05637e-06
-6.3961e-06
-5.61608e-06
-5.3072e-06
-5.0241e-06
-4.809e-06
-4.74e-06
-4.83571e-06
-5.11356e-06
-5.59991e-06
-6.29984e-06
-7.38212e-06
-8.91897e-06
-1.30114e-05
-1.41811e-05
-1.52609e-05
-1.59204e-05
-1.6402e-05
-1.66996e-05
-1.68563e-05
-1.68717e-05
-1.67452e-05
-1.64769e-05
-1.60221e-05
-1.53874e-05
-1.43248e-05
-1.31899e-05
-9.11153e-06
-7.72999e-06
-6.70719e-06
-6.12673e-06
-5.81792e-06
-5.78702e-06
-6.00224e-06
-6.35536e-06
-6.76376e-06
-5.84784e-06
-5.48676e-06
-5.17977e-06
-4.96535e-06
-4.93816e-06
-5.11852e-06
-5.52533e-06
-6.16236e-06
-7.06177e-06
-9.32836e-06
-7.44019e-06
-1.59728e-05
-1.71289e-05
-1.86732e-05
-1.95384e-05
-2.01821e-05
-2.05794e-05
-2.07848e-05
-2.0801e-05
-2.06275e-05
-2.02612e-05
-1.96456e-05
-1.88064e-05
-1.72748e-05
-1.61793e-05
-7.53895e-06
-9.64564e-06
-7.43731e-06
-6.69331e-06
-6.25168e-06
-6.12658e-06
-6.31477e-06
-6.68956e-06
-7.19643e-06
-6.0928e-06
-5.67246e-06
-5.33846e-06
-5.12719e-06
-5.15148e-06
-5.43303e-06
-5.95154e-06
-6.55382e-06
-7.13881e-06
-5.06194e-06
-2.34897e-05
-2.10126e-05
-2.19402e-05
-2.27175e-05
-2.33965e-05
-2.38447e-05
-2.40722e-05
-2.40888e-05
-2.38942e-05
-2.34781e-05
-2.28284e-05
-2.20747e-05
-2.11538e-05
-2.35576e-05
-5.68947e-06
-7.64538e-06
-7.12183e-06
-6.69573e-06
-6.48474e-06
-6.63149e-06
-7.02827e-06
-7.64768e-06
-6.34164e-06
-5.85852e-06
-5.49931e-06
-5.30152e-06
-5.41078e-06
-5.89513e-06
-6.85648e-06
-8.43326e-06
-1.10104e-05
-1.42488e-05
-2.12888e-05
-2.00652e-05
-2.26266e-05
-2.44295e-05
-2.57693e-05
-2.67715e-05
-2.73883e-05
-2.76826e-05
-2.76994e-05
-2.7439e-05
-2.6857e-05
-2.58909e-05
-2.45898e-05
-2.28325e-05
-2.03145e-05
-2.16428e-05
-1.45634e-05
-1.13805e-05
-8.91895e-06
-7.56179e-06
-6.95891e-06
-6.97584e-06
-7.36031e-06
-8.123e-06
-6.58146e-06
-6.03292e-06
-5.64321e-06
-5.44563e-06
-5.60568e-06
-6.20423e-06
-7.34847e-06
-9.12387e-06
-1.16222e-05
-1.45015e-05
-1.92524e-05
-2.18036e-05
-2.40609e-05
-2.60141e-05
-2.75601e-05
-2.86591e-05
-2.93385e-05
-2.9663e-05
-2.96793e-05
-2.93879e-05
-2.87427e-05
-2.76792e-05
-2.61711e-05
-2.42522e-05
-2.20171e-05
-1.95256e-05
-1.48124e-05
-1.19609e-05
-9.57364e-06
-8.03605e-06
-7.29152e-06
-7.2628e-06
-7.68036e-06
-8.55191e-06
-6.8139e-06
-6.18407e-06
-5.77112e-06
-5.56813e-06
-5.75927e-06
-6.43161e-06
-7.69292e-06
-9.62341e-06
-1.23e-05
-1.55441e-05
-1.94684e-05
-2.2437e-05
-2.50789e-05
-2.72089e-05
-2.88612e-05
-2.99848e-05
-3.06699e-05
-3.09922e-05
-3.10076e-05
-3.07164e-05
-3.00638e-05
-2.89746e-05
-2.73596e-05
-2.52637e-05
-2.26571e-05
-1.97129e-05
-1.58e-05
-1.2595e-05
-1.00425e-05
-8.3723e-06
-7.55091e-06
-7.51099e-06
-7.971e-06
-8.93934e-06
-7.01093e-06
-6.32098e-06
-5.87906e-06
-5.66027e-06
-5.85784e-06
-6.55854e-06
-7.86369e-06
-9.84621e-06
-1.25542e-05
-1.58316e-05
-1.95086e-05
-2.2777e-05
-2.5671e-05
-2.78796e-05
-2.95608e-05
-3.06696e-05
-3.13362e-05
-3.16453e-05
-3.16594e-05
-3.1379e-05
-3.07424e-05
-2.96651e-05
-2.80183e-05
-2.58406e-05
-2.29791e-05
-1.97244e-05
-1.60589e-05
-1.28239e-05
-1.02501e-05
-8.54865e-06
-7.71887e-06
-7.70312e-06
-8.21429e-06
-9.2681e-06
-7.17129e-06
-6.43685e-06
-5.96879e-06
-5.73191e-06
-5.92558e-06
-6.63526e-06
-7.95676e-06
-9.95958e-06
-1.26786e-05
-1.59772e-05
-1.96213e-05
-2.30438e-05
-2.60604e-05
-2.83176e-05
-3.00087e-05
-3.10969e-05
-3.17409e-05
-3.2035e-05
-3.2048e-05
-3.17804e-05
-3.11638e-05
-3.01043e-05
-2.84445e-05
-2.62141e-05
-2.32247e-05
-1.9815e-05
-1.6184e-05
-1.29323e-05
-1.03577e-05
-8.65435e-06
-7.83763e-06
-7.85433e-06
-8.41166e-06
-9.53339e-06
-7.29139e-06
-6.52864e-06
-6.03886e-06
-5.78509e-06
-5.97051e-06
-6.67943e-06
-8.00448e-06
-1.00152e-05
-1.27422e-05
-1.60654e-05
-1.97307e-05
-2.32244e-05
-2.63321e-05
-2.86224e-05
-3.03185e-05
-3.13933e-05
-3.20228e-05
-3.23072e-05
-3.23196e-05
-3.20603e-05
-3.14564e-05
-3.04079e-05
-2.87399e-05
-2.64724e-05
-2.33862e-05
-1.99084e-05
-1.6259e-05
-1.29873e-05
-1.04134e-05
-8.71673e-06
-7.91863e-06
-7.96598e-06
-8.56011e-06
-9.73196e-06
-7.37178e-06
-6.59416e-06
-6.08986e-06
-5.82459e-06
-6.00403e-06
-6.71229e-06
-8.04111e-06
-1.00612e-05
-1.28026e-05
-1.61536e-05
-1.98538e-05
-2.34068e-05
-2.6561e-05
-2.8876e-05
-3.05812e-05
-3.16545e-05
-3.22796e-05
-3.25608e-05
-3.25732e-05
-3.2317e-05
-3.1717e-05
-3.06688e-05
-2.89896e-05
-2.66942e-05
-2.35609e-05
-2.00226e-05
-1.63404e-05
-1.30441e-05
-1.04617e-05
-8.76532e-06
-7.9777e-06
-8.04441e-06
-8.66162e-06
-9.86489e-06
-7.41383e-06
-6.63182e-06
-6.1216e-06
-5.85179e-06
-6.02972e-06
-6.7403e-06
-8.07616e-06
-1.01094e-05
-1.28711e-05
-1.62504e-05
-1.99839e-05
-2.35724e-05
-2.67546e-05
-2.909e-05
-3.08088e-05
-3.18912e-05
-3.25217e-05
-3.28058e-05
-3.2819e-05
-3.25613e-05
-3.19569e-05
-3.09001e-05
-2.92069e-05
-2.68895e-05
-2.37236e-05
-2.0152e-05
-1.64371e-05
-1.31135e-05
-1.05133e-05
-8.80779e-06
-8.01918e-06
-8.09138e-06
-8.71715e-06
-9.93351e-06
-7.41756e-06
-6.64242e-06
-6.13459e-06
-5.86702e-06
-6.04791e-06
-6.76364e-06
-8.10941e-06
-1.01587e-05
-1.29452e-05
-1.63529e-05
-2.01194e-05
-2.37233e-05
-2.69139e-05
-2.92639e-05
-3.09989e-05
-3.20996e-05
-3.27444e-05
-3.30373e-05
-3.30521e-05
-3.27888e-05
-3.21728e-05
-3.11e-05
-2.93922e-05
-2.70613e-05
-2.38886e-05
-2.02967e-05
-1.65464e-05
-1.31929e-05
-1.05668e-05
-8.84387e-06
-8.04341e-06
-8.10771e-06
-8.7279e-06
-9.93921e-06
-7.3827e-06
-6.62898e-06
-6.13024e-06
-5.86969e-06
-6.05497e-06
-6.77461e-06
-8.12842e-06
-1.01928e-05
-1.30085e-05
-1.64477e-05
-2.02622e-05
-2.38627e-05
-2.70356e-05
-2.93914e-05
-3.11434e-05
-3.2271e-05
-3.29387e-05
-3.32461e-05
-3.32636e-05
-3.2991e-05
-3.23572e-05
-3.1262e-05
-2.95408e-05
-2.72069e-05
-2.40479e-05
-2.04586e-05
-1.66576e-05
-1.32698e-05
-1.06109e-05
-8.86647e-06
-8.04776e-06
-8.09403e-06
-8.69586e-06
-9.88423e-06
-7.30479e-06
-6.59985e-06
-6.10946e-06
-5.8561e-06
-6.04072e-06
-6.7529e-06
-8.09847e-06
-1.01598e-05
-1.29947e-05
-1.64677e-05
-2.03994e-05
-2.39839e-05
-2.70778e-05
-2.94101e-05
-3.11647e-05
-3.23209e-05
-3.30161e-05
-3.33426e-05
-3.3364e-05
-3.30802e-05
-3.24263e-05
-3.13103e-05
-2.95931e-05
-2.72896e-05
-2.42166e-05
-2.06267e-05
-1.67062e-05
-1.32825e-05
-1.05994e-05
-8.84726e-06
-8.01868e-06
-8.04653e-06
-8.62168e-06
-9.77095e-06
-7.20427e-06
-6.5477e-06
-6.07293e-06
-5.82643e-06
-6.00153e-06
-6.68752e-06
-7.99587e-06
-1.00174e-05
-1.28517e-05
-1.63564e-05
-2.05913e-05
-2.4078e-05
-2.69948e-05
-2.92741e-05
-3.10112e-05
-3.21902e-05
-3.29102e-05
-3.32556e-05
-3.3283e-05
-3.29927e-05
-3.23265e-05
-3.12011e-05
-2.95128e-05
-2.72724e-05
-2.43704e-05
-2.08651e-05
-1.66533e-05
-1.31922e-05
-1.05005e-05
-8.77187e-06
-7.95383e-06
-7.96978e-06
-8.51267e-06
-9.60709e-06
-7.09017e-06
-6.47359e-06
-6.01918e-06
-5.77287e-06
-5.91693e-06
-6.53408e-06
-7.73077e-06
-9.58999e-06
-1.21948e-05
-1.52787e-05
-2.06008e-05
-2.43872e-05
-2.67007e-05
-2.87747e-05
-3.04109e-05
-3.15744e-05
-3.23001e-05
-3.26582e-05
-3.26946e-05
-3.24101e-05
-3.17573e-05
-3.06688e-05
-2.91009e-05
-2.70898e-05
-2.48107e-05
-2.09271e-05
-1.5633e-05
-1.26048e-05
-1.01461e-05
-8.56089e-06
-7.8186e-06
-7.85307e-06
-8.37037e-06
-9.3991e-06
-6.96504e-06
-6.39293e-06
-5.96018e-06
-5.71198e-06
-5.81403e-06
-6.33802e-06
-7.3947e-06
-9.13714e-06
-1.19895e-05
-1.57948e-05
-2.20517e-05
-2.27734e-05
-2.5853e-05
-2.8097e-05
-2.96338e-05
-3.07701e-05
-3.14807e-05
-3.18377e-05
-3.18891e-05
-3.16375e-05
-3.1033e-05
-3.0008e-05
-2.85639e-05
-2.64021e-05
-2.33407e-05
-2.23493e-05
-1.64072e-05
-1.26012e-05
-9.8408e-06
-8.31826e-06
-7.66178e-06
-7.72815e-06
-8.22729e-06
-9.15974e-06
-6.83637e-06
-6.3093e-06
-5.89448e-06
-5.63471e-06
-5.66463e-06
-6.00031e-06
-6.58773e-06
-7.17115e-06
-7.63739e-06
-4.41791e-06
-2.96436e-05
-2.60076e-05
-2.70131e-05
-2.79447e-05
-2.87866e-05
-2.93697e-05
-2.96918e-05
-2.97607e-05
-2.95823e-05
-2.91484e-05
-2.84734e-05
-2.76806e-05
-2.68315e-05
-3.0423e-05
-4.99615e-06
-8.36245e-06
-7.99515e-06
-7.61801e-06
-7.3791e-06
-7.56448e-06
-8.07904e-06
-8.90116e-06
-6.71953e-06
-6.23606e-06
-5.84689e-06
-5.59678e-06
-5.6159e-06
-5.94934e-06
-6.67026e-06
-7.88171e-06
-9.88418e-06
-1.31486e-05
-1.4049e-05
-2.08585e-05
-2.30525e-05
-2.51524e-05
-2.6535e-05
-2.7597e-05
-2.82906e-05
-2.86781e-05
-2.87721e-05
-2.85839e-05
-2.8102e-05
-2.72816e-05
-2.60953e-05
-2.42486e-05
-2.21156e-05
-1.59085e-05
-1.47126e-05
-1.11953e-05
-9.02659e-06
-7.84901e-06
-7.37423e-06
-7.48635e-06
-7.94672e-06
-8.67619e-06
-6.6207e-06
-6.17819e-06
-5.81614e-06
-5.57891e-06
-5.58499e-06
-5.87707e-06
-6.50752e-06
-7.52469e-06
-8.956e-06
-1.08191e-05
-1.45576e-05
-1.91967e-05
-2.12961e-05
-2.32573e-05
-2.46937e-05
-2.58053e-05
-2.65293e-05
-2.69397e-05
-2.70515e-05
-2.68819e-05
-2.64189e-05
-2.56171e-05
-2.44229e-05
-2.27688e-05
-2.07355e-05
-1.62941e-05
-1.21716e-05
-1.02448e-05
-8.73421e-06
-7.74667e-06
-7.31508e-06
-7.40827e-06
-7.82937e-06
-8.49873e-06
-6.54267e-06
-6.1494e-06
-5.82358e-06
-5.61265e-06
-5.62331e-06
-5.89719e-06
-6.49146e-06
-7.48001e-06
-8.97539e-06
-1.1047e-05
-1.37416e-05
-1.69782e-05
-1.93357e-05
-2.13765e-05
-2.288e-05
-2.40426e-05
-2.47917e-05
-2.52131e-05
-2.53315e-05
-2.51687e-05
-2.47062e-05
-2.3899e-05
-2.26824e-05
-2.10082e-05
-1.87769e-05
-1.56334e-05
-1.27667e-05
-1.0469e-05
-8.79815e-06
-7.77572e-06
-7.32805e-06
-7.38639e-06
-7.7606e-06
-8.38097e-06
-6.5166e-06
-6.16141e-06
-5.88021e-06
-5.70699e-06
-5.73176e-06
-5.98895e-06
-6.52659e-06
-7.40754e-06
-8.70604e-06
-1.04802e-05
-1.27078e-05
-1.52242e-05
-1.74189e-05
-1.9365e-05
-2.08275e-05
-2.19446e-05
-2.26612e-05
-2.30638e-05
-2.31816e-05
-2.30353e-05
-2.26077e-05
-2.18564e-05
-2.0707e-05
-1.914e-05
-1.70675e-05
-1.45932e-05
-1.21959e-05
-1.02086e-05
-8.74118e-06
-7.81277e-06
-7.39162e-06
-7.42398e-06
-7.74867e-06
-8.31703e-06
-6.52833e-06
-6.22226e-06
-6.00222e-06
-5.88609e-06
-5.94487e-06
-6.20354e-06
-6.69622e-06
-7.46685e-06
-8.56367e-06
-1.00156e-05
-1.17892e-05
-1.37685e-05
-1.56394e-05
-1.73551e-05
-1.86796e-05
-1.96859e-05
-2.03386e-05
-2.07081e-05
-2.08248e-05
-2.06936e-05
-2.03122e-05
-1.96435e-05
-1.86243e-05
-1.72531e-05
-1.54948e-05
-1.35334e-05
-1.16244e-05
-9.99948e-06
-8.76591e-06
-7.95916e-06
-7.56798e-06
-7.56045e-06
-7.81439e-06
-8.31253e-06
-6.57281e-06
-6.33474e-06
-6.19637e-06
-6.16057e-06
-6.27767e-06
-6.56431e-06
-7.04368e-06
-7.7435e-06
-8.6903e-06
-9.89147e-06
-1.13118e-05
-1.28765e-05
-1.44085e-05
-1.58291e-05
-1.69551e-05
-1.78153e-05
-1.8385e-05
-1.87113e-05
-1.88142e-05
-1.87063e-05
-1.8377e-05
-1.78038e-05
-1.69451e-05
-1.58091e-05
-1.43901e-05
-1.28505e-05
-1.13479e-05
-1.0035e-05
-9.00142e-06
-8.28686e-06
-7.89731e-06
-7.81824e-06
-7.96292e-06
-8.36736e-06
-6.63499e-06
-6.47646e-06
-6.42598e-06
-6.47736e-06
-6.66679e-06
-7.00861e-06
-7.5189e-06
-8.21303e-06
-9.0978e-06
-1.01684e-05
-1.13997e-05
-1.27319e-05
-1.40419e-05
-1.52559e-05
-1.62458e-05
-1.70122e-05
-1.75351e-05
-1.78396e-05
-1.79369e-05
-1.78356e-05
-1.75289e-05
-1.70049e-05
-1.62429e-05
-1.52575e-05
-1.40621e-05
-1.27763e-05
-1.15062e-05
-1.03805e-05
-9.45477e-06
-8.76861e-06
-8.3384e-06
-8.16307e-06
-8.19785e-06
-8.4479e-06
-6.69025e-06
-6.62906e-06
-6.65905e-06
-6.78722e-06
-7.04833e-06
-7.46301e-06
-8.05083e-06
-8.82698e-06
-9.79657e-06
-1.09471e-05
-1.22296e-05
-1.35766e-05
-1.4896e-05
-1.61177e-05
-1.71397e-05
-1.79446e-05
-1.85085e-05
-1.88397e-05
-1.89431e-05
-1.88235e-05
-1.84775e-05
-1.79003e-05
-1.70872e-05
-1.60613e-05
-1.4853e-05
-1.35647e-05
-1.22915e-05
-1.11155e-05
-1.01241e-05
-9.3606e-06
-8.83814e-06
-8.54898e-06
-8.4503e-06
-8.53206e-06
-5.09245e-06
-5.09577e-06
-5.10706e-06
-5.12982e-06
-5.17118e-06
-5.22663e-06
-5.31261e-06
-5.42673e-06
-5.56749e-06
-5.7322e-06
-5.91297e-06
-6.10322e-06
-6.28713e-06
-6.45567e-06
-6.60036e-06
-6.71739e-06
-6.80301e-06
-6.85585e-06
-6.87514e-06
-6.86104e-06
-6.81468e-06
-6.73774e-06
-6.63426e-06
-6.50807e-06
-6.36749e-06
-6.22447e-06
-6.09251e-06
-5.97774e-06
-5.88766e-06
-5.82661e-06
-5.78209e-06
-5.75365e-06
-5.73549e-06
-5.72311e-06
-5.05101e-06
-5.02612e-06
-5.0152e-06
-5.01094e-06
-5.02546e-06
-5.06161e-06
-5.12261e-06
-5.20801e-06
-5.31396e-06
-5.43706e-06
-5.56658e-06
-5.69933e-06
-5.82624e-06
-5.94701e-06
-6.05111e-06
-6.13702e-06
-6.20092e-06
-6.24249e-06
-6.26101e-06
-6.25664e-06
-6.23041e-06
-6.1829e-06
-6.11835e-06
-6.03867e-06
-5.95538e-06
-5.86659e-06
-5.78358e-06
-5.70924e-06
-5.65431e-06
-5.62173e-06
-5.61203e-06
-5.62229e-06
-5.63828e-06
-5.66346e-06
-5.03925e-06
-5.00727e-06
-4.98455e-06
-4.9588e-06
-4.9555e-06
-4.98096e-06
-5.03877e-06
-5.13016e-06
-5.25065e-06
-5.40002e-06
-5.56009e-06
-5.73342e-06
-5.88912e-06
-6.03435e-06
-6.15228e-06
-6.24762e-06
-6.31586e-06
-6.35923e-06
-6.37721e-06
-6.36991e-06
-6.33819e-06
-6.28006e-06
-6.20055e-06
-6.09528e-06
-5.98203e-06
-5.85301e-06
-5.74123e-06
-5.6444e-06
-5.58195e-06
-5.55396e-06
-5.56172e-06
-5.59762e-06
-5.62682e-06
-5.65851e-06
-5.05571e-06
-5.00932e-06
-4.96931e-06
-4.92112e-06
-4.903e-06
-4.92544e-06
-4.99521e-06
-5.11762e-06
-5.28887e-06
-5.51604e-06
-5.767e-06
-6.05464e-06
-6.29844e-06
-6.5202e-06
-6.68853e-06
-6.82007e-06
-6.90898e-06
-6.96223e-06
-6.97958e-06
-6.96111e-06
-6.90736e-06
-6.81153e-06
-6.68018e-06
-6.49694e-06
-6.29489e-06
-6.05225e-06
-5.85316e-06
-5.6848e-06
-5.58229e-06
-5.53857e-06
-5.55296e-06
-5.61063e-06
-5.65663e-06
-5.70431e-06
-5.11529e-06
-5.05061e-06
-4.99561e-06
-4.93251e-06
-4.91094e-06
-4.94646e-06
-5.05081e-06
-5.2365e-06
-5.50212e-06
-5.87114e-06
-6.28771e-06
-6.79326e-06
-7.19603e-06
-7.55531e-06
-7.81349e-06
-8.01047e-06
-8.13747e-06
-8.20953e-06
-8.22647e-06
-8.18825e-06
-8.09536e-06
-7.93275e-06
-7.71019e-06
-7.38796e-06
-7.02667e-06
-6.56691e-06
-6.20728e-06
-5.90457e-06
-5.71997e-06
-5.62991e-06
-5.63018e-06
-5.69558e-06
-5.75458e-06
-5.82052e-06
-5.22142e-06
-5.13317e-06
-5.06556e-06
-4.99568e-06
-4.98297e-06
-5.04834e-06
-5.20909e-06
-5.48723e-06
-5.88524e-06
-6.45798e-06
-7.12039e-06
-7.99154e-06
-8.62815e-06
-9.18959e-06
-9.57474e-06
-9.86572e-06
-1.00474e-05
-1.01473e-05
-1.01641e-05
-1.00977e-05
-9.94937e-06
-9.69155e-06
-9.34057e-06
-8.81417e-06
-8.21858e-06
-7.39325e-06
-6.79485e-06
-6.29625e-06
-5.99247e-06
-5.8281e-06
-5.79455e-06
-5.85443e-06
-5.92201e-06
-6.01349e-06
-5.37358e-06
-5.25589e-06
-5.17779e-06
-5.10817e-06
-5.11516e-06
-5.22382e-06
-5.45585e-06
-5.84288e-06
-6.39099e-06
-7.22142e-06
-8.20076e-06
-9.67654e-06
-1.05993e-05
-1.14011e-05
-1.19228e-05
-1.23172e-05
-1.25571e-05
-1.26877e-05
-1.27046e-05
-1.26076e-05
-1.24009e-05
-1.20386e-05
-1.15493e-05
-1.07794e-05
-9.89703e-06
-8.46518e-06
-7.56156e-06
-6.81262e-06
-6.37201e-06
-6.11736e-06
-6.03726e-06
-6.08286e-06
-6.15701e-06
-6.28357e-06
-5.56227e-06
-5.41339e-06
-5.32763e-06
-5.26654e-06
-5.30681e-06
-5.47511e-06
-5.79395e-06
-6.29416e-06
-6.98232e-06
-8.0205e-06
-9.36334e-06
-1.18659e-05
-1.30455e-05
-1.41107e-05
-1.4781e-05
-1.53012e-05
-1.56144e-05
-1.5784e-05
-1.58015e-05
-1.56661e-05
-1.53864e-05
-1.48973e-05
-1.42574e-05
-1.32192e-05
-1.2077e-05
-9.60989e-06
-8.36564e-06
-7.41202e-06
-6.84428e-06
-6.49523e-06
-6.35557e-06
-6.37648e-06
-6.4544e-06
-6.6281e-06
-5.79114e-06
-5.59682e-06
-5.50353e-06
-5.45522e-06
-5.53633e-06
-5.76978e-06
-6.16946e-06
-6.74966e-06
-7.43623e-06
-8.53533e-06
-1.01158e-05
-1.4866e-05
-1.5806e-05
-1.6923e-05
-1.76439e-05
-1.82178e-05
-1.85599e-05
-1.87497e-05
-1.87675e-05
-1.86126e-05
-1.83042e-05
-1.77605e-05
-1.70677e-05
-1.59683e-05
-1.5062e-05
-1.03313e-05
-8.91847e-06
-7.88237e-06
-7.32181e-06
-6.90815e-06
-6.71531e-06
-6.71183e-06
-6.79417e-06
-7.03686e-06
-6.04739e-06
-5.79984e-06
-5.7043e-06
-5.68484e-06
-5.83796e-06
-6.18499e-06
-6.74065e-06
-7.43201e-06
-8.20654e-06
-1.0217e-05
-6.9913e-06
-1.7114e-05
-1.79751e-05
-1.94519e-05
-2.0323e-05
-2.1063e-05
-2.14884e-05
-2.17174e-05
-2.17352e-05
-2.15413e-05
-2.11502e-05
-2.04409e-05
-1.95972e-05
-1.81325e-05
-1.73327e-05
-7.07002e-06
-1.05461e-05
-8.61177e-06
-7.9974e-06
-7.49193e-06
-7.17505e-06
-7.10504e-06
-7.17202e-06
-7.49012e-06
-6.31865e-06
-6.00744e-06
-5.90636e-06
-5.91534e-06
-6.14083e-06
-6.59879e-06
-7.27293e-06
-7.9698e-06
-8.22033e-06
-4.26035e-06
-2.45376e-05
-2.06738e-05
-2.13181e-05
-2.20503e-05
-2.26588e-05
-2.3057e-05
-2.32713e-05
-2.32883e-05
-2.31077e-05
-2.2742e-05
-2.21631e-05
-2.14556e-05
-2.08147e-05
-2.45707e-05
-4.97531e-06
-8.74342e-06
-8.56071e-06
-8.03737e-06
-7.62304e-06
-7.48834e-06
-7.54858e-06
-7.98077e-06
-6.59535e-06
-6.21716e-06
-6.1207e-06
-6.1854e-06
-6.55039e-06
-7.28267e-06
-8.49134e-06
-1.0231e-05
-1.30157e-05
-1.57767e-05
-2.24533e-05
-1.93057e-05
-2.11506e-05
-2.27186e-05
-2.38855e-05
-2.46574e-05
-2.51639e-05
-2.54203e-05
-2.54368e-05
-2.52134e-05
-2.47403e-05
-2.40023e-05
-2.2871e-05
-2.13449e-05
-1.95394e-05
-2.27949e-05
-1.60539e-05
-1.33632e-05
-1.07186e-05
-9.19343e-06
-8.2908e-06
-7.94055e-06
-7.93449e-06
-8.49161e-06
-6.86086e-06
-6.41465e-06
-6.31181e-06
-6.40719e-06
-6.85438e-06
-7.72876e-06
-9.1394e-06
-1.10795e-05
-1.3705e-05
-1.61216e-05
-2.01451e-05
-2.1053e-05
-2.21133e-05
-2.32124e-05
-2.42139e-05
-2.49605e-05
-2.54812e-05
-2.57467e-05
-2.57621e-05
-2.55273e-05
-2.50373e-05
-2.43199e-05
-2.33464e-05
-2.2267e-05
-2.12138e-05
-2.03689e-05
-1.63896e-05
-1.40193e-05
-1.15285e-05
-9.81962e-06
-8.74755e-06
-8.30761e-06
-8.28991e-06
-8.96877e-06
-7.10769e-06
-6.59822e-06
-6.49081e-06
-6.614e-06
-7.13481e-06
-8.13733e-06
-9.72931e-06
-1.18934e-05
-1.46763e-05
-1.74937e-05
-2.05864e-05
-2.20356e-05
-2.31805e-05
-2.42127e-05
-2.51972e-05
-2.59297e-05
-2.64451e-05
-2.67047e-05
-2.6719e-05
-2.6488e-05
-2.60013e-05
-2.52954e-05
-2.43367e-05
-2.33207e-05
-2.21928e-05
-2.07676e-05
-1.77037e-05
-1.49452e-05
-1.23067e-05
-1.03945e-05
-9.17429e-06
-8.65638e-06
-8.62734e-06
-9.40236e-06
-7.32076e-06
-6.75959e-06
-6.64079e-06
-6.77269e-06
-7.32861e-06
-8.39259e-06
-1.00608e-05
-1.23104e-05
-1.51131e-05
-1.80267e-05
-2.08933e-05
-2.26327e-05
-2.39289e-05
-2.49462e-05
-2.59216e-05
-2.66368e-05
-2.71432e-05
-2.73955e-05
-2.74088e-05
-2.71827e-05
-2.67023e-05
-2.60102e-05
-2.50566e-05
-2.40495e-05
-2.27679e-05
-2.10419e-05
-1.82061e-05
-1.53589e-05
-1.27101e-05
-1.07317e-05
-9.46472e-06
-8.9283e-06
-8.91351e-06
-9.76743e-06
-7.49512e-06
-6.89594e-06
-6.76638e-06
-6.90074e-06
-7.47735e-06
-8.58002e-06
-1.02965e-05
-1.26035e-05
-1.54308e-05
-1.84011e-05
-2.12185e-05
-2.31199e-05
-2.4497e-05
-2.55394e-05
-2.65271e-05
-2.72354e-05
-2.77345e-05
-2.79801e-05
-2.79925e-05
-2.77711e-05
-2.72957e-05
-2.66074e-05
-2.5638e-05
-2.46004e-05
-2.32308e-05
-2.13437e-05
-1.85605e-05
-1.56623e-05
-1.29991e-05
-1.09807e-05
-9.69054e-06
-9.15023e-06
-9.15091e-06
-1.00605e-05
-7.62687e-06
-7.00212e-06
-6.86254e-06
-6.99394e-06
-7.57808e-06
-8.69826e-06
-1.04372e-05
-1.27735e-05
-1.56181e-05
-1.86334e-05
-2.14658e-05
-2.34869e-05
-2.48965e-05
-2.59587e-05
-2.69559e-05
-2.76613e-05
-2.81567e-05
-2.83986e-05
-2.84105e-05
-2.81916e-05
-2.77181e-05
-2.70303e-05
-2.60482e-05
-2.49872e-05
-2.35833e-05
-2.15757e-05
-1.87812e-05
-1.58436e-05
-1.31721e-05
-1.11383e-05
-9.84495e-06
-9.31238e-06
-9.32971e-06
-1.02777e-05
-7.71561e-06
-7.07683e-06
-6.93088e-06
-7.05955e-06
-7.6473e-06
-8.7777e-06
-1.05317e-05
-1.28899e-05
-1.57556e-05
-1.88085e-05
-2.16694e-05
-2.37402e-05
-2.51957e-05
-2.62781e-05
-2.7286e-05
-2.79945e-05
-2.84907e-05
-2.87323e-05
-2.87442e-05
-2.85258e-05
-2.80511e-05
-2.73591e-05
-2.63644e-05
-2.5281e-05
-2.38355e-05
-2.17734e-05
-1.89526e-05
-1.5981e-05
-1.32945e-05
-1.12479e-05
-9.95172e-06
-9.42441e-06
-9.45192e-06
-1.04221e-05
-7.76167e-06
-7.11901e-06
-6.97088e-06
-7.09837e-06
-7.68775e-06
-8.8236e-06
-1.05877e-05
-1.29624e-05
-1.58507e-05
-1.89341e-05
-2.18272e-05
-2.39267e-05
-2.54087e-05
-2.65068e-05
-2.75248e-05
-2.82411e-05
-2.87423e-05
-2.89869e-05
-2.89997e-05
-2.87799e-05
-2.83015e-05
-2.76025e-05
-2.65978e-05
-2.54996e-05
-2.40394e-05
-2.19363e-05
-1.90828e-05
-1.60817e-05
-1.3375e-05
-1.13157e-05
-1.00141e-05
-9.48703e-06
-9.51746e-06
-1.04956e-05
-7.76546e-06
-7.1293e-06
-6.98314e-06
-7.11091e-06
-7.69988e-06
-8.83603e-06
-1.0605e-05
-1.29894e-05
-1.59009e-05
-1.90089e-05
-2.19406e-05
-2.40587e-05
-2.55415e-05
-2.66488e-05
-2.7675e-05
-2.84026e-05
-2.89124e-05
-2.91631e-05
-2.91777e-05
-2.89555e-05
-2.84716e-05
-2.77642e-05
-2.67532e-05
-2.56465e-05
-2.41751e-05
-2.20621e-05
-1.91703e-05
-1.61436e-05
-1.34127e-05
-1.13417e-05
-1.0033e-05
-9.50147e-06
-9.52778e-06
-1.04999e-05
-7.72795e-06
-7.11042e-06
-6.96977e-06
-7.09785e-06
-7.68205e-06
-8.81033e-06
-1.05746e-05
-1.2959e-05
-1.58949e-05
-1.90208e-05
-2.20125e-05
-2.41252e-05
-2.55926e-05
-2.67053e-05
-2.77386e-05
-2.84823e-05
-2.90044e-05
-2.92646e-05
-2.92822e-05
-2.90566e-05
-2.8566e-05
-2.78479e-05
-2.68341e-05
-2.57259e-05
-2.42737e-05
-2.21595e-05
-1.92066e-05
-1.6159e-05
-1.34004e-05
-1.13227e-05
-1.00085e-05
-9.4708e-06
-9.4868e-06
-1.04367e-05
-7.65029e-06
-7.06565e-06
-6.93037e-06
-7.05308e-06
-7.61894e-06
-8.71657e-06
-1.04466e-05
-1.27965e-05
-1.57411e-05
-1.88757e-05
-2.20005e-05
-2.40708e-05
-2.55153e-05
-2.66231e-05
-2.76521e-05
-2.84113e-05
-2.8947e-05
-2.92192e-05
-2.92412e-05
-2.90125e-05
-2.85167e-05
-2.77918e-05
-2.67893e-05
-2.56931e-05
-2.42576e-05
-2.21857e-05
-1.91001e-05
-1.60408e-05
-1.32697e-05
-1.12159e-05
-9.91925e-06
-9.38805e-06
-9.39548e-06
-1.03071e-05
-7.54239e-06
-6.99939e-06
-6.87155e-06
-6.98489e-06
-7.52059e-06
-8.56681e-06
-1.02346e-05
-1.25157e-05
-1.54634e-05
-1.855e-05
-2.1989e-05
-2.40051e-05
-2.53239e-05
-2.64637e-05
-2.75107e-05
-2.82982e-05
-2.88512e-05
-2.91379e-05
-2.91665e-05
-2.89368e-05
-2.84366e-05
-2.76981e-05
-2.66895e-05
-2.5575e-05
-2.42676e-05
-2.22312e-05
-1.88392e-05
-1.5824e-05
-1.30449e-05
-1.10441e-05
-9.78562e-06
-9.2717e-06
-9.26928e-06
-1.01201e-05
-7.41095e-06
-6.9141e-06
-6.78881e-06
-6.87603e-06
-7.34523e-06
-8.27355e-06
-9.76789e-06
-1.18189e-05
-1.45513e-05
-1.71625e-05
-2.17536e-05
-2.40296e-05
-2.49877e-05
-2.61295e-05
-2.71682e-05
-2.79665e-05
-2.85292e-05
-2.88296e-05
-2.88664e-05
-2.86402e-05
-2.81465e-05
-2.74174e-05
-2.6435e-05
-2.53471e-05
-2.44221e-05
-2.20439e-05
-1.75179e-05
-1.49943e-05
-1.2439e-05
-1.06507e-05
-9.534e-06
-9.09433e-06
-9.10628e-06
-9.88154e-06
-7.26702e-06
-6.82457e-06
-6.70616e-06
-6.7717e-06
-7.17949e-06
-7.99846e-06
-9.34024e-06
-1.12437e-05
-1.42407e-05
-1.75469e-05
-2.30843e-05
-2.22246e-05
-2.4487e-05
-2.63532e-05
-2.76362e-05
-2.85109e-05
-2.90981e-05
-2.94136e-05
-2.94644e-05
-2.92526e-05
-2.87621e-05
-2.79872e-05
-2.67791e-05
-2.50009e-05
-2.27696e-05
-2.3342e-05
-1.81321e-05
-1.48635e-05
-1.20124e-05
-1.03312e-05
-9.32036e-06
-8.93683e-06
-8.94946e-06
-9.62123e-06
-7.119e-06
-6.73008e-06
-6.60869e-06
-6.62967e-06
-6.91956e-06
-7.48897e-06
-8.29679e-06
-9.03633e-06
-9.02612e-06
-3.25257e-06
-3.10273e-05
-2.53949e-05
-2.59302e-05
-2.66747e-05
-2.73491e-05
-2.78311e-05
-2.81174e-05
-2.81813e-05
-2.80274e-05
-2.76684e-05
-2.71305e-05
-2.64784e-05
-2.60766e-05
-3.16531e-05
-3.87126e-06
-9.82746e-06
-9.97949e-06
-9.43321e-06
-8.90106e-06
-8.70501e-06
-8.77197e-06
-9.34926e-06
-6.98509e-06
-6.64779e-06
-6.54104e-06
-6.56054e-06
-6.83543e-06
-7.4088e-06
-8.34191e-06
-9.61849e-06
-1.15003e-05
-1.45122e-05
-1.40999e-05
-2.15939e-05
-2.31587e-05
-2.49008e-05
-2.59991e-05
-2.69654e-05
-2.75893e-05
-2.79564e-05
-2.80413e-05
-2.78517e-05
-2.73881e-05
-2.65962e-05
-2.55716e-05
-2.40163e-05
-2.25754e-05
-1.59229e-05
-1.59504e-05
-1.28387e-05
-1.0841e-05
-9.61862e-06
-8.87579e-06
-8.60771e-06
-8.62898e-06
-9.12641e-06
-6.87289e-06
-6.57802e-06
-6.48267e-06
-6.49547e-06
-6.7353e-06
-7.24697e-06
-8.08073e-06
-9.25183e-06
-1.07461e-05
-1.24905e-05
-1.601e-05
-2.06185e-05
-2.1842e-05
-2.31236e-05
-2.4078e-05
-2.49767e-05
-2.55784e-05
-2.59505e-05
-2.60487e-05
-2.58836e-05
-2.54591e-05
-2.47506e-05
-2.38144e-05
-2.26335e-05
-2.1547e-05
-1.74356e-05
-1.37546e-05
-1.20565e-05
-1.05432e-05
-9.42355e-06
-8.73784e-06
-8.47829e-06
-8.4858e-06
-8.92443e-06
-6.8006e-06
-6.53823e-06
-6.46425e-06
-6.4911e-06
-6.7288e-06
-7.22753e-06
-8.04695e-06
-9.2267e-06
-1.0826e-05
-1.28358e-05
-1.53847e-05
-1.82805e-05
-1.98273e-05
-2.11012e-05
-2.2082e-05
-2.30127e-05
-2.36339e-05
-2.40136e-05
-2.41162e-05
-2.39551e-05
-2.35224e-05
-2.28094e-05
-2.18382e-05
-2.06291e-05
-1.92487e-05
-1.6763e-05
-1.42645e-05
-1.22414e-05
-1.05944e-05
-9.42955e-06
-8.71667e-06
-8.4237e-06
-8.39482e-06
-8.77533e-06
-6.74948e-06
-6.529e-06
-6.48157e-06
-6.52753e-06
-6.76231e-06
-7.23163e-06
-7.98797e-06
-9.07048e-06
-1.05083e-05
-1.23111e-05
-1.43605e-05
-1.65311e-05
-1.79978e-05
-1.92462e-05
-2.02474e-05
-2.11504e-05
-2.17558e-05
-2.21255e-05
-2.22293e-05
-2.20837e-05
-2.16769e-05
-2.10111e-05
-2.00674e-05
-1.89173e-05
-1.75871e-05
-1.57072e-05
-1.37314e-05
-1.19308e-05
-1.0454e-05
-9.37522e-06
-8.70034e-06
-8.40201e-06
-8.34871e-06
-8.67819e-06
-6.73333e-06
-6.5558e-06
-6.5432e-06
-6.62081e-06
-6.86623e-06
-7.31727e-06
-8.0151e-06
-8.98786e-06
-1.02453e-05
-1.17666e-05
-1.3436e-05
-1.51571e-05
-1.65115e-05
-1.77297e-05
-1.87282e-05
-1.95908e-05
-2.01849e-05
-2.05466e-05
-2.06484e-05
-2.05191e-05
-2.01329e-05
-1.95011e-05
-1.86098e-05
-1.7533e-05
-1.6274e-05
-1.47729e-05
-1.31649e-05
-1.16477e-05
-1.03588e-05
-9.38777e-06
-8.7558e-06
-8.44809e-06
-8.36314e-06
-8.6347e-06
-6.74476e-06
-6.61362e-06
-6.64101e-06
-6.75874e-06
-7.0247e-06
-7.46783e-06
-8.11821e-06
-8.99379e-06
-1.0093e-05
-1.1389e-05
-1.27873e-05
-1.42162e-05
-1.54618e-05
-1.65954e-05
-1.75365e-05
-1.83369e-05
-1.88972e-05
-1.92395e-05
-1.93447e-05
-1.92246e-05
-1.88702e-05
-1.8292e-05
-1.74822e-05
-1.6509e-05
-1.5375e-05
-1.40993e-05
-1.27495e-05
-1.14588e-05
-1.03399e-05
-9.47064e-06
-8.8771e-06
-8.55401e-06
-8.43055e-06
-8.6349e-06
-6.76566e-06
-6.67334e-06
-6.72236e-06
-6.86822e-06
-7.15167e-06
-7.59493e-06
-8.21906e-06
-9.03508e-06
-1.00368e-05
-1.11973e-05
-1.24493e-05
-1.37294e-05
-1.49179e-05
-1.60047e-05
-1.69154e-05
-1.76673e-05
-1.82015e-05
-1.85261e-05
-1.86292e-05
-1.85165e-05
-1.81842e-05
-1.76413e-05