/*--------------------------------*- C++ -*----------------------------------*\
| =========                 |                                                 |
| \\      /  F ield         | OpenFOAM: The Open Source CFD Toolbox           |
|  \\    /   O peration     | Version:  2112                                  |
|   \\  /    A nd           | Website:  www.openfoam.com                      |
|    \\/     M anipulation  |                                                 |
\*---------------------------------------------------------------------------*/
FoamFile
{
    version     2.0;
    format      ascii;
    arch        "LSB;label=32;scalar=64";
    class       surfaceScalarField;
    location    "3.9";
    object      phi;
}
// * * * * * * * * * * * * * * * * * * * * * * * * * * * * * * * * * * * * * //

dimensions      [0 3 -1 0 0 0 0];

oriented        oriented;

internalField   nonuniform List<scalar> 
188215
(
5.88727e-10
1.23428e-09
-1.823e-09
2.61408e-09
2.50279e-10
-2.27563e-09
5.46997e-09
-1.17474e-09
-1.68115e-09
8.70578e-09
-2.48037e-09
-7.55447e-10
1.21276e-08
-3.3668e-09
-5.50117e-11
1.55003e-08
-3.93917e-09
5.66442e-10
1.87906e-08
-4.22476e-09
9.34443e-10
2.18763e-08
-4.22783e-09
1.1422e-09
2.4559e-08
-3.92508e-09
1.24231e-09
2.64529e-08
-3.14898e-09
1.25515e-09
2.72587e-08
-1.98068e-09
1.17484e-09
2.63592e-08
-1.23506e-10
1.02297e-09
2.43313e-08
9.31484e-10
1.09645e-09
2.11953e-08
1.8443e-09
1.29168e-09
1.72364e-08
2.44683e-09
1.51209e-09
1.26659e-08
2.85923e-09
1.71133e-09
7.72316e-09
3.08547e-09
1.85723e-09
2.6064e-09
3.18289e-09
1.93387e-09
-2.48934e-09
3.16005e-09
1.9357e-09
-7.36985e-09
3.01688e-09
1.86363e-09
-1.18384e-08
2.745e-09
1.72354e-09
-1.56583e-08
2.2881e-09
1.53183e-09
-1.86269e-08
1.6475e-09
1.32108e-09
-2.04831e-08
7.17866e-10
1.13832e-09
-2.11574e-08
-4.2332e-10
1.09765e-09
-2.01136e-08
-2.29102e-09
1.24725e-09
-1.80033e-08
-3.38533e-09
1.27501e-09
-1.51158e-08
-4.01777e-09
1.13031e-09
-1.18407e-08
-4.02167e-09
7.46512e-10
-8.35339e-09
-3.47175e-09
-1.55367e-11
-5.08149e-09
-2.35303e-09
-9.18873e-10
-2.3323e-09
-5.6783e-10
-2.18136e-09
-3.91478e-10
1.11375e-09
-3.05457e-09
2.25405e-09
-2.64552e-09
-1.68477e-09
6.15498e-09
-3.23593e-09
6.61459e-10
6.08841e-09
-8.18435e-09
4.30375e-09
5.08112e-09
-9.89814e-09
8.10116e-09
4.13274e-09
-1.04105e-08
1.17952e-08
3.77421e-09
-1.08351e-08
1.53453e-08
4.0876e-09
-1.15769e-08
1.8759e-08
5.11846e-09
-1.27569e-08
2.19563e-08
7.00145e-09
-1.44266e-08
2.47425e-08
9.89679e-09
-1.66081e-08
2.67251e-08
1.41701e-08
-1.93017e-08
2.75693e-08
1.95745e-08
-2.23993e-08
2.69437e-08
2.61909e-08
-2.56888e-08
2.48662e-08
3.19015e-08
-2.88925e-08
2.15893e-08
3.68366e-08
-3.17154e-08
1.75145e-08
4.05208e-08
-3.39991e-08
1.28577e-08
4.32443e-08
-3.57283e-08
7.84858e-09
4.49838e-08
-3.68893e-08
2.67567e-09
4.58491e-08
-3.74933e-08
-2.47485e-09
4.58499e-08
-3.75394e-08
-7.41701e-09
4.49862e-08
-3.70272e-08
-1.19643e-08
4.32501e-08
-3.59578e-08
-1.58888e-08
4.05334e-08
-3.43208e-08
-1.89779e-08
3.68692e-08
-3.21327e-08
-2.08166e-08
3.19736e-08
-2.9417e-08
-2.12121e-08
2.63347e-08
-2.63625e-08
-2.01197e-08
1.98551e-08
-2.32386e-08
-1.78617e-08
1.47211e-08
-2.03643e-08
-1.4754e-08
1.08491e-08
-1.79746e-08
-1.116e-08
8.58171e-09
-1.61974e-08
-7.24137e-09
7.6287e-09
-1.50191e-08
-3.15845e-09
7.86426e-09
-1.43002e-08
7.54304e-10
9.03591e-09
-1.35165e-08
2.95987e-09
1.02003e-08
-1.12921e-08
1.00059e-08
-4.79202e-09
-3.45365e-09
1.29508e-08
-3.34212e-09
-1.12711e-09
1.4052e-08
-1.02901e-08
3.02551e-09
1.38528e-08
-1.29243e-08
7.42426e-09
1.37936e-08
-1.40596e-08
1.16813e-08
1.4549e-08
-1.50318e-08
1.57922e-08
1.63212e-08
-1.63445e-08
1.98358e-08
1.93015e-08
-1.82266e-08
2.37963e-08
2.38381e-08
-2.07971e-08
2.74785e-08
3.03298e-08
-2.41152e-08
3.03005e-08
3.95527e-08
-2.82046e-08
3.16794e-08
5.11099e-08
-3.29144e-08
3.06671e-08
6.51973e-08
-3.79941e-08
2.79753e-08
7.74104e-08
-4.2817e-08
2.39596e-08
8.79112e-08
-4.70589e-08
1.9209e-08
9.57885e-08
-5.0517e-08
1.39363e-08
1.01662e-07
-5.3145e-08
8.36473e-09
1.05465e-07
-5.491e-08
2.6544e-09
1.07388e-07
-5.58281e-08
-3.03258e-09
1.07433e-07
-5.58958e-08
-8.534e-09
1.056e-07
-5.51128e-08
-1.36905e-08
1.01889e-07
-5.34827e-08
-1.82779e-08
9.61119e-08
-5.09912e-08
-2.20848e-08
8.83512e-08
-4.7675e-08
-2.45184e-08
7.79969e-08
-4.35898e-08
-2.52378e-08
6.60088e-08
-3.89547e-08
-2.35121e-08
5.22364e-08
-3.41071e-08
-2.02879e-08
4.11962e-08
-2.96993e-08
-1.60842e-08
3.26411e-08
-2.59958e-08
-1.14305e-08
2.70765e-08
-2.31485e-08
-6.49185e-09
2.37708e-08
-2.10807e-08
-1.42338e-09
2.23209e-08
-1.95251e-08
3.23918e-09
2.22117e-08
-1.78383e-08
5.41671e-09
2.23205e-08
-1.42978e-08
2.05534e-08
-5.13074e-09
-4.68909e-09
2.03768e-08
-2.73691e-09
-2.24666e-09
2.23588e-08
-1.07492e-08
2.54819e-09
2.28856e-08
-1.38276e-08
7.76746e-09
2.37943e-08
-1.522e-08
1.29421e-08
2.5812e-08
-1.64377e-08
1.81032e-08
2.92074e-08
-1.80473e-08
2.34392e-08
3.42936e-08
-2.03281e-08
2.9041e-08
4.1674e-08
-2.34376e-08
3.46873e-08
5.21281e-08
-2.74446e-08
3.94026e-08
6.72353e-08
-3.2398e-08
4.1949e-08
8.66621e-08
-3.80986e-08
4.0202e-08
1.11311e-07
-4.43665e-08
3.60043e-08
1.31868e-07
-5.02603e-08
3.01862e-08
1.49169e-07
-5.54393e-08
2.37613e-08
1.6187e-07
-5.96563e-08
1.69116e-08
1.71354e-07
-6.28422e-08
9.84109e-09
1.77498e-07
-6.49624e-08
2.66498e-09
1.80624e-07
-6.60607e-08
-4.48733e-09
1.80721e-07
-6.61363e-08
-1.14854e-08
1.77787e-07
-6.51887e-08
-1.82127e-08
1.71834e-07
-6.32178e-08
-2.44586e-08
1.6254e-07
-6.01821e-08
-3.00374e-08
1.50049e-07
-5.61193e-08
-3.39226e-08
1.32992e-07
-5.11096e-08
-3.52872e-08
1.12791e-07
-4.54175e-08
-3.22578e-08
8.86107e-08
-3.94037e-08
-2.69814e-08
6.99575e-08
-3.40377e-08
-2.05871e-08
5.57505e-08
-2.95037e-08
-1.39878e-08
4.64721e-08
-2.59949e-08
-7.39937e-09
4.05778e-08
-2.33955e-08
-9.79108e-10
3.72993e-08
-2.13987e-08
4.67932e-09
3.58579e-08
-1.93046e-08
7.08018e-09
3.50565e-08
-1.51368e-08
3.2139e-08
-4.50541e-09
-5.36921e-09
2.77212e-08
-1.97525e-09
-2.48818e-09
3.03742e-08
-1.08964e-08
3.2322e-09
3.15107e-08
-1.43455e-08
9.59005e-09
3.33578e-08
-1.59213e-08
1.60753e-08
3.66663e-08
-1.73396e-08
2.28142e-08
4.17103e-08
-1.92419e-08
3.01936e-08
4.88611e-08
-2.19468e-08
3.85464e-08
5.89628e-08
-2.56416e-08
4.76893e-08
7.33533e-08
-3.0368e-08
5.60528e-08
9.50791e-08
-3.62073e-08
6.10055e-08
1.24567e-07
-4.28572e-08
5.76449e-08
1.65173e-07
-5.05019e-08
5.04344e-08
1.96665e-07
-5.75866e-08
4.12865e-08
2.22204e-07
-6.38874e-08
3.19052e-08
2.40288e-07
-6.90365e-08
2.22801e-08
2.53838e-07
-7.28592e-08
1.25418e-08
2.62596e-07
-7.53597e-08
2.73396e-09
2.67078e-07
-7.66461e-08
-7.05085e-09
2.67233e-07
-7.67267e-08
-1.6718e-08
2.63055e-07
-7.56007e-08
-2.62193e-08
2.54593e-07
-7.32573e-08
-3.5409e-08
2.41321e-07
-6.95911e-08
-4.42843e-08
2.23525e-07
-6.45997e-08
-5.11099e-08
1.98289e-07
-5.84719e-08
-5.39725e-08
1.67251e-07
-5.15973e-08
-4.83587e-08
1.27218e-07
-4.42207e-08
-3.92753e-08
9.88111e-08
-3.79369e-08
-2.91607e-08
7.81878e-08
-3.25518e-08
-1.95094e-08
6.51853e-08
-2.83645e-08
-1.05164e-08
5.6807e-08
-2.52222e-08
-2.18553e-09
5.17928e-08
-2.28243e-08
4.91021e-09
4.91497e-08
-2.03875e-08
7.99912e-09
4.7624e-08
-1.56564e-08
4.3831e-08
-3.69285e-09
-5.66824e-09
3.46157e-08
-1.22621e-09
-1.95185e-09
3.78052e-08
-1.11474e-08
5.08576e-09
3.94935e-08
-1.50204e-08
1.2974e-08
4.22731e-08
-1.68036e-08
2.11771e-08
4.69209e-08
-1.84576e-08
2.99794e-08
5.36295e-08
-2.07214e-08
4.00887e-08
6.2695e-08
-2.39432e-08
5.2367e-08
7.50068e-08
-2.83223e-08
6.69774e-08
9.25251e-08
-3.37822e-08
8.19184e-08
1.20541e-07
-4.04033e-08
9.19096e-08
1.62013e-07
-4.74378e-08
8.51711e-08
2.2841e-07
-5.64985e-08
7.25363e-08
2.74149e-07
-6.48486e-08
5.80368e-08
3.09382e-07
-7.2679e-08
4.423e-08
3.33284e-07
-7.91892e-08
3.04666e-08
3.51414e-07
-8.38124e-08
1.66939e-08
3.63121e-07
-8.67518e-08
2.86825e-09
3.69154e-07
-8.82499e-08
-1.09381e-08
3.69375e-07
-8.83361e-08
-2.46501e-08
3.63776e-07
-8.70088e-08
-3.83038e-08
3.52481e-07
-8.42348e-08
-5.19247e-08
3.34717e-07
-7.97752e-08
-6.61336e-08
3.1116e-07
-7.34261e-08
-7.83075e-08
2.76237e-07
-6.5774e-08
-8.44041e-08
2.30995e-07
-5.76479e-08
-7.34989e-08
1.65178e-07
-4.88651e-08
-5.77122e-08
1.25262e-07
-4.22379e-08
-4.19154e-08
9.8507e-08
-3.61161e-08
-2.80094e-08
8.25391e-08
-3.12598e-08
-1.58554e-08
7.21625e-08
-2.75095e-08
-5.00037e-09
6.55971e-08
-2.46593e-08
4.10982e-09
6.18592e-08
-2.18197e-08
8.44744e-09
5.97002e-08
-1.64138e-08
5.51892e-08
-2.91076e-09
-5.71319e-09
4.08293e-08
-5.00399e-10
-6.99401e-10
4.44196e-08
-1.16282e-08
8.10607e-09
4.67262e-08
-1.60382e-08
1.79709e-08
5.04984e-08
-1.80901e-08
2.82844e-08
5.66453e-08
-2.0038e-08
3.9496e-08
6.51538e-08
-2.27359e-08
5.27358e-08
7.59996e-08
-2.65444e-08
6.98627e-08
8.95262e-08
-3.16462e-08
9.2194e-08
1.07906e-07
-3.77121e-08
1.18108e-07
1.39251e-07
-4.46243e-08
1.3926e-07
1.91388e-07
-5.05267e-08
1.25174e-07
3.03041e-07
-6.05444e-08
1.03098e-07
3.65926e-07
-6.97011e-08
8.07326e-08
4.114e-07
-7.96525e-08
6.10259e-08
4.41243e-07
-8.82524e-08
4.17266e-08
4.64422e-07
-9.37084e-08
2.24483e-08
4.79478e-07
-9.7079e-08
3.07988e-09
4.87304e-07
-9.87815e-08
-1.6278e-08
4.87607e-07
-9.88739e-08
-3.55218e-08
4.80373e-07
-9.73536e-08
-5.4754e-08
4.65871e-07
-9.41575e-08
-7.43215e-08
4.43159e-07
-8.88745e-08
-9.6423e-08
4.13701e-07
-8.04404e-08
-1.17976e-07
3.6847e-07
-7.06797e-08
-1.31246e-07
3.06044e-07
-6.17784e-08
-1.08771e-07
1.94748e-07
-5.20462e-08
-8.19874e-08
1.45086e-07
-4.66076e-08
-5.82871e-08
1.15048e-07
-4.0241e-08
-3.91453e-08
9.8265e-08
-3.48677e-08
-2.32917e-08
8.68096e-08
-3.05006e-08
-9.35642e-09
7.88159e-08
-2.71541e-08
2.40319e-09
7.39246e-08
-2.38251e-08
8.61523e-09
7.10414e-08
-1.75532e-08
6.59305e-08
-2.12615e-09
-5.56078e-09
4.61325e-08
2.57553e-10
1.18808e-09
5.00215e-08
-1.23507e-08
1.24607e-08
5.29349e-08
-1.74814e-08
2.4913e-08
5.79075e-08
-1.98614e-08
3.78128e-08
6.59161e-08
-2.21707e-08
5.16111e-08
7.67414e-08
-2.53859e-08
6.76463e-08
8.98325e-08
-2.98681e-08
8.90011e-08
1.03965e-07
-3.57941e-08
1.19432e-07
1.1979e-07
-4.23156e-08
1.63175e-07
1.4496e-07
-4.94514e-08
2.0952e-07
1.9388e-07
-4.88373e-08
1.80229e-07
3.89379e-07
-5.70472e-08
1.43791e-07
4.691e-07
-6.67362e-08
1.11232e-07
5.24555e-07
-8.05959e-08
8.42731e-08
5.6091e-07
-9.27082e-08
5.76176e-08
5.90051e-07
-9.8974e-08
3.06334e-08
6.09199e-07
-1.02737e-07
3.39361e-09
6.19173e-07
-1.04629e-07
-2.38502e-08
6.19579e-07
-1.04728e-07
-5.08468e-08
6.10398e-07
-1.03029e-07
-7.75219e-08
5.91996e-07
-9.94495e-08
-1.04465e-07
5.63472e-07
-9.33699e-08
-1.36905e-07
5.27574e-07
-8.1433e-08
-1.72869e-07
4.72224e-07
-6.779e-08
-2.01106e-07
3.92725e-07
-5.84444e-08
-1.52713e-07
1.96823e-07
-5.04673e-08
-1.08339e-07
1.52262e-07
-5.15506e-08
-7.63713e-08
1.28115e-07
-4.50349e-08
-5.25033e-08
1.13742e-07
-3.9345e-08
-3.30847e-08
1.01699e-07
-3.43078e-08
-1.56057e-08
9.17517e-08
-3.04148e-08
-3.93615e-10
8.52113e-08
-2.64988e-08
8.47823e-09
8.12722e-08
-1.91027e-08
7.56474e-08
-1.23865e-09
-5.24927e-09
5.01043e-08
1.27749e-09
3.86019e-09
5.42623e-08
-1.33503e-08
1.82971e-08
5.78655e-08
-1.93675e-08
3.40718e-08
6.42817e-08
-2.21489e-08
5.0162e-08
7.47028e-08
-2.48768e-08
6.66542e-08
8.88988e-08
-2.86496e-08
8.4408e-08
1.05922e-07
-3.38438e-08
1.06975e-07
1.22011e-07
-4.06126e-08
1.4126e-07
1.33687e-07
-4.81814e-08
2.11928e-07
1.28431e-07
-5.41391e-08
3.09565e-07
1.49955e-07
-5.37123e-08
2.48912e-07
4.96466e-07
-4.64343e-08
1.91444e-07
5.79184e-07
-5.26156e-08
1.4801e-07
6.40013e-07
-7.20232e-08
1.13146e-07
6.84511e-07
-8.87373e-08
7.76924e-08
7.20613e-07
-9.51089e-08
4.10783e-08
7.45296e-07
-9.94821e-08
3.84121e-09
7.58062e-07
-1.01652e-07
-3.34194e-08
7.58589e-07
-1.01749e-07
-7.01112e-08
7.46861e-07
-9.97711e-08
-1.05716e-07
7.23175e-07
-9.55741e-08
-1.40791e-07
6.87935e-07
-8.93881e-08
-1.84444e-07
6.44065e-07
-7.28383e-08
-2.41743e-07
5.83198e-07
-5.36751e-08
-3.00871e-07
4.99788e-07
-4.79349e-08
-1.99989e-07
1.51762e-07
-5.5821e-08
-1.29958e-07
1.38736e-07
-5.6505e-08
-9.37364e-08
1.43032e-07
-5.11386e-08
-6.79587e-08
1.32556e-07
-4.45914e-08
-4.57731e-08
1.18431e-07
-3.89175e-08
-2.42455e-08
1.04726e-07
-3.45015e-08
-4.41414e-09
9.53662e-08
-2.99863e-08
8.01579e-09
8.99379e-08
-2.10957e-08
8.39364e-08
-2.73162e-10
-4.55335e-09
5.2349e-08
2.30863e-09
7.69109e-09
5.66566e-08
-1.46387e-08
2.64042e-08
6.08761e-08
-2.17237e-08
4.70071e-08
6.86953e-08
-2.50164e-08
6.82159e-08
8.17761e-08
-2.82822e-08
8.9305e-08
1.00565e-07
-3.27549e-08
1.09431e-07
1.24625e-07
-3.88285e-08
1.28515e-07
1.50496e-07
-4.75701e-08
1.44531e-07
1.74231e-07
-5.65597e-08
1.98551e-07
1.46823e-07
-7.24118e-08
4.30899e-07
-8.23929e-08
3.39755e-07
6.02171e-07
-1.45605e-08
2.59114e-07
6.68312e-07
-8.48741e-09
2.04962e-07
7.21214e-07
-2.70477e-08
1.59966e-07
7.75321e-07
-4.58141e-08
1.10223e-07
8.18048e-07
-4.76921e-08
5.77165e-08
8.48118e-07
-5.0316e-08
4.48037e-09
8.63228e-07
-5.19303e-08
-4.879e-08
8.63857e-07
-5.19982e-08
-1.01421e-07
8.50012e-07
-5.05196e-08
-1.51449e-07
8.21205e-07
-4.80017e-08
-1.9694e-07
7.79717e-07
-4.62919e-08
-2.51907e-07
7.26683e-07
-2.76504e-08
-3.33869e-07
6.74436e-07
-9.27438e-09
-4.24552e-07
6.06491e-07
-1.60201e-08
-1.8732e-07
-8.54697e-08
-1.31772e-07
1.57284e-07
-7.40963e-08
-1.14844e-07
1.8536e-07
-5.9256e-08
-9.19754e-08
1.61613e-07
-5.19264e-08
-6.61761e-08
1.37342e-07
-4.47111e-08
-3.83451e-08
1.16627e-07
-3.97323e-08
-1.15188e-08
1.03059e-07
-3.45188e-08
6.51444e-09
9.57043e-08
-2.37996e-08
8.93465e-08
1.10427e-09
-3.63834e-09
5.26393e-08
3.34806e-09
1.22967e-08
5.69116e-08
-1.619e-08
3.61391e-08
6.15451e-08
-2.45113e-08
6.28939e-08
7.03705e-08
-2.843e-08
9.12983e-08
8.57033e-08
-3.23315e-08
1.19646e-07
1.09518e-07
-3.73016e-08
1.42373e-07
1.45278e-07
-4.33801e-08
1.4458e-07
1.97576e-07
-4.92872e-08
1.11788e-07
2.73546e-07
-6.65224e-08
3.7105e-07
-1.1244e-07
1.93889e-07
3.26688e-07
8.15941e-08
2.59942e-07
5.54433e-07
4.78261e-08
2.56513e-07
6.84371e-07
4.02719e-08
2.09861e-07
7.80254e-07
4.17185e-08
1.4559e-07
8.44205e-07
3.81146e-08
7.62255e-08
8.84303e-07
3.31796e-08
5.30233e-09
9.0347e-07
3.06808e-08
-6.56616e-08
9.04137e-07
3.0684e-08
-1.35171e-07
8.86339e-07
3.31821e-08
-1.99795e-07
8.47703e-07
3.81257e-08
-2.47272e-07
7.8543e-07
4.17648e-08
-2.52613e-07
6.91594e-07
4.04294e-08
-1.89756e-07
5.63878e-07
4.77005e-08
3.36536e-07
8.01989e-08
-1.08101e-07
3.74707e-07
-1.09321e-07
-1.3505e-07
2.81081e-07
-6.87721e-08
-1.26001e-07
2.06902e-07
-5.43371e-08
-9.52171e-08
1.57027e-07
-5.04681e-08
-5.77576e-08
1.25037e-07
-4.58693e-08
-2.13337e-08
1.06814e-07
-4.01793e-08
4.11575e-09
9.75761e-08
-2.73213e-08
9.10143e-08
2.44795e-09
-2.22566e-09
5.05098e-08
4.3551e-09
1.80786e-08
5.45315e-08
-1.79242e-08
4.84883e-08
5.87557e-08
-2.76203e-08
8.44871e-08
6.67435e-08
-3.23718e-08
1.27173e-07
8.03845e-08
-3.73672e-08
1.79748e-07
1.00816e-07
-4.38718e-08
2.47587e-07
1.29207e-07
-5.17677e-08
3.37422e-07
1.65658e-07
-5.79171e-08
4.62403e-07
2.08414e-07
-5.98494e-08
6.17927e-07
2.57481e-07
-4.19545e-08
4.83254e-07
8.61389e-08
4.85345e-08
4.89385e-07
2.32078e-07
8.84792e-08
4.6822e-07
4.17472e-07
1.58126e-07
3.99125e-07
5.36503e-07
2.16964e-07
3.04017e-07
6.25359e-07
2.50003e-07
2.02287e-07
6.84173e-07
2.61762e-07
1.03048e-07
7.20779e-07
2.62763e-07
6.1399e-09
7.38346e-07
2.62032e-07
-9.07461e-08
7.38935e-07
2.62088e-07
-1.89912e-07
7.22569e-07
2.62936e-07
-2.91525e-07
6.87224e-07
2.62093e-07
-3.86519e-07
6.29764e-07
2.5066e-07
-4.55557e-07
5.42329e-07
2.18303e-07
-4.76365e-07
4.24351e-07
1.60336e-07
-4.72293e-07
2.4015e-07
9.23142e-08
-6.1235e-07
8.78581e-08
5.21982e-08
-4.56734e-07
2.60423e-07
-4.13319e-08
-3.27474e-07
2.14542e-07
-6.27214e-08
-2.3089e-07
1.74018e-07
-6.37004e-08
-1.53831e-07
1.40246e-07
-6.02775e-08
-9.01323e-08
1.15705e-07
-5.43672e-08
-3.68222e-08
1.00793e-07
-4.72893e-08
-7.78787e-10
9.32245e-08
-3.16917e-08
8.668e-08
3.55559e-09
-1.18911e-09
4.63755e-08
5.32345e-09
2.2869e-08
4.99971e-08
-1.95238e-08
5.87005e-08
5.34849e-08
-3.05607e-08
1.01628e-07
5.99297e-08
-3.61135e-08
1.5346e-07
7.0647e-08
-4.20944e-08
2.18269e-07
8.59377e-08
-4.99309e-08
3.01303e-07
1.05392e-07
-5.92202e-08
4.06086e-07
1.27522e-07
-6.66468e-08
5.34748e-07
1.47436e-07
-6.76839e-08
6.80646e-07
1.63022e-07
-5.14384e-08
6.77711e-07
1.05931e-07
-1.68574e-08
6.63434e-07
1.93512e-07
5.28419e-08
6.03502e-07
3.06101e-07
1.71303e-07
4.97725e-07
3.90786e-07
2.51494e-07
3.73118e-07
4.55694e-07
2.94272e-07
2.461e-07
4.9817e-07
3.1302e-07
1.24359e-07
5.24748e-07
3.17771e-07
6.80584e-09
5.37489e-07
3.1841e-07
-1.10705e-07
5.37973e-07
3.18473e-07
-2.32311e-07
5.26205e-07
3.1797e-07
-3.59119e-07
5.00614e-07
3.13418e-07
-4.83541e-07
4.59123e-07
2.95063e-07
-5.89485e-07
3.95153e-07
2.5312e-07
-6.50306e-07
3.1112e-07
1.74053e-07
-6.66366e-07
1.98771e-07
5.74385e-08
-6.73327e-07
1.08686e-07
-1.38673e-08
-5.28551e-07
1.6704e-07
-5.13926e-08
-3.96147e-07
1.53187e-07
-7.10487e-08
-2.84107e-07
1.35246e-07
-7.32678e-08
-1.90533e-07
1.15698e-07
-6.90268e-08
-1.12599e-07
9.9908e-08
-6.21373e-08
-4.76925e-08
8.96877e-08
-5.38009e-08
-3.04938e-09
8.43249e-08
-3.57435e-08
7.86341e-08
4.99653e-09
-3.24746e-10
4.04876e-08
6.21267e-09
2.68103e-08
4.37067e-08
-2.08446e-08
6.71082e-08
4.62808e-08
-3.30939e-08
1.15438e-07
5.09595e-08
-3.93595e-08
1.7374e-07
5.85866e-08
-4.62414e-08
2.46094e-07
6.90467e-08
-5.54636e-08
3.36769e-07
8.14858e-08
-6.67683e-08
4.47169e-07
9.46865e-08
-7.75639e-08
5.72893e-07
1.0495e-07
-8.32374e-08
6.97264e-07
1.14026e-07
-7.53755e-08
7.47248e-07
1.03093e-07
-4.71456e-08
7.55462e-07
1.53566e-07
3.17321e-08
6.85066e-07
2.20472e-07
1.56025e-07
5.62876e-07
2.75479e-07
2.37498e-07
4.18568e-07
3.18428e-07
2.81574e-07
2.74588e-07
3.46502e-07
2.95647e-07
1.38234e-07
3.64304e-07
2.96799e-07
7.32155e-09
3.72886e-07
2.95516e-07
-1.2354e-07
3.73291e-07
2.95543e-07
-2.5974e-07
3.65513e-07
2.96892e-07
-4.03496e-07
3.48496e-07
2.95874e-07
-5.47667e-07
3.21157e-07
2.82137e-07
-6.7026e-07
2.78869e-07
2.38876e-07
-7.4199e-07
2.24304e-07
1.58545e-07
-7.37003e-07
1.57645e-07
3.61393e-08
-6.90271e-07
1.06396e-07
-4.44423e-08
-5.66096e-07
1.18188e-07
-7.5323e-08
-4.36505e-07
1.10372e-07
-8.67764e-08
-3.18362e-07
1.01798e-07
-8.4695e-08
-2.16073e-07
9.0904e-08
-7.7495e-08
-1.28934e-07
8.16994e-08
-6.89299e-08
-5.55819e-08
7.55633e-08
-5.92281e-08
-4.54501e-09
7.22572e-08
-3.89693e-08
6.75768e-08
6.51226e-09
-4.95988e-11
3.3511e-08
7.02614e-09
2.94111e-08
3.61629e-08
-2.19169e-08
7.28537e-08
3.7962e-08
-3.51238e-08
1.24629e-07
4.11401e-08
-4.19556e-08
1.86495e-07
4.62614e-08
-4.95406e-08
2.62277e-07
5.31075e-08
-5.98434e-08
3.55536e-07
6.09309e-08
-7.2704e-08
4.66928e-07
6.9086e-08
-8.57915e-08
5.90315e-07
7.56711e-08
-9.41089e-08
7.09977e-07
8.36084e-08
-8.92436e-08
7.86695e-07
8.79206e-08
-6.1546e-08
8.07315e-07
1.19428e-07
1.35173e-08
7.31769e-07
1.60689e-07
1.35329e-07
6.00791e-07
1.9581e-07
2.10648e-07
4.45873e-07
2.23558e-07
2.49787e-07
2.9221e-07
2.42085e-07
2.58079e-07
1.47004e-07
2.53999e-07
2.55511e-07
7.72979e-09
2.59832e-07
2.52328e-07
-1.31503e-07
2.60206e-07
2.52318e-07
-2.76585e-07
2.55106e-07
2.55489e-07
-4.30082e-07
2.43883e-07
2.5811e-07
-5.84966e-07
2.2597e-07
2.50071e-07
-7.16529e-07
1.98743e-07
2.1169e-07
-7.93717e-07
1.63984e-07
1.37508e-07
-7.76779e-07
1.23055e-07
1.76528e-08
-7.02745e-07
9.13842e-08
-5.90223e-08
-5.82896e-07
8.77007e-08
-8.93616e-08
-4.55347e-07
8.06889e-08
-9.78659e-08
-3.35681e-07
7.5459e-08
-9.3327e-08
-2.29891e-07
6.92e-08
-8.40862e-08
-1.38024e-07
6.40082e-08
-7.41754e-08
-5.96982e-08
6.05769e-08
-6.33395e-08
-4.8135e-09
5.8679e-08
-4.13065e-08
5.49864e-08
7.77687e-09
3.06969e-11
2.57974e-08
7.68289e-09
3.1102e-08
2.78211e-08
-2.27295e-08
7.67255e-08
2.89969e-08
-3.66583e-08
1.30758e-07
3.10166e-08
-4.39095e-08
1.94745e-07
3.42821e-08
-5.20073e-08
2.72305e-07
3.86428e-08
-6.30948e-08
3.6666e-07
4.36543e-08
-7.70788e-08
4.7835e-07
4.91194e-08
-9.17239e-08
6.0148e-07
5.42953e-08
-1.01754e-07
7.22269e-07
6.14924e-08
-9.86721e-08
8.11744e-07
6.93983e-08
-7.09536e-08
8.38914e-07
9.00911e-08
2.16737e-09
7.61292e-07
1.1593e-07
1.22381e-07
6.25154e-07
1.38539e-07
1.93409e-07
4.63555e-07
1.56588e-07
2.28569e-07
3.03694e-07
1.68988e-07
2.32959e-07
1.52783e-07
1.77087e-07
2.27823e-07
8.1012e-09
1.81158e-07
2.23356e-07
-1.36555e-07
1.81537e-07
2.23326e-07
-2.87388e-07
1.78202e-07
2.27737e-07
-4.47161e-07
1.70778e-07
2.32878e-07
-6.08836e-07
1.58956e-07
2.28689e-07
-7.45708e-07
1.41363e-07
1.94252e-07
-8.25117e-07
1.19043e-07
1.24349e-07
-8.01889e-07
9.33402e-08
6.48631e-09
-7.1474e-07
7.27962e-08
-6.85607e-08
-5.93464e-07
6.53252e-08
-9.8901e-08
-4.65848e-07
5.87574e-08
-1.05684e-07
-3.45396e-07
5.45591e-08
-9.95518e-08
-2.37778e-07
5.04912e-08
-8.89094e-08
-1.43181e-07
4.74077e-08
-7.79965e-08
-6.17999e-08
4.54931e-08
-6.62976e-08
-4.59982e-09
4.44188e-08
-4.294e-08
4.16503e-08
8.73629e-09
-1.92779e-11
1.76792e-08
8.13755e-09
3.20748e-08
1.90467e-08
-2.33197e-08
7.90911e-08
1.97304e-08
-3.77498e-08
1.34513e-07
2.08769e-08
-4.52823e-08
1.99731e-07
2.2775e-08
-5.37105e-08
2.78273e-07
2.53907e-08
-6.52898e-08
3.73313e-07
2.85718e-08
-7.99577e-08
4.85561e-07
3.23601e-08
-9.54886e-08
6.09687e-07
3.66092e-08
-1.0644e-07
7.32709e-07
4.26315e-08
-1.04161e-07
8.28561e-07
5.01017e-08
-7.65551e-08
8.59359e-07
6.32708e-08
-3.97755e-09
7.8043e-07
7.88037e-08
1.16055e-07
6.41006e-07
9.2658e-08
1.85305e-07
4.75253e-07
1.03817e-07
2.18525e-07
3.11437e-07
1.11774e-07
2.2103e-07
1.56776e-07
1.1708e-07
2.14667e-07
8.47159e-09
1.1987e-07
2.09594e-07
-1.39829e-07
1.2028e-07
2.09558e-07
-2.94474e-07
1.18285e-07
2.14562e-07
-4.58302e-07
1.13694e-07
2.20912e-07
-6.24263e-07
1.06329e-07
2.18589e-07
-7.64579e-07
9.56035e-08
1.86075e-07
-8.45514e-07
8.20161e-08
1.17962e-07
-8.18512e-07
6.66457e-08
-3.07076e-10
-7.24901e-07
5.34294e-08
-7.4244e-08
-6.01193e-07
4.6126e-08
-1.04509e-07
-4.72313e-07
4.04186e-08
-1.10542e-07
-3.50922e-07
3.67312e-08
-1.03563e-07
-2.4209e-07
3.37837e-08
-9.21242e-08
-1.45867e-07
3.17751e-08
-8.05906e-08
-6.26827e-08
3.06327e-08
-6.83242e-08
-4.1932e-09
2.9996e-08
-4.40666e-08
2.81218e-08
9.33532e-09
-9.4891e-11
9.39014e-09
8.38392e-09
3.25829e-08
1.00903e-08
-2.37213e-08
8.04178e-08
1.03488e-08
-3.84533e-08
1.36674e-07
1.07683e-08
-4.61473e-08
2.02668e-07
1.1538e-08
-5.47577e-08
2.81917e-07
1.27431e-08
-6.66014e-08
3.77629e-07
1.44905e-08
-8.16308e-08
4.90651e-07
1.69473e-08
-9.76087e-08
6.15972e-07
2.02929e-08
-1.09005e-07
7.40817e-07
2.4841e-08
-1.07054e-07
8.39816e-07
3.05697e-08
-7.94676e-08
8.72314e-07
3.75947e-08
-6.82217e-09
7.92556e-07
4.47798e-08
1.13783e-07
6.51109e-07
5.13184e-08
1.82787e-07
4.8284e-07
5.66375e-08
2.15448e-07
3.16555e-07
6.07287e-08
2.17331e-07
1.5951e-07
6.35827e-08
2.10542e-07
8.87111e-09
6.52506e-08
2.05258e-07
-1.4179e-07
6.57171e-08
2.05224e-07
-2.98898e-07
6.49518e-08
2.10441e-07
-4.65319e-07
6.28976e-08
2.17217e-07
-6.33953e-07
5.94509e-08
2.15512e-07
-7.76451e-07
5.45559e-08
1.83546e-07
-8.58339e-07
4.82167e-08
1.15687e-07
-8.29771e-07
4.10144e-08
-2.93676e-09
-7.32908e-07
3.37926e-08
-7.72261e-08
-6.07231e-07
2.79768e-08
-1.07528e-07
-4.7696e-07
2.3424e-08
-1.13277e-07
-3.5454e-07
2.02113e-08
-1.059e-07
-2.44705e-07
1.80141e-08
-9.40648e-08
-1.47392e-07
1.66632e-08
-8.22014e-08
-6.31092e-08
1.59668e-08
-6.96171e-08
-3.88916e-09
1.5599e-08
-4.4823e-08
1.46099e-08
9.6227e-09
-1.6076e-10
1.13257e-09
8.41833e-09
3.27241e-08
1.16142e-09
-2.3956e-08
8.08857e-08
9.90523e-10
-3.88034e-08
1.37526e-07
6.77427e-10
-4.65495e-08
2.03969e-07
3.04524e-10
-5.52099e-08
2.83772e-07
5.9199e-11
-6.71188e-08
3.80181e-07
3.18608e-10
-8.22369e-08
4.9407e-07
1.37317e-09
-9.83152e-08
6.20416e-07
3.75303e-09
-1.09806e-07
7.463e-07
6.87539e-09
-1.07918e-07
8.46147e-07
1.10823e-08
-8.03598e-08
8.78831e-07
1.25273e-08
-7.61618e-09
7.98543e-07
1.16003e-08
1.13467e-07
6.56147e-07
1.09004e-08
1.82815e-07
4.86778e-07
1.03712e-08
2.15634e-07
3.19343e-07
1.05844e-08
2.17579e-07
1.61139e-07
1.09872e-08
2.10799e-07
9.323e-09
1.15511e-08
2.05516e-07
-1.42549e-07
1.21044e-08
2.05485e-07
-3.00914e-07
1.26119e-08
2.10705e-07
-4.68641e-07
1.3151e-08
2.17474e-07
-6.3858e-07
1.36856e-08
2.15704e-07
-7.82244e-07
1.46548e-08
1.83565e-07
-8.64849e-07
1.5471e-08
1.1535e-07
-8.36229e-07
1.61244e-08
-3.72978e-09
-7.38479e-07
1.42725e-08
-7.82298e-08
-6.11685e-07
9.73521e-09
-1.08552e-07
-4.80289e-07
6.29686e-09
-1.14269e-07
-3.56887e-07
3.63029e-09
-1.06821e-07
-2.46223e-07
2.25491e-09
-9.49055e-08
-1.48207e-07
1.61113e-09
-8.29637e-08
-6.33434e-08
1.38922e-09
-7.0286e-08
-3.77165e-09
1.30943e-09
-4.52822e-08
1.21973e-09
9.61855e-09
-2.17771e-10
-6.89096e-09
8.24131e-09
3.24948e-08
-7.52261e-09
-2.40286e-08
8.04886e-08
-8.1964e-09
-3.88069e-08
1.37062e-07
-9.39749e-09
-4.64982e-08
2.0362e-07
-1.11702e-08
-5.50837e-08
2.83785e-07
-1.323e-08
-6.6876e-08
3.80878e-07
-1.49591e-08
-8.18147e-08
4.95727e-07
-1.58241e-08
-9.76518e-08
6.22994e-07
-1.46175e-08
-1.08896e-07
7.49275e-07
-1.25806e-08
-1.06825e-07
8.47798e-07
-8.09286e-09
-7.93487e-08
8.79033e-07
-1.2131e-08
-6.57598e-09
7.98404e-07
-2.25213e-08
1.14751e-07
6.5609e-07
-3.16917e-08
1.84906e-07
4.87044e-07
-3.90962e-08
2.18514e-07
3.19797e-07
-4.33173e-08
2.21149e-07
1.61674e-07
-4.56682e-08
2.14778e-07
9.85145e-09
-4.63133e-08
2.09687e-07
-1.42066e-07
-4.56316e-08
2.09653e-07
-3.00469e-07
-4.36604e-08
2.14676e-07
-4.68203e-07
-4.01384e-08
2.21023e-07
-6.38086e-07
-3.49734e-08
2.18542e-07
-7.81965e-07
-2.70462e-08
1.8558e-07
-8.65204e-07
-1.78023e-08
1.16512e-07
-8.38143e-07
-8.00145e-09
-2.93483e-09
-7.4173e-07
-4.71662e-09
-7.74242e-08
-6.14531e-07
-9.77924e-09
-1.07685e-07
-4.82219e-07
-1.2423e-08
-1.13592e-07
-3.57889e-07
-1.43181e-08
-1.06382e-07
-2.46593e-07
-1.43537e-08
-9.46865e-08
-1.48282e-07
-1.37938e-08
-8.29059e-08
-6.33664e-08
-1.31754e-08
-7.03514e-08
-3.82726e-09
-1.27719e-08
-4.54578e-08
-1.1927e-08
9.31949e-09
-3.0143e-10
-1.44454e-08
7.85584e-09
3.17935e-08
-1.56882e-08
-2.39294e-08
7.90375e-08
-1.69965e-08
-3.84438e-08
1.34958e-07
-1.9352e-08
-4.59664e-08
2.01117e-07
-2.29926e-08
-5.43365e-08
2.81301e-07
-2.76194e-08
-6.57942e-08
3.78988e-07
-3.23825e-08
-8.02635e-08
4.94992e-07
-3.63556e-08
-9.54725e-08
6.23512e-07
-3.70843e-08
-1.06054e-07
7.50218e-07
-3.58906e-08
-1.03396e-07
8.44683e-07
-2.66126e-08
-7.59456e-08
8.72107e-07
-3.6605e-08
-2.94974e-09
7.91268e-07
-6.06412e-08
1.18959e-07
6.50229e-07
-8.16355e-08
1.90982e-07
4.8318e-07
-9.85335e-08
2.26487e-07
3.17655e-07
-1.08704e-07
2.30911e-07
1.61019e-07
-1.14671e-07
2.25639e-07
1.05042e-08
-1.16864e-07
2.21065e-07
-1.40151e-07
-1.15981e-07
2.21005e-07
-2.9721e-07
-1.12054e-07
2.25453e-07
-4.63458e-07
-1.04529e-07
2.30638e-07
-6.31692e-07
-9.30436e-08
2.26305e-07
-7.74706e-07
-7.5415e-08
1.91383e-07
-8.58602e-07
-5.42947e-08
1.20388e-07
-8.3546e-07
-3.11881e-08
4.5167e-11
-7.43105e-07
-2.27043e-08
-7.43676e-08
-6.15516e-07
-3.27571e-08
-1.04611e-07
-4.82052e-07
-3.48097e-08
-1.11077e-07
-3.56752e-07
-3.5144e-08
-1.04474e-07
-2.45134e-07
-3.264e-08
-9.33322e-08
-1.47132e-07
-2.98346e-08
-8.19612e-08
-6.28951e-08
-2.76611e-08
-6.9751e-08
-3.95481e-09
-2.64044e-08
-4.53078e-08
-2.45784e-08
8.69659e-09
-5.50369e-10
-2.11748e-08
7.27984e-09
3.0368e-08
-2.29589e-08
-2.36476e-08
7.60784e-08
-2.50286e-08
-3.76784e-08
1.30448e-07
-2.88176e-08
-4.49037e-08
1.95233e-07
-3.48859e-08
-5.28923e-08
2.74484e-07
-4.3119e-08
-6.37506e-08
3.72143e-07
-5.26909e-08
-7.73513e-08
4.89435e-07
-6.23204e-08
-9.13269e-08
6.20669e-07
-6.77749e-08
-1.00544e-07
7.4984e-07
-6.86442e-08
-9.64168e-08
8.3543e-07
-4.29172e-08
-6.92858e-08
8.54913e-07
-6.08027e-08
4.71518e-09
7.73725e-07
-1.07034e-07
1.27581e-07
6.35683e-07
-1.46746e-07
2.03152e-07
4.73278e-07
-1.78147e-07
2.42018e-07
3.1185e-07
-1.97182e-07
2.49906e-07
1.58726e-07
-2.08393e-07
2.46846e-07
1.13367e-08
-2.12808e-07
2.43333e-07
-1.36239e-07
-2.11608e-07
2.43202e-07
-2.89938e-07
-2.04802e-07
2.46446e-07
-4.52354e-07
-1.91378e-07
2.49266e-07
-6.16373e-07
-1.70349e-07
2.41324e-07
-7.56915e-07
-1.37795e-07
2.02921e-07
-8.41747e-07
-9.7791e-08
1.28329e-07
-8.27027e-07
-5.33909e-08
7.48282e-09
-7.43262e-07
-3.82264e-08
-6.82427e-08
-6.13249e-07
-6.45784e-08
-9.81915e-08
-4.7728e-07
-6.47339e-08
-1.06045e-07
-3.51033e-07
-6.07265e-08
-1.00665e-07
-2.39926e-07
-5.31596e-08
-9.05871e-08
-1.4346e-07
-4.63509e-08
-7.99494e-08
-6.11863e-08
-4.15962e-08
-6.83391e-08
-3.86015e-09
-3.90021e-08
-4.47285e-08
-3.61339e-08
7.69531e-09
-1.06778e-09
-2.66645e-08
6.5574e-09
2.80794e-08
-2.89424e-08
-2.31637e-08
7.1348e-08
-3.18129e-08
-3.64842e-08
1.22995e-07
-3.718e-08
-4.32851e-08
1.84908e-07
-4.60646e-08
-5.07341e-08
2.61371e-07
-5.88306e-08
-6.07517e-08
3.5709e-07
-7.52629e-08
-7.31468e-08
4.7448e-07
-9.43671e-08
-8.53433e-08
6.10323e-07
-1.1102e-07
-9.25976e-08
7.48767e-07
-1.20674e-07
-8.6414e-08
8.15357e-07
-5.15166e-08
-5.79909e-08
8.18854e-07
-8.28843e-08
1.85853e-08
7.39488e-07
-1.69168e-07
1.41501e-07
6.083e-07
-2.36636e-07
2.21077e-07
4.54541e-07
-2.87951e-07
2.63563e-07
3.00628e-07
-3.19502e-07
2.76233e-07
1.53995e-07
-3.37897e-07
2.76137e-07
1.24786e-08
-3.45362e-07
2.74071e-07
-1.29258e-07
-3.43684e-07
2.73813e-07
-2.76596e-07
-3.32812e-07
2.75347e-07
-4.31768e-07
-3.1114e-07
2.74934e-07
-5.87697e-07
-2.76398e-07
2.61979e-07
-7.22149e-07
-2.23121e-07
2.19778e-07
-8.06408e-07
-1.54724e-07
1.41192e-07
-8.08081e-07
-7.19551e-08
2.02374e-08
-7.42577e-07
-4.60427e-08
-5.7688e-08
-6.03558e-07
-1.14469e-07
-8.91285e-08
-4.63324e-07
-1.06156e-07
-9.88113e-08
-3.37438e-07
-9.15228e-08
-9.50901e-08
-2.28933e-07
-7.51877e-08
-8.64767e-08
-1.36109e-07
-6.23787e-08
-7.67965e-08
-5.76381e-08
-5.40829e-08
-6.59841e-08
-3.33278e-09
-4.9729e-08
-4.35784e-08
-4.58403e-08
6.37369e-09
-1.97283e-09
-3.03721e-08
5.68052e-09
2.45857e-08
-3.30599e-08
-2.24411e-08
6.41501e-08
-3.6504e-08
-3.48734e-08
1.1118e-07
-4.30758e-08
-4.11337e-08
1.67313e-07
-5.43244e-08
-4.78733e-08
2.36676e-07
-7.14198e-08
-5.67734e-08
3.24677e-07
-9.57323e-08
-6.75319e-08
4.35797e-07
-1.28642e-07
-7.68456e-08
5.74796e-07
-1.69838e-07
-8.01799e-08
7.47013e-07
-2.26679e-07
-6.62129e-08
7.78772e-07
-4.97276e-08
-3.35485e-08
7.40368e-07
-7.78936e-08
3.34132e-08
6.70721e-07
-2.48882e-07
1.49361e-07
5.54853e-07