/*--------------------------------*- C++ -*----------------------------------*\
| =========                 |                                                 |
| \\      /  F ield         | OpenFOAM: The Open Source CFD Toolbox           |
|  \\    /   O peration     | Version:  2112                                  |
|   \\  /    A nd           | Website:  www.openfoam.com                      |
|    \\/     M anipulation  |                                                 |
\*---------------------------------------------------------------------------*/
FoamFile
{
    version     2.0;
    format      ascii;
    arch        "LSB;label=32;scalar=64";
    class       volVectorField;
    location    "3.9";
    object      U;
}
// * * * * * * * * * * * * * * * * * * * * * * * * * * * * * * * * * * * * * //

dimensions      [0 1 -1 0 0 0 0];

internalField   nonuniform List<vector> 
64906
(
(-5.64905e-08 -1.07986e-07 -5.64699e-07)
(1.91368e-06 -1.80771e-06 -5.91833e-07)
(5.73402e-06 -3.55748e-06 2.24887e-07)
(1.01487e-05 -5.07583e-06 1.29798e-06)
(1.49703e-05 -6.20006e-06 2.23953e-06)
(1.98596e-05 -7.09303e-06 2.9015e-06)
(2.46686e-05 -7.85021e-06 3.45306e-06)
(2.92769e-05 -8.5229e-06 3.9951e-06)
(3.35057e-05 -9.14408e-06 4.56263e-06)
(3.68683e-05 -9.61597e-06 5.17602e-06)
(3.89438e-05 -1.00204e-05 5.7891e-06)
(3.89114e-05 -1.01477e-05 6.41931e-06)
(3.67368e-05 -1.0249e-05 7.17855e-06)
(3.2983e-05 -1.03536e-05 7.95089e-06)
(2.78025e-05 -1.0627e-05 8.61644e-06)
(2.16237e-05 -1.08931e-05 9.15041e-06)
(1.47243e-05 -1.11327e-05 9.51628e-06)
(7.44497e-06 -1.12781e-05 9.7077e-06)
(4.89486e-08 -1.1319e-05 9.71836e-06)
(-7.17102e-06 -1.12559e-05 9.54906e-06)
(-1.39524e-05 -1.11001e-05 9.20621e-06)
(-1.99571e-05 -1.092e-05 8.69651e-06)
(-2.49174e-05 -1.07326e-05 8.05747e-06)
(-2.84251e-05 -1.07095e-05 7.31541e-06)
(-3.03153e-05 -1.06441e-05 6.60741e-06)
(-3.00121e-05 -1.05488e-05 6.01756e-06)
(-2.76061e-05 -1.01586e-05 5.41637e-06)
(-2.394e-05 -9.64335e-06 4.77089e-06)
(-1.94205e-05 -8.84319e-06 4.07809e-06)
(-1.45254e-05 -7.75944e-06 3.21619e-06)
(-9.60322e-06 -6.27648e-06 1.95282e-06)
(-5.22925e-06 -4.23069e-06 4.54914e-07)
(-1.57979e-06 -1.801e-06 -7.19317e-07)
(3.18678e-07 2.17144e-07 -8.72706e-07)
(-2.69854e-06 4.13507e-06 -1.44745e-06)
(-1.63501e-06 2.83255e-06 -6.26217e-06)
(3.56094e-06 8.18114e-07 -7.78212e-06)
(8.92583e-06 -1.06222e-06 -8.09432e-06)
(1.43262e-05 -2.25357e-06 -8.31722e-06)
(1.95135e-05 -2.78499e-06 -8.80315e-06)
(2.4533e-05 -2.66827e-06 -9.6412e-06)
(2.93026e-05 -1.84862e-06 -1.08555e-05)
(3.37219e-05 -2.40831e-07 -1.24613e-05)
(3.72397e-05 2.45537e-06 -1.44617e-05)
(3.94904e-05 5.99204e-06 -1.6794e-05)
(3.96882e-05 1.05032e-05 -1.93092e-05)
(3.76147e-05 1.44632e-05 -2.17847e-05)
(3.37155e-05 1.78731e-05 -2.39433e-05)
(2.83106e-05 2.02824e-05 -2.56784e-05)
(2.19855e-05 2.20056e-05 -2.69859e-05)
(1.49601e-05 2.30522e-05 -2.7863e-05)
(7.58871e-06 2.35498e-05 -2.83195e-05)
(1.02656e-07 2.35169e-05 -2.83544e-05)
(-7.20416e-06 2.29534e-05 -2.79674e-05)
(-1.41027e-05 2.18411e-05 -2.71594e-05)
(-2.02395e-05 2.00535e-05 -2.59209e-05)
(-2.54012e-05 1.75898e-05 -2.4257e-05)
(-2.899e-05 1.4145e-05 -2.21774e-05)
(-3.07264e-05 1.02141e-05 -1.98128e-05)
(-3.01805e-05 5.77747e-06 -1.74308e-05)
(-2.75538e-05 2.43067e-06 -1.52692e-05)
(-2.36164e-05 7.95837e-08 -1.35068e-05)
(-1.86844e-05 -8.97179e-07 -1.22321e-05)
(-1.32776e-05 -6.76397e-07 -1.1447e-05)
(-7.48396e-06 7.02372e-07 -1.10398e-05)
(-1.66736e-06 3.13162e-06 -1.05506e-05)
(3.74629e-06 5.72999e-06 -8.6133e-06)
(4.04968e-06 7.0499e-06 -2.27813e-06)
(-4.61606e-06 1.35973e-05 -1.24932e-06)
(-4.50046e-06 1.44592e-05 -8.14035e-06)
(1.36489e-06 1.36782e-05 -1.05205e-05)
(7.52457e-06 1.29774e-05 -1.13534e-05)
(1.3767e-05 1.32594e-05 -1.2031e-05)
(1.97356e-05 1.47493e-05 -1.30006e-05)
(2.5594e-05 1.76311e-05 -1.44469e-05)
(3.1339e-05 2.22426e-05 -1.64596e-05)
(3.70031e-05 2.89528e-05 -1.90893e-05)
(4.17947e-05 3.84972e-05 -2.23657e-05)
(4.52295e-05 5.03841e-05 -2.61822e-05)
(4.55424e-05 6.47107e-05 -3.03263e-05)
(4.25886e-05 7.72554e-05 -3.42656e-05)
(3.76958e-05 8.81192e-05 -3.77058e-05)
(3.12148e-05 9.63224e-05 -4.04987e-05)
(2.3979e-05 0.00010243 -4.26146e-05)
(1.60971e-05 0.000106376 -4.40345e-05)
(7.94462e-06 0.00010836 -4.47736e-05)
(-3.14857e-07 0.000108392 -4.4828e-05)
(-8.39969e-06 0.000106474 -4.41973e-05)
(-1.61483e-05 0.000102597 -4.28852e-05)
(-2.3182e-05 9.65648e-05 -4.08782e-05)
(-2.93969e-05 8.84628e-05 -3.8198e-05)
(-3.39499e-05 7.77374e-05 -3.48816e-05)
(-3.65109e-05 6.54103e-05 -3.10903e-05)
(-3.5733e-05 5.14161e-05 -2.7132e-05)
(-3.17636e-05 4.00973e-05 -2.35586e-05)
(-2.63282e-05 3.13332e-05 -2.06001e-05)
(-1.97985e-05 2.57564e-05 -1.83726e-05)
(-1.29276e-05 2.27108e-05 -1.68145e-05)
(-5.66481e-06 2.1828e-05 -1.56986e-05)
(1.35657e-06 2.25421e-05 -1.44469e-05)
(7.72406e-06 2.3314e-05 -1.12675e-05)
(6.72792e-06 2.17372e-05 -2.16378e-06)
(-6.00257e-06 2.39204e-05 -5.4783e-07)
(-6.44502e-06 2.61723e-05 -8.40033e-06)
(1.94111e-07 2.64366e-05 -1.11147e-05)
(7.39781e-06 2.7053e-05 -1.21014e-05)
(1.48988e-05 2.90336e-05 -1.29321e-05)
(2.2245e-05 3.27312e-05 -1.41053e-05)
(2.97592e-05 3.85205e-05 -1.58487e-05)
(3.75584e-05 4.70792e-05 -1.82885e-05)
(4.59119e-05 5.92049e-05 -2.14825e-05)
(5.35221e-05 7.64392e-05 -2.54868e-05)
(5.96314e-05 9.81431e-05 -3.01423e-05)
(6.02728e-05 0.000124838 -3.52941e-05)
(5.53136e-05 0.000147717 -4.01356e-05)
(4.80066e-05 0.000167251 -4.4352e-05)
(3.89152e-05 0.00018182 -4.77671e-05)
(2.93896e-05 0.000192691 -5.03356e-05)
(1.92798e-05 0.000199741 -5.20413e-05)
(9.01496e-06 0.000203317 -5.29258e-05)
(-1.35525e-06 0.000203417 -5.29861e-05)
(-1.15506e-05 0.000200042 -5.22216e-05)
(-2.15224e-05 0.000193196 -5.06342e-05)
(-3.08304e-05 0.000182531 -4.81843e-05)
(-3.96262e-05 0.000168201 -4.48899e-05)
(-4.65314e-05 0.000148954 -4.08051e-05)
(-5.10025e-05 0.0001265 -3.61196e-05)
(-4.97273e-05 0.000100375 -3.11663e-05)
(-4.28704e-05 7.95905e-05 -2.67771e-05)
(-3.43538e-05 6.34884e-05 -2.31178e-05)
(-2.4749e-05 5.28791e-05 -2.03511e-05)
(-1.53474e-05 4.62727e-05 -1.83806e-05)
(-5.88974e-06 4.28627e-05 -1.69484e-05)
(2.79006e-06 4.1718e-05 -1.5433e-05)
(1.03105e-05 4.11702e-05 -1.17791e-05)
(8.61786e-06 3.77684e-05 -1.35338e-06)
(-6.8726e-06 3.46431e-05 2.62674e-07)
(-7.37134e-06 3.80133e-05 -8.40954e-06)
(4.82846e-07 3.92252e-05 -1.14021e-05)
(9.16248e-06 4.12091e-05 -1.24858e-05)
(1.84184e-05 4.5029e-05 -1.34397e-05)
(2.77816e-05 5.10937e-05 -1.48292e-05)
(3.78442e-05 5.99198e-05 -1.69186e-05)
(4.89668e-05 7.25647e-05 -1.98695e-05)
(6.19547e-05 9.04933e-05 -2.37123e-05)
(7.47279e-05 0.000116773 -2.85411e-05)
(8.62659e-05 0.000151182 -3.40801e-05)
(8.75201e-05 0.000196053 -4.05132e-05)
(7.83125e-05 0.000232494 -4.64479e-05)
(6.64141e-05 0.000262774 -5.16713e-05)
(5.26317e-05 0.000284714 -5.59145e-05)
(3.91072e-05 0.000301112 -5.90387e-05)
(2.5054e-05 0.000311729 -6.10757e-05)
(1.10114e-05 0.000317144 -6.21243e-05)
(-3.15417e-06 0.000317323 -6.21888e-05)
(-1.71286e-05 0.00031226 -6.12678e-05)
(-3.10462e-05 0.000301992 -5.93551e-05)
(-4.43436e-05 0.000285932 -5.63538e-05)
(-5.78039e-05 0.000264356 -5.22326e-05)
(-6.92224e-05 0.000234481 -4.71411e-05)
(-7.78236e-05 0.000198633 -4.13653e-05)
(-7.5705e-05 0.00015452 -3.51363e-05)
(-6.31692e-05 0.000121419 -2.9886e-05)
(-4.92438e-05 9.65814e-05 -2.54289e-05)
(-3.46191e-05 8.05002e-05 -2.20482e-05)
(-2.14209e-05 7.01615e-05 -1.96104e-05)
(-8.88222e-06 6.41539e-05 -1.78693e-05)
(2.15771e-06 6.11848e-05 -1.61265e-05)
(1.15118e-05 5.94843e-05 -1.20365e-05)
(9.82528e-06 5.46257e-05 -4.01338e-07)
(-7.46046e-06 4.49228e-05 1.07872e-06)
(-7.51087e-06 4.91483e-05 -8.53206e-06)
(2.1751e-06 5.11693e-05 -1.18652e-05)
(1.28983e-05 5.44621e-05 -1.30743e-05)
(2.44712e-05 6.0128e-05 -1.41935e-05)
(3.64685e-05 6.8529e-05 -1.58828e-05)
(4.98778e-05 8.01988e-05 -1.84396e-05)
(6.5522e-05 9.64859e-05 -2.2056e-05)
(8.53876e-05 0.000119773 -2.6642e-05)
(0.000106662 0.000155888 -3.23071e-05)
(0.000128966 0.00020613 -3.82376e-05)
(0.000131557 0.000279515 -4.61159e-05)
(0.000113896 0.000333638 -5.33286e-05)
(9.43171e-05 0.00037666 -6.00366e-05)
(7.32902e-05 0.000406543 -6.55809e-05)
(5.38873e-05 0.000428993 -6.9453e-05)
(3.38932e-05 0.00044348 -7.19036e-05)
(1.4108e-05 0.000450915 -7.31518e-05)
(-5.86614e-06 0.000451182 -7.32218e-05)
(-2.5593e-05 0.000444268 -7.21117e-05)
(-4.54722e-05 0.000430285 -6.97938e-05)
(-6.46624e-05 0.000408296 -6.60517e-05)
(-8.537e-05 0.000378873 -6.06323e-05)
(-0.000104398 0.000336309 -5.40591e-05)
(-0.000121335 0.000282895 -4.70134e-05)
(-0.000117547 0.000210363 -3.93375e-05)
(-9.39477e-05 0.000161959 -3.37255e-05)
(-7.13393e-05 0.000127554 -2.84676e-05)
(-4.94335e-05 0.00010639 -2.43975e-05)
(-3.1176e-05 9.27396e-05 -2.13667e-05)
(-1.46268e-05 8.43948e-05 -1.92318e-05)
(-3.85658e-07 7.98306e-05 -1.71812e-05)
(1.17048e-05 7.72033e-05 -1.25265e-05)
(1.07054e-05 7.12297e-05 5.53025e-07)
(-7.92453e-06 5.44072e-05 1.95054e-06)
(-7.05268e-06 5.93258e-05 -8.8532e-06)
(5.2077e-06 6.21855e-05 -1.26457e-05)
(1.86478e-05 6.68535e-05 -1.4038e-05)
(3.31458e-05 7.45454e-05 -1.53824e-05)
(4.83028e-05 8.54245e-05 -1.74576e-05)
(6.55482e-05 9.97739e-05 -2.05842e-05)
(8.64206e-05 0.000118703 -2.49768e-05)
(0.0001153 0.000145426 -3.03e-05)
(0.000149054 0.000189029 -3.64649e-05)
(0.000192704 0.000257012 -4.14079e-05)
(0.000198675 0.000377916 -5.06014e-05)
(0.000163835 0.000454472 -5.87613e-05)
(0.000132317 0.000512598 -6.76284e-05)
(0.000101249 0.000551388 -7.52556e-05)
(7.41789e-05 0.000581104 -7.99347e-05)
(4.60972e-05 0.000600318 -8.28229e-05)
(1.84306e-05 0.000610248 -8.42748e-05)
(-9.58259e-06 0.000610619 -8.43519e-05)
(-3.72146e-05 0.000601413 -8.30515e-05)
(-6.52347e-05 0.000582885 -8.03072e-05)
(-9.2154e-05 0.000553759 -7.57694e-05)
(-0.000122976 0.000515497 -6.82727e-05)
(-0.000153905 0.000457794 -5.95511e-05)
(-0.000187963 0.000381953 -5.15832e-05)
(-0.000180256 0.000261777 -4.25815e-05)
(-0.000134922 0.00019655 -3.80057e-05)
(-9.98451e-05 0.000154815 -3.22798e-05)
(-6.84833e-05 0.000130398 -2.75442e-05)
(-4.43261e-05 0.000114381 -2.38328e-05)
(-2.30211e-05 0.000103893 -2.12234e-05)
(-4.70796e-06 9.77418e-05 -1.87637e-05)
(1.11703e-05 9.41538e-05 -1.3343e-05)
(1.14948e-05 8.72004e-05 1.59366e-06)
(-8.36201e-06 6.27446e-05 2.90129e-06)
(-6.00723e-06 6.81684e-05 -9.35968e-06)
(9.76756e-06 7.18815e-05 -1.38011e-05)
(2.67693e-05 7.80583e-05 -1.5422e-05)
(4.50119e-05 8.80199e-05 -1.70571e-05)
(6.38763e-05 0.000101568 -1.96167e-05)
(8.48846e-05 0.00011831 -2.3446e-05)
(0.000110196 0.000138059 -2.88383e-05)
(0.000147047 0.000163138 -3.49377e-05)
(0.000195648 0.000208447 -4.20413e-05)
(0.000282537 0.000289527 -3.9709e-05)
(0.000298039 0.000495785 -4.78761e-05)
(0.000229842 0.00059521 -5.72198e-05)
(0.000182908 0.00066677 -7.03831e-05)
(0.00013939 0.000713264 -8.17305e-05)
(0.000102695 0.000749636 -8.72294e-05)
(6.34201e-05 0.000773368 -9.05427e-05)
(2.46033e-05 0.000785767 -9.21852e-05)
(-1.48565e-05 0.000786266 -9.22704e-05)
(-5.3679e-05 0.00077484 -9.07944e-05)
(-9.29909e-05 0.000752016 -8.76389e-05)
(-0.000129679 0.000716397 -8.23001e-05)
(-0.000173167 0.000670486 -7.10971e-05)
(-0.00021962 0.000599171 -5.81073e-05)
(-0.000287209 0.000500376 -4.90476e-05)
(-0.000268925 0.000294439 -4.0966e-05)
(-0.000179786 0.000218074 -4.36656e-05)
(-0.000130348 0.000174317 -3.70622e-05)
(-9.04457e-05 0.000151458 -3.16629e-05)
(-6.0966e-05 0.000134716 -2.70892e-05)
(-3.4621e-05 0.000122293 -2.39076e-05)
(-1.12654e-05 0.000114418 -2.09366e-05)
(9.78545e-06 0.000109693 -1.44658e-05)
(1.22565e-05 0.000101978 2.87006e-06)
(-8.83781e-06 6.95279e-05 3.82496e-06)
(-4.44834e-06 7.54131e-05 -1.00971e-05)
(1.59299e-05 8.01209e-05 -1.53275e-05)
(3.75549e-05 8.83051e-05 -1.72366e-05)
(6.05567e-05 0.000101498 -1.92066e-05)
(8.38103e-05 0.000119305 -2.22841e-05)
(0.000108154 0.000140621 -2.68737e-05)
(0.000134702 0.0001619 -3.33662e-05)
(0.000175304 0.000184145 -4.13233e-05)
(0.000230978 0.000221414 -4.78534e-05)
(0.000400528 0.000243841 -4.78151e-05)
(0.000440823 0.000613059 -4.01216e-05)
(0.000303049 0.00074534 -4.68266e-05)
(0.000242533 0.000836637 -6.68872e-05)
(0.000186487 0.000895881 -8.33485e-05)
(0.000138545 0.000944473 -8.93449e-05)
(8.54445e-05 0.000976539 -9.35343e-05)
(3.25392e-05 0.000993127 -9.55313e-05)
(-2.15091e-05 0.000993791 -9.56201e-05)
(-7.44752e-05 0.000978505 -9.37968e-05)
(-0.000127751 0.000947678 -8.97668e-05)
(-0.000175924 0.00090012 -8.39392e-05)
(-0.000232407 0.000841629 -6.7622e-05)
(-0.000292732 0.00075046 -4.77792e-05)
(-0.000430563 0.000618483 -4.14524e-05)
(-0.000385371 0.000246765 -4.95982e-05)
(-0.000213072 0.000232088 -4.97823e-05)
(-0.00015833 0.000196263 -4.36402e-05)
(-0.000113644 0.00017643 -3.65393e-05)
(-8.1715e-05 0.000158206 -3.10427e-05)
(-5.02811e-05 0.000141596 -2.72888e-05)
(-2.06947e-05 0.000130383 -2.37987e-05)
(7.33676e-06 0.00012371 -1.59314e-05)
(1.30681e-05 0.00011522 4.41531e-06)
(-9.18684e-06 7.40783e-05 4.85632e-06)
(-2.00659e-06 8.02745e-05 -1.10622e-05)
(2.44431e-05 8.59162e-05 -1.72411e-05)
(5.25475e-05 9.61048e-05 -1.95198e-05)
(8.27616e-05 0.000112753 -2.19134e-05)
(0.0001135 0.000135608 -2.56187e-05)
(0.000143151 0.000162568 -3.10816e-05)
(0.000172085 0.000185219 -4.00223e-05)
(0.000208561 0.000190303 -4.97887e-05)
(0.000170892 0.000106648 -7.2832e-05)
(0.000474923 0.000218837 -7.2717e-05)
(0.000643616 0.000865328 -1.12974e-05)
(0.000396974 0.00093499 -9.57616e-06)
(0.000333385 0.000996853 -3.21086e-05)
(0.000262415 0.00105967 -5.2091e-05)
(0.000196848 0.00111201 -5.38165e-05)
(0.000120851 0.00114957 -5.66835e-05)
(4.49924e-05 0.001169 -5.82471e-05)
(-3.21264e-05 0.00116984 -5.83132e-05)
(-0.000108076 0.00115208 -5.68839e-05)
(-0.000184364 0.00111613 -5.412e-05)
(-0.000250426 0.0010652 -5.25623e-05)
(-0.000322421 0.00100338 -3.27108e-05)
(-0.00038663 0.000941268 -1.04037e-05)
(-0.000637692 0.000868034 -1.28956e-05)
(-0.000461507 0.000222077 -7.51927e-05)
(-0.000151449 0.000125592 -7.3945e-05)
(-0.000191627 0.000206869 -5.17481e-05)
(-0.000149886 0.000201516 -4.34632e-05)
(-0.000114475 0.000181019 -3.59211e-05)
(-7.56427e-05 0.000158749 -3.15992e-05)
(-3.61143e-05 0.000143132 -2.75247e-05)
(2.45024e-06 0.000134214 -1.79448e-05)
(1.3447e-05 0.000125252 6.13072e-06)
(-9.53687e-06 7.60365e-05 5.92181e-06)
(9.67597e-07 8.24032e-05 -1.22492e-05)
(3.45766e-05 8.899e-05 -1.95293e-05)
(7.06334e-05 0.000101395 -2.22667e-05)
(0.000110383 0.000122669 -2.51553e-05)
(0.000151737 0.000154899 -2.92025e-05)
(0.000190117 0.000200981 -3.45068e-05)
(0.000217354 0.00026294 -3.9475e-05)
(0.000175813 0.000343963 -5.87003e-05)
(0.000176119 0.000392532 -9.44322e-05)
(0.000285427 0.000736234 7.35719e-05)
(0.000317025 0.00093867 3.71833e-05)
(0.000393925 0.00106218 2.36988e-05)
(0.000342226 0.00117225 2.35422e-05)
(0.000258242 0.00125025 1.86408e-05)
(0.00016026 0.00130191 1.33318e-05)
(5.89744e-05 0.0013271 1.08145e-05)
(-4.37452e-05 0.00132807 1.08179e-05)
(-0.000145143 0.00130485 1.33327e-05)
(-0.000243462 0.00125525 1.86431e-05)
(-0.000328149 0.00117949 2.35637e-05)
(-0.000381684 0.00107182 2.38059e-05)
(-0.000308994 0.000950648 3.68923e-05)
(-0.000280477 0.000747907 7.19608e-05)
(-0.000172152 0.000404061 -9.12153e-05)
(-0.000167675 0.000358145 -6.01958e-05)
(-0.000198873 0.000277951 -4.36093e-05)
(-0.000161272 0.000218738 -4.04249e-05)
(-0.000110429 0.000177768 -3.66237e-05)
(-5.70072e-05 0.00015338 -3.22671e-05)
(-4.4552e-06 0.00014072 -2.06968e-05)
(1.36668e-05 0.000130947 7.74741e-06)
(-9.64151e-06 7.47279e-05 7.00901e-06)
(4.86678e-06 8.09028e-05 -1.35727e-05)
(4.71261e-05 8.7526e-05 -2.20703e-05)
(9.40061e-05 0.000100136 -2.54211e-05)
(0.000149743 0.000122018 -2.91812e-05)
(0.000217236 0.000155957 -3.45398e-05)
(0.000301477 0.000206686 -4.15678e-05)
(0.000415688 0.000280635 -4.69937e-05)
(0.000549703 0.000389093 -4.96573e-05)
(0.000817911 0.000547501 -3.07285e-05)
(0.000846637 0.00015051 5.25616e-05)
(0.000643298 0.000303642 7.90429e-05)
(0.000710371 0.000686617 0.000134346)
(0.000638974 0.000898582 0.000186911)
(0.000508991 0.00104728 0.000216389)
(0.000363766 0.00114545 0.000225494)
(0.000218849 0.00120565 0.00022572)
(7.82399e-05 0.0012342 0.000224875)
(-6.05914e-05 0.00123513 0.000224931)
(-0.000201129 0.00120849 0.000225885)
(-0.000345917 0.00115036 0.000225794)
(-0.000490917 0.00105457 0.000216958)
(-0.000620756 0.000908689 0.000188075)
(-0.000692307 0.000700095 0.000136226)
(-0.000623829 0.00031971 8.22519e-05)
(-0.000834698 0.000153381 5.51639e-05)
(-0.000812792 0.000548778 -2.98121e-05)
(-0.000538904 0.000397605 -5.18197e-05)
(-0.000397115 0.000292912 -5.16569e-05)
(-0.000271653 0.000222977 -4.86858e-05)
(-0.000172531 0.000177888 -4.36676e-05)
(-8.97596e-05 0.00015207 -3.82266e-05)
(-1.61148e-05 0.000139082 -2.41694e-05)
(1.23624e-05 0.000129106 9.44409e-06)
(-1.00325e-05 7.00979e-05 8.0426e-06)
(7.87446e-06 7.57226e-05 -1.47971e-05)
(5.76423e-05 8.1332e-05 -2.44741e-05)
(0.000113119 9.17779e-05 -2.84181e-05)
(0.000180087 0.000109306 -3.29554e-05)
(0.000262567 0.000134743 -3.94419e-05)
(0.000366238 0.000168011 -4.76485e-05)
(0.000501606 0.000206373 -5.43084e-05)
(0.000660859 0.000238804 -5.54604e-05)
(0.000896534 0.000256457 -3.99478e-05)
(0.00100811 0.000123344 -1.23134e-05)
(0.000969903 0.00031451 3.75816e-05)
(0.000932747 0.000509035 0.000142134)
(0.000799253 0.000652173 0.000211775)
(0.000629113 0.000762693 0.000247778)
(0.000443937 0.000835894 0.000262405)
(0.000264814 0.000881724 0.000265526)
(9.36578e-05 0.000903801 0.00026576)
(-7.40936e-05 0.000904572 0.00026582)
(-0.000245119 0.00088405 0.000265704)
(-0.000423998 0.000839812 0.000262739)
(-0.0006088 0.000768228 0.000248414)
(-0.000778925 0.000659256 0.000213105)
(-0.000912933 0.000517 0.000144408)
(-0.000951133 0.000322239 4.15963e-05)
(-0.000995074 0.000126134 -9.72257e-06)
(-0.000888415 0.000262597 -3.98125e-05)
(-0.000650223 0.000247624 -5.81394e-05)
(-0.000482949 0.000218017 -5.97366e-05)
(-0.000334936 0.000183432 -5.59236e-05)
(-0.000214022 0.000155615 -5.01165e-05)
(-0.000113156 0.000137867 -4.36789e-05)
(-2.39735e-05 0.000128623 -2.74057e-05)
(1.21222e-05 0.000119656 1.12693e-05)
(-1.04704e-05 6.27985e-05 9.02329e-06)
(1.02262e-05 6.78253e-05 -1.58043e-05)
(6.63558e-05 7.22257e-05 -2.65154e-05)
(0.000128772 8.02618e-05 -3.09689e-05)
(0.000204203 9.34661e-05 -3.61979e-05)
(0.000296749 0.000111904 -4.3858e-05)
(0.000411934 0.000134488 -5.38753e-05)
(0.000557555 0.000159093 -6.39599e-05)
(0.000725215 0.000179176 -7.02115e-05)
(0.000923721 0.000196484 -6.53669e-05)
(0.00105563 0.000161495 -4.50113e-05)
(0.00110274 0.000251492 1.83279e-05)
(0.001062 0.000370316 0.00012755)
(0.000906451 0.000468463 0.000195962)
(0.000708867 0.000544779 0.000231505)
(0.000496083 0.000594132 0.00024067)
(0.000294823 0.000625181 0.000239972)
(0.000103761 0.000640072 0.000238222)
(-8.27127e-05 0.000640698 0.000238247)
(-0.00027362 0.000627059 0.000240043)
(-0.000474607 0.000597255 0.000240825)
(-0.000687007 0.000549109 0.000231892)
(-0.000884735 0.000473909 0.000197005)
(-0.0010411 0.000376521 0.00012953)
(-0.00108515 0.000258167 2.20879e-05)
(-0.00104392 0.000166138 -4.2765e-05)
(-0.000914862 0.000202359 -6.51835e-05)
(-0.000713674 0.000187162 -7.30204e-05)
(-0.000537619 0.000169764 -6.97986e-05)
(-0.00037829 0.000148722 -6.29326e-05)
(-0.000243898 0.000131156 -5.56405e-05)
(-0.00013041 0.000119529 -4.81009e-05)
(-2.93414e-05 0.000113312 -2.9869e-05)
(1.23445e-05 0.000105687 1.31086e-05)
(-1.09886e-05 5.34152e-05 9.88714e-06)
(1.16092e-05 5.76807e-05 -1.66131e-05)
(7.23188e-05 6.07838e-05 -2.81362e-05)
(0.000139426 6.63166e-05 -3.2986e-05)
(0.000219948 7.52415e-05 -3.87402e-05)
(0.000317569 8.72348e-05 -4.72934e-05)
(0.000437517 0.000101031 -5.86749e-05)
(0.000585505 0.000115307 -7.09681e-05)
(0.000754414 0.000126235 -7.9911e-05)
(0.000940049 0.000138316 -7.82436e-05)
(0.00108702 0.000137896 -5.79636e-05)
(0.00117482 0.000193573 1.87972e-06)
(0.00113661 0.000267642 0.000108555)
(0.00096823 0.000329145 0.000170165)
(0.000756151 0.000377578 0.00020032)
(0.000528047 0.000409696 0.000203712)
(0.000313702 0.000430299 0.000199432)
(0.000110252 0.000440328 0.000195872)
(-8.80311e-05 0.000440876 0.000195861)
(-0.000291352 0.000431927 0.000199394)
(-0.000505485 0.000412351 0.000203679)
(-0.000733305 0.000381165 0.000200434)
(-0.000945742 0.000333542 0.000170873)
(-0.0011152 0.00027259 0.000110186)
(-0.00115759 0.000198975 5.39479e-06)
(-0.00107548 0.000142825 -5.58873e-05)
(-0.000930389 0.000144323 -7.82258e-05)
(-0.000741804 0.000133792 -8.2905e-05)
(-0.000563951 0.000125056 -7.71411e-05)
(-0.000401254 0.000113826 -6.82878e-05)
(-0.000260494 0.000104274 -5.98335e-05)
(-0.000140008 9.7861e-05 -5.13893e-05)
(-3.14383e-05 9.43396e-05 -3.15986e-05)
(1.33897e-05 8.8329e-05 1.45715e-05)
(-1.14795e-05 4.27732e-05 1.05801e-05)
(1.2382e-05 4.61644e-05 -1.72121e-05)
(7.63259e-05 4.82723e-05 -2.9347e-05)
(0.000146614 5.19288e-05 -3.44859e-05)
(0.000230349 5.78111e-05 -4.06172e-05)
(0.0003308 6.56347e-05 -4.98127e-05)
(0.000453055 7.45386e-05 -6.21761e-05)
(0.000601745 8.39878e-05 -7.59407e-05)
(0.000771304 9.22804e-05 -8.65608e-05)
(0.0009543 0.000103342 -8.6677e-05)
(0.00111158 0.000113718 -6.60712e-05)
(0.00121865 0.00015012 -7.49192e-06)
(0.00118257 0.000196164 9.74122e-05)
(0.0010078 0.000236113 0.000154762)
(0.000786714 0.000267893 0.000181111)
(0.000548859 0.000289415 0.00018081)
(0.000326078 0.000303361 0.000174169)
(0.000114621 0.000310277 0.000169433)
(-9.13331e-05 0.000310809 0.000169404)
(-0.000302705 0.000304932 0.000174074)
(-0.000525365 0.00029195 0.000180677)
(-0.000763065 0.000271269 0.000181077)
(-0.000984709 0.000240181 0.000155287)
(-0.00116073 0.000200704 9.88333e-05)
(-0.00120144 0.000155019 -4.30009e-06)
(-0.00109992 0.000118683 -6.41237e-05)
(-0.000943949 0.000109076 -8.6747e-05)
(-0.000757643 9.91237e-05 -8.96901e-05)
(-0.000578565 9.25163e-05 -8.23445e-05)
(-0.00041432 8.54521e-05 -7.21576e-05)
(-0.000270027 7.98429e-05 -6.28411e-05)
(-0.00014536 7.62351e-05 -5.37107e-05)
(-3.20002e-05 7.42162e-05 -3.27638e-05)
(1.45276e-05 6.95696e-05 1.56889e-05)
(-1.1917e-05 3.13168e-05 1.10617e-05)
(1.27043e-05 3.37619e-05 -1.76417e-05)
(7.87479e-05 3.50676e-05 -3.02034e-05)
(0.000151036 3.72745e-05 -3.55332e-05)
(0.000236696 4.08697e-05 -4.19005e-05)
(0.000338734 4.57147e-05 -5.14865e-05)
(0.000462273 5.13931e-05 -6.44283e-05)
(0.000611593 5.78471e-05 -7.89912e-05)
(0.00078244 6.45719e-05 -9.04628e-05)
(0.000966496 7.42094e-05 -9.13145e-05)
(0.00113033 8.5883e-05 -7.07329e-05)
(0.00124704 0.00010964 -1.24522e-05)
(0.00121227 0.000138441 9.22972e-05)
(0.00103347 0.000163888 0.000148009)
(0.000806725 0.0001843 0.000172617)
(0.000562791 0.0001986 0.000170624)
(0.000334519 0.000208046 0.000162917)
(0.000117739 0.000212895 0.000157658)
(-9.33888e-05 0.000213454 0.000157624)
(-0.000310145 0.000209689 0.000162807)
(-0.000538414 0.000201227 0.000170461)
(-0.000782362 0.000187755 0.000172537)
(-0.00100989 0.000167973 0.000148473)
(-0.00119019 0.00014293 9.3699e-05)
(-0.00122974 0.000114364 -9.09149e-06)
(-0.00111837 9.07187e-05 -6.88285e-05)
(-0.000955592 7.94829e-05 -9.1479e-05)
(-0.000767929 7.05285e-05 -9.37286e-05)
(-0.000587097 6.49167e-05 -8.55914e-05)
(-0.000421587 6.0081e-05 -7.46855e-05)
(-0.00027515 5.66377e-05 -6.48552e-05)
(-0.000148021 5.46049e-05 -5.52852e-05)
(-3.17784e-05 5.34657e-05 -3.35592e-05)
(1.55682e-05 5.01573e-05 1.64096e-05)
(-1.22251e-05 1.94719e-05 1.13384e-05)
(1.28076e-05 2.09615e-05 -1.7933e-05)
(8.00782e-05 2.16312e-05 -3.07543e-05)
(0.000153551 2.27395e-05 -3.61937e-05)
(0.000240386 2.46296e-05 -4.26898e-05)
(0.000343475 2.73405e-05 -5.24837e-05)
(0.000468025 3.08483e-05 -6.57291e-05)
(0.000618242 3.53182e-05 -8.06886e-05)
(0.000790554 4.08061e-05 -9.25629e-05)
(0.000976352 4.84487e-05 -9.3698e-05)
(0.001144 5.80637e-05 -7.31003e-05)
(0.00126525 7.2328e-05 -1.48646e-05)
(0.00123097 8.83542e-05 9.06566e-05)
(0.00104975 0.000102797 0.000146191)
(0.000819557 0.000114496 0.000170334)
(0.000571924 0.000123077 0.00016781)
(0.000340171 0.000128891 0.000159753)
(0.00011999 0.000132068 0.000154323)
(-9.44938e-05 0.000132689 0.000154292)
(-0.000314727 0.000130715 0.000159649)
(-0.000546624 0.000125973 0.000167655)
(-0.000794478 0.000118268 0.000170262)
(-0.00102569 0.000107179 0.000146656)
(-0.00120863 9.30752e-05 9.20845e-05)
(-0.00124791 7.71693e-05 -1.12511e-05)
(-0.001132 6.2754e-05 -7.12281e-05)
(-0.000965199 5.31982e-05 -9.39594e-05)
(-0.000775563 4.57797e-05 -9.59613e-05)
(-0.000592941 4.07922e-05 -8.74603e-05)
(-0.000426123 3.71167e-05 -7.62032e-05)
(-0.00027815 3.47397e-05 -6.61038e-05)
(-0.000149462 3.34519e-05 -5.62899e-05)
(-3.15079e-05 3.27486e-05 -3.40978e-05)
(1.62631e-05 3.06967e-05 1.68058e-05)
(-1.2383e-05 7.52167e-06 1.14102e-05)
(1.27786e-05 8.04166e-06 -1.81064e-05)
(8.05096e-05 8.11308e-06 -3.10303e-05)
(0.000154485 8.20904e-06 -3.65057e-05)
(0.000241911 8.53386e-06 -4.30369e-05)
(0.000345706 9.29493e-06 -5.28813e-05)
(0.000471145 1.0804e-05 -6.62005e-05)
(0.000622469 1.33744e-05 -8.12483e-05)
(0.000796169 1.74766e-05 -9.32059e-05)
(0.000983464 2.28988e-05 -9.43921e-05)
(0.00115259 2.97697e-05 -7.38123e-05)
(0.00127472 3.57498e-05 -1.55126e-05)
(0.00124016 4.03755e-05 9.04901e-05)
(0.00105778 4.47017e-05 0.000146349)
(0.00082604 4.82637e-05 0.000170634)
(0.000576783 5.14179e-05 0.000168162)
(0.000343355 5.37911e-05 0.000160112)
(0.000121499 5.53994e-05 0.000154684)
(-9.47056e-05 5.61176e-05 0.000154658)
(-0.00031671 5.58984e-05 0.000160018)
(-0.000550466 5.47495e-05 0.00016802)
(-0.000800213 5.25732e-05 0.000170574)
(-0.00103329 4.96218e-05 0.000146817)
(-0.00121769 4.55257e-05 9.191e-05)
(-0.00125751 4.07158e-05 -1.18831e-05)
(-0.00114077 3.43291e-05 -7.2024e-05)
(-0.000972382 2.7154e-05 -9.47765e-05)
(-0.000781126 2.1494e-05 -9.67534e-05)
(-0.000596961 1.72683e-05 -8.81899e-05)
(-0.000428863 1.46444e-05 -7.68645e-05)
(-0.000279795 1.31486e-05 -6.67037e-05)
(-0.000150202 1.24428e-05 -5.68199e-05)
(-3.14309e-05 1.20976e-05 -3.44402e-05)
(1.65594e-05 1.13247e-05 1.69002e-05)
(-1.23919e-05 -4.23532e-06 1.12793e-05)
(1.26144e-05 -4.67648e-06 -1.81642e-05)
(8.00363e-05 -5.25329e-06 -3.10354e-05)
(0.000153828 -6.27344e-06 -3.6476e-05)
(0.00024126 -7.69022e-06 -4.29569e-05)
(0.000345382 -9.14241e-06 -5.27136e-05)
(0.000471531 -9.95054e-06 -6.58849e-05)
(0.000624132 -9.56727e-06 -8.07126e-05)
(0.000799189 -6.88476e-06 -9.2439e-05)
(0.000987864 -3.33517e-06 -9.3457e-05)
(0.0011564 2.08506e-06 -7.29723e-05)
(0.00127578 2.52742e-07 -1.46476e-05)
(0.0012399 -7.18003e-06 9.14814e-05)
(0.00105753 -1.35831e-05 0.000148053)
(0.000826128 -1.87057e-05 0.000173002)
(0.00057734 -2.12643e-05 0.000171112)
(0.000344072 -2.24929e-05 0.000163394)
(0.000122287 -2.24942e-05 0.000158124)
(-9.39778e-05 -2.16256e-05 0.000158099)
(-0.000316026 -1.99397e-05 0.000163304)
(-0.000549846 -1.72297e-05 0.00017097)
(-0.000799466 -1.34916e-05 0.000172928)
(-0.00103261 -7.69844e-06 0.000148478)
(-0.00121748 -1.16532e-06 9.28181e-05)
(-0.00125893 5.6836e-06 -1.1217e-05)
(-0.00114499 6.73363e-06 -7.13435e-05)
(-0.000977165 6.54475e-07 -9.40182e-05)
(-0.000784529 -3.57549e-06 -9.6168e-05)
(-0.000599029 -6.97937e-06 -8.78274e-05)
(-0.000429719 -8.25417e-06 -7.67014e-05)
(-0.000280031 -8.55822e-06 -6.66759e-05)
(-0.000150208 -8.44566e-06 -5.68888e-05)
(-3.15243e-05 -8.30416e-06 -3.45948e-05)
(1.64715e-05 -7.77921e-06 1.66952e-05)
(-1.22728e-05 -1.55115e-05 1.0947e-05)
(1.22275e-05 -1.68943e-05 -1.80949e-05)
(7.84589e-05 -1.82963e-05 -3.07499e-05)
(0.000151228 -2.07864e-05 -3.60784e-05)
(0.00023785 -2.45486e-05 -4.24068e-05)
(0.000341671 -2.91359e-05 -5.18991e-05)
(0.000468145 -3.3473e-05 -6.46757e-05)
(0.000622187 -3.65479e-05 -7.89375e-05)
(0.000798843 -3.5914e-05 -9.00445e-05)
(0.000989909 -3.36152e-05 -9.05109e-05)
(0.00115605 -2.55671e-05 -7.00635e-05)
(0.00126767 -3.55127e-05 -1.13492e-05)
(0.00122883 -5.83923e-05 9.49938e-05)
(0.00104783 -7.87231e-05 0.000153307)
(0.00081897 -9.51927e-05 0.000179959)
(0.000573105 -0.000104944 0.00017967)
(0.000342073 -0.000110576 0.0001729)
(0.000122327 -0.000112475 0.000168077)
(-9.2144e-05 -0.000111378 0.000168032)
(-0.000312289 -0.000107337 0.000172746)
(-0.000544138 -9.98051e-05 0.000179413)
(-0.000791268 -8.84998e-05 0.00017972)
(-0.00102243 -7.11775e-05 0.00015351)
(-0.00120659 -5.07297e-05 9.60417e-05)
(-0.00125146 -2.8878e-05 -8.46442e-06)
(-0.00114527 -2.04596e-05 -6.87344e-05)
(-0.000979825 -2.94878e-05 -9.13645e-05)
(-0.000784911 -3.28572e-05 -9.40404e-05)
(-0.000598013 -3.47541e-05 -8.62707e-05)
(-0.00042759 -3.33796e-05 -7.56452e-05)
(-0.000278014 -3.12834e-05 -6.59584e-05)
(-0.000148932 -2.94833e-05 -5.64379e-05)
(-3.15181e-05 -2.83858e-05 -3.45215e-05)
(1.60718e-05 -2.64392e-05 1.61702e-05)
(-1.2083e-05 -2.58612e-05 1.04181e-05)
(1.14049e-05 -2.80867e-05 -1.78847e-05)
(7.52967e-05 -3.04844e-05 -3.014e-05)
(0.000145848 -3.48052e-05 -3.52655e-05)
(0.000230298 -4.15725e-05 -4.13135e-05)
(0.000332403 -5.03969e-05 -5.0314e-05)
(0.000457908 -5.99372e-05 -6.23293e-05)
(0.000613011 -6.85547e-05 -7.54161e-05)
(0.000791936 -7.15038e-05 -8.51708e-05)
(0.000989626 -7.05678e-05 -8.4131e-05)
(0.00115197 -5.00891e-05 -6.41661e-05)
(0.00124681 -6.93778e-05 -5.21066e-06)
(0.00120183 -0.000116933 0.000102577)
(0.00102399 -0.000157305 0.000164493)
(0.000801066 -0.000189706 0.000194406)
(0.000562027 -0.000209444 0.000197414)
(0.000336316 -0.00022117 0.000192685)
(0.00012136 -0.000225688 0.000188838)
(-8.87842e-05 -0.000224231 0.000188736)
(-0.000304283 -0.000216833 0.000192354)
(-0.00053109 -0.000202486 0.000196849)
(-0.000771912 -0.000180476 0.000193733)
(-0.000997807 -0.000146797 0.000164155)
(-0.00117972 -0.000106183 0.000103015)
(-0.0012316 -6.05018e-05 -3.06106e-06)
(-0.00114215 -4.39362e-05 -6.33092e-05)
(-0.000980256 -6.55054e-05 -8.54705e-05)
(-0.000778958 -6.78767e-05 -8.95717e-05)
(-0.000590174 -6.67444e-05 -8.30283e-05)
(-0.000419281 -6.06527e-05 -7.34245e-05)
(-0.000271458 -5.44954e-05 -6.43728e-05)
(-0.000144939 -4.99291e-05 -5.53308e-05)
(-3.06865e-05 -4.73479e-05 -3.41316e-05)
(1.5622e-05 -4.39613e-05 1.52558e-05)
(-1.18262e-05 -3.47846e-05 9.74266e-06)
(1.0039e-05 -3.78227e-05 -1.7511e-05)