/*--------------------------------*- C++ -*----------------------------------*\
| =========                 |                                                 |
| \\      /  F ield         | OpenFOAM: The Open Source CFD Toolbox           |
|  \\    /   O peration     | Version:  2112                                  |
|   \\  /    A nd           | Website:  www.openfoam.com                      |
|    \\/     M anipulation  |                                                 |
\*---------------------------------------------------------------------------*/
FoamFile
{
    version     2.0;
    format      ascii;
    arch        "LSB;label=32;scalar=64";
    class       volScalarField;
    location    "4.5";
    object      epsilon;
}
// * * * * * * * * * * * * * * * * * * * * * * * * * * * * * * * * * * * * * //

dimensions      [0 2 -3 0 0 0 0];

internalField   nonuniform List<scalar> 
64906
(
9.82582e-05
0.000118295
0.000131886
0.000139152
0.000142768
0.000144475
0.00014523
0.000145532
0.000145626
0.000145627
0.000145592
0.000145545
0.000145509
0.000145484
0.000145465
0.00014545
0.000145438
0.000145429
0.000145427
0.000145432
0.000145442
0.000145455
0.000145472
0.000145491
0.000145513
0.000145516
0.00014544
0.000145164
0.000144434
0.000142747
0.000139145
0.000131887
0.000118304
9.82663e-05
0.000118314
0.000225465
0.00029434
0.00033405
0.000356163
0.000367862
0.000373598
0.000376078
0.000376873
0.00037686
0.000376522
0.000376121
0.000375785
0.000375555
0.000375418
0.000375339
0.000375293
0.000375271
0.000375271
0.000375292
0.000375336
0.000375409
0.000375524
0.000375688
0.000375847
0.000375806
0.000375102
0.000372824
0.000367333
0.00035586
0.000333917
0.000294313
0.000225482
0.000118339
0.000131932
0.000294384
0.000403163
0.000468835
0.000507148
0.00052831
0.000539014
0.000543599
0.000544789
0.000544255
0.000543035
0.000541756
0.00054074
0.000540078
0.0005397
0.000539489
0.000539372
0.000539319
0.000539321
0.000539377
0.000539493
0.000539688
0.000540011
0.000540517
0.000541127
0.000541431
0.000540475
0.000536481
0.000526522
0.000506064
0.000468297
0.000402973
0.000294378
0.000131975
0.00013922
0.000334146
0.000468891
0.000552881
0.000603315
0.000631756
0.000646084
0.000651658
0.000652071
0.000649765
0.00064646
0.000643323
0.000640938
0.000639441
0.000638611
0.000638137
0.000637862
0.000637735
0.000637738
0.00063787
0.000638142
0.000638589
0.000639329
0.000640572
0.000642316
0.000643956
0.000644021
0.000639819
0.000627256
0.000600502
0.000551392
0.000468276
0.000334019
0.000139272
0.000142849
0.000356303
0.000507275
0.000603416
0.000662079
0.000695192
0.000711091
0.000715653
0.000713103
0.000706721
0.000699219
0.000692648
0.000687899
0.000685091
0.000683617
0.00068274
0.000682196
0.000681936
0.000681941
0.000682207
0.000682746
0.000683589
0.000684945
0.000687422
0.00069134
0.000695986
0.000699384
0.000697688
0.000685516
0.00065595
0.000600073
0.000505796
0.000355895
0.000142893
0.000144562
0.000368043
0.000528545
0.000632053
0.000695477
0.000730502
0.000745346
0.00074594
0.000736937
0.000722696
0.000707683
0.000695649
0.00068752
0.00068315
0.000681085
0.000679714
0.000678781
0.000678323
0.000678329
0.000678796
0.000679726
0.000681061
0.000682999
0.000687003
0.000694192
0.000704019
0.000714322
0.000719358
0.000711829
0.000683646
0.00062552
0.000525551
0.000367112
0.000144573
0.00014532
0.000373836
0.000539445
0.000646797
0.000712091
0.000746334
0.00075708
0.000749742
0.000729062
0.000700963
0.000673566
0.000654672
0.000643223
0.000638023
0.000636105
0.000634319
0.000632929
0.000632239
0.000632246
0.000632947
0.00063434
0.000636098
0.000637902
0.000642754
0.000653261
0.000669847
0.000692191
0.000710346
0.00071329
0.000691384
0.000635368
0.000534122
0.000372072
0.000145264
0.000145629
0.000376419
0.000544396
0.000653193
0.000718173
0.000749302
0.000752825
0.00073269
0.000692721
0.000640714
0.000593042
0.000570611
0.000560169
0.000557272
0.000557389
0.00055561
0.000553939
0.000553126
0.000553134
0.00055396
0.00055564
0.000557406
0.00055721
0.000559833
0.00056946
0.000589705
0.000632215
0.000673796
0.00069522
0.000685068
0.000635123
0.000535946
0.000373517
0.000145466
0.000145737
0.0003774
0.000546211
0.000655058
0.000718411
0.000744921
0.000738779
0.000700788
0.00063076
0.000535329
0.000449132
0.000444605
0.000450768
0.000457089
0.000461811
0.000461115
0.000459928
0.000459357
0.000459365
0.000459951
0.00046115
0.00046185
0.000457092
0.00045062
0.000443924
0.000446751
0.000527875
0.000612409
0.000663227
0.00067022
0.000629273
0.000534204
0.000373205
0.000145441
0.000145759
0.000377678
0.000546638
0.000655006
0.000716472
0.000738352
0.000722304
0.000663884
0.000551569
0.000374446
0.000207742
0.000282565
0.000337597
0.000361294
0.000371198
0.000373069
0.000373308
0.000373305
0.000373312
0.000373329
0.000373103
0.000371247
0.000361348
0.000337629
0.00028249
0.00020707
0.000369093
0.000534385
0.000626706
0.000653581
0.000622139
0.000531454
0.000372334
0.000145338
0.000145753
0.000377735
0.000546708
0.000654756
0.000715129
0.00073436
0.00071243
0.000640149
0.000490297
0.000220075
0.000168451
0.000261211
0.000295953
0.000307028
0.000310967
0.000312188
0.000312492
0.000312496
0.000312201
0.00031099
0.000307065
0.000296011
0.000261289
0.000168485
0.000217767
0.000474411
0.000603353
0.000643707
0.000617924
0.000529766
0.000371759
0.000145255
0.00014574
0.000377791
0.000546913
0.000655159
0.000715826
0.000735767
0.000716202
0.00065245
0.000533704
0.000351875
0.00019268
0.000234702
0.000275969
0.000292968
0.000297345
0.000301399
0.000302753
0.000303022
0.000303021
0.000302752
0.000301398
0.00029734
0.00029296
0.000275938
0.000234516
0.000191936
0.000346574
0.000516631
0.000615284
0.000647272
0.000619103
0.000530182
0.000371875
0.000145233
0.000145732
0.000377904
0.000547346
0.000656227
0.000718162
0.000740778
0.00072714
0.000677061
0.000590075
0.000473963
0.000366653
0.000327945
0.000308618
0.000301607
0.000298894
0.000299209
0.000299423
0.000299429
0.000299426
0.000299413
0.000299189
0.000298855
0.000301529
0.000308421
0.000327308
0.000364459
0.000466873
0.000572022
0.000639414
0.000657914
0.000623841
0.000532201
0.000372556
0.000145293
0.000145727
0.000378049
0.000547894
0.000657585
0.0007211
0.000746755
0.000738893
0.000699553
0.000631293
0.000542256
0.00045165
0.000382367
0.00033384
0.000311836
0.000303609
0.000301106
0.00030033
0.000300078
0.000300072
0.000300311
0.000301072
0.000303549
0.000311719
0.000333559
0.000381515
0.000448837
0.000534345
0.000612586
0.000661443
0.000669305
0.000629474
0.000534755
0.00037345
0.000145368
0.000145721
0.000378184
0.000548413
0.000658854
0.000723759
0.000751885
0.000748192
0.000715418
0.000656332
0.000577101
0.000489846
0.00040961
0.000348573
0.000319005
0.000307457
0.000303452
0.000302116
0.000301689
0.00030168
0.000302089
0.000303408
0.000307384
0.000318871
0.000348258
0.000408663
0.000486774
0.000568794
0.000637211
0.000676928
0.000678253
0.00063425
0.000537024
0.000374258
0.000145426
0.000145712
0.000378284
0.000548815
0.000659824
0.000725738
0.000755537
0.000754406
0.000725164
0.000670199
0.000594332
0.000507215
0.000422398
0.000356008
0.000322963
0.000309741
0.000305013
0.000303388
0.000302847
0.000302833
0.000303353
0.000304961
0.000309663
0.00032282
0.000355678
0.000421402
0.000504021
0.000585814
0.000650812
0.000686388
0.000684171
0.000637591
0.000538664
0.000374839
0.000145456
0.0001457
0.000378342
0.000549075
0.000660447
0.000726979
0.000757748
0.000757993
0.000730457
0.000677203
0.000602389
0.000514872
0.000428043
0.000359353
0.000324808
0.000310837
0.00030578
0.00030401
0.000303388
0.000303369
0.000303968
0.000305723
0.000310754
0.000324661
0.000359014
0.000426992
0.000511617
0.000593758
0.000657658
0.000691494
0.00068755
0.000639577
0.00053966
0.000375185
0.000145462
0.000145687
0.000378362
0.000549203
0.000660752
0.000727574
0.00075878
0.000759614
0.000732757
0.000680107
0.000605571
0.00051778
0.000430181
0.000360614
0.000325509
0.000311249
0.000306061
0.00030422
0.000303539
0.000303514
0.000304172
0.000305999
0.000311163
0.000325358
0.00036027
0.000429095
0.0005145
0.000596891
0.000660489
0.000693701
0.000689065
0.000640492
0.000540125
0.000375336
0.000145451
0.000145675
0.000378354
0.000549212
0.000660773
0.000727607
0.000758827
0.000759677
0.000732837
0.000680205
0.000605682
0.000517895
0.000430287
0.000360688
0.000325552
0.000311266
0.000306058
0.000304194
0.000303478
0.000303448
0.00030414
0.000305992
0.000311177
0.0003254
0.000360344
0.000429199
0.000514619
0.000597006
0.000660591
0.000693783
0.000689127
0.000640535
0.000540149
0.000375332
0.000145432
0.000145672
0.000378323
0.000549102
0.000660507
0.000727073
0.000757883
0.000758177
0.000730697
0.000677499
0.000602729
0.000515231
0.000428374
0.000359587
0.000324944
0.000310894
0.000305776
0.00030394
0.000303227
0.000303194
0.000303883
0.000305709
0.000310804
0.000324795
0.000359251
0.00042731
0.000511992
0.000594114
0.000657966
0.00069174
0.000687733
0.000639703
0.00053973
0.000375179
0.000145416
0.000145678
0.000378264
0.000548856
0.000659914
0.000725881
0.000755746
0.000754698
0.000725557
0.0006707
0.000594928
0.000507862
0.000422958
0.000356432
0.000323213
0.000309854
0.000305021
0.000303293
0.000302636
0.000302606
0.000303236
0.000304954
0.000309767
0.000323071
0.000356114
0.000421967
0.000504708
0.000586443
0.000651335
0.00068679
0.000684463
0.000637789
0.000538774
0.000374842
0.000145401
0.000145684
0.000378164
0.000548455
0.000658948
0.000723914
0.000752124
0.000748549
0.000715932
0.000657037
0.000577995
0.000490874
0.000410473
0.000349224
0.000319378
0.000307623
0.000303466
0.000301997
0.000301459
0.000301435
0.000301945
0.000303401
0.00030754
0.00031925
0.000348941
0.000409582
0.00048788
0.000569747
0.00063794
0.000677444
0.000678605
0.000634483
0.000537156
0.000374271
0.000145367
0.000145689
0.000378014
0.000547897
0.000657614
0.000721169
0.000746904
0.000739189
0.000700082
0.000632153
0.000543501
0.000453169
0.00038366
0.000334667
0.000312202
0.000303675
0.000300957
0.000300032
0.000299688
0.00029967
0.000299987
0.000300895
0.000303594
0.000312084
0.000334435
0.000382923
0.000450497
0.000535681
0.000613442
0.000661923
0.00066957
0.000629633
0.000534846
0.000373452
0.000145305
0.00014569
0.000377812
0.000547203
0.000656012
0.000717901
0.000740538
0.000727035
0.000677267
0.000590836
0.000475454
0.00036869
0.000329636
0.000309076
0.000301254
0.000298086
0.000298086
0.000298134
0.000298061
0.000298045
0.000298088
0.000298007
0.000297962
0.00030108
0.000308852
0.000329175
0.000366712
0.000468467
0.000572624
0.00063939
0.000657691
0.000623647
0.000532094
0.000372486
0.000145221
0.000145682
0.000377529
0.000546367
0.000654292
0.000714682
0.000734459
0.000714919
0.000651527
0.000533683
0.000353294
0.000193578
0.000234943
0.000273643
0.000289142
0.000292616
0.000296175
0.000297338
0.000297532
0.00029751
0.00029726
0.000295998
0.000292257
0.000288566
0.000272995
0.000234669
0.000192833
0.000347986
0.000515915
0.000613623
0.000645654
0.000617942
0.000529523
0.000371581
0.000145144
0.000145651
0.000377034
0.00054518
0.000652351
0.000711934
0.000730537
0.000708192
0.000635861
0.000486879
0.000219001
0.000163655
0.000249191
0.000279768
0.000288211
0.000291244
0.000292213
0.000292431
0.000292375
0.000291997
0.000290697
0.000286999
0.00027753
0.000246073
0.000161672
0.000215504
0.000468454
0.000597035
0.000638683
0.000614518
0.000527817
0.000370925
0.000145111
0.000145543
0.000375936
0.00054292
0.000649303
0.000709004
0.000729396
0.000712081
0.000652584
0.000539737
0.000363799
0.000200644
0.000257329
0.000299572
0.000312228
0.000314638
0.000314847
0.000314905
0.000314894
0.000314785
0.000314446
0.00031356
0.00031146
0.000305546
0.00028849
0.000245997
0.000194755
0.000350445
0.000515291
0.000610953
0.000641978
0.000614334
0.000526858
0.000370317
0.000145055
0.000145243
0.000373367
0.000537949
0.000642779
0.000702652
0.000726181
0.00071719
0.000675843
0.000601218
0.000499188
0.000402936
0.000376946
0.00035987
0.000342562
0.000332963
0.000329047
0.000327739
0.000327331
0.000327164
0.000327003
0.000326808
0.000326907
0.000328319
0.000333133
0.000345947
0.000374354
0.000470323
0.000568314
0.000630732
0.000647033
0.000613476
0.000524528
0.000368742
0.000144867
0.000144499
0.000367689
0.000527357
0.000628725
0.000687544
0.000713566
0.000712251
0.000686174
0.000637248
0.000570871
0.000500919
0.000445976
0.000396673
0.000355757
0.00033611
0.000328669
0.000326206
0.000325464
0.000325262
0.000325285
0.000325723
0.00032764
0.000334239
0.000353078
0.000395663
0.00045405
0.000529621
0.000597891
0.00063939
0.000644171
0.000606007
0.00051711
0.000364259
0.000144249
0.000142808
0.000356113
0.000506549
0.000601171
0.000656468
0.000682921
0.000686829
0.000671607
0.000639271
0.000592515
0.000536598
0.000478331
0.00042048
0.000372093
0.000348559
0.000339432
0.000336322
0.000335372
0.000335146
0.000335281
0.000336094
0.000338991
0.000347908
0.00037162
0.000421653
0.000483964
0.000547768
0.00059931
0.000627335
0.000624605
0.000584873
0.000499432
0.000353844
0.00014267
0.000139199
0.000334114
0.000468619
0.000551735
0.00060008
0.000624215
0.000630573
0.00062266
0.000602122
0.000570062
0.000528385
0.000480615
0.000431866
0.000390988
0.000369159
0.000359986
0.000356619
0.000355527
0.000355277
0.000355489
0.00035653
0.000359832
0.00036899
0.000390984
0.000432798
0.000483199
0.000531637
0.000568313
0.000585841
0.000578779
0.000541254
0.000464276
0.00033284
0.000139148
0.00013193
0.00029447
0.000403219
0.000468535
0.000505822
0.000524697
0.000530941
0.000527648
0.000516055
0.000496584
0.000469872
0.000437894
0.000404782
0.000376994
0.000360896
0.000353509
0.000350654
0.000349704
0.000349488
0.000349688
0.000350617
0.000353451
0.000360846
0.00037708
0.000405243
0.000438778
0.000470123
0.000492792
0.000502015
0.000493773
0.00046294
0.000401098
0.000293944
0.000131943
0.000118335
0.000225579
0.000294542
0.000334228
0.000356055
0.000366943
0.000370919
0.000370068
0.000365205
0.000356404
0.000343699
0.000327915
0.000311238
0.000297022
0.000288319
0.000284085
0.000282359
0.000281755
0.000281616
0.000281758
0.000282363
0.00028409
0.000288335
0.000297095
0.000311428
0.000328165
0.000343412
0.000353897
0.000357279
0.000351245
0.000332219
0.00029392
0.0002255
0.000118375
9.82832e-05
0.000118375
0.00013204
0.000139371
0.000143032
0.000144737
0.000145399
0.000145435
0.000144971
0.000143976
0.000142472
0.000140475
0.000138214
0.000136178
0.000134881
0.000134217
0.000133914
0.000133774
0.000133727
0.00013378
0.00013392
0.000134221
0.000134881
0.000136178
0.000138218
0.000140477
0.000142411
0.000143679
0.000143936
0.000142764
0.000139358
0.000132111
0.000118442
9.83185e-05
0.000132089
0.000199561
0.00024685
0.000274332
0.000289404
0.00029722
0.000300981
0.00030258
0.000303083
0.000303068
0.000302842
0.000302571
0.000302337
0.000302168
0.000302057
0.000301986
0.000301941
0.000301918
0.000301916
0.000301936
0.000301978
0.000302043
0.000302139
0.000302266
0.000302389
0.000302381
0.000301941
0.000300471
0.000296861
0.000289183
0.000274217
0.000246803
0.00019955
0.000132097
0.000199566
0.000252239
0.00030506
0.000338782
0.000358323
0.000368859
0.000374078
0.000376342
0.000377056
0.000377018
0.000376673
0.000376266
0.000375921
0.000375678
0.000375526
0.000375433
0.000375379
0.000375354
0.000375354
0.000375379
0.000375431
0.000375517
0.000375647
0.000375826
0.000376001
0.000375989
0.00037536
0.000373285
0.000368299
0.000357983
0.000338616
0.000305015
0.000252265
0.000199559
0.000246884
0.000305078
0.000369746
0.000413145
0.000439422
0.00045413
0.000461595
0.000464785
0.000465594
0.000465197
0.000464316
0.000463388
0.000462638
0.000462127
0.000461816
0.000461632
0.000461527
0.000461478
0.000461478
0.000461527
0.00046163
0.0004618
0.00046207
0.000462467
0.000462927
0.000463163
0.000462508
0.000459724
0.00045278
0.000438577
0.000412705
0.000369585
0.000305078
0.000246851
0.000274401
0.000338826
0.000413175
0.000464474
0.000496353
0.000514528
0.000523704
0.000527269
0.000527536
0.000526078
0.000523998
0.000522016
0.000520497
0.000519507
0.000518926
0.000518588
0.000518392
0.0005183
0.0005183
0.000518393
0.000518584
0.000518901
0.00051942
0.000520242
0.000521344
0.000522355
0.000522346
0.000519611
0.000511536
0.000494433
0.000463418
0.000412715
0.000338709
0.000274296
0.000289507
0.000358397
0.000439496
0.000496412
0.000532259
0.000552693
0.000562534
0.000565393
0.000563915
0.000560145
0.000555742
0.000551892
0.000549113
0.000547402
0.000546446
0.000545898
0.000545569
0.000545409
0.00054541
0.00054557
0.000545893
0.000546416
0.000547293
0.000548791
0.000551042
0.000553685
0.000555529
0.000554278
0.000546622
0.000528318
0.000494176
0.000438431
0.000358011
0.000289234
0.000297361
0.000368971
0.000454278
0.000514714
0.000552869
0.000574145
0.000583237
0.000583766
0.000578634
0.000570532
0.000562099
0.000555331
0.000550842
0.000548288
0.000546949
0.000546198
0.000545716
0.00054547
0.000545471
0.000545719
0.000546195
0.000546919
0.000548171
0.000550485
0.000554373
0.000559759
0.000565282
0.000567744
0.000562781
0.00054548
0.000510462
0.00045216
0.000368092
0.000296775
0.000301168
0.000374252
0.000461884
0.000524158
0.000563144
0.000583821
0.000590496
0.000586528
0.000574956
0.000559453
0.000544609
0.000533925
0.000527866
0.000524844
0.000523378
0.000522646
0.000522085
0.000521762
0.000521764
0.000522089
0.000522647
0.000523355
0.000524739
0.000527518
0.000532946
0.000542143
0.000553836
0.000563266
0.00056409
0.000550424
0.000516827
0.000458154
0.000372604
0.000300083
0.000302835
0.000376627
0.000465334
0.000528244
0.000566912
0.000585726
0.000588295
0.00057728
0.000555502
0.000528094
0.00050398
0.000488691
0.000483175
0.000481319
0.000480369
0.00048044
0.000480129
0.000479831
0.000479833
0.000480136
0.000480447
0.000480362
0.000481248
0.000482888
0.000487793
0.000501535
0.000522329
0.000543362
0.000553963
0.000546818
0.00051676
0.000459451
0.00037394
0.000301068
0.00030345
0.00037753
0.000466586
0.000529418
0.000567076
0.000583239
0.000580494
0.000560159
0.000523957
0.000478957
0.000446584
0.000421567
0.000423194
0.000426492
0.000426654
0.000429617
0.000430445
0.000430442
0.000430445
0.000430455
0.000429632
0.000426667
0.000426471
0.000423022
0.000420871
0.000444206
0.000473115
0.000511532
0.000536301
0.000538186
0.000513155
0.000458269
0.000373669
0.000300902
0.000303607
0.000377779
0.00046686
0.000529355
0.000565896
0.000579482
0.000571586
0.000541796
0.000490129
0.000429824
0.000492019
0.00034164
0.000359821
0.000373934
0.000374406
0.000383585
0.000386556
0.000387093
0.000387097
0.00038657
0.000383607
0.000374433
0.000373965
0.000359803
0.000341242
0.000488214
0.000423431
0.0004773
0.000517519
0.000528762
0.000508769
0.000456378
0.000372876
0.000300353
0.000303613
0.000377818
0.000466872
0.000529145
0.000565039
0.000577188
0.000566497
0.000532113
0.000479197
0.000542493
0.000334535
0.000299532
0.000319622
0.000330941
0.000332105
0.000332141
0.000332144
0.000332147
0.000332149
0.000332119
0.000330966
0.000319662
0.000299582
0.000334488
0.000530097
0.000465604
0.000507518
0.000523386
0.000506151
0.00045517
0.000372321
0.000299955
0.000303608
0.000377852
0.000466968
0.000529324
0.00056534
0.000577743
0.000567686
0.000534374
0.000477148
0.000406494
0.000424876
0.000300008
0.000333781
0.000358978
0.000384704
0.000368259
0.00036249
0.000361339
0.000361335
0.00036248
0.000368239
0.000384694
0.000358954
0.000333701
0.000299573
0.000421162
0.000400101
0.000464279
0.00050992
0.00052455
0.000506598
0.000455324
0.000372362
0.000299956
0.000303636
0.000377942
0.000467224
0.00052993
0.000566652
0.00058048
0.000573297
0.000545586
0.000497994
0.000435909
0.000379389
0.000336929
0.000327163
0.000324487
0.000327363
0.000322934
0.000321033
0.000320554
0.000320552
0.000321028
0.000322924
0.000327348
0.000324429
0.000326964
0.000336227
0.000377071
0.000430086
0.000485396
0.000521276
0.000530215
0.000509321
0.000456583
0.000372924
0.000300298
0.000303684
0.000378068
0.000467568
0.000530737
0.000568369
0.000583927
0.00057991
0.00055772
0.000518871
0.000467483
0.000413305
0.000367758
0.000338154
0.000320188
0.000313382
0.000310319
0.000309227
0.000308914
0.000308911
0.000309219
0.000310303
0.000313346
0.000320092
0.000337878
0.00036693
0.000410931
0.000461634
0.000506292
0.000533436
0.000536831
0.000512741
0.000458253
0.000373697
0.000300772
0.000303731
0.000378192
0.000467902
0.000531504
0.000569955
0.000586972
0.000585403
0.000567019
0.000533413
0.000487621
0.000435793
0.000386753
0.000349107
0.000324203
0.000313498
0.000309655
0.000308427
0.000308085
0.000308081
0.000308418
0.000309635
0.000313453
0.00032409
0.000348796
0.000385856
0.000433327
0.000481681
0.000520765
0.00054268
0.00054227
0.000515723
0.00045977
0.000374414
0.000301202
0.000303762
0.00037829
0.000468164
0.000532094
0.000571144
0.000589168
0.000589162
0.000572974
0.00054203
0.000498662
0.000447612
0.00039668
0.000355547
0.000327552
0.000315139
0.000310692
0.000309286
0.000308899
0.000308894
0.000309275
0.000310669
0.00031509
0.000327431
0.000355222
0.000395746
0.000445082
0.000492641
0.000529299
0.000548554
0.000545947
0.000517835
0.000460879
0.000374942
0.000301507
0.000303775
0.000378352
0.000468334
0.000532473
0.000571889
0.000590501
0.000591353
0.000576272
0.000546526
0.000504081
0.000453153
0.000401264
0.000358606
0.000329281
0.000316132
0.000311387
0.000309882
0.000309465
0.00030946
0.00030987
0.000311363
0.000316081
0.000329157
0.000358272
0.000400307
0.000450586
0.000498006
0.00053373
0.000551782
0.000548065
0.000519096
0.000461554
0.000375264
0.00030168
0.000303773
0.00037838
0.000468416
0.000532655
0.000572242
0.00059112
0.00059234
0.000577708
0.000548406
0.000506255
0.0004553
0.000403012
0.000359774
0.000329956
0.00031653
0.000311668
0.000310121
0.000309688
0.000309682
0.000310108
0.000311644
0.000316478
0.00032983
0.000359436
0.000402043
0.000452716
0.000500154
0.000535576
0.000553178
0.00054901
0.000519671
0.000461867
0.000375411
0.000301747
0.000303762
0.000378379
0.000468418
0.000532661
0.000572253
0.000591137
0.000592365
0.000577742
0.000548451
0.000506308
0.00045536
0.000403072
0.000359823
0.000329988
0.000316546
0.000311675
0.000310122
0.000309683
0.000309677
0.000310108
0.00031165
0.000316493
0.000329862
0.000359486
0.000402102
0.000452777
0.000500209
0.000535621
0.000553211
0.000549033
0.000519686
0.000461875
0.000375413
0.000301733
0.000303746
0.000378349
0.000468341
0.000532491
0.000571921
0.000590552
0.000591427
0.000576376
0.000546661
0.000504247
0.00045334
0.000401449
0.000358762
0.000329384
0.000316185
0.000311412
0.000309891
0.000309459
0.000309453
0.000309877
0.000311387
0.000316134
0.000329262
0.000358432
0.000400495
0.000450779
0.000498176
0.000533865
0.00055188
0.000548133
0.000519138
0.000461578
0.000375269
0.000301644
0.000303722
0.000378286
0.000468174
0.000532119
0.00057119
0.000589244
0.000589279
0.000573144
0.000542261
0.000498956
0.000447953
0.000397015
0.000355832
0.00032774
0.000315241
0.000310746
0.000309315
0.000308909
0.000308903
0.000309302
0.000310724
0.000315194
0.000327626
0.000355519
0.000396096
0.000445439
0.000492943
0.000529526
0.000548712
0.00054605
0.000517899
0.000460913
0.000374951
0.000301459
0.000303681
0.000378183
0.000467904
0.000531518
0.000569993
0.000587047
0.000585536
0.000567235
0.000533737
0.000488066
0.000436332
0.000387284
0.000349535
0.000324461
0.000313616
0.000309707
0.000308448
0.000308088
0.000308083
0.000308437
0.000309688
0.000313575
0.00032436
0.000349252
0.000386424
0.000433896
0.000482132
0.000521071
0.000542866
0.000542376
0.000515781
0.0004598
0.000374421
0.000301145
0.000303617
0.000378038
0.000467531
0.000530695
0.000568335
0.000583925
0.000579976
0.000557905
0.000519236
0.000468072
0.000414076
0.000368498
0.000338609
0.000320301
0.000313246
0.000310106
0.000308981
0.000308652
0.000308648
0.000308969
0.000310083
0.0003132
0.000320204
0.000338362
0.000367729
0.000411746
0.000462206
0.000506584
0.000533536
0.000536838
0.000512718
0.000458231
0.000373678
0.000300692
0.000303526
0.000377848
0.000467073
0.000529717
0.000566393
0.000580213
0.000573078
0.000545505
0.000498183
0.000436507
0.000380364
0.000337663
0.000327022
0.000323608
0.000325974
0.000321476
0.000319536
0.000319037
0.00031903
0.000319511
0.000321419
0.000325868
0.000323429
0.000326733
0.00033699
0.000378071
0.000430529
0.000485324
0.000520953
0.000529854
0.000509031
0.000456393
0.000372816
0.000300156
0.000303385
0.000377586
0.000466518
0.000528673
0.00056451
0.000576782
0.000566668
0.000533416
0.000476455
0.000406348
0.000426659
0.000299098
0.000331059
0.000354958
0.00037986
0.000363149
0.000357256
0.000356082
0.000356075
0.000357217
0.000363021
0.000379596
0.000354396
0.000330252
0.000298053
0.000422851
0.00039924
0.000462724
0.000508312
0.000523207
0.000505626
0.000454708
0.000372023
0.00029966
0.000303104
0.000377126
0.000465714
0.000527484
0.00056291
0.000574647
0.000563591
0.000528855
0.000475456
0.000535273
0.000316606
0.000285247
0.000302213
0.000311191
0.00031147
0.000311293
0.000311256
0.000311211
0.000311104
0.000310953
0.000309985
0.000299823
0.000281385
0.000309573
0.000517636
0.000459316
0.000502703
0.000519816
0.000503677
0.000453606
0.000371447
0.000299303
0.000302425
0.000376102
0.000464141
0.000525546
0.000561072
0.000573726
0.000564873
0.000533881
0.000480298
0.000415603
0.000455051
0.000311414
0.000321755
0.00032763
0.000322965
0.000329412
0.000331827
0.000332319
0.000332224
0.000331416
0.000328215
0.00031993
0.000321199
0.000311013
0.000297418
0.000429805
0.000399943
0.000461923
0.000506536
0.000520942
0.000503376
0.000452895
0.00037086
0.000298929
0.000300776
0.000373729
0.000460661
0.000521354
0.000557075
0.000571464
0.000566835
0.000543973
0.000503688
0.000451397
0.000405984
0.000366905
0.000351301
0.000338821
0.000329013
0.0003274
0.000327148
0.000327022
0.000326871
0.000326473
0.00032534
0.000323546
0.000326781
0.000331873
0.000343488
0.000382326
0.000430667
0.000482039
0.000515371
0.000523209
0.000502578
0.00045117
0.000369358
0.000297878
0.00029705
0.000368545
0.000453256
0.000512326
0.000547656
0.000563538
0.000563111
0.00054817
0.00052021
0.000482553
0.000442398
0.000405985
0.000376483
0.000354184
0.000338145
0.000331589
0.000329395
0.000328722
0.000328524
0.000328495
0.00032875
0.000330331
0.000336778
0.000352174
0.000376286
0.000413821
0.000457619
0.000496231
0.000519234
0.00052091
0.000497575
0.000445888
0.000365226
0.000294866
0.000289299
0.000358116
0.000438791
0.000494699
0.000528419
0.000544755
0.000547348
0.000538421
0.000519422
0.000492121
0.000459515
0.000425224
0.000392683
0.00036699
0.000348363
0.000340027
0.000337023
0.000336073
0.000335843
0.000335986
0.000336797
0.00033961
0.00034787
0.000366731
0.000393884
0.000429629
0.000466293
0.000495581
0.000511073
0.000508412
0.000483866
0.000433508
0.000355823
0.000287815
0.000274292
0.000338692
0.000412798
0.000463464
0.000493937
0.000509323
0.000513451
0.000508626
0.000496061
0.000476606
0.00045148
0.000422733
0.000393624
0.000369176
0.000352767
0.000344946
0.000341897
0.000340868
0.000340626
0.000340841
0.00034183
0.000344832
0.000352668
0.000369307
0.000394514
0.000424768
0.00045363
0.000475204
0.000485116
0.000479949
0.000456115
0.000409345
0.000337275
0.000273411
0.000246853
0.000305062
0.000369634
0.000412713
0.000438195
0.000451226
0.000455531
0.000453268
0.000445416
0.000432364
0.000414578
0.000393306
0.000371183
0.000352265
0.000339839
0.000333621
0.000331051
0.000330141
0.000329926
0.00033014
0.000331046
0.000333613
0.000339861
0.000352425
0.000371659
0.00039408
0.000414774
0.00042955
0.00043531
0.000429326
0.000408246
0.000367645
0.000304313
0.000246434
0.000199582
0.000252294
0.000305115
0.000338726
0.000357902
0.000367577
0.00037106
0.000370171
0.00036565
0.000357642
0.000346264
0.000332237
0.000317401
0.000304619
0.000296318
0.000292087
0.000290286
0.00028963
0.000289475
0.00028964
0.000290304
0.000292115
0.000296371
0.000304741
0.000317644
0.000332516
0.000345986
0.000355267
0.00035828
0.000352967
0.000336386
0.00030415
0.000251972
0.000199464
0.000132115
0.00019958
0.000246893
0.000274347
0.000289234
0.000296542
0.000299193
0.000298675
0.000295532
0.000289798
0.000281486
0.000271085
0.000260017
0.000250549
0.000244689
0.000241798
0.000240577
0.000240124
0.000240015
0.000240134
0.000240595
0.000241822
0.000244726
0.000250624
0.000260162
0.000271248
0.000281275
0.000288136
0.000290276
0.00028608
0.000272964
0.00024639
0.000199453
0.000132139
0.000154374
0.000262114
0.00033987
0.000386768
0.00041359
0.000428106
0.00043537
0.000438553
0.000439554
0.00043947
0.000438926
0.00043828
0.000437722
0.00043732
0.000437059
0.000436897
0.0004368
0.000436754
0.000436753
0.000436797
0.000436888
0.000437037
0.00043726
0.000437562
0.000437864
0.000437892
0.000437033
0.000434137
0.000427217
0.000413022
0.000386449
0.000339717
0.000262061
0.000154381
0.000262117
0.000301871
0.000358158
0.000396619
0.000419937
0.000432975
0.000439644
0.000442619
0.000443581
0.00044353
0.000443051
0.000442477
0.000441982
0.000441625
0.000441397
0.000441258
0.000441177
0.00044114
0.00044114
0.000441176
0.000441253
0.000441379
0.000441572
0.00044183
0.000442075
0.000442054
0.000441204
0.000438484
0.000432136
0.000419409
0.000396345
0.000358064
0.000301879
0.000262061
0.000339908
0.00035817
0.000415319
0.000457531
0.000484448
0.000500071
0.000508236
0.000511816
0.000512759
0.000512325
0.000511318
0.000510236
0.000509338
0.000508706
0.000508308
0.00050807
0.000507935
0.000507873
0.000507872
0.000507933
0.000508062
0.00050828
0.000508621
0.000509104
0.000509637
0.000509886
0.000509107
0.000505976
0.000498403
0.000483368
0.00045694
0.00041508
0.000358126
0.000339753
0.000386856
0.000396656
0.000457558
0.000504238
0.000534821
0.00055288
0.000562249
0.000565992
0.000566336
0.000564868
0.000562716
0.000560625
0.000558978
0.000557857
0.000557169
0.000556771
0.000556546
0.000556442
0.000556441
0.000556544
0.00055676
0.000557129
0.000557737
0.000558653
0.000559809
0.000560807
0.00056069
0.000557766
0.000549521
0.000532593
0.000502954
0.000456948
0.000396428
0.00038649
0.000413735
0.000420011
0.000484524
0.000534886
0.00056827
0.00058794
0.000597673