/*--------------------------------*- C++ -*----------------------------------*\
| =========                 |                                                 |
| \\      /  F ield         | OpenFOAM: The Open Source CFD Toolbox           |
|  \\    /   O peration     | Version:  2112                                  |
|   \\  /    A nd           | Website:  www.openfoam.com                      |
|    \\/     M anipulation  |                                                 |
\*---------------------------------------------------------------------------*/
FoamFile
{
    version     2.0;
    format      ascii;
    arch        "LSB;label=32;scalar=64";
    class       volScalarField;
    location    "4.5";
    object      k;
}
// * * * * * * * * * * * * * * * * * * * * * * * * * * * * * * * * * * * * * //

dimensions      [0 2 -2 0 0 0 0];

internalField   nonuniform List<scalar> 
64906
(
0.000196513
0.000222566
0.000239439
0.00024825
0.000252598
0.000254647
0.000255556
0.00025592
0.000256035
0.000256036
0.000255992
0.000255935
0.00025589
0.000255859
0.000255836
0.000255818
0.000255803
0.000255793
0.00025579
0.000255796
0.000255808
0.000255824
0.000255844
0.000255869
0.000255896
0.0002559
0.000255808
0.000255474
0.000254596
0.000252571
0.000248241
0.00023944
0.000222577
0.000196524
0.000222589
0.000342475
0.000409339
0.000445591
0.000465222
0.000475485
0.0004805
0.000482668
0.000483364
0.000483351
0.00048305
0.000482693
0.000482393
0.000482188
0.000482064
0.000481993
0.000481951
0.000481932
0.000481932
0.000481951
0.00048199
0.000482056
0.000482159
0.000482306
0.000482448
0.000482413
0.000481797
0.000479806
0.000475006
0.000464942
0.000445464
0.000409309
0.000342491
0.000222621
0.000239495
0.000409381
0.000505162
0.000558894
0.000589168
0.000605621
0.00061389
0.000617426
0.000618343
0.000617926
0.000616974
0.000615973
0.000615175
0.000614653
0.000614353
0.000614185
0.000614091
0.000614049
0.000614051
0.000614095
0.000614187
0.000614342
0.000614598
0.000614997
0.000615475
0.000615715
0.000614977
0.000611895
0.000604199
0.00058829
0.000558442
0.00050499
0.000409369
0.000239548
0.000248332
0.000445678
0.00055894
0.000624124
0.000661773
0.000682604
0.000693013
0.000697052
0.000697348
0.000695668
0.000693252
0.000690949
0.00068919
0.000688081
0.000687462
0.000687108
0.000686903
0.000686808
0.000686811
0.000686909
0.000687111
0.000687444
0.000687995
0.000688915
0.000690198
0.0006914
0.000691449
0.000688397
0.000679255
0.000659638
0.000622953
0.000558422
0.000445553
0.000248394
0.000252695
0.000465346
0.00058927
0.000661849
0.000704336
0.000727826
0.000739001
0.000742201
0.000740412
0.000735917
0.000730605
0.000725924
0.000722522
0.000720498
0.000719429
0.000718792
0.000718399
0.000718212
0.000718215
0.000718407
0.000718796
0.000719407
0.000720389
0.000722172
0.000724973
0.000728276
0.000730678
0.000729479
0.000720886
0.000699854
0.000659315
0.000588071
0.000464968
0.000252745
0.000254751
0.000475645
0.000605806
0.000682826
0.000728032
0.000752463
0.000762725
0.000763144
0.000756927
0.000747027
0.000736498
0.000727979
0.000722175
0.00071903
0.000717533
0.000716542
0.00071587
0.000715541
0.000715545
0.00071588
0.00071655
0.000717514
0.000718917
0.000721796
0.000726921
0.00073387
0.00074109
0.00074459
0.000739331
0.000719554
0.000677974
0.000603431
0.000474802
0.00025476
0.000255663
0.000480711
0.000614229
0.000693542
0.000739717
0.000763419
0.000770806
0.000765795
0.00075154
0.000731933
0.000712526
0.000698929
0.000690584
0.000686749
0.000685315
0.000683996
0.000682976
0.000682471
0.000682476
0.000682989
0.00068401
0.000685308
0.000686656
0.000690231
0.000697882
0.000709813
0.000725647
0.000738347
0.000740368
0.000725029
0.000685146
0.000610055
0.000479135
0.00025559
0.000256037
0.000482971
0.000618053
0.000698186
0.000743996
0.000765495
0.00076794
0.000754126
0.000726296
0.000689253
0.000654353
0.000637461
0.000629429
0.00062713
0.000627162
0.000625785
0.000624505
0.000623883
0.000623889
0.000624521
0.000625807
0.000627174
0.000627078
0.000629163
0.000636567
0.000651811
0.000682973
0.000712715
0.000727764
0.000720591
0.00068498
0.000611466
0.000480397
0.000255833
0.000256168
0.000483834
0.00061946
0.000699548
0.000744184
0.000762511
0.000758332
0.000732016
0.00068222
0.000611294
0.000543458
0.00053944
0.00054414
0.000549094
0.000552839
0.000552237
0.000551263
0.000550797
0.000550803
0.000551281
0.000552265
0.000552869
0.000549094
0.000544012
0.000538863
0.000541466
0.000605442
0.000668622
0.000705172
0.000710081
0.000680733
0.000610127
0.000480126
0.000255804
0.000256196
0.00048408
0.000619795
0.000699519
0.00074284
0.000757998
0.000746967
0.000706012
0.000623754
0.000481547
0.000324827
0.000398396
0.000448347
0.000469021
0.000477562
0.000479125
0.00047931
0.000479302
0.000479308
0.000479328
0.000479154
0.000477605
0.000469068
0.000448373
0.000398317
0.000324099
0.000476808
0.000610429
0.000678938
0.000698202
0.000675527
0.000608002
0.000479365
0.00025568
0.00025619
0.000484131
0.000619851
0.000699339
0.000741899
0.000755233
0.00074009
0.000689001
0.000576548
0.000337707
0.000281974
0.000377532
0.000410271
0.000420442
0.000424036
0.00042515
0.000425429
0.000425432
0.000425162
0.000424058
0.000420476
0.000410325
0.000377607
0.000282012
0.000335263
0.000563733
0.000661867
0.000691083
0.000672429
0.000606688
0.000478858
0.00025558
0.000256174
0.000484181
0.000620008
0.000699626
0.000742373
0.000756175
0.000742654
0.000697718
0.000609968
0.000461672
0.000308657
0.000351411
0.00039126
0.000407103
0.000411105
0.000414871
0.00041613
0.000416382
0.000416381
0.00041613
0.000414871
0.000411101
0.000407096
0.000391229
0.000351218
0.000307833
0.000456885
0.000596581
0.000670487
0.000693587
0.00067326
0.000606995
0.000478955
0.000255552
0.000256165
0.00048428
0.00062034
0.000700391
0.00074399
0.000759597
0.000750167
0.00071509
0.000652089
0.000562979
0.000473867
0.000439296
0.000421448
0.000414857
0.000412286
0.000412579
0.000412783
0.000412792
0.000412789
0.000412774
0.000412561
0.00041225
0.000414784
0.000421263
0.000438707
0.000471908
0.000557184
0.000638405
0.000687854
0.000701149
0.000676688
0.00060854
0.000479545
0.000255624
0.000256158
0.000484407
0.000620761
0.000701368
0.000746028
0.000763683
0.000758223
0.000730814
0.000682067
0.000615803
0.000544542
0.000486721
0.000444131
0.000424138
0.000416537
0.000414213
0.000413494
0.00041326
0.000413254
0.000413476
0.000414181
0.00041648
0.00042403
0.000443874
0.00048597
0.0005422
0.000609622
0.000668207
0.000703551
0.000709225
0.000680771
0.000610502
0.000480324
0.000255715
0.000256152
0.000484527
0.000621162
0.000702282
0.000747878
0.000767194
0.000764584
0.000741826
0.000699983
0.000641914
0.000574857
0.00050963
0.000457145
0.000430622
0.000420034
0.000416331
0.00041509
0.000414694
0.000414685
0.000415065
0.000416289
0.000419967
0.000430498
0.000456861
0.000508815
0.000572368
0.000635559
0.000686002
0.000714503
0.000715553
0.000684234
0.000612249
0.000481029
0.000255786
0.000256141
0.000484616
0.000621473
0.000702984
0.000749257
0.000769696
0.000768831
0.000748567
0.000709826
0.000654654
0.000588404
0.000520227
0.000463659
0.000434194
0.000422117
0.000417752
0.000416246
0.000415744
0.000415731
0.000416214
0.000417704
0.000422044
0.000434063
0.000463362
0.000519378
0.000585846
0.000648201
0.000695753
0.000721169
0.000719735
0.000686659
0.000613513
0.000481539
0.000255823
0.000256128
0.000484667
0.000621675
0.000703436
0.000750124
0.000771214
0.000771285
0.000752226
0.000714785
0.000660583
0.000594341
0.000524879
0.000466582
0.00043586
0.000423118
0.000418455
0.000416815
0.000416237
0.000416219
0.000416776
0.000418402
0.000423041
0.000435725
0.000466279
0.00052399
0.000591747
0.000654074
0.000700647
0.000724764
0.000722125
0.000688103
0.000614284
0.000481843
0.00025583
0.000256112
0.000484686
0.000621774
0.000703658
0.000750541
0.000771924
0.000772396
0.000753816
0.000716841
0.000662923
0.000596594
0.000526641
0.000467685
0.000436493
0.000423496
0.000418713
0.000417007
0.000416375
0.000416352
0.000416962
0.000418656
0.000423416
0.000436356
0.000467377
0.000525723
0.000593985
0.000656389
0.000702671
0.000726318
0.000723198
0.00068877
0.000614644
0.000481977
0.000255818
0.000256099
0.000484679
0.000621781
0.000703672
0.000750564
0.000771955
0.000772439
0.000753872
0.000716911
0.000663005
0.000596684
0.000526729
0.000467751
0.000436533
0.000423512
0.000418709
0.000416983
0.000416318
0.00041629
0.000416933
0.000418649
0.000423429
0.000436394
0.000467443
0.000525809
0.000594078
0.000656474
0.000702744
0.000726376
0.000723242
0.000688801
0.000614662
0.000481973
0.000255796
0.000256095
0.000484651
0.000621695
0.000703479
0.00075019
0.000771306
0.000771411
0.000752392
0.000714996
0.000660835
0.000594621
0.000525154
0.000466789
0.000435984
0.000423171
0.000418451
0.000416749
0.000416087
0.000416057
0.000416697
0.000418388
0.000423088
0.000435847
0.000466488
0.000524254
0.000592041
0.000654339
0.000700868
0.000724937
0.000722255
0.000688194
0.000614337
0.000481838
0.000255776
0.000256101
0.000484598
0.000621504
0.000703048
0.000749356
0.000769839
0.000769031
0.00074884
0.000710184
0.000655097
0.000588912
0.000520692
0.000464033
0.000434422
0.000422221
0.00041776
0.000416157
0.000415547
0.000415519
0.000416104
0.000417697
0.00042214
0.000434291
0.000463748
0.000519849
0.000586385
0.00064867
0.000696128
0.000721452
0.000719942
0.000686802
0.000613598
0.000481542
0.000255757
0.000256109
0.000484509
0.000621192
0.000702348
0.000747983
0.000767355
0.000764826
0.000742183
0.000700487
0.000642585
0.000575672
0.000510358
0.000457725
0.000430962
0.000420187
0.000416341
0.000414978
0.000414478
0.000414455
0.000414929
0.000416281
0.000420111
0.000430844
0.000457468
0.000509589
0.000573247
0.000636275
0.000686529
0.000714867
0.000715801
0.000684401
0.000612348
0.00048104
0.000255715
0.000256113
0.000484376
0.00062076
0.000701383
0.000746069
0.000763779
0.000758419
0.000731179
0.000682688
0.000616754
0.000545777
0.000487834
0.000444876
0.000424473
0.000416594
0.000414069
0.00041321
0.00041289
0.000412873
0.000413167
0.00041401
0.000416518
0.000424363
0.000444663
0.000487183
0.000543552
0.000610646
0.00066883
0.000703887
0.000709405
0.000680879
0.000610568
0.000480324
0.000255639
0.000256114
0.000484197
0.000620223
0.000700224
0.000743791
0.000759412
0.000750074
0.000715218
0.000652643
0.000564167
0.00047564
0.000440827
0.000421867
0.000414518
0.000411519
0.000411515
0.000411563
0.000411497
0.000411482
0.00041152
0.000411441
0.000411403
0.000414355
0.000421656
0.000440397
0.000473874
0.000558458
0.00063884
0.000687816
0.000700968
0.00067653
0.000608447
0.00047948
0.000255537
0.000256103
0.000483946
0.000619574
0.000698977
0.000741542
0.000755232
0.000741717
0.000697012
0.000609921
0.000462915
0.000309627
0.000351646
0.000389005
0.000403471
0.000406638
0.000409957
0.000411044
0.000411227
0.000411206
0.000410971
0.000409791
0.000406298
0.000402924
0.000388378
0.000351362
0.000308801
0.000458123
0.000595985
0.00066922
0.000692375
0.000672374
0.000606463
0.000478687
0.000255446
0.000256065
0.000483508
0.000618651
0.000697561
0.000739606
0.000752513
0.000737043
0.000685808
0.000573767
0.000336564
0.00027648
0.000365645
0.000394912
0.000402789
0.000405612
0.000406516
0.000406719
0.000406666
0.000406311
0.000405095
0.00040164
0.00039277
0.000362541
0.000274202
0.000332868
0.000558867
0.000657096
0.000687361
0.000669864
0.000605139
0.00047811
0.000255405
0.000255933
0.00048254
0.000616895
0.000695334
0.000737521
0.00075168
0.000739701
0.000697753
0.000614563
0.000472144
0.00031721
0.000373909
0.000413519
0.000424957
0.00042709
0.000427239
0.000427278
0.000427264
0.000427163
0.000426856
0.000426056
0.000424171
0.000418796
0.000403133
0.000362709
0.000310859
0.000460278
0.000595474
0.00066723
0.000689688
0.000669697
0.000604377
0.00047757
0.000255335
0.000255571
0.000480289
0.000613049
0.000690581
0.000733021
0.000749385
0.000743155
0.000714156
0.000660304
0.000582946
0.000504919
0.00048246
0.000467376
0.000452006
0.00044339
0.000439845
0.000438656
0.000438284
0.000438133
0.000437989
0.00043782
0.000437932
0.000439249
0.000443694
0.000455344
0.00048045
0.000559894
0.000635546
0.000681475
0.00069324
0.000669018
0.000602547
0.000476181
0.000255108
0.000254675
0.000475323
0.000604858
0.000680346
0.00072234
0.000740552
0.000739619
0.000721305
0.000686328
0.000637424
0.000583764
0.00053976
0.000498745
0.000463463
0.000446045
0.000439357
0.00043713
0.000436457
0.000436274
0.000436295
0.000436695
0.000438436
0.000444389
0.000461155
0.000497971
0.000546359
0.000605914
0.000657301
0.000687598
0.000691102
0.000663488
0.000596771
0.000472252
0.000254364
0.000252644
0.000465168
0.000588675
0.000660138
0.000700224
0.00071902
0.000721753
0.000710917
0.00068766
0.000653353
0.00061114
0.000565591
0.000518561
0.00047759
0.000457026
0.000448922
0.000446141
0.000445289
0.000445085
0.000445207
0.000445937
0.000448531
0.000456458
0.0004772
0.000519563
0.000570068
0.000619595
0.000658233
0.000678812
0.000676913
0.000647844
0.000582967
0.000463106
0.00025247
0.000248307
0.000445641
0.000558702
0.000623212
0.000659309
0.000676989
0.00068159
0.000675772
0.000660615
0.000636644
0.000604848
0.000567414
0.000527972
0.000493776
0.000475028
0.000467034
0.000464079
0.000463117
0.000462896
0.000463084
0.000464001
0.0004669
0.000474886
0.000493781
0.000528749
0.000569459
0.000607303
0.000635231
0.000648409
0.000643237
0.000615058
0.000555113
0.000444451
0.000248239
0.000239492
0.000409456
0.000505198
0.000558626
0.00058808
0.00060274
0.000607541
0.000604957
0.0005959
0.000580573
0.000559262
0.000533265
0.000505718
0.000482041
0.000468057
0.000461565
0.00045904
0.000458197
0.000458005
0.000458183
0.000459008
0.000461514
0.000468016
0.000482119
0.000506109
0.000533983
0.000559432
0.000577517
0.000584837
0.000578437
0.000554013
0.000503343
0.000408937
0.000239505
0.000222616
0.00034259
0.000409523
0.000445739
0.000465101
0.000474638
0.000478094
0.000477327
0.000473036
0.00046525
0.000453929
0.000439704
0.000424455
0.000411256
0.00040307
0.000399053
0.000397408
0.00039683
0.000396697
0.000396834
0.000397412
0.000399059
0.000403086
0.000411326
0.000424631
0.000439927
0.000453657
0.000463003
0.000466028
0.000460757
0.000443871
0.00040891
0.000342497
0.000222666
0.000196547
0.000222668
0.000239628
0.000248515
0.000252911
0.000254954
0.000255746
0.000255785
0.000255221
0.000254017
0.000252197
0.000249779
0.000247036
0.000244556
0.000242969
0.000242154
0.000241782
0.00024161
0.000241552
0.000241617
0.000241789
0.000242159
0.00024297
0.000244556
0.000247041
0.000249782
0.000252121
0.000253654
0.000253971
0.000252574
0.00024849
0.000239711
0.000222751
0.000196594
0.000284181
0.000374554
0.000431896
0.000463613
0.000480615
0.000489354
0.000493551
0.000495337
0.0004959
0.000495882
0.000495626
0.000495319
0.000495053
0.00049486
0.000494734
0.000494652
0.000494601
0.000494575
0.000494574
0.000494596
0.000494643
0.000494718
0.000494827
0.000494971
0.000495111
0.000495102
0.00049461
0.000492968
0.000488941
0.000480358
0.000463475
0.000431837
0.000374539
0.000284192
0.000374562
0.000725457
0.000891866
0.000985556
0.00103849
0.00106732
0.00108196
0.00108844
0.00109045
0.00109016
0.0010889
0.00108742
0.00108615
0.00108523
0.00108464
0.00108427
0.00108405
0.00108395
0.00108395
0.00108405
0.00108426
0.0010846
0.00108511
0.0010858
0.0010865
0.00108663
0.00108492
0.00107906
0.0010652
0.00103708
0.000984728
0.000891433
0.000725266
0.00037455
0.000431937
0.000891947
0.00111204
0.00123981
0.00131432
0.00135608
0.00137764
0.00138699
0.00138926
0.00138776
0.00138466
0.00138136
0.00137862
0.00137672
0.00137553
0.00137481
0.0013744
0.0013742
0.00137421
0.0013744
0.00137479
0.00137546
0.00137649
0.00137798
0.0013797
0.00138072
0.00137899
0.00137099
0.00135113
0.00131101
0.00123784
0.00111101
0.000891513
0.000431894
0.000463691
0.000985716
0.00123991
0.00139077
0.0014805
0.00153141
0.00155735
0.00156747
0.00156795
0.00156313
0.00155622
0.00154946
0.00154412
0.00154056
0.00153842
0.00153714
0.00153639
0.00153604
0.00153605
0.00153639
0.00153712
0.00153831
0.00154022
0.00154318
0.00154709
0.00155072
0.0015512
0.00154371
0.00152118
0.0014736
0.00138659
0.0012377
0.000984754
0.000463564
0.000480732
0.00103873
0.00131457
0.0014807
0.00158051
0.00163684
0.00166406
0.00167182
0.00166706
0.00165528
0.00164117
0.00162836
0.00161875
0.00161269
0.00160925
0.00160717
0.00160591
0.00160531
0.00160531
0.00160591
0.00160714
0.00160912
0.00161227
0.00161758
0.00162543
0.0016344
0.00164076
0.001638
0.0016173
0.00156728
0.00147263
0.00131019
0.00103677
0.000480411
0.000489513
0.0010677
0.00135659
0.00153205
0.00163745
0.00169543
0.0017201
0.00172107
0.00170575
0.00168114
0.00165452
0.00163208
0.00161628
0.00160712
0.00160233
0.00159927
0.0015973
0.00159634
0.00159635
0.0015973
0.00159925
0.0016022
0.00160667
0.00161502
0.00162883
0.00164689
0.00166474
0.00167311
0.00166047
0.0016139
0.00151765
0.0013487
0.00106406
0.000488838
0.000493762
0.00108256
0.00137866
0.00155894
0.00166615
0.00172206
0.00173979
0.00172806
0.00169422
0.00164735
0.00160003
0.00156441
0.00154162
0.00153002
0.00152485
0.00152089
0.00151806
0.00151667
0.00151667
0.00151807
0.00152088
0.00152475
0.00152962
0.0015404
0.00156112
0.00159203
0.00162979
0.00165914
0.0016632
0.00162709
0.00153521
0.0013656
0.00107643
0.000492524
0.000495626
0.00108945
0.00138897
0.00157089
0.00167696
0.00172752
0.00173376
0.00170205
0.00163792
0.00155255
0.00147073
0.00142296
0.00139823
0.00138873
0.00138616
0.00138204
0.00137859
0.00137689
0.00137689
0.00137861
0.00138205
0.0013861
0.00138844
0.00139723
0.00141998
0.00146292
0.00153455
0.00160128
0.00163429
0.00161671
0.00153483
0.00136919
0.00108005
0.000493624
0.000496317
0.00109215
0.00139284
0.00157449
0.00167763
0.00172073
0.00171192
0.00165259
0.00154127
0.00138501
0.00123406
0.00119958
0.00119812
0.0012034
0.00120838
0.00120662
0.00120406
0.00120272
0.00120273
0.00120408
0.00120665
0.00120839
0.00120326
0.0011975
0.00119739
0.00122725
0.00136726
0.00150367
0.0015828
0.00159191
0.00152432
0.00136556
0.00107911
0.00049344
0.000496494
0.0010929
0.00139374
0.00157439
0.0016743
0.00171001
0.00168588
0.00159527
0.00141779
0.00111479
0.000685331
0.0008728
0.000971994
0.00101296
0.00102761
0.00103339
0.00103437
0.00103429
0.0010343
0.00103439
0.00103343
0.00102766
0.00101298
0.000971861
0.000872093
0.000681677
0.00109821
0.00137953
0.00152396
0.00156388
0.00151128
0.00135975
0.00107663
0.000492826
0.000496502
0.00109299
0.00139377
0.00157372
0.00167165
0.00170296
0.0016696
0.00155832
0.00132353
0.00073178
0.000528702
0.000784204
0.000855225
0.00087872
0.000885684
0.000887581
0.000888009
0.000888015
0.0008876
0.000885718
0.000878771
0.000855294
0.000784278
0.000528646
0.000720297
0.00128501
0.00148611
0.00154652
0.00150302
0.00135584
0.00107479
0.000492379
0.000496498
0.00109305
0.00139401
0.00157409
0.00167215
0.00170393
0.0016729
0.00157138
0.00137792
0.00105238
0.000620678
0.000737287
0.000824574
0.000861862
0.000877246
0.00087896
0.000878991
0.000878925
0.000878923
0.000878986
0.000878951
0.000877227
0.000861814
0.000824403
0.000736514
0.000616939
0.00103571
0.00133929
0.00149933
0.00154977
0.00150373
0.00135591
0.00107467
0.000492376
0.000496529
0.00109329
0.00139474
0.00157569
0.00167544
0.00171081
0.00168785
0.00160548
0.00145929
0.00125308
0.00103798
0.000929636
0.000869996
0.000847568
0.000840624
0.000839316
0.000839046
0.00083893
0.000838927
0.000839038
0.000839296
0.000840568
0.000847405
0.000869449
0.000927677
0.00103143
0.00123523
0.00142088
0.00153395
0.00156514
0.00151084
0.00135924
0.0010761
0.000492755
0.000496583
0.00109366
0.00139575
0.00157791
0.00167992
0.00171959
0.00170485
0.00163815
0.00152077
0.00136052
0.00118405
0.00103259
0.000915599
0.000859128
0.000838151
0.000831775
0.000829999
0.000829535
0.000829532
0.000829988
0.000831745
0.00083807
0.000858893
0.000914854
0.00103014
0.00117671
0.00134222
0.00148245
0.00156699
0.00158253
0.0015199
0.00136384
0.00107822
0.000493283
0.000496637
0.00109405
0.00139678
0.00158009
0.00168416
0.00172743
0.00171879
0.00166198
0.00155925
0.00141662
0.00125007
0.00108484
0.000945362
0.000872697
0.000844055
0.00083454
0.000831731
0.000831013
0.00083101
0.000831719
0.000834508
0.000843965
0.000872434
0.00094454
0.0010822
0.00124241
0.00139807
0.00152091
0.00159095
0.00159667
0.0015279
0.00136814
0.00108027
0.000493763
0.000496674
0.00109436
0.0013976
0.00158181
0.00168742
0.00173317
0.00172837
0.00167701
0.00158112
0.00144509
0.00128091
0.00111007
0.000961255
0.000881269
0.00084885
0.000837764
0.00083443
0.000833581
0.000833578
0.000834419
0.000837731
0.000848757
0.000880997
0.000960404
0.00110735
0.00127309
0.00142638
0.00154269
0.00160597
0.00160628
0.00153367
0.00137135
0.00108183
0.000494105
0.000496689
0.00109457
0.00139815
0.00158294
0.0016895
0.00173673
0.00173402
0.00168536
0.00159243
0.00145874
0.00129485
0.00112143
0.000968667
0.000885518
0.000851399
0.000839604
0.000836032
0.00083512
0.000835117
0.00083602
0.000839571
0.000851305
0.000885241
0.000967807
0.00111869
0.00128695
0.00143993
0.00155391
0.00161426
0.00161189
0.00153718
0.00137336
0.00108281
0.0004943
0.000496688
0.00109467
0.00139842
0.0015835
0.00169051
0.00173841
0.00173661
0.00168904
0.00159719
0.0014642
0.00130022
0.00112572
0.000971509
0.000887173
0.000852404
0.000840334
0.000836669
0.000835729
0.000835725
0.000836656
0.000840301
0.000852308
0.000886892
0.000970642
0.00112298
0.00129227
0.00144534
0.00155861
0.00161789
0.00161443
0.00153881
0.0013743
0.00108326
0.000494376
0.000496675
0.00109467
0.00139843
0.00158351
0.00169054
0.00173845
0.00173666
0.00168911
0.00159728
0.00146432
0.00130035
0.00112585
0.000971631
0.00088725
0.000852442
0.000840353
0.000836678
0.000835732
0.000835728
0.000836665
0.000840319
0.000852347
0.000886971
0.000970765
0.00112311
0.0012924
0.00144545
0.0015587
0.00161796
0.00161448
0.00153885
0.00137432
0.00108327
0.000494361
0.000496657
0.00109457
0.00139817
0.00158298
0.00168957
0.00173684
0.00173418
0.00168558
0.00159272
0.00145909
0.00129525
0.00112182
0.000969055
0.00088577
0.000851536
0.000839681
0.000836082
0.000835156
0.000835151
0.00083607
0.000839649
0.000851445
0.0008855
0.000968206
0.00111911
0.00128735
0.00144028
0.0015542
0.00161448
0.00161204
0.00153728
0.00137341
0.00108282
0.00049426
0.000496629
0.00109435
0.00139762
0.00158185
0.0016875
0.00173331
0.00172859
0.00167735
0.0015816
0.00144571
0.00128164
0.00111085
0.000961982
0.000881756
0.00084914
0.000837955
0.000834581
0.000833713
0.000833711
0.000834573
0.000837931
0.000849062
0.000881507
0.000961171
0.00110818
0.00127384
0.00142701
0.00154315
0.00160629
0.00160648
0.00153379
0.00137142
0.00108184
0.000494051
0.000496582
0.00109401
0.00139675
0.00158007
0.00168417
0.00172749
0.00171897
0.00166235
0.00155988
0.00141755
0.00125125
0.00108614
0.000946515
0.000873444
0.000844509
0.000834851
0.000831989
0.000831255
0.000831256
0.000831989
0.00083484
0.000844451
0.000873231
0.000945773
0.0010836
0.00124364
0.001399
0.00152148
0.00159125
0.0015968
0.00152795
0.00136815
0.00108025
0.000493698
0.000496509
0.00109353
0.00139556
0.00157766
0.00167963
0.00171932
0.00170471
0.00163829
0.00152137
0.00136175
0.00118582
0.00103454
0.00091701
0.000859794
0.000838365
0.000831766
0.00082992
0.000829444
0.000829447
0.000829928
0.000831764
0.000838315
0.000859602
0.000916367
0.00103226
0.00117858
0.00134342
0.00148287
0.0015669
0.00158224
0.00151961
0.00136363
0.00107809
0.000493192
0.000496404
0.00109293
0.00139411
0.0015748
0.00167433
0.00170958
0.00168668
0.00160467
0.00145929
0.00125441
0.00104047
0.000931968
0.000870304
0.000846271
0.000838501
0.000836774
0.000836383
0.00083625
0.000836251
0.000836377
0.000836726
0.00083834
0.000845914
0.00086962
0.000930167
0.00103407
0.00123638
0.00142023
0.00153245
0.00156357
0.00150957
0.00135839
0.00107563
0.000492593
0.000496244
0.00109209
0.00139233
0.0015717
0.0016691
0.00170039
0.0016691
0.00156778
0.00137548
0.00105296
0.000622424
0.000736442
0.000817717
0.000851531
0.000864952
0.000865869
0.000865727
0.000865652
0.000865636
0.000865641
0.000865578
0.000864205
0.000850098
0.000815798
0.000735023
0.000618593
0.00103549
0.00133479
0.00149387
0.00154496
0.00150013
0.00135355
0.00107337
0.000492038
0.000495925
0.00109064
0.00138973
0.00156803
0.00166444
0.00169439
0.00165987
0.00154776
0.00131312
0.000725098
0.000509297
0.000748473
0.00081071
0.000828194
0.000833706
0.000835521
0.000836007
0.000835902
0.00083507
0.000832431
0.000825132
0.000804694
0.000739236
0.000501617
0.000708715
0.00126822
0.00147094
0.00153461
0.00149448
0.00135027
0.00107171
0.000491637
0.000495162
0.00108752
0.00138479
0.00156206
0.00165887
0.00169166
0.0016645
0.00157035
0.00138846
0.00108007
0.000649978
0.000794133
0.000870358
0.000888815
0.000888068
0.000890715
0.000891933
0.000892212
0.000891973
0.000890881
0.000887605
0.000880134
0.000871712
0.000840728
0.000759357
0.000625366
0.00104114
0.00133401
0.00148941
0.00153858
0.00149344
0.00134798
0.00106994
0.000491213
0.000493316
0.00108058
0.00137429
0.00154963
0.00164713
0.00168489
0.00167017
0.00160295
0.00147951
0.00130337
0.00112013
0.00104003
0.000989003
0.000943142
0.00091713
0.00090806
0.000905309
0.000904476
0.000904089
0.000903562
0.000902642
0.000902342
0.000908449
0.00092548
0.00096718
0.0010518
0.00124028
0.00141288
0.00151754
0.00154483
0.00149072
0.00134271
0.00106562
0.000490032
0.000489156
0.00106599
0.00135276
0.00152381
0.00162057
0.00166262
0.00165962
0.00161542
0.00153177
0.00141461
0.00128331
0.00116734
0.00105998
0.000965714
0.000917669
0.000899362
0.000893354
0.000891556
0.000891066
0.0008911
0.000892131
0.000896929
0.000914003
0.000961286
0.00106107
0.00118795
0.00133358
0.00145612
0.00152817
0.00153787
0.0014763
0.00132753
0.00105421
0.000486665
0.000480491
0.00103745
0.00131168
0.00147438
0.00156737
0.00161109
0.0016165
0.00158898
0.00153118
0.00144624
0.00134108
0.00122596
0.00110718
0.00100072
0.000944913
0.000922596
0.00091488
0.000912486
0.000911917
0.000912283
0.000914373
0.000921673
0.000943759
0.00100049
0.00111134
0.0012386
0.00136077
0.00145505
0.00150575
0.00150341
0.00143823
0.00129288
0.00102888
0.000478777
0.000463561
0.000984883
0.00123805
0.00138656
0.00147149
0.00151332
0.00152334
0.00150735
0.00146788
0.00140632
0.00132519
0.00122987
0.00112964
0.00104227
0.000992676
0.000970837
0.00096262
0.000959889
0.000959249
0.000959821
0.000962456
0.000970578
0.000992518
0.00104296
0.00113251
0.00123567
0.0013308
0.00140098
0.00143508
0.00142505
0.001361
0.00122516
0.000979211
0.000462521
0.000431897
0.000891494
0.00111106
0.00123749
0.00130904
0.001345
0.00135605
0.00134772
0.00132224
0.00128031
0.00122297
0.00115378
0.0010809
0.00101816
0.000980178
0.000962085
0.000954741
0.000952137
0.000951521
0.000952146
0.000954754
0.000962122
0.000980355
0.00101881
0.00108246
0.001156
0.0012231
0.00127124
0.00129201
0.0012785
0.00122128
0.00110324
0.000888215
0.000431381
0.00037458
0.000725283
0.000891535
0.000984645
0.00103613
0.00106194
0.00107081
0.0010672
0.00105284
0.00102804
0.000993196
0.000950446
0.000905254
0.000866363
0.000841912
0.000829682
0.000824488
0.000822577
0.000822125
0.00082262
0.000824573
0.00082982
0.000842158
0.000866855
0.00090611
0.000951333
0.000992294
0.00102098
0.00103175
0.00101943
0.000976233
0.000887735
0.000723804
0.000374422
0.000284218
0.000374578
0.000431943
0.00046362
0.000480405
0.000488563
0.000491505
0.000490909
0.000487372
0.00048091
0.000471491
0.000459607
0.000446818
0.000435747
0.000428823
0.000425385
0.000423926
0.000423384
0.000423252
0.000423396
0.000423947
0.000425414
0.000428869
0.000435837
0.000446988
0.000459791
0.00047124
0.000479014
0.000481451
0.000476782
0.000461993
0.000431325
0.000374407
0.000284252
0.000315439
0.000449461
0.000534811
0.000583233
0.000610129
0.000624498
0.000631656
0.000634792
0.000635779
0.000635694
0.000635152
0.000634507
0.000633949
0.000633545
0.000633284
0.000633121
0.000633024
0.000632978
0.000632977
0.00063302
0.000633112
0.000633261
0.000633484
0.000633787
0.000634088
0.000634116
0.000633269
0.000630416
0.000623597
0.000609545
0.000582896
0.000534642
0.000449396
0.000315448
0.000449464
0.000913774
0.00113179
0.00125763
0.00133072
0.00137163
0.00139292
0.00140254
0.0014055
0.00140495
0.00140282
0.00140033
0.00139816
0.00139657
0.00139553
0.00139487
0.00139449
0.00139432
0.00139432
0.00139449
0.00139485
0.00139544
0.00139633
0.00139752
0.00139872
0.00139903
0.00139653
0.00138792
0.00136788
0.00132817
0.00125606
0.00113091
0.000913346
0.000449396
0.000534852
0.00113189
0.00141216
0.00157809
0.0016772
0.00173402
0.00176395
0.00177711
0.00178025
0.00177787
0.00177306
0.00176788
0.00176353
0.00176043
0.00175847
0.00175726
0.00175657
0.00175625
0.00175625
0.00175656
0.00175722
0.00175832
0.00176001
0.00176242
0.00176516
0.00176685
0.00176455
0.00175339
0.00172602
0.0016717
0.00157467
0.00141026
0.00113099
0.000534679
0.000583323
0.00125785
0.00157823
0.00177129
0.00188856
0.00195638
0.00199152
0.00200535
0.00200584
0.00199878
0.00198857
0.00197843
0.00197028
0.00196473
0.00196133
0.00195928
0.00195809
0.00195753
0.00195753
0.00195807
0.00195922
0.00196112
0.00196413
0.00196872
0.00197468
0.00198015
0.0019811
0.00197104
0.00194077
0.00187775
0.00176449
0.0015744
0.00125601
0.000582934
0.000610275
0.00133108
0.00167757
0.00188887
0.00201816
0.00209237
0.00212871
0.00213911
0.00213243
0.00211586
0.00209568
0.00207692
0.00206253
0.00205327
0.00204791
0.00204464
0.00204269
0.00204178
0.00204177
0.00204268
0.00204457
0.00204766
0.00205255
0.00206063
0.00207233
0.00208543
0.00209458
0.00209114
0.00206376
0.00199832
0.00187631
0.00167039
0.00132754
0.000609465
0.000624715
0.00137221
0.00173483
0.00195739
0.00209331
0.00216919
0.00220187
0.00220317
0.00218249
0.0021488
0.00211146
0.00207878
0.00205504
0.00204092
0.0020334
0.00202858
0.00202554
0.0020241
0.0020241
0.00202553
0.00202851
0.00203314
0.00204015
0.00205297
0.00207367
0.00209992
0.00212479
0.00213621
0.00211963
0.00205914
0.00193576
0.00172235
0.00136594
0.000623177
0.000631982
0.00139391
0.00176562
0.00199402
0.0021319
0.00220478
0.00222828
0.0022131
0.00216848
0.0021057
0.0020402