/*--------------------------------*- C++ -*----------------------------------*\
| =========                 |                                                 |
| \\      /  F ield         | OpenFOAM: The Open Source CFD Toolbox           |
|  \\    /   O peration     | Version:  2112                                  |
|   \\  /    A nd           | Website:  www.openfoam.com                      |
|    \\/     M anipulation  |                                                 |
\*---------------------------------------------------------------------------*/
FoamFile
{
    version     2.0;
    format      ascii;
    arch        "LSB;label=32;scalar=64";
    class       volScalarField;
    location    "4.5";
    object      nut;
}
// * * * * * * * * * * * * * * * * * * * * * * * * * * * * * * * * * * * * * //

dimensions      [0 2 -1 0 0 0 0];

internalField   nonuniform List<scalar> 
64906
(
3.53717e-05
3.7687e-05
3.91231e-05
3.98597e-05
4.02226e-05
4.0395e-05
4.04723e-05
4.05037e-05
4.05136e-05
4.05137e-05
4.05097e-05
4.05046e-05
4.05005e-05
4.04977e-05
4.04956e-05
4.0494e-05
4.04928e-05
4.04919e-05
4.04916e-05
4.04921e-05
4.04932e-05
4.04946e-05
4.04964e-05
4.04986e-05
4.05011e-05
4.05015e-05
4.04935e-05
4.04649e-05
4.03903e-05
4.02201e-05
3.98586e-05
3.91231e-05
3.7688e-05
3.53727e-05
3.76892e-05
4.68189e-05
5.12341e-05
5.34939e-05
5.46908e-05
5.53136e-05
5.56192e-05
5.57523e-05
5.57952e-05
5.57939e-05
5.57746e-05
5.57516e-05
5.57322e-05
5.57187e-05
5.57105e-05
5.57057e-05
5.5703e-05
5.57017e-05
5.57017e-05
5.57029e-05
5.57056e-05
5.57099e-05
5.57167e-05
5.57263e-05
5.57355e-05
5.57336e-05
5.56957e-05
5.55737e-05
5.52817e-05
5.46715e-05
5.34845e-05
5.12313e-05
4.68196e-05
3.76919e-05
3.91279e-05
5.12369e-05
5.6967e-05
5.99628e-05
6.16009e-05
6.24821e-05
6.2925e-05
6.31152e-05
6.31645e-05
6.31412e-05
6.30882e-05
6.30322e-05
6.29871e-05
6.29572e-05
6.29398e-05
6.293e-05
6.29245e-05
6.29221e-05
6.29221e-05
6.29247e-05
6.293e-05
6.29391e-05
6.29539e-05
6.29766e-05
6.30035e-05
6.30171e-05
6.29775e-05
6.28118e-05
6.24001e-05
6.15488e-05
5.99345e-05
5.6955e-05
5.12351e-05
3.91323e-05
3.98665e-05
5.34994e-05
5.99653e-05
6.34092e-05
6.53306e-05
6.63791e-05
6.69015e-05
6.71047e-05
6.71193e-05
6.70332e-05
6.69087e-05
6.67891e-05
6.66968e-05
6.66378e-05
6.66045e-05
6.65853e-05
6.65743e-05
6.65692e-05
6.65693e-05
6.65745e-05
6.65854e-05
6.66033e-05
6.66329e-05
6.66815e-05
6.67484e-05
6.68105e-05
6.68133e-05
6.66597e-05
6.62009e-05
6.52138e-05
6.33421e-05
5.9933e-05
5.34896e-05
3.98714e-05
4.02307e-05
5.46985e-05
6.16065e-05
6.53347e-05
6.74361e-05
6.85792e-05
6.91206e-05
6.9276e-05
6.91891e-05
6.89687e-05
6.87059e-05
6.84719e-05
6.82998e-05
6.81961e-05
6.81404e-05
6.81073e-05
6.80871e-05
6.80775e-05
6.80776e-05
6.80874e-05
6.81074e-05
6.81391e-05
6.819e-05
6.8281e-05
6.84218e-05
6.85858e-05
6.87035e-05
6.86447e-05
6.82272e-05
6.72026e-05
6.51964e-05
6.15357e-05
5.46721e-05
4.02343e-05
4.04036e-05
5.53236e-05
6.24925e-05
6.6391e-05
6.859e-05
6.97576e-05
7.02458e-05
7.0267e-05
6.99714e-05
6.94959e-05
6.89838e-05
6.8563e-05
6.8272e-05
6.81116e-05
6.80339e-05
6.79828e-05
6.79487e-05
6.79321e-05
6.79323e-05
6.79492e-05
6.79831e-05
6.80326e-05
6.81053e-05
6.82515e-05
6.85073e-05
6.88488e-05
6.91975e-05
6.93635e-05
6.91105e-05
6.81613e-05
6.61344e-05
6.23567e-05
5.52675e-05
4.04034e-05
4.04813e-05
5.56325e-05
6.29443e-05
6.69298e-05
6.91574e-05
7.02806e-05
7.06302e-05
7.03972e-05
6.97239e-05
6.87843e-05
6.78366e-05
6.71559e-05
6.67289e-05
6.65277e-05
6.64498e-05
6.63807e-05
6.63282e-05
6.63024e-05
6.63027e-05
6.63288e-05
6.63813e-05
6.64492e-05
6.65223e-05
6.67093e-05
6.70997e-05
6.76947e-05
6.84647e-05
6.90706e-05
6.91627e-05
6.8428e-05
6.64942e-05
6.27104e-05
5.55304e-05
4.04737e-05
4.05135e-05
5.57718e-05
6.31509e-05
6.71649e-05
6.93673e-05
7.03834e-05
7.05021e-05
6.9857e-05
6.85347e-05
6.67322e-05
6.49803e-05
6.40929e-05
6.36527e-05
6.3517e-05
6.35103e-05
6.34341e-05
6.33654e-05
6.33323e-05
6.33326e-05
6.33662e-05
6.34352e-05
6.35106e-05
6.35137e-05
6.36372e-05
6.40424e-05
6.48413e-05
6.64025e-05
6.78493e-05
6.85648e-05
6.82161e-05
6.64875e-05
6.27865e-05
5.56075e-05
4.04945e-05
4.05251e-05
5.58256e-05
6.3228e-05
6.72353e-05
6.93793e-05
7.02465e-05
7.00562e-05
6.88172e-05
6.64091e-05
6.28235e-05
5.91834e-05
5.89054e-05
5.91167e-05
5.93657e-05
5.95628e-05
5.95229e-05
5.94661e-05
5.94394e-05
5.94398e-05
5.94671e-05
5.95244e-05
5.95644e-05
5.93653e-05
5.91084e-05
5.88695e-05
5.90635e-05
6.24966e-05
6.56996e-05
6.74792e-05
6.7708e-05
6.62761e-05
6.27156e-05
5.55912e-05
4.04921e-05
4.05276e-05
5.58413e-05
6.32469e-05
6.72351e-05
6.93161e-05
7.0035e-05
6.95225e-05
6.75732e-05
6.34848e-05
5.57353e-05
4.57111e-05
5.05539e-05
5.35887e-05
5.47982e-05
5.52965e-05
5.53797e-05
5.53871e-05
5.53857e-05
5.53861e-05
5.53882e-05
5.53815e-05
5.5299e-05
5.48008e-05
5.35897e-05
5.05473e-05
4.5654e-05
5.54363e-05
6.27565e-05
6.61971e-05
6.71282e-05
6.60148e-05
6.26018e-05
5.55446e-05
4.04815e-05
4.05272e-05
5.58447e-05
6.32502e-05
6.72262e-05
6.92704e-05
6.99029e-05
6.91941e-05
6.67423e-05
6.10175e-05
4.66391e-05
4.24804e-05
4.91087e-05
5.11873e-05
5.18175e-05
5.20398e-05
5.21089e-05
5.21263e-05
5.21265e-05
5.21096e-05
5.20411e-05
5.18197e-05
5.11906e-05
4.91136e-05
4.2483e-05
4.6454e-05
6.02884e-05
6.53451e-05
6.67751e-05
6.58567e-05
6.25302e-05
5.55131e-05
4.0473e-05
4.05259e-05
5.58478e-05
6.32585e-05
6.72399e-05
6.92915e-05
6.99435e-05
6.93074e-05
6.71513e-05
6.27417e-05
5.45156e-05
4.44998e-05
4.7354e-05
4.99244e-05
5.09134e-05
5.1155e-05
5.13957e-05
5.1477e-05
5.14935e-05
5.14935e-05
5.1477e-05
5.13957e-05
5.11547e-05
5.09129e-05
4.99221e-05
4.73395e-05
4.44342e-05
5.42075e-05
6.20013e-05
6.57578e-05
6.68894e-05
6.58938e-05
6.25443e-05
5.55181e-05
4.04704e-05
4.05252e-05
5.58539e-05
6.32761e-05
6.72774e-05
6.93671e-05
7.01004e-05
6.9653e-05
6.7973e-05
6.48559e-05
6.01842e-05
5.51187e-05
5.29611e-05
5.17976e-05
5.13568e-05
5.11828e-05
5.12014e-05
5.12156e-05
5.12166e-05
5.12164e-05
5.1215e-05
5.12003e-05
5.11805e-05
5.1352e-05
5.17852e-05
5.29218e-05
5.49933e-05
5.98467e-05
6.41242e-05
6.65968e-05
6.72502e-05
6.60611e-05
6.26246e-05
5.55533e-05
4.04764e-05
4.05247e-05
5.58619e-05
6.32988e-05
6.73258e-05
6.94637e-05
7.02896e-05
7.00253e-05
6.87126e-05
6.63232e-05
6.29392e-05
5.90884e-05
5.57598e-05
5.31774e-05
5.19196e-05
5.14321e-05
5.12827e-05
5.12367e-05
5.12219e-05
5.12215e-05
5.12356e-05
5.12806e-05
5.14285e-05
5.19125e-05
5.31605e-05
5.57122e-05
5.89485e-05
6.25953e-05
6.55991e-05
6.73506e-05
6.76373e-05
6.62623e-05
6.2728e-05
5.56004e-05
4.04843e-05
4.05243e-05
5.58695e-05
6.33205e-05
6.73716e-05
6.9552e-05
7.04534e-05
7.03201e-05
6.92288e-05
6.71882e-05
6.42606e-05
6.0716e-05
5.70666e-05
5.39582e-05
5.23163e-05
5.1645e-05
5.14078e-05
5.1328e-05
5.13026e-05
5.1302e-05
5.13264e-05
5.14051e-05
5.16407e-05
5.23082e-05
5.39397e-05
5.7016e-05
6.05712e-05
6.39144e-05
6.64676e-05
6.78747e-05
6.79415e-05
6.64341e-05
6.28209e-05
5.56436e-05
4.04904e-05
4.05235e-05
5.58752e-05
6.33375e-05
6.7407e-05
6.96185e-05
7.05709e-05
7.0518e-05
6.95453e-05
6.76617e-05
6.48988e-05
6.14329e-05
5.76642e-05
5.43475e-05
5.2536e-05
5.17737e-05
5.14947e-05
5.13978e-05
5.13654e-05
5.13646e-05
5.13957e-05
5.14916e-05
5.1769e-05
5.25275e-05
5.43284e-05
5.76121e-05
6.12859e-05
6.45509e-05
6.69416e-05
6.81941e-05
6.81434e-05
6.65553e-05
6.28887e-05
5.56751e-05
4.04938e-05
4.05224e-05
5.58786e-05
6.33486e-05
6.743e-05
6.96606e-05
7.06427e-05
7.0633e-05
6.97179e-05
6.79008e-05
6.51958e-05
6.17468e-05
5.7926e-05
5.45227e-05
5.26392e-05
5.18362e-05
5.15383e-05
5.14328e-05
5.13956e-05
5.13945e-05
5.14303e-05
5.15349e-05
5.18312e-05
5.26305e-05
5.45033e-05
5.78721e-05
6.15985e-05
6.48465e-05
6.71801e-05
6.83671e-05
6.82595e-05
6.6628e-05
6.29304e-05
5.5694e-05
4.04946e-05
4.05212e-05
5.58798e-05
6.33541e-05
6.74414e-05
6.9681e-05
7.06765e-05
7.06854e-05
6.97933e-05
6.80004e-05
6.53135e-05
6.18663e-05
5.80257e-05
5.45892e-05
5.26788e-05
5.186e-05
5.15545e-05
5.14448e-05
5.1404e-05
5.14026e-05
5.14419e-05
5.15508e-05
5.18549e-05
5.26698e-05
5.45695e-05
5.79701e-05
6.17174e-05
6.49635e-05
6.72791e-05
6.84422e-05
6.83119e-05
6.66617e-05
6.295e-05
5.57024e-05
4.04937e-05
4.05201e-05
5.58794e-05
6.33545e-05
6.74421e-05
6.96821e-05
7.0678e-05
7.06874e-05
6.9796e-05
6.80038e-05
6.53177e-05
6.18712e-05
5.80308e-05
5.45933e-05
5.26813e-05
5.18611e-05
5.15543e-05
5.14432e-05
5.14004e-05
5.13986e-05
5.144e-05
5.15504e-05
5.18557e-05
5.26723e-05
5.45736e-05
5.79749e-05
6.17224e-05
6.49679e-05
6.72827e-05
6.84451e-05
6.8314e-05
6.66633e-05
6.2951e-05
5.57022e-05
4.04919e-05
4.05198e-05
5.58776e-05
6.33497e-05
6.74321e-05
6.96637e-05
7.0647e-05
7.0639e-05
6.97259e-05
6.79112e-05
6.52088e-05
6.1762e-05
5.79419e-05
5.45355e-05
5.26472e-05
5.18396e-05
5.15381e-05
5.14286e-05
5.13859e-05
5.13839e-05
5.14252e-05
5.1534e-05
5.18342e-05
5.26383e-05
5.45162e-05
5.78871e-05
6.16144e-05
6.48602e-05
6.71911e-05
6.83755e-05
6.82658e-05
6.66325e-05
6.29332e-05
5.56937e-05
4.04902e-05
4.05202e-05
5.58741e-05
6.33391e-05
6.74101e-05
6.96231e-05
7.05775e-05
7.05273e-05
6.95583e-05
6.76793e-05
6.49216e-05
6.14606e-05
5.76909e-05
5.43706e-05
5.25506e-05
5.17804e-05
5.14951e-05
5.13919e-05
5.13526e-05
5.13508e-05
5.13885e-05
5.1491e-05
5.17751e-05
5.25421e-05
5.43522e-05
5.76394e-05
6.13153e-05
6.45751e-05
6.69602e-05
6.82078e-05
6.81533e-05
6.65623e-05
6.28932e-05
5.56752e-05
4.04884e-05
4.05207e-05
5.58683e-05
6.33219e-05
6.73746e-05
6.95567e-05
7.04606e-05
7.03311e-05
6.92456e-05
6.7213e-05
6.42952e-05
6.07608e-05
5.71093e-05
5.39941e-05
5.23379e-05
5.16547e-05
5.14082e-05
5.13204e-05
5.12881e-05
5.12867e-05
5.13172e-05
5.14042e-05
5.16497e-05
5.23302e-05
5.39774e-05
5.70614e-05
6.06195e-05
6.39515e-05
6.64936e-05
6.78921e-05
6.79531e-05
6.64421e-05
6.2826e-05
5.56441e-05
4.04845e-05
4.0521e-05
5.58598e-05
6.32982e-05
6.73259e-05
6.94647e-05
7.0293e-05
7.00334e-05
6.87292e-05
6.63537e-05
6.29892e-05
5.9158e-05
5.58266e-05
5.3224e-05
5.19406e-05
5.14351e-05
5.12723e-05
5.12172e-05
5.11967e-05
5.11956e-05
5.12144e-05
5.12685e-05
5.14301e-05
5.19334e-05
5.32098e-05
5.57848e-05
5.90245e-05
6.26492e-05
6.56297e-05
6.73659e-05
6.7645e-05
6.62668e-05
6.27309e-05
5.56001e-05
4.04779e-05
4.05209e-05
5.58483e-05
6.32688e-05
6.72675e-05
6.93554e-05
7.0089e-05
6.96459e-05
6.79767e-05
6.48823e-05
6.02489e-05
5.52254e-05
5.30573e-05
5.18236e-05
5.13331e-05
5.11307e-05
5.11296e-05
5.11333e-05
5.11294e-05
5.11285e-05
5.11304e-05
5.11246e-05
5.1123e-05
5.13222e-05
5.18094e-05
5.30278e-05
5.51115e-05
5.99162e-05
6.41442e-05
6.65918e-05
6.72384e-05
6.60508e-05
6.26181e-05
5.55485e-05
4.0469e-05
4.05198e-05
5.58323e-05
6.32331e-05
6.72042e-05
6.9247e-05
6.98933e-05
6.92566e-05
6.71106e-05
6.27345e-05
5.45894e-05
4.45721e-05
4.73688e-05
4.97701e-05
5.06705e-05
5.08581e-05
5.10706e-05
5.1141e-05
5.1153e-05
5.11516e-05
5.11361e-05
5.10596e-05
5.08355e-05
5.06341e-05
4.97275e-05
4.73474e-05
4.4506e-05
5.42807e-05
6.19634e-05
6.5687e-05
6.68229e-05
6.58441e-05
6.25125e-05
5.55e-05
4.04614e-05
4.05163e-05
5.58044e-05
6.3182e-05
6.71314e-05
6.91518e-05
6.97635e-05
6.90363e-05
6.65711e-05
6.08545e-05
4.65513e-05
4.20379e-05
4.8287e-05
5.01701e-05
5.06626e-05
5.08402e-05
5.08976e-05
5.09106e-05
5.09071e-05
5.08841e-05
5.08061e-05
5.05867e-05
5.00275e-05
4.80722e-05
4.18551e-05
4.62734e-05
6.00056e-05
6.5088e-05
6.65774e-05
6.57175e-05
6.24408e-05
5.54642e-05
4.04577e-05
4.05046e-05
5.57438e-05
6.30856e-05
6.70166e-05
6.90467e-05
6.97181e-05
6.91552e-05
6.71444e-05
6.29786e-05
5.51482e-05
4.51347e-05
4.88975e-05
5.13726e-05
5.20547e-05
5.21761e-05
5.21777e-05
5.21775e-05
5.2176e-05
5.21695e-05
5.21505e-05
5.21022e-05
5.19902e-05
5.16619e-05
5.07001e-05
4.81315e-05
4.46562e-05
5.4408e-05
6.19322e-05
6.55823e-05
6.66849e-05
6.57044e-05
6.23972e-05
5.54297e-05
4.04513e-05
4.04733e-05
5.56048e-05
6.28771e-05
6.67745e-05
6.88231e-05
6.95997e-05
6.93054e-05
6.79178e-05
6.52677e-05
6.12681e-05
5.69443e-05
5.55758e-05
5.46299e-05
5.36773e-05
5.31395e-05
5.29156e-05
5.284e-05
5.28162e-05
5.28067e-05
5.2798e-05
5.27888e-05
5.27996e-05
5.28893e-05
5.31852e-05
5.39402e-05
5.54954e-05
5.99871e-05
6.39658e-05
6.62671e-05
6.68472e-05
6.56629e-05
6.22953e-05
5.53432e-05
4.04314e-05
4.03969e-05
5.53019e-05
6.24373e-05
6.62584e-05
6.83007e-05
6.91702e-05
6.91235e-05
6.82411e-05
6.65268e-05
6.40562e-05
6.1228e-05
5.87938e-05
5.64375e-05
5.43399e-05
5.32745e-05
5.2859e-05
5.27195e-05
5.26771e-05
5.26656e-05
5.2667e-05
5.26927e-05
5.28029e-05
5.31755e-05
5.42082e-05
5.6406e-05
5.91691e-05
6.23878e-05
6.50353e-05
6.65498e-05
6.67307e-05
6.53779e-05
6.19833e-05
5.51036e-05
4.03683e-05
4.02261e-05
5.46857e-05
6.15704e-05
6.524e-05
6.72207e-05
6.81324e-05
6.82608e-05
6.77276e-05
6.65741e-05
6.48394e-05
6.26434e-05
6.01893e-05
5.75568e-05
5.51699e-05
5.39322e-05
5.34357e-05
5.32638e-05
5.32108e-05
5.3198e-05
5.32057e-05
5.32513e-05
5.34121e-05
5.3899e-05
5.51499e-05
5.76187e-05
6.04341e-05
6.30757e-05
6.50655e-05
6.61062e-05
6.60242e-05
6.45835e-05
6.12427e-05
5.45496e-05
4.02096e-05
3.98642e-05
5.34957e-05
5.99491e-05
6.33554e-05
6.51945e-05
6.60802e-05
6.6306e-05
6.60073e-05
6.52312e-05
6.39903e-05
6.23138e-05
6.029e-05
5.80919e-05
5.61228e-05
5.50133e-05
5.45323e-05
5.43528e-05
5.4294e-05
5.42804e-05
5.42919e-05
5.43481e-05
5.45244e-05
5.50054e-05
5.61244e-05
5.81374e-05
6.04008e-05
6.24365e-05
6.39025e-05
6.45893e-05
6.43386e-05
6.29032e-05
5.97351e-05
5.34139e-05
3.98571e-05
3.91275e-05
5.12409e-05
5.69671e-05
5.99437e-05
6.15343e-05
6.23152e-05
6.25673e-05
6.24234e-05
6.1929e-05
6.1089e-05
5.99091e-05
5.84466e-05
5.68641e-05
5.54724e-05
5.46334e-05
5.42386e-05
5.40836e-05
5.40315e-05
5.40196e-05
5.40307e-05
5.40817e-05
5.42356e-05
5.46312e-05
5.54776e-05
5.68874e-05
5.84862e-05
5.99137e-05
6.09128e-05
6.13191e-05
6.09856e-05
5.96702e-05
5.68487e-05
5.12024e-05
3.91277e-05
3.76914e-05
4.68267e-05
5.12451e-05
5.35009e-05
5.46791e-05
5.52545e-05
5.54612e-05
5.54106e-05
5.51436e-05
5.46605e-05
5.3956e-05
5.30642e-05
5.2097e-05
5.12481e-05
5.07141e-05
5.04494e-05
5.03401e-05
5.03015e-05
5.02926e-05
5.03018e-05
5.03404e-05
5.04498e-05
5.07154e-05
5.12529e-05
5.21085e-05
5.30776e-05
5.39364e-05
5.4517e-05
5.4709e-05
5.43972e-05
5.33743e-05
5.11998e-05
4.68178e-05
3.76954e-05
3.53749e-05
3.76961e-05
3.91392e-05
3.98816e-05
4.02481e-05
4.04191e-05
4.04853e-05
4.04877e-05
4.04383e-05
4.03344e-05
4.01783e-05
3.99721e-05
3.97384e-05
3.9527e-05
3.93909e-05
3.93206e-05
3.92883e-05
3.92734e-05
3.92684e-05
3.9274e-05
3.9289e-05
3.9321e-05
3.93909e-05
3.9527e-05
3.97389e-05
3.99723e-05
4.01715e-05
4.03027e-05
4.03313e-05
4.02163e-05
3.98776e-05
3.91454e-05
3.77032e-05
3.53793e-05
5.50258e-05
6.32699e-05
6.80094e-05
7.05141e-05
7.18346e-05
7.25122e-05
7.28395e-05
7.298e-05
7.30246e-05
7.30228e-05
7.30019e-05
7.29767e-05
7.29548e-05
7.29389e-05
7.29283e-05
7.29216e-05
7.29174e-05
7.29153e-05
7.29152e-05
7.2917e-05
7.29209e-05
7.2927e-05
7.2936e-05
7.29479e-05
7.29594e-05
7.29589e-05
7.292e-05
7.2791e-05
7.24774e-05
7.18125e-05
7.05019e-05
6.80037e-05
6.32682e-05
5.50269e-05
6.32706e-05
0.000187782
0.000234669
0.000258039
0.000270875
0.000277956
0.000281645
0.000283316
0.000283822
0.000283703
0.000283304
0.00028284
0.000282438
0.000282143
0.000281949
0.000281827
0.000281756
0.000281723
0.000281723
0.000281756
0.000281824
0.000281936
0.000282103
0.000282329
0.00028256
0.000282637
0.00028222
0.000280734
0.000277269
0.000270401
0.000257731
0.000234476
0.000187663
6.32692e-05
6.80127e-05
0.000234698
0.000301009
0.000334852
0.000353805
0.000364447
0.000370042
0.000372507
0.000373078
0.000372592
0.000371635
0.000370603
0.000369737
0.000369123
0.000368734
0.000368496
0.000368358
0.000368294
0.000368294
0.000368357
0.000368489
0.000368708
0.000369045
0.000369526
0.000370082
0.00037044
0.000370039
0.000367968
0.000362868
0.000352705
0.000334144
0.000300585
0.00023447
6.80082e-05
7.05204e-05
0.000258089
0.000334881
0.000374792
0.00039744
0.000410217
0.000416802
0.000419383
0.000419426
0.000418007
0.000415961
0.000413921
0.000412275
0.000411157
0.000410476
0.00041006
0.000409816
0.000409703
0.000409703
0.000409814
0.00041005
0.000410438
0.000411044
0.000411975
0.000413192
0.000414325
0.00041459
0.00041276
0.000407122
0.000395272
0.000373395
0.000334056
0.000257675
7.05085e-05
7.18439e-05
0.000270948
0.000353877
0.000397498
0.000422389
0.000436287
0.000443027
0.000444907
0.000443538
0.000440237
0.000436191
0.000432402
0.000429475
0.000427601
0.000426523
0.000425848
0.000425437
0.000425244
0.000425245
0.000425435
0.000425836
0.000426478
0.000427464
0.000429111
0.000431516
0.000434208
0.000436139
0.000435657
0.000430661
0.000418447
0.000394954
0.000352381
0.000270218
7.18157e-05
7.25248e-05
0.000278066
0.000364601
0.000410412
0.000436472
0.000450589
0.000456568
0.000456667
0.000452553
0.000445833
0.000438301
0.000431693
0.000426825
0.000423963
0.000422474
0.000421442
0.000420774
0.000420459
0.00042046
0.000420774
0.000421432
0.000422429
0.00042382
0.000426432
0.000430716
0.000436085
0.000441232
0.000443751
0.000440923
0.000429753
0.000406088
0.00036206
0.000276834
7.24676e-05
7.28565e-05
0.000281826
0.000370361
0.000417292
0.000443661
0.000457149
0.000461336
0.000458217
0.000449314
0.000436565
0.000423074
0.000412539
0.000405204
0.000401429
0.000399836
0.000398321
0.000397267
0.000396782
0.000396783
0.000397268
0.000398315
0.000399799
0.0004013
0.000404829
0.000411557
0.000420759
0.000431644
0.000439838
0.000441351
0.000432882
0.000410425
0.000366337
0.000279874
7.27539e-05
7.30035e-05
0.000283628
0.000373132
0.000420435
0.00044645
0.00045856
0.000459862
0.000451648
0.000434652
0.000410793
0.000386274
0.000372901
0.000364164
0.000360615
0.000359992
0.000357803
0.000356249
0.000355592
0.000355593
0.000356252
0.000357802
0.000359969
0.000360518
0.000363856
0.000372024
0.000384047
0.000405752
0.000424706
0.000433932
0.000430193
0.000410273
0.000367222
0.000280757
7.284e-05
7.30588e-05
0.000284351
0.00037421
0.000421427
0.000446676
0.000456901
0.000454371
0.000438797
0.00040804
0.000360454
0.000306911
0.000307211
0.000305283
0.000305598
0.000308018
0.000305002
0.000303125
0.000302453
0.000302454
0.000303128
0.000305005
0.00030801
0.000305544
0.00030509
0.000306593
0.000305158
0.000355612
0.000397809
0.000420423
0.000423789
0.000407516
0.00036622
0.000280471
7.28257e-05
7.30734e-05
0.000284554
0.000374471
0.000421422
0.000445832
0.000454148
0.000447523
0.000422743
0.00036911
0.000260216
8.59134e-05
0.00020068
0.00023631
0.000246962
0.00025384
0.000250557
0.000249103
0.000248719
0.00024872
0.000249106
0.000250561
0.000253844
0.00024695
0.000236258
0.000200589
8.56624e-05
0.000256348
0.000358852
0.000403889
0.000416284
0.000404028
0.000364616
0.000279775
7.27776e-05
7.30743e-05
0.000284573
0.000374478
0.000421231
0.000445095
0.000452201
0.000442863
0.000410725
0.000329
8.884e-05
7.52008e-05
0.000184781
0.000205952
0.000209987
0.000212581
0.000213469
0.000213673
0.000213675
0.000213474
0.000212589
0.000209996
0.00020596
0.000184785
7.51954e-05
8.80867e-05
0.000319184
0.000391648
0.000411273
0.000401692
0.000363482
0.000279237
7.27421e-05
7.30741e-05
0.000284579
0.000374531
0.000421291
0.000445126
0.000452286
0.000443685
0.00041587
0.000358127
0.000245206
8.16044e-05
0.000163073
0.000183333
0.00018623
0.000180036
0.000188811
0.00019183
0.000192412
0.000192413
0.000191833
0.000188817
0.000180032
0.000186222
0.000183301
0.000162968
8.1335e-05
0.000241298
0.000347706
0.000396766
0.000412087
0.000401716
0.0003634
0.000279141
7.2741e-05
7.30766e-05
0.000284636
0.000374716
0.000421664
0.000445847
0.000453794
0.00044723
0.000425197
0.00038486
0.000324194
0.000255586
0.00023085
0.000208215
0.000199248
0.000194275
0.000196327
0.000197363
0.000197602
0.000197602
0.000197362
0.000196323
0.000194258
0.000199207
0.00020808
0.000230358
0.000253922
0.000319289
0.000374336
0.000406255
0.000415814
0.000403353
0.000364177
0.000279464
7.27699e-05
7.30811e-05
0.000284733
0.000374987
0.000422211
0.00044688
0.000455755
0.00045108
0.000433048
0.000401151
0.00035636
0.00030529
0.000260939
0.00022312
0.000207469
0.00020175
0.000200653
0.000200503
0.000200482
0.000200482
0.000200503
0.000200649
0.000201734
0.000207418
0.000222939
0.000260288
0.000303258
0.000351231
0.000390663
0.000414278
0.000419865
0.000405486
0.000365314
0.000279987
7.28109e-05
7.30857e-05
0.00028484
0.000375268
0.000422765
0.000447888
0.000457534
0.000454185
0.000438424
0.000410212
0.000370397
0.000322725
0.000273865
0.000230399
0.000211423
0.000204526
0.000202422
0.000201862
0.000201738
0.000201739
0.000201863
0.00020242
0.000204513
0.000211369
0.000230203
0.000273167
0.000320594
0.000365211
0.000399766
0.000419771
0.000423113
0.000407396
0.000366404
0.000280513
7.28487e-05
7.30888e-05
0.000284931
0.000375501
0.000423217
0.000448685
0.000458866
0.00045633
0.00044175
0.000415095
0.0003769
0.000329898
0.000279578
0.000233896
0.000213393
0.00020578
0.000203309
0.00020261
0.000202452
0.000202453
0.000202612
0.000203308
0.000205767
0.000213339
0.000233696
0.000278865
0.000327733
0.000371693
0.000404667
0.000423154
0.000425336
0.000408803
0.000367242
0.000280927
7.28758e-05
7.30903e-05
0.000284994
0.00037566
0.000423522
0.00044921
0.000459713
0.000457621
0.000443611
0.000417594
0.000379925
0.000332996
0.000282068
0.000235491
0.000214323
0.000206367
0.000203747
0.000202998
0.000202829
0.00020283
0.000203
0.000203746
0.000206355
0.00021427
0.000235292
0.000281363
0.000330816
0.000374703
0.000407167
0.000425034
0.000426659
0.00040968
0.000367779
0.000281194
7.28916e-05
7.30903e-05
0.000285025
0.00037574
0.000423673
0.000449467
0.000460119
0.000458221
0.000444439
0.00041865
0.000381133
0.000334178
0.000283001
0.000236106
0.000214686
0.000206594
0.000203917
0.000203151
0.000202978
0.00020298
0.000203153
0.000203917
0.000206582
0.000214632
0.000235906
0.000282305
0.000331991
0.000375903
0.00040822
0.000425866
0.000427268
0.000410095
0.000368036
0.000281322
7.28978e-05
7.30894e-05
0.000285025
0.000375741
0.000423677
0.000449472
0.000460126
0.00045823
0.000444452
0.000418666
0.000381153
0.000334199
0.000283022
0.000236133
0.000214702
0.000206603
0.000203922
0.000203155
0.000202983
0.000202985
0.000203157
0.000203922
0.000206591
0.000214649
0.000235933
0.000282326
0.000332012
0.000375923
0.000408236
0.000425879
0.000427278
0.000410102
0.00036804
0.000281324
7.28966e-05
7.30878e-05
0.000284994
0.000375664
0.000423529
0.000449222
0.00045973
0.000457647
0.000443648
0.000417642
0.000379984
0.000333062
0.000282136
0.000235577
0.000214379
0.000206399
0.000203768
0.000203017
0.00020285
0.000202852
0.00020302
0.000203769
0.000206388
0.000214328
0.000235381
0.000281443
0.000330882
0.000374762
0.000407215
0.00042507
0.000426685
0.000409698
0.00036779
0.000281198
7.28885e-05
7.30853e-05
0.000284928
0.000375501
0.00042322
0.000448692
0.000458881
0.000456358
0.000441798
0.000415169
0.000377002
0.00033002
0.000279732
0.000234062
0.000213506
0.000205854
0.000203366
0.000202665
0.00020251
0.000202512
0.00020267
0.000203369
0.000205846
0.00021346
0.000233874
0.000279037
0.000327857
0.000371792
0.000404738
0.000423198
0.000425363
0.000408819
0.000367251
0.000280928
7.28717e-05
7.30813e-05
0.000284827
0.00037525
0.000422742
0.000447862
0.000457512
0.00045418
0.000438454
0.000410294
0.000370543
0.000322931
0.000274147
0.000230679
0.000211617
0.000204669
0.000202539
0.000201974
0.000201854
0.000201857
0.000201981
0.000202547
0.000204668
0.000211579
0.000230503
0.000273472
0.000320807
0.000365354
0.000399834
0.000419784
0.0004231
0.000407378
0.000366389
0.000280501
7.28436e-05
7.30751e-05
0.00028469
0.000374914
0.000422107
0.000446752
0.000455616
0.000450956
0.000432978
0.000401189
0.000356554
0.000305635
0.000261398
0.000223508
0.000207717
0.000201941
0.000200787
0.000200624
0.000200608
0.000200612
0.000200635
0.000200801
0.000201946
0.000207687
0.000223357
0.000260791
0.000303622
0.000351422
0.000390657
0.000414153
0.000419707
0.00040535
0.000365219
0.000279932
7.28035e-05
7.30664e-05
0.000284517
0.000374502
0.000421358
0.00044546
0.000453352
0.000446782
0.000424828
0.000384713
0.000324437
0.000256156
0.000231505
0.000208453
0.000199179
0.000194119
0.000196025
0.000197031
0.000197276
0.000197281
0.000197043
0.000196036
0.000194107
0.00019912
0.00020831
0.000231072
0.000254547
0.000319552
0.00037405
0.000405714
0.000415261
0.000402909
0.000363876
0.000279299
7.27566e-05
7.30531e-05
0.000284279
0.000373991
0.000420526
0.000444158
0.000451155
0.000442463
0.000414712
0.000357378
0.000245565
8.17213e-05
0.000163195
0.000181778
0.000183852
0.000177257
0.000185807
0.00018881
0.0001894
0.000189397
0.000188793
0.000185748
0.000177074
0.000183524
0.000181368
0.000163137
8.14451e-05
0.000241712
0.000346532
0.000395127
0.000410587
0.000400563
0.000362627
0.000278723
7.2713e-05
7.3027e-05
0.00028387
0.000373239
0.00041951
0.000442934
0.000449644
0.000439973
0.000407673
0.000326395
8.84016e-05
7.37337e-05
0.000176756
0.000195732
0.000198372
0.000200841
0.000201831
0.00020209
0.000202068
0.000201735
0.00020056
0.000197674
0.000194375
0.000174787
7.31515e-05
8.73295e-05
0.00031515
0.000387366
0.000407746
0.000399089
0.000361746
0.000278292
7.26809e-05
7.29656e-05
0.000283017
0.000371842
0.000417855
0.000441415
0.000448912
0.000441428
0.000415711
0.000361242
0.000252622
8.35562e-05
0.00018226
0.000211891
0.000217011
0.000219775
0.000216761
0.000215772
0.000215588
0.000215534
0.00021553
0.000216035
0.000217914
0.000212919
0.000204539
0.000174489
8.18917e-05
0.000243927
0.000346731
0.00039415
0.00040897
0.000398775
0.000361089
0.000277814
7.26463e-05
7.28197e-05
0.000281192
0.000368993
0.00041454
0.000438315
0.000447092
0.000442903
0.000425114
0.000391126
0.000338702
0.000278144
0.000265329
0.000250587
0.00023628
0.000230087
0.000226669
0.000225472
0.000225144
0.000225055
0.000225066
0.00022539
0.00022649
0.000227293
0.000232276
0.000245102
0.000260421
0.000321472
0.000372711
0.000402165
0.000410516
0.000397951
0.00035964
0.000276692
7.25525e-05
7.2495e-05
0.000277496
0.000363363
0.000407901
0.000431587
0.000441472
0.000440214
0.000428447
0.00040593
0.000373225
0.000335034
0.000302082
0.000268591
0.00023698
0.000224136
0.000219539
0.000218058
0.000217626
0.000217518
0.000217554
0.000217888
0.000219184
0.000223251
0.000236152
0.000269287
0.00030692
0.000349766
0.000384548
0.000404782
0.000408619
0.000394214
0.000355719
0.000273862
7.229e-05
7.18232e-05
0.000270492
0.000352891
0.000395476
0.000418413
0.000428827
0.000429666
0.000422046
0.000406233
0.000382516
0.000352252
0.000318112
0.000280956
0.000245591
0.000230672
0.000225295
0.000223517
0.000222978
0.000222852
0.000222937
0.00022342
0.000225121
0.000230435
0.000245654
0.000282209
0.000321372
0.000357397
0.000384486
0.000399267
0.000400111
0.000384747
0.000347023
0.000267756
7.16796e-05
7.05087e-05
0.000257755
0.000334181
0.000373341
0.000394536
0.00040468
0.00040676
0.000402043
0.000390919
0.000373466
0.000350073
0.000322026
0.00029177
0.000264832
0.000251402
0.000245914
0.000243925
0.000243275
0.000243124
0.00024326
0.00024389
0.000245864
0.000251392
0.000265088
0.000292595
0.000323515
0.00035137
0.000371731
0.000382073
0.000380808
0.000365498
0.000330021
0.000255865
7.04189e-05
6.80086e-05
0.000234472
0.000300571
0.000333945
0.00035195
0.00036082
0.000363309
0.000360648
0.000353263
0.000341213
0.000324689
0.000304622
0.000283286
0.000264851
0.000254437
0.000249698
0.00024781
0.000247139
0.000246981
0.000247145
0.000247821
0.000249723
0.000254512
0.000265069
0.00028374
0.000305194
0.000324605
0.000338597
0.000345124
0.000342654
0.000328814
0.000297959
0.000233323
6.79617e-05
6.32718e-05
0.000187651
0.000234453
0.000257604
0.000269967
0.000276117
0.000278112
0.000276903
0.000272835
0.000265961
0.000256392
0.000244709
0.000232367
0.000221761
0.000215287
0.000212106
0.000210758
0.000210258
0.000210139
0.000210273
0.000210789
0.000212157
0.000215374
0.000221924
0.000232629
0.00024496
0.000256133
0.00026407
0.000267407
0.000264986
0.000254983
0.000233196
0.000187125
6.32558e-05
5.50296e-05
6.32716e-05
6.80122e-05
7.05124e-05
7.18139e-05
7.24431e-05
7.26686e-05
7.26182e-05
7.23368e-05
7.18246e-05
7.10777e-05
7.0131e-05
6.91039e-05
6.82054e-05
6.76372e-05
6.73524e-05
6.72309e-05
6.71854e-05
6.71744e-05
6.71864e-05
6.72326e-05
6.73549e-05
6.7641e-05
6.8213e-05
6.91177e-05
7.01449e-05
7.1055e-05
7.16705e-05
7.1868e-05
7.15146e-05
7.03733e-05
6.79561e-05
6.32544e-05
5.50327e-05
5.80094e-05
6.93643e-05
7.5741e-05
7.91546e-05
8.10059e-05
8.19886e-05
8.24795e-05
8.26959e-05
8.27643e-05
8.27579e-05
8.27192e-05
8.2673e-05
8.26328e-05
8.26036e-05
8.25846e-05
8.25727e-05
8.25657e-05
8.25624e-05
8.25623e-05
8.25654e-05
8.25721e-05
8.25829e-05
8.2599e-05
8.26207e-05
8.26422e-05
8.26445e-05
8.25857e-05
8.23892e-05
8.19221e-05
8.09619e-05
7.91284e-05
7.5727e-05
6.93583e-05
5.80102e-05
6.93645e-05
0.000248943
0.000321882
0.000358902
0.000379518
0.000391068
0.000397183
0.000399981
0.000400805
0.000400533
0.000399753
0.000398851
0.000398063
0.000397478
0.00039709
0.000396845
0.000396701
0.000396633
0.000396633
0.000396698
0.000396835
0.000397059
0.000397391
0.000397836
0.0003983
0.000398494
0.000397837
0.000395384
0.000389689
0.000378541
0.000358252
0.000321468
0.000248702
6.93583e-05
7.5744e-05
0.000321932
0.000432146
0.000489876
0.000522596
0.000541154
0.000550997
0.000555339
0.000556275
0.000555262
0.00055335
0.000551287
0.000549542
0.000548296
0.000547499
0.000547006
0.00054672
0.000546588
0.000546587
0.000546715
0.000546987
0.000547437
0.000548124
0.000549101
0.000550239
0.000551023
0.000550431
0.000546853
0.000537962
0.000520333
0.000488385
0.00043123
0.000321459
7.57295e-05
7.9161e-05
0.000358992
0.000489934
0.000559995
0.000600197
0.000623042
0.000634868
0.000639462
0.000639382
0.000636538
0.000632462
0.000628363
0.000625033
0.000622766
0.000621381
0.000620524
0.000620018
0.000619784
0.000619784
0.000620012
0.000620496
0.000621293
0.000622521
0.000624409
0.000626894
0.00062925
0.000629991
0.000626878
0.000616886
0.00059583
0.000557128
0.000488207
0.000358147
7.91303e-05
8.10162e-05
0.000379655
0.000522744
0.000600321
0.000645059
0.000670173
0.000682356
0.000685632