/*--------------------------------*- C++ -*----------------------------------*\
| =========                 |                                                 |
| \\      /  F ield         | OpenFOAM: The Open Source CFD Toolbox           |
|  \\    /   O peration     | Version:  2112                                  |
|   \\  /    A nd           | Website:  www.openfoam.com                      |
|    \\/     M anipulation  |                                                 |
\*---------------------------------------------------------------------------*/
FoamFile
{
    version     2.0;
    format      ascii;
    arch        "LSB;label=32;scalar=64";
    class       volScalarField;
    location    "4.5";
    object      p;
}
// * * * * * * * * * * * * * * * * * * * * * * * * * * * * * * * * * * * * * //

dimensions      [0 2 -2 0 0 0 0];

internalField   nonuniform List<scalar> 
64906
(
-4.59973e-06
-4.58397e-06
-4.57144e-06
-4.57138e-06
-4.59449e-06
-4.63552e-06
-4.69876e-06
-4.78515e-06
-4.89347e-06
-5.02102e-06
-5.16161e-06
-5.31008e-06
-5.46173e-06
-5.60011e-06
-5.71491e-06
-5.80752e-06
-5.87607e-06
-5.91943e-06
-5.937e-06
-5.92892e-06
-5.89617e-06
-5.84017e-06
-5.76283e-06
-5.66087e-06
-5.55042e-06
-5.44417e-06
-5.34766e-06
-5.26559e-06
-5.20353e-06
-5.16259e-06
-5.13913e-06
-5.14219e-06
-5.15739e-06
-5.1734e-06
-4.54819e-06
-4.48745e-06
-4.438e-06
-4.40097e-06
-4.38715e-06
-4.39527e-06
-4.42413e-06
-4.47196e-06
-4.53557e-06
-4.61158e-06
-4.69337e-06
-4.77681e-06
-4.85061e-06
-4.92352e-06
-4.99122e-06
-5.04812e-06
-5.09175e-06
-5.12179e-06
-5.13799e-06
-5.14047e-06
-5.12979e-06
-5.10652e-06
-5.0737e-06
-5.03933e-06
-5.00304e-06
-4.95925e-06
-4.91927e-06
-4.88754e-06
-4.87138e-06
-4.87494e-06
-4.9023e-06
-4.95651e-06
-5.02489e-06
-5.10228e-06
-4.52018e-06
-4.42612e-06
-4.33258e-06
-4.25091e-06
-4.19927e-06
-4.17671e-06
-4.18134e-06
-4.21091e-06
-4.26169e-06
-4.33098e-06
-4.4093e-06
-4.49289e-06
-4.56598e-06
-4.63189e-06
-4.6859e-06
-4.73007e-06
-4.76365e-06
-4.78793e-06
-4.80311e-06
-4.80932e-06
-4.80664e-06
-4.79409e-06
-4.77291e-06
-4.74166e-06
-4.70478e-06
-4.65988e-06
-4.62434e-06
-4.60296e-06
-4.60757e-06
-4.64307e-06
-4.71474e-06
-4.82774e-06
-4.95281e-06
-5.07544e-06
-4.51769e-06
-4.39206e-06
-4.25695e-06
-4.13231e-06
-4.04786e-06
-4.00351e-06
-3.99885e-06
-4.03359e-06
-4.10531e-06
-4.21383e-06
-4.34384e-06
-4.48941e-06
-4.61122e-06
-4.71268e-06
-4.78598e-06
-4.84108e-06
-4.87945e-06
-4.90522e-06
-4.9194e-06
-4.92206e-06
-4.91248e-06
-4.88677e-06
-4.84403e-06
-4.77481e-06
-4.68803e-06
-4.58118e-06
-4.49677e-06
-4.44225e-06
-4.43687e-06
-4.48402e-06
-4.58703e-06
-4.75408e-06
-4.93049e-06
-5.09436e-06
-4.55519e-06
-4.40239e-06
-4.23346e-06
-4.07641e-06
-3.97198e-06
-3.92318e-06
-3.93339e-06
-4.00743e-06
-4.14739e-06
-4.36034e-06
-4.6227e-06
-4.9271e-06
-5.17187e-06
-5.36645e-06
-5.49913e-06
-5.59439e-06
-5.65615e-06
-5.69285e-06
-5.70632e-06
-5.69659e-06
-5.66202e-06
-5.59431e-06
-5.49029e-06
-5.32612e-06
-5.11567e-06
-4.8505e-06
-4.63819e-06
-4.48685e-06
-4.42571e-06
-4.45192e-06
-4.56476e-06
-4.7625e-06
-4.97985e-06
-5.18003e-06
-4.63537e-06
-4.45644e-06
-4.2587e-06
-4.07922e-06
-3.96767e-06
-3.93207e-06
-3.98112e-06
-4.12772e-06
-4.38263e-06
-4.76844e-06
-5.25646e-06
-5.85734e-06
-6.31048e-06
-6.65808e-06
-6.88736e-06
-7.05046e-06
-7.15316e-06
-7.20984e-06
-7.22297e-06
-7.19247e-06
-7.11595e-06
-6.97893e-06
-6.77659e-06
-6.45746e-06
-6.03799e-06
-5.47641e-06
-5.04481e-06
-4.72887e-06
-4.56581e-06
-4.53845e-06
-4.63826e-06
-4.85078e-06
-5.10073e-06
-5.33522e-06
-4.75931e-06
-4.55065e-06
-4.32511e-06
-4.13074e-06
-4.02326e-06
-4.01611e-06
-4.1236e-06
-4.36829e-06
-4.77372e-06
-5.39594e-06
-6.18964e-06
-7.31209e-06
-8.05379e-06
-8.60304e-06
-8.95277e-06
-9.20273e-06
-9.35803e-06
-9.44103e-06
-9.45422e-06
-9.39734e-06
-9.26783e-06
-9.04279e-06
-8.71823e-06
-8.19484e-06
-7.48618e-06
-6.40052e-06
-5.67389e-06
-5.12936e-06
-4.8283e-06
-4.72188e-06
-4.79069e-06
-5.00747e-06
-5.28615e-06
-5.55879e-06
-4.92364e-06
-4.68087e-06
-4.42178e-06
-4.22083e-06
-4.12841e-06
-4.16421e-06
-4.34656e-06
-4.70278e-06
-5.27167e-06
-6.14299e-06
-7.24933e-06
-9.32314e-06
-1.03714e-05
-1.11601e-05
-1.16483e-05
-1.20048e-05
-1.22255e-05
-1.23416e-05
-1.23552e-05
-1.22659e-05
-1.20713e-05
-1.17389e-05
-1.12741e-05
-1.05072e-05
-9.49106e-06
-7.44388e-06
-6.42657e-06
-5.63782e-06
-5.18384e-06
-4.98411e-06
-5.00756e-06
-5.2207e-06
-5.52679e-06
-5.84678e-06
-5.11504e-06
-4.82585e-06
-4.54969e-06
-4.33861e-06
-4.26859e-06
-4.35843e-06
-4.62488e-06
-5.09044e-06
-5.75208e-06
-6.76051e-06
-8.21196e-06
-1.20194e-05
-1.30832e-05
-1.40886e-05
-1.47e-05
-1.51481e-05
-1.5425e-05
-1.55704e-05
-1.55846e-05
-1.54672e-05
-1.5217e-05
-1.47929e-05
-1.42038e-05
-1.32131e-05
-1.21801e-05
-8.3894e-06
-7.08564e-06
-6.13706e-06
-5.5912e-06
-5.29692e-06
-5.26675e-06
-5.47227e-06
-5.80806e-06
-6.19793e-06
-5.32946e-06
-4.98933e-06
-4.69149e-06
-4.47953e-06
-4.44845e-06
-4.61831e-06
-5.0077e-06
-5.62088e-06
-6.4761e-06
-8.65392e-06
-6.83389e-06
-1.47031e-05
-1.57261e-05
-1.71703e-05
-1.79624e-05
-1.85536e-05
-1.89177e-05
-1.91054e-05
-1.91203e-05
-1.89619e-05
-1.8626e-05
-1.80598e-05
-1.72909e-05
-1.58589e-05
-1.48887e-05
-6.92501e-06
-8.94369e-06
-6.82617e-06
-6.12291e-06
-5.69908e-06
-5.57953e-06
-5.76012e-06
-6.11568e-06
-6.58786e-06
-5.55624e-06
-5.1589e-06
-4.83534e-06
-4.62507e-06
-4.64157e-06
-4.90462e-06
-5.3911e-06
-5.94677e-06
-6.4832e-06
-4.4842e-06
-2.15722e-05
-1.92168e-05
-2.0068e-05
-2.07533e-05
-2.13571e-05
-2.17558e-05
-2.19588e-05
-2.19741e-05
-2.18013e-05
-2.14314e-05
-2.08534e-05
-2.01876e-05
-1.93407e-05
-2.16275e-05
-5.07577e-06
-6.95863e-06
-6.48363e-06
-6.09836e-06
-5.90634e-06
-6.05123e-06
-6.42875e-06
-7.0006e-06
-5.78642e-06
-5.32903e-06
-4.98122e-06
-4.78234e-06
-4.87847e-06
-5.33315e-06
-6.23937e-06
-7.72077e-06
-1.01302e-05
-1.3126e-05
-1.95529e-05
-1.82691e-05
-2.06224e-05
-2.22259e-05
-2.34009e-05
-2.42828e-05
-2.48256e-05
-2.50852e-05
-2.51009e-05
-2.48727e-05
-2.43614e-05
-2.35109e-05
-2.23681e-05
-2.08021e-05
-1.8484e-05
-1.98514e-05
-1.34031e-05
-1.04649e-05
-8.17239e-06
-6.90538e-06
-6.34361e-06
-6.36909e-06
-6.74625e-06
-7.4242e-06
-6.0061e-06
-5.48971e-06
-5.11209e-06
-4.91176e-06
-5.05513e-06
-5.61696e-06
-6.69263e-06
-8.35123e-06
-1.06632e-05
-1.32872e-05
-1.76356e-05
-1.99259e-05
-2.18766e-05
-2.35607e-05
-2.48874e-05
-2.5836e-05
-2.64248e-05
-2.67077e-05
-2.67235e-05
-2.64722e-05
-2.59149e-05
-2.49975e-05
-2.3702e-05
-2.20439e-05
-2.01083e-05
-1.78685e-05
-1.35617e-05
-1.09682e-05
-8.76729e-06
-7.33947e-06
-6.64659e-06
-6.6276e-06
-7.02442e-06
-7.84012e-06
-6.20736e-06
-5.63824e-06
-5.23018e-06
-5.02177e-06
-5.19362e-06
-5.82517e-06
-7.01157e-06
-8.8174e-06
-1.13006e-05
-1.42798e-05
-1.78429e-05
-2.04772e-05
-2.27637e-05
-2.45833e-05
-2.59847e-05
-2.69395e-05
-2.75241e-05
-2.78014e-05
-2.78171e-05
-2.75712e-05
-2.70182e-05
-2.6095e-05
-2.47256e-05
-2.29332e-05
-2.06745e-05
-1.80579e-05
-1.45056e-05
-1.15658e-05
-9.20425e-06
-7.64917e-06
-6.88266e-06
-6.85222e-06
-7.28824e-06
-8.20473e-06
-6.38181e-06
-5.76803e-06
-5.32906e-06
-5.1037e-06
-5.28105e-06
-5.93975e-06
-7.16826e-06
-9.0236e-06
-1.15345e-05
-1.45408e-05
-1.78672e-05
-2.07744e-05
-2.32833e-05
-2.51635e-05
-2.65829e-05
-2.75174e-05
-2.8081e-05
-2.83449e-05
-2.83606e-05
-2.81281e-05
-2.75962e-05
-2.66935e-05
-2.53065e-05
-2.3453e-05
-2.09705e-05
-1.80686e-05
-1.47484e-05
-1.17808e-05
-9.39801e-06
-7.81114e-06
-7.03488e-06
-7.02647e-06
-7.51079e-06
-8.51188e-06
-6.5254e-06
-5.87658e-06
-5.41063e-06
-5.1668e-06
-5.34009e-06
-6.00765e-06
-7.25232e-06
-9.12738e-06
-1.16483e-05
-1.46737e-05
-1.79648e-05
-2.10077e-05
-2.36301e-05
-2.55531e-05
-2.69795e-05
-2.78935e-05
-2.84356e-05
-2.8686e-05
-2.87019e-05
-2.84836e-05
-2.79738e-05
-2.70922e-05
-2.5699e-05
-2.38033e-05
-2.12081e-05
-1.81617e-05
-1.48723e-05
-1.18856e-05
-9.49921e-06
-7.90793e-06
-7.14218e-06
-7.16368e-06
-7.69129e-06
-8.75941e-06
-6.63505e-06
-5.96083e-06
-5.47358e-06
-5.213e-06
-5.37817e-06
-6.04516e-06
-7.29354e-06
-9.17622e-06
-1.17043e-05
-1.47515e-05
-1.80593e-05
-2.11603e-05
-2.38735e-05
-2.58289e-05
-2.72607e-05
-2.81631e-05
-2.86924e-05
-2.89348e-05
-2.89514e-05
-2.87423e-05
-2.82465e-05
-2.73774e-05
-2.59797e-05
-2.40543e-05
-2.13883e-05
-1.82588e-05
-1.49472e-05
-1.19389e-05
-9.5509e-06
-7.96403e-06
-7.21454e-06
-7.26447e-06
-7.82628e-06
-8.94462e-06
-6.70963e-06
-6.01977e-06
-5.51875e-06
-5.24687e-06
-5.40609e-06
-6.07235e-06
-7.32427e-06
-9.21564e-06
-1.17567e-05
-1.48292e-05
-1.81686e-05
-2.13257e-05
-2.40802e-05
-2.60587e-05
-2.74993e-05
-2.84009e-05
-2.89269e-05
-2.91671e-05
-2.91847e-05
-2.89797e-05
-2.84887e-05
-2.76215e-05
-2.62148e-05
-2.42639e-05
-2.15525e-05
-1.83671e-05
-1.50239e-05
-1.19913e-05
-9.59429e-06
-8.00671e-06
-7.26651e-06
-7.33451e-06
-7.91759e-06
-9.0681e-06
-6.74891e-06
-6.05288e-06
-5.54621e-06
-5.26977e-06
-5.42724e-06
-6.0953e-06
-7.35341e-06
-9.25664e-06
-1.18161e-05
-1.49143e-05
-1.82849e-05
-2.14777e-05
-2.42538e-05
-2.62496e-05
-2.77021e-05
-2.86119e-05
-2.91431e-05
-2.93864e-05
-2.94053e-05
-2.91997e-05
-2.87056e-05
-2.78314e-05
-2.64124e-05
-2.44391e-05
-2.16788e-05
-1.84812e-05
-1.51102e-05
-1.20525e-05
-9.63893e-06
-8.04298e-06
-7.30203e-06
-7.37539e-06
-7.96643e-06
-9.1305e-06
-6.75337e-06
-6.06059e-06
-5.55631e-06
-5.28198e-06
-5.44189e-06
-6.11418e-06
-7.38068e-06
-9.29791e-06
-1.18795e-05
-1.50033e-05
-1.84036e-05
-2.16077e-05
-2.43917e-05
-2.63998e-05
-2.78662e-05
-2.87922e-05
-2.93362e-05
-2.95875e-05
-2.96079e-05
-2.93974e-05
-2.88933e-05
-2.80052e-05
-2.65739e-05
-2.45916e-05
-2.18436e-05
-1.86109e-05
-1.52052e-05
-1.21204e-05
-9.68377e-06
-8.07266e-06
-7.32151e-06
-7.38801e-06
-7.97411e-06
-9.13289e-06
-6.72464e-06
-6.04458e-06
-5.54996e-06
-5.28287e-06
-5.44677e-06
-6.12193e-06
-7.39482e-06
-9.3249e-06
-1.19326e-05
-1.50848e-05
-1.85315e-05
-2.17451e-05
-2.44976e-05
-2.65076e-05
-2.79884e-05
-2.89386e-05
-2.9503e-05
-2.97673e-05
-2.97899e-05
-2.95706e-05
-2.90498e-05
-2.8141e-05
-2.66978e-05
-2.47151e-05
-2.19869e-05
-1.87526e-05
-1.52996e-05
-1.21844e-05
-9.71903e-06
-8.08964e-06
-7.32283e-06
-7.37319e-06
-7.9425e-06
-9.0779e-06
-6.66496e-06
-6.00686e-06
-5.52727e-06
-5.2689e-06
-5.43222e-06
-6.09934e-06
-7.36286e-06
-9.28816e-06
-1.1912e-05
-1.50933e-05
-1.86493e-05
-2.18443e-05
-2.45313e-05
-2.65216e-05
-2.80063e-05
-2.89835e-05
-2.95737e-05
-2.98552e-05
-2.98806e-05
-2.96498e-05
-2.91085e-05
-2.8178e-05
-2.67349e-05
-2.47743e-05
-2.21041e-05
-1.88882e-05
-1.53289e-05
-1.21855e-05
-9.70117e-06
-8.06747e-06
-7.29355e-06
-7.32771e-06
-7.8722e-06
-8.96807e-06
-6.57896e-06
-5.95192e-06
-5.49135e-06
-5.24095e-06
-5.39528e-06
-6.03673e-06
-7.26379e-06
-9.15082e-06
-1.1777e-05
-1.49923e-05
-1.88281e-05
-2.1926e-05
-2.44629e-05
-2.64153e-05
-2.78911e-05
-2.88942e-05
-2.95099e-05
-2.98092e-05
-2.9839e-05
-2.95996e-05
-2.90421e-05
-2.80956e-05
-2.66696e-05
-2.47538e-05
-2.22253e-05
-1.91005e-05
-1.52784e-05
-1.2098e-05
-9.60387e-06
-7.99417e-06
-7.23233e-06
-7.25676e-06
-7.77142e-06
-8.80962e-06
-6.47192e-06
-5.88317e-06
-5.44157e-06
-5.1919e-06
-5.31685e-06
-5.89264e-06
-7.01279e-06
-8.742e-06
-1.11414e-05
-1.39434e-05
-1.88258e-05
-2.22568e-05
-2.42301e-05
-2.60091e-05
-2.74079e-05
-2.8408e-05
-2.9035e-05
-2.93479e-05
-2.93844e-05
-2.91453e-05
-2.85907e-05
-2.76641e-05
-2.63309e-05
-2.46103e-05
-2.26661e-05
-1.91365e-05
-1.42726e-05
-1.15204e-05
-9.26134e-06
-7.7944e-06
-7.10696e-06
-7.15121e-06
-7.64779e-06
-8.60259e-06
-6.35416e-06
-5.809e-06
-5.38789e-06
-5.13706e-06
-5.22268e-06
-5.71172e-06
-6.70608e-06
-8.3432e-06
-1.10072e-05
-1.45311e-05
-2.01966e-05
-2.07014e-05
-2.34826e-05
-2.54807e-05
-2.68243e-05
-2.78195e-05
-2.84417e-05
-2.87561e-05
-2.88049e-05
-2.85904e-05
-2.8068e-05
-2.71761e-05
-2.59173e-05
-2.39952e-05
-2.12384e-05
-2.04681e-05
-1.51082e-05
-1.15813e-05
-9.00557e-06
-7.57772e-06
-6.96433e-06
-7.03853e-06
-7.52394e-06
-8.37219e-06
-6.23357e-06
-5.73242e-06
-5.32852e-06
-5.06751e-06
-5.08475e-06
-5.39333e-06
-5.93571e-06
-6.45763e-06
-6.87063e-06
-3.77938e-06
-2.71042e-05
-2.36789e-05
-2.45885e-05
-2.53912e-05
-2.61217e-05
-2.66295e-05
-2.69116e-05
-2.69745e-05
-2.68233e-05
-2.64509e-05
-2.58711e-05
-2.51936e-05
-2.44269e-05
-2.78025e-05
-4.31009e-06
-7.53921e-06
-7.22518e-06
-6.90488e-06
-6.69644e-06
-6.8838e-06
-7.37686e-06
-8.145e-06
-6.12508e-06
-5.66595e-06
-5.28673e-06
-5.036e-06
-5.04485e-06
-5.35705e-06
-6.0432e-06
-7.19921e-06
-9.09278e-06
-1.21669e-05
-1.29324e-05
-1.90851e-05
-2.10586e-05
-2.29601e-05
-2.41934e-05
-2.51356e-05
-2.57502e-05
-2.60937e-05
-2.6178e-05
-2.60127e-05
-2.55868e-05
-2.48593e-05
-2.37996e-05
-2.21313e-05
-2.02185e-05
-1.46321e-05
-1.35846e-05
-1.03111e-05
-8.274e-06
-7.15328e-06
-6.7015e-06
-6.81259e-06
-7.25304e-06
-7.95034e-06
-6.03562e-06
-5.61447e-06
-5.26117e-06
-5.02341e-06
-5.01992e-06
-5.29126e-06
-5.88416e-06
-6.83607e-06
-8.16421e-06
-9.86885e-06
-1.33698e-05
-1.76274e-05
-1.95043e-05
-2.12684e-05
-2.25497e-05
-2.35358e-05
-2.41768e-05
-2.45397e-05
-2.46385e-05
-2.44886e-05
-2.40783e-05
-2.3367e-05
-2.23016e-05
-2.0821e-05
-1.90057e-05
-1.49582e-05
-1.11274e-05
-9.35572e-06
-7.96047e-06
-7.04462e-06
-6.64378e-06
-6.73846e-06
-7.14165e-06
-7.77451e-06
-5.97507e-06
-5.59128e-06
-5.27205e-06
-5.05995e-06
-5.06088e-06
-5.3146e-06
-5.87438e-06
-6.80701e-06
-8.21442e-06
-1.01477e-05
-1.26305e-05
-1.559e-05
-1.77161e-05
-1.95667e-05
-2.09088e-05
-2.19396e-05
-2.26013e-05
-2.29724e-05
-2.3076e-05
-2.29315e-05
-2.25217e-05
-2.18058e-05
-2.07228e-05
-1.92267e-05
-1.72195e-05
-1.43607e-05
-1.17432e-05
-9.60411e-06
-8.03638e-06
-7.07532e-06
-6.65639e-06
-6.71784e-06
-7.07657e-06
-7.66409e-06
-5.94269e-06
-5.60402e-06
-5.32926e-06
-5.15397e-06
-5.16822e-06
-5.4051e-06
-5.90942e-06
-6.73736e-06
-7.95358e-06
-9.60446e-06
-1.16674e-05
-1.39757e-05
-1.59737e-05
-1.77293e-05
-1.90346e-05
-2.00243e-05
-2.06561e-05
-2.10093e-05
-2.11111e-05
-2.09825e-05
-2.06049e-05
-1.994e-05
-1.89184e-05
-1.75192e-05
-1.56582e-05
-1.33901e-05
-1.11828e-05
-9.34261e-06
-7.9759e-06
-7.10777e-06
-6.71563e-06
-6.75322e-06
-7.0652e-06
-7.60466e-06
-5.95393e-06
-5.66323e-06
-5.44822e-06
-5.32804e-06
-5.37452e-06
-5.61193e-06
-6.07171e-06
-6.79283e-06
-7.81798e-06
-9.16773e-06
-1.08078e-05
-1.26235e-05
-1.43281e-05
-1.5876e-05
-1.70595e-05
-1.79519e-05
-1.85275e-05
-1.88509e-05
-1.89479e-05
-1.88369e-05
-1.85015e-05
-1.79101e-05
-1.70038e-05
-1.57774e-05
-1.419e-05
-1.23988e-05
-1.06444e-05
-9.14131e-06
-7.99482e-06
-7.24334e-06
-6.8812e-06
-6.88201e-06
-7.12757e-06
-7.6008e-06
-5.99831e-06
-5.77062e-06
-5.63568e-06
-5.59416e-06
-5.69641e-06
-5.95864e-06
-6.40246e-06
-7.05134e-06
-7.93317e-06
-9.04507e-06
-1.03529e-05
-1.17828e-05
-1.31731e-05
-1.44496e-05
-1.54527e-05
-1.62137e-05
-1.67149e-05
-1.70005e-05
-1.70895e-05
-1.69954e-05
-1.67063e-05
-1.6201e-05
-1.54397e-05
-1.44265e-05
-1.31495e-05
-1.17502e-05
-1.03754e-05
-9.16628e-06
-8.21061e-06
-7.54904e-06
-7.19084e-06
-7.12504e-06
-7.27032e-06
-7.65214e-06
-6.05694e-06
-5.90436e-06
-5.85266e-06
-5.89426e-06
-6.06508e-06
-6.37933e-06
-6.85159e-06
-7.49609e-06
-8.31136e-06
-9.29585e-06
-1.04234e-05
-1.16336e-05
-1.28149e-05
-1.38997e-05
-1.47773e-05
-1.54526e-05
-1.59111e-05
-1.61771e-05
-1.62617e-05
-1.61732e-05
-1.59046e-05
-1.54443e-05
-1.47718e-05
-1.38969e-05
-1.2827e-05
-1.16659e-05
-1.05109e-05
-9.47964e-06
-8.62864e-06
-7.99693e-06
-7.60222e-06
-7.44503e-06
-7.47918e-06
-7.7237e-06
-6.1076e-06
-6.04681e-06
-6.0698e-06
-6.18356e-06
-6.42236e-06
-6.80426e-06
-7.34742e-06
-8.06455e-06
-8.95765e-06
-1.0013e-05
-1.1181e-05
-1.24013e-05
-1.35884e-05
-1.46791e-05
-1.55857e-05
-1.62963e-05
-1.67922e-05
-1.70825e-05
-1.71727e-05
-1.70674e-05
-1.67629e-05
-1.62539e-05
-1.55341e-05
-1.46219e-05
-1.35406e-05
-1.23791e-05
-1.12243e-05
-1.01529e-05
-9.24524e-06
-8.54455e-06
-8.06545e-06
-7.80287e-06
-7.71654e-06
-7.80079e-06
-4.6465e-06
-4.64938e-06
-4.6598e-06
-4.68018e-06
-4.71306e-06
-4.769e-06
-4.84986e-06
-4.9571e-06
-5.08967e-06
-5.24485e-06
-5.41493e-06
-5.59328e-06
-5.76789e-06
-5.92947e-06
-6.06754e-06
-6.17881e-06
-6.26004e-06
-6.30998e-06
-6.32796e-06
-6.31412e-06
-6.26951e-06
-6.19566e-06
-6.09608e-06
-5.97406e-06
-5.84135e-06
-5.70677e-06
-5.58232e-06
-5.47399e-06
-5.38858e-06
-5.32719e-06
-5.29014e-06
-5.26371e-06
-5.24641e-06
-5.23464e-06
-4.60689e-06
-4.58465e-06
-4.57475e-06
-4.5702e-06
-4.58269e-06
-4.61643e-06
-4.67337e-06
-4.7534e-06
-4.85296e-06
-4.96879e-06
-5.09105e-06
-5.21701e-06
-5.33594e-06
-5.4488e-06
-5.54717e-06
-5.62871e-06
-5.6894e-06
-5.72874e-06
-5.74603e-06
-5.74138e-06
-5.71585e-06
-5.67022e-06
-5.60896e-06
-5.53496e-06
-5.45614e-06
-5.37201e-06
-5.29366e-06
-5.2237e-06
-5.17187e-06
-5.14075e-06
-5.13191e-06
-5.14133e-06
-5.15513e-06
-5.17759e-06
-4.59377e-06
-4.56598e-06
-4.54573e-06
-4.52109e-06
-4.51732e-06
-4.5408e-06
-4.59513e-06
-4.68156e-06
-4.79588e-06
-4.93763e-06
-5.08985e-06
-5.25458e-06
-5.40223e-06
-5.5397e-06
-5.65194e-06
-5.7429e-06
-5.80808e-06
-5.84933e-06
-5.86613e-06
-5.85857e-06
-5.82753e-06
-5.77138e-06
-5.69518e-06
-5.5953e-06
-5.48727e-06
-5.36449e-06
-5.25799e-06
-5.1659e-06
-5.1062e-06
-5.07904e-06
-5.08553e-06
-5.11877e-06
-5.14315e-06
-5.17111e-06
-4.60592e-06
-4.56509e-06
-4.52873e-06
-4.48228e-06
-4.46413e-06
-4.4845e-06
-4.55023e-06
-4.66633e-06
-4.82905e-06
-5.04454e-06
-5.28262e-06
-5.55478e-06
-5.78592e-06
-5.9961e-06
-6.15624e-06
-6.28141e-06
-6.3661e-06
-6.41664e-06
-6.43285e-06
-6.41476e-06
-6.3629e-06
-6.27107e-06
-6.14553e-06
-5.97149e-06
-5.77957e-06
-5.55005e-06
-5.36127e-06
-5.20175e-06
-5.10416e-06
-5.06211e-06
-5.07474e-06
-5.12948e-06
-5.17065e-06
-5.20847e-06
-4.65819e-06
-4.60041e-06
-4.54986e-06
-4.48865e-06
-4.46682e-06
-4.49941e-06
-4.59795e-06
-4.774e-06
-5.02574e-06
-5.37423e-06
-5.7671e-06
-6.24247e-06
-6.62229e-06
-6.96113e-06
-7.20534e-06
-7.39157e-06
-7.51172e-06
-7.57972e-06
-7.59551e-06
-7.55902e-06
-7.4706e-06
-7.31632e-06
-7.10525e-06
-6.80102e-06
-6.46019e-06
-6.02838e-06
-5.6899e-06
-5.40494e-06
-5.23047e-06
-5.14501e-06
-5.14449e-06
-5.20609e-06
-5.25723e-06
-5.3155e-06
-4.75408e-06
-4.67415e-06
-4.61135e-06
-4.54315e-06
-4.52934e-06
-4.59003e-06
-4.74189e-06
-5.00507e-06
-5.3808e-06
-5.91881e-06
-6.53936e-06
-7.35336e-06
-7.94956e-06
-8.4755e-06
-8.83711e-06
-9.11004e-06
-9.28056e-06
-9.37402e-06
-9.38961e-06
-9.32713e-06
-9.18754e-06
-8.94518e-06
-8.61507e-06
-8.1216e-06
-7.56386e-06
-6.79369e-06
-6.23449e-06
-5.76801e-06
-5.48266e-06
-5.32787e-06
-5.29582e-06
-5.35205e-06
-5.41132e-06
-5.4921e-06
-4.89223e-06
-4.78561e-06
-4.71218e-06
-4.64386e-06
-4.64842e-06
-4.74985e-06
-4.96878e-06
-5.33397e-06
-5.84916e-06
-6.62559e-06
-7.5371e-06
-8.90909e-06
-9.76729e-06
-1.05135e-05
-1.09998e-05
-1.1367e-05
-1.15905e-05
-1.17118e-05
-1.17274e-05
-1.16371e-05
-1.14441e-05
-1.1106e-05
-1.06492e-05
-9.9322e-06
-9.11161e-06
-7.782e-06
-6.94316e-06
-6.24583e-06
-5.83423e-06
-5.59572e-06
-5.52049e-06
-5.56332e-06
-5.62819e-06
-5.74137e-06
-5.0674e-06
-4.93034e-06
-4.84795e-06
-4.78779e-06
-4.82372e-06
-4.98142e-06
-5.28213e-06
-5.75349e-06
-6.39931e-06
-7.36811e-06
-8.6096e-06
-1.09273e-05
-1.20154e-05
-1.30004e-05
-1.36203e-05
-1.41017e-05
-1.43916e-05
-1.45481e-05
-1.45641e-05
-1.44389e-05
-1.41796e-05
-1.37262e-05
-1.31334e-05
-1.21723e-05
-1.11185e-05
-8.8357e-06
-7.68834e-06
-6.80223e-06
-6.27289e-06
-5.94664e-06
-5.81599e-06
-5.83581e-06
-5.90281e-06
-6.05979e-06
-5.27753e-06
-5.09768e-06
-5.00955e-06
-4.96061e-06
-5.0344e-06
-5.25283e-06
-5.62851e-06
-6.17352e-06
-6.81333e-06
-7.8254e-06
-9.29705e-06
-1.3686e-05
-1.4534e-05
-1.55559e-05
-1.6216e-05
-1.67442e-05
-1.70583e-05
-1.7232e-05
-1.72483e-05
-1.71063e-05
-1.68226e-05
-1.63213e-05
-1.56855e-05
-1.46776e-05
-1.38593e-05
-9.49368e-06
-8.18089e-06
-7.23111e-06
-6.71287e-06
-6.32785e-06
-6.14848e-06
-6.14556e-06
-6.21687e-06
-6.43057e-06
-5.51461e-06
-5.28369e-06
-5.19428e-06
-5.17208e-06
-5.31317e-06
-5.63775e-06
-6.15977e-06
-6.81264e-06
-7.54465e-06
-9.48094e-06
-6.43133e-06
-1.57565e-05
-1.65408e-05
-1.78777e-05
-1.86612e-05
-1.93388e-05
-1.97266e-05
-1.99347e-05
-1.9951e-05
-1.97748e-05
-1.94179e-05
-1.87672e-05
-1.80068e-05
-1.66761e-05
-1.59489e-05
-6.50408e-06
-9.7786e-06
-7.91919e-06
-7.34246e-06
-6.8689e-06
-6.57416e-06
-6.50975e-06
-6.56685e-06
-6.85778e-06
-5.76576e-06
-5.47405e-06
-5.38e-06
-5.38411e-06
-5.59202e-06
-6.01741e-06
-6.64177e-06
-7.27827e-06
-7.49126e-06
-3.74538e-06
-2.24809e-05
-1.89239e-05
-1.95426e-05
-2.02014e-05
-2.07466e-05
-2.11027e-05
-2.12953e-05
-2.1311e-05
-2.11491e-05
-2.08223e-05
-2.03029e-05
-1.96642e-05
-1.90464e-05
-2.25043e-05
-4.42137e-06
-7.97863e-06
-7.83199e-06
-7.36273e-06
-6.98541e-06
-6.86375e-06
-6.91453e-06
-7.31162e-06
-6.02172e-06
-5.66649e-06
-5.57745e-06
-5.63383e-06
-5.97242e-06
-6.65429e-06
-7.77847e-06
-9.39194e-06
-1.19762e-05
-1.45314e-05
-2.05812e-05
-1.76374e-05
-1.94062e-05
-2.08442e-05
-2.1903e-05
-2.25837e-05
-2.30318e-05
-2.3261e-05
-2.32765e-05
-2.30781e-05
-2.26603e-05
-2.20088e-05
-2.09788e-05
-1.95732e-05
-1.78344e-05
-2.08642e-05
-1.47684e-05
-1.22829e-05
-9.84067e-06
-8.43621e-06
-7.60435e-06
-7.28265e-06
-7.2718e-06
-7.78188e-06
-6.26641e-06
-5.84807e-06
-5.75368e-06
-5.83873e-06
-6.25402e-06
-7.06746e-06
-8.37569e-06
-1.01653e-05
-1.25744e-05
-1.47667e-05
-1.84521e-05
-1.92909e-05
-2.02229e-05
-2.11891e-05
-2.20615e-05
-2.27079e-05
-2.31627e-05
-2.33971e-05
-2.34122e-05
-2.32073e-05
-2.27811e-05
-2.21598e-05
-2.13091e-05
-2.03544e-05
-1.94221e-05
-1.86349e-05
-1.49963e-05
-1.28514e-05
-1.05772e-05
-9.01162e-06
-8.02548e-06
-7.62013e-06
-7.59562e-06
-8.22834e-06
-6.49125e-06
-6.01869e-06
-5.91962e-06
-6.03027e-06
-6.51445e-06
-7.44744e-06
-8.92355e-06
-1.09194e-05
-1.34713e-05
-1.60414e-05
-1.88472e-05
-2.01437e-05
-2.11456e-05
-2.20292e-05
-2.28605e-05
-2.348e-05
-2.39203e-05
-2.41451e-05
-2.41599e-05
-2.39644e-05
-2.35523e-05
-2.29573e-05
-2.21469e-05
-2.12729e-05
-2.02804e-05
-1.8999e-05
-1.62194e-05
-1.37071e-05
-1.12971e-05
-9.54387e-06
-8.42036e-06
-7.94176e-06
-7.90544e-06
-8.63288e-06
-6.68565e-06
-6.16806e-06
-6.05838e-06
-6.17686e-06
-6.69392e-06
-7.68432e-06
-9.23053e-06
-1.13036e-05
-1.38686e-05
-1.65216e-05
-1.91058e-05
-2.06615e-05
-2.17992e-05
-2.26624e-05
-2.34764e-05
-2.40739e-05
-2.45017e-05
-2.47185e-05
-2.47335e-05
-2.45462e-05
-2.41468e-05
-2.35735e-05
-2.27803e-05
-2.1925e-05
-2.07963e-05
-1.9242e-05
-1.66801e-05
-1.4088e-05
-1.16708e-05
-9.85657e-06
-8.68932e-06
-8.19294e-06
-8.16915e-06
-8.97279e-06
-6.84516e-06
-6.29399e-06
-6.1743e-06
-6.29487e-06
-6.83144e-06
-7.85823e-06
-9.44921e-06
-1.15744e-05
-1.4159e-05
-1.68602e-05
-1.93918e-05
-2.10889e-05
-2.23021e-05
-2.31874e-05
-2.40095e-05
-2.45988e-05
-2.50185e-05
-2.52292e-05
-2.52447e-05
-2.50645e-05
-2.46741e-05
-2.411e-05
-2.33095e-05
-2.24305e-05
-2.12192e-05
-1.95217e-05
-1.70101e-05
-1.43709e-05
-1.19403e-05
-1.00884e-05
-8.89887e-06
-8.39827e-06
-8.38829e-06
-9.24533e-06
-6.96621e-06
-6.39156e-06
-6.26253e-06
-6.38014e-06
-6.92376e-06
-7.96695e-06
-9.5785e-06
-1.173e-05
-1.43283e-05
-1.70685e-05
-1.96111e-05
-2.14242e-05
-2.26603e-05
-2.35637e-05
-2.43944e-05
-2.49811e-05
-2.53978e-05
-2.56059e-05
-2.56221e-05
-2.54461e-05
-2.50603e-05
-2.44999e-05
-2.36912e-05
-2.27899e-05
-2.15244e-05
-1.97363e-05
-1.72161e-05
-1.45398e-05
-1.21012e-05
-1.02345e-05
-9.04154e-06
-8.54785e-06
-8.55301e-06
-9.44704e-06
-7.04795e-06
-6.45971e-06
-6.32466e-06
-6.43952e-06
-6.98638e-06
-8.03898e-06
-9.66425e-06
-1.18355e-05
-1.4452e-05
-1.72259e-05
-1.97967e-05
-2.168e-05
-2.29322e-05
-2.38513e-05
-2.46915e-05
-2.52814e-05
-2.56993e-05
-2.59078e-05
-2.59252e-05
-2.57509e-05
-2.53657e-05
-2.48035e-05
-2.39855e-05
-2.30656e-05
-2.17724e-05
-1.99215e-05
-1.7375e-05
-1.46666e-05
-1.22139e-05
-1.0335e-05
-9.13923e-06
-8.65036e-06
-8.66485e-06
-9.58033e-06
-7.09023e-06
-6.49758e-06
-6.36029e-06
-6.4738e-06
-7.02188e-06
-8.07913e-06
-9.71336e-06
-1.18992e-05
-1.45359e-05
-1.73375e-05
-1.99387e-05
-2.18581e-05
-2.31236e-05
-2.40551e-05
-2.49041e-05
-2.55011e-05
-2.59238e-05
-2.61354e-05
-2.61542e-05
-2.59795e-05
-2.55919e-05
-2.50243e-05
-2.41981e-05
-2.32657e-05
-2.19706e-05
-2.00698e-05
-1.74922e-05
-1.47567e-05
-1.22855e-05
-1.03952e-05
-9.19481e-06
-8.70639e-06
-8.72363e-06
-9.64688e-06
-7.09359e-06
-6.50573e-06
-6.36993e-06
-6.48342e-06
-7.03057e-06
-8.08749e-06
-9.72528e-06
-1.19195e-05
-1.45774e-05
-1.7401e-05
-2.0036e-05
-2.19585e-05
-2.32371e-05
-2.41776e-05
-2.50339e-05
-2.56409e-05
-2.60713e-05
-2.62886e-05
-2.63091e-05
-2.61324e-05
-2.57401e-05
-2.5165e-05
-2.4333e-05
-2.33917e-05
-2.20717e-05
-2.01777e-05
-1.75667e-05
-1.48082e-05
-1.23156e-05
-1.04154e-05
-9.2091e-06
-8.71717e-06
-8.73081e-06
-9.64812e-06
-7.05969e-06
-6.48641e-06
-6.35544e-06
-6.4691e-06
-7.01132e-06
-8.06008e-06
-9.69294e-06
-1.18866e-05
-1.45673e-05
-1.74075e-05
-2.0095e-05
-2.19863e-05
-2.32756e-05
-2.42232e-05
-2.50863e-05
-2.57082e-05
-2.61499e-05
-2.63755e-05
-2.63985e-05
-2.62182e-05
-2.58189e-05
-2.52332e-05
-2.43979e-05
-2.34559e-05
-2.21477e-05
-2.02613e-05
-1.75938e-05
-1.48163e-05
-1.22987e-05
-1.03933e-05
-9.183e-06
-8.686e-06
-8.6904e-06
-9.58611e-06
-6.99068e-06
-6.44183e-06
-6.31634e-06
-6.42515e-06
-6.94967e-06
-7.96885e-06
-9.56903e-06
-1.17303e-05
-1.44199e-05
-1.72691e-05
-2.00823e-05
-2.19324e-05
-2.3205e-05
-2.41494e-05
-2.50112e-05
-2.56488e-05
-2.6104e-05
-2.63407e-05
-2.63669e-05
-2.61821e-05
-2.57752e-05
-2.518e-05
-2.43509e-05
-2.34203e-05
-2.21493e-05
-2.02796e-05
-1.74867e-05
-1.46995e-05
-1.21711e-05
-1.02892e-05
-9.09656e-06
-8.60669e-06
-8.60367e-06
-9.46194e-06
-6.89189e-06
-6.37866e-06
-6.26011e-06
-6.36012e-06
-6.85603e-06
-7.82675e-06
-9.36925e-06
-1.1468e-05
-1.41653e-05
-1.69758e-05
-2.00846e-05
-2.18848e-05
-2.30452e-05
-2.4024e-05
-2.49099e-05
-2.55778e-05
-2.60518e-05
-2.63025e-05
-2.63336e-05
-2.6145e-05
-2.57289e-05
-2.51142e-05
-2.42697e-05
-2.33159e-05
-2.216e-05
-2.0326e-05
-1.72495e-05
-1.4499e-05
-1.19603e-05
-1.01274e-05
-8.97058e-06
-8.49763e-06
-8.48605e-06
-9.28393e-06
-6.76905e-06
-6.29962e-06
-6.18277e-06
-6.25785e-06
-6.69104e-06
-7.55127e-06
-8.93217e-06
-1.08163e-05
-1.33104e-05
-1.56657e-05
-1.9875e-05
-2.19703e-05
-2.27762e-05
-2.37647e-05
-2.466e-05
-2.53466e-05
-2.58355e-05
-2.61007e-05
-2.61377e-05
-2.59468e-05
-2.55272e-05
-2.49092e-05
-2.40693e-05
-2.31317e-05
-2.23528e-05
-2.01497e-05
-1.59921e-05
-1.37158e-05
-1.13927e-05
-9.75948e-06
-8.73562e-06
-8.33309e-06
-8.3367e-06
-9.05695e-06
-6.63466e-06
-6.21731e-06
-6.10648e-06
-6.1612e-06
-6.53735e-06
-7.29746e-06
-8.54296e-06
-1.03063e-05
-1.3085e-05
-1.61484e-05
-2.11093e-05
-2.02509e-05
-2.23594e-05
-2.40557e-05
-2.5208e-05
-2.59717e-05
-2.64867e-05
-2.6767e-05
-2.68154e-05
-2.66337e-05
-2.62102e-05
-2.55395e-05
-2.44566e-05
-2.28415e-05
-2.07659e-05
-2.1344e-05
-1.66947e-05
-1.36609e-05
-1.10228e-05
-9.4716e-06
-8.53973e-06
-8.18815e-06
-8.19357e-06
-8.81288e-06
-6.49684e-06
-6.13072e-06
-6.0168e-06
-6.02977e-06
-6.29527e-06
-6.82071e-06
-7.56218e-06
-8.22186e-06
-8.17323e-06
-2.70858e-06
-2.8301e-05
-2.31148e-05
-2.3626e-05
-2.42695e-05
-2.48525e-05
-2.52722e-05
-2.55239e-05
-2.55823e-05
-2.54513e-05
-2.51431e-05
-2.46829e-05
-2.41226e-05
-2.37314e-05
-2.88605e-05
-3.28873e-06
-8.90901e-06
-9.09615e-06
-8.62519e-06
-8.14658e-06
-7.97123e-06
-8.02769e-06
-8.56096e-06
-6.37254e-06
-6.05581e-06
-5.95576e-06
-5.96835e-06
-6.2221e-06
-6.7572e-06
-7.6312e-06
-8.82985e-06
-1.06016e-05
-1.34314e-05
-1.29855e-05
-1.97372e-05
-2.11386e-05
-2.27044e-05
-2.36698e-05
-2.45274e-05
-2.50789e-05
-2.54033e-05
-2.54793e-05
-2.53127e-05
-2.49027e-05
-2.41978e-05
-2.32933e-05
-2.18978e-05
-2.05874e-05
-1.46529e-05
-1.47448e-05
-1.18385e-05
-9.96575e-06
-8.82314e-06
-8.13138e-06
-7.88255e-06
-7.89431e-06
-8.34749e-06
-6.26817e-06
-5.9926e-06
-5.90346e-06
-5.91043e-06
-6.1317e-06
-6.60843e-06
-7.38502e-06
-8.46905e-06
-9.84045e-06
-1.14121e-05
-1.46812e-05
-1.88775e-05
-1.996e-05
-2.10917e-05
-2.19305e-05
-2.27234e-05
-2.32532e-05
-2.35802e-05
-2.36666e-05
-2.35211e-05
-2.31461e-05
-2.25191e-05
-2.16938e-05
-2.065e-05
-1.97048e-05
-1.59729e-05
-1.25588e-05
-1.10363e-05
-9.65923e-06
-8.63326e-06
-8.00115e-06
-7.76149e-06
-7.76224e-06
-8.17146e-06
-6.19504e-06
-5.95698e-06
-5.88876e-06
-5.90991e-06
-6.13009e-06
-6.59584e-06
-7.36122e-06
-8.45852e-06
-9.94039e-06
-1.17886e-05
-1.41202e-05
-1.67532e-05
-1.81979e-05
-1.93034e-05
-2.01721e-05
-2.09954e-05
-2.15423e-05
-2.1875e-05
-2.19643e-05
-2.18218e-05
-2.14393e-05
-2.08083e-05
-1.99469e-05
-1.88661e-05
-1.76139e-05
-1.53668e-05
-1.30942e-05
-1.12362e-05
-9.71827e-06
-8.64292e-06
-7.9828e-06
-7.71084e-06
-7.6778e-06
-8.03353e-06
-6.15796e-06
-5.95148e-06
-5.90748e-06
-5.9472e-06
-6.16504e-06
-6.60337e-06
-7.30956e-06
-8.31557e-06
-9.64473e-06
-1.12995e-05
-1.31764e-05
-1.51514e-05
-1.64963e-05
-1.76252e-05
-1.85213e-05
-1.93207e-05
-1.98537e-05
-2.01777e-05
-2.02685e-05
-2.01391e-05
-1.97797e-05
-1.91907e-05
-1.83513e-05
-1.73196e-05
-1.61082e-05
-1.43911e-05
-1.25882e-05
-1.09407e-05
-9.58532e-06
-8.59128e-06
-7.96681e-06
-7.68975e-06
-7.63461e-06
-7.94326e-06
-6.14579e-06
-5.97852e-06
-5.967e-06
-6.03701e-06
-6.26519e-06
-6.68665e-06
-7.33829e-06
-8.24239e-06
-9.40472e-06
-1.08003e-05
-1.23252e-05
-1.38865e-05
-1.51145e-05
-1.62152e-05
-1.71072e-05
-1.78708e-05
-1.83952e-05
-1.87146e-05
-1.88081e-05
-1.86888e-05
-1.83459e-05
-1.77861e-05
-1.69939e-05
-1.60319e-05
-1.48883e-05
-1.35255e-05
-1.20639e-05
-1.06787e-05
-9.49715e-06
-8.60248e-06
-8.01734e-06
-7.73125e-06
-7.64764e-06
-7.90284e-06
-6.15849e-06
-6.03361e-06
-6.05949e-06
-6.16776e-06
-6.4151e-06
-6.82859e-06
-7.43486e-06
-8.2474e-06
-9.2625e-06
-1.04498e-05
-1.17226e-05
-1.30129e-05
-1.41325e-05
-1.51442e-05
-1.59796e-05
-1.66864e-05
-1.71797e-05
-1.74805e-05
-1.7573e-05
-1.74665e-05
-1.71536e-05
-1.6643e-05
-1.59258e-05
-1.506e-05
-1.40444e-05
-1.28957e-05
-1.16751e-05
-1.05004e-05
-9.47639e-06
-8.67618e-06
-8.1269e-06
-7.82688e-06
-7.7094e-06
-7.90243e-06
-6.17834e-06
-6.08893e-06
-6.13265e-06
-6.26561e-06
-6.52746e-06
-6.94051e-06
-7.52107e-06
-8.27762e-06
-9.20064e-06
-1.02628e-05
-1.14005e-05
-1.25538e-05
-1.36167e-05
-1.4581e-05
-1.53844e-05
-1.60456e-05
-1.65143e-05
-1.67989e-05
-1.6889e-05
-1.67898e-05
-1.64975e-05