/*--------------------------------*- C++ -*----------------------------------*\
| =========                 |                                                 |
| \\      /  F ield         | OpenFOAM: The Open Source CFD Toolbox           |
|  \\    /   O peration     | Version:  2112                                  |
|   \\  /    A nd           | Website:  www.openfoam.com                      |
|    \\/     M anipulation  |                                                 |
\*---------------------------------------------------------------------------*/
FoamFile
{
    version     2.0;
    format      ascii;
    arch        "LSB;label=32;scalar=64";
    class       surfaceScalarField;
    location    "4.5";
    object      phi;
}
// * * * * * * * * * * * * * * * * * * * * * * * * * * * * * * * * * * * * * //

dimensions      [0 3 -1 0 0 0 0];

oriented        oriented;

internalField   nonuniform List<scalar> 
188215
(
4.92954e-10
9.47666e-10
-1.44062e-09
2.46808e-09
-4.7914e-11
-1.92721e-09
5.42405e-09
-1.68064e-09
-1.27533e-09
8.8658e-09
-3.15452e-09
-2.8722e-10
1.24489e-08
-4.24582e-09
6.62723e-10
1.60425e-08
-4.96452e-09
1.37096e-09
1.95826e-08
-5.36957e-09
1.82942e-09
2.29165e-08
-5.46299e-09
2.12914e-09
2.58179e-08
-5.21699e-09
2.31556e-09
2.78722e-08
-4.46365e-09
2.40939e-09
2.87707e-08
-3.30748e-09
2.40897e-09
2.8009e-08
-1.57414e-09
2.33576e-09
2.57348e-08
-5.06577e-11
2.32491e-09
2.23709e-08
8.23323e-10
2.54054e-09
1.81778e-08
1.37578e-09
2.81733e-09
1.33572e-08
1.75039e-09
3.07021e-09
8.15423e-09
1.94682e-09
3.25619e-09
2.77371e-09
2.02564e-09
3.35487e-09
-2.58393e-09
1.99844e-09
3.3592e-09
-7.71935e-09
1.86521e-09
3.27021e-09
-1.24298e-08
1.61498e-09
3.09544e-09
-1.64763e-08
1.19027e-09
2.85626e-09
-1.96806e-08
6.05151e-10
2.59913e-09
-2.17351e-08
-3.73282e-10
2.42784e-09
-2.22358e-08
-1.96816e-09
2.46885e-09
-2.10906e-08
-3.67926e-09
2.53402e-09
-1.88064e-08
-4.76333e-09
2.47918e-09
-1.5696e-08
-5.35549e-09
2.24505e-09
-1.2197e-08
-5.26485e-09
1.7659e-09
-8.55381e-09
-4.56311e-09
9.19887e-10
-5.03937e-09
-3.19507e-09
-3.19375e-10
-2.16672e-09
-1.2138e-09
-1.65884e-09
-2.84787e-10
7.33443e-10
-2.61538e-09
1.90067e-09
-2.18546e-09
-1.94727e-09
5.84987e-09
-2.95493e-09
3.77533e-10
5.79241e-09
-8.16513e-09
4.09326e-09
4.63855e-09
-1.00349e-08
8.06633e-09
3.48723e-09
-1.06148e-08
1.19673e-08
2.94773e-09
-1.10945e-08
1.57541e-08
3.13406e-09
-1.18854e-08
1.9418e-08
4.11299e-09
-1.31464e-08
2.28595e-08
6.04033e-09
-1.49448e-08
2.58579e-08
9.09562e-09
-1.7311e-08
2.79896e-08
1.36522e-08
-2.02476e-08
2.88856e-08
1.94337e-08
-2.36371e-08
2.81025e-08
2.64688e-08
-2.72599e-08
2.60335e-08
3.26535e-08
-3.06351e-08
2.2624e-08
3.78952e-08
-3.36624e-08
1.83538e-08
4.1772e-08
-3.6126e-08
1.34791e-08
4.46119e-08
-3.79867e-08
8.24429e-09
4.64127e-08
-3.92311e-08
2.8443e-09
4.73011e-08
-3.98755e-08
-2.53143e-09
4.72954e-08
-3.99213e-08
-7.69359e-09
4.63955e-08
-3.93682e-08
-1.2449e-08
4.4585e-08
-3.82146e-08
-1.65521e-08
4.1739e-08
-3.64456e-08
-1.97358e-08
3.78693e-08
-3.40805e-08
-2.15668e-08
3.26409e-08
-3.11832e-08
-2.21107e-08
2.65256e-08
-2.79499e-08
-2.0932e-08
1.96444e-08
-2.45023e-08
-1.84998e-08
1.41593e-08
-2.13548e-08
-1.51596e-08
1.00522e-08
-1.87479e-08
-1.13095e-08
7.70085e-09
-1.68158e-08
-7.14645e-09
6.80586e-09
-1.55321e-08
-2.84178e-09
7.21212e-09
-1.47119e-08
1.15334e-09
8.61657e-09
-1.38255e-08
3.30928e-09
9.94906e-09
-1.13716e-08
9.71107e-09
-4.50113e-09
-3.90153e-09
1.28512e-08
-3.09978e-09
-1.67903e-09
1.40267e-08
-1.04567e-08
2.5596e-09
1.37212e-08
-1.33213e-08
7.1474e-09
1.34951e-08
-1.45957e-08
1.16511e-08
1.4128e-08
-1.56839e-08
1.60438e-08
1.58604e-08
-1.7119e-08
2.03877e-08
1.89268e-08
-1.91578e-08
2.46453e-08
2.37191e-08
-2.19363e-08
2.85877e-08
3.06747e-08
-2.55214e-08
3.15884e-08
4.05885e-08
-2.99371e-08
3.30257e-08
5.30129e-08
-3.50165e-08
3.19384e-08
6.80398e-08
-4.04837e-08
2.9134e-08
8.11017e-08
-4.56438e-08
2.49425e-08
9.22732e-08
-5.01865e-08
1.99861e-08
1.00619e-07
-5.38903e-08
1.45026e-08
1.06797e-07
-5.67012e-08
8.72342e-09
1.10777e-07
-5.85851e-08
2.81026e-09
1.12777e-07
-5.95622e-08
-3.07775e-09
1.12815e-07
-5.96314e-08
-8.78103e-09
1.10891e-07
-5.87924e-08
-1.41387e-08
1.06989e-07
-5.70466e-08
-1.89161e-08
1.00893e-07
-5.43762e-08
-2.28765e-08
9.26503e-08
-5.08207e-08
-2.54032e-08
8.16136e-08
-4.64461e-08
-2.61718e-08
6.87794e-08
-4.14853e-08
-2.43497e-08
5.40907e-08
-3.62684e-08
-2.09034e-08
4.22298e-08
-3.15168e-08
-1.63933e-08
3.3058e-08
-2.7516e-08
-1.13996e-08
2.71344e-08
-2.44273e-08
-6.13515e-09
2.3702e-08
-2.21605e-08
-8.0344e-10
2.22954e-08
-2.0415e-08
3.98334e-09
2.23559e-08
-1.85261e-08
6.02809e-09
2.25582e-08
-1.46539e-08
2.06467e-08
-4.90756e-09
-5.32591e-09
2.06235e-08
-2.44644e-09
-3.04536e-09
2.27306e-08
-1.09845e-08
1.84679e-09
2.31792e-08
-1.43501e-08
7.29637e-09
2.39663e-08
-1.59208e-08
1.27882e-08
2.59274e-08
-1.72913e-08
1.83227e-08
2.93794e-08
-1.90535e-08
2.40687e-08
3.46921e-08
-2.15113e-08
3.00883e-08
4.25341e-08
-2.48346e-08
3.61082e-08
5.37488e-08
-2.9094e-08
4.10795e-08
6.99548e-08
-3.43376e-08
4.36993e-08
9.07439e-08
-4.03507e-08
4.1839e-08
1.16848e-07
-4.69479e-08
3.742e-08
1.38661e-07
-5.31407e-08
3.13235e-08
1.56956e-07
-5.85861e-08
2.46172e-08
1.70346e-07
-6.30211e-08
1.75088e-08
1.80276e-07
-6.63712e-08
1.02027e-08
1.86681e-07
-6.85976e-08
2.80634e-09
1.89922e-07
-6.9749e-08
-4.56474e-09
1.90012e-07
-6.98264e-08
-1.17935e-08
1.86949e-07
-6.88294e-08
-1.87707e-08
1.80723e-07
-6.67564e-08
-2.52836e-08
1.70967e-07
-6.35616e-08
-3.11199e-08
1.57775e-07
-5.92885e-08
-3.51981e-08
1.39716e-07
-5.40246e-08
-3.6637e-08
1.1827e-07
-4.80513e-08
-3.34812e-08
9.26671e-08
-4.17323e-08
-2.78828e-08
7.27149e-08
-3.60835e-08
-2.10395e-08
5.75037e-08
-3.1289e-08
-1.39481e-08
4.75927e-08
-2.75497e-08
-6.9006e-09
4.13912e-08
-2.47367e-08
-1.42676e-10
3.80499e-08
-2.25124e-08
5.71632e-09
3.66793e-08
-2.01824e-08
7.93048e-09
3.59427e-08
-1.55986e-08
3.28235e-08
-4.24628e-09
-6.16473e-09
2.83791e-08
-1.59087e-09
-3.48094e-09
3.11903e-08
-1.11435e-08
2.37181e-09
3.22595e-08
-1.49331e-08
9.03352e-09
3.40217e-08
-1.67171e-08
1.59433e-08
3.73258e-08
-1.83082e-08
2.3193e-08
4.25001e-08
-2.03703e-08
3.11478e-08
4.99786e-08
-2.32413e-08
4.01033e-08
6.06912e-08
-2.71126e-08
4.97978e-08
7.60728e-08
-3.20185e-08
5.85388e-08
9.92527e-08
-3.8039e-08
6.35774e-08
1.30564e-07
-4.48584e-08
5.99917e-08
1.73133e-07
-5.26989e-08
5.23889e-08
2.06219e-07
-5.99547e-08
4.27893e-08
2.32977e-07
-6.64213e-08
3.29865e-08
2.5186e-07
-7.17117e-08
2.3001e-08
2.65906e-07
-7.56444e-08
1.29519e-08
2.74943e-07
-7.8213e-08
2.86264e-09
2.79545e-07
-7.95335e-08
-7.20262e-09
2.79693e-07
-7.96151e-08
-1.71771e-08
2.75381e-07
-7.84574e-08
-2.70323e-08
2.66627e-07
-7.60486e-08
-3.66309e-08
2.52843e-07
-7.22772e-08
-4.59369e-08
2.34234e-07
-6.71525e-08
-5.31208e-08
2.07774e-07
-6.08733e-08
-5.6158e-08
1.75157e-07
-5.38502e-08
-5.03888e-08
1.33205e-07
-4.63069e-08
-4.08384e-08
1.03053e-07
-3.98882e-08
-3.00661e-08
8.10852e-08
-3.43539e-08
-1.97036e-08
6.72389e-08
-3.00087e-08
-1.00537e-08
5.84289e-08
-2.66875e-08
-1.21875e-09
5.32837e-08
-2.40687e-08
6.14965e-09
5.06762e-08
-2.13653e-08
9.04298e-09
4.92189e-08
-1.61696e-08
4.5186e-08
-3.31957e-09
-6.59275e-09
3.57048e-08
-7.32921e-10
-3.08365e-09
3.9065e-08
-1.13838e-08
4.15138e-09
4.06772e-08
-1.56527e-08
1.24536e-08
4.33899e-08
-1.76704e-08
2.12222e-08
4.80625e-08
-1.95052e-08
3.07064e-08
5.4934e-08
-2.19181e-08
4.15938e-08
6.43599e-08
-2.52688e-08
5.47046e-08
7.73299e-08
-2.97495e-08
7.00972e-08
9.59413e-08
-3.5261e-08
8.55828e-08
1.25649e-07
-4.18821e-08
9.56824e-08
1.69306e-07
-4.88417e-08
8.85234e-08
2.38181e-07
-5.78893e-08
7.52441e-08
2.85712e-07
-6.62134e-08
6.00511e-08
3.2224e-07
-7.40704e-08
4.56345e-08
3.46897e-07
-8.06202e-08
3.13734e-08
3.6545e-07
-8.52828e-08
1.71836e-08
3.77371e-07
-8.82383e-08
2.987e-09
3.83486e-07
-8.97448e-08
-1.11902e-08
3.837e-07
-8.98304e-08
-2.53183e-08
3.78003e-07
-8.84938e-08
-3.94668e-08
3.66479e-07
-8.57034e-08
-5.3689e-08
3.48273e-07
-8.12074e-08
-6.85723e-08
3.23944e-07
-7.48266e-08
-8.13529e-08
2.87719e-07
-6.71649e-08
-8.78102e-08
2.40707e-07
-5.90932e-08
-7.6711e-08
1.72464e-07
-5.03583e-08
-6.02679e-08
1.30456e-07
-4.38463e-08
-4.35493e-08
1.02127e-07
-3.77604e-08
-2.8663e-08
8.52296e-08
-3.2877e-08
-1.56101e-08
7.43997e-08
-2.90238e-08
-4.04721e-09
6.77085e-08
-2.59876e-08
5.46477e-09
6.40305e-08
-2.28663e-08
9.63494e-09
6.19855e-08
-1.69368e-08
5.72265e-08
-2.40553e-09
-6.75488e-09
4.23877e-08
7.19504e-11
-1.94216e-09
4.61089e-08
-1.18566e-08
7.18408e-09
4.82715e-08
-1.67206e-08
1.76071e-08
5.19974e-08
-1.90305e-08
2.86504e-08
5.81769e-08
-2.11578e-08
4.07279e-08
6.68351e-08
-2.39787e-08
5.49535e-08
7.79892e-08
-2.78549e-08
7.31559e-08
9.2077e-08
-3.29495e-08
9.65505e-08
1.11436e-07
-3.88896e-08
1.23214e-07
1.44537e-07
-4.55515e-08
1.44572e-07
1.98962e-07
-5.10138e-08
1.2975e-07
3.13733e-07
-6.07304e-08
1.06681e-07
3.78378e-07
-6.95974e-08
8.33152e-08
4.25035e-07
-7.94293e-08
6.2786e-08
4.55399e-07
-8.79723e-08
4.28407e-08
4.7879e-07
-9.33948e-08
2.30289e-08
4.93906e-07
-9.67235e-08
3.19202e-09
5.0173e-07
-9.84074e-08
-1.66355e-08
5.02024e-07
-9.84964e-08
-3.6415e-08
4.94771e-07
-9.69888e-08
-5.62961e-08
4.80189e-07
-9.38294e-08
-7.66841e-08
4.5724e-07
-8.85796e-08
-9.97727e-08
4.27242e-07
-8.02096e-08
-1.22279e-07
3.80815e-07
-7.05896e-08
-1.36217e-07
3.1666e-07
-6.20144e-08
-1.13439e-07
2.02311e-07
-5.26249e-08
-8.57722e-08
1.50463e-07
-4.76735e-08
-6.08319e-08
1.18784e-07
-4.15973e-08
-4.04195e-08
1.01197e-07
-3.638e-08
-2.34076e-08
8.94107e-08
-3.20228e-08
-8.53337e-09
8.13847e-08
-2.85504e-08
3.81623e-09
7.6621e-08
-2.49401e-08
9.92213e-09
7.39659e-08
-1.80863e-08
6.86208e-08
-1.47215e-09
-6.73492e-09
4.79396e-08
1.18303e-09
1.41262e-11
5.19812e-08
-1.26213e-08
1.1667e-08
5.48335e-08
-1.82148e-08
2.48418e-08
5.97175e-08
-2.08948e-08
3.86559e-08
6.77425e-08
-2.33797e-08
5.35022e-08
7.86712e-08
-2.66824e-08
7.06967e-08
9.19547e-08
-3.11599e-08
9.33196e-08
1.06416e-07
-3.6962e-08
1.25119e-07
1.22807e-07
-4.31701e-08
1.69917e-07
1.49551e-07
-4.98116e-08
2.16753e-07
2.0033e-07
-4.82046e-08
1.86241e-07
3.99982e-07
-5.57368e-08
1.48348e-07
4.81124e-07
-6.4853e-08
1.14402e-07
5.37545e-07
-7.85631e-08
8.64116e-08
5.73985e-07
-9.05967e-08
5.89587e-08
6.03042e-07
-9.67986e-08
3.13155e-08
6.22032e-07
-1.00483e-07
3.50203e-09
6.31889e-07
-1.02345e-07
-2.43177e-08
6.32281e-07
-1.02437e-07
-5.19796e-08
6.23189e-07
-1.00756e-07
-7.94622e-08
6.04916e-07
-9.72446e-08
-1.07444e-07
5.76447e-07
-9.12248e-08
-1.41269e-07
5.4044e-07
-7.93727e-08
-1.78651e-07
4.84104e-07
-6.59067e-08
-2.0803e-07
4.03221e-07
-5.71817e-08
-1.5905e-07
2.03255e-07
-4.99257e-08
-1.1345e-07
1.5691e-07
-5.20468e-08
-7.99031e-08
1.31314e-07
-4.60768e-08
-5.45165e-08
1.16553e-07
-4.07424e-08
-3.36992e-08
1.04435e-07
-3.58416e-08
-1.50347e-08
9.46175e-08
-3.18973e-08
9.4835e-10
8.83468e-08
-2.77088e-08
9.90337e-09
8.46838e-08
-1.96729e-08
7.89837e-08
-4.59529e-10
-6.52306e-09
5.21531e-08
2.30957e-09
2.62229e-09
5.64679e-08
-1.36321e-08
1.76963e-08
5.99815e-08
-2.0222e-08
3.44176e-08
6.63129e-08
-2.33167e-08
5.16234e-08
7.67436e-08
-2.6207e-08
6.93153e-08
9.09982e-08
-3.00189e-08
8.82932e-08
1.08096e-07
-3.51194e-08
1.12063e-07
1.2427e-07
-4.16235e-08
1.47608e-07
1.35902e-07
-4.86402e-08
2.20746e-07
1.30156e-07
-5.37434e-08
3.19151e-07
1.54059e-07
-5.21343e-08
2.56569e-07
5.06137e-07
-4.35724e-08
1.96879e-07
5.89483e-07
-4.86695e-08
1.51586e-07
6.50838e-07
-6.79993e-08
1.15528e-07
6.94705e-07
-8.46609e-08
7.91665e-08
7.30327e-07
-9.09243e-08
4.1816e-08
7.54582e-07
-9.5199e-08
3.94709e-09
7.67099e-07
-9.73416e-08
-3.39486e-08
7.67607e-07
-9.74301e-08
-7.13866e-08
7.56088e-07
-9.54609e-08
-1.07916e-07
7.3279e-07
-9.13443e-08
-1.44203e-07
6.97989e-07
-8.52566e-08
-1.89722e-07
6.54721e-07
-6.87623e-08
-2.49211e-07
5.93302e-07
-4.97088e-08
-3.10143e-07
5.09262e-07
-4.5108e-08
-2.08412e-07
1.55861e-07
-5.43364e-08
-1.35802e-07
1.40555e-07
-5.62552e-08
-9.8043e-08
1.45366e-07
-5.18109e-08
-7.07317e-08
1.35111e-07
-4.5869e-08
-4.69936e-08
1.21182e-07
-4.0485e-08
-2.40338e-08
1.07769e-07
-3.6111e-08
-3.13407e-09
9.87918e-08
-3.13447e-08
9.60677e-09
9.37032e-08
-2.17602e-08
8.77093e-08
8.81142e-10
-5.9148e-09
5.45439e-08
3.524e-09
6.52241e-09
5.90033e-08
-1.49726e-08
2.61364e-08
6.31102e-08
-2.27427e-08
4.7977e-08
7.0846e-08
-2.63737e-08
7.05737e-08
8.39383e-08
-2.97913e-08
9.30787e-08
1.02755e-07
-3.42621e-08
1.14612e-07
1.2675e-07
-4.01876e-08
1.35123e-07
1.52422e-07
-4.8662e-08
1.51905e-07
1.76231e-07
-5.71111e-08
2.06767e-07
1.47763e-07
-7.24685e-08
4.41389e-07
-8.05629e-08
3.50133e-07
6.07563e-07
-1.01696e-08
2.65894e-07
6.75777e-07
-2.05601e-09
2.0911e-07
7.27612e-07
-1.999e-08
1.62735e-07
7.79962e-07
-3.88826e-08
1.11931e-07
8.21522e-07
-4.03909e-08
5.85508e-08
8.5076e-07
-4.27981e-08
4.58363e-09
8.65453e-07
-4.43867e-08
-4.94212e-08
8.66057e-07
-4.44459e-08
-1.02937e-07
8.52579e-07
-4.2976e-08
-1.54045e-07
8.24555e-07
-4.06558e-08
-2.00938e-07
7.84187e-07
-3.93052e-08
-2.58534e-07
7.32852e-07
-2.05341e-08
-3.44122e-07
6.81635e-07
-2.74497e-09
-4.34836e-07
6.11583e-07
-1.16077e-08
-1.95278e-07
-8.36971e-08
-1.38623e-07
1.58144e-07
-7.4244e-08
-1.20646e-07
1.87389e-07
-6.00002e-08
-9.598e-08
1.63766e-07
-5.33208e-08
-6.83623e-08
1.40001e-07
-4.64371e-08
-3.87583e-08
1.19738e-07
-4.15731e-08
-1.04353e-08
1.06608e-07
-3.61391e-08
8.20196e-09
9.96653e-08
-2.45994e-08
9.33808e-08
2.53044e-09
-5.08616e-09
5.48658e-08
4.76426e-09
1.12417e-08
5.92917e-08
-1.66163e-08
3.6294e-08
6.37983e-08
-2.57403e-08
6.46139e-08
7.25497e-08
-3.00237e-08
9.46648e-08
8.79384e-08
-3.4051e-08
1.24424e-07
1.11916e-07
-3.89205e-08
1.47854e-07
1.47971e-07
-4.46504e-08
1.49407e-07
2.00837e-07
-4.9969e-08
1.14836e-07
2.77909e-07
-6.71072e-08
3.77104e-07
-1.14506e-07
1.96719e-07
3.28093e-07
8.27514e-08
2.62704e-07
5.58231e-07
5.15618e-08
2.59211e-07
6.86992e-07
4.41123e-08
2.1188e-07
7.8183e-07
4.54639e-08
1.46829e-07
8.44814e-07
4.1759e-08
7.68375e-08
8.84187e-07
3.6564e-08
5.39444e-09
9.02999e-07
3.38966e-08
-6.6093e-08
9.03646e-07
3.38987e-08
-1.3624e-07
8.86164e-07
3.65626e-08
-2.01664e-07
8.48214e-07
4.17651e-08
-2.49862e-07
7.86874e-07
4.55103e-08
-2.55343e-07
6.94056e-07
4.42769e-08
-1.926e-07
5.67444e-07
5.1448e-08
3.37604e-07
8.13788e-08
-1.10903e-07
3.80218e-07
-1.11172e-07
-1.39265e-07
2.85302e-07
-6.95509e-08
-1.30404e-07
2.10314e-07
-5.54089e-08
-9.83696e-08
1.60195e-07
-5.22282e-08
-5.89615e-08
1.28299e-07
-4.79692e-08
-2.06037e-08
1.10394e-07
-4.21442e-08
5.89985e-09
1.01501e-07
-2.83396e-08
9.52301e-08
4.05058e-09
-3.7617e-09
5.26452e-08
5.98233e-09
1.71867e-08
5.68242e-08
-1.84809e-08
4.91874e-08
6.09017e-08
-2.91042e-08
8.72072e-08
6.87947e-08
-3.42647e-08
1.32087e-07
8.2456e-08
-3.93975e-08
1.86796e-07
1.02986e-07
-4.57789e-08
2.56497e-07
1.31535e-07
-5.32652e-08
3.47695e-07
1.68337e-07
-5.86976e-08
4.73421e-07
2.11987e-07
-5.98035e-08
6.28038e-07
2.63737e-07
-4.12494e-08
4.91378e-07
8.71785e-08
4.94812e-08
4.94086e-07
2.31402e-07
9.39827e-08
4.71643e-07
4.19069e-07
1.61605e-07
4.01782e-07
5.37886e-07
2.18967e-07
3.05929e-07
6.26279e-07
2.51404e-07
2.03436e-07
6.84599e-07
2.62707e-07
1.03609e-07
7.208e-07
2.63214e-07
6.22215e-09
7.38166e-07
2.62221e-07
-9.11443e-08
7.38742e-07
2.62271e-07
-1.90901e-07
7.22551e-07
2.6337e-07
-2.93285e-07
6.87584e-07
2.63015e-07
-3.89049e-07
6.30591e-07
2.52047e-07
-4.58897e-07
5.43589e-07
2.20314e-07
-4.81077e-07
4.25777e-07
1.63846e-07
-4.80628e-07
2.39269e-07
9.78862e-08
-6.22509e-07
8.87038e-08
5.31777e-08
-4.67804e-07
2.66215e-07
-4.07014e-08
-3.37445e-07
2.1794e-07
-6.29965e-08
-2.38935e-07
1.768e-07
-6.49966e-08
-1.59319e-07
1.43e-07
-6.2422e-08
-9.27737e-08
1.1869e-07
-5.69361e-08
-3.67907e-08
1.04152e-07
-4.97405e-08
7.52614e-10
9.69843e-08
-3.30263e-08
9.06902e-08
5.29255e-09
-2.85555e-09
4.8323e-08
7.17776e-09
2.20927e-08
5.20991e-08
-2.02231e-08
5.98647e-08
5.54265e-08
-3.22967e-08
1.05212e-07
6.17469e-08
-3.82991e-08
1.59658e-07
7.24273e-08
-4.44176e-08
2.26984e-07
8.77325e-08
-5.20722e-08
3.1209e-07
1.07222e-07
-6.0793e-08
4.18154e-07
1.29469e-07
-6.71967e-08
5.47449e-07
1.4959e-07
-6.68978e-08
6.94561e-07
1.65776e-07
-4.91521e-08
6.89341e-07
1.06255e-07
-1.38563e-08
6.69235e-07
1.93801e-07
5.77077e-08
6.0754e-07
3.07542e-07
1.73222e-07
5.01006e-07
3.92815e-07
2.51605e-07
3.75759e-07
4.57846e-07
2.9368e-07
2.47853e-07
5.00109e-07
3.12397e-07
1.25247e-07
5.26397e-07
3.1701e-07
6.89226e-09
5.38971e-07
3.1755e-07
-1.1142e-07
5.39444e-07
3.1761e-07
-2.33894e-07
5.27823e-07
3.17201e-07
-3.61599e-07
5.02501e-07
3.12788e-07
-4.86692e-07
4.61201e-07
2.94484e-07
-5.93469e-07
3.97078e-07
2.53288e-07
-6.56205e-07
3.12422e-07
1.7609e-07
-6.78275e-07
1.9884e-07
6.25002e-08
-6.87563e-07
1.08789e-07
-1.07972e-08
-5.41575e-07
1.6951e-07
-4.92828e-08
-4.0816e-07
1.55221e-07
-7.06972e-08
-2.94188e-07
1.37295e-07
-7.44657e-08
-1.97707e-07
1.17924e-07
-7.14052e-08
-1.16366e-07
1.02466e-07
-6.51173e-08
-4.81927e-08
9.26787e-08
-5.66997e-08
-1.65023e-09
8.77618e-08
-3.732e-08
8.21808e-08
6.85912e-09
-2.20358e-09
4.2212e-08
8.31455e-09
2.6085e-08
4.55024e-08
-2.16919e-08
6.86243e-08
4.79417e-08
-3.50545e-08
1.19706e-07
5.24776e-08
-4.18121e-08
1.80963e-07
6.00162e-08
-4.88467e-08
2.56149e-07
7.04145e-08
-5.78678e-08
3.4913e-07
8.27821e-08
-6.85412e-08
4.60921e-07
9.59174e-08
-7.82389e-08
5.86936e-07
1.06082e-07
-8.25075e-08
7.10608e-07
1.15273e-07
-7.31687e-08
7.57622e-07
1.03407e-07
-4.41653e-08
7.61225e-07
1.54053e-07
3.61437e-08
6.8899e-07
2.22038e-07
1.5774e-07
5.66268e-07
2.77862e-07
2.37674e-07
4.21339e-07
3.21139e-07
2.81637e-07
2.76452e-07
3.49135e-07
2.95862e-07
1.39177e-07
3.66723e-07
2.96948e-07
7.40744e-09
3.75163e-07
2.95577e-07
-1.24312e-07
3.7556e-07
2.95603e-07
-2.61435e-07
3.67908e-07
2.97038e-07
-4.06111e-07
3.51085e-07
2.96092e-07
-5.50948e-07
3.23803e-07
2.82234e-07
-6.7418e-07
2.81163e-07
2.39147e-07
-7.47922e-07
2.25749e-07
1.60416e-07
-7.47813e-07
1.57972e-07
4.07583e-08
-7.0419e-07
1.06541e-07
-4.13754e-08
-5.80621e-07
1.19261e-07
-7.33202e-08
-4.50306e-07
1.11449e-07
-8.65432e-08
-3.30054e-07
1.03155e-07
-8.61123e-08
-2.24513e-07
9.25791e-08
-8.0196e-08
-1.33504e-07
8.37679e-08
-7.23106e-08
-5.63793e-08
7.80782e-08
-6.25239e-08
-3.02582e-09
7.51855e-08
-4.07771e-08
7.0571e-08
8.58405e-09
-2.00974e-09
3.49154e-08
9.30632e-09
2.86883e-08
3.76414e-08
-2.2837e-08
7.45697e-08
3.93139e-08
-3.72536e-08
1.29324e-07
4.23467e-08
-4.46231e-08
1.94366e-07
4.73556e-08
-5.23813e-08
2.73154e-07
5.41032e-08
-6.24768e-08
3.68787e-07
6.18146e-08
-7.4666e-08
4.81446e-07
6.98545e-08
-8.65956e-08
6.04673e-07
7.62981e-08
-9.34433e-08
7.22803e-07
8.42341e-08
-8.70906e-08
7.96663e-07
8.83133e-08
-5.87669e-08
8.12901e-07
1.2022e-07
1.75955e-08
7.35563e-07
1.62396e-07
1.3698e-07
6.04119e-07
1.98288e-07
2.11019e-07
4.48551e-07
2.26381e-07
2.50326e-07
2.93984e-07
2.44908e-07
2.58794e-07
1.47894e-07
2.5669e-07
2.56124e-07
7.81191e-09
2.62424e-07
2.52821e-07
-1.3223e-07
2.62792e-07
2.5281e-07
-2.78202e-07
2.5778e-07
2.561e-07
-4.32621e-07
2.46673e-07
2.58831e-07
-5.88211e-07
2.28743e-07
2.5065e-07
-7.2037e-07
2.0115e-07
2.12171e-07
-7.99559e-07
1.656e-07
1.39339e-07
-7.87274e-07
1.23722e-07
2.19656e-08
-7.16257e-07
9.16703e-08
-5.61471e-08
-5.97808e-07
8.82414e-08
-8.74284e-08
-4.69943e-07
8.13188e-08
-9.77355e-08
-3.48225e-07
7.6374e-08
-9.49363e-08
-2.39021e-07
7.04345e-08
-8.70599e-08
-1.42992e-07
6.5615e-08
-7.78765e-08
-6.05638e-08
6.25852e-08
-6.69347e-08
-3.1449e-09
6.10293e-08
-4.32627e-08
5.73735e-08
1.00526e-08
-2.03985e-09
2.68488e-08
1.01065e-08
3.03335e-08
2.89576e-08
-2.36896e-08
7.85275e-08
3.00268e-08
-3.89069e-08
1.35689e-07
3.19222e-08
-4.67371e-08
2.0299e-07
3.50848e-08
-5.50305e-08
2.83654e-07
3.9355e-08
-6.59153e-08
3.80406e-07
4.4274e-08
-7.9211e-08
4.93271e-07
4.96564e-08
-9.26678e-08
6.16016e-07
5.47548e-08
-1.01201e-07
7.34905e-07
6.1991e-08
-9.66464e-08
8.21606e-07
6.99394e-08
-6.83271e-08
8.44427e-07
9.09446e-08
6.4547e-09
7.65053e-07
1.17649e-07
1.2412e-07
6.28411e-07
1.40909e-07
1.9402e-07
4.66108e-07
1.59267e-07
2.29417e-07
3.05334e-07
1.71726e-07
2.33955e-07
1.53589e-07
1.79775e-07
2.2866e-07
8.17894e-09
1.83799e-07
2.24035e-07
-1.37208e-07
1.84175e-07
2.24004e-07
-2.88884e-07
1.80883e-07
2.28572e-07
-4.49593e-07
1.73501e-07
2.33881e-07
-6.12037e-07
1.61607e-07
2.2958e-07
-7.49554e-07
1.43687e-07
1.94981e-07
-8.30948e-07
1.20719e-07
1.26275e-07
-8.12318e-07
9.43108e-08
1.07814e-08
-7.28121e-07
7.33002e-08
-6.58273e-08
-6.08575e-07
6.57931e-08
-9.7097e-08
-4.80826e-07
5.92537e-08
-1.05685e-07
-3.58357e-07
5.52416e-08
-1.01337e-07
-2.47228e-07
5.14086e-08
-9.21029e-08
-1.48286e-07
4.8609e-08
-8.19359e-08
-6.26025e-08
4.70005e-08
-7.00989e-08
-2.77224e-09
4.61733e-08
-4.49742e-08
4.34199e-08
1.11814e-08
-2.19828e-09
1.83773e-08
1.06698e-08
3.12393e-08
1.98227e-08
-2.43026e-08
8.09066e-08
2.04354e-08
-4.0076e-08
1.39547e-07
2.14997e-08
-4.82182e-08
2.08159e-07
2.33329e-08
-5.68604e-08
2.89858e-07
2.59003e-08
-6.82438e-08
3.87302e-07
2.90467e-08
-8.22168e-08
5.00676e-07
3.28259e-08
-9.65433e-08
6.24314e-07
3.70985e-08
-1.05982e-07
7.45288e-07
4.32458e-08
-1.02229e-07
8.38297e-07
5.09251e-08
-7.39945e-08
8.65112e-07
6.45515e-08
-4.21398e-10
7.84293e-07
8.05627e-08
1.17905e-07
6.44279e-07
9.48596e-08
1.86063e-07
4.77753e-07
1.06268e-07
2.19526e-07
3.13002e-07
1.14324e-07
2.22152e-07
1.57532e-07
1.19648e-07
2.15597e-07
8.54754e-09
1.22436e-07
2.10347e-07
-1.40437e-07
1.2285e-07
2.1031e-07
-2.95904e-07
1.20861e-07
2.1549e-07
-4.60697e-07
1.16252e-07
2.22042e-07
-6.27503e-07
1.0878e-07
2.19633e-07
-7.68544e-07
9.77794e-08
1.86949e-07
-8.51458e-07
8.36853e-08
1.19947e-07
-8.29025e-07
6.76325e-08
4.24528e-09
-7.38265e-07
5.41699e-08
-7.16292e-08
-6.16393e-07
4.67296e-08
-1.02808e-07
-4.87446e-07
4.09571e-08
-1.10651e-07
-3.64044e-07
3.7321e-08
-1.05481e-07
-2.51642e-07
3.44802e-08
-9.54742e-08
-1.50968e-07
3.2626e-08
-8.46908e-08
-6.33739e-08
3.16623e-08
-7.22559e-08
-2.23304e-09
3.11673e-08
-4.61349e-08
2.92882e-08
1.18987e-08
-2.3498e-09
9.74217e-09
1.09849e-08
3.16917e-08
1.05003e-08
-2.47192e-08
8.22222e-08
1.07308e-08
-4.08258e-08
1.41748e-07
1.11213e-08
-4.91475e-08
2.11185e-07
1.18784e-08
-5.79825e-08
2.93626e-07
1.30943e-08
-6.9635e-08
3.91759e-07
1.48801e-08
-8.3966e-08
5.05901e-07
1.74134e-08
-9.87299e-08
6.30717e-07
2.08851e-08
-1.08602e-07
7.535e-07
2.56314e-08
-1.05169e-07
8.49721e-07
3.16274e-08
-7.69232e-08
8.78196e-07
3.90071e-08
-2.93073e-09
7.96549e-07
4.64989e-08
1.15711e-07
6.54459e-07
5.33089e-08
1.83641e-07
4.85363e-07
5.88144e-08
2.1655e-07
3.18113e-07
6.30259e-08
2.18548e-07
1.60256e-07
6.59503e-08
2.11555e-07
8.94965e-09
6.76556e-08
2.06087e-07
-1.42385e-07
6.81316e-08
2.06052e-07
-3.00323e-07
6.73462e-08
2.11453e-07
-4.67747e-07
6.52336e-08
2.18443e-07
-6.37298e-07
6.16705e-08
2.1666e-07
-7.80619e-07
5.65796e-08
1.84521e-07
-8.64635e-07
4.99388e-08
1.17763e-07
-8.40274e-07
4.23554e-08
9.15672e-10
-7.4633e-07
3.48475e-08
-7.46213e-08
-6.22522e-07
2.87981e-08
-1.05876e-07
-4.9219e-07
2.40764e-08
-1.13451e-07
-3.67741e-07
2.07717e-08
-1.079e-07
-2.54289e-07
1.85385e-08
-9.75102e-08
-1.52461e-07
1.71965e-08
-8.63979e-08
-6.37128e-08
1.6539e-08
-7.36254e-08
-1.84501e-09
1.62074e-08
-4.69079e-08
1.51912e-08
1.22519e-08
-2.44933e-09
1.14678e-09
1.10447e-08
3.18045e-08
1.21141e-09
-2.49649e-08
8.26778e-08
1.05395e-09
-4.11964e-08
1.4261e-07
7.63405e-10
-4.95744e-08
2.12522e-07
4.27713e-10
-5.8461e-08
2.95542e-07
2.52675e-10
-7.01788e-08
3.94399e-07
6.16164e-10
-8.45934e-08
5.0944e-07
1.82204e-09
-9.94489e-08
6.35311e-07
4.4199e-09
-1.09406e-07
7.59164e-07
7.80607e-09
-1.06028e-07
8.56263e-07
1.23405e-08
-7.78113e-08
8.84888e-07
1.40578e-08
-3.6763e-09
8.02692e-07
1.32872e-08
1.15408e-07
6.59616e-07
1.26902e-08
1.83694e-07
4.89386e-07
1.22775e-08
2.16767e-07
3.20957e-07
1.26236e-08
2.18832e-07
1.61916e-07
1.31432e-08
2.11848e-07
9.41016e-09
1.37801e-08
2.06381e-07
-1.43158e-07
1.43505e-08
2.06349e-07
-3.02383e-07
1.48174e-08
2.11754e-07
-4.71153e-07
1.52677e-08
2.18736e-07
-6.42055e-07
1.56908e-08
2.16881e-07
-7.86597e-07
1.65581e-08
1.84563e-07
-8.71399e-07
1.72904e-08
1.1745e-07
-8.46877e-07
1.78476e-08
-1.41275e-11
-7.52057e-07
1.56408e-08
-7.56128e-08
-6.27109e-07
1.07551e-08
-1.06905e-07
-4.95619e-07
7.04576e-09
-1.1446e-07
-3.70151e-07
4.15342e-09
-1.0885e-07
-2.55833e-07
2.60754e-09
-9.83879e-08
-1.53269e-07
1.83328e-09
-8.72008e-08
-6.39142e-08
1.51538e-09
-7.43307e-08
-1.69535e-09
1.37065e-09
-4.73821e-08
1.23132e-09
1.22646e-08
-2.50077e-09
-7.20136e-09
1.08489e-08
3.15729e-08
-7.81749e-09
-2.50447e-08
8.22659e-08
-8.44418e-09
-4.11949e-08
1.42121e-07
-9.5827e-09
-4.9509e-08
2.12145e-07
-1.12849e-08
-5.83115e-08
2.95546e-07
-1.32474e-08
-6.99012e-08
3.95125e-07
-1.48309e-08
-8.4132e-08
5.11186e-07
-1.54949e-08
-9.8744e-08
6.38056e-07
-1.40014e-08
-1.08448e-07
7.62383e-07
-1.16431e-08
-1.04878e-07
8.58152e-07
-6.67604e-09
-7.6752e-08
8.85303e-07
-1.04052e-08
-2.68765e-09
8.0271e-07
-2.07764e-08
1.16656e-07
6.59699e-07
-3.00179e-08
1.85719e-07
4.89782e-07
-3.73856e-08
2.1958e-07
3.21517e-07
-4.14618e-08
2.22351e-07
1.62517e-07
-4.36454e-08
2.15788e-07
9.95529e-09
-4.41768e-08
2.10519e-07
-1.4271e-07
-4.34681e-08
2.10484e-07
-3.02018e-07
-4.1558e-08
2.15683e-07
-4.70824e-07
-3.81556e-08
2.22229e-07
-6.41684e-07
-3.30944e-08
2.19645e-07
-7.86451e-07
-2.51689e-08
1.86495e-07
-8.71893e-07
-1.57994e-08
1.18531e-07
-8.49093e-07
-5.83383e-09
8.81897e-10
-7.5556e-07
-3.08735e-09
-7.48052e-08
-6.30116e-07
-8.68266e-09
-1.06006e-07
-4.97636e-07
-1.16805e-08
-1.13754e-07
-3.71189e-07
-1.39065e-08
-1.08387e-07
-2.56216e-07
-1.42154e-08
-9.81497e-08
-1.53355e-07
-1.3898e-08
-8.713e-08
-6.39552e-08
-1.34903e-08
-7.4394e-08
-1.76555e-09
-1.32457e-08
-4.75733e-08
-1.24694e-08
1.19352e-08
-2.55518e-09
-1.50469e-08
1.04008e-08
3.08792e-08
-1.63083e-08
-2.49436e-08
8.07742e-08
-1.75422e-08
-4.0797e-08
1.39927e-07
-1.98136e-08
-4.89221e-08
2.09516e-07
-2.33778e-08
-5.74955e-08
2.92924e-07
-2.79117e-08
-6.87445e-08
3.93132e-07
-3.25328e-08
-8.25059e-08
5.10441e-07
-3.63106e-08
-9.64936e-08
6.38712e-07
-3.67372e-08
-1.05535e-07
7.63648e-07
-3.52131e-08
-1.01366e-07
8.55368e-07
-2.51027e-08
-7.32934e-08
8.78654e-07
-3.43675e-08
6.76504e-10
7.95763e-07
-5.86128e-08
1.20727e-07
6.54013e-07
-7.98595e-08
1.91592e-07
4.86101e-07
-9.68002e-08
2.27326e-07
3.19536e-07
-1.06806e-07
2.31909e-07
1.61965e-07
-1.12545e-07
2.26471e-07
1.06331e-08
-1.14579e-07
2.21733e-07
-1.40849e-07
-1.13657e-07
2.2167e-07
-2.98873e-07
-1.09811e-07
2.26278e-07
-4.6622e-07
-1.02442e-07
2.31632e-07
-6.3542e-07
-9.10601e-08
2.27166e-07
-7.79302e-07
-7.33507e-08
1.92065e-07
-8.65319e-07
-5.1991e-08
1.22208e-07
-8.46923e-07
-2.88735e-08
4.64371e-09
-7.57277e-07
-2.09856e-08
-7.17479e-08
-6.31236e-07
-3.18395e-08
-1.02884e-07
-4.97468e-07
-3.42565e-08
-1.11192e-07
-3.69985e-07
-3.4967e-08
-1.06423e-07
-2.54688e-07
-3.27843e-08
-9.67279e-08
-1.5218e-07
-3.02885e-08
-8.61174e-08
-6.35185e-08
-2.84068e-08
-7.37454e-08
-1.94576e-09
-2.73909e-08
-4.74275e-08
-2.56487e-08
1.12335e-08
-2.74392e-09
-2.20102e-08
9.70716e-09
2.94492e-08
-2.38712e-08
-2.46302e-08
7.77054e-08
-2.58406e-08
-3.99578e-08
1.35193e-07
-2.95421e-08
-4.77589e-08
2.03305e-07
-3.55549e-08
-5.59345e-08
2.8571e-07
-4.37365e-08
-6.6581e-08
3.85892e-07
-5.3227e-08
-7.94878e-08
5.04603e-07
-6.27557e-08
-9.22651e-08
6.35846e-07
-6.80219e-08
-9.99583e-08
7.63722e-07
-6.87923e-08
-9.42967e-08
8.46749e-07
-4.15574e-08
-6.65727e-08
8.61687e-07
-5.8171e-08
8.86589e-09
7.78403e-07
-1.04374e-07
1.29045e-07
6.3963e-07
-1.44371e-07
2.03284e-07
4.76397e-07
-1.75826e-07
2.42259e-07
3.13924e-07
-1.94645e-07
2.50312e-07
1.59802e-07
-2.0555e-07
2.47127e-07
1.15009e-08
-2.09755e-07
2.43477e-07
-1.36998e-07
-2.08498e-07
2.43341e-07
-2.91727e-07
-2.0179e-07
2.46708e-07
-4.5525e-07
-1.88565e-07
2.49646e-07
-6.20206e-07
-1.67657e-07
2.41554e-07
-7.61654e-07
-1.34989e-07
2.03086e-07
-8.48804e-07
-9.46982e-08
1.29857e-07
-8.38906e-07
-5.03606e-08
1.15896e-08
-7.57793e-07
-3.65593e-08
-6.55395e-08
-6.28898e-07
-6.43382e-08
-9.63969e-08
-4.92409e-07
-6.46345e-08
-1.0611e-07
-3.63913e-07
-6.09273e-08
-1.02536e-07
-2.49182e-07
-5.36451e-08
-9.38704e-08
-1.4834e-07
-4.7154e-08
-8.39766e-08
-6.17926e-08
-4.273e-08
-7.22242e-08
-1.92664e-09
-4.04375e-08
-4.68193e-08
-3.76825e-08
1.01072e-08
-3.13187e-09
-2.76876e-08
8.80933e-09
2.71313e-08
-3.00631e-08
-2.40712e-08
7.27686e-08
-3.28301e-08
-3.86478e-08
1.27345e-07
-3.81208e-08
-4.59976e-08
1.92399e-07
-4.69851e-08
-5.36234e-08
2.71865e-07
-5.97598e-08
-6.34431e-08
3.70048e-07
-7.62174e-08
-7.51931e-08
4.89017e-07
-9.54544e-08
-8.62699e-08
6.25343e-07
-1.12241e-07
-9.21072e-08
7.63229e-07
-1.2224e-07
-8.44382e-08
8.27289e-07
-5.04008e-08
-5.52163e-08
8.26187e-07
-7.98413e-08
2.27724e-08
7.44447e-07
-1.65399e-07
1.42764e-07
6.12427e-07
-2.32982e-07
2.20631e-07
4.57858e-07
-2.84152e-07
2.62895e-07
3.02884e-07
-3.15352e-07
2.75681e-07
1.55198e-07
-3.33333e-07
2.75469e-07
1.26967e-08
-3.40534e-07
2.7328e-07
-1.30036e-07
-3.38776e-07
2.7301e-07
-2.78459e-07
-3.28006e-07
2.7464e-07
-4.34756e-07
-3.0659e-07
2.74323e-07
-5.91615e-07
-2.72054e-07
2.61256e-07
-7.27091e-07
-2.18822e-07
2.19308e-07
-8.13982e-07
-1.5028e-07
1.42474e-07
-8.20432e-07
-6.83811e-08
2.44707e-08
-7.57512e-07
-4.4521e-08
-5.49583e-08
-6.18992e-07
-1.15332e-07
-8.75266e-08
-4.77815e-07
-1.06815e-07
-9.89957e-08
-3.49567e-07
-9.22364e-08
-9.69396e-08
-2.37563e-07
-7.60097e-08
-8.96393e-08
-1.40595e-07
-6.34738e-08
-8.06475e-08
-5.81184e-08
-5.55095e-08
-6.96976e-08
-1.48699e-09
-5.14748e-08
-4.55941e-08
-4.78044e-08
8.63489e-09
-3.93512e-09
-3.14989e-08
7.74638e-09
2.35473e-08
-3.42841e-08
-2.32615e-08
6.52349e-08
-3.76284e-08
-3.68893e-08
1.14915e-07
-4.41299e-08
-4.36711e-08
1.73891e-07
-5.53776e-08
-5.05829e-08
2.45953e-07
-7.25114e-08
-5.93106e-08
3.36119e-07
-9.68959e-08
-6.94879e-08
4.48558e-07
-1.30148e-07
-7.77453e-08
5.88349e-07
-1.72307e-07
-7.9725e-08
7.62828e-07
-2.32427e-07
-6.42921e-08
7.93381e-07
-4.99861e-08
-3.09681e-08
7.47661e-07
-7.17524e-08
3.76313e-08
6.75768e-07
-2.43875e-07
1.50369e-07
5.58997e-07