/*--------------------------------*- C++ -*----------------------------------*\
| =========                 |                                                 |
| \\      /  F ield         | OpenFOAM: The Open Source CFD Toolbox           |
|  \\    /   O peration     | Version:  2112                                  |
|   \\  /    A nd           | Website:  www.openfoam.com                      |
|    \\/     M anipulation  |                                                 |
\*---------------------------------------------------------------------------*/
FoamFile
{
    version     2.0;
    format      ascii;
    arch        "LSB;label=32;scalar=64";
    class       volVectorField;
    location    "4.5";
    object      U;
}
// * * * * * * * * * * * * * * * * * * * * * * * * * * * * * * * * * * * * * //

dimensions      [0 1 -1 0 0 0 0];

internalField   nonuniform List<vector> 
64906
(
(-1.45073e-07 -4.56118e-07 -1.97503e-07)
(1.70076e-06 -2.26237e-06 -2.32973e-07)
(5.56821e-06 -4.12656e-06 6.78139e-07)
(1.0214e-05 -5.84111e-06 1.86811e-06)
(1.53076e-05 -7.1932e-06 2.84263e-06)
(2.04744e-05 -8.27352e-06 3.58715e-06)
(2.56254e-05 -9.19562e-06 4.23982e-06)
(3.05961e-05 -1.00221e-05 4.88755e-06)
(3.51689e-05 -1.07888e-05 5.56392e-06)
(3.8813e-05 -1.13944e-05 6.28873e-06)
(4.10817e-05 -1.19301e-05 7.01157e-06)
(4.12147e-05 -1.22173e-05 7.73668e-06)
(3.89527e-05 -1.26947e-05 8.47181e-06)
(3.4851e-05 -1.29867e-05 9.32302e-06)
(2.93312e-05 -1.33935e-05 1.00835e-05)
(2.28012e-05 -1.37686e-05 1.06967e-05)
(1.55323e-05 -1.40903e-05 1.11178e-05)
(7.87509e-06 -1.42825e-05 1.1338e-05)
(9.99624e-08 -1.43311e-05 1.13503e-05)
(-7.4927e-06 -1.42368e-05 1.11559e-05)
(-1.46338e-05 -1.40148e-05 1.07616e-05)
(-2.09784e-05 -1.37413e-05 1.01771e-05)
(-2.62779e-05 -1.34302e-05 9.45077e-06)
(-3.01051e-05 -1.31948e-05 8.65662e-06)
(-3.20225e-05 -1.2758e-05 7.9804e-06)
(-3.15205e-05 -1.25321e-05 7.289e-06)
(-2.89045e-05 -1.20172e-05 6.57691e-06)
(-2.49437e-05 -1.13579e-05 5.81406e-06)
(-2.00927e-05 -1.03781e-05 4.99959e-06)
(-1.49168e-05 -9.06712e-06 4.02886e-06)
(-9.69337e-06 -7.28047e-06 2.73302e-06)
(-5.04588e-06 -4.96552e-06 1.07293e-06)
(-1.34104e-06 -2.37583e-06 -2.38893e-07)
(4.14283e-07 -2.4285e-07 -4.10359e-07)
(-2.98119e-06 3.59082e-06 -1.14197e-06)
(-2.09015e-06 2.23235e-06 -6.17898e-06)
(3.18438e-06 3.03552e-08 -7.83479e-06)
(8.73391e-06 -2.14909e-06 -8.19213e-06)
(1.44173e-05 -3.66092e-06 -8.44768e-06)
(1.99251e-05 -4.43038e-06 -8.96614e-06)
(2.52981e-05 -4.47302e-06 -9.8597e-06)
(3.04289e-05 -3.72491e-06 -1.11681e-05)
(3.51868e-05 -2.08651e-06 -1.2916e-05)
(3.89737e-05 7.52847e-07 -1.51103e-05)
(4.13764e-05 4.52065e-06 -1.76763e-05)
(4.14972e-05 9.28538e-06 -2.04323e-05)
(3.93093e-05 1.33126e-05 -2.30248e-05)
(3.53136e-05 1.68209e-05 -2.53517e-05)
(2.96647e-05 1.92921e-05 -2.72309e-05)
(2.30386e-05 2.10364e-05 -2.86411e-05)
(1.56916e-05 2.20787e-05 -2.9582e-05)
(7.99398e-06 2.25644e-05 -3.00688e-05)
(1.8212e-07 2.2521e-05 -3.01032e-05)
(-7.44546e-06 2.19482e-05 -2.96846e-05)
(-1.46544e-05 2.08188e-05 -2.88111e-05)
(-2.10731e-05 1.89894e-05 -2.74685e-05)
(-2.64394e-05 1.64484e-05 -2.56611e-05)
(-3.0098e-05 1.29104e-05 -2.34313e-05)
(-3.19418e-05 8.89858e-06 -2.09543e-05)
(-3.14414e-05 4.19636e-06 -1.83289e-05)
(-2.86201e-05 6.34875e-07 -1.59456e-05)
(-2.43803e-05 -1.81217e-06 -1.40081e-05)
(-1.90854e-05 -2.73255e-06 -1.26128e-05)
(-1.33114e-05 -2.30435e-06 -1.17479e-05)
(-7.16985e-06 -5.605e-07 -1.12718e-05)
(-1.13146e-06 2.24715e-06 -1.07107e-05)
(4.36028e-06 5.06507e-06 -8.57576e-06)
(4.42416e-06 6.41083e-06 -1.92502e-06)
(-5.09457e-06 1.32677e-05 -9.52707e-07)
(-5.30044e-06 1.42005e-05 -8.21416e-06)
(6.03346e-07 1.32399e-05 -1.07906e-05)
(6.96698e-06 1.22745e-05 -1.17311e-05)
(1.35375e-05 1.23325e-05 -1.24952e-05)
(1.98868e-05 1.36993e-05 -1.3558e-05)
(2.61673e-05 1.66079e-05 -1.51293e-05)
(3.23485e-05 2.1442e-05 -1.73152e-05)
(3.84274e-05 2.86098e-05 -2.01748e-05)
(4.35488e-05 3.88624e-05 -2.37388e-05)
(4.71649e-05 5.16506e-05 -2.78838e-05)
(4.74589e-05 6.69567e-05 -3.23678e-05)
(4.43581e-05 8.0462e-05 -3.66053e-05)
(3.9248e-05 9.20451e-05 -4.03123e-05)
(3.24813e-05 0.00010074 -4.33208e-05)
(2.49433e-05 0.000107166 -4.55954e-05)
(1.67593e-05 0.000111293 -4.71172e-05)
(8.31312e-06 0.000113355 -4.79068e-05)
(-2.3536e-07 0.000113378 -4.79623e-05)
(-8.60859e-06 0.000111362 -4.72834e-05)
(-1.66481e-05 0.000107284 -4.58715e-05)
(-2.39658e-05 0.000100914 -4.37085e-05)
(-3.04393e-05 9.23008e-05 -4.08169e-05)
(-3.51792e-05 8.08289e-05 -3.72425e-05)
(-3.78549e-05 6.75426e-05 -3.3163e-05)
(-3.70505e-05 5.2597e-05 -2.88767e-05)
(-3.28413e-05 4.04306e-05 -2.4994e-05)
(-2.70115e-05 3.10495e-05 -2.17708e-05)
(-2.0001e-05 2.51501e-05 -1.93342e-05)
(-1.26419e-05 2.2053e-05 -1.76102e-05)
(-4.91678e-06 2.13204e-05 -1.63408e-05)
(2.3972e-06 2.23182e-05 -1.49279e-05)
(8.81421e-06 2.32682e-05 -1.1463e-05)
(7.38564e-06 2.15379e-05 -1.83292e-06)
(-6.68151e-06 2.40022e-05 -1.87611e-07)
(-7.58316e-06 2.64011e-05 -8.52276e-06)
(-9.31708e-07 2.65365e-05 -1.14787e-05)
(6.51596e-06 2.69478e-05 -1.26035e-05)
(1.44363e-05 2.88018e-05 -1.35526e-05)
(2.22787e-05 3.25159e-05 -1.48469e-05)
(3.03599e-05 3.85377e-05 -1.67375e-05)
(3.87633e-05 4.76223e-05 -1.93633e-05)
(4.77083e-05 6.06382e-05 -2.27848e-05)
(5.57956e-05 7.91624e-05 -2.70564e-05)
(6.21621e-05 0.000102465 -3.2003e-05)
(6.27593e-05 0.000130876 -3.74613e-05)
(5.75338e-05 0.000155278 -4.25803e-05)
(4.98508e-05 0.000176026 -4.70402e-05)
(4.03404e-05 0.000191449 -5.06525e-05)
(3.04256e-05 0.00020288 -5.33678e-05)
(1.99616e-05 0.000210258 -5.51673e-05)
(9.37356e-06 0.00021398 -5.60983e-05)
(-1.30768e-06 0.000214071 -5.61602e-05)
(-1.18216e-05 0.00021053 -5.53521e-05)
(-2.21379e-05 0.000203335 -5.3674e-05)
(-3.18188e-05 0.000192089 -5.1081e-05)
(-4.10086e-05 0.000176887 -4.75947e-05)
(-4.82547e-05 0.000156413 -4.32751e-05)
(-5.29447e-05 0.000132445 -3.83251e-05)
(-5.16481e-05 0.000104644 -3.30826e-05)
(-4.44489e-05 8.23411e-05 -2.84254e-05)
(-3.53532e-05 6.50716e-05 -2.45222e-05)
(-2.50459e-05 5.37406e-05 -2.1546e-05)
(-1.49473e-05 4.68117e-05 -1.93896e-05)
(-4.82905e-06 4.33774e-05 -1.77654e-05)
(4.25294e-06 4.23962e-05 -1.60617e-05)
(1.18181e-05 4.1952e-05 -1.20525e-05)
(9.54082e-06 3.82935e-05 -9.58691e-07)
(-7.71981e-06 3.52901e-05 7.27548e-07)
(-8.78749e-06 3.88669e-05 -8.53058e-06)
(-9.09094e-07 3.99792e-05 -1.18094e-05)
(8.09211e-06 4.18208e-05 -1.30553e-05)
(1.7904e-05 4.5605e-05 -1.41473e-05)
(2.79373e-05 5.18167e-05 -1.56691e-05)
(3.87841e-05 6.10601e-05 -1.79047e-05)
(5.07653e-05 7.45013e-05 -2.10202e-05)
(6.46188e-05 9.37162e-05 -2.50383e-05)
(7.81022e-05 0.000121848 -3.00497e-05)
(9.00135e-05 0.000158552 -3.57618e-05)
(9.11364e-05 0.000205879 -4.23935e-05)
(8.14352e-05 0.00024439 -4.84981e-05)
(6.89034e-05 0.000276291 -5.38791e-05)
(5.44679e-05 0.000299336 -5.82542e-05)
(4.03843e-05 0.000316442 -6.14799e-05)
(2.58533e-05 0.000327467 -6.35782e-05)
(1.13936e-05 0.000333063 -6.46573e-05)
(-3.16684e-06 0.000333232 -6.47227e-05)
(-1.75552e-05 0.000327971 -6.37733e-05)
(-3.19437e-05 0.000317274 -6.18013e-05)
(-4.57869e-05 0.000300485 -5.87019e-05)
(-5.9877e-05 0.000277785 -5.44541e-05)
(-7.189e-05 0.000246281 -4.9215e-05)
(-8.09258e-05 0.000208382 -4.32854e-05)
(-7.88536e-05 0.000161867 -3.68791e-05)
(-6.58305e-05 0.000126573 -3.14827e-05)
(-5.10538e-05 0.000100031 -2.68684e-05)
(-3.54046e-05 8.28614e-05 -2.333e-05)
(-2.12057e-05 7.19652e-05 -2.07256e-05)
(-7.75678e-06 6.57962e-05 -1.87899e-05)
(3.85641e-06 6.28865e-05 -1.68294e-05)
(1.33422e-05 6.12686e-05 -1.23376e-05)
(1.09659e-05 5.60857e-05 1.22003e-07)
(-8.44727e-06 4.61836e-05 1.67331e-06)
(-9.14351e-06 5.06478e-05 -8.63375e-06)
(6.25709e-07 5.25688e-05 -1.22998e-05)
(1.17943e-05 5.57572e-05 -1.36942e-05)
(2.41029e-05 6.14451e-05 -1.4962e-05)
(3.69919e-05 7.00697e-05 -1.67814e-05)
(5.14528e-05 8.22561e-05 -1.94617e-05)
(6.82664e-05 9.94889e-05 -2.31882e-05)
(8.93431e-05 0.000124317 -2.78463e-05)
(0.00011164 0.000162736 -3.35382e-05)
(0.000134501 0.000215864 -3.94163e-05)
(0.000136811 0.000292424 -4.73079e-05)
(0.000118286 0.000349001 -5.45099e-05)
(9.7706e-05 0.000393864 -6.12459e-05)
(7.57055e-05 0.000424904 -6.68269e-05)
(5.55183e-05 0.000448045 -7.07372e-05)
(3.48763e-05 0.000462907 -7.32014e-05)
(1.45379e-05 0.000470499 -7.44565e-05)
(-5.95525e-06 0.000470756 -7.45261e-05)
(-2.62343e-05 0.000463665 -7.34085e-05)
(-4.67593e-05 0.000449286 -7.10765e-05)
(-6.67263e-05 0.000426582 -6.72981e-05)
(-8.8389e-05 0.000395981 -6.18469e-05)
(-0.000108378 0.000351569 -5.52575e-05)
(-0.000126111 0.000295729 -4.82432e-05)
(-0.000122503 0.000220089 -4.05793e-05)
(-9.82054e-05 0.000168921 -3.50513e-05)
(-7.43936e-05 0.000132377 -2.97953e-05)
(-5.10635e-05 0.000109897 -2.56733e-05)
(-3.14358e-05 9.55758e-05 -2.25319e-05)
(-1.3667e-05 8.70219e-05 -2.02243e-05)
(1.38492e-06 8.25092e-05 -1.79361e-05)
(1.37608e-05 8.00026e-05 -1.28231e-05)
(1.20193e-05 7.36707e-05 1.22426e-06)
(-9.04277e-06 5.63225e-05 2.6776e-06)
(-8.86282e-06 6.14614e-05 -8.94118e-06)
(3.5998e-06 6.41659e-05 -1.31138e-05)
(1.7664e-05 6.87563e-05 -1.47133e-05)
(3.31169e-05 7.64971e-05 -1.62093e-05)
(4.94127e-05 8.76161e-05 -1.83988e-05)
(6.79873e-05 0.000102476 -2.16036e-05)
(9.03429e-05 0.000122334 -2.60178e-05)
(0.000120823 0.000150636 -3.12585e-05)
(0.00015597 0.000196775 -3.72204e-05)
(0.000200523 0.000268055 -4.17501e-05)
(0.000206029 0.0003929 -5.06922e-05)
(0.000169718 0.000472013 -5.85802e-05)
(0.000136722 0.000531981 -6.7325e-05)
(0.000104297 0.000571749 -7.48878e-05)
(7.62016e-05 0.000601968 -7.95355e-05)
(4.72875e-05 0.000621407 -8.23806e-05)
(1.89185e-05 0.000631409 -8.38127e-05)
(-9.74908e-06 0.000631768 -8.38871e-05)
(-3.80855e-05 0.000622466 -8.26018e-05)
(-6.69427e-05 0.000603685 -7.98957e-05)
(-9.48889e-05 0.000574028 -7.53885e-05)
(-0.000127058 0.000534763 -6.79602e-05)
(-0.000159429 0.000475205 -5.93758e-05)
(-0.000194884 0.000396843 -5.17071e-05)
(-0.000187529 0.000272808 -4.29869e-05)
(-0.000141125 0.000204419 -3.88619e-05)
(-0.000104435 0.000160325 -3.33711e-05)
(-7.11958e-05 0.000134574 -2.8743e-05)
(-4.52817e-05 0.000117941 -2.50135e-05)
(-2.24141e-05 0.000107308 -2.22768e-05)
(-2.9923e-06 0.000101275 -1.95718e-05)
(1.33927e-05 9.79213e-05 -1.3638e-05)
(1.29662e-05 9.061e-05 2.44422e-06)
(-9.64793e-06 6.518e-05 3.63498e-06)
(-8.0192e-06 7.08121e-05 -9.48156e-06)
(8.1811e-06 7.43775e-05 -1.43051e-05)
(2.60888e-05 8.04556e-05 -1.6171e-05)
(4.55386e-05 9.04494e-05 -1.79582e-05)
(6.58045e-05 0.000104176 -2.06079e-05)
(8.83942e-05 0.000121276 -2.44592e-05)
(0.000115435 0.000141681 -2.97772e-05)
(0.000154205 0.000167867 -3.5628e-05)
(0.000204579 0.00021537 -4.23257e-05)
(0.000293199 0.000300118 -3.89714e-05)
(0.000308068 0.000511323 -4.65334e-05)
(0.000237335 0.000612891 -5.53043e-05)
(0.000188387 0.000685964 -6.82993e-05)
(0.000143089 0.000732927 -7.95471e-05)
(0.000105144 0.000769369 -8.49807e-05)
(6.4841e-05 0.000793016 -8.82084e-05)
(2.51588e-05 0.000805325 -8.98159e-05)
(-1.51013e-05 0.000805807 -8.98958e-05)
(-5.47948e-05 0.000794437 -8.8445e-05)
(-9.51472e-05 0.000771663 -8.53653e-05)
(-0.000133099 0.000735935 -8.0088e-05)
(-0.000178375 0.000689525 -6.89883e-05)
(-0.000226812 0.000616673 -5.61873e-05)
(-0.000296861 0.000515782 -4.77387e-05)
(-0.00027909 0.000305034 -4.02896e-05)
(-0.000188028 0.000225156 -4.40411e-05)
(-0.000136554 0.000179351 -3.78889e-05)
(-9.43842e-05 0.000155627 -3.2773e-05)
(-6.28137e-05 0.000138574 -2.82864e-05)
(-3.45666e-05 0.000126222 -2.50355e-05)
(-9.72293e-06 0.000118635 -2.18098e-05)
(1.21468e-05 0.000114272 -1.47931e-05)
(1.38847e-05 0.000106325 3.92539e-06)
(-1.02872e-05 7.2324e-05 4.70382e-06)
(-6.54197e-06 7.84372e-05 -1.02238e-05)
(1.45126e-05 8.30369e-05 -1.59331e-05)
(3.73148e-05 9.10971e-05 -1.80968e-05)
(6.18396e-05 0.00010431 -2.02102e-05)
(8.67543e-05 0.000122238 -2.33411e-05)
(0.000112843 0.000143765 -2.78811e-05)
(0.000141047 0.000165424 -3.41787e-05)
(0.000183501 0.000188475 -4.16768e-05)
(0.000241547 0.00022883 -4.74596e-05)
(0.000414918 0.000252014 -4.6374e-05)
(0.00045435 0.000627284 -3.73916e-05)
(0.000311805 0.000761806 -4.29534e-05)
(0.00024885 0.000854626 -6.29394e-05)
(0.000190603 0.000913684 -7.93308e-05)
(0.000141256 0.000961994 -8.52392e-05)
(8.69947e-05 0.000993708 -8.93321e-05)
(3.31308e-05 0.00101006 -9.12981e-05)
(-2.17974e-05 0.0010107 -9.13792e-05)
(-7.57305e-05 0.000995603 -8.95718e-05)
(-0.000130187 0.000965082 -8.5623e-05)
(-0.000179788 0.000917757 -7.98753e-05)
(-0.000238506 0.000859416 -6.36315e-05)
(-0.000301254 0.000766703 -4.389e-05)
(-0.000443731 0.000632555 -3.87506e-05)
(-0.000399263 0.000254887 -4.82223e-05)
(-0.000222992 0.000239531 -4.94906e-05)
(-0.000165626 0.000200737 -4.41534e-05)
(-0.000118642 0.000180413 -3.75528e-05)
(-8.45791e-05 0.00016221 -3.22746e-05)
(-5.09417e-05 0.000145889 -2.85302e-05)
(-1.948e-05 0.000135144 -2.4809e-05)
(9.82752e-06 0.000128915 -1.63183e-05)
(1.49656e-05 0.000120365 5.5745e-06)
(-1.07913e-05 7.71583e-05 5.91054e-06)
(-4.13195e-06 8.35804e-05 -1.1227e-05)
(2.33342e-05 8.9075e-05 -1.79866e-05)
(5.29957e-05 9.91377e-05 -2.05398e-05)
(8.51493e-05 0.000115787 -2.30713e-05)
(0.000117921 0.000138661 -2.68017e-05)
(0.000149593 0.00016547 -3.21806e-05)
(0.000180371 0.000187499 -4.09763e-05)
(0.00021977 0.000191424 -5.03581e-05)
(0.000180274 0.000103775 -7.34565e-05)
(0.000488639 0.000222 -7.22709e-05)
(0.000662232 0.000878327 -7.14809e-06)
(0.00040776 0.000948372 -2.72279e-06)
(0.000341071 0.00100941 -2.53668e-05)
(0.000267124 0.00107043 -4.55961e-05)
(0.000200035 0.00112153 -4.69996e-05)
(0.000122627 0.00115814 -4.96875e-05)
(4.5644e-05 0.00117707 -5.12324e-05)
(-3.24819e-05 0.00117788 -5.12909e-05)
(-0.000109564 0.00116055 -4.98654e-05)
(-0.000187287 0.00112547 -4.72644e-05)
(-0.000254895 0.00107572 -4.60215e-05)
(-0.000329912 0.00101562 -2.5932e-05)
(-0.000397225 0.000954263 -3.56007e-06)
(-0.00065607 0.000880632 -8.76691e-06)
(-0.000474974 0.000225241 -7.47831e-05)
(-0.0001603 0.000122935 -7.4587e-05)
(-0.000201938 0.000208141 -5.24376e-05)
(-0.000156737 0.000204195 -4.46328e-05)
(-0.000118951 0.000184729 -3.73031e-05)
(-7.74938e-05 0.000163149 -3.30484e-05)
(-3.55684e-05 0.000148173 -2.8772e-05)
(4.89917e-06 0.000139813 -1.84459e-05)
(1.56094e-05 0.000130913 7.4338e-06)
(-1.12993e-05 7.9252e-05 7.16397e-06)
(-1.15869e-06 8.58417e-05 -1.24875e-05)
(3.38642e-05 9.22577e-05 -2.04556e-05)
(7.1927e-05 0.000104555 -2.34906e-05)
(0.000114059 0.000125886 -2.6499e-05)
(0.00015767 0.000158271 -3.04841e-05)
(0.00019771 0.000204557 -3.55039e-05)
(0.000225555 0.000266855 -3.99306e-05)
(0.000181339 0.000348922 -5.93501e-05)
(0.000179355 0.000397148 -9.7236e-05)
(0.000290526 0.000741974 7.43163e-05)
(0.000319615 0.000947729 4.02143e-05)
(0.000399188 0.00106852 2.6811e-05)
(0.000345621 0.00117599 2.65163e-05)
(0.000260564 0.00125207 2.15266e-05)
(0.000161531 0.00130238 1.59564e-05)
(5.9469e-05 0.00132692 1.32706e-05)
(-4.39758e-05 0.00132785 1.32727e-05)
(-0.00014616 0.00130522 1.59523e-05)
(-0.000245552 0.0012569 2.15209e-05)
(-0.000331348 0.001183 2.65319e-05)
(-0.000386834 0.00107784 2.69138e-05)
(-0.000311593 0.000959329 3.99198e-05)
(-0.000285644 0.000753101 7.26841e-05)
(-0.000175207 0.000408164 -9.37311e-05)
(-0.000172654 0.000363054 -6.09496e-05)
(-0.000205891 0.000282151 -4.43679e-05)
(-0.000166954 0.000223044 -4.18152e-05)
(-0.000113629 0.000182429 -3.83076e-05)
(-5.73662e-05 0.000158574 -3.38289e-05)
(-2.16491e-06 0.000146464 -2.13821e-05)
(1.60973e-05 0.000136968 9.26612e-06)
(-1.15451e-05 7.79015e-05 8.44727e-06)
(2.79176e-06 8.43032e-05 -1.39162e-05)
(4.69156e-05 9.07334e-05 -2.32153e-05)
(9.63856e-05 0.000103233 -2.69059e-05)
(0.000155224 0.000125195 -3.08095e-05)
(0.000225878 0.000159381 -3.61113e-05)
(0.000313034 0.000210606 -4.28459e-05)
(0.000429675 0.000285679 -4.76972e-05)
(0.000564559 0.000396598 -4.97242e-05)
(0.000833644 0.000561571 -3.038e-05)
(0.000862572 0.000153046 5.29157e-05)
(0.000649651 0.000299885 8.37086e-05)
(0.000716265 0.000688695 0.000136411)
(0.000644117 0.000900957 0.00018683)
(0.000512218 0.00104876 0.000215137)
(0.000365933 0.00114601 0.000223898)
(0.000220013 0.00120547 0.000223643)
(7.86893e-05 0.00123366 0.000222531)
(-6.08046e-05 0.00123456 0.000222582)
(-0.00020206 0.00120825 0.000223792)
(-0.000347856 0.00115082 0.000224171)
(-0.000493936 0.00105591 0.000215682)
(-0.00062573 0.000910889 0.000187982)
(-0.000698159 0.000701986 0.000138294)
(-0.000630406 0.000315608 8.69386e-05)
(-0.000850818 0.000155582 5.55293e-05)
(-0.000828662 0.000561946 -2.94888e-05)
(-0.000553697 0.000404802 -5.21065e-05)
(-0.000410337 0.000298115 -5.27555e-05)
(-0.000281521 0.000227542 -5.04862e-05)
(-0.000178405 0.000182524 -4.57998e-05)
(-9.16397e-05 0.000157154 -4.02301e-05)
(-1.41625e-05 0.000144693 -2.50745e-05)
(1.51353e-05 0.000135119 1.11056e-05)
(-1.2087e-05 7.30615e-05 9.67862e-06)
(5.81582e-06 7.89128e-05 -1.52429e-05)
(5.78437e-05 8.43004e-05 -2.58291e-05)
(0.00011644 9.45884e-05 -3.01552e-05)
(0.000187105 0.000112103 -3.48488e-05)
(0.000273328 0.000137615 -4.12421e-05)
(0.000380362 0.00017098 -4.90167e-05)
(0.000518168 0.000209483 -5.47859e-05)
(0.000678411 0.00024201 -5.46993e-05)
(0.000915874 0.000260499 -3.7652e-05)
(0.00102896 0.000123381 -9.44421e-06)
(0.000982094 0.00031614 4.18473e-05)
(0.000938813 0.000511119 0.000142654)
(0.00080474 0.000654502 0.00021022)
(0.000633446 0.000765056 0.000245299)
(0.000447089 0.000837945 0.000259712)
(0.000266642 0.00088342 0.000262613)
(9.43378e-05 0.000905311 0.000262721)
(-7.45261e-05 0.000906066 0.000262779)
(-0.000246701 0.0008857 0.000262783)
(-0.00042691 0.000841786 0.000260035)
(-0.000612913 0.000770476 0.000245933)
(-0.000784266 0.000661423 0.000211581)
(-0.000919008 0.000518835 0.000145008)
(-0.000963538 0.000323514 4.59927e-05)
(-0.00101635 0.000125861 -6.78193e-06)
(-0.000908325 0.000266142 -3.76517e-05)
(-0.000668093 0.000250614 -5.77111e-05)
(-0.000499046 0.000221268 -6.07296e-05)
(-0.000347515 0.000186991 -5.79571e-05)
(-0.000221933 0.000159626 -5.26396e-05)
(-0.000116251 0.000142476 -4.60966e-05)
(-2.21921e-05 0.00013385 -2.85263e-05)
(1.52295e-05 0.000125144 1.31164e-05)
(-1.26753e-05 6.5458e-05 1.08474e-05)
(8.13665e-06 7.065e-05 -1.63297e-05)
(6.68428e-05 7.48364e-05 -2.80474e-05)
(0.000132828 8.26781e-05 -3.293e-05)
(0.000212449 9.57888e-05 -3.83415e-05)
(0.000309222 0.000114186 -4.59099e-05)
(0.000428198 0.000136729 -5.54557e-05)
(0.000576519 0.000161336 -6.45969e-05)
(0.000745382 0.000181469 -6.95528e-05)
(0.000943539 0.000199356 -6.32454e-05)
(0.00107407 0.000162507 -4.22868e-05)
(0.0011143 0.000252076 2.21091e-05)
(0.00106806 0.000372424 0.000127833)
(0.000912054 0.00047169 0.000194516)
(0.000713422 0.00054837 0.000229704)
(0.000499429 0.000597517 0.000238828)
(0.000296756 0.000628185 0.000237963)
(0.000104474 0.000642836 0.000236089)
(-8.31793e-05 0.000643448 0.000236112)
(-0.000275308 0.000630021 0.000238028)
(-0.000477716 0.000600568 0.000238978)
(-0.000691354 0.000552595 0.000230103)
(-0.000890227 0.000476993 0.000195615)
(-0.00104724 0.000378437 0.00012992)
(-0.00109712 0.000258505 2.60136e-05)
(-0.00106312 0.000166874 -3.99626e-05)
(-0.000935535 0.00020489 -6.32086e-05)
(-0.000734326 0.000189318 -7.27415e-05)
(-0.000556229 0.000172166 -7.10265e-05)
(-0.000392998 0.000151521 -6.52827e-05)
(-0.000253322 0.000134499 -5.85373e-05)
(-0.000134318 0.000123516 -5.08758e-05)
(-2.759e-05 0.000117926 -3.11784e-05)
(1.57409e-05 0.00011042 1.51932e-05)
(-1.33916e-05 5.56735e-05 1.18482e-05)
(9.39345e-06 6.00455e-05 -1.71648e-05)
(7.29518e-05 6.29569e-05 -2.97968e-05)
(0.000143931 6.82745e-05 -3.51228e-05)
(0.000228976 7.70421e-05 -4.10878e-05)
(0.000331115 8.89013e-05 -4.9559e-05)
(0.000455059 0.000102537 -6.04486e-05)
(0.00060571 0.000116639 -7.17533e-05)
(0.000775545 0.000127318 -7.93375e-05)
(0.00095965 0.000139345 -7.61749e-05)
(0.00110428 0.000138222 -5.54173e-05)
(0.00118596 0.000194351 5.34077e-06)
(0.00114262 0.000269923 0.000108752)
(0.000973736 0.000332557 0.00016891)
(0.000760617 0.00038147 0.000198954)
(0.000531252 0.000413514 0.000202311)
(0.000315521 0.000433859 0.000197814)
(0.00011092 0.000443709 0.000194093)
(-8.84631e-05 0.000444247 0.00019408)
(-0.00029294 0.000435454 0.00019777)
(-0.000508472 0.000416111 0.000202273)
(-0.000737593 0.00038497 0.000199081)
(-0.000951191 0.000336833 0.000169679)
(-0.0011214 0.000274713 0.0001105)
(-0.00116926 0.000199546 9.03474e-06)
(-0.00109366 0.000142956 -5.32574e-05)
(-0.000950981 0.000145181 -7.63187e-05)
(-0.000763497 0.000134846 -8.27425e-05)
(-0.000583803 0.00012659 -7.85681e-05)
(-0.000417127 0.000115863 -7.09015e-05)
(-0.000270727 0.000106894 -6.30233e-05)
(-0.00014427 0.00010111 -5.44247e-05)
(-2.95121e-05 9.81416e-05 -3.30151e-05)
(1.71179e-05 9.22012e-05 1.68649e-05)
(-1.40451e-05 4.45419e-05 1.26561e-05)
(1.002e-05 4.80491e-05 -1.77753e-05)
(7.69889e-05 4.99864e-05 -3.10951e-05)
(0.000151352 5.34426e-05 -3.67495e-05)
(0.000239824 5.91608e-05 -4.31182e-05)
(0.000344969 6.68367e-05 -5.22476e-05)
(0.000471325 7.55798e-05 -6.41162e-05)
(0.000622626 8.4871e-05 -7.68724e-05)
(0.000792926 9.29906e-05 -8.61063e-05)
(0.000973861 0.000104062 -8.47277e-05)
(0.00112843 0.00011437 -6.36518e-05)
(0.00122966 0.000151337 -4.18517e-06)
(0.00118856 0.000198619 9.76991e-05)
(0.00101327 0.000239565 0.000153737)
(0.000791042 0.000271792 0.000180021)
(0.000551863 0.00029334 0.000179649)
(0.000327725 0.000307145 0.000172731)
(0.000115219 0.000313948 0.000167797)
(-9.1709e-05 0.000314474 0.000167765)
(-0.000304137 0.000308697 0.000172628)
(-0.000528171 0.000295838 0.000179508)
(-0.000767247 0.000275109 0.000179998)
(-0.000990159 0.000243547 0.000154323)
(-0.00116699 0.000203061 9.92319e-05)
(-0.00121306 0.000156227 -7.90152e-07)
(-0.00111777 0.000119235 -6.16148e-05)
(-0.000964564 0.000109721 -8.49593e-05)
(-0.000779832 9.987e-05 -8.96582e-05)
(-0.000599026 9.36168e-05 -8.39439e-05)
(-0.00043076 8.69672e-05 -7.49768e-05)
(-0.000280605 8.18442e-05 -6.62414e-05)
(-0.000149687 7.87556e-05 -5.69166e-05)
(-2.98035e-05 7.71644e-05 -3.42233e-05)
(1.85721e-05 7.25518e-05 1.81462e-05)
(-1.45923e-05 3.25742e-05 1.32288e-05)
(1.02154e-05 3.51369e-05 -1.82139e-05)
(7.9373e-05 3.63128e-05 -3.20078e-05)
(0.000155859 3.83664e-05 -3.78804e-05)
(0.000246385 4.18341e-05 -4.4505e-05)
(0.000353215 4.65706e-05 -5.40381e-05)
(0.000480907 5.2148e-05 -6.64876e-05)
(0.000632801 5.85265e-05 -8.0033e-05)
(0.000804294 6.52062e-05 -9.01038e-05)
(0.000986059 7.49603e-05 -8.94505e-05)
(0.00114697 8.68398e-05 -6.83378e-05)
(0.00125815 0.000111166 -8.7617e-06)
(0.00121853 0.000140914 9.27255e-05)
(0.00103904 0.000167133 0.00014712)
(0.000811023 0.000187938 0.000171659)
(0.000565689 0.00020235 0.000169563)
(0.000336066 0.000211774 0.000161547)
(0.000118297 0.000216589 0.000156071)
(-9.37292e-05 0.000217148 0.000156036)
(-0.000311485 0.000213418 0.000161429)
(-0.000541131 0.00020497 0.000169392)
(-0.00078654 0.00019137 0.000171587)
(-0.00101547 0.000171165 0.000147643)
(-0.00119665 0.000145304 9.41858e-05)
(-0.00124153 0.00011576 -5.62382e-06)
(-0.00113619 9.15913e-05 -6.6401e-05)
(-0.000976241 8.02091e-05 -8.97823e-05)
(-0.000790321 7.12303e-05 -9.38006e-05)
(-0.000607801 6.57956e-05 -8.73166e-05)
(-0.000438238 6.12147e-05 -7.7646e-05)
(-0.000285808 5.80956e-05 -6.83928e-05)
(-0.000152271 5.64178e-05 -5.85938e-05)
(-2.93087e-05 5.55603e-05 -3.50275e-05)
(1.98761e-05 5.22583e-05 1.89762e-05)
(-1.49608e-05 2.02256e-05 1.35653e-05)
(1.02348e-05 2.18129e-05 -1.85143e-05)
(8.06547e-05 2.24109e-05 -3.25926e-05)
(0.000158396 2.3438e-05 -3.85898e-05)
(0.00025017 2.52708e-05 -4.53543e-05)
(0.000358112 2.79534e-05 -5.51032e-05)
(0.000486856 3.14631e-05 -6.7858e-05)
(0.000639652 3.5982e-05 -8.17942e-05)
(0.000812596 4.15799e-05 -9.22574e-05)
(0.00099606 4.94573e-05 -9.18738e-05)
(0.00116082 5.94219e-05 -7.0702e-05)
(0.00127658 7.4268e-05 -1.08776e-05)
(0.00123745 9.08514e-05 9.11743e-05)
(0.00105549 0.000105803 0.000145401)
(0.000823923 0.000117814 0.000169476)
(0.000574825 0.000126554 0.00016684)
(0.000341699 0.000132434 0.000158462)
(0.000120541 0.000135637 0.00015281)
(-9.48202e-05 0.000136267 0.000152777)
(-0.000316046 0.000134282 0.000158351)
(-0.000549352 0.000129483 0.000166678)
(-0.000798753 0.000121615 0.000169413)
(-0.00103151 0.000110188 0.000145929)
(-0.00121551 9.5509e-05 9.26893e-05)
(-0.00125996 7.88508e-05 -7.42735e-06)
(-0.00114983 6.40523e-05 -6.87811e-05)
(-0.000985946 5.4223e-05 -9.23018e-05)
(-0.000798099 4.66334e-05 -9.60926e-05)
(-0.000613778 4.16138e-05 -8.926e-05)
(-0.000442862 3.79884e-05 -7.92471e-05)
(-0.000288811 3.5729e-05 -6.97212e-05)
(-0.000153628 3.45981e-05 -5.9657e-05)
(-2.88442e-05 3.40222e-05 -3.55669e-05)
(2.07465e-05 3.19469e-05 1.94325e-05)
(-1.51345e-05 7.78267e-06 1.36618e-05)
(1.01734e-05 8.36918e-06 -1.86983e-05)
(8.10554e-05 8.43125e-06 -3.28851e-05)
(0.000159326 8.52451e-06 -3.89213e-05)
(0.000251728 8.86895e-06 -4.57224e-05)
(0.000360412 9.68483e-06 -5.55223e-05)
(0.000490084 1.13013e-05 -6.83481e-05)
(0.000644027 1.40431e-05 -8.23643e-05)
(0.000818405 1.83975e-05 -9.29015e-05)
(0.00100341 2.4152e-05 -9.25589e-05)
(0.00116969 3.14387e-05 -7.14078e-05)
(0.00128634 3.78515e-05 -1.15556e-05)
(0.00124689 4.28025e-05 9.10219e-05)
(0.00106372 4.73967e-05 0.000145592)
(0.000830552 5.11765e-05 0.000169812)
(0.000579784 5.45129e-05 0.000167233)
(0.000344943 5.70206e-05 0.000158862)
(0.000122078 5.87091e-05 0.000153213)
(-9.50358e-05 5.94467e-05 0.000153185)
(-0.00031807 5.91836e-05 0.000158763)
(-0.000553284 5.79293e-05 0.000167086)
(-0.00080464 5.55883e-05 0.000169764)
(-0.00103934 5.2422e-05 0.000146124)
(-0.00122489 4.80492e-05 9.25528e-05)
(-0.00126986 4.29037e-05 -7.93414e-06)
(-0.00115883 3.60736e-05 -6.95521e-05)
(-0.000993333 2.84908e-05 -9.31158e-05)
(-0.000803829 2.25141e-05 -9.68953e-05)
(-0.000617913 1.80563e-05 -9.00117e-05)
(-0.000445667 1.52793e-05 -7.99383e-05)
(-0.000290468 1.36922e-05 -7.03538e-05)
(-0.000154337 1.29424e-05 -6.02155e-05)
(-2.86897e-05 1.25748e-05 -3.59176e-05)
(2.11144e-05 1.17476e-05 1.95433e-05)
(-1.51171e-05 -4.45193e-06 1.352e-05)
(1.00256e-05 -4.85762e-06 -1.87683e-05)
(8.05674e-05 -5.38826e-06 -3.28895e-05)
(0.000158639 -6.34193e-06 -3.88815e-05)
(0.000251034 -7.67421e-06 -4.56224e-05)
(0.000360056 -9.00218e-06 -5.5322e-05)
(0.000490475 -9.6159e-06 -6.799e-05)
(0.000645768 -8.95836e-06 -8.17833e-05)
(0.000821601 -5.89393e-06 -9.20826e-05)
(0.00100811 -1.91382e-06 -9.15658e-05)
(0.00117388 4.04787e-06 -7.05153e-05)
(0.00128774 2.59289e-06 -1.06258e-05)
(0.00124689 -4.72093e-06 9.1991e-05)
(0.00106368 -1.10902e-05 0.000147248)
(0.000830836 -1.60912e-05 0.000172138)
(0.000580518 -1.84447e-05 0.000170158)
(0.000345789 -1.94689e-05 0.000162129)
(0.000122929 -1.93361e-05 0.000156643)
(-9.43222e-05 -1.84355e-05 0.000156616)
(-0.000317472 -1.68223e-05 0.000162032)
(-0.000552806 -1.42623e-05 0.000170006)
(-0.000804062 -1.06853e-05 0.00017207)
(-0.00103885 -4.97895e-06 0.000147723)
(-0.00122487 1.57412e-06 9.33941e-05)
(-0.00127162 8.4854e-06 -7.39328e-06)
(-0.00116347 8.92933e-06 -6.88646e-05)
(-0.000998418 2.25033e-06 -9.23194e-05)
(-0.000807402 -2.44236e-06 -9.62743e-05)
(-0.000620061 -6.26544e-06 -8.962e-05)
(-0.000446548 -7.87714e-06 -7.97525e-05)
(-0.000290716 -8.46281e-06 -7.03123e-05)
(-0.000154361 -8.57972e-06 -6.02838e-05)
(-2.88192e-05 -8.60325e-06 -3.6089e-05)
(2.09953e-05 -8.1616e-06 1.93128e-05)
(-1.49315e-05 -1.61755e-05 1.31437e-05)
(9.68826e-06 -1.75627e-05 -1.87102e-05)
(7.89636e-05 -1.88747e-05 -3.25816e-05)
(0.000155942 -2.12538e-05 -3.84412e-05)
(0.000247461 -2.49023e-05 -4.50136e-05)
(0.000356145 -2.93417e-05 -5.4437e-05)
(0.000486897 -3.3457e-05 -6.67046e-05)
(0.000643725 -3.62252e-05 -7.99303e-05)
(0.000821319 -3.51426e-05 -8.96103e-05)
(0.00101049 -3.23478e-05 -8.85346e-05)
(0.00117408 -2.34482e-05 -6.7558e-05)
(0.00128011 -3.27493e-05 -7.59195e-06)
(0.00123612 -5.57423e-05 9.53798e-05)
(0.00105422 -7.62976e-05 0.000152333)
(0.000823936 -9.2758e-05 0.000178917)
(0.000576542 -0.000102277 0.000178564)
(0.000343988 -0.000107617 0.00017151)
(0.000123064 -0.000109316 0.000166483)
(-9.25114e-05 -0.000108172 0.000166436)
(-0.000313863 -0.000104242 0.000171346)
(-0.000547293 -9.69184e-05 0.000178294)
(-0.00079606 -8.57751e-05 0.000178674)
(-0.00102881 -6.84105e-05 0.000152567)
(-0.00121406 -4.77053e-05 9.64314e-05)
(-0.00126457 -2.57338e-05 -5.06675e-06)
(-0.00116444 -1.80474e-05 -6.62626e-05)
(-0.00100142 -2.79466e-05 -8.96114e-05)
(-0.000807849 -3.18632e-05 -9.40897e-05)
(-0.000618977 -3.42939e-05 -8.79985e-05)
(-0.000444302 -3.33679e-05 -7.86259e-05)
(-0.000288623 -3.16831e-05 -6.95308e-05)
(-0.000153087 -3.02538e-05 -5.97931e-05)
(-2.89219e-05 -2.94476e-05 -3.60283e-05)
(2.04792e-05 -2.76057e-05 1.87174e-05)
(-1.4655e-05 -2.69087e-05 1.25334e-05)
(8.91048e-06 -2.92053e-05 -1.84986e-05)
(7.57175e-05 -3.14744e-05 -3.1919e-05)
(0.000150321 -3.56655e-05 -3.75463e-05)
(0.000239506 -4.23276e-05 -4.38165e-05)
(0.000346344 -5.10312e-05 -5.2734e-05)
(0.000476058 -6.03821e-05 -6.42413e-05)
(0.000634024 -6.87335e-05 -7.63059e-05)
(0.000814113 -7.12037e-05 -8.46511e-05)
(0.00101052 -6.97203e-05 -8.20566e-05)
(0.00117095 -4.77761e-05 -6.16284e-05)
(0.00125993 -6.59158e-05 -1.86183e-06)
(0.00120937 -0.000113646 0.000102664)
(0.00103057 -0.000154363 0.000163102)
(0.000806284 -0.000186821 0.000192852)
(0.000565762 -0.000206269 0.000195813)
(0.000338479 -0.000217608 0.000190841)
(0.000122221 -0.000221862 0.000186818)
(-8.91748e-05 -0.000220338 0.00018671)
(-0.000306006 -0.00021307 0.000190491)
(-0.000534447 -0.000198985 0.000195216)
(-0.000776867 -0.000177156 0.00019215)
(-0.00100432 -0.000143355 0.000162763)
(-0.00118749 -0.000102406 0.000103127)
(-0.00124531 -5.67513e-05 3.38561e-07)
(-0.00116205 -4.12438e-05 -6.0772e-05)
(-0.00100205 -6.41907e-05 -8.3641e-05)
(-0.000801561 -6.71836e-05 -8.9554e-05)
(-0.00061064 -6.66739e-05 -8.46603e-05)
(-0.000435492 -6.10716e-05 -7.62837e-05)
(-0.000281715 -5.53946e-05 -6.78195e-05)
(-0.000148949 -5.12934e-05 -5.85886e-05)
(-2.81914e-05 -4.91111e-05 -3.56232e-05)
(1.9866e-05 -4.58607e-05 1.76834e-05)
(-1.43201e-05 -3.61468e-05 1.17334e-05)
(7.54781e-06 -3.93137e-05 -1.80934e-05)