/*--------------------------------*- C++ -*----------------------------------*\
| =========                 |                                                 |
| \\      /  F ield         | OpenFOAM: The Open Source CFD Toolbox           |
|  \\    /   O peration     | Version:  2112                                  |
|   \\  /    A nd           | Website:  www.openfoam.com                      |
|    \\/     M anipulation  |                                                 |
\*---------------------------------------------------------------------------*/
FoamFile
{
    version     2.0;
    format      ascii;
    arch        "LSB;label=32;scalar=64";
    class       volScalarField;
    location    "3";
    object      epsilon;
}
// * * * * * * * * * * * * * * * * * * * * * * * * * * * * * * * * * * * * * //

dimensions      [0 2 -3 0 0 0 0];

internalField   nonuniform List<scalar> 
64906
(
0.000317194
0.000366074
0.000395641
0.00040913
0.000414648
0.000416734
0.000417468
0.00041771
0.000417781
0.000417794
0.000417793
0.000417787
0.000417778
0.000417768
0.000417756
0.000417743
0.000417728
0.000417714
0.000417707
0.000417715
0.000417729
0.000417742
0.000417753
0.000417761
0.000417764
0.000417751
0.000417687
0.000417459
0.000416736
0.000414659
0.000409146
0.000395665
0.0003661
0.000317213
0.0003661
0.000656267
0.000824619
0.000909245
0.000948955
0.000966183
0.000973031
0.000975476
0.000976188
0.00097626
0.00097613
0.000975976
0.00097587
0.000975819
0.000975802
0.000975796
0.00097579
0.000975787
0.000975787
0.000975792
0.000975799
0.000975806
0.000975818
0.000975851
0.000975884
0.00097579
0.000975144
0.000972821
0.000966102
0.000948974
0.000909325
0.000824723
0.000656358
0.000366151
0.000395715
0.00082469
0.00108791
0.00122874
0.00129929
0.00133194
0.00134567
0.00135067
0.00135191
0.00135165
0.00135094
0.00135028
0.00134986
0.00134968
0.00134964
0.00134964
0.00134964
0.00134963
0.00134964
0.00134965
0.00134966
0.00134966
0.00134969
0.00134982
0.00135006
0.00135011
0.00134905
0.0013445
0.00133128
0.00129905
0.00122878
0.00108807
0.000824858
0.000395801
0.000409239
0.000909389
0.00122884
0.001407
0.00149999
0.00154465
0.00156378
0.00157027
0.00157082
0.00156883
0.00156618
0.00156398
0.0015626
0.00156198
0.00156178
0.00156168
0.0015616
0.00156155
0.00156156
0.00156162
0.00156171
0.00156182
0.001562
0.00156253
0.0015636
0.00156483
0.00156474
0.00155961
0.00154209
0.00149876
0.00140663
0.0012289
0.000909586
0.000409355
0.000414777
0.000949148
0.00129945
0.00150008
0.00160739
0.00165969
0.00168144
0.00168689
0.00168381
0.00167677
0.00166917
0.00166341
0.00165994
0.00165844
0.00165796
0.00165761
0.00165729
0.00165711
0.00165712
0.00165732
0.00165765
0.00165801
0.00165846
0.00165985
0.0016629
0.00166741
0.00167154
0.00166972
0.00165227
0.00160351
0.00149852
0.00129911
0.000949279
0.000414913
0.000416873
0.000966402
0.00133216
0.00154484
0.00165983
0.00171535
0.00173591
0.00173584
0.00172327
0.00170444
0.00168601
0.00167359
0.00166683
0.00166436
0.0016638
0.00166305
0.00166225
0.00166181
0.00166182
0.00166229
0.00166311
0.00166387
0.0016644
0.00166674
0.00167304
0.00168404
0.00169853
0.00170743
0.00169726
0.00165018
0.00154063
0.00133084
0.000966294
0.000417014
0.00041761
0.000973259
0.00134594
0.00156413
0.00168194
0.0017365
0.00175097
0.00173814
0.0017055
0.00166191
0.00162205
0.00160081
0.0015917
0.00158993
0.00159063
0.00158952
0.00158802
0.0015872
0.00158721
0.00158806
0.00158958
0.00159071
0.00158999
0.00159164
0.0016003
0.00162009
0.00165584
0.00168897
0.0016977
0.00166131
0.00155491
0.00134274
0.000972643
0.000417733
0.000417846
0.000975713
0.00135106
0.00157101
0.00168833
0.00173816
0.00174068
0.0017046
0.001634
0.00154076
0.00145906
0.00143683
0.00143565
0.00144118
0.00144656
0.00144578
0.00144381
0.00144273
0.00144275
0.00144385
0.00144585
0.00144665
0.00144127
0.00143565
0.00143645
0.00145733
0.00153501
0.00161761
0.00166374
0.00164959
0.00155374
0.00134482
0.00097425
0.00041792
0.000417907
0.000976455
0.00135255
0.0015724
0.00168729
0.00172966
0.00171472
0.0016428
0.00150665
0.00131296
0.00113864
0.00116587
0.00120949
0.00123763
0.00125266
0.00125442
0.0012534
0.00125271
0.00125273
0.00125344
0.00125449
0.00125277
0.00123775
0.00120958
0.00116573
0.00113744
0.00130801
0.00149102
0.0016024
0.00162354
0.00154447
0.00134235
0.000973869
0.000417901
0.000417906
0.000976604
0.00135276
0.00157193
0.00168405
0.00171868
0.00168478
0.00156908
0.00133492
0.000942071
0.000556221
0.000784554
0.000954341
0.00102559
0.00105198
0.00105953
0.00106129
0.0010616
0.00106161
0.00106133
0.00105959
0.00105209
0.00102573
0.000954525
0.000784727
0.000555886
0.000938574
0.00132042
0.00152941
0.00159395
0.00153344
0.00133875
0.000972932
0.000417804
0.00041789
0.00097661
0.00135278
0.00157163
0.0016824
0.00171302
0.00166838
0.00152315
0.0012007
0.000575741
0.000490862
0.000775994
0.000879907
0.000911755
0.000921603
0.000924212
0.000924765
0.000924772
0.000924232
0.000921642
0.000911821
0.00088002
0.000776177
0.00049097
0.000574298
0.00118725
0.00148391
0.0015777
0.00152773
0.00133689
0.000972395
0.000417732
0.000417876
0.000976629
0.00135303
0.00157237
0.00168423
0.00171761
0.00168066
0.00155922
0.00131667
0.000915495
0.000537439
0.000709538
0.00085312
0.000910993
0.000928463
0.000936498
0.000938426
0.000938623
0.00093862
0.000938416
0.000936484
0.000928444
0.000910978
0.000853104
0.000709389
0.00053693
0.000911698
0.00130202
0.00151941
0.00158957
0.0015319
0.00133828
0.000972687
0.000417736
0.000417861
0.000976693
0.00135351
0.00157391
0.00168837
0.00172807
0.00170627
0.00162068
0.00146142
0.00123406
0.00101789
0.000975305
0.000961337
0.00095867
0.000957976
0.000958619
0.000958465
0.000958199
0.000958191
0.000958441
0.000958576
0.000957904
0.000958554
0.000961123
0.000974799
0.00101637
0.00122895
0.00144574
0.00158008
0.00161451
0.00154172
0.00134177
0.000973591
0.000417778
0.000417842
0.000976766
0.00135404
0.00157559
0.00169282
0.00173886
0.00173065
0.00167225
0.00156232
0.00140858
0.00124532
0.0011238
0.00103515
0.00099522
0.000980791
0.000976123
0.000974469
0.000973881
0.000973869
0.000974432
0.000976059
0.000980689
0.000995056
0.00103487
0.0011232
0.00124346
0.00140284
0.00154592
0.00163091
0.00163814
0.00155177
0.00134551
0.000974582
0.000417815
0.000417818
0.000976821
0.00135447
0.00157694
0.00169631
0.00174693
0.00174773
0.00170519
0.00161919
0.00149283
0.00134195
0.0011937
0.00107415
0.00101618
0.00099411
0.00098661
0.000984106
0.000983295
0.000983277
0.000984055
0.000986529
0.000993991
0.00101599
0.00107385
0.00119306
0.00133996
0.0014868
0.00160233
0.0016633
0.00165461
0.0015592
0.00134837
0.000975343
0.000417826
0.000417791
0.000976847
0.00135476
0.00157784
0.00169855
0.0017519
0.00175769
0.00172306
0.00164743
0.00153067
0.00138196
0.00122377
0.00109169
0.00102603
0.00100047
0.000991663
0.000988714
0.000987733
0.000987707
0.000988649
0.00099157
0.00100035
0.00102584
0.00109137
0.001223
0.00137991
0.00152448
0.00163031
0.00168081
0.00166413
0.00156371
0.00135014
0.000975803
0.000417811
0.000417761
0.00097685
0.00135493
0.00157835
0.00169978
0.00175452
0.00176268
0.00173154
0.00165997
0.00154631
0.00139757
0.00123555
0.00109861
0.00102999
0.00100304
0.000993675
0.000990499
0.000989381
0.000989345
0.00099042
0.000993572
0.0010029
0.00102979
0.00109829
0.00123477
0.00139549
0.00154005
0.00164271
0.00168907
0.00166886
0.00156604
0.00135108
0.000976029
0.000417779
0.000417732
0.000976842
0.001355
0.00157858
0.00170031
0.00175562
0.00176469
0.00173481
0.00166459
0.00155181
0.00140284
0.00123948
0.00110091
0.0010313
0.00100388
0.000994309
0.000991022
0.000989797
0.00098975
0.000990931
0.000994198
0.00100373
0.0010311
0.00110059
0.0012387
0.00140075
0.00154552
0.00164728
0.00169226
0.00167076
0.001567
0.00135148
0.000976111
0.00041774
0.000417709
0.000976833
0.00135502
0.00157861
0.00170036
0.00175568
0.00176478
0.00173493
0.00166473
0.00155197
0.00140301
0.00123963
0.00110102
0.00103137
0.0010039
0.000994302
0.000990975
0.000989687
0.00098963
0.000990874
0.000994184
0.00100376
0.00103117
0.0011007
0.00123886
0.00140093
0.0015457
0.00164743
0.00169239
0.00167085
0.00156707
0.00135151
0.000976106
0.000417703
0.000417706
0.000976828
0.00135497
0.00157844
0.00169992
0.00175472
0.00176295
0.00173189
0.0016604
0.00154682
0.00139811
0.00123606
0.00109895
0.00103019
0.00100313
0.000993667
0.000990376
0.000989094
0.000989033
0.000990271
0.000993546
0.00100298
0.00102999
0.00109864
0.00123531
0.00139607
0.0015406
0.00164318
0.00168946
0.00166915
0.00156623
0.00135119
0.000976022
0.000417694
0.000417727
0.000976825
0.00135483
0.00157799
0.00169879
0.00175224
0.00175815
0.00172367
0.0016482
0.00153158
0.00138295
0.00122474
0.00109233
0.00102643
0.00100067
0.000991697
0.000988568
0.00098738
0.000987326
0.000988464
0.000991576
0.00100053
0.00102624
0.00109204
0.00122404
0.00138099
0.00152548
0.00163115
0.00168147
0.00166462
0.00156404
0.00135032
0.000975809
0.000417717
0.000417754
0.000976807
0.00135457
0.00157715
0.00169664
0.00174741
0.00174839
0.00170607
0.00162034
0.00149426
0.00134359
0.00119521
0.00107519
0.00101683
0.000994464
0.000986731
0.000984005
0.000983
0.000982958
0.000983912
0.000986618
0.000994336
0.00101667
0.00107495
0.00119462
0.00134177
0.00148839
0.00160361
0.00166426
0.0016553
0.00155966
0.00134862
0.000975376
0.000417732
0.000417778
0.000976761
0.00135416
0.00157584
0.00169321
0.00173943
0.00173146
0.00167339
0.00156389
0.00141067
0.00124784
0.0011259
0.00103659
0.000996033
0.000981181
0.000976212
0.000974331
0.000973595
0.000973566
0.000974257
0.000976115
0.000981069
0.000995901
0.00103642
0.00112553
0.00124629
0.00140521
0.00154765
0.00163213
0.00163899
0.00155233
0.00134582
0.000974642
0.000417722
0.000417797
0.000976684
0.00135361
0.00157412
0.00168873
0.00172862
0.00170709
0.0016219
0.00146328
0.00123677
0.0010214
0.000978187
0.000962502
0.000958767
0.000957456
0.000957711
0.000957341
0.000956966
0.000956944
0.000957279
0.00095761
0.000957309
0.000958578
0.00096234
0.000978073
0.00102036
0.00123203
0.00144769
0.00158127
0.00161528
0.00154224
0.00134208
0.000973659
0.000417687
0.000417809
0.000976562
0.00135298
0.00157233
0.00168424
0.00171774
0.00168102
0.00156002
0.00131828
0.0009183
0.000538988
0.000710487
0.000850581
0.000906461
0.000922681
0.000930095
0.00093178
0.000931881
0.000931855
0.000931685
0.000929873
0.000922215
0.000905686
0.00084974
0.000710378
0.000538558
0.000914842
0.00130322
0.00151969
0.00158965
0.00153201
0.00133838
0.000972691
0.000417644
0.000417807
0.000976312
0.00135215
0.00157066
0.00168117
0.00171165
0.00166693
0.00152165
0.00119951
0.000575353
0.00048515
0.000759546
0.000856819
0.000884454
0.000892705
0.000894828
0.000895216
0.000895137
0.000894522
0.000891911
0.000882615
0.000853288
0.000754585
0.000482382
0.00057272
0.00118351
0.00148043
0.00157539
0.00152643
0.00133627
0.000972129
0.000417623
0.000417758
0.000975547
0.00135038
0.00156825
0.00167935
0.00171323
0.00167868
0.00156215
0.00132698
0.000933927
0.000549763
0.000750786
0.000897453
0.000947122
0.000959651
0.00096324
0.000964295
0.000964498
0.000964338
0.000963595
0.00096115
0.000954144
0.000935167
0.000877326
0.000731936
0.000542397
0.000920227
0.00130376
0.00151737
0.00158611
0.00152864
0.00133612
0.000971846
0.000417615
0.000417543
0.000973164
0.00134538
0.00156161
0.00167367
0.00171395
0.00169703
0.00162206
0.00148011
0.00127572
0.00108223
0.00106905
0.00106434
0.00104211
0.00102749
0.00102164
0.00101976
0.00101918
0.00101892
0.00101855
0.00101772
0.00101626
0.0010147
0.00101244
0.00101347
0.00103736
0.00123864
0.00144452
0.00157192
0.0016035
0.00153139
0.00133458
0.000970482
0.000417485
0.00041683
0.000966426
0.00133194
0.00154327
0.00165413
0.00169942
0.001698
0.00165618
0.00157429
0.00145873
0.00133684
0.00124994
0.00116569
0.00108754
0.00104965
0.00103563
0.00103119
0.00102993
0.0010296
0.0010296
0.00103021
0.00103317
0.0010443
0.00107763
0.00115475
0.00125791
0.00140018
0.00152777
0.00160238
0.00160601
0.00152275
0.00132483
0.000964824
0.000416851
0.000414758
0.000949294
0.0012996
0.00149956
0.00160446
0.00165056
0.00165876
0.00163825
0.00159133
0.00151968
0.00142994
0.00133189
0.00122532
0.00112926
0.00108251
0.00106491
0.00105922
0.0010576
0.00105724
0.00105744
0.00105878
0.0010639
0.00108056
0.00112647
0.00122426
0.00134022
0.0014546
0.00154268
0.00158654
0.00157369
0.00148697
0.00129556
0.000948565
0.000414837
0.00040924
0.000909628
0.00122927
0.00140729
0.00149922
0.00154073
0.00155253
0.00154432
0.00151864
0.00147484
0.00141264
0.00133435
0.00124652
0.00116796
0.00112605
0.00110902
0.00110316
0.00110147
0.00110112
0.00110138
0.00110299
0.00110866
0.00112537
0.00116717
0.00124698
0.00133843
0.00142079
0.00147853
0.00150187
0.00148153
0.00140059
0.00122744
0.000909494
0.000409358
0.000395746
0.00082498
0.00108849
0.00122948
0.00129979
0.00133125
0.00134178
0.00133976
0.00132751
0.0013041
0.00126792
0.00121932
0.00116373
0.00111405
0.0010854
0.00107277
0.0010682
0.00106681
0.00106651
0.00106678
0.00106813
0.00107263
0.00108519
0.00111389
0.00116407
0.00122075
0.00126979
0.00130191
0.00131153
0.00129154
0.00122682
0.00108808
0.000825177
0.000395876
0.000366159
0.000656526
0.000825135
0.000909993
0.000949818
0.000966861
0.000972841
0.000973032
0.000968917
0.000959987
0.000945031
0.000923813
0.000898853
0.000876127
0.000862283
0.000855822
0.00085336
0.000852565
0.000852396
0.000852573
0.000853368
0.000855822
0.000862268
0.000876141
0.000899004
0.000924207
0.000945211
0.00095801
0.000960172
0.000947455
0.000909563
0.000825359
0.0006568
0.000366272
0.000317246
0.000366209
0.000395897
0.000409504
0.000415133
0.000417317
0.000418111
0.000418304
0.00041809
0.000417382
0.000416105
0.000414059
0.000411423
0.000408853
0.000407227
0.00040642
0.000406057
0.00040588
0.000405817
0.00040589
0.000406066
0.000406423
0.00040722
0.000408836
0.000411401
0.00041404
0.000416057
0.000417158
0.000417131
0.000415285
0.000409752
0.000396119
0.000366355
0.00031732
0.000419828
0.000597189
0.000709938
0.000767095
0.000793462
0.000804654
0.000809007
0.000810523
0.000810943
0.000810962
0.000810851
0.000810719
0.000810612
0.000810538
0.000810488
0.000810452
0.000810425
0.000810409
0.000810407
0.000810419
0.000810444
0.000810477
0.000810522
0.000810582
0.000810643
0.000810621
0.000810248
0.00080881
0.000804538
0.000793408
0.000767081
0.000709946
0.000597207
0.000419847
0.000597195
0.000729775
0.000857282
0.000929455
0.000965223
0.000981261
0.000987776
0.000990115
0.000990761
0.000990768
0.000990569
0.000990348
0.000990179
0.000990074
0.000990013
0.000989975
0.00098995
0.000989937
0.000989938
0.000989952
0.000989978
0.000990015
0.00099007
0.000990155
0.000990245
0.000990211
0.00098963
0.000987419
0.000981043
0.000965117
0.000929421
0.000857285
0.00072979
0.000597216
0.000709992
0.000857312
0.00101302
0.00110662
0.00115578
0.00117909
0.00118901
0.00119262
0.00119346
0.00119317
0.00119254
0.00119194
0.00119152
0.00119128
0.00119115
0.00119109
0.00119104
0.00119102
0.00119102
0.00119104
0.00119109
0.00119116
0.00119127
0.00119147
0.00119174
0.00119188
0.00119119
0.00118792
0.0011784
0.00115542
0.00110648
0.00101301
0.00085734
0.000710041
0.000767203
0.000929524
0.00110666
0.00121676
0.00127666
0.00130599
0.00131866
0.00132293
0.00132322
0.00132179
0.00131994
0.00131838
0.00131737
0.00131683
0.00131658
0.00131644
0.00131634
0.00131629
0.00131629
0.00131635
0.00131645
0.00131659
0.00131682
0.00131729
0.00131809
0.00131898
0.00131896
0.00131558
0.001304
0.00127558
0.00121629
0.00110653
0.000929535
0.000767268
0.000793612
0.000965324
0.00115587
0.00127671
0.00134381
0.00137704
0.00139095
0.00139441
0.00139241
0.00138794
0.00138316
0.00137954
0.00137739
0.00137636
0.00137592
0.00137566
0.00137545
0.00137533
0.00137533
0.00137546
0.00137567
0.00137594
0.00137635
0.00137729
0.00137917
0.00138195
0.00138443
0.00138314
0.00137193
0.00134097
0.0012754
0.00115539
0.000965231
0.000793644
0.000804832
0.000981383
0.00117921
0.00130611
0.00137714
0.00141192
0.00142489
0.00142491
0.00141723
0.00140588
0.00139502
0.00138765
0.00138387
0.00138238
0.00138185
0.0013815
0.00138113
0.00138089
0.0013809
0.00138114
0.00138152
0.00138187
0.00138237
0.00138378
0.00138724
0.00139366
0.00140196
0.0014069
0.00140015
0.00137057
0.00130298
0.00117798
0.000981019
0.000804731
0.000809201
0.000987913
0.00118919
0.0013189
0.00139129
0.00142527
0.00143445
0.00142684
0.0014075
0.00138234
0.00136004
0.00134709
0.00134237
0.00134142
0.0013414
0.00134133
0.00134087
0.00134051
0.00134051
0.00134088
0.00134135
0.00134143
0.00134143
0.00134229
0.00134669
0.00135865
0.00137823
0.00139664
0.00140085
0.00137776
0.00131241
0.00118653
0.000987016
0.000808809
0.000810732
0.000990278
0.0011929
0.00132346
0.00139537
0.00142639
0.00142842
0.00140734
0.00136695
0.00131621
0.00127489
0.00125478
0.00125377
0.00125702
0.00125897
0.00126043
0.00126036
0.00126001
0.00126002
0.00126038
0.00126046
0.00125901
0.00125704
0.00125373
0.00125443
0.00127354
0.0013121
0.0013559
0.00138079
0.0013706
0.00131166
0.001188
0.000988525
0.000809851
0.000811179
0.000990983
0.00119395
0.00132433
0.00139469
0.00142121
0.00141315
0.00137242
0.00129905
0.0012061
0.00114656
0.00110674
0.00112264
0.00113854
0.00114448
0.00115065
0.00115233
0.00115242
0.00115243
0.00115235
0.00115069
0.00114453
0.00113859
0.00112264
0.00110649
0.00114527
0.00120202
0.00128795
0.00134563
0.00135482
0.00130565
0.00118619
0.000988126
0.000809646
0.000811249
0.000991103
0.00119405
0.00132395
0.00139258
0.0014146
0.00139624
0.00133428
0.00122274
0.00108776
0.00126824
0.000923989
0.000971715
0.00101175
0.00102236
0.00103749
0.00104238
0.00104331
0.00104332
0.00104241
0.00103753
0.00102241
0.00101183
0.000971791
0.000923856
0.00126588
0.0010833
0.00121142
0.00130726
0.0013376
0.00129862
0.00118357
0.000987191
0.00080908
0.000811222
0.000991081
0.00119399
0.00132364
0.00139144
0.00141122
0.00138772
0.00131596
0.00120065
0.00136004
0.000973802
0.00085868
0.000910289
0.00093748
0.00094242
0.000943017
0.000943035
0.000943038
0.000943028
0.00094244
0.000937518
0.000910353
0.000858761
0.000973957
0.00135036
0.00118867
0.00128868
0.00132885
0.00129498
0.00118215
0.000986622
0.000808715
0.000811191
0.000991081
0.0011941
0.00132401
0.00139237
0.0014135
0.0013931
0.00132718
0.00120849
0.0010587
0.00117007
0.000860595
0.000930086
0.000985958
0.00103079
0.00100955
0.0010007
0.000998635
0.00099863
0.00100068
0.00100952
0.00103077
0.000985935
0.000930035
0.00086027
0.00116738
0.00105409
0.00119703
0.00129998
0.00133418
0.00129712
0.0011829
0.000986829
0.000808809
0.00081118
0.000991133
0.00119438
0.00132491
0.0013948
0.0014195
0.00140709
0.00135775
0.00126893
0.00114968
0.00104904
0.000976438
0.000972447
0.000976462
0.000984811
0.000977737
0.000973968
0.000972835
0.000972831
0.000973955
0.000977715
0.000984785
0.000976405
0.000972308
0.000976007
0.0010476
0.00114546
0.00125762
0.00133059
0.00134813
0.00130301
0.00118518
0.000987622
0.000809237
0.000811176
0.000991204
0.00119472
0.00132593
0.00139749
0.00142595
0.00142137
0.00138691
0.00132282
0.00123436
0.00114072
0.00106441
0.00101816
0.000989994
0.000979478
0.000974148
0.000971988
0.000971304
0.0009713
0.000971976
0.000974124
0.000979436
0.000989909
0.00101798
0.00106394
0.00113927
0.0012301
0.00131146
0.00135968
0.0013623
0.00130931
0.00118771
0.000988534
0.000809717
0.000811164
0.000991264
0.00119499
0.00132677
0.00139964
0.0014309
0.00143178
0.00140679
0.0013567
0.00128379
0.0011972
0.00111303
0.0010482
0.00100492
0.000986339
0.000979644
0.000977474
0.000976856
0.000976852
0.00097746
0.000979618
0.000986291
0.00100483
0.00104801
0.00111254
0.0011957
0.00127945
0.00134523
0.00137942
0.00137254
0.00131409
0.0011897
0.000989257
0.000810075
0.000811142
0.000991301
0.00119518
0.00132733
0.00140103
0.00143398
0.00143796
0.00141794
0.00137449
0.00130808
0.00122401
0.0011357
0.00106305
0.00101333
0.000991382
0.000983675
0.0009813
0.000980656
0.000980651
0.000981285
0.000983648
0.000991331
0.00101323
0.00106285
0.00113519
0.00122249
0.00130368
0.00136293
0.00139045
0.00137858
0.00131702
0.00119094
0.000989709
0.000810274
0.000811113
0.000991318
0.00119529
0.00132764
0.00140178
0.0014356
0.00144108
0.00142331
0.00138261
0.00131858
0.00123513
0.00114495
0.00106916
0.00101692
0.000993668
0.000985497
0.000982997
0.000982323
0.000982317
0.000982981
0.000985469
0.000993617
0.00101682
0.00106896
0.00114442
0.00123359
0.00131414
0.00137099
0.00139574
0.0013816
0.00131853
0.0011916
0.000989943
0.000810353
0.000811087
0.000991323
0.00119533
0.00132778
0.00140211
0.00143627
0.00144233
0.00142539
0.00138563
0.00132232
0.00123896
0.00114808
0.00107122
0.00101814
0.000994449
0.00098611
0.000983557
0.000982863
0.000982855
0.00098354
0.000986081
0.000994396
0.00101804
0.00107102
0.00114755
0.00123742
0.00131787
0.00137398
0.00139778
0.00138281
0.00131915
0.00119187
0.000990036
0.000810364
0.00081107
0.000991322
0.00119534
0.00132779
0.00140212
0.0014363
0.00144237
0.00142544
0.00138569
0.00132239
0.00123904
0.00114816
0.00107128
0.00101818
0.000994472
0.000986121
0.000983559
0.000982855
0.000982847
0.00098354
0.000986091
0.000994419
0.00101808
0.00107108
0.00114763
0.0012375
0.00131795
0.00137405
0.00139782
0.00138284
0.00131917
0.00119188
0.000990037
0.000810342
0.00081107
0.000991315
0.0011953
0.00132767
0.00140183
0.00143568
0.00144119
0.00142345
0.00138279
0.0013188
0.00123538
0.0011452
0.00106936
0.00101706
0.000993749
0.000985542
0.000983017
0.00098232
0.000982311
0.000982999
0.000985513
0.000993698
0.00101696
0.00106917
0.00114469
0.00123386
0.00131438
0.00137119
0.00139588
0.00138171
0.0013186
0.00119163
0.000989948
0.000810296
0.000811083
0.000991299
0.0011952
0.00132738
0.00140111
0.00143411
0.00143814
0.00141818
0.00137481
0.00130848
0.00122448
0.00113619
0.00106344
0.0010136
0.000991555
0.000983791
0.00098138
0.000980708
0.0009807
0.000981364
0.000983766
0.000991511
0.00101352
0.00106326
0.0011357
0.001223
0.00130412
0.00136328
0.0013907
0.00137876
0.00131713
0.001191
0.000989722
0.0008102
0.000811099
0.000991263
0.00119502
0.00132684
0.00139976
0.00143108
0.00143203
0.00140715
0.0013572
0.00128444
0.00119798
0.00111382
0.00104884
0.00100537
0.000986622
0.000979854
0.000977647
0.000977005
0.000977001
0.000977636
0.000979837
0.00098659
0.0010053
0.0010487
0.00111339
0.00119656
0.00128016
0.00134576
0.00137979
0.00137279
0.00131424
0.00118978
0.000989279
0.000809994
0.000811105
0.0009912
0.00119474
0.001326
0.00139762
0.00142615
0.00142168
0.00138737
0.00132349
0.00123529
0.0011419
0.00106558
0.001019
0.000990449
0.000979663
0.000974265
0.00097208
0.000971384
0.000971382
0.000972075
0.000974254
0.000979639
0.000990398
0.00101889
0.00106523
0.00114058
0.00123112
0.00131215
0.00136012
0.00136258
0.00130948
0.0011878
0.00098856
0.00080963
0.000811096
0.000991111
0.00119438
0.00132492
0.00139486
0.00141964
0.00140734
0.00135818
0.00126964
0.00115081
0.0010506
0.000977793
0.00097281
0.000976027
0.000983855
0.000976724
0.000972933
0.000971793
0.000971792
0.000972924
0.000976691
0.000983783
0.000975889
0.000972617
0.000977444
0.0010493
0.0011466
0.00125823
0.00133089
0.00134828
0.00130309
0.00118522
0.000987625
0.000809128
0.000811061
0.000990983
0.00119395
0.00132381
0.00139217
0.00141331
0.00139297
0.00132717
0.00120872
0.0010594
0.0011736
0.00085982
0.000927142
0.000981387
0.00102523
0.00100362
0.000994609
0.000992519
0.000992515
0.000994573
0.00100348
0.00102491
0.000980659
0.000926062
0.00085862
0.00117109
0.00105417
0.00119656
0.00129944
0.00133376
0.00129684
0.00118273
0.000986731
0.000808633
0.000810936
0.000990728
0.00119339
0.00132278
0.00139038
0.00141
0.00138635
0.00131436
0.00119855
0.00135464
0.000949519
0.000839945
0.000886472
0.000909949
0.000913412
0.000913636
0.000913579
0.000913523
0.000913391
0.000912703
0.000908189
0.000882825
0.000833882
0.000938078
0.00133847
0.0011838
0.00128549
0.00132678
0.00129368
0.00118138
0.000986211
0.000808348
0.000810479
0.000989968
0.00119211
0.0013212
0.00138918
0.00141064
0.00139168
0.00132871
0.00121509
0.00107454
0.00122377
0.00088442
0.000918093
0.000943248
0.000944252
0.000954991
0.000958937
0.000959767
0.000959637
0.000958348
0.000953169
0.000939408
0.000932712
0.000900449
0.000862073
0.00118659
0.00105725
0.0011968
0.00129811
0.00133172
0.00129482
0.00118123
0.000985907
0.000808175
0.000808989
0.000987641
0.00118845
0.00131676
0.00138543
0.0014106
0.00140109
0.00135797
0.00127973
0.00117649
0.00109623
0.00103081
0.00101499
0.0010016
0.000988556
0.0009863
0.000985982
0.000985825
0.000985602
0.000984935
0.000982911
0.000979196
0.000980759
0.000981842
0.000991806
0.00106011
0.00115001
0.00125593
0.00132509
0.00134104
0.00129621
0.00117999
0.000984529
0.000807266
0.000804689
0.000981201
0.0011787
0.00130457
0.00137284
0.0014011
0.00140051
0.00137549
0.00132745
0.0012617
0.00119378
0.00113542
0.00108917
0.0010535
0.00102654
0.00101528
0.00101158
0.00101049
0.00101019
0.00101012
0.00101041
0.00101268
0.00102253
0.00104641
0.00108414
0.00114823
0.00122742
0.00129919
0.0013413
0.00134174
0.00129023
0.00117287
0.000979117
0.000803582
0.000793541
0.000965241
0.00115561
0.00127586
0.00134125
0.00137035
0.00137558
0.00136293
0.00133451
0.00129224
0.00124073
0.0011854
0.00113067
0.00108631
0.00105354
0.00103888
0.00103376
0.00103223
0.00103188
0.00103209
0.00103335
0.00103798
0.00105204
0.00108437
0.0011308
0.00119262
0.00125597
0.00130567
0.00133019
0.00132081
0.00126665
0.00115198
0.000964007
0.000792935
0.000767193
0.00092952
0.00110662
0.00121645
0.00127548
0.00130252
0.00131019
0.00130483
0.00128853
0.00126158
0.00122452
0.00117925
0.00113041
0.0010879
0.0010591
0.00104561
0.00104058
0.00103899
0.00103864
0.00103895
0.00104047
0.00104535
0.00105867
0.00108754
0.00113118
0.00118266
0.00123009
0.00126376
0.00127696
0.00126297
0.00121105
0.00110459
0.000928889
0.000766933
0.000710029
0.000857358
0.00101311
0.00110666
0.00115548
0.00117771
0.00118509
0.00118346
0.00117471
0.00115859
0.00113446
0.00110287
0.00106745
0.00103583
0.001015
0.00100485
0.00100087
0.000999542
0.000999248
0.000999545
0.00100086
0.00100482
0.00101494
0.00103588
0.00106796
0.00110423
0.00113595
0.00115693
0.00116294
0.00114863
0.00110389
0.00101216
0.000857103
0.000709974
0.000597257
0.000729835
0.000857416
0.000929651
0.000965355
0.000981002
0.000986419
0.000986285
0.000982039
0.000973383
0.000959502
0.000940387
0.000918307
0.000898294
0.000885307
0.000878903
0.000876322
0.000875441
0.000875245
0.000875459
0.000876354
0.000878943
0.000885356
0.000898401
0.000918584
0.000940897
0.000959743
0.00097148
0.00097363
0.000962192
0.000928503
0.000857086
0.000729778
0.000597296
0.000419879
0.000597255
0.00071012
0.000767405
0.000793831
0.000804896
0.000808696
0.000808791
0.000806178
0.000800518
0.000791035
0.000777496
0.00076147
0.000746852
0.000737847
0.000733574
0.000731865
0.000731263
0.000731124
0.000731282
0.000731896
0.000733611
0.000737886
0.000746914
0.000761615
0.000777761
0.000791117
0.000799215
0.000800528
0.00079216
0.000766932
0.000710064
0.000597288
0.000419948
0.000479734
0.000759886
0.000945535
0.00104451
0.00109283
0.00111455
0.00112348
0.00112672
0.00112762
0.0011276
0.00112728
0.00112691
0.0011266
0.0011264
0.00112627
0.00112618
0.00112613
0.0011261
0.00112609
0.00112612
0.00112618
0.00112626
0.00112638
0.00112655
0.00112673
0.00112673
0.00112594
0.00112289
0.00111418
0.00109261
0.00104441
0.000945493
0.000759878
0.000479754
0.000759885
0.000858183
0.000993658
0.00107654
0.00112009
0.00114066
0.00114943
0.00115271
0.00115364
0.00115363
0.00115331
0.00115295
0.00115267
0.00115248
0.00115237
0.0011523
0.00115226
0.00115223
0.00115223
0.00115226
0.0011523
0.00115237
0.00115247
0.00115262
0.00115277
0.00115274
0.0011519
0.00114882
0.00114026
0.00111987
0.00107644
0.000993618
0.000858167
0.000759873
0.000945593
0.000993678
0.00113209
0.00122419
0.00127576
0.0013015
0.00131296
0.00131728
0.00131829
0.0013179
0.00131706
0.00131623
0.00131562
0.00131524
0.00131502
0.0013149
0.00131482
0.00131478
0.00131478
0.00131482
0.0013149
0.00131502
0.00131522
0.00131553
0.00131594
0.00131616
0.00131532
0.00131143
0.00130048
0.00127518
0.00122391
0.00113198
0.000993653
0.000945586
0.00104465
0.0010766
0.00122423
0.00132639
0.00138561
0.00141607
0.00142976
0.00143454
0.00143487
0.00143322
0.00143103
0.00142912
0.00142781
0.00142704
0.00142662
0.00142639
0.00142625
0.00142618
0.00142618
0.00142625
0.0014264
0.00142662
0.00142701
0.00142769
0.00142871
0.00142978
0.00142975
0.00142597
0.0014135
0.00138412
0.00132565
0.00122393
0.00107651
0.00104461
0.00109302
0.00112019
0.00127584
0.00138566
0.00145046
0.00148406
0.00149865
0.00150243
0.00150037
0.00149563
0.00149049
0.00148643
0.00148388
0.00148247
0.00148173
0.00148137
0.00148113
0.001481
0.001481
0.00148114
0.00148138
0.00148173
0.00148244
0.00148373
0.00148593
0.00148896
0.00149144
0.00148983
0.00147805
0.00144693
0.00138387
0.00127507
0.00111991
0.00109283
0.0011148
0.00114079
0.00130162
0.0014162
0.00148418
0.00151892
0.00153237
0.00153268
0.00152511
0.00151389
0.00150305
0.00149527
0.00149105
0.0014889
0.00148774
0.00148739
0.00148708
0.00148687
0.00148687
0.00148709
0.0014874
0.00148775
0.00148886
0.00149089
0.0014947
0.00150133
0.00150921
0.00151343
0.001506
0.00147656
0.00141228
0.00129986
0.00114007
0.00111423
0.00112376
0.00114959
0.00131316
0.00143007
0.00149908
0.00153284
0.00154252
0.0015356
0.00151748
0.00149427
0.00147363
0.00146001
0.0014549
0.00145259
0.0014509
0.00145139
0.00145133
0.00145107
0.00145107
0.00145134
0.00145141
0.00145091
0.00145257
0.00145475
0.00145943
0.00147182
0.00148929
0.0015051
0.00150751
0.00148424
0.0014224
0.00130964
0.00114808
0.00112245
0.00112707
0.00115293
0.00131765
0.00143522
0.00150363
0.00153443
0.00153739
0.00151853
0.00148292
0.00144014
0.00140612
0.00138136
0.00138025
0.00138038
0.00137719
0.00138189
0.00138321
0.0013831
0.00138311
0.00138322
0.00138191
0.00137721
0.00138038
0.00138013
0.0013808
0.00140426
0.00143497
0.00147009
0.00148958
0.00147769
0.0014219
0.00131147
0.00115019
0.00112458
0.00112807
0.00115398
0.00131898
0.0014363
0.00150311
0.00152966
0.00152374
0.00148899
0.00142981
0.0013635
0.0013354
0.00126155
0.00128092