/*--------------------------------*- C++ -*----------------------------------*\
| =========                 |                                                 |
| \\      /  F ield         | OpenFOAM: The Open Source CFD Toolbox           |
|  \\    /   O peration     | Version:  2112                                  |
|   \\  /    A nd           | Website:  www.openfoam.com                      |
|    \\/     M anipulation  |                                                 |
\*---------------------------------------------------------------------------*/
FoamFile
{
    version     2.0;
    format      ascii;
    arch        "LSB;label=32;scalar=64";
    class       volScalarField;
    location    "3";
    object      k;
}
// * * * * * * * * * * * * * * * * * * * * * * * * * * * * * * * * * * * * * //

dimensions      [0 2 -2 0 0 0 0];

internalField   nonuniform List<scalar> 
64906
(
0.000424692
0.000467806
0.000493073
0.000504472
0.00050914
0.000510917
0.000511549
0.000511758
0.000511819
0.00051183
0.000511827
0.000511821
0.000511813
0.000511804
0.000511794
0.000511782
0.000511769
0.000511758
0.000511752
0.000511759
0.00051177
0.000511781
0.000511791
0.000511798
0.000511802
0.000511791
0.000511736
0.000511539
0.000510918
0.000509148
0.000504484
0.000493093
0.000467828
0.00042471
0.000467828
0.000691628
0.000806264
0.000861232
0.000886636
0.000897649
0.000902053
0.000903637
0.0009041
0.000904144
0.000904055
0.000903949
0.000903876
0.000903839
0.000903825
0.00090382
0.000903815
0.000903812
0.000903813
0.000903816
0.000903821
0.000903827
0.000903838
0.000903862
0.000903887
0.000903828
0.000903408
0.000901904
0.000897587
0.000886641
0.000861281
0.000806332
0.000691692
0.000467872
0.000493136
0.000806311
0.000970956
0.00105395
0.00109461
0.00111334
0.00112124
0.00112413
0.00112485
0.00112469
0.00112427
0.00112387
0.00112361
0.0011235
0.00112347
0.00112346
0.00112346
0.00112345
0.00112346
0.00112346
0.00112347
0.00112348
0.0011235
0.00112359
0.00112373
0.00112377
0.00112316
0.00112053
0.00111293
0.00109445
0.00105396
0.000971044
0.000806421
0.00049321
0.000504563
0.000861325
0.001054
0.0011546
0.00120575
0.00123013
0.00124058
0.00124414
0.00124444
0.00124333
0.00124185
0.00124061
0.00123982
0.00123946
0.00123933
0.00123927
0.00123922
0.00123919
0.00123919
0.00123923
0.00123928
0.00123935
0.00123946
0.00123978
0.00124039
0.00124108
0.00124104
0.00123823
0.00122866
0.00120502
0.00115436
0.00105402
0.000861448
0.000504661
0.000509248
0.000886759
0.0010947
0.00120579
0.00126354
0.00129142
0.00130301
0.00130593
0.00130428
0.0013005
0.0012964
0.00129325
0.00129133
0.00129048
0.0012902
0.00128999
0.00128981
0.00128971
0.00128972
0.00128983
0.00129001
0.00129022
0.00129049
0.00129128
0.00129296
0.00129542
0.00129763
0.00129665
0.00128735
0.00126136
0.00120488
0.00109448
0.000886832
0.000509361
0.000511034
0.000897788
0.00111347
0.00123023
0.0012915
0.00132077
0.00133161
0.00133159
0.00132498
0.00131502
0.00130521
0.00129851
0.0012948
0.0012934
0.00129305
0.00129263
0.00129219
0.00129195
0.00129195
0.00129221
0.00129265
0.00129308
0.00129341
0.00129474
0.0012982
0.00130412
0.0013118
0.00131645
0.00131106
0.00128621
0.00122784
0.00111266
0.000897698
0.000511149
0.000511667
0.000902198
0.0011214
0.00124078
0.00130329
0.00133193
0.00133954
0.00133287
0.00131578
0.0012928
0.00127154
0.00125996
0.00125484
0.00125373
0.00125402
0.00125339
0.00125257
0.00125212
0.00125213
0.00125259
0.00125342
0.00125406
0.00125376
0.00125479
0.00125966
0.00127044
0.00128945
0.00130684
0.00131133
0.00129215
0.00123563
0.00111949
0.000901771
0.000511766
0.000511872
0.00090379
0.00112437
0.00124457
0.00130673
0.00133285
0.00133424
0.00131545
0.00127832
0.00122854
0.00118401
0.00117129
0.00117018
0.00117297
0.00117582
0.00117535
0.00117424
0.00117364
0.00117364
0.00117426
0.00117538
0.00117587
0.00117302
0.00117017
0.00117106
0.001183
0.00122529
0.00126932
0.00129353
0.00128596
0.001235
0.00112069
0.000902806
0.000511927
0.000511926
0.000904276
0.00112524
0.00124534
0.0013062
0.00132843
0.00132074
0.00128309
0.00121044
0.00110346
0.00100259
0.00101768
0.00104239
0.00105833
0.00106687
0.00106783
0.00106721
0.00106681
0.00106682
0.00106724
0.00106787
0.00106693
0.0010584
0.00104244
0.00101758
0.00100183
0.0011005
0.00120161
0.00126113
0.00127215
0.00122997
0.00111927
0.000902561
0.00051191
0.000511925
0.000904375
0.00112536
0.00124509
0.00130449
0.00132269
0.0013051
0.00124406
0.00111609
0.000883556
0.000620658
0.000780139
0.000888773
0.00093247
0.000948468
0.000952996
0.000954051
0.000954236
0.000954244
0.000954075
0.000953038
0.000948531
0.000932557
0.000888888
0.000780252
0.000620388
0.000881219
0.00110756
0.00122215
0.00125639
0.00122397
0.0011172
0.000901955
0.000511826
0.000511911
0.00090438
0.00112537
0.00124493
0.0013036
0.00131972
0.00129649
0.00121945
0.00103962
0.000635467
0.000569885
0.000773254
0.000840904
0.00086114
0.000867397
0.000869065
0.000869421
0.000869426
0.000869078
0.000867421
0.000861182
0.000840978
0.000773378
0.000569969
0.000634329
0.00103142
0.00119756
0.00124769
0.00122085
0.00111613
0.000901608
0.000511763
0.000511899
0.000904393
0.00112552
0.00124533
0.00130456
0.00132208
0.00130282
0.00123856
0.00110544
0.000866222
0.000606073
0.000728157
0.000823041
0.000859791
0.000870695
0.000875822
0.000877077
0.000877215
0.000877213
0.000877072
0.000875814
0.000870683
0.000859781
0.00082303
0.00072805
0.000605668
0.000863674
0.00109679
0.00121653
0.00125393
0.00122307
0.00111691
0.000901793
0.000511766
0.000511888
0.000904437
0.0011258
0.00124616
0.00130674
0.00132751
0.00131611
0.00127097
0.00118511
0.00105729
0.000928342
0.000900746
0.000891181
0.000889141
0.000888562
0.00088897
0.000888891
0.000888731
0.000888726
0.000888876
0.000888943
0.000888517
0.000889068
0.000891044
0.000900417
0.000927358
0.00105419
0.00117617
0.0012488
0.00126711
0.00122837
0.0011189
0.000902374
0.000511803
0.000511872
0.000904486
0.00112611
0.00124708
0.0013091
0.00133313
0.00132876
0.00129796
0.00123924
0.00115502
0.00106229
0.000990413
0.00093641
0.000911556
0.000902476
0.000899539
0.000898503
0.000898136
0.000898129
0.00089848
0.000899498
0.000902412
0.000911453
0.000936232
0.000990039
0.00106116
0.00115169
0.0012301
0.00127563
0.0012796
0.00123381
0.00112104
0.000903016
0.000511838
0.000511852
0.000904524
0.00112636
0.00124783
0.00131096
0.00133736
0.00133764
0.00131515
0.00126936
0.00120089
0.00111686
0.00103137
0.000959982
0.000924385
0.000910634
0.000905932
0.00090436
0.000903851
0.00090384
0.000904328
0.000905882
0.000910559
0.000924271
0.000959793
0.00103098
0.00111568
0.00119746
0.00126008
0.00129267
0.00128833
0.00123786
0.00112269
0.000903512
0.000511849
0.00051183
0.000904543
0.00112653
0.00124833
0.00131216
0.00133998
0.00134284
0.00132448
0.00128427
0.00122132
0.00113917
0.00104882
0.000970549
0.00093043
0.000914554
0.000909038
0.000907187
0.000906571
0.000906555
0.000907146
0.00090898
0.000914474
0.000930311
0.000970355
0.00104836
0.00113797
0.00121782
0.0012749
0.00130189
0.00129339
0.00124033
0.00112372
0.000903814
0.000511839
0.000511805
0.000904546
0.00112663
0.00124861
0.00131282
0.00134136
0.00134546
0.00132893
0.00129091
0.00122977
0.00114788
0.00105566
0.00097473
0.000932868
0.000916141
0.000910284
0.000908291
0.000907589
0.000907567
0.000908242
0.00091022
0.000916057
0.000932746
0.000974533
0.00105519
0.00114666
0.00122624
0.00128149
0.00130626
0.00129592
0.00124161
0.00112427
0.000903965
0.000511813
0.000511781
0.000904542
0.00112667
0.00124874
0.00131312
0.00134195
0.00134652
0.00133066
0.00129337
0.00123275
0.00115082
0.00105795
0.000976128
0.000933685
0.000916665
0.000910679
0.000908616
0.000907848
0.000907819
0.000908559
0.00091061
0.000916577
0.00093356
0.000975929
0.00105748
0.0011496
0.00122921
0.00128392
0.00130795
0.00129694
0.00124214
0.00112451
0.00090402
0.00051178
0.000511762
0.000904536
0.00112668
0.00124876
0.00131314
0.00134198
0.00134657
0.00133072
0.00129344
0.00123283
0.00115092
0.00105805
0.000976193
0.000933724
0.000916681
0.000910675
0.000908587
0.000907779
0.000907744
0.000908524
0.000910601
0.00091659
0.000933598
0.000975996
0.00105758
0.00114971
0.0012293
0.00128401
0.00130802
0.00129699
0.00124218
0.00112453
0.000904017
0.000511749
0.000511759
0.000904532
0.00112665
0.00124866
0.0013129
0.00134147
0.0013456
0.00132911
0.00129114
0.00123004
0.00114818
0.00105596
0.000974939
0.000932997
0.000916198
0.00091028
0.000908214
0.00090741
0.000907372
0.000908148
0.000910204
0.000916107
0.000932872
0.000974747
0.00105551
0.00114699
0.00122654
0.00128174
0.00130646
0.00129607
0.00124171
0.00112433
0.00090396
0.000511742
0.000511777
0.000904529
0.00112657
0.00124841
0.00131229
0.00134015
0.00134308
0.0013248
0.00128468
0.00122182
0.00113973
0.00104939
0.000970941
0.000930679
0.000914679
0.000909059
0.000907095
0.00090635
0.000906316
0.00090703
0.000908984
0.00091459
0.000930562
0.000970763
0.00104897
0.00113858
0.00121837
0.00127535
0.00130224
0.00129364
0.0012405
0.00112382
0.000903819
0.00051176
0.000511798
0.000904515
0.00112642
0.00124794
0.00131113
0.0013376
0.00133798
0.00131561
0.00126997
0.00120168
0.00111779
0.00103226
0.00096062
0.000924791
0.000910855
0.000906006
0.000904295
0.000903664
0.000903638
0.000904236
0.000905936
0.000910774
0.000924689
0.000960469
0.00103189
0.0011167
0.00119833
0.00126076
0.00129317
0.00128869
0.00123811
0.00112283
0.000903533
0.00051177
0.000511818
0.000904482
0.00112617
0.00124721
0.00130931
0.00133343
0.00132918
0.00129856
0.00124008
0.00115619
0.00106376
0.000991676
0.000937297
0.000912061
0.000902715
0.000899587
0.000898407
0.000897947
0.000897928
0.00089836
0.000899525
0.000902644
0.000911977
0.000937191
0.00099144
0.00106281
0.00115301
0.00123103
0.00127627
0.00128005
0.00123411
0.00112122
0.000903054
0.000511759
0.000511834
0.000904429
0.00112585
0.00124627
0.00130692
0.00132778
0.00131653
0.00127161
0.00118612
0.00105887
0.000930519
0.000902562
0.000891909
0.000889184
0.000888209
0.000888367
0.000888149
0.000887919
0.000887906
0.000888109
0.000888302
0.000888114
0.000889062
0.000891801
0.000902479
0.000929835
0.00105598
0.00117723
0.00124942
0.00126751
0.00122864
0.00111907
0.000902415
0.000511726
0.000511843
0.000904347
0.00112548
0.00124529
0.00130454
0.00132212
0.00130298
0.00123896
0.00110633
0.000868021
0.000607263
0.000728808
0.000821323
0.000856804
0.000866914
0.000871647
0.000872748
0.000872823
0.000872806
0.000872686
0.000871503
0.000866609
0.000856296
0.000820759
0.000728723
0.000606916
0.000865686
0.00109744
0.00121664
0.00125393
0.0012231
0.00111695
0.000901789
0.000511688
0.00051184
0.000904179
0.00112499
0.00124436
0.0013029
0.00131893
0.00129564
0.00121855
0.00103884
0.000635145
0.000565271
0.000761884
0.000825608
0.000843267
0.000848548
0.000849919
0.000850173
0.000850121
0.000849719
0.000848027
0.000842059
0.000823267
0.00075846
0.000563042
0.000633087
0.00102909
0.00119553
0.00124635
0.00122007
0.00111573
0.000901423
0.000511668
0.000511796
0.000903675
0.00112396
0.00124302
0.00130189
0.0013197
0.00130172
0.00124012
0.00111135
0.000878131
0.000615575
0.00075677
0.000851961
0.000882902
0.00089057
0.00089276
0.000893407
0.00089353
0.000893428
0.00089296
0.000891431
0.000887073
0.000875274
0.00083887
0.000743695
0.000609854
0.00086913
0.00109772
0.00121534
0.00125198
0.00122122
0.00111562
0.00090123
0.000511661
0.00051161
0.000902128
0.00112105
0.00123935
0.0012988
0.00131995
0.00131115
0.00127168
0.00119545
0.00108154
0.000967937
0.000958761
0.000954989
0.000941011
0.000931886
0.000928224
0.000927046
0.000926684
0.000926521
0.000926292
0.000925786
0.000924922
0.000924086
0.000923058
0.000924484
0.000940285
0.00105977
0.00117541
0.0012443
0.00126109
0.00122263
0.0011147
0.00090034
0.000511548
0.000510996
0.000897795
0.00111331
0.00122932
0.00128835
0.0013122
0.00131145
0.00128938
0.00124571
0.00118289
0.00111477
0.00106458
0.00101498
0.000968162
0.000945051
0.000936419
0.000933672
0.000932887
0.000932682
0.000932686
0.000933062
0.000934911
0.000941817
0.000962286
0.00100877
0.00106945
0.0011501
0.00122012
0.00126023
0.00126226
0.00121784
0.00110909
0.000896707
0.000511004
0.000509231
0.000886845
0.00109477
0.00120546
0.00126187
0.00128639
0.00129071
0.00127972
0.00125451
0.00121562
0.00116612
0.00111092
0.00104963
0.000993019
0.000964867
0.000954137
0.000950649
0.00094965
0.000949426
0.000949554
0.000950379
0.000953523
0.000963698
0.000991399
0.00104911
0.00111573
0.00117967
0.00122788
0.00125163
0.00124491
0.00119829
0.00109232
0.00088633
0.000509291
0.000504564
0.000861476
0.00105424
0.00115473
0.00120525
0.00122786
0.00123424
0.00122969
0.00121552
0.00119129
0.0011566
0.00111239
0.00106197
0.00101599
0.00099102
0.00098076
0.000977207
0.000976171
0.000975956
0.00097612
0.000977104
0.000980547
0.000990622
0.00101554
0.00106228
0.00111474
0.00116111
0.00119321
0.00120617
0.00119521
0.00115079
0.00105309
0.000861358
0.000504658
0.000493161
0.000806503
0.000971303
0.00105436
0.00109486
0.00111286
0.00111887
0.00111765
0.00111051
0.0010969
0.00107582
0.00104734
0.00101445
0.000984689
0.000967313
0.000959585
0.000956772
0.000955909
0.000955726
0.000955892
0.000956731
0.000959502
0.000967184
0.000984599
0.00101466
0.00104819
0.00107688
0.00109557
0.00110123
0.00108989
0.00105269
0.000971003
0.000806618
0.00049327
0.000467879
0.000691813
0.000806606
0.00086171
0.000887171
0.000898045
0.000901859
0.00090195
0.000899252
0.00089344
0.000883737
0.000869972
0.000853727
0.000838849
0.000829717
0.000825428
0.000823785
0.000823252
0.000823138
0.000823257
0.00082379
0.000825428
0.000829707
0.00083886
0.00085383
0.000870231
0.000883845
0.000892141
0.000893602
0.000885556
0.000861381
0.000806735
0.000692004
0.000467977
0.00042474
0.000467923
0.000493292
0.000504787
0.000509546
0.000511403
0.00051208
0.000512239
0.000512045
0.000511424
0.000510314
0.00050855
0.00050629
0.00050409
0.000502695
0.000502002
0.00050169
0.000501539
0.000501485
0.000501547
0.000501698
0.000502005
0.00050269
0.000504076
0.000506272
0.000508536
0.000510273
0.000511231
0.00051122
0.000509661
0.00050499
0.000493479
0.00046805
0.000424807
0.000607925
0.000770238
0.000865352
0.000911907
0.00093316
0.000942196
0.000945734
0.000946977
0.000947324
0.000947338
0.000947244
0.000947133
0.000947042
0.000946979
0.000946938
0.000946907
0.000946885
0.000946872
0.00094687
0.000946881
0.000946901
0.000946929
0.000946966
0.000947017
0.000947068
0.00094705
0.000946743
0.000945566
0.000942095
0.000933113
0.000911893
0.000865357
0.000770253
0.000607944
0.000770244
0.00145072
0.00174506
0.00189379
0.0019671
0.00200106
0.00201549
0.00202089
0.00202237
0.00202228
0.00202164
0.00202093
0.00202036
0.00201998
0.00201975
0.0020196
0.0020195
0.00201945
0.00201945
0.0020195
0.0020196
0.00201975
0.00201996
0.00202028
0.00202062
0.00202066
0.00201937
0.00201433
0.00200029
0.00196666
0.00189356
0.00174495
0.00145069
0.000770262
0.000865397
0.00174515
0.00213351
0.00233833
0.00244414
0.00249555
0.00251833
0.00252692
0.00252888
0.00252798
0.00252611
0.00252427
0.0025229
0.00252206
0.00252159
0.00252132
0.00252114
0.00252105
0.00252105
0.00252115
0.00252133
0.0025216
0.00252202
0.00252273
0.00252367
0.00252426
0.00252271
0.00251507
0.00249338
0.0024429
0.00233774
0.00213329
0.00174512
0.000865436
0.000911994
0.00189397
0.00233843
0.00257995
0.00270857
0.00277277
0.00280143
0.00281138
0.00281189
0.00280806
0.00280295
0.0027984
0.0027952
0.00279336
0.00279241
0.00279184
0.00279146
0.00279126
0.00279126
0.00279147
0.00279186
0.00279242
0.00279331
0.00279494
0.00279751
0.00280026
0.00280063
0.00279302
0.00276711
0.0027053
0.00257833
0.00233779
0.00189382
0.000912044
0.000933281
0.00196734
0.00244432
0.00270868
0.00285201
0.0029241
0.00295508
0.00296289
0.00295792
0.00294672
0.00293427
0.00292407
0.00291731
0.00291372
0.00291202
0.0029109
0.0029101
0.00290967
0.00290968
0.00291011
0.00291093
0.00291203
0.00291366
0.00291699
0.00292295
0.00293091
0.0029376
0.00293517
0.00291067
0.00284416
0.00270471
0.00244265
0.00196683
0.000933298
0.000942338
0.00200133
0.00249582
0.00277305
0.00292436
0.00299931
0.00302784
0.00302772
0.00300979
0.00298268
0.00295531
0.00293496
0.00292262
0.00291683
0.00291446
0.00291258
0.00291104
0.00291021
0.00291021
0.00291106
0.00291261
0.00291448
0.00291677
0.00292228
0.00293372
0.00295156
0.00297246
0.00298447
0.00297023
0.00290738
0.00276438
0.00249203
0.00200004
0.000942241
0.00094589
0.00201582
0.00251877
0.0028021
0.00295607
0.00302893
0.00304889
0.00303189
0.00298809
0.0029293
0.00287372
0.00283865
0.00282066
0.0028142
0.0028126
0.00281002
0.00280747
0.00280608
0.00280609
0.0028075
0.00281006
0.00281264
0.00281416
0.00282035
0.00283743
0.00286985
0.00291856
0.00296133
0.00297132
0.00292287
0.00278518
0.00251123
0.00201308
0.000945549
0.000947146
0.00202131
0.00252771
0.00281291
0.00296565
0.00303182
0.00303611
0.00298969
0.00289878
0.00277851
0.00266959
0.0026232
0.00260955
0.00261003
0.00261352
0.00261128
0.002608
0.00260619
0.0026062
0.00260803
0.00261132
0.00261357
0.00261003
0.00260932
0.00262214
0.00266591
0.00276772
0.00287137
0.00292747
0.00290707
0.00278344
0.00251454
0.00201637
0.000946399
0.000947517
0.00202301
0.00253036
0.00281515
0.00296432
0.00302057
0.00300281
0.00291254
0.00274209
0.0024983
0.00226987
0.00225951
0.00229461
0.00232279
0.00233862
0.0023405
0.00233865
0.00233734
0.00233735
0.00233868
0.00234055
0.00233868
0.00232284
0.00229453
0.00225881
0.00226673
0.00248785
0.00271442
0.00284937
0.00287209
0.00276978
0.00251019
0.00201531
0.000946232
0.000947577
0.00202328
0.00253064
0.00281429
0.00295956
0.00300579
0.00296481
0.00282258
0.00253528
0.00202339
0.00127793
0.00169668
0.0019178
0.00200873
0.00204056
0.00205408
0.00205737
0.00205777
0.00205778
0.0020574
0.00205413
0.00204064
0.00200885
0.00191792
0.00169665
0.00127623
0.00201369
0.00250735
0.0027586
0.00283296
0.00275362
0.00250392
0.00201299
0.00094577
0.000947555
0.0020232
0.0025305
0.00281353
0.00295676
0.00299767
0.00294366
0.00276813
0.00238008
0.00133992
0.00106825
0.00161512
0.00176264
0.00180985
0.00182391
0.00182745
0.00182812
0.00182812
0.00182746
0.00182394
0.00180991
0.00176275
0.00161531
0.00106836
0.00133319
0.00235193
0.00270358
0.00281115
0.00274478
0.00250035
0.0020115
0.000945472
0.000947531
0.00202317
0.00253074
0.00281427
0.00295857
0.00300212
0.00295553
0.00280314
0.00249933
0.00196204
0.00120916
0.00153704
0.00173885
0.00182202
0.00185478
0.00185905
0.00185887
0.00185848
0.00185847
0.00185885
0.00185902
0.00185474
0.00182197
0.00173876
0.00153665
0.00120719
0.00195204
0.00247114
0.00273879
0.00282307
0.00274908
0.00250185
0.00201183
0.000945547
0.000947524
0.00202328
0.00253142
0.0028163
0.00296373
0.00301457
0.00298489
0.00287213
0.00266324
0.00235812
0.00204213
0.00192588
0.00187446
0.00185957
0.0018572
0.00185546
0.0018542
0.00185359
0.00185358
0.00185418
0.00185542
0.00185713
0.00185943
0.00187413
0.0019249
0.0020388
0.00234747
0.00263517
0.00280812
0.00285271
0.00276164
0.00250691
0.00201357
0.000945896
0.000947522
0.00202346
0.00253226
0.0028187
0.00296965
0.00302813
0.00301429
0.00293274
0.00278127
0.00256645
0.00232689
0.00212845
0.00197512
0.00190247
0.00187635
0.00186788
0.00186515
0.00186433
0.00186433
0.00186514
0.00186784
0.00187627
0.00190229
0.00197471
0.0021273
0.00232321
0.0025555
0.00275316
0.00286885
0.00288224
0.00277524
0.00251272
0.00201568
0.00094629
0.000947515
0.00202362
0.00253299
0.00282073
0.00297452
0.00303878
0.00303584
0.00297313
0.00285035
0.00267013
0.00245032
0.00222591
0.0020324
0.00193241
0.00189376
0.00188109
0.00187734
0.00187636
0.00187636
0.00187732
0.00188105
0.00189368
0.00193222
0.00203197
0.00222473
0.0024465
0.002659
0.00282211
0.00290916
0.00290374
0.00278578
0.0025174
0.00201741
0.000946587
0.000947499
0.00202373
0.0025335
0.00282212
0.00297777
0.0030456
0.00304893
0.00299598
0.0028861
0.00271867
0.00250377
0.00226922
0.00205974
0.001948
0.00190362
0.00188889
0.00188461
0.00188355
0.00188355
0.0018846
0.00188886
0.00190354
0.00194782
0.00205932
0.00226807
0.00249989
0.00270742
0.00285772
0.00293188
0.00291669
0.00279244
0.00252044
0.00201854
0.000946755
0.000947477
0.00202379
0.00253379
0.00282292
0.00297959
0.00304931
0.00305575
0.00300726
0.00290265
0.00273963
0.00252561
0.00228681
0.0020711
0.00195469
0.00190797
0.00189238
0.00188787
0.00188676
0.00188676
0.00188785
0.00189235
0.00190789
0.00195451
0.00207067
0.00228563
0.00252169
0.00272831
0.00287417
0.00294304
0.00292337
0.002796
0.00252209
0.00201915
0.000946823
0.000947456
0.00202381
0.00253392
0.00282328
0.00298039
0.00305088
0.00305855
0.00301173
0.00290893
0.00274722
0.0025332
0.00229284
0.00207501
0.00195701
0.00190948
0.00189358
0.00188898
0.00188785
0.00188785
0.00188896
0.00189355
0.0019094
0.00195682
0.00207458
0.00229165
0.00252927
0.00273587
0.0028804
0.00294744
0.0029261
0.00279749
0.0025228
0.0020194
0.000946835
0.000947443
0.0020238
0.00253393
0.0028233
0.00298042
0.00305093
0.00305862
0.00301181
0.00290903
0.00274734
0.00253332
0.00229296
0.00207512
0.00195708
0.00190952
0.00189361
0.00188899
0.00188786
0.00188786
0.00188898
0.00189357
0.00190944
0.0019569
0.0020747
0.00229178
0.00252939
0.00273599
0.0028805
0.00294753
0.00292616
0.00279753
0.00252282
0.00201941
0.000946817
0.000947442
0.00202378
0.00253381
0.00282298
0.00297968
0.00304945
0.00305594
0.0030075
0.00290296
0.00273999
0.002526
0.00228721
0.00207149
0.00195496
0.00190813
0.00189248
0.00188794
0.00188683
0.00188682
0.00188793
0.00189246
0.00190806
0.00195478
0.00207108
0.00228605
0.00252211
0.0027287
0.0028745
0.0029433
0.00292356
0.00279612
0.00252216
0.00201916
0.000946778
0.000947452
0.00202372
0.00253354
0.00282222
0.00297792
0.00304583
0.00304925
0.00299641
0.00288666
0.00271934
0.00250453
0.00226999
0.0020605
0.00194854
0.00190398
0.00188917
0.00188486
0.00188379
0.00188378
0.00188485
0.00188916
0.00190393
0.00194839
0.00206012
0.00226888
0.00250071
0.00270815
0.00285831
0.00293232
0.002917
0.00279265
0.00252055
0.00201856
0.000946696
0.000947463
0.00202361
0.00253304
0.00282085
0.00297472
0.00303908
0.00303627
0.00297374
0.00285119
0.00267122
0.00245162
0.00222727
0.00203368
0.00193334
0.00189444
0.00188166
0.00187788
0.0018769
0.0018769
0.00187789
0.00188166
0.00189441
0.00193323
0.00203337
0.00222626
0.00244794
0.00266019
0.002823
0.00290979
0.00290415
0.00278605
0.00251754
0.00201744
0.000946523
0.000947466
0.00202343
0.00253229
0.00281879
0.00296983
0.00302843
0.00301476
0.00293348
0.0027824
0.00256809
0.00232903
0.00213073
0.00197691
0.00190361
0.00187712
0.00186852
0.00186578
0.00186498
0.00186498
0.00186581
0.00186855
0.00187713
0.00190355
0.00197668
0.00212986
0.00232559
0.00255729
0.00275429
0.00286952
0.00288263
0.00277547
0.00251284
0.00201568
0.000946221
0.000947456
0.00202319
0.00253133
0.00281621
0.00296368
0.00301461
0.0029851
0.00287268
0.0026644
0.00236031
0.00204537
0.00192889
0.00187557
0.00185927
0.00185621
0.00185421
0.00185294
0.00185235
0.00185236
0.00185296
0.00185422
0.00185614
0.00185906
0.00187523
0.00192826
0.00204241
0.00234976
0.00263604
0.00280829
0.00285265
0.00276156
0.00250685
0.00201348
0.000945808
0.000947424
0.00202285
0.00253022
0.00281356
0.00295771
0.00300119
0.00295462
0.00280247
0.00249941
0.00196415
0.00121163
0.00153718
0.0017331
0.00181284
0.00184365
0.0018472
0.0018469
0.00184654
0.00184653
0.00184686
0.00184697
0.00184296
0.00181142
0.00173121
0.00153629
0.00120978
0.00195383
0.00246977
0.00273676
0.00282138
0.00274794
0.00250115
0.00201142
0.000945402
0.000947318
0.00202219
0.00252871
0.00281098
0.00295357
0.00299393
0.0029394
0.00276335
0.00237504
0.00133616
0.00104976
0.00157836
0.00171511
0.00175507
0.0017669
0.0017701
0.00177077
0.00177067
0.00176965
0.00176556
0.00175165
0.00170806
0.00156736
0.00104106
0.00132496
0.00234125
0.00269487
0.00280502
0.0027408
0.00249795
0.00201023
0.000945166
0.000946937
0.00202032
0.00252542
0.00280695
0.0029504
0.00299503
0.00295227
0.00280743
0.00251596
0.00199769
0.00124671
0.00161395
0.0018026
0.0018613
0.00187178
0.00187982
0.0018828
0.00188347
0.00188321
0.00188162
0.00187614
0.0018619
0.00183918
0.0017641
0.00157047
0.00122059
0.00196392
0.00247168
0.0027343
0.00281679
0.00274305
0.00249735
0.00200946
0.000945017
0.000945713
0.00201489
0.00251655
0.00279628
0.00294127
0.00299393
0.00297213
0.00287542
0.00269292
0.00242598
0.00215511
0.00208055
0.00204172
0.00199401
0.00196418
0.00195417
0.00195132
0.00195048
0.00195004
0.00194922
0.00194727
0.00194446
0.00194663
0.00195485
0.00198404
0.00207246
0.0023611
0.00263294
0.0027961
0.00283627
0.00274532
0.00249414
0.0020063
0.000944267
0.000942217
0.00200061
0.00249414
0.00276857
0.00291289
0.0029723
0.00296957
0.00291244
0.00280148
0.00264331
0.0024685
0.00232402
0.00218633
0.00205936
0.00199401
0.00196944
0.00196164
0.00195942
0.00195884
0.00195881
0.00195982
0.00196525
0.00198629
0.00204673
0.00217787
0.00234713
0.00255316
0.00272845
0.0028292
0.00283636
0.00273151
0.002478
0.00199454
0.000941278
0.00093322
0.00196686
0.0024433
0.00270587
0.00284456
0.00290617
0.00291604
0.00288537
0.00281724
0.00271367
0.00258207
0.00243407
0.00227331
0.00212415
0.00204597
0.00201527
0.00200506
0.00200206
0.00200138
0.00200181
0.00200433
0.00201367
0.00204322
0.00212109
0.0022752
0.00245033
0.00261663
0.002742
0.00280514
0.00279158
0.00268077
0.00243265
0.00196297
0.000932695
0.000911984
0.0018937
0.00233797
0.00257856
0.00270453
0.00276247
0.0027781
0.00276359
0.0027224
0.00265401
0.00255823
0.0024384
0.00230448
0.00218348
0.00211519
0.00208598
0.00207549
0.00207218
0.00207144
0.00207211
0.00207526
0.0020855
0.00211449
0.00218324
0.00230689
0.00244634
0.00257046
0.00265766
0.0026949
0.0026703
0.00256293
0.00233161
0.00189145
0.00091175
0.000865426
0.00174503
0.00213343
0.00233793
0.00244249
0.00249066
0.0025063
0.00250081
0.00247755
0.00243551
0.00237282
0.00229072
0.00219814
0.0021153
0.00206555
0.00204263
0.0020338
0.00203085
0.00203019
0.00203086
0.0020338
0.00204261
0.00206555
0.00211564
0.00219961
0.002294
0.00237607
0.00243105
0.00245
0.00242277
0.00232937
0.00213014
0.00174391
0.000865369
0.000770297
0.00145071
0.0017452
0.00189394
0.00196685
0.0019995
0.00201077
0.00200949
0.00199829
0.00197639
0.00194209
0.00189567
0.00184265
0.00179498
0.00176524
0.00175087
0.00174509
0.00174308
0.00174263
0.00174314
0.00174519
0.00175102
0.00176544
0.00179538
0.00184348
0.00189702
0.00194269
0.00197199
0.00197951
0.0019577
0.00189025
0.00174389
0.00145027
0.000770328
0.000607975
0.000770296
0.000865502
0.000912154
0.000933446
0.000942363
0.00094543
0.000945485
0.000943322
0.000938669
0.000930904
0.000919834
0.000906713
0.000894699
0.000887256
0.000883707
0.000882281
0.000881778
0.000881661
0.000881793
0.000882307
0.000883736
0.000887288
0.000894752
0.000906835
0.000920052
0.000930964
0.00093759
0.00093871
0.00093202
0.000911731
0.00086544
0.000770321
0.000608043
0.000664859
0.000905276
0.00104857
0.00112148
0.00115648
0.00117219
0.00117868
0.00118105
0.00118171
0.0011817
0.00118146
0.00118118
0.00118095
0.0011808
0.0011807
0.00118064
0.00118059
0.00118057
0.00118057
0.00118059
0.00118063
0.00118069
0.00118078
0.00118091
0.00118105
0.00118104
0.00118047
0.00117824
0.0011719
0.00115632
0.0011214
0.00104853
0.000905269
0.000664878
0.000905275
0.00179904
0.00218501
0.0023869
0.00249048
0.00254051
0.00256269
0.00257129
0.00257368
0.00257343
0.00257221
0.00257086
0.00256975
0.00256899
0.00256851
0.00256821
0.00256801
0.00256792
0.00256792
0.00256801
0.0025682
0.0025685
0.00256894
0.00256956
0.00257026
0.00257042
0.00256838
0.00256042
0.00253895
0.00248951
0.00238635
0.00218471
0.00179889
0.000905264
0.00104861
0.00218513
0.00268093
0.00294978
0.00309361
0.00316608
0.00319934
0.00321224
0.00321514
0.00321351
0.00321024
0.00320695
0.0032044
0.00320277
0.00320182
0.00320124
0.00320088
0.0032007
0.0032007
0.00320088
0.00320124
0.0032018
0.00320267
0.00320406
0.00320586
0.00320705
0.00320489
0.00319356
0.00316211
0.00309121
0.0029485
0.00268034
0.00218491
0.0010486
0.00112157
0.00238713
0.0029499
0.00326288
0.00343486
0.00352352
0.0035643
0.00357873
0.00357927
0.00357314
0.00356482
0.00355714
0.00355149
0.00354807
0.0035462
0.00354506
0.00354433
0.00354397
0.00354397
0.00354434
0.00354507
0.00354618
0.00354793
0.00355099
0.00355556
0.00356031
0.0035613
0.0035505
0.003514
0.0034291
0.00325982
0.0029485
0.00238662
0.00112154
0.00115662
0.00249079
0.00309386
0.00343503
0.00362539
0.00372393
0.00376737
0.00377844
0.00377098
0.0037541
0.00373479
0.00371819
0.00370661
0.00370005
0.00369671
0.00369458
0.00369314
0.0036924
0.00369241
0.00369315
0.00369459
0.00369669
0.00369988
0.00370599
0.00371623
0.00372924
0.0037397
0.00373662
0.00370271
0.00361251
0.00342813
0.00309064
0.00248957
0.00115647
0.00117237
0.00254091
0.0031665
0.00352399
0.00372438
0.00382626
0.00386592
0.00386578
0.00384029
0.00380113
0.00376019
0.00372744
0.00370602
0.00369505
0.0036901
0.00368647
0.00368377
0.00368238
0.00368239
0.00368379
0.00368649
0.00369009
0.00369488
0.00370535
0.00372527
0.00375397
0.00378499
0.00380208
0.00378253
0.00369794
0.00350978
0.00315976
0.00253824
0.00117193
0.00117889
0.00256322
0.0032001
0.00356548
0.00376909
0.00386774
0.00389549
0.00387248
0.00381232
0.0037305
0.00364968
0.00359173
0.00355752
0.00354278
0.00353776
0.00353226
0.00352765
0.0035253
0.00352531
0.00352768
0.00353229
0.00353776
0.00354264
0.00355688
0.00358954
0.0036432
0.00371341
0.00377173
0.0037845
0.00371943
0.00353892
0.00318741
0.00255802
0.00117789
0.00118131
0.00257205
0.00321368
0.00358144
0.00378312
0.00387252
0.00387923
0.00381766
0.00369671
0.00353552
0.0033819
0.0032956
0.00325553
0.00324455
0.00324474
0.00323802
0.00323149
0.00322823
0.00322824
0.00323151
0.00323806
0.00324476
0.00324446
0.00325502
0.00329363
0.00337558
0.0035181
0.00365474
0.00372679
0.00369835
0.00353671
0.00319231
0.00256314
0.00117944
0.00118205
0.0025749
0.00321786
0.00358495
0.00378161
0.00385762
0.00383554
0.00371828
0.00349846
0.00318456
0.00287442
0.00280533
0.00281073
0.00282786
0.00284007
0.00283936
0.00283486
0.00283225
0.00283226
0.00283488
0.00283939
0.00284011
0.00282786
0.00281045
0.0028039
0.00286878
0.00316721
0.00345551
0.00362533
0.00365158
0.00351778
0.00318599