/*--------------------------------*- C++ -*----------------------------------*\
| =========                 |                                                 |
| \\      /  F ield         | OpenFOAM: The Open Source CFD Toolbox           |
|  \\    /   O peration     | Version:  2112                                  |
|   \\  /    A nd           | Website:  www.openfoam.com                      |
|    \\/     M anipulation  |                                                 |
\*---------------------------------------------------------------------------*/
FoamFile
{
    version     2.0;
    format      ascii;
    arch        "LSB;label=32;scalar=64";
    class       volScalarField;
    location    "3";
    object      nut;
}
// * * * * * * * * * * * * * * * * * * * * * * * * * * * * * * * * * * * * * //

dimensions      [0 2 -1 0 0 0 0];

internalField   nonuniform List<scalar> 
64906
(
5.1176e-05
5.38027e-05
5.53049e-05
5.59828e-05
5.62648e-05
5.63747e-05
5.64148e-05
5.64283e-05
5.64322e-05
5.64327e-05
5.64324e-05
5.64318e-05
5.64312e-05
5.64306e-05
5.64299e-05
5.64292e-05
5.64284e-05
5.64277e-05
5.64274e-05
5.64278e-05
5.64285e-05
5.64292e-05
5.64298e-05
5.64303e-05
5.64306e-05
5.643e-05
5.64265e-05
5.64138e-05
5.63745e-05
5.62652e-05
5.59834e-05
5.5306e-05
5.3804e-05
5.11771e-05
5.38041e-05
6.56004e-05
7.09486e-05
7.3418e-05
7.45568e-05
7.50579e-05
7.52627e-05
7.5338e-05
7.53602e-05
7.5362e-05
7.53572e-05
7.53515e-05
7.53473e-05
7.53451e-05
7.53442e-05
7.53437e-05
7.53434e-05
7.53432e-05
7.53432e-05
7.53434e-05
7.53438e-05
7.53442e-05
7.5345e-05
7.53465e-05
7.53481e-05
7.53455e-05
7.53254e-05
7.52541e-05
7.50537e-05
7.45562e-05
7.34197e-05
7.09516e-05
6.56036e-05
5.38068e-05
5.53087e-05
7.09508e-05
7.79915e-05
8.13616e-05
8.29956e-05
8.37553e-05
8.40817e-05
8.42034e-05
8.42338e-05
8.42262e-05
8.42068e-05
8.41883e-05
8.41758e-05
8.41696e-05
8.41675e-05
8.41667e-05
8.41662e-05
8.4166e-05
8.41661e-05
8.41665e-05
8.41671e-05
8.4168e-05
8.41698e-05
8.41744e-05
8.41817e-05
8.41842e-05
8.41585e-05
8.40483e-05
8.37354e-05
8.2987e-05
8.13606e-05
7.79946e-05
7.09557e-05
5.53131e-05
5.59883e-05
7.34222e-05
8.13638e-05
8.52726e-05
8.72298e-05
8.8168e-05
8.85761e-05
8.87174e-05
8.87291e-05
8.86834e-05
8.86219e-05
8.85694e-05
8.85348e-05
8.85177e-05
8.8511e-05
8.85075e-05
8.8505e-05
8.85037e-05
8.85038e-05
8.85054e-05
8.85081e-05
8.85117e-05
8.85178e-05
8.85326e-05
8.85594e-05
8.85887e-05
8.85875e-05
8.84765e-05
8.81042e-05
8.71965e-05
8.52601e-05
8.13631e-05
7.34272e-05
5.5994e-05
5.62713e-05
7.45623e-05
8.29995e-05
8.72318e-05
8.93918e-05
9.04379e-05
9.08779e-05
9.09903e-05
9.0927e-05
9.07801e-05
9.06186e-05
9.04919e-05
9.04123e-05
9.03748e-05
9.03607e-05
9.03513e-05
9.03437e-05
9.03395e-05
9.03397e-05
9.03442e-05
9.03521e-05
9.03615e-05
9.0375e-05
9.04094e-05
9.04792e-05
9.05772e-05
9.06626e-05
9.06238e-05
9.02715e-05
8.92997e-05
8.71903e-05
8.29871e-05
7.45643e-05
5.62778e-05
5.63817e-05
7.50641e-05
8.37606e-05
8.81723e-05
9.04412e-05
9.15262e-05
9.19321e-05
9.19334e-05
9.16866e-05
9.1312e-05
9.0938e-05
9.06743e-05
9.05225e-05
9.04606e-05
9.04421e-05
9.04236e-05
9.0406e-05
9.03964e-05
9.03966e-05
9.04067e-05
9.04246e-05
9.04432e-05
9.0461e-05
9.05196e-05
9.06603e-05
9.08917e-05
9.11806e-05
9.13501e-05
9.11456e-05
9.02271e-05
8.80698e-05
8.37222e-05
7.50575e-05
5.63881e-05
5.64218e-05
7.52693e-05
8.40886e-05
8.85848e-05
9.08899e-05
9.19453e-05
9.223e-05
9.19883e-05
9.13605e-05
9.05096e-05
8.97096e-05
8.92512e-05
8.90339e-05
8.89759e-05
8.8978e-05
8.89505e-05
8.89181e-05
8.89004e-05
8.89007e-05
8.89189e-05
8.89517e-05
8.89795e-05
8.89767e-05
8.90316e-05
8.92376e-05
8.96621e-05
9.03718e-05
9.10056e-05
9.11602e-05
9.04516e-05
8.83715e-05
8.40021e-05
7.52456e-05
5.6427e-05
5.64351e-05
7.53452e-05
8.42139e-05
8.87359e-05
9.10237e-05
9.19847e-05
9.20426e-05
9.13627e-05
9.00064e-05
8.81635e-05
8.64734e-05
8.59339e-05
8.58418e-05
8.59209e-05
8.60179e-05
8.59945e-05
8.59497e-05
8.59256e-05
8.59259e-05
8.59506e-05
8.5996e-05
8.60198e-05
8.59225e-05
8.58409e-05
8.59228e-05
8.64284e-05
8.80254e-05
8.96429e-05
9.05125e-05
9.02239e-05
8.8349e-05
8.4052e-05
7.52942e-05
5.64372e-05
5.64387e-05
7.53689e-05
8.42515e-05
8.87681e-05
9.10062e-05
9.18247e-05
9.15551e-05
9.01931e-05
8.75219e-05
8.34646e-05
7.94516e-05
7.99488e-05
8.08543e-05
8.14504e-05
8.17774e-05
8.1809e-05
8.17819e-05
8.17648e-05
8.17651e-05
8.17829e-05
8.18107e-05
8.17798e-05
8.1453e-05
8.08558e-05
7.99432e-05
7.94145e-05
8.33319e-05
8.71546e-05
8.93288e-05
8.97123e-05
8.81558e-05
8.39939e-05
7.52826e-05
5.6436e-05
5.64387e-05
7.53739e-05
8.42572e-05
8.87589e-05
9.09424e-05
9.16149e-05
9.09893e-05
8.87734e-05
8.39824e-05
7.45808e-05
6.23304e-05
6.98174e-05
7.44939e-05
7.63025e-05
7.69624e-05
7.7146e-05
7.71883e-05
7.71955e-05
7.71959e-05
7.71893e-05
7.71478e-05
7.69651e-05
7.63063e-05
7.44988e-05
6.98222e-05
6.23138e-05
7.44632e-05
8.36119e-05
8.78964e-05
8.91289e-05
8.79256e-05
8.39088e-05
7.52541e-05
5.64306e-05
5.64378e-05
7.53743e-05
8.42578e-05
8.87522e-05
9.09087e-05
9.15046e-05
9.06746e-05
8.78672e-05
8.10132e-05
6.3125e-05
5.95466e-05
6.93472e-05
7.23266e-05
7.32001e-05
7.34741e-05
7.35488e-05
7.35651e-05
7.35653e-05
7.35494e-05
7.34752e-05
7.3202e-05
7.233e-05
6.93531e-05
5.95512e-05
6.30571e-05
8.06441e-05
8.69819e-05
8.8804e-05
8.78044e-05
8.38639e-05
7.52376e-05
5.64263e-05
5.64371e-05
7.53751e-05
8.42638e-05
8.87674e-05
9.0943e-05
9.15865e-05
9.08937e-05
8.85461e-05
8.35283e-05
7.3764e-05
6.15125e-05
6.72538e-05
7.1462e-05
7.3032e-05
7.34869e-05
7.3717e-05
7.37766e-05
7.37841e-05
7.37841e-05
7.37764e-05
7.37167e-05
7.34864e-05
7.30315e-05
7.14614e-05
6.72482e-05
6.14884e-05
7.36362e-05
8.31515e-05
8.76626e-05
8.90243e-05
8.7885e-05
8.38941e-05
7.5246e-05
5.64265e-05
5.64364e-05
7.53773e-05
8.42755e-05
8.87999e-05
9.10237e-05
9.17815e-05
9.13644e-05
8.97047e-05
8.64932e-05
8.15259e-05
7.62002e-05
7.48698e-05
7.4353e-05
7.4219e-05
7.4176e-05
7.41944e-05
7.41931e-05
7.4187e-05
7.41867e-05
7.41924e-05
7.41932e-05
7.4174e-05
7.42157e-05
7.43466e-05
7.4854e-05
7.61527e-05
8.1385e-05
8.61177e-05
8.88278e-05
8.95014e-05
8.80836e-05
8.39744e-05
7.5273e-05
5.64291e-05
5.64356e-05
7.53799e-05
8.42887e-05
8.88362e-05
9.11124e-05
9.19863e-05
9.18172e-05
9.06702e-05
8.84672e-05
8.52395e-05
8.15547e-05
7.85572e-05
7.62378e-05
7.51433e-05
7.47373e-05
7.46067e-05
7.45613e-05
7.45454e-05
7.45451e-05
7.45603e-05
7.46049e-05
7.47345e-05
7.51386e-05
7.62296e-05
7.85399e-05
8.15033e-05
8.50948e-05
8.80923e-05
8.9797e-05
8.99585e-05
8.82907e-05
8.40622e-05
7.53035e-05
5.64316e-05
5.64345e-05
7.5382e-05
8.42996e-05
8.88662e-05
9.11836e-05
9.21428e-05
9.21393e-05
9.12888e-05
8.956e-05
8.69444e-05
8.36569e-05
8.02007e-05
7.72154e-05
7.56796e-05
7.50751e-05
7.48667e-05
7.47969e-05
7.47744e-05
7.47738e-05
7.47955e-05
7.48644e-05
7.50718e-05
7.56745e-05
7.72069e-05
8.01828e-05
8.36043e-05
8.67979e-05
8.91842e-05
9.0416e-05
9.02814e-05
8.84471e-05
8.4131e-05
7.53274e-05
5.64327e-05
5.64332e-05
7.53831e-05
8.43072e-05
8.88865e-05
9.12304e-05
9.22415e-05
9.23309e-05
9.16293e-05
9.01051e-05
8.77041e-05
8.45138e-05
8.08997e-05
7.76568e-05
7.59363e-05
7.52411e-05
7.49968e-05
7.49144e-05
7.48871e-05
7.48864e-05
7.49126e-05
7.49942e-05
7.52375e-05
7.5931e-05
7.7648e-05
8.0879e-05
8.44605e-05
8.75564e-05
8.97279e-05
9.07553e-05
9.04717e-05
8.8544e-05
8.41748e-05
7.53423e-05
5.64324e-05
5.64318e-05
7.53835e-05
8.43115e-05
8.88982e-05
9.12566e-05
9.22945e-05
9.24291e-05
9.1794e-05
9.03511e-05
8.80221e-05
8.48516e-05
8.11772e-05
7.78339e-05
7.60417e-05
7.53097e-05
7.50503e-05
7.49615e-05
7.49303e-05
7.49293e-05
7.49593e-05
7.50474e-05
7.5306e-05
7.60362e-05
7.7825e-05
8.11561e-05
8.4798e-05
8.78735e-05
8.99728e-05
9.09187e-05
9.05685e-05
8.85952e-05
8.41984e-05
7.53499e-05
5.6431e-05
5.64304e-05
7.53833e-05
8.43136e-05
8.89036e-05
9.12682e-05
9.23172e-05
9.24696e-05
9.18589e-05
9.04435e-05
8.81357e-05
8.49675e-05
8.12713e-05
7.7894e-05
7.60775e-05
7.53327e-05
7.50675e-05
7.49756e-05
7.49415e-05
7.49403e-05
7.49731e-05
7.50645e-05
7.53288e-05
7.60719e-05
7.7885e-05
8.12502e-05
8.49138e-05
8.79869e-05
9.00647e-05
9.0983e-05
9.06081e-05
8.86168e-05
8.42086e-05
7.53528e-05
5.64292e-05
5.64293e-05
7.5383e-05
8.43139e-05
8.89042e-05
9.12691e-05
9.23185e-05
9.24713e-05
9.18612e-05
9.04463e-05
8.81391e-05
8.49713e-05
8.12752e-05
7.78969e-05
7.60793e-05
7.53335e-05
7.50673e-05
7.49743e-05
7.49385e-05
7.49369e-05
7.49716e-05
7.50641e-05
7.53294e-05
7.60736e-05
7.78879e-05
8.12543e-05
8.49178e-05
8.79905e-05
9.00678e-05
9.09854e-05
9.06099e-05
8.86181e-05
8.42094e-05
7.53527e-05
5.64274e-05
5.64291e-05
7.53828e-05
8.43125e-05
8.89001e-05
9.12594e-05
9.22984e-05
9.24344e-05
9.18008e-05
9.03597e-05
8.80326e-05
8.48636e-05
8.11895e-05
7.7843e-05
7.60474e-05
7.53123e-05
7.50501e-05
7.49581e-05
7.49224e-05
7.49207e-05
7.49552e-05
7.50467e-05
7.53082e-05
7.60418e-05
7.78343e-05
8.11692e-05
8.48108e-05
8.78849e-05
8.99822e-05
9.09262e-05
9.05741e-05
8.85991e-05
8.42008e-05
7.53497e-05
5.64269e-05
5.64301e-05
7.53825e-05
8.43088e-05
8.88896e-05
9.12351e-05
9.22479e-05
9.23397e-05
9.1641e-05
9.01203e-05
8.77231e-05
8.45361e-05
8.09233e-05
7.76739e-05
7.59473e-05
7.52466e-05
7.49977e-05
7.49103e-05
7.48773e-05
7.48758e-05
7.49075e-05
7.49944e-05
7.52427e-05
7.59421e-05
7.76658e-05
8.0904e-05
8.44847e-05
8.75772e-05
8.97447e-05
9.07682e-05
9.04813e-05
8.85507e-05
8.41788e-05
7.53425e-05
5.64277e-05
5.64313e-05
7.53816e-05
8.43019e-05
8.88704e-05
9.11899e-05
9.21518e-05
9.21517e-05
9.13057e-05
8.95829e-05
8.69746e-05
8.36941e-05
8.02368e-05
7.72431e-05
7.56974e-05
7.50847e-05
7.48697e-05
7.47938e-05
7.47658e-05
7.47647e-05
7.47912e-05
7.48666e-05
7.50811e-05
7.56929e-05
7.72362e-05
8.022e-05
8.36453e-05
8.68315e-05
8.92097e-05
9.04347e-05
9.02948e-05
8.84564e-05
8.41366e-05
7.53284e-05
5.6428e-05
5.64324e-05
7.53797e-05
8.42912e-05
8.8841e-05
9.11197e-05
9.19968e-05
9.18323e-05
9.0692e-05
8.8499e-05
8.52853e-05
8.16146e-05
7.8611e-05
7.62765e-05
7.51651e-05
7.47472e-05
7.46078e-05
7.4556e-05
7.45359e-05
7.45351e-05
7.45539e-05
7.46051e-05
7.47439e-05
7.51612e-05
7.62714e-05
7.85994e-05
8.15705e-05
8.51463e-05
8.81272e-05
8.98204e-05
8.99745e-05
8.83017e-05
8.4069e-05
7.53051e-05
5.64269e-05
5.64332e-05
7.53768e-05
8.42772e-05
8.88034e-05
9.10294e-05
9.17906e-05
9.13786e-05
8.97276e-05
8.65317e-05
8.15899e-05
7.6295e-05
7.49505e-05
7.43844e-05
7.42186e-05
7.41573e-05
7.41639e-05
7.41562e-05
7.41469e-05
7.41463e-05
7.41544e-05
7.41609e-05
7.41528e-05
7.42128e-05
7.4379e-05
7.49455e-05
7.62604e-05
8.14575e-05
8.61575e-05
8.88494e-05
8.95148e-05
8.80929e-05
8.39805e-05
7.52746e-05
5.64244e-05
5.64336e-05
7.53725e-05
8.4261e-05
8.87641e-05
9.094e-05
9.15853e-05
9.08965e-05
8.8558e-05
8.35615e-05
7.38445e-05
6.15767e-05
6.72841e-05
7.13765e-05
7.2888e-05
7.33065e-05
7.35186e-05
7.3571e-05
7.35757e-05
7.35749e-05
7.35681e-05
7.35117e-05
7.32921e-05
7.28639e-05
7.13491e-05
6.72787e-05
6.15556e-05
7.37254e-05
8.31729e-05
8.76616e-05
8.90203e-05
8.78832e-05
8.38941e-05
7.5245e-05
5.64217e-05
5.64333e-05
7.53638e-05
8.42395e-05
8.87264e-05
9.0877e-05
9.14688e-05
9.06353e-05
8.7824e-05
8.09723e-05
6.31036e-05
5.92761e-05
6.87807e-05
7.15981e-05
7.23599e-05
7.25918e-05
7.26538e-05
7.26656e-05
7.26632e-05
7.26444e-05
7.25673e-05
7.2303e-05
7.14872e-05
6.8612e-05
5.91469e-05
6.29836e-05
8.05335e-05
8.68907e-05
8.87435e-05
8.7768e-05
8.38439e-05
7.52274e-05
5.64203e-05
5.64303e-05
7.53389e-05
8.41944e-05
8.86709e-05
9.08342e-05
9.14902e-05
9.08469e-05
8.86037e-05
8.37689e-05
7.43102e-05
6.20339e-05
6.86522e-05
7.27897e-05
7.40732e-05
7.43815e-05
7.44694e-05
7.44957e-05
7.45006e-05
7.44959e-05
7.44753e-05
7.44092e-05
7.42245e-05
7.37295e-05
7.2189e-05
6.80079e-05
6.17131e-05
7.38783e-05
8.31815e-05
8.76081e-05
8.89423e-05
8.78065e-05
8.38366e-05
7.52171e-05
5.64197e-05
5.64181e-05
7.52649e-05
8.40714e-05
8.85235e-05
9.07107e-05
9.14873e-05
9.11706e-05
8.97287e-05
8.68986e-05
8.25234e-05
7.79145e-05
7.73862e-05
7.71182e-05
7.6475e-05
7.6066e-05
7.59017e-05
7.58487e-05
7.58323e-05
7.5825e-05
7.5815e-05
7.5794e-05
7.57612e-05
7.57408e-05
7.57407e-05
7.58979e-05
7.67061e-05
8.16057e-05
8.60788e-05
8.8646e-05
8.92623e-05
8.7851e-05
8.37945e-05
7.51741e-05
5.64124e-05
5.63792e-05
7.50634e-05
8.37516e-05
8.81309e-05
9.03113e-05
9.11889e-05
9.11609e-05
9.0343e-05
8.87133e-05
8.63292e-05
8.36632e-05
8.16037e-05
7.95386e-05
7.75699e-05
7.6579e-05
7.62041e-05
7.60837e-05
7.6049e-05
7.60398e-05
7.60401e-05
7.60571e-05
7.61398e-05
7.6445e-05
7.7336e-05
7.93124e-05
8.18295e-05
8.50215e-05
8.76987e-05
8.92024e-05
8.92882e-05
8.76591e-05
8.35628e-05
7.5006e-05
5.63781e-05
5.62701e-05
7.45654e-05
8.30001e-05
8.72138e-05
8.93184e-05
9.02308e-05
9.03888e-05
8.99693e-05
8.90079e-05
8.75152e-05
8.55875e-05
8.33954e-05
8.09212e-05
7.85891e-05
7.74005e-05
7.69401e-05
7.67887e-05
7.67448e-05
7.67349e-05
7.67405e-05
7.67769e-05
7.69141e-05
7.73526e-05
7.8527e-05
8.09116e-05
8.35959e-05
8.61039e-05
8.79582e-05
8.88675e-05
8.86339e-05
8.69096e-05
8.28861e-05
7.45361e-05
5.62725e-05
5.59881e-05
7.34286e-05
8.13724e-05
8.52744e-05
8.72034e-05
8.80666e-05
8.83085e-05
8.81242e-05
8.75622e-05
8.66033e-05
8.52273e-05
8.3462e-05
8.14274e-05
7.95413e-05
7.84961e-05
7.80601e-05
7.7907e-05
7.78615e-05
7.78521e-05
7.78593e-05
7.79027e-05
7.80512e-05
7.84804e-05
7.95252e-05
8.14444e-05
8.35595e-05
8.54009e-05
8.66649e-05
8.71816e-05
8.678e-05
8.50988e-05
8.13147e-05
7.34193e-05
5.5993e-05
5.53101e-05
7.09596e-05
7.80056e-05
8.13768e-05
8.30013e-05
8.37271e-05
8.39691e-05
8.39127e-05
8.36087e-05
8.30355e-05
8.21539e-05
8.09651e-05
7.95881e-05
7.83312e-05
7.75864e-05
7.72507e-05
7.7127e-05
7.70885e-05
7.70803e-05
7.70878e-05
7.71252e-05
7.72472e-05
7.75812e-05
7.83283e-05
7.9599e-05
8.10019e-05
8.21956e-05
8.29739e-05
8.32186e-05
8.27758e-05
8.12948e-05
7.79869e-05
7.09629e-05
5.53163e-05
5.38071e-05
6.56097e-05
7.09644e-05
7.3439e-05
7.4579e-05
7.50713e-05
7.52451e-05
7.52454e-05
7.51136e-05
7.48355e-05
7.43777e-05
7.37343e-05
7.29779e-05
7.22841e-05
7.18542e-05
7.16502e-05
7.15711e-05
7.15452e-05
7.15396e-05
7.15455e-05
7.15714e-05
7.16502e-05
7.18539e-05
7.2285e-05
7.29834e-05
7.37467e-05
7.43817e-05
7.47721e-05
7.48483e-05
7.4493e-05
7.34176e-05
7.09679e-05
6.56185e-05
5.3813e-05
5.1179e-05
5.381e-05
5.53181e-05
5.60016e-05
5.62889e-05
5.64032e-05
5.64451e-05
5.64542e-05
5.64403e-05
5.63989e-05
5.63266e-05
5.62145e-05
5.60728e-05
5.5936e-05
5.5849e-05
5.58056e-05
5.57861e-05
5.57768e-05
5.57735e-05
5.57772e-05
5.57866e-05
5.58058e-05
5.58487e-05
5.59353e-05
5.6072e-05
5.62139e-05
5.63242e-05
5.63865e-05
5.63878e-05
5.62936e-05
5.60129e-05
5.53291e-05
5.38177e-05
5.11833e-05
7.92266e-05
8.94089e-05
9.49308e-05
9.7565e-05
9.87709e-05
9.92923e-05
9.95012e-05
9.95763e-05
9.95975e-05
9.95983e-05
9.95922e-05
9.95849e-05
9.9579e-05
9.9575e-05
9.95723e-05
9.95704e-05
9.9569e-05
9.95682e-05
9.95681e-05
9.95688e-05
9.957e-05
9.95718e-05
9.95742e-05
9.95774e-05
9.95808e-05
9.95797e-05
9.95609e-05
9.94899e-05
9.92854e-05
9.87675e-05
9.75639e-05
9.4931e-05
8.94098e-05
7.92278e-05
8.94093e-05
0.000259551
0.000319697
0.00034728
0.000360802
0.000367262
0.000370122
0.000371228
0.000371532
0.000371494
0.000371334
0.000371155
0.00037101
0.000370911
0.000370848
0.000370807
0.000370781
0.000370768
0.000370768
0.000370781
0.000370807
0.000370847
0.000370905
0.000370989
0.000371083
0.000371109
0.000370852
0.00036983
0.000367062
0.000360678
0.000347208
0.000319657
0.000259533
8.94103e-05
9.49335e-05
0.000319721
0.000404401
0.00044469
0.000465177
0.000475365
0.000480043
0.000481862
0.000482273
0.000482044
0.000481587
0.000481128
0.000480775
0.000480552
0.000480424
0.000480346
0.000480297
0.000480272
0.000480273
0.000480298
0.000480348
0.000480423
0.000480541
0.00048073
0.000480979
0.000481145
0.000480839
0.000479241
0.000474818
0.000464851
0.00044452
0.000404324
0.000319697
9.49356e-05
9.757e-05
0.00034732
0.000444709
0.000492335
0.000517187
0.000529821
0.000535638
0.000537704
0.000537781
0.000536898
0.000535698
0.000534592
0.000533779
0.000533293
0.000533033
0.000532871
0.000532765
0.000532712
0.000532712
0.000532767
0.000532873
0.000533031
0.000533276
0.000533711
0.000534371
0.000535059
0.000535207
0.000533667
0.000528468
0.000516374
0.000491909
0.00044452
0.000347261
9.75723e-05
9.87778e-05
0.000360851
0.000465212
0.000517208
0.000544763
0.000558828
0.00056503
0.000566609
0.000565518
0.000563056
0.000560232
0.000557804
0.000556099
0.000555146
0.000554673
0.000554354
0.000554131
0.000554018
0.000554019
0.000554134
0.000554356
0.000554671
0.000555125
0.000556014
0.000557528
0.00055944
0.00056099
0.000560585
0.00055577
0.000542915
0.000516227
0.000464765
0.0003607
9.87775e-05
9.93004e-05
0.000367319
0.00047542
0.000529883
0.00055889
0.000573425
0.000579067
0.000579011
0.000575276
0.000569517
0.000563469
0.000558683
0.00055551
0.000553909
0.00055322
0.000552647
0.00055221
0.000551989
0.00055199
0.000552213
0.00055265
0.000553219
0.000553888
0.000555418
0.000558378
0.000562583
0.000567204
0.000569788
0.000567086
0.000555067
0.00052784
0.000474472
0.000366979
9.92925e-05
9.95102e-05
0.000370191
0.000480141
0.000535796
0.000565269
0.000579327
0.000583232
0.00057982
0.000570927
0.00055867
0.000546487
0.000538356
0.000533424
0.000531356
0.000530762
0.00052982
0.000529038
0.000528656
0.000528657
0.000529042
0.000529824
0.000530764
0.000531339
0.000533338
0.000538054
0.000545575
0.000556233
0.000565106
0.000567219
0.000558068
0.000531961
0.00047834
0.000369522
9.94866e-05
9.95862e-05
0.000371324
0.000482051
0.000538078
0.000567272
0.000579979
0.000580793
0.000571606
0.000553249
0.000527884
0.000503107
0.000493557
0.000488826
0.000487742
0.000488288
0.000486891
0.000485695
0.000485155
0.000485156
0.000485698
0.000486896
0.000488293
0.000487733
0.00048876
0.000493296
0.000502248
0.000525436
0.000547257
0.0005586
0.000554936
0.0005316
0.000479006
0.000370165
9.95373e-05
9.96092e-05
0.000371682
0.000482638
0.000538577
0.000567043
0.00057778
0.000574265
0.000556288
0.000520932
0.000465748
0.000404433
0.000415169
0.000422107
0.000426496
0.000430082
0.000428465
0.000427166
0.000426653
0.000426654
0.000427169
0.00042847
0.000430089
0.000426496
0.000422075
0.000415007
0.000403768
0.000463424
0.00051487
0.000543015
0.00054797
0.000528818
0.000478082
0.000369924
9.95274e-05
9.96132e-05
0.000371739
0.000482705
0.000538407
0.000566077
0.00057481
0.000566598
0.000537388
0.000473106
0.000338744
0.000115893
0.000280398
0.00034065
0.000358933
0.000366556
0.000366009
0.000365461
0.000365276
0.000365277
0.000365463
0.000366013
0.000366565
0.000358945
0.000340668
0.000280428
0.000115801
0.000336885
0.000467065
0.000523914
0.000540002
0.000525497
0.000476747
0.000369422
9.94998e-05
9.9612e-05
0.000371717
0.000482672
0.000538238
0.000565473
0.000573082
0.000561975
0.00052405
0.000424631
0.000118809
0.000105467
0.000273413
0.000307178
0.000314459
0.00031769
0.000318722
0.00031895
0.000318951
0.000318724
0.000317696
0.000314468
0.000307195
0.000273453
0.000105472
0.00011846
0.000418821
0.000510477
0.000535221
0.000523594
0.000475962
0.000369091
9.94819e-05
9.96107e-05
0.000371706
0.000482721
0.000538376
0.000565785
0.000573858
0.000564328
0.000532848
0.000465207
0.000327254
0.00011246
0.000247067
0.000292579
0.000303032
0.000300371
0.000308103
0.000310769
0.00031128
0.000311279
0.000310768
0.000308103
0.000300364
0.000303023
0.000292564
0.000247035
0.000112352
0.000325343
0.000459128
0.000519307
0.000537615
0.000524371
0.000476228
0.000369132
9.94862e-05
9.96106e-05
0.000371727
0.000482868
0.000538786
0.000566775
0.00057618
0.000569871
0.000546805
0.000503067
0.00043531
0.000357781
0.000341867
0.000325185
0.000318721
0.000315215
0.0003169
0.000317696
0.000317856
0.000317855
0.000317693
0.000316894
0.000315199
0.000318691
0.000325117
0.00034167
0.000357108
0.000432975
0.000496946
0.000533371
0.000543282
0.000526779
0.000477241
0.000369475
9.95069e-05
9.96108e-05
0.000371765
0.000483053
0.000539286
0.000567943
0.000578745
0.000575312
0.000558138
0.000526294
0.000480251
0.000427182
0.000383052
0.000344837
0.000329038
0.000323501
0.00032234
0.000322115
0.000322058
0.000322057
0.000322113
0.000322334
0.000323486
0.000329004
0.000344753
0.000382809
0.000426376
0.000477811
0.000520175
0.000544781
0.000548821
0.00052942
0.00047843
0.000369907
9.95309e-05
9.96107e-05
0.000371802
0.000483219
0.000539721
0.000568931
0.000580804
0.000579327
0.000565511
0.000538959
0.000499819
0.000451359
0.000400637
0.000354661
0.000334432
0.000327239
0.000325081
0.000324505
0.000324374
0.000324374
0.000324505
0.000325078
0.000327227
0.000334399
0.000354576
0.000400388
0.000450517
0.000497342
0.000532835
0.000552184
0.00055288
0.000531511
0.000479414
0.000370274
9.95494e-05
9.961e-05
0.000371827
0.000483336
0.000540027
0.000569609
0.000582162
0.000581823
0.000569721
0.000545413
0.000508535
0.000460943
0.000408067
0.000359183
0.000337033
0.000328974
0.000326442
0.00032575
0.000325597
0.000325598
0.00032575
0.000326439
0.000328963
0.000337002
0.000359101
0.000407837
0.000460088
0.000506037
0.000539274
0.000556391
0.00055538
0.000532868
0.00048007
0.000370519
9.95602e-05
9.9609e-05
0.000371842
0.000483405
0.000540207
0.000569999
0.000582922
0.000583162
0.000571851
0.000548444
0.000512296
0.000464795
0.000411072
0.00036108
0.000338153
0.00032972
0.000327043
0.000326312
0.000326154
0.000326155
0.000326312
0.000327042
0.00032971
0.000338123
0.000360998
0.000410836
0.000463932
0.000509785
0.000542291
0.000558509
0.000556708
0.000533613
0.000480436
0.000370655
9.95649e-05
9.96079e-05
0.000371848
0.000483436
0.000540288
0.000570173
0.000583252
0.000583726
0.000572716
0.00054962
0.00051368
0.000466148
0.000412115
0.000361746
0.000338548
0.000329981
0.000327254
0.00032651
0.000326352
0.000326353
0.000326511
0.000327253
0.000329971
0.000338517
0.000361664
0.000411878
0.000465281
0.000511162
0.000543458
0.000559365
0.000557263
0.000533932
0.000480594
0.000370713
9.95659e-05
9.96071e-05
0.000371848
0.000483438
0.000540291
0.000570178
0.00058326
0.000583736
0.000572729
0.000549634
0.000513696
0.000466164
0.000412131
0.000361766
0.00033856
0.000329987
0.000327259
0.000326514
0.000326357
0.000326358
0.000326516
0.000327258
0.000329978
0.00033853
0.000361685
0.000411894
0.000465298
0.000511179
0.000543474
0.000559378
0.000557272
0.000533939
0.000480597
0.000370713
9.95649e-05
9.9607e-05
0.000371841
0.000483409
0.000540216
0.000570015
0.000582944
0.000583192
0.000571889
0.00054849
0.000512347
0.000464847
0.000411123
0.000361146
0.000338197
0.000329747
0.000327064
0.000326332
0.000326177
0.000326178
0.000326334
0.000327063
0.000329739
0.000338169
0.000361068
0.00041089
0.000463986
0.000509838
0.000542339
0.000558548
0.000556737
0.000533633
0.000480447
0.000370657
9.95624e-05
9.96074e-05
0.000371826
0.000483343
0.000540042
0.000569633
0.000582198
0.000581872
0.000569785
0.000545493
0.00050863
0.000461046
0.000408171
0.000359315
0.000337128
0.000329042
0.0003265
0.000325809
0.000325661
0.000325662
0.000325813
0.000326503
0.000329038
0.000337105
0.000359243
0.000407944
0.000460197
0.000506138
0.000539359
0.000556457
0.000555428
0.0005329
0.000480087
0.000370521
9.95569e-05
9.96077e-05
0.000371798
0.000483225
0.000539738
0.00056896
0.000580847
0.00057939
0.0005656
0.00053908
0.000499977
0.000451546
0.000400843
0.000354891
0.000334606
0.00032738
0.00032521
0.000324636
0.000324511
0.000324513
0.000324642
0.000325217
0.000327382
0.000334592
0.000354831
0.000400633
0.000450722
0.000497512
0.00053296
0.000552271
0.000552939
0.000531549
0.000479435
0.000370275
9.95458e-05
9.96076e-05
0.000371755
0.000483052
0.000539293
0.00056796
0.000578777
0.000575369
0.000558233
0.000526453
0.000480501
0.000427526
0.000383454
0.00034518
0.000329282
0.000323707
0.000322523
0.000322302
0.000322254
0.000322257
0.000322312
0.000322537
0.000323717
0.000329277
0.000345135
0.000383267
0.000426759
0.000478082
0.000520327
0.000544857
0.000548859
0.000529442
0.00047844
0.0003699
9.9527e-05
9.96066e-05
0.0003717
0.000482834
0.000538745
0.000566729
0.000576138
0.000569851
0.000546838
0.000503222
0.000435687
0.000358382
0.000342459
0.000325446
0.000318761
0.000315184
0.000316804
0.0003176
0.000317772
0.000317777
0.000317612
0.000316818
0.000315183
0.000318733
0.000325394
0.000342358
0.000357789
0.000433389
0.000497037
0.000533314
0.000543199
0.000526716
0.000477199
0.000369441
9.95019e-05
9.96042e-05
0.000371624
0.000482582
0.00053818
0.000565538
0.000573576
0.000564033
0.000532593
0.000465152
0.000327741
0.00011258
0.000247333
0.00029157
0.000301385
0.000298384
0.000305986
0.000308659
0.000309186
0.000309186
0.000308654
0.000305953
0.000298255
0.000301137
0.000291274
0.000247393
0.000112477
0.000325916
0.000458798
0.000518754
0.000537143
0.000524046
0.00047603
0.00036902
9.94774e-05
9.95972e-05
0.000371478
0.000482236
0.000537613
0.000564681
0.000572145
0.000560903
0.000522875
0.000423572
0.000118613
0.000104452
0.000266933
0.000298648
0.000304658
0.000307611
0.000308648
0.000308901
0.000308885
0.000308575
0.000307381
0.000304059
0.000297422
0.00026514
0.000103982
0.000118043
0.000416733
0.000508454
0.000533722
0.0005226
0.000475358
0.000368776
9.94627e-05
9.95733e-05
0.000371075
0.000481497
0.000536712
0.000563959
0.000572304
0.000563658
0.000533864
0.000468855
0.000334254
0.000114307
0.000265072
0.000318534
0.00033056
0.000333937
0.000333024
0.000332704
0.000332655
0.00033261
0.000332493
0.000332356
0.000332123
0.000326396
0.000311049
0.000257487
0.000113001
0.000328331
0.000459417
0.000518351
0.000536214
0.000523
0.000475191
0.000368609
9.94526e-05
9.9499e-05
0.000369951
0.000479593
0.000534435
0.000561989
0.000571903
0.000567431
0.000547967
0.000509998
0.000450227
0.000381311
0.000377937
0.000369637
0.000357275
0.00035124
0.000348465
0.000347561
0.000347317
0.000347238
0.000347182
0.0003472
0.000347513
0.000347733
0.000350291
0.000357204
0.00036464
0.000436284
0.000496775
0.00053101
0.000539877
0.000523303
0.000474467
0.000367963
9.94068e-05
9.92926e-05
0.000367122
0.000474986
0.000528794
0.000556252
0.000567489
0.000566686
0.000555006
0.000532106
0.000498407
0.000459394
0.000428119
0.000394984
0.000362303
0.000348597
0.000343828
0.00034236
0.000341952
0.00034185
0.000341865
0.000342116
0.000343246
0.000347257
0.000360299
0.000393749
0.000431806
0.000477976
0.000515706
0.000537087
0.000539631
0.000520451
0.000471192
0.000365672
9.92312e-05
9.87736e-05
0.000360707
0.000464924
0.000516479
0.000542954
0.000554694
0.000556343
0.000549756
0.000535266
0.000512878
0.00048362
0.000449826
0.000411361
0.000373816
0.000357592
0.000351836
0.000350007
0.000349479
0.000349361
0.000349437
0.00034989
0.000351585
0.000357144
0.00037341
0.000411998
0.000453095
0.000490624
0.000518254
0.000532398
0.000531009
0.000510627
0.000462337
0.000359739
9.8738e-05
9.75691e-05
0.000347221
0.000444551
0.000491929
0.000516125
0.000527293
0.000530157
0.000526788
0.000517669
0.000502498
0.000481013
0.00045378
0.000422818
0.000394413
0.000380193
0.000374535
0.000372569
0.000371951
0.000371811
0.00037194
0.00037253
0.000374455
0.000380096
0.000394457
0.000423415
0.000455425
0.000483424
0.000503012
0.000511861
0.000508123
0.000488152
0.000442945
0.000346633
9.7552e-05
9.4935e-05
0.000319658
0.000404337
0.00044452
0.000464673
0.000474059
0.000477043
0.000475608
0.000470283
0.000460778
0.000446665
0.000428216
0.000407385
0.000388774
0.000378311
0.000373697
0.000371947
0.00037136
0.000371228
0.000371365
0.000371953
0.000373702
0.000378331
0.000388882
0.000407735
0.000428914
0.0004473
0.000459752
0.000464535
0.000459924
0.00044238
0.000403471
0.000319343
9.49298e-05
8.94125e-05
0.000259524
0.000319697
0.000347259
0.00036066
0.000366789
0.000368898
0.000368477
0.000365957
0.000361163
0.000353781
0.000343924
0.000332766
0.000322807
0.000316777
0.000313915
0.000312761
0.000312356
0.000312265
0.00031237
0.000312788
0.000313953
0.000316834
0.000322912
0.000332966
0.000344227
0.000353913
0.00036026
0.000362212
0.000358486
0.000346334
0.000319343
0.000259389
8.94137e-05
7.923e-05
8.94124e-05
9.49395e-05
9.75786e-05
9.87855e-05
9.92978e-05
9.94755e-05
9.94754e-05
9.93416e-05
9.90596e-05
9.85954e-05
9.79407e-05
9.71694e-05
9.64634e-05
9.60228e-05
9.58108e-05
9.5725e-05
9.56945e-05
9.56875e-05
9.56954e-05
9.57265e-05
9.58126e-05
9.60247e-05
9.64667e-05
9.71771e-05
9.79538e-05
9.85979e-05
9.89929e-05
9.9067e-05
9.86915e-05
9.75482e-05
9.49334e-05
8.94132e-05
7.92347e-05
8.2928e-05
9.70635e-05
0.000104654
0.00010837
0.000110146
0.000110953
0.000111293
0.00011142
0.000111456
0.000111455
0.000111442
0.000111426
0.000111413
0.000111404
0.000111399
0.000111395
0.000111393
0.000111391
0.000111391
0.000111392
0.000111395
0.000111398
0.000111403
0.00011141
0.000111418
0.000111418
0.000111387
0.000111267
0.000110936
0.000110136
0.000108365
0.000104652
9.70629e-05
8.29292e-05
9.70635e-05
0.000339426
0.000432425
0.000476299
0.000498372
0.000509246
0.000514226
0.00051621
0.000516754
0.000516654
0.000516309
0.000515926
0.000515609
0.000515388
0.000515247
0.000515154
0.000515096
0.000515067
0.000515067
0.000515095
0.000515153
0.000515241
0.000515371
0.000515557
0.000515766
0.000515847
0.000515399
0.000513588
0.000508798
0.000498085
0.000476125
0.000432324
0.000339376
9.70627e-05
0.000104657
0.000432466
0.000571393
0.000639694
0.000675156
0.000693173
0.000701639
0.000704989
0.00070572
0.000705209
0.000704228
0.000703226
0.000702436
0.000701922
0.000701621
0.000701435
0.000701318
0.000701261
0.000701261
0.000701318
0.000701434
0.000701614
0.000701891
0.000702329
0.0007029
0.000703311
0.000702812
0.000699921
0.000691979
0.000674417
0.000639285
0.000571191
0.000432388
0.000104656
0.000108375
0.000476366
0.00063973
0.000722394
0.000766338
0.000789063
0.0007997
0.000803505
0.000803564
0.000801735
0.000799226
0.000796849
0.000795051
0.000793948
0.000793342
0.000792959
0.000792713
0.000792591
0.000792592
0.000792714
0.000792959
0.000793332
0.000793902
0.000794893
0.000796369
0.000797901
0.000798361
0.000795632
0.000786231
0.000764592
0.000721439
0.000639275
0.000476201
0.000108372
0.000110153
0.000498458
0.000675225
0.000766384
0.000815542
0.000840996
0.000852352
0.00085521
0.000853004