/*--------------------------------*- C++ -*----------------------------------*\
| =========                 |                                                 |
| \\      /  F ield         | OpenFOAM: The Open Source CFD Toolbox           |
|  \\    /   O peration     | Version:  2112                                  |
|   \\  /    A nd           | Website:  www.openfoam.com                      |
|    \\/     M anipulation  |                                                 |
\*---------------------------------------------------------------------------*/
FoamFile
{
    version     2.0;
    format      ascii;
    arch        "LSB;label=32;scalar=64";
    class       volScalarField;
    location    "3";
    object      p;
}
// * * * * * * * * * * * * * * * * * * * * * * * * * * * * * * * * * * * * * //

dimensions      [0 2 -2 0 0 0 0];

internalField   nonuniform List<scalar> 
64906
(
-6.01321e-06
-5.9932e-06
-5.97871e-06
-5.98235e-06
-6.00686e-06
-6.05534e-06
-6.12959e-06
-6.23023e-06
-6.35603e-06
-6.5051e-06
-6.68816e-06
-6.85696e-06
-7.01671e-06
-7.16365e-06
-7.29071e-06
-7.39426e-06
-7.47134e-06
-7.52082e-06
-7.54217e-06
-7.53554e-06
-7.50181e-06
-7.44243e-06
-7.36075e-06
-7.26064e-06
-7.14961e-06
-7.0316e-06
-6.89851e-06
-6.80244e-06
-6.73241e-06
-6.68841e-06
-6.67016e-06
-6.67876e-06
-6.69326e-06
-6.71321e-06
-5.95486e-06
-5.87825e-06
-5.82041e-06
-5.78042e-06
-5.76898e-06
-5.7841e-06
-5.82329e-06
-5.88405e-06
-5.96251e-06
-6.05487e-06
-6.14103e-06
-6.24699e-06
-6.34786e-06
-6.44052e-06
-6.51967e-06
-6.58515e-06
-6.63543e-06
-6.6706e-06
-6.69051e-06
-6.69529e-06
-6.68542e-06
-6.66105e-06
-6.624e-06
-6.57456e-06
-6.51831e-06
-6.45824e-06
-6.42297e-06
-6.38332e-06
-6.36092e-06
-6.36143e-06
-6.38988e-06
-6.44515e-06
-6.53586e-06
-6.63223e-06
-5.93084e-06
-5.81342e-06
-5.70577e-06
-5.61935e-06
-5.56956e-06
-5.55405e-06
-5.56867e-06
-5.61017e-06
-5.67418e-06
-5.75791e-06
-5.84928e-06
-5.95062e-06
-6.04069e-06
-6.12025e-06
-6.18324e-06
-6.23403e-06
-6.27266e-06
-6.30112e-06
-6.31984e-06
-6.32894e-06
-6.32831e-06
-6.31618e-06
-6.29286e-06
-6.25419e-06
-6.20688e-06
-6.15067e-06
-6.10898e-06
-6.08012e-06
-6.07931e-06
-6.11294e-06
-6.18879e-06
-6.30977e-06
-6.45805e-06
-6.61068e-06
-5.94261e-06
-5.78833e-06
-5.63558e-06
-5.50621e-06
-5.42371e-06
-5.38703e-06
-5.39301e-06
-5.44042e-06
-5.5267e-06
-5.65304e-06
-5.80241e-06
-5.97074e-06
-6.11027e-06
-6.2256e-06
-6.30747e-06
-6.36888e-06
-6.41186e-06
-6.4416e-06
-6.45926e-06
-6.46494e-06
-6.45779e-06
-6.4328e-06
-6.38843e-06
-6.312e-06
-6.21395e-06
-6.09039e-06
-5.99258e-06
-5.9263e-06
-5.9138e-06
-5.95908e-06
-6.06897e-06
-6.24368e-06
-6.44856e-06
-6.65016e-06
-6.00397e-06
-5.81907e-06
-5.63019e-06
-5.46938e-06
-5.36781e-06
-5.32783e-06
-5.34996e-06
-5.43898e-06
-5.59822e-06
-5.83888e-06
-6.1352e-06
-6.48153e-06
-6.75653e-06
-6.97389e-06
-7.11989e-06
-7.22483e-06
-7.29308e-06
-7.33478e-06
-7.35181e-06
-7.34424e-06
-7.31043e-06
-7.24038e-06
-7.13039e-06
-6.95049e-06
-6.71646e-06
-6.41519e-06
-6.17445e-06
-6.00082e-06
-5.92751e-06
-5.94993e-06
-6.06944e-06
-6.27854e-06
-6.52761e-06
-6.77055e-06
-6.11678e-06
-5.9044e-06
-5.68186e-06
-5.50162e-06
-5.39491e-06
-5.36996e-06
-5.43333e-06
-5.59968e-06
-5.8839e-06
-6.31813e-06
-6.87223e-06
-7.56174e-06
-8.0768e-06
-8.4701e-06
-8.72632e-06
-8.909e-06
-9.0242e-06
-9.08915e-06
-9.10607e-06
-9.07496e-06
-8.99372e-06
-8.84507e-06
-8.62381e-06
-8.26669e-06
-7.7924e-06
-7.14781e-06
-6.65567e-06
-6.29621e-06
-6.11055e-06
-6.07478e-06
-6.17983e-06
-6.40647e-06
-6.69183e-06
-6.97486e-06
-6.27695e-06
-6.03029e-06
-5.78814e-06
-5.59155e-06
-5.49058e-06
-5.49663e-06
-5.62243e-06
-5.89486e-06
-6.34619e-06
-7.0508e-06
-7.96775e-06
-9.27918e-06
-1.01433e-05
-1.07794e-05
-1.11811e-05
-1.14688e-05
-1.16477e-05
-1.1745e-05
-1.17624e-05
-1.16998e-05
-1.15553e-05
-1.13015e-05
-1.0934e-05
-1.03323e-05
-9.50892e-06
-8.23918e-06
-7.39591e-06
-6.77341e-06
-6.43263e-06
-6.3099e-06
-6.38088e-06
-6.61138e-06
-6.9345e-06
-7.26055e-06
-6.48022e-06
-6.19594e-06
-5.9319e-06
-5.72664e-06
-5.64327e-06
-5.69647e-06
-5.90352e-06
-6.29877e-06
-6.9347e-06
-7.92562e-06
-9.23902e-06
-1.17086e-05
-1.29738e-05
-1.39116e-05
-1.44929e-05
-1.49172e-05
-1.51804e-05
-1.53212e-05
-1.53398e-05
-1.52357e-05
-1.50086e-05
-1.46187e-05
-1.40709e-05
-1.31644e-05
-1.19401e-05
-9.49938e-06
-8.28668e-06
-7.38095e-06
-6.86511e-06
-6.63802e-06
-6.65954e-06
-6.89033e-06
-7.23501e-06
-7.62031e-06
-6.71951e-06
-6.39085e-06
-6.10242e-06
-5.89319e-06
-5.83783e-06
-5.95235e-06
-6.25369e-06
-6.77442e-06
-7.53757e-06
-8.74941e-06
-1.04301e-05
-1.50499e-05
-1.64278e-05
-1.76564e-05
-1.8418e-05
-1.89733e-05
-1.93185e-05
-1.95026e-05
-1.95229e-05
-1.93787e-05
-1.90723e-05
-1.85529e-05
-1.78248e-05
-1.66208e-05
-1.52855e-05
-1.06742e-05
-9.16543e-06
-8.01076e-06
-7.36996e-06
-7.03277e-06
-6.99299e-06
-7.21487e-06
-7.58669e-06
-8.04523e-06
-6.99358e-06
-6.60727e-06
-6.29343e-06
-6.08879e-06
-6.08161e-06
-6.28986e-06
-6.73136e-06
-7.40829e-06
-8.3803e-06
-1.07719e-05
-8.76691e-06
-1.85641e-05
-1.99854e-05
-2.17481e-05
-2.27758e-05
-2.3538e-05
-2.40133e-05
-2.42616e-05
-2.42839e-05
-2.40795e-05
-2.36472e-05
-2.29244e-05
-2.19321e-05
-2.01892e-05
-1.88394e-05
-8.9056e-06
-1.1174e-05
-8.83569e-06
-8.01994e-06
-7.54261e-06
-7.39728e-06
-7.58423e-06
-7.97721e-06
-8.52752e-06
-7.29601e-06
-6.83126e-06
-6.48889e-06
-6.29214e-06
-6.34509e-06
-6.66995e-06
-7.25147e-06
-7.94197e-06
-8.61862e-06
-6.4141e-06
-2.74197e-05
-2.47394e-05
-2.58223e-05
-2.6804e-05
-2.76513e-05
-2.82132e-05
-2.85002e-05
-2.85243e-05
-2.82853e-05
-2.77702e-05
-2.69662e-05
-2.60202e-05
-2.49511e-05
-2.75494e-05
-7.15421e-06
-9.22492e-06
-8.60369e-06
-8.0916e-06
-7.83237e-06
-7.96485e-06
-8.37278e-06
-9.05168e-06
-7.60828e-06
-7.04091e-06
-6.68548e-06
-6.51021e-06
-6.65959e-06
-7.20807e-06
-8.27378e-06
-1.00248e-05
-1.2914e-05
-1.66281e-05
-2.49259e-05
-2.38913e-05
-2.68528e-05
-2.90728e-05
-3.07757e-05
-3.20447e-05
-3.28299e-05
-3.32073e-05
-3.32331e-05
-3.29076e-05
-3.21753e-05
-3.09603e-05
-2.93141e-05
-2.71569e-05
-2.42559e-05
-2.54423e-05
-1.70699e-05
-1.34064e-05
-1.06227e-05
-9.08956e-06
-8.39711e-06
-8.38435e-06
-8.78962e-06
-9.60021e-06
-7.888e-06
-7.25353e-06
-6.86677e-06
-6.69536e-06
-6.90262e-06
-7.57825e-06
-8.85135e-06
-1.08423e-05
-1.36974e-05
-1.70889e-05
-2.26635e-05
-2.57723e-05
-2.86854e-05
-3.12208e-05
-3.32514e-05
-3.46878e-05
-3.55745e-05
-3.59994e-05
-3.6026e-05
-3.56546e-05
-3.48227e-05
-3.34427e-05
-3.14709e-05
-2.89891e-05
-2.61151e-05
-2.30868e-05
-1.75426e-05
-1.41705e-05
-1.14163e-05
-9.66166e-06
-8.80463e-06
-8.73751e-06
-9.17694e-06
-1.01211e-05
-8.14143e-06
-7.45063e-06
-7.03201e-06
-6.85588e-06
-7.09841e-06
-7.85516e-06
-9.25652e-06
-1.14165e-05
-1.44616e-05
-1.82286e-05
-2.28929e-05
-2.6569e-05
-2.99839e-05
-3.27989e-05
-3.50117e-05
-3.65174e-05
-3.74349e-05
-3.78682e-05
-3.78949e-05
-3.75153e-05
-3.66532e-05
-3.52048e-05
-3.30523e-05
-3.02927e-05
-2.69315e-05
-2.32929e-05
-1.86388e-05
-1.49017e-05
-1.19709e-05
-1.00702e-05
-9.12657e-06
-9.04397e-06
-9.52648e-06
-1.05759e-05
-8.36145e-06
-7.62155e-06
-7.17121e-06
-6.97968e-06
-7.23024e-06
-8.01749e-06
-9.46508e-06
-1.16799e-05
-1.47599e-05
-1.85675e-05
-2.29603e-05
-2.69878e-05
-3.07245e-05
-3.36655e-05
-3.59383e-05
-3.7446e-05
-3.83539e-05
-3.87775e-05
-3.88039e-05
-3.84335e-05
-3.75803e-05
-3.61292e-05
-3.39163e-05
-3.103e-05
-2.73476e-05
-2.33414e-05
-1.89585e-05
-1.5184e-05
-1.22288e-05
-1.02946e-05
-9.34155e-06
-9.28334e-06
-9.81944e-06
-1.0959e-05
-8.54322e-06
-7.76365e-06
-7.28593e-06
-7.07679e-06
-7.32416e-06
-8.12076e-06
-9.58431e-06
-1.18186e-05
-1.49082e-05
-1.87366e-05
-2.30935e-05
-2.72924e-05
-3.11909e-05
-3.42007e-05
-3.64945e-05
-3.79852e-05
-3.88718e-05
-3.92807e-05
-3.9307e-05
-3.8951e-05
-3.81188e-05
-3.66841e-05
-3.44496e-05
-3.14945e-05
-2.76536e-05
-2.3466e-05
-1.91176e-05
-1.53254e-05
-1.23705e-05
-1.04355e-05
-9.49681e-06
-9.47246e-06
-1.00574e-05
-1.12675e-05
-8.68301e-06
-7.87385e-06
-7.37461e-06
-7.14923e-06
-7.38876e-06
-8.18445e-06
-9.65065e-06
-1.18917e-05
-1.49884e-05
-1.88434e-05
-2.32286e-05
-2.75301e-05
-3.15133e-05
-3.45591e-05
-3.68602e-05
-3.83371e-05
-3.92083e-05
-3.96073e-05
-3.96339e-05
-3.92885e-05
-3.84719e-05
-3.70508e-05
-3.48085e-05
-3.18157e-05
-2.7887e-05
-2.35965e-05
-1.92207e-05
-1.54051e-05
-1.24511e-05
-1.05239e-05
-9.60536e-06
-9.61308e-06
-1.02372e-05
-1.14988e-05
-8.77948e-06
-7.95154e-06
-7.43848e-06
-7.2023e-06
-7.43635e-06
-8.23162e-06
-9.70151e-06
-1.1952e-05
-1.50639e-05
-1.89495e-05
-2.33742e-05
-2.77405e-05
-3.17798e-05
-3.48551e-05
-3.7168e-05
-3.86444e-05
-3.95117e-05
-3.9908e-05
-3.99355e-05
-3.95945e-05
-3.87832e-05
-3.73636e-05
-3.51095e-05
-3.20859e-05
-2.80983e-05
-2.37432e-05
-1.93284e-05
-1.5484e-05
-1.25199e-05
-1.05926e-05
-9.68483e-06
-9.71247e-06
-1.03611e-05
-1.16548e-05
-8.83232e-06
-7.99641e-06
-7.47779e-06
-7.23762e-06
-7.47085e-06
-8.26922e-06
-9.74718e-06
-1.20128e-05
-1.51479e-05
-1.90658e-05
-2.3529e-05
-2.79364e-05
-3.20106e-05
-3.5112e-05
-3.74431e-05
-3.8932e-05
-3.98073e-05
-4.02082e-05
-4.02373e-05
-3.98948e-05
-3.90781e-05
-3.76478e-05
-3.53765e-05
-3.23267e-05
-2.83026e-05
-2.3905e-05
-1.94507e-05
-1.55738e-05
-1.25885e-05
-1.06499e-05
-9.74001e-06
-9.77268e-06
-1.04303e-05
-1.17375e-05
-8.84205e-06
-8.00892e-06
-7.49294e-06
-7.25552e-06
-7.49267e-06
-8.29805e-06
-9.78894e-06
-1.20739e-05
-1.52381e-05
-1.91899e-05
-2.36925e-05
-2.81216e-05
-3.22083e-05
-3.53305e-05
-3.76841e-05
-3.91973e-05
-4.00914e-05
-4.05038e-05
-4.05351e-05
-4.01855e-05
-3.9354e-05
-3.79027e-05
-3.56109e-05
-3.25413e-05
-2.85037e-05
-2.40816e-05
-1.95852e-05
-1.56722e-05
-1.26555e-05
-1.06956e-05
-9.77125e-06
-9.79455e-06
-1.04457e-05
-1.17482e-05
-8.81046e-06
-7.99054e-06
-7.48469e-06
-7.25512e-06
-7.49774e-06
-8.30877e-06
-9.81061e-06
-1.21152e-05
-1.5315e-05
-1.93054e-05
-2.38651e-05
-2.82963e-05
-3.23633e-05
-3.5495e-05
-3.78709e-05
-3.9418e-05
-4.03401e-05
-4.07704e-05
-4.0805e-05
-4.04439e-05
-3.959e-05
-3.81101e-05
-3.57996e-05
-3.27227e-05
-2.87034e-05
-2.42749e-05
-1.97185e-05
-1.57638e-05
-1.27077e-05
-1.07214e-05
-9.77529e-06
-9.77843e-06
-1.04096e-05
-1.16886e-05
-8.74021e-06
-7.94291e-06
-7.45291e-06
-7.2324e-06
-7.47527e-06
-8.28012e-06
-9.77612e-06
-1.20815e-05
-1.53073e-05
-1.9341e-05
-2.40298e-05
-2.84253e-05
-3.2413e-05
-3.55168e-05
-3.78932e-05
-3.94714e-05
-4.04244e-05
-4.08763e-05
-4.09153e-05
-4.05416e-05
-3.96653e-05
-3.81623e-05
-3.58575e-05
-3.28122e-05
-2.88656e-05
-2.44683e-05
-1.97821e-05
-1.57818e-05
-1.26943e-05
-1.0696e-05
-9.7371e-06
-9.7198e-06
-1.03222e-05
-1.15602e-05
-8.63663e-06
-7.87056e-06
-7.40118e-06
-7.18843e-06
-7.42155e-06
-8.19963e-06
-9.65782e-06
-1.19222e-05
-1.5144e-05
-1.92061e-05
-2.42455e-05
-2.85432e-05
-3.22918e-05
-3.53077e-05
-3.76451e-05
-3.92364e-05
-4.02104e-05
-4.06811e-05
-4.07271e-05
-4.03485e-05
-3.94651e-05
-3.79634e-05
-3.57088e-05
-3.27605e-05
-2.9046e-05
-2.47281e-05
-1.9701e-05
-1.56675e-05
-1.25757e-05
-1.06019e-05
-9.65326e-06
-9.62321e-06
-1.01912e-05
-1.13679e-05
-8.50533e-06
-7.77702e-06
-7.32949e-06
-7.11566e-06
-7.31458e-06
-8.01824e-06
-9.35652e-06
-1.1451e-05
-1.44418e-05
-1.80794e-05
-2.42823e-05
-2.88028e-05
-3.18634e-05
-3.45971e-05
-3.67733e-05
-3.8316e-05
-3.92785e-05
-3.97564e-05
-3.98129e-05
-3.94488e-05
-3.85989e-05
-3.71699e-05
-3.50963e-05
-3.24529e-05
-2.94408e-05
-2.48164e-05
-1.86344e-05
-1.50373e-05
-1.21763e-05
-1.03515e-05
-9.48518e-06
-9.47638e-06
-1.00167e-05
-1.11035e-05
-8.35192e-06
-7.67573e-06
-7.25189e-06
-7.0334e-06
-7.18476e-06
-7.78391e-06
-8.95703e-06
-1.08872e-05
-1.40812e-05
-1.84201e-05
-2.59024e-05
-2.71325e-05
-3.08165e-05
-3.35846e-05
-3.55584e-05
-3.70179e-05
-3.79374e-05
-3.84045e-05
-3.8478e-05
-3.81612e-05
-3.73924e-05
-3.60886e-05
-3.42452e-05
-3.1585e-05
-2.79108e-05
-2.6404e-05
-1.92221e-05
-1.4868e-05
-1.17525e-05
-1.00412e-05
-9.28528e-06
-9.31453e-06
-9.82776e-06
-1.08214e-05
-8.15476e-06
-7.59011e-06
-7.17e-06
-6.93273e-06
-7.00334e-06
-7.39978e-06
-8.07502e-06
-8.77666e-06
-9.34463e-06
-5.91268e-06
-3.48058e-05
-3.08294e-05
-3.2048e-05
-3.32727e-05
-3.4366e-05
-3.51239e-05
-3.55454e-05
-3.56401e-05
-3.54146e-05
-3.48581e-05
-3.39846e-05
-3.29421e-05
-3.19122e-05
-3.58455e-05
-6.67536e-06
-1.02547e-05
-9.77135e-06
-9.26937e-06
-8.9544e-06
-9.11127e-06
-9.63061e-06
-1.05406e-05
-7.99986e-06
-7.49714e-06
-7.10454e-06
-6.87366e-06
-6.92736e-06
-7.3095e-06
-8.09515e-06
-9.39802e-06
-1.15803e-05
-1.51662e-05
-1.6354e-05
-2.44863e-05
-2.71418e-05
-2.96596e-05
-3.13647e-05
-3.26876e-05
-3.35542e-05
-3.4043e-05
-3.41671e-05
-3.39402e-05
-3.33493e-05
-3.23386e-05
-3.08862e-05
-2.86584e-05
-2.60082e-05
-1.85345e-05
-1.69429e-05
-1.30939e-05
-1.07186e-05
-9.44115e-06
-8.91239e-06
-9.00663e-06
-9.48801e-06
-1.02771e-05
-7.88679e-06
-7.42278e-06
-7.05692e-06
-6.83637e-06
-6.87392e-06
-7.21269e-06
-7.91288e-06
-9.04463e-06
-1.06626e-05
-1.28236e-05
-1.69987e-05
-2.23828e-05
-2.49397e-05
-2.73191e-05
-2.90782e-05
-3.04533e-05
-3.13544e-05
-3.18695e-05
-3.20152e-05
-3.18122e-05
-3.1247e-05
-3.02634e-05
-2.88034e-05
-2.67837e-05
-2.42741e-05
-1.90834e-05
-1.45085e-05
-1.22057e-05
-1.04592e-05
-9.33239e-06
-8.83362e-06
-8.90722e-06
-9.34781e-06
-1.00748e-05
-7.80923e-06
-7.38194e-06
-7.05043e-06
-6.85457e-06
-6.89539e-06
-7.21448e-06
-7.8741e-06
-8.96193e-06
-1.06117e-05
-1.29334e-05
-1.60261e-05
-1.97985e-05
-2.25912e-05
-2.50463e-05
-2.68865e-05
-2.83235e-05
-2.92559e-05
-2.97851e-05
-2.99397e-05
-2.97464e-05
-2.9183e-05
-2.81938e-05
-2.67044e-05
-2.46601e-05
-2.19448e-05
-1.82796e-05
-1.49559e-05
-1.23542e-05
-1.04868e-05
-9.34376e-06
-8.83215e-06
-8.86957e-06
-9.2607e-06
-9.93297e-06
-7.77054e-06
-7.38355e-06
-7.09654e-06
-6.938e-06
-6.99281e-06
-7.29494e-06
-7.89635e-06
-8.87219e-06
-1.03168e-05
-1.2316e-05
-1.48535e-05
-1.77723e-05
-2.03507e-05
-2.26826e-05
-2.44672e-05
-2.58458e-05
-2.67377e-05
-2.7244e-05
-2.73967e-05
-2.72255e-05
-2.67031e-05
-2.57816e-05
-2.43751e-05
-2.24711e-05
-1.99961e-05
-1.71009e-05
-1.43397e-05
-1.20741e-05
-1.04173e-05
-9.37237e-06
-8.88803e-06
-8.89717e-06
-9.23485e-06
-9.85498e-06
-7.77435e-06
-7.43825e-06
-7.21427e-06
-7.11408e-06
-7.20427e-06
-7.50902e-06
-8.06527e-06
-8.92619e-06
-1.01534e-05
-1.17942e-05
-1.382e-05
-1.61162e-05
-1.8314e-05
-2.03672e-05
-2.19817e-05
-2.3216e-05
-2.40259e-05
-2.44944e-05
-2.4637e-05
-2.44967e-05
-2.40217e-05
-2.32017e-05
-2.19569e-05
-2.02951e-05
-1.81978e-05
-1.59e-05
-1.36925e-05
-1.18354e-05
-1.04364e-05
-9.52187e-06
-9.06817e-06
-9.03274e-06
-9.2838e-06
-9.85924e-06
-7.82088e-06
-7.54773e-06
-7.41172e-06
-7.394e-06
-7.54502e-06
-7.88164e-06
-8.42887e-06
-9.22077e-06
-1.02907e-05
-1.16603e-05
-1.32959e-05
-1.51246e-05
-1.69394e-05
-1.86521e-05
-2.00299e-05
-2.10926e-05
-2.18029e-05
-2.22142e-05
-2.23467e-05
-2.22199e-05
-2.18148e-05
-2.11084e-05
-2.00534e-05
-1.86683e-05
-1.69622e-05
-1.51424e-05
-1.33889e-05
-1.18755e-05
-1.0692e-05
-9.87349e-06
-9.41881e-06
-9.3084e-06
-9.45734e-06
-9.89646e-06
-7.87794e-06
-7.70289e-06
-7.65798e-06
-7.7318e-06
-7.95972e-06
-8.35669e-06
-8.94069e-06
-9.73055e-06
-1.07427e-05
-1.19783e-05
-1.34112e-05
-1.4986e-05
-1.65569e-05
-1.80356e-05
-1.92575e-05
-2.0212e-05
-2.08684e-05
-2.12536e-05
-2.13798e-05
-2.12577e-05
-2.08779e-05
-2.0227e-05
-1.92831e-05
-1.80706e-05
-1.66179e-05
-1.50791e-05
-1.35798e-05
-1.22671e-05
-1.11956e-05
-1.04026e-05
-9.89988e-06
-9.68228e-06
-9.7001e-06
-9.97297e-06
-7.94411e-06
-7.87896e-06
-7.92095e-06
-8.07728e-06
-8.38289e-06
-8.86017e-06
-9.53177e-06
-1.04191e-05
-1.15325e-05
-1.28635e-05
-1.43737e-05
-1.59766e-05
-1.75671e-05
-1.90597e-05
-2.03219e-05
-2.13232e-05
-2.20289e-05
-2.24461e-05
-2.25796e-05
-2.24347e-05
-2.20073e-05
-2.12926e-05
-2.02877e-05
-1.90265e-05
-1.75554e-05
-1.60066e-05
-1.44938e-05
-1.31107e-05
-1.19562e-05
-1.10704e-05
-1.04616e-05
-1.01174e-05
-9.99232e-06
-1.00765e-05
-6.07303e-06
-6.07708e-06
-6.09055e-06
-6.11806e-06
-6.16576e-06
-6.23803e-06
-6.33803e-06
-6.46729e-06
-6.62469e-06
-6.80794e-06
-7.00994e-06
-7.2177e-06
-7.41776e-06
-7.60307e-06
-7.76312e-06
-7.8931e-06
-7.98852e-06
-8.04772e-06
-8.06978e-06
-8.05487e-06
-8.00429e-06
-7.92003e-06
-7.80695e-06
-7.67008e-06
-7.52029e-06
-7.36453e-06
-7.21572e-06
-7.08646e-06
-6.98346e-06
-6.90728e-06
-6.85635e-06
-6.82584e-06
-6.80551e-06
-6.79123e-06
-6.02964e-06
-6.00021e-06
-5.988e-06
-5.98515e-06
-6.00423e-06
-6.04841e-06
-6.11913e-06
-6.21606e-06
-6.33514e-06
-6.47296e-06
-6.61571e-06
-6.76652e-06
-6.90952e-06
-7.04351e-06
-7.1582e-06
-7.25271e-06
-7.3231e-06
-7.36925e-06
-7.39044e-06
-7.38682e-06
-7.35943e-06
-7.30866e-06
-7.23879e-06
-7.15084e-06
-7.0555e-06
-6.954e-06
-6.86329e-06
-6.77953e-06
-6.71679e-06
-6.67818e-06
-6.66576e-06
-6.67586e-06
-6.69695e-06
-6.7276e-06
-6.02332e-06
-5.98353e-06
-5.95713e-06
-5.93108e-06
-5.93111e-06
-5.96316e-06
-6.02982e-06
-6.13216e-06
-6.26534e-06
-6.42969e-06
-6.60488e-06
-6.79665e-06
-6.96794e-06
-7.12667e-06
-7.25467e-06
-7.35811e-06
-7.43229e-06
-7.47997e-06
-7.50059e-06
-7.49428e-06
-7.4619e-06
-7.40093e-06
-7.31649e-06
-7.20257e-06
-7.07822e-06
-6.93566e-06
-6.81387e-06
-6.70718e-06
-6.6377e-06
-6.60553e-06
-6.61303e-06
-6.65209e-06
-6.68877e-06
-6.72954e-06
-6.05221e-06
-5.99531e-06
-5.94997e-06
-5.90145e-06
-5.88718e-06
-5.91716e-06
-5.99721e-06
-6.13285e-06
-6.32025e-06
-6.56868e-06
-6.84281e-06
-7.15897e-06
-7.42529e-06
-7.66719e-06
-7.84988e-06
-7.99287e-06
-8.08974e-06
-8.14841e-06
-8.16849e-06
-8.15005e-06
-8.0938e-06
-7.99197e-06
-7.85161e-06
-7.65333e-06
-7.43362e-06
-7.1671e-06
-6.94957e-06
-6.76464e-06
-6.65151e-06
-6.60181e-06
-6.6159e-06
-6.67758e-06
-6.73356e-06
-6.79233e-06
-6.13095e-06
-6.05335e-06
-5.99189e-06
-5.92937e-06
-5.91322e-06
-5.95852e-06
-6.07632e-06
-6.28039e-06
-6.57032e-06
-6.97475e-06
-7.43221e-06
-7.991e-06
-8.4338e-06
-8.82879e-06
-9.1116e-06
-9.32802e-06
-9.46792e-06
-9.54811e-06
-9.56796e-06
-9.52749e-06
-9.42758e-06
-9.25143e-06
-9.01007e-06
-8.65768e-06
-8.26161e-06
-7.75316e-06
-7.35723e-06
-7.0233e-06
-6.81967e-06
-6.7187e-06
-6.71649e-06
-6.78542e-06
-6.85553e-06
-6.93695e-06
-6.26224e-06
-6.15904e-06
-6.08379e-06
-6.01629e-06
-6.01159e-06
-6.09021e-06
-6.26944e-06
-6.57431e-06
-7.01015e-06
-7.6425e-06
-8.37763e-06
-9.35068e-06
-1.00594e-05
-1.06845e-05
-1.11125e-05
-1.14372e-05
-1.16406e-05
-1.17534e-05
-1.17734e-05
-1.17006e-05
-1.15373e-05
-1.12524e-05
-1.08651e-05
-1.02812e-05
-9.61934e-06
-8.69649e-06
-8.03015e-06
-7.47557e-06
-7.13889e-06
-6.95523e-06
-6.91499e-06
-6.97695e-06
-7.05675e-06
-7.16775e-06
-6.44475e-06
-6.30893e-06
-6.22444e-06
-6.15879e-06
-6.17695e-06
-6.30355e-06
-6.56108e-06
-6.98625e-06
-7.59051e-06
-8.51529e-06
-9.61612e-06
-1.12817e-05
-1.23238e-05
-1.32288e-05
-1.38182e-05
-1.42656e-05
-1.45389e-05
-1.46889e-05
-1.47096e-05
-1.46008e-05
-1.43684e-05
-1.39607e-05
-1.34113e-05
-1.25451e-05
-1.15499e-05
-9.93205e-06
-8.91275e-06
-8.07239e-06
-7.58011e-06
-7.29463e-06
-7.20164e-06
-7.2467e-06
-7.33436e-06
-7.48433e-06
-6.67513e-06
-6.49878e-06
-6.40691e-06
-6.35212e-06
-6.40781e-06
-6.60024e-06
-6.95318e-06
-7.50353e-06
-8.26477e-06
-9.42671e-06
-1.09553e-05
-1.38033e-05
-1.51573e-05
-1.6376e-05
-1.71473e-05
-1.77462e-05
-1.81084e-05
-1.83065e-05
-1.83285e-05
-1.81737e-05
-1.7854e-05
-1.72952e-05
-1.65631e-05
-1.53792e-05
-1.40697e-05
-1.12593e-05
-9.83826e-06
-8.76278e-06
-8.12593e-06
-7.73392e-06
-7.57405e-06
-7.59172e-06
-7.68063e-06
-7.88338e-06
-6.94618e-06
-6.71823e-06
-6.61821e-06
-6.57943e-06
-6.68174e-06
-6.94753e-06
-7.39198e-06
-8.03379e-06
-8.80301e-06
-1.00614e-05
-1.18405e-05
-1.72831e-05
-1.84123e-05
-1.97145e-05
-2.05636e-05
-2.12358e-05
-2.16404e-05
-2.1867e-05
-2.18903e-05
-2.17095e-05
-2.13493e-05
-2.07177e-05
-1.99067e-05
-1.86306e-05
-1.75442e-05
-1.2114e-05
-1.05217e-05
-9.32628e-06
-8.68732e-06
-8.21902e-06
-7.99632e-06
-7.98424e-06
-8.07828e-06
-8.35605e-06
-7.24528e-06
-6.95969e-06
-6.85732e-06
-6.85216e-06
-7.03551e-06
-7.42832e-06
-8.04615e-06
-8.80514e-06
-9.65328e-06
-1.1775e-05
-8.2254e-06
-1.99312e-05
-2.0985e-05
-2.27089e-05
-2.37575e-05
-2.46336e-05
-2.51481e-05
-2.54274e-05
-2.54518e-05
-2.52205e-05
-2.47532e-05
-2.392e-05
-2.29101e-05
-2.12069e-05
-2.02251e-05
-8.3395e-06
-1.21974e-05
-1.01481e-05
-9.46429e-06
-8.89698e-06
-8.53298e-06
-8.44405e-06
-8.52308e-06
-8.89627e-06
-7.55254e-06
-7.20535e-06
-7.09818e-06
-7.12688e-06
-7.39342e-06
-7.91603e-06
-8.68363e-06
-9.49457e-06
-9.821e-06
-5.48698e-06
-2.87834e-05
-2.43154e-05
-2.5008e-05
-2.59036e-05
-2.66521e-05
-2.71489e-05
-2.74165e-05
-2.74413e-05
-2.72225e-05
-2.67733e-05
-2.60686e-05
-2.52104e-05
-2.45271e-05
-2.88707e-05
-6.31949e-06
-1.0453e-05
-1.01912e-05
-9.5577e-06
-9.06576e-06
-8.89742e-06
-8.96861e-06
-9.47245e-06
-7.87746e-06
-7.45207e-06
-7.35222e-06
-7.44507e-06
-7.86743e-06
-8.69596e-06
-1.00604e-05
-1.20353e-05
-1.52038e-05
-1.83911e-05
-2.63697e-05
-2.28696e-05
-2.48558e-05
-2.669e-05
-2.80966e-05
-2.90782e-05
-2.97209e-05
-3.00447e-05
-3.007e-05
-2.97968e-05
-2.92053e-05
-2.82751e-05
-2.69222e-05
-2.51478e-05
-2.32186e-05
-2.68898e-05
-1.88023e-05
-1.56862e-05
-1.26461e-05
-1.08846e-05
-9.84148e-06
-9.43005e-06
-9.4298e-06
-1.00583e-05
-8.18472e-06
-7.68778e-06
-7.58145e-06
-7.70968e-06
-8.22403e-06
-9.21311e-06
-1.08124e-05
-1.30356e-05
-1.60863e-05
-1.89745e-05
-2.37172e-05
-2.48077e-05
-2.61474e-05
-2.75356e-05
-2.88315e-05
-2.98081e-05
-3.04816e-05
-3.0824e-05
-3.08492e-05
-3.05574e-05
-2.99345e-05
-2.90066e-05
-2.77586e-05
-2.64076e-05
-2.50912e-05
-2.40922e-05
-1.93898e-05
-1.6544e-05
-1.36171e-05
-1.16245e-05
-1.03809e-05
-9.86573e-06
-9.85201e-06
-1.05995e-05
-8.46561e-06
-7.90889e-06
-7.79715e-06
-7.95657e-06
-8.55221e-06
-9.68369e-06
-1.14876e-05
-1.39676e-05
-1.72057e-05
-2.05366e-05
-2.42485e-05
-2.60537e-05
-2.7522e-05
-2.88902e-05
-3.02275e-05
-3.12208e-05
-3.19111e-05
-3.22575e-05
-3.22828e-05
-3.19869e-05
-3.13474e-05
-3.04024e-05
-2.91124e-05
-2.77788e-05
-2.63447e-05
-2.45832e-05
-2.0905e-05
-1.7628e-05
-1.45246e-05
-1.22958e-05
-1.08821e-05
-1.0278e-05
-1.02521e-05
-1.11018e-05
-8.70844e-06
-8.1017e-06
-7.97817e-06
-8.14801e-06
-8.78229e-06
-9.98148e-06
-1.18712e-05
-1.44503e-05
-1.77209e-05
-2.11706e-05
-2.46464e-05
-2.68026e-05
-2.84608e-05
-2.98369e-05
-3.11887e-05
-3.21776e-05
-3.28684e-05
-3.32118e-05
-3.3237e-05
-3.29438e-05
-3.23031e-05
-3.1361e-05
-3.00548e-05
-2.87094e-05
-2.7085e-05
-2.49576e-05
-2.15181e-05
-1.81289e-05
-1.50035e-05
-1.26952e-05
-1.12267e-05
-1.06008e-05
-1.0591e-05
-1.15252e-05
-8.9082e-06
-8.26359e-06
-8.12913e-06
-8.30267e-06
-8.95969e-06
-1.02009e-05
-1.21438e-05
-1.4788e-05
-1.80906e-05
-2.16102e-05
-2.50394e-05
-2.73898e-05
-2.91496e-05
-3.05649e-05
-3.19417e-05
-3.29293e-05
-3.36168e-05
-3.39553e-05
-3.39806e-05
-3.36926e-05
-3.3055e-05
-3.21136e-05
-3.07818e-05
-2.93959e-05
-2.76729e-05
-2.53407e-05
-2.19489e-05
-1.84939e-05
-1.53464e-05
-1.29907e-05
-1.14952e-05
-1.0864e-05
-1.08714e-05
-1.18652e-05
-9.06075e-06
-8.38918e-06
-8.24458e-06
-8.41596e-06
-9.08158e-06
-1.03418e-05
-1.23093e-05
-1.49865e-05
-1.83108e-05
-2.18842e-05
-2.53317e-05
-2.77915e-05
-2.96211e-05
-3.10641e-05
-3.24552e-05
-3.34415e-05
-3.41266e-05
-3.4462e-05
-3.44879e-05
-3.42037e-05
-3.35691e-05
-3.26292e-05
-3.12826e-05
-2.98687e-05
-2.80867e-05
-2.56315e-05
-2.2222e-05
-1.87169e-05
-1.5556e-05
-1.3181e-05
-1.16809e-05
-1.10573e-05
-1.1083e-05
-1.21181e-05
-9.16517e-06
-8.47763e-06
-8.32657e-06
-8.49586e-06
-9.16595e-06
-1.04376e-05
-1.24217e-05
-1.51236e-05
-1.84729e-05
-2.20903e-05
-2.55724e-05
-2.80943e-05
-2.99738e-05
-3.14416e-05
-3.28473e-05
-3.38387e-05
-3.45262e-05
-3.48623e-05
-3.48893e-05
-3.46065e-05
-3.39711e-05
-3.30272e-05
-3.16665e-05
-3.02267e-05
-2.83874e-05
-2.58759e-05
-2.24334e-05
-1.88864e-05
-1.57057e-05
-1.33148e-05
-1.18105e-05
-1.11918e-05
-1.12285e-05
-1.22875e-05
-9.22125e-06
-8.52818e-06
-8.37477e-06
-8.54335e-06
-9.21591e-06
-1.04942e-05
-1.24902e-05
-1.52104e-05
-1.85867e-05
-2.22396e-05
-2.57599e-05
-2.83203e-05
-3.02279e-05
-3.17161e-05
-3.31363e-05
-3.41388e-05
-3.48339e-05
-3.51747e-05
-3.52034e-05
-3.49193e-05
-3.42794e-05
-3.33267e-05
-3.1953e-05
-3.04934e-05
-2.8624e-05
-2.60746e-05
-2.25937e-05
-1.90113e-05
-1.5806e-05
-1.33993e-05
-1.18878e-05
-1.12685e-05
-1.13081e-05
-1.23758e-05
-9.22958e-06
-8.54139e-06
-8.38972e-06
-8.55886e-06
-9.23179e-06
-1.05118e-05
-1.25148e-05
-1.5249e-05
-1.86505e-05
-2.23311e-05
-2.58956e-05
-2.84761e-05
-3.03908e-05
-3.18934e-05
-3.33264e-05
-3.43451e-05
-3.50522e-05
-3.54014e-05
-3.54326e-05
-3.51451e-05
-3.44976e-05
-3.35328e-05
-3.21491e-05
-3.06773e-05
-2.88022e-05
-2.62294e-05
-2.27024e-05
-1.90898e-05
-1.58559e-05
-1.34345e-05
-1.19135e-05
-1.12885e-05
-1.13233e-05
-1.23847e-05
-9.19187e-06
-8.51945e-06
-8.3732e-06
-8.54295e-06
-9.21176e-06
-1.04847e-05
-1.24844e-05
-1.5219e-05
-1.86483e-05
-2.23488e-05
-2.59812e-05
-2.85638e-05
-3.04566e-05
-3.19679e-05
-3.34109e-05
-3.44505e-05
-3.51734e-05
-3.55345e-05
-3.55694e-05
-3.52772e-05
-3.46206e-05
-3.3641e-05
-3.22519e-05
-3.07761e-05
-2.89299e-05
-2.63447e-05
-2.2747e-05
-1.91109e-05
-1.58456e-05
-1.34156e-05
-1.18874e-05
-1.12547e-05
-1.12779e-05
-1.23157e-05
-9.11045e-06
-8.46436e-06
-8.32435e-06
-8.48888e-06
-9.13902e-06
-1.03803e-05
-1.2344e-05
-1.50411e-05
-1.84788e-05
-2.21868e-05
-2.59675e-05
-2.85225e-05
-3.03617e-05
-3.18632e-05
-3.32967e-05
-3.43524e-05
-3.50893e-05
-3.5464e-05
-3.55039e-05
-3.52085e-05
-3.45471e-05
-3.35609e-05
-3.21882e-05
-3.07288e-05
-2.893e-05
-2.63698e-05
-2.26238e-05
-1.8977e-05
-1.56989e-05
-1.3295e-05
-1.17852e-05
-1.1159e-05
-1.11722e-05
-1.21694e-05
-8.99126e-06
-8.38339e-06
-8.25146e-06
-8.40586e-06
-9.02384e-06
-1.02095e-05
-1.21041e-05
-1.4722e-05
-1.81535e-05
-2.17962e-05
-2.5924e-05
-2.84102e-05
-3.00988e-05
-3.1623e-05
-3.30594e-05
-3.41375e-05
-3.48874e-05
-3.52763e-05
-3.53236e-05
-3.50294e-05
-3.43694e-05
-3.33767e-05
-3.20125e-05
-3.05426e-05
-2.88867e-05
-2.6382e-05
-2.22955e-05
-1.87116e-05
-1.54342e-05
-1.30935e-05
-1.16274e-05
-1.10209e-05
-1.1023e-05
-1.19566e-05
-8.84052e-06
-8.27988e-06
-8.15048e-06
-8.27573e-06
-8.82088e-06
-9.87655e-06
-1.15773e-05
-1.3937e-05
-1.71287e-05
-2.02616e-05
-2.56389e-05
-2.83032e-05
-2.96192e-05
-3.11188e-05
-3.25007e-05
-3.35683e-05
-3.43125e-05
-3.47095e-05
-3.47668e-05
-3.44849e-05
-3.38496e-05
-3.289e-05
-3.15976e-05
-3.01797e-05
-2.89143e-05
-2.61442e-05
-2.08284e-05
-1.77711e-05
-1.47393e-05
-1.26384e-05
-1.13329e-05
-1.08101e-05
-1.08292e-05
-1.16966e-05
-8.67202e-06
-8.17054e-06
-8.04841e-06
-8.14818e-06
-8.6239e-06
-9.55416e-06
-1.10711e-05
-1.32312e-05
-1.66387e-05
-2.04254e-05
-2.71894e-05
-2.63767e-05
-2.89564e-05
-3.11868e-05
-3.2773e-05
-3.39103e-05
-3.46721e-05
-3.50814e-05
-3.51543e-05
-3.48939e-05
-3.42724e-05
-3.32785e-05
-3.18022e-05
-2.96886e-05
-2.71404e-05
-2.76504e-05
-2.1211e-05
-1.74563e-05
-1.41823e-05
-1.2242e-05
-1.10712e-05
-1.06157e-05
-1.06354e-05
-1.14041e-05
-8.50052e-06
-8.05926e-06
-7.93035e-06
-7.978e-06
-8.32214e-06
-8.97667e-06
-9.90721e-06
-1.0797e-05
-1.08688e-05
-4.56304e-06
-3.66158e-05
-3.01314e-05
-3.07324e-05
-3.17055e-05
-3.25865e-05
-3.32151e-05
-3.35893e-05
-3.36781e-05
-3.34872e-05
-3.30303e-05
-3.23365e-05
-3.149e-05
-3.10568e-05
-3.74836e-05
-5.35049e-06
-1.18726e-05
-1.19328e-05
-1.12299e-05
-1.05859e-05
-1.03386e-05
-1.0415e-05
-1.10784e-05
-8.34503e-06
-7.95688e-06
-7.84282e-06
-7.88535e-06
-8.20727e-06
-8.85381e-06
-9.89227e-06
-1.13046e-05
-1.33765e-05
-1.67098e-05
-1.63924e-05
-2.54438e-05
-2.73596e-05
-2.9471e-05
-3.08575e-05
-3.20688e-05
-3.28565e-05
-3.33255e-05
-3.34394e-05
-3.32084e-05
-3.26391e-05
-3.16639e-05
-3.03784e-05
-2.84782e-05
-2.66912e-05
-1.85495e-05
-1.84112e-05
-1.49534e-05
-1.27378e-05
-1.13666e-05
-1.05231e-05
-1.02099e-05
-1.02397e-05
-1.07934e-05
-8.20161e-06
-7.86619e-06
-7.76472e-06
-7.79745e-06
-8.07861e-06
-8.65681e-06
-9.5926e-06
-1.09189e-05
-1.26403e-05
-1.47259e-05
-1.8726e-05
-2.41767e-05
-2.5721e-05
-2.73175e-05
-2.85227e-05
-2.9652e-05
-3.04124e-05
-3.08861e-05
-3.10161e-05
-3.08163e-05
-3.02948e-05
-2.94196e-05
-2.82482e-05
-2.67699e-05
-2.53794e-05
-2.04788e-05
-1.63014e-05
-1.42297e-05
-1.24457e-05
-1.11455e-05
-1.0355e-05
-1.00514e-05
-1.00657e-05
-1.05504e-05
-8.09516e-06
-7.80803e-06
-7.73032e-06
-7.77575e-06
-8.05175e-06
-8.61277e-06
-9.5283e-06
-1.08549e-05
-1.26694e-05
-1.49897e-05
-1.7966e-05
-2.14038e-05
-2.32407e-05
-2.47874e-05
-2.59974e-05
-2.71564e-05
-2.79363e-05
-2.84179e-05
-2.85535e-05
-2.83604e-05
-2.78316e-05
-2.69548e-05
-2.57564e-05
-2.42833e-05
-2.2686e-05
-1.96692e-05
-1.67231e-05
-1.43674e-05
-1.24668e-05
-1.1129e-05
-1.03138e-05
-9.97663e-06
-9.95189e-06
-1.03729e-05
-8.02877e-06
-7.78611e-06
-7.73648e-06
-7.80043e-06
-8.07145e-06
-8.59912e-06
-9.44471e-06
-1.06632e-05
-1.22999e-05
-1.43859e-05
-1.67757e-05
-1.93445e-05
-2.10712e-05
-2.255e-05
-2.37653e-05
-2.48832e-05
-2.56394e-05
-2.61056e-05
-2.62431e-05
-2.60684e-05
-2.55742e-05
-2.47588e-05
-2.36045e-05
-2.22144e-05
-2.06419e-05
-1.8436e-05
-1.6114e-05
-1.40088e-05
-1.22954e-05
-1.10546e-05
-1.02831e-05
-9.94146e-06
-9.8893e-06
-1.02549e-05
-8.00225e-06
-7.80555e-06
-7.79365e-06
-7.89026e-06
-8.17156e-06
-8.67843e-06
-9.459e-06
-1.0554e-05
-1.19856e-05
-1.37467e-05
-1.5701e-05
-1.7746e-05
-1.93612e-05
-2.08207e-05
-2.20378e-05
-2.31025e-05
-2.38391e-05
-2.42918e-05
-2.44359e-05
-2.42633e-05
-2.38039e-05
-2.3036e-05
-2.19459e-05
-2.06367e-05
-1.91377e-05
-1.73532e-05
-1.5449e-05
-1.36692e-05
-1.21724e-05
-1.10562e-05
-1.03353e-05
-9.98433e-06
-9.89434e-06
-1.02004e-05
-8.00848e-06
-7.86133e-06
-7.89405e-06
-8.03337e-06
-8.33679e-06
-8.83609e-06
-9.5666e-06
-1.05553e-05
-1.18097e-05
-1.33129e-05
-1.49582e-05
-1.66681e-05
-1.81744e-05
-1.95615e-05
-2.07227e-05
-2.17162e-05
-2.24141e-05
-2.28422e-05
-2.29789e-05
-2.28344e-05
-2.24038e-05
-2.16945e-05
-2.06971e-05
-1.95014e-05
-1.812e-05
-1.65815e-05
-1.49687e-05
-1.34478e-05
-1.21457e-05
-1.11456e-05
-1.04682e-05
-1.01005e-05
-9.96682e-06
-1.01905e-05
-8.02639e-06
-7.92668e-06
-7.98614e-06
-8.1585e-06
-8.48366e-06
-8.98629e-06
-9.69182e-06
-1.06181e-05
-1.1766e-05
-1.31149e-05
-1.45918e-05
-1.61282e-05
-1.75748e-05
-1.89159e-05
-2.00498e-05
-2.09899e-05
-2.16593e-05
-2.20671e-05
-2.21997e-05
-2.20642e-05
-2.16556e-05