/*--------------------------------*- C++ -*----------------------------------*\
| =========                 |                                                 |
| \\      /  F ield         | OpenFOAM: The Open Source CFD Toolbox           |
|  \\    /   O peration     | Version:  2112                                  |
|   \\  /    A nd           | Website:  www.openfoam.com                      |
|    \\/     M anipulation  |                                                 |
\*---------------------------------------------------------------------------*/
FoamFile
{
    version     2.0;
    format      ascii;
    arch        "LSB;label=32;scalar=64";
    class       surfaceScalarField;
    location    "3";
    object      phi;
}
// * * * * * * * * * * * * * * * * * * * * * * * * * * * * * * * * * * * * * //

dimensions      [0 3 -1 0 0 0 0];

oriented        oriented;

internalField   nonuniform List<scalar> 
188215
(
7.70161e-10
1.70053e-09
-2.47069e-09
2.87803e-09
7.7974e-10
-2.88761e-09
5.54681e-09
-2.45082e-10
-2.4237e-09
8.52492e-09
-1.30109e-09
-1.67702e-09
1.15499e-08
-1.90666e-09
-1.11837e-09
1.45384e-08
-2.18947e-09
-7.9899e-10
1.74359e-08
-2.23447e-09
-6.6304e-10
2.0133e-08
-2.04689e-09
-6.5023e-10
2.24563e-08
-1.59762e-09
-7.2565e-10
2.39732e-08
-6.53327e-10
-8.63517e-10
2.45321e-08
4.4822e-10
-1.00713e-09
2.38578e-08
1.75706e-09
-1.08274e-09
2.20624e-08
2.9023e-09
-1.10699e-09
1.92289e-08
3.90621e-09
-1.07272e-09
1.56415e-08
4.5998e-09
-1.01235e-09
1.14874e-08
5.10313e-09
-9.49049e-10
6.9841e-09
5.40443e-09
-9.01111e-10
2.31447e-09
5.54686e-09
-8.77226e-10
-2.33727e-09
5.53236e-09
-8.80617e-10
-6.78752e-09
5.36103e-09
-9.10776e-10
-1.08544e-08
5.03119e-09
-9.64283e-10
-1.43223e-08
4.50008e-09
-1.0322e-09
-1.70081e-08
3.7821e-09
-1.09631e-09
-1.86321e-08
2.75903e-09
-1.13498e-09
-1.91227e-08
1.60978e-09
-1.1192e-09
-1.83878e-08
3.28474e-10
-1.0634e-09
-1.66504e-08
-7.86456e-10
-9.50941e-10
-1.41245e-08
-1.61379e-09
-9.12099e-10
-1.12403e-08
-1.84798e-09
-1.03621e-09
-8.20757e-09
-1.61923e-09
-1.41354e-09
-5.26491e-09
-8.15942e-10
-2.12672e-09
-2.60668e-09
4.53169e-10
-3.11139e-09
-5.79721e-10
1.789e-09
-3.81596e-09
2.84437e-09
-3.42409e-09
-1.20389e-09
6.6111e-09
-3.70667e-09
1.16577e-09
6.5836e-09
-8.17351e-09
4.68562e-09
5.85393e-09
-9.61886e-09
8.18718e-09
5.24855e-09
-1.00512e-08
1.15129e-08
5.20353e-09
-1.04359e-08
1.46711e-08
5.75589e-09
-1.11036e-08
1.76826e-08
6.91134e-09
-1.21573e-08
2.04909e-08
8.76975e-09
-1.36249e-08
2.29448e-08
1.14595e-08
-1.5511e-08
2.47731e-08
1.53226e-08
-1.78042e-08
2.56047e-08
2.00883e-08
-2.04717e-08
2.48712e-08
2.59086e-08
-2.34181e-08
2.2932e-08
3.10384e-08
-2.61969e-08
1.9922e-08
3.55453e-08
-2.86291e-08
1.61683e-08
3.89608e-08
-3.06074e-08
1.18578e-08
4.15307e-08
-3.2117e-08
7.20374e-09
4.3197e-08
-3.31386e-08
2.38703e-09
4.40386e-08
-3.36751e-08
-2.41023e-09
4.40511e-08
-3.37214e-08
-7.00612e-09
4.32346e-08
-3.32776e-08
-1.12216e-08
4.15953e-08
-3.23486e-08
-1.48452e-08
3.90558e-08
-3.09322e-08
-1.76952e-08
3.56817e-08
-2.90496e-08
-1.94481e-08
3.12318e-08
-2.67199e-08
-1.99774e-08
2.61978e-08
-2.40587e-08
-1.89047e-08
2.05142e-08
-2.12584e-08
-1.68553e-08
1.5966e-08
-1.88019e-08
-1.41204e-08
1.24255e-08
-1.67741e-08
-1.09518e-08
1.02339e-08
-1.52505e-08
-7.45801e-09
9.12686e-09
-1.42399e-08
-3.68795e-09
9.042e-09
-1.3628e-08
1.73235e-12
9.77424e-09
-1.30107e-08
2.29665e-09
1.06381e-08
-1.1144e-08
1.04376e-08
-5.29653e-09
-2.64055e-09
1.3014e-08
-3.76236e-09
-1.49506e-10
1.40628e-08
-9.97022e-09
3.84197e-09
1.40726e-08
-1.22102e-08
7.91224e-09
1.43068e-08
-1.31285e-08
1.17568e-08
1.52903e-08
-1.39313e-08
1.54096e-08
1.716e-08
-1.50569e-08
1.89701e-08
2.00385e-08
-1.66876e-08
2.24508e-08
2.41998e-08
-1.89107e-08
2.57106e-08
2.99686e-08
-2.17689e-08
2.82521e-08
3.80659e-08
-2.52849e-08
2.95334e-08
4.81587e-08
-2.93517e-08
2.85768e-08
6.06362e-08
-3.37709e-08
2.60993e-08
7.14779e-08
-3.7962e-08
2.23947e-08
8.08988e-08
-4.16488e-08
1.79814e-08
8.80368e-08
-4.46626e-08
1.30411e-08
9.3434e-08
-4.69629e-08
7.78862e-09
9.69656e-08
-4.85162e-08
2.38693e-09
9.87692e-08
-4.93289e-08
-2.99428e-09
9.88258e-08
-4.93935e-08
-8.18525e-09
9.71354e-08
-4.87098e-08
-1.30241e-08
9.37195e-08
-4.72854e-08
-1.72956e-08
8.84421e-08
-4.51148e-08
-2.08213e-08
8.14415e-08
-4.22341e-08
-2.30818e-08
7.21821e-08
-3.86899e-08
-2.37897e-08
6.15675e-08
-3.46618e-08
-2.22135e-08
4.93807e-08
-3.04428e-08
-1.9344e-08
3.97344e-08
-2.66378e-08
-1.56484e-08
3.2188e-08
-2.34581e-08
-1.15623e-08
2.71731e-08
-2.10252e-08
-7.17168e-09
2.4021e-08
-1.92848e-08
-2.54391e-09
2.24371e-08
-1.80229e-08
1.89251e-09
2.20145e-08
-1.66767e-08
4.30009e-09
2.19175e-08
-1.3687e-08
2.02739e-08
-5.53622e-09
-3.55095e-09
1.98223e-08
-3.25729e-09
-8.45912e-10
2.16825e-08
-1.03248e-08
3.77405e-09
2.23697e-08
-1.29171e-08
8.60022e-09
2.34982e-08
-1.40176e-08
1.32543e-08
2.56329e-08
-1.49966e-08
1.78109e-08
2.8962e-08
-1.63586e-08
2.24791e-08
3.37057e-08
-1.83353e-08
2.73858e-08
4.03501e-08
-2.10571e-08
3.23917e-08
4.95481e-08
-2.45854e-08
3.66555e-08
6.27742e-08
-2.8972e-08
3.9065e-08
7.98032e-08
-3.4054e-08
3.7509e-08
1.01859e-07
-3.96665e-08
3.37049e-08
1.20237e-07
-4.49547e-08
2.83694e-08
1.35834e-07
-4.95997e-08
2.24103e-08
1.47381e-07
-5.33851e-08
1.59718e-08
1.56122e-07
-5.62495e-08
9.26376e-09
1.61837e-07
-5.81637e-08
2.42085e-09
1.64771e-07
-5.91592e-08
-4.40084e-09
1.64878e-07
-5.92308e-08
-1.10445e-08
1.62157e-07
-5.83781e-08
-1.73745e-08
1.56655e-07
-5.66052e-08
-2.31765e-08
1.48126e-07
-5.38816e-08
-2.83051e-08
1.36809e-07
-5.02385e-08
-3.18432e-08
1.21465e-07
-4.57447e-08
-3.308e-08
1.03434e-07
-4.06293e-08
-3.02724e-08
8.18042e-08
-3.52311e-08
-2.55602e-08
6.54546e-08
-3.04323e-08
-1.9943e-08
5.29818e-08
-2.6411e-08
-1.41822e-08
4.47507e-08
-2.33384e-08
-8.37141e-09
3.93309e-08
-2.11206e-08
-2.5461e-09
3.61133e-08
-1.95015e-08
2.81171e-09
3.44915e-08
-1.78348e-08
5.53763e-09
3.3539e-08
-1.43474e-08
3.08291e-08
-5.01758e-09
-3.96115e-09
2.64578e-08
-2.67436e-09
-7.46452e-10
2.89358e-08
-1.0468e-08
4.74276e-09
3.02219e-08
-1.33414e-08
1.05935e-08
3.22178e-08
-1.45703e-08
1.63885e-08
3.55439e-08
-1.5706e-08
2.22962e-08
4.0385e-08
-1.73307e-08
2.87186e-08
4.7006e-08
-1.97228e-08
3.60326e-08
5.60923e-08
-2.30561e-08
4.41823e-08
6.8783e-08
-2.73846e-08
5.18346e-08
8.79188e-08
-3.2797e-08
5.66158e-08
1.1405e-07
-3.90281e-08
5.36738e-08
1.50999e-07
-4.61984e-08
4.7178e-08
1.79597e-07
-5.28644e-08
3.88288e-08
2.02958e-07
-5.87745e-08
3.01634e-08
2.19646e-07
-6.35994e-08
2.11269e-08
2.32334e-07
-6.7176e-08
1.18801e-08
2.4061e-07
-6.95261e-08
2.50963e-09
2.44879e-07
-7.07377e-08
-6.83989e-09
2.45043e-07
-7.08152e-08
-1.6022e-08
2.41097e-07
-6.97576e-08
-2.49466e-08
2.33137e-07
-6.75582e-08
-3.34412e-08
2.2075e-07
-6.41296e-08
-4.15518e-08
2.04369e-07
-5.94501e-08
-4.77173e-08
1.81322e-07
-5.36918e-08
-5.02421e-08
1.53159e-07
-4.72011e-08
-4.49148e-08
1.16728e-07
-4.02508e-08
-3.66959e-08
9.15601e-08
-3.43245e-08
-2.77636e-08
7.33561e-08
-2.93066e-08
-1.93525e-08
6.18137e-08
-2.54742e-08
-1.14767e-08
5.4149e-08
-2.2694e-08
-3.99139e-09
4.93273e-08
-2.06993e-08
2.67202e-09
4.65784e-08
-1.87503e-08
6.12299e-09
4.49062e-08
-1.48182e-08
4.13612e-08
-4.40913e-09
-4.04193e-09
3.26386e-08
-2.13894e-09
2.37294e-11
3.56187e-08
-1.07486e-08
6.73412e-09
3.74711e-08
-1.39595e-08
1.39489e-08
4.03482e-08
-1.53453e-08
2.12359e-08
4.49461e-08
-1.66892e-08
2.89161e-08
5.13765e-08
-1.86718e-08
3.77025e-08
5.98362e-08
-2.16165e-08
4.84986e-08
7.10282e-08
-2.57321e-08
6.1642e-08
8.66275e-08
-3.09879e-08
7.55026e-08
1.1154e-07
-3.7482e-08
8.52607e-08
1.48823e-07
-4.45308e-08
7.93326e-08
2.10412e-07
-5.34851e-08
6.78997e-08
2.52797e-07
-6.17675e-08
5.46513e-08
2.85655e-07
-6.9449e-08
4.19059e-08
3.08202e-07
-7.58112e-08
2.89775e-08
3.25572e-07
-8.03097e-08
1.58862e-08
3.36893e-07
-8.31908e-08
2.65883e-09
3.42767e-07
-8.46607e-08
-1.05502e-08
3.42998e-07
-8.47464e-08
-2.35844e-08
3.37577e-07
-8.34458e-08
-3.64102e-08
3.26692e-07
-8.07285e-08
-4.89863e-08
3.09714e-07
-7.63883e-08
-6.19763e-08
2.87535e-07
-7.01762e-08
-7.30096e-08
2.55004e-07
-6.26486e-08
-7.83924e-08
2.13089e-07
-5.45467e-08
-6.78632e-08
1.52011e-07
-4.58123e-08
-5.33481e-08
1.16142e-07
-3.90972e-08
-3.92637e-08
9.23062e-08
-3.30344e-08
-2.71075e-08
7.79912e-08
-2.83336e-08
-1.65004e-08
6.83897e-08
-2.48478e-08
-6.82832e-09
6.20294e-08
-2.23743e-08
1.63154e-09
5.81804e-08
-2.00619e-08
6.30976e-09
5.57988e-08
-1.55708e-08
5.15533e-08
-3.88233e-09
-3.90812e-09
3.81729e-08
-1.62618e-09
1.35196e-09
4.15992e-08
-1.12406e-08
9.73997e-09
4.40088e-08
-1.49258e-08
1.87205e-08
4.78868e-08
-1.65191e-08
2.78505e-08
5.3957e-08
-1.81409e-08
3.76224e-08
6.2186e-08
-2.05814e-08
4.91573e-08
7.24975e-08
-2.41961e-08
6.43242e-08
8.5068e-08
-2.92067e-08
8.46092e-08
1.01719e-07
-3.53767e-08
1.08981e-07
1.29795e-07
-4.26272e-08
1.29691e-07
1.7737e-07
-4.92574e-08
1.1707e-07
2.82761e-07
-5.97279e-08
9.68699e-08
3.42329e-07
-6.9331e-08
7.63187e-08
3.85622e-07
-7.94159e-08
5.80588e-08
4.14523e-07
-8.8061e-08
3.98603e-08
4.37302e-07
-9.35315e-08
2.14718e-08
4.52236e-07
-9.69554e-08
2.8797e-09
4.60043e-07
-9.86837e-08
-1.57013e-08
4.60359e-07
-9.87798e-08
-3.40542e-08
4.5317e-07
-9.72408e-08
-5.21848e-08
4.3882e-07
-9.3998e-08
-7.0313e-08
4.16543e-07
-8.87008e-08
-9.06255e-08
3.88061e-07
-8.0213e-08
-1.10369e-07
3.45038e-07
-7.029e-08
-1.22285e-07
2.8589e-07
-6.08857e-08
-1.00417e-07
1.80773e-07
-5.06305e-08
-7.54012e-08
1.35502e-07
-4.4376e-08
-5.40539e-08
1.08552e-07
-3.7593e-08
-3.72199e-08
9.32134e-08
-3.20562e-08
-2.33811e-08
8.2327e-08
-2.77762e-08
-1.10177e-08
7.43956e-08
-2.47295e-08
-1.81081e-10
6.92896e-08
-2.19458e-08
6.24754e-09
6.60728e-08
-1.67026e-08
6.11924e-08
-3.39162e-09
-3.55705e-09
4.28253e-08
-1.09535e-09
3.37049e-09
4.66367e-08
-1.1965e-08
1.39523e-08
4.96777e-08
-1.62506e-08
2.52241e-08
5.47445e-08
-1.81296e-08
3.66254e-08
6.26638e-08
-2.01081e-08
4.8665e-08
7.32544e-08
-2.3108e-08
6.26748e-08
8.59936e-08
-2.75059e-08
8.16954e-08
9.95875e-08
-3.35401e-08
1.09492e-07
1.14439e-07
-4.0516e-08
1.50988e-07
1.36777e-07
-4.84787e-08
1.96291e-07
1.81786e-07
-4.97187e-08
1.69538e-07
3.68645e-07
-5.91305e-08
1.35827e-07
4.45889e-07
-6.98501e-08
1.05747e-07
4.99642e-07
-8.39391e-08
8.06015e-08
5.35843e-07
-9.61751e-08
5.53179e-08
5.65113e-07
-1.02527e-07
2.94569e-08
5.84521e-07
-1.06423e-07
3.19722e-09
5.94676e-07
-1.08373e-07
-2.3064e-08
5.951e-07
-1.0848e-07
-4.89299e-08
5.85777e-07
-1.0674e-07
-7.42213e-08
5.67156e-07
-1.03045e-07
-9.93434e-08
5.38552e-07
-9.68862e-08
-1.29314e-07
5.0285e-07
-8.48194e-08
-1.62616e-07
4.49252e-07
-7.09114e-08
-1.88448e-07
3.72182e-07
-6.04598e-08
-1.41264e-07
1.84796e-07
-5.12065e-08
-9.94119e-08
1.43999e-07
-5.03485e-08
-7.04452e-08
1.22491e-07
-4.29059e-08
-4.93581e-08
1.08807e-07
-3.6681e-08
-3.23892e-08
9.68742e-08
-3.15161e-08
-1.68964e-08
8.67208e-08
-2.78181e-08
-2.89413e-09
7.97594e-08
-2.4472e-08
5.90781e-09
7.54575e-08
-1.81866e-08
6.99291e-08
-2.82891e-09
-2.99185e-09
4.6358e-08
-5.40798e-10
6.09478e-09
5.04622e-08
-1.29121e-08
1.94989e-08
5.42176e-08
-1.7944e-08
3.37245e-08
6.07024e-08
-2.01836e-08
4.79695e-08
7.10037e-08
-2.25849e-08
6.24311e-08
8.49957e-08
-2.62028e-08
7.80257e-08
1.01844e-07
-3.14451e-08
9.8327e-08
1.17835e-07
-3.85492e-08
1.30086e-07
1.2964e-07
-4.69604e-08
1.96029e-07
1.25217e-07
-5.43824e-08
2.91929e-07
1.42086e-07
-5.62e-08
2.35371e-07
4.76523e-07
-5.13199e-08
1.8196e-07
5.5877e-07
-5.94701e-08
1.41757e-07
6.18844e-07
-7.89984e-08
1.08983e-07
6.64416e-07
-9.57984e-08
7.51054e-08
7.01314e-07
-1.02323e-07
3.97728e-08
7.26704e-07
-1.0685e-07
3.64568e-09
7.3987e-07
-1.09068e-07
-3.25005e-08
7.40425e-07
-1.09179e-07
-6.78972e-08
7.28354e-07
-1.0718e-07
-1.01904e-07
7.04019e-07
-1.02856e-07
-1.34865e-07
6.68046e-07
-9.6533e-08
-1.75277e-07
6.23159e-07
-7.98962e-08
-2.28578e-07
5.63128e-07
-6.05756e-08
-2.83837e-07
4.80217e-07
-5.27756e-08
-1.84826e-07
1.4394e-07
-5.81551e-08
-1.1968e-07
1.3535e-07
-5.64967e-08
-8.64707e-08
1.3883e-07
-4.95484e-08
-6.35481e-08
1.2794e-07
-4.2055e-08
-4.41043e-08
1.13433e-07
-3.60021e-08
-2.50134e-08
9.92681e-08
-3.16382e-08
-6.94599e-09
8.93519e-08
-2.76598e-08
5.1962e-09
8.34022e-08
-2.00869e-08
7.72818e-08
-2.15647e-09
-2.04953e-09
4.84049e-08
2.57767e-12
9.85872e-09
5.26407e-08
-1.40867e-08
2.70789e-08
5.70197e-08
-2.00224e-08
4.56213e-08
6.48755e-08
-2.27154e-08
6.44838e-08
7.77878e-08
-2.56466e-08
8.3128e-08
9.6357e-08
-3.00056e-08
1.00763e-07
1.20407e-07
-3.61986e-08
1.17226e-07
1.46634e-07
-4.52616e-08
1.3161e-07
1.70299e-07
-5.5043e-08
1.83527e-07
1.44725e-07
-7.14251e-08
4.10484e-07
-8.48713e-08
3.2079e-07
5.88558e-07
-2.23402e-08
2.46963e-07
6.52892e-07
-2.02941e-08
1.97355e-07
7.07747e-07
-3.92955e-08
1.54792e-07
7.64768e-07
-5.77888e-08
1.06991e-07
8.09376e-07
-6.02615e-08
5.61215e-08
8.40778e-07
-6.32047e-08
4.2828e-09
8.56559e-07
-6.48497e-08
-4.75852e-08
8.57225e-07
-6.49318e-08
-9.8563e-08
8.42782e-07
-6.34507e-08
-1.46618e-07
8.12717e-07
-6.06433e-08
-1.89639e-07
7.69421e-07
-5.83543e-08
-2.40053e-07
7.13561e-07
-3.99877e-08
-3.15173e-07
6.59415e-07
-2.11678e-08
-4.04551e-07
5.9342e-07
-2.38246e-08
-1.7278e-07
-8.78315e-08
-1.19808e-07
1.5533e-07
-7.2952e-08
-1.04994e-07
1.81434e-07
-5.74186e-08
-8.54089e-08
1.57444e-07
-4.90889e-08
-6.28312e-08
1.3229e-07
-4.1435e-08
-3.80697e-08
1.10908e-07
-3.64015e-08
-1.37547e-08
9.67376e-08
-3.17009e-08
3.41222e-09
8.87505e-08
-2.25151e-08
8.20591e-08
-1.36508e-09
-8.57481e-10
4.85376e-08
7.2482e-10
1.43166e-08
5.29454e-08
-1.54788e-08
3.61194e-08
5.76738e-08
-2.24569e-08
6.02137e-08
6.64867e-08
-2.57055e-08
8.57301e-08
8.15467e-08
-2.92753e-08
1.11471e-07
1.04872e-07
-3.42552e-08
1.32733e-07
1.39905e-07
-4.07598e-08
1.35925e-07
1.91002e-07
-4.75604e-08
1.06179e-07
2.64804e-07
-6.47585e-08
3.58546e-07
-1.07643e-07
1.88156e-07
3.21942e-07
7.84595e-08
2.5383e-07
5.45775e-07
4.14432e-08
2.50493e-07
6.77254e-07
3.38292e-08
2.05292e-07
7.74558e-07
3.54113e-08
1.42749e-07
8.39865e-07
3.20541e-08
7.48217e-08
8.81019e-07
2.7686e-08
5.11412e-09
9.00716e-07
2.55501e-08
-6.4629e-08
9.01413e-07
2.55548e-08
-1.32685e-07
8.83143e-07
2.76947e-08
-1.9555e-07
8.43507e-07
3.20754e-08
-2.4151e-07
7.79919e-07
3.54621e-08
-2.46618e-07
6.84687e-07
3.3982e-08
-1.84041e-07
5.5553e-07
4.13075e-08
3.32289e-07
7.70908e-08
-1.02908e-07
3.63178e-07
-1.0494e-07
-1.27478e-07
2.72697e-07
-6.66924e-08
-1.18303e-07
2.00197e-07
-5.19285e-08
-8.99712e-08
1.50942e-07
-4.69834e-08
-5.60594e-08
1.18978e-07
-4.19818e-08
-2.30286e-08
1.00409e-07
-3.6702e-08
4.66797e-10
9.0816e-08
-2.55609e-08
8.31813e-08
-6.55414e-10
5.84878e-10
4.64736e-08
1.47913e-09
1.97926e-08
5.07841e-08
-1.70465e-08
4.75307e-08
5.50899e-08
-2.51542e-08
8.00347e-08
6.30972e-08
-2.91144e-08
1.1874e-07
7.65396e-08
-3.3698e-08
1.67178e-07
9.66172e-08
-4.01838e-08
2.31061e-07
1.24581e-07
-4.85589e-08
3.17492e-07
1.60397e-07
-5.58264e-08
4.39806e-07
2.01686e-07
-5.91954e-08
5.95428e-07
2.45882e-07
-4.29575e-08
4.65168e-07
8.43967e-08
4.58631e-08
4.77342e-07
2.31679e-07
7.80902e-08
4.59064e-07
4.12517e-07
1.51536e-07
3.92067e-07
5.31463e-07
2.12788e-07
2.9895e-07
6.20657e-07
2.47018e-07
1.99231e-07
6.80045e-07
2.59539e-07
1.01577e-07
7.17175e-07
2.61498e-07
5.96215e-09
7.3501e-07
2.61321e-07
-8.96307e-08
7.3562e-07
2.61386e-07
-1.87214e-07
7.19025e-07
2.61701e-07
-2.86818e-07
6.83196e-07
2.59915e-07
-3.79803e-07
6.25197e-07
2.47707e-07
-4.46708e-07
5.3747e-07
2.14122e-07
-4.64525e-07
4.19661e-07
1.53685e-07
-4.54037e-07
2.40015e-07
8.17869e-08
-5.89988e-07
8.64373e-08
4.95132e-08
-4.34236e-07
2.49655e-07
-4.22295e-08
-3.08239e-07
2.08207e-07
-6.15069e-08
-2.16033e-07
1.68682e-07
-6.06905e-08
-1.44146e-07
1.3497e-07
-5.59155e-08
-8.58017e-08
1.10155e-07
-4.95211e-08
-3.72194e-08
9.47499e-08
-4.29234e-08
-3.44088e-09
8.65745e-08
-2.9537e-08
7.95822e-08
1.58294e-10
1.53124e-09
4.26827e-08
2.25967e-09
2.43174e-08
4.65688e-08
-1.85708e-08
5.69507e-08
5.01749e-08
-2.77183e-08
9.56805e-08
5.67156e-08
-3.23483e-08
1.427e-07
6.73732e-08
-3.7853e-08
2.02505e-07
8.25151e-08
-4.57032e-08
2.80951e-07
1.01836e-07
-5.57009e-08
3.82338e-07
1.2381e-07
-6.48001e-08
5.0884e-07
1.43493e-07
-6.8309e-08
6.5188e-07
1.58085e-07
-5.52441e-08
6.53189e-07
1.05349e-07
-2.22603e-08
6.49018e-07
1.92196e-07
4.36536e-08
5.92612e-07
3.02169e-07
1.66754e-07
4.89051e-07
3.85549e-07
2.49474e-07
3.66541e-07
4.50003e-07
2.93164e-07
2.41899e-07
4.92726e-07
3.11961e-07
1.22293e-07
5.19727e-07
3.17054e-07
6.62238e-09
5.32724e-07
3.17957e-07
-1.09007e-07
5.33224e-07
3.18026e-07
-2.28484e-07
5.21233e-07
3.17269e-07
-3.52919e-07
4.95253e-07
3.12378e-07
-4.7522e-07
4.53549e-07
2.93949e-07
-5.78852e-07
3.90075e-07
2.51026e-07
-6.35929e-07
3.07397e-07
1.69342e-07
-6.41682e-07
1.97757e-07
4.80108e-08
-6.44335e-07
1.08475e-07
-1.93846e-08
-5.02361e-07
1.62592e-07
-5.49113e-08
-3.72743e-07
1.49501e-07
-7.09124e-08
-2.6522e-07
1.31422e-07
-7.02628e-08
-1.77688e-07
1.11511e-07
-6.40727e-08
-1.06286e-07
9.51993e-08
-5.64462e-08
-4.72796e-08
8.43412e-08
-4.85979e-08
-5.92191e-09
7.83242e-08
-3.31074e-08
7.23462e-08
1.31408e-09
2.32754e-09
3.73641e-08
2.99105e-09
2.80998e-08
4.06743e-08
-1.98778e-08
6.4778e-08
4.34343e-08
-2.99376e-08
1.08348e-07
4.82885e-08
-3.5143e-08
1.61193e-07
5.59907e-08
-4.14619e-08
2.27881e-07
6.64866e-08
-5.06603e-08
3.13415e-07
7.90232e-08
-6.27209e-08
4.20127e-07
9.23902e-08
-7.52913e-08
5.44251e-07
1.02942e-07
-8.35736e-08
6.69235e-07
1.11919e-07
-7.88171e-08
7.24348e-07
1.0255e-07
-5.23145e-08
7.40844e-07
1.52309e-07
2.33919e-08
6.74064e-07
2.17119e-07
1.5183e-07
5.53783e-07
2.70644e-07
2.35186e-07
4.117e-07
3.13008e-07
2.79078e-07
2.70221e-07
3.41242e-07
2.92963e-07
1.36103e-07
3.59417e-07
2.94428e-07
7.14138e-09
3.68249e-07
2.93437e-07
-1.21772e-07
3.68667e-07
2.9347e-07
-2.55741e-07
3.60666e-07
2.94536e-07
-3.96997e-07
3.43305e-07
2.93204e-07
-5.38906e-07
3.15838e-07
2.79621e-07
-6.59462e-07
2.74172e-07
2.36459e-07
-7.27345e-07
2.21127e-07
1.54153e-07
-7.13719e-07
1.56603e-07
2.75286e-08
-6.61618e-07
1.06126e-07
-4.97522e-08
-5.36961e-07
1.16373e-07
-7.84369e-08
-4.09685e-07
1.0848e-07
-8.62553e-08
-2.96467e-07
9.93134e-08
-8.11087e-08
-2.0096e-07
8.78114e-08
-7.18076e-08
-1.21269e-07
7.79433e-08
-6.2436e-08
-5.47278e-08
7.11045e-08
-5.33041e-08
-7.61317e-09
6.71673e-08
-3.59578e-08
6.22775e-08
2.45548e-09
2.78407e-09
3.09854e-08
3.59467e-09
3.07186e-08
3.3659e-08
-2.09193e-08
7.0234e-08
3.56445e-08
-3.17256e-08
1.16878e-07
3.90282e-08
-3.73831e-08
1.72895e-07
4.42979e-08
-4.43248e-08
2.42659e-07
5.12781e-08
-5.45559e-08
3.30574e-07
5.92934e-08
-6.81847e-08
4.38389e-07
6.76942e-08
-8.31194e-08
5.60896e-07
7.46052e-08
-9.41698e-08
6.82695e-07
8.259e-08
-9.24695e-08
7.64348e-07
8.72497e-08
-6.63526e-08
7.92888e-07
1.17966e-07
5.80233e-09
7.2098e-07
1.57514e-07
1.31512e-07
5.91835e-07
1.91369e-07
2.0842e-07
4.39218e-07
2.18614e-07
2.47012e-07
2.88049e-07
2.37224e-07
2.55187e-07
1.44996e-07
2.49405e-07
2.53065e-07
7.55693e-09
2.55426e-07
2.50261e-07
-1.29842e-07
2.55807e-07
2.50259e-07
-2.72773e-07
2.50533e-07
2.53064e-07
-4.23768e-07
2.39061e-07
2.55239e-07
-5.76302e-07
2.21087e-07
2.47284e-07
-7.05883e-07
1.94391e-07
2.09362e-07
-7.79172e-07
1.60918e-07
1.33498e-07
-7.5391e-07
1.21662e-07
9.67763e-09
-6.74677e-07
9.08568e-08
-6.39632e-08
-5.52889e-07
8.68079e-08
-9.22231e-08
-4.27016e-07
7.96142e-08
-9.70074e-08
-3.1228e-07
7.38186e-08
-8.92416e-08
-2.13636e-07
6.69614e-08
-7.77936e-08
-1.29763e-07
6.11249e-08
-6.70548e-08
-5.88099e-08
5.70397e-08
-5.68881e-08
-8.17351e-09
5.46004e-08
-3.80695e-08
5.07665e-08
3.33752e-09
3.03857e-09
2.389e-08
4.05675e-09
3.25077e-08
2.59033e-08
-2.17134e-08
7.40091e-08
2.72321e-08
-3.30889e-08
1.22679e-07
2.94354e-08
-3.9077e-08
1.80589e-07
3.28509e-08
-4.64629e-08
2.51945e-07
3.7349e-08
-5.74271e-08
3.40878e-07
4.25223e-08
-7.21621e-08
4.49093e-07
4.81556e-08
-8.86767e-08
5.71689e-07
5.35028e-08
-1.01494e-07
6.95234e-07
6.06331e-08
-1.01588e-07
7.8959e-07
6.83743e-08
-7.54808e-08
8.24505e-07
8.81868e-08
-5.13489e-09
7.50603e-07
1.12806e-07
1.18611e-07
6.16388e-07
1.34448e-07
1.91136e-07
4.57192e-07
1.52071e-07
2.25738e-07
2.99822e-07
1.64449e-07
2.30145e-07
1.50951e-07
1.72675e-07
2.25601e-07
7.93356e-09
1.76846e-07
2.21597e-07
-1.35057e-07
1.77222e-07
2.21576e-07
-2.83848e-07
1.73784e-07
2.2554e-07
-4.41116e-07
1.66235e-07
2.30093e-07
-6.00329e-07
1.54443e-07
2.25857e-07
-7.35119e-07
1.37295e-07
1.91887e-07
-8.10582e-07
1.15987e-07
1.20394e-07
-7.79069e-07
9.1637e-08
-1.48835e-09
-6.86835e-07
7.18464e-08
-7.32231e-08
-5.63065e-07
6.44829e-08
-1.01445e-07
-4.36854e-07
5.78787e-08
-1.04476e-07
-3.2133e-07
5.33324e-08
-9.50372e-08
-2.21063e-07
4.88382e-08
-8.21442e-08
-1.34781e-07
4.52637e-08
-7.04209e-08
-6.10922e-08
4.28436e-08
-5.94923e-08
-8.2699e-09
4.13678e-08
-3.95897e-08
3.8519e-08
3.97757e-09
3.13886e-09
1.6392e-08
4.35915e-09
3.36007e-08
1.77348e-08
-2.22933e-08
7.63847e-08
1.85166e-08
-3.40685e-08
1.26312e-07
1.97845e-08
-4.02766e-08
1.8533e-07
2.17776e-08
-4.79446e-08
2.57577e-07
2.44643e-08
-5.93619e-08
3.4716e-07
2.77003e-08
-7.47617e-08
4.55979e-07
3.15058e-08
-9.21686e-08
5.79694e-07
3.57214e-08
-1.05934e-07
7.05658e-07
4.15233e-08
-1.06854e-07
8.06327e-07
4.86254e-08
-8.09199e-08
8.44821e-07
6.10415e-08
-1.13484e-08
7.69669e-07
7.5703e-08
1.12254e-07
6.32289e-07
8.88376e-08
1.8299e-07
4.69043e-07
9.96177e-08
2.15699e-07
3.07735e-07
1.07446e-07
2.18311e-07
1.55048e-07
1.12741e-07
2.12621e-07
8.30171e-09
1.15539e-07
2.08054e-07
-1.38438e-07
1.15936e-07
2.08026e-07
-2.91102e-07
1.13908e-07
2.1254e-07
-4.52398e-07
1.09309e-07
2.18223e-07
-6.15778e-07
1.02061e-07
2.15762e-07
-7.53858e-07
9.17093e-08
1.83665e-07
-8.30669e-07
7.88385e-08
1.1396e-07
-7.9569e-07
6.43083e-08
-7.65001e-09
-6.96979e-07
5.18883e-08
-7.87533e-08
-5.70612e-07
4.49446e-08
-1.06829e-07
-4.43065e-07
3.94029e-08
-1.09071e-07
-3.26633e-07
3.56419e-08
-9.87415e-08
-2.25276e-07
3.25165e-08
-8.50353e-08
-1.37546e-07
3.02499e-08
-7.27158e-08
-6.2218e-08
2.88144e-08
-6.1299e-08
-8.12708e-09
2.79432e-08
-4.06664e-08
2.60428e-08
4.34914e-09
3.16557e-09
8.71743e-09
4.50902e-09
3.42012e-08
9.38471e-09
-2.26856e-08
7.77446e-08
9.67737e-09
-3.47041e-08
1.28432e-07
1.01359e-08
-4.10388e-08
1.88155e-07
1.09167e-08
-4.8862e-08
2.61045e-07
1.20971e-08
-6.05228e-08
3.51257e-07
1.37615e-08
-7.62734e-08
4.60835e-07
1.60592e-08
-9.41318e-08
5.85751e-07
1.91668e-08
-1.08361e-07
7.13554e-07
2.33543e-08
-1.09634e-07
8.17302e-07
2.86168e-08
-8.37391e-08
8.57478e-07
3.50501e-08
-1.41847e-08
7.81563e-07
4.16809e-08
1.09938e-07
6.42278e-07
4.77447e-08
1.80378e-07
4.76613e-07
5.27384e-08
2.12544e-07
3.1288e-07
5.66168e-08
2.14563e-07
1.57802e-07
5.93423e-08
2.08477e-07
8.68881e-09
6.09382e-08
2.03714e-07
-1.40442e-07
6.13797e-08
2.03687e-07
-2.95569e-07
6.06384e-08
2.08397e-07
-4.59407e-07
5.86711e-08
2.14475e-07
-6.25353e-07
5.54049e-08
2.12602e-07
-7.65495e-07
5.08153e-08
1.81036e-07
-8.43206e-07
4.49406e-08
1.11609e-07
-8.06612e-07
3.82814e-08
-1.05671e-08
-7.04749e-07
3.16938e-08
-8.16679e-08
-5.76431e-07
2.6357e-08
-1.09731e-07
-4.4753e-07
2.21537e-08
-1.11651e-07
-3.30134e-07
1.91411e-08
-1.00896e-07
-2.2787e-07
1.7036e-08
-8.67829e-08
-1.39161e-07
1.56894e-08
-7.4149e-08
-6.28224e-08
1.49375e-08
-6.24614e-08
-7.99554e-09
1.451e-08
-4.13937e-08
1.35428e-08
4.50447e-09
3.14555e-09
1.06456e-09
4.50732e-09
3.43845e-08
1.05213e-09
-2.29063e-08
7.82295e-08
8.53087e-10
-3.50207e-08
1.29264e-07
4.992e-10
-4.13983e-08
1.89396e-07
5.1898e-11
-4.92664e-08
2.62781e-07
-2.9381e-10
-6.09949e-08
3.53627e-07
-2.46901e-10
-7.68369e-08
4.64018e-07
4.74286e-10
-9.48064e-08
5.89897e-07
2.43516e-09
-1.09147e-07
7.1869e-07
5.06143e-09
-1.105e-07
8.23253e-07
8.68534e-09
-8.46322e-08
8.63635e-07
9.64686e-09
-1.49785e-08
7.8725e-07
8.46612e-09
1.096e-07
6.47087e-07
7.5468e-09
1.8036e-07
4.80389e-07
6.76306e-09
2.12674e-07
3.15561e-07
6.69749e-09
2.14748e-07
1.59368e-07
6.86546e-09
2.08669e-07
9.11711e-09
7.28422e-09
2.03905e-07
-1.41183e-07
7.79997e-09
2.0388e-07
-2.97517e-07
8.38056e-09
2.08591e-07
-4.62596e-07
9.08969e-09
2.14661e-07
-6.2977e-07
9.84958e-09
2.12729e-07
-7.70996e-07
1.10417e-08
1.81e-07
-8.49364e-07
1.20778e-08
1.1123e-07
-8.12654e-07
1.30253e-08
-1.14538e-08
-7.09953e-07
1.1674e-08
-8.26806e-08
-5.80587e-07
7.73441e-09
-1.10744e-07
-4.50641e-07
4.81445e-09
-1.12606e-07
-3.32343e-07
2.60039e-09
-1.01757e-07
-2.29327e-07
1.57003e-09
-8.75498e-08
-1.39984e-07
1.18074e-09
-7.48344e-08
-6.31157e-08
1.13247e-09
-6.30636e-08
-7.94495e-09
1.1608e-09
-4.18216e-08
1.13686e-09
4.46097e-09
3.0777e-09
-6.36641e-09
4.35327e-09
3.41485e-08
-7.05959e-09
-2.29591e-08
7.78355e-08
-7.81038e-09
-3.50236e-08
1.28806e-07
-9.10787e-09
-4.13632e-08
1.89027e-07
-1.09941e-08
-4.91755e-08
2.62754e-07
-1.32198e-08
-6.08008e-08
3.54229e-07
-1.52335e-08
-7.64881e-08
4.65457e-07
-1.65176e-08
-9.42362e-08
5.92128e-07
-1.5893e-08
-1.08344e-07
7.21195e-07
-1.44844e-08
-1.09521e-07
8.24436e-07
-1.08454e-08
-8.37103e-08
8.63454e-07
-1.54028e-08
-1.39677e-08
7.86789e-07
-2.57834e-08
1.10914e-07
6.46736e-07
-3.48927e-08
1.82493e-07
4.8038e-07
-4.24443e-08
2.15563e-07
3.15793e-07
-4.69952e-08
2.1828e-07
1.59764e-07
-4.96836e-08
2.12578e-07
9.60746e-09
-5.05526e-08
2.07994e-07
-1.40635e-07
-4.99249e-08
2.07967e-07
-2.96917e-07
-4.7835e-08
2.12498e-07
-4.61935e-07
-4.40711e-08
2.18179e-07
-6.29012e-07
-3.86553e-08
2.15582e-07
-7.70405e-07
-3.06283e-08
1.83062e-07
-8.49317e-07
-2.14436e-08
1.12433e-07
-8.14114e-07
-1.15711e-08
-1.06066e-08
-7.12743e-07
-7.75586e-09
-8.19403e-08
-5.83088e-07
-1.19558e-08
-1.09965e-07
-4.52344e-07
-1.39242e-08
-1.12005e-07
-3.33209e-07
-1.51566e-08
-1.01378e-07
-2.29615e-07
-1.46504e-08
-8.73734e-08
-1.39998e-07
-1.3638e-08
-7.47978e-08
-6.30856e-08
-1.26567e-08
-6.31237e-08
-7.96723e-09
-1.19953e-08
-4.19622e-08
-1.10447e-08
4.21437e-09
2.93324e-09
-1.33412e-08
4.04154e-09
3.34171e-08
-1.47082e-08
-2.28353e-08
7.64165e-08
-1.61112e-08
-3.46986e-08
1.26798e-07
-1.85774e-08
-4.09121e-08
1.86671e-07
-2.23201e-08
-4.85465e-08
2.60418e-07
-2.70913e-08
-5.98755e-08
3.52424e-07
-3.21244e-08
-7.51157e-08
4.64668e-07
-3.65173e-08
-9.22441e-08
5.92357e-07
-3.78956e-08
-1.05686e-07
7.21538e-07
-3.73828e-08
-1.06282e-07
8.20683e-07
-2.95239e-08
-8.04668e-08
8.5604e-07
-4.04856e-08
-1.02738e-08
7.79264e-07
-6.42313e-08
1.15224e-07
6.40488e-07
-8.48679e-08
1.88751e-07
4.76121e-07
-1.01771e-07
2.23694e-07
3.13317e-07
-1.12309e-07
2.28118e-07
1.58899e-07
-1.18715e-07
2.23449e-07
1.02096e-08
-1.21209e-07
2.19347e-07
-1.38609e-07
-1.20401e-07
2.19295e-07
-2.93413e-07
-1.1632e-07
2.23289e-07
-4.56873e-07
-1.08491e-07
2.2788e-07
-6.22291e-07
-9.67552e-08
2.23517e-07
-7.62786e-07
-7.91988e-08
1.89066e-07
-8.4221e-07
-5.84704e-08
1.16451e-07
-8.10859e-07
-3.56901e-08
-7.23186e-09
-7.13562e-07
-2.60597e-08
-7.89935e-08
-5.83797e-07
-3.46807e-08
-1.0704e-07
-4.521e-07
-3.59836e-08
-1.09637e-07
-3.32094e-07
-3.5537e-08
-9.96259e-08
-2.2818e-07
-3.23928e-08
-8.61719e-08
-1.38813e-07
-2.90235e-08
-7.3981e-08
-6.25093e-08
-2.63639e-08
-6.25966e-08
-7.98256e-09
-2.47314e-08
-4.17907e-08
-2.27635e-08
3.73617e-09
2.63438e-09
-1.95376e-08
3.56202e-09
3.19955e-08
-2.15521e-08
-2.25172e-08
7.36015e-08
-2.36976e-08
-3.40195e-08
1.22599e-07
-2.75691e-08
-4.00063e-08
1.81265e-07
-3.36698e-08
-4.7316e-08
2.54205e-07
-4.19399e-08
-5.80914e-08
3.46208e-07
-5.16468e-08
-7.24801e-08
4.59577e-07
-6.15251e-08
-8.83616e-08
5.89552e-07
-6.74654e-08
-1.00405e-07
7.20417e-07
-6.87017e-08
-9.95455e-08
8.10483e-07
-4.56333e-08
-7.3957e-08
8.38237e-07
-6.54033e-08
-2.83588e-09
7.61303e-07
-1.11447e-07
1.2415e-07
6.25567e-07
-1.50555e-07
2.01422e-07
4.65788e-07
-1.81827e-07
2.39835e-07
3.07111e-07
-2.01263e-07
2.47631e-07
1.56343e-07
-2.13012e-07
2.45064e-07
1.09749e-08
-2.17799e-07
2.41959e-07
-1.34567e-07
-2.16703e-07
2.41844e-07
-2.85867e-07
-2.09731e-07
2.44712e-07
-4.45457e-07
-1.95964e-07
2.47063e-07
-6.06705e-07
-1.74706e-07
2.39199e-07
-7.44687e-07
-1.4239e-07
2.01172e-07
-8.24931e-07
-1.03e-07
1.24774e-07
-8.01448e-07
-5.86673e-08
-5.06049e-10
-7.13054e-07
-4.14924e-08
-7.29618e-08
-5.81619e-07
-6.53093e-08
-1.00806e-07
-4.47783e-07
-6.50303e-08
-1.04789e-07
-3.26914e-07
-6.03491e-08
-9.60568e-08
-2.23395e-07
-5.22127e-08
-8.36992e-08
-1.35342e-07
-4.4848e-08
-7.22285e-08
-6.07688e-08
-3.95655e-08
-6.13714e-08
-7.74358e-09
-3.6517e-08
-4.12396e-08
-3.34709e-08
2.96388e-09
2.15178e-09
-2.46205e-08
2.93117e-09
2.9797e-08
-2.72141e-08
-2.19833e-08
6.91915e-08
-3.01274e-08
-3.29646e-08
1.15768e-07
-3.55252e-08
-3.86201e-08
1.71892e-07
-4.4341e-08
-4.54531e-08
2.42361e-07
-5.69894e-08
-5.54196e-08
3.32612e-07
-7.3326e-08
-6.85717e-08
4.45912e-07
-9.22547e-08
-8.25701e-08
5.79692e-07
-1.08783e-07
-9.24623e-08
7.1839e-07
-1.17986e-07
-8.94144e-08
7.89315e-07
-5.37301e-08
-6.28283e-08
8.01365e-07
-8.81041e-08
1.06507e-08
7.26625e-07
-1.74921e-07
1.38214e-07
5.97867e-07
-2.41829e-07
2.20033e-07
4.46672e-07
-2.93172e-07
2.6254e-07
2.95533e-07
-3.25244e-07
2.7512e-07
1.51367e-07
-3.44296e-07
2.75449e-07
1.20186e-08
-3.52199e-07
2.73747e-07
-1.27536e-07
-3.50665e-07
2.73517e-07
-2.72363e-07
-3.39648e-07
2.74743e-07
-4.24679e-07
-3.17603e-07
2.73955e-07
-5.77879e-07
-2.82604e-07
2.61099e-07
-7.09622e-07
-2.2947e-07
2.18823e-07
-7.88829e-07
-1.61684e-07
1.37892e-07
-7.81611e-07
-7.80829e-08
1.21971e-08
-7.11667e-07
-4.89502e-08
-6.24864e-08
-5.72498e-07
-1.12962e-07
-9.15169e-08
-4.35116e-07
-1.0491e-07
-9.75019e-08
-3.14686e-07
-9.01062e-08
-9.06725e-08
-2.13458e-07
-7.35204e-08
-7.99203e-08
-1.28594e-07
-6.02601e-08
-6.94516e-08
-5.73732e-08
-5.14542e-08
-5.93325e-08
-7.08783e-09
-4.66013e-08
-4.0201e-08
-4.24713e-08
1.9125e-09
1.36169e-09
-2.81378e-08
2.15553e-09
2.65204e-08
-3.11436e-08
-2.12292e-08
6.25589e-08
-3.46172e-08
-3.15487e-08
1.04994e-07
-4.11917e-08
-3.67688e-08
1.55915e-07
-5.2305e-08
-4.29569e-08
2.19929e-07
-6.91777e-08
-5.18251e-08
3.0312e-07
-9.32381e-08
-6.32796e-08
4.10708e-07
-1.25547e-07
-7.42958e-08
5.4719e-07
-1.65131e-07
-8.0134e-08
7.1453e-07
-2.15996e-07
-6.9329e-08
7.48557e-07
-4.95768e-08
-3.81804e-08
7.2346e-07
-8.83936e-08
2.53864e-08
6.57999e-07
-2.55965e-07
1.46505e-07
5.44609e-07