/*--------------------------------*- C++ -*----------------------------------*\
| =========                 |                                                 |
| \\      /  F ield         | OpenFOAM: The Open Source CFD Toolbox           |
|  \\    /   O peration     | Version:  2112                                  |
|   \\  /    A nd           | Website:  www.openfoam.com                      |
|    \\/     M anipulation  |                                                 |
\*---------------------------------------------------------------------------*/
FoamFile
{
    version     2.0;
    format      ascii;
    arch        "LSB;label=32;scalar=64";
    class       volVectorField;
    location    "3";
    object      U;
}
// * * * * * * * * * * * * * * * * * * * * * * * * * * * * * * * * * * * * * //

dimensions      [0 1 -1 0 0 0 0];

internalField   nonuniform List<vector> 
64906
(
(1.23409e-07 4.72403e-07 -1.19118e-06)
(2.30237e-06 -1.03814e-06 -1.22697e-06)
(6.01241e-06 -2.56722e-06 -5.94934e-07)
(1.00969e-05 -3.75002e-06 2.34206e-07)
(1.44358e-05 -4.56057e-06 9.02662e-07)
(1.87604e-05 -5.13818e-06 1.3952e-06)
(2.30065e-05 -5.60541e-06 1.78072e-06)
(2.70466e-05 -6.00985e-06 2.12385e-06)
(3.07233e-05 -6.37544e-06 2.4535e-06)
(3.35413e-05 -6.59032e-06 2.80517e-06)
(3.51525e-05 -6.59353e-06 3.2385e-06)
(3.51064e-05 -6.19378e-06 3.78632e-06)
(3.32743e-05 -5.99896e-06 4.34065e-06)
(2.99149e-05 -5.85585e-06 4.90833e-06)
(2.52303e-05 -5.87712e-06 5.4085e-06)
(1.96233e-05 -5.92259e-06 5.81921e-06)
(1.33438e-05 -5.99564e-06 6.10318e-06)
(6.70369e-06 -6.04809e-06 6.25166e-06)
(-4.94473e-08 -6.07666e-06 6.25683e-06)
(-6.63897e-06 -6.08143e-06 6.1195e-06)
(-1.28176e-05 -6.06607e-06 5.84777e-06)
(-1.82754e-05 -6.07908e-06 5.45069e-06)
(-2.2768e-05 -6.11585e-06 4.96601e-06)
(-2.58962e-05 -6.31765e-06 4.41446e-06)
(-2.74729e-05 -6.56579e-06 3.87525e-06)
(-2.72575e-05 -7.0119e-06 3.33581e-06)
(-2.53595e-05 -6.99933e-06 2.90887e-06)
(-2.22383e-05 -6.7682e-06 2.4994e-06)
(-1.82772e-05 -6.29704e-06 2.02238e-06)
(-1.40008e-05 -5.60169e-06 1.38223e-06)
(-9.6639e-06 -4.50949e-06 4.96587e-07)
(-5.60065e-06 -2.82124e-06 -5.99623e-07)
(-1.98462e-06 -7.79073e-07 -1.54449e-06)
(1.34521e-07 1.00521e-06 -1.6563e-06)
(-2.17317e-06 5.00724e-06 -1.96338e-06)
(-8.26225e-07 3.82925e-06 -6.35693e-06)
(4.22614e-06 2.15206e-06 -7.6412e-06)
(9.28044e-06 7.82657e-07 -7.89905e-06)
(1.41938e-05 6.99376e-08 -8.11593e-06)
(1.88338e-05 -3.0659e-08 -8.5729e-06)
(2.32782e-05 3.99894e-07 -9.33746e-06)
(2.74714e-05 1.38998e-06 -1.04172e-05)
(3.13562e-05 3.00501e-06 -1.18143e-05)
(3.45069e-05 5.53778e-06 -1.35301e-05)
(3.66196e-05 8.86701e-06 -1.55788e-05)
(3.67357e-05 1.3217e-05 -1.78496e-05)
(3.46987e-05 1.6968e-05 -1.99878e-05)
(3.11022e-05 2.02357e-05 -2.18438e-05)
(2.61348e-05 2.26209e-05 -2.33487e-05)
(2.02948e-05 2.43844e-05 -2.44943e-05)
(1.37776e-05 2.54937e-05 -2.52702e-05)
(6.91833e-06 2.60395e-05 -2.56782e-05)
(-5.67531e-08 2.60246e-05 -2.57141e-05)
(-6.85999e-06 2.54492e-05 -2.53776e-05)
(-1.3267e-05 2.43116e-05 -2.4673e-05)
(-1.89439e-05 2.25218e-05 -2.35991e-05)
(-2.37027e-05 2.0119e-05 -2.21676e-05)
(-2.7047e-05 1.68451e-05 -2.03901e-05)
(-2.88033e-05 1.31203e-05 -1.83414e-05)
(-2.83636e-05 8.83478e-06 -1.61821e-05)
(-2.5919e-05 5.67714e-06 -1.42968e-05)
(-2.24161e-05 3.40047e-06 -1.27909e-05)
(-1.80761e-05 2.24861e-06 -1.16888e-05)
(-1.329e-05 2.05635e-06 -1.10017e-05)
(-8.04279e-06 2.89811e-06 -1.06512e-05)
(-2.63781e-06 4.74264e-06 -1.03058e-05)
(2.59265e-06 6.89415e-06 -8.65136e-06)
(3.34204e-06 8.0994e-06 -2.88107e-06)
(-3.73668e-06 1.40246e-05 -1.76547e-06)
(-3.08412e-06 1.48597e-05 -7.96498e-06)
(2.68662e-06 1.44215e-05 -1.00059e-05)
(8.48914e-06 1.41766e-05 -1.06686e-05)
(1.41819e-05 1.48488e-05 -1.12258e-05)
(1.95258e-05 1.65827e-05 -1.20631e-05)
(2.47047e-05 1.94782e-05 -1.33204e-05)
(2.97492e-05 2.37951e-05 -1.50574e-05)
(3.47414e-05 2.98312e-05 -1.73084e-05)
(3.90019e-05 3.82723e-05 -2.0102e-05)
(4.21398e-05 4.86605e-05 -2.33695e-05)
(4.24336e-05 6.12762e-05 -2.6936e-05)
(3.97002e-05 7.24137e-05 -3.03205e-05)
(3.52033e-05 8.21805e-05 -3.32798e-05)
(2.9208e-05 8.96388e-05 -3.56928e-05)
(2.24566e-05 9.52741e-05 -3.75317e-05)
(1.50444e-05 9.89574e-05 -3.8774e-05)
(7.3406e-06 0.000100831 -3.9425e-05)
(-4.79656e-07 0.000100881 -3.94771e-05)
(-8.12431e-06 9.91057e-05 -3.89298e-05)
(-1.54199e-05 9.55254e-05 -3.77909e-05)
(-2.19952e-05 8.99996e-05 -3.60562e-05)
(-2.77611e-05 8.26725e-05 -3.37499e-05)
(-3.19692e-05 7.30672e-05 -3.09047e-05)
(-3.4371e-05 6.21657e-05 -2.765e-05)
(-3.36808e-05 4.98631e-05 -2.42435e-05)
(-3.00979e-05 3.99536e-05 -2.1187e-05)
(-2.53077e-05 3.21489e-05 -1.86704e-05)
(-1.95774e-05 2.70237e-05 -1.67813e-05)
(-1.35212e-05 2.39816e-05 -1.54786e-05)
(-7.00721e-06 2.27772e-05 -1.45895e-05)
(-4.89124e-07 2.29525e-05 -1.36133e-05)
(5.76012e-06 2.3386e-05 -1.09085e-05)
(5.51557e-06 2.19233e-05 -2.74452e-06)
(-4.78068e-06 2.35985e-05 -1.18963e-06)
(-4.44655e-06 2.57209e-05 -8.15191e-06)
(2.13587e-06 2.62453e-05 -1.04532e-05)
(8.92133e-06 2.7227e-05 -1.12137e-05)
(1.57387e-05 2.94529e-05 -1.18671e-05)
(2.22803e-05 3.31677e-05 -1.28545e-05)
(2.88789e-05 3.86277e-05 -1.43567e-05)
(3.56878e-05 4.63746e-05 -1.6472e-05)
(4.30424e-05 5.70692e-05 -1.92491e-05)
(4.98201e-05 7.21514e-05 -2.27448e-05)
(5.54594e-05 9.11097e-05 -2.68345e-05)
(5.61686e-05 0.000114819 -3.13782e-05)
(5.16824e-05 0.000135147 -3.56602e-05)
(4.50348e-05 0.000152663 -3.93913e-05)
(3.66556e-05 0.000165841 -4.24195e-05)
(2.77593e-05 0.000175808 -4.47028e-05)
(1.82026e-05 0.000182333 -4.62281e-05)
(8.42953e-06 0.000185674 -4.70226e-05)
(-1.47139e-06 0.00018579 -4.70796e-05)
(-1.11828e-05 0.000182681 -4.63984e-05)
(-2.0617e-05 0.000176392 -4.49852e-05)
(-2.93214e-05 0.000166665 -4.28135e-05)
(-3.74434e-05 0.000153754 -3.98975e-05)
(-4.37454e-05 0.000136542 -3.62851e-05)
(-4.78206e-05 0.000116633 -3.21378e-05)
(-4.65827e-05 9.34447e-05 -2.77623e-05)
(-4.03369e-05 7.5287e-05 -2.3898e-05)
(-3.2831e-05 6.11457e-05 -2.07023e-05)
(-2.44313e-05 5.16916e-05 -1.83151e-05)
(-1.62089e-05 4.55501e-05 -1.66613e-05)
(-7.80993e-06 4.21022e-05 -1.5534e-05)
(2.0469e-07 4.06165e-05 -1.43604e-05)
(7.60714e-06 3.98274e-05 -1.12911e-05)
(6.94363e-06 3.66719e-05 -2.08247e-06)
(-5.3728e-06 3.33377e-05 -5.71381e-07)
(-4.90083e-06 3.64904e-05 -8.17584e-06)
(2.88425e-06 3.79185e-05 -1.06849e-05)
(1.10288e-05 4.01587e-05 -1.14994e-05)
(1.93925e-05 4.40637e-05 -1.22372e-05)
(2.76719e-05 4.99166e-05 -1.34077e-05)
(3.64516e-05 5.80864e-05 -1.52331e-05)
(4.61272e-05 6.9432e-05 -1.78584e-05)
(5.75909e-05 8.51935e-05 -2.13235e-05)
(6.90532e-05 0.000108241 -2.57304e-05)
(7.98635e-05 0.000138527 -3.08455e-05)
(8.1357e-05 0.000178928 -3.67921e-05)
(7.30678e-05 0.000211694 -4.23037e-05)
(6.23038e-05 0.000239134 -4.7145e-05)
(4.96574e-05 0.00025918 -5.10774e-05)
(3.70604e-05 0.00027437 -5.39688e-05)
(2.37739e-05 0.000284294 -5.58668e-05)
(1.03831e-05 0.000289399 -5.68467e-05)
(-3.17029e-06 0.000289592 -5.69083e-05)
(-1.64994e-05 0.000284868 -5.60504e-05)
(-2.96628e-05 0.000275322 -5.42715e-05)
(-4.2056e-05 0.000260501 -5.14966e-05)
(-5.44184e-05 0.000240846 -4.76776e-05)
(-6.47649e-05 0.000213824 -4.29536e-05)
(-7.2542e-05 0.000181631 -3.75754e-05)
(-7.03229e-05 0.000141917 -3.17971e-05)
(-5.87065e-05 0.000112787 -2.69217e-05)
(-4.63366e-05 9.0952e-05 -2.28373e-05)
(-3.35242e-05 7.67154e-05 -1.97966e-05)
(-2.20421e-05 6.72735e-05 -1.76823e-05)
(-1.09935e-05 6.14826e-05 -1.62824e-05)
(-8.88084e-07 5.83343e-05 -1.49362e-05)
(8.24388e-06 5.64371e-05 -1.15341e-05)
(7.78783e-06 5.19158e-05 -1.36e-06)
(-5.73762e-06 4.2584e-05 1.41796e-08)
(-4.66927e-06 4.65298e-05 -8.33676e-06)
(4.86706e-06 4.87721e-05 -1.11255e-05)
(1.48531e-05 5.2237e-05 -1.20202e-05)
(2.52534e-05 5.78705e-05 -1.28946e-05)
(3.58042e-05 6.59073e-05 -1.43489e-05)
(4.74654e-05 7.67252e-05 -1.66512e-05)
(6.10854e-05 9.14183e-05 -1.99981e-05)
(7.87391e-05 0.000112027 -2.43462e-05)
(9.80372e-05 0.000143976 -2.98265e-05)
(0.000119202 0.000188803 -3.5715e-05)
(0.000122329 0.000256148 -4.34102e-05)
(0.000106318 0.000305738 -5.05022e-05)
(8.85674e-05 0.000345424 -5.70318e-05)
(6.92712e-05 0.000373257 -6.24129e-05)
(5.12014e-05 0.000394484 -6.61512e-05)
(3.22789e-05 0.000408308 -6.85425e-05)
(1.33891e-05 0.000415459 -6.97626e-05)
(-5.74852e-06 0.000415738 -6.98316e-05)
(-2.45835e-05 0.000409137 -6.87477e-05)
(-4.3398e-05 0.000395846 -6.64875e-05)
(-6.12715e-05 0.000375114 -6.28756e-05)
(-8.02813e-05 0.000347771 -5.7612e-05)
(-9.75465e-05 0.000308562 -5.12006e-05)
(-0.000112941 0.000259647 -4.42435e-05)
(-0.000108787 0.000193064 -3.67084e-05)
(-8.65661e-05 0.000149891 -3.10794e-05)
(-6.62445e-05 0.000119393 -2.59501e-05)
(-4.69295e-05 0.000100544 -2.20757e-05)
(-3.10617e-05 8.80247e-05 -1.93118e-05)
(-1.65472e-05 8.00061e-05 -1.75152e-05)
(-3.62602e-06 7.53107e-05 -1.59063e-05)
(8.02373e-06 7.24328e-05 -1.20429e-05)
(8.37029e-06 6.68369e-05 -6.82982e-07)
(-6.0025e-06 5.10573e-05 6.19354e-07)
(-3.90877e-06 5.57009e-05 -8.68522e-06)
(8.03671e-06 5.87493e-05 -1.188e-05)
(2.04371e-05 6.35589e-05 -1.29051e-05)
(3.34192e-05 7.11505e-05 -1.39845e-05)
(4.67183e-05 8.16053e-05 -1.58307e-05)
(6.17238e-05 9.50839e-05 -1.87541e-05)
(7.9978e-05 0.000112423 -2.30045e-05)
(0.000105864 0.000136358 -2.83441e-05)
(0.000136835 0.000175276 -3.47371e-05)
(0.000178605 0.000236802 -4.03302e-05)
(0.000185508 0.000349913 -4.9836e-05)
(0.000153528 0.000421627 -5.83723e-05)
(0.000124725 0.000476347 -6.73295e-05)
(9.60864e-05 0.000513366 -7.49766e-05)
(7.07805e-05 0.000542161 -7.96489e-05)
(4.4102e-05 0.000560951 -8.25845e-05)
(1.76002e-05 0.000570728 -8.40612e-05)
(-9.32668e-06 0.000571115 -8.41408e-05)
(-3.57932e-05 0.000562095 -8.28207e-05)
(-6.24073e-05 0.000544025 -8.00341e-05)
(-8.75671e-05 0.000515865 -7.55042e-05)
(-0.000115978 0.000479414 -6.79825e-05)
(-0.000144259 0.000425145 -5.9151e-05)
(-0.000175571 0.000354099 -5.07635e-05)
(-0.000167127 0.000241611 -4.13994e-05)
(-0.000123957 0.000182625 -3.61017e-05)
(-9.20354e-05 0.0001453 -3.00835e-05)
(-6.41524e-05 0.000123272 -2.52798e-05)
(-4.31007e-05 0.000108318 -2.1703e-05)
(-2.44337e-05 9.80761e-05 -1.93858e-05)
(-7.94583e-06 9.17178e-05 -1.74045e-05)
(7.15754e-06 8.77462e-05 -1.28649e-05)
(8.88633e-06 8.11651e-05 2.6569e-08)
(-6.19575e-06 5.84321e-05 1.30112e-06)
(-2.63058e-06 6.36758e-05 -9.21872e-06)
(1.25417e-05 6.75563e-05 -1.29414e-05)
(2.8146e-05 7.38824e-05 -1.41644e-05)
(4.4426e-05 8.37342e-05 -1.55244e-05)
(6.09799e-05 9.6924e-05 -1.78769e-05)
(7.9297e-05 0.000113036 -2.15794e-05)
(0.000101526 0.000131678 -2.69838e-05)
(0.000134767 0.00015479 -3.34032e-05)
(0.000179733 0.000195887 -4.11412e-05)
(0.00026303 0.000269719 -4.07052e-05)
(0.000279896 0.000465953 -4.98748e-05)
(0.000216677 0.000561389 -6.02024e-05)
(0.000173372 0.000630195 -7.35558e-05)
(0.000133023 0.000675857 -8.50071e-05)
(9.84882e-05 0.000712087 -9.05756e-05)
(6.09767e-05 0.000735952 -9.40251e-05)
(2.3634e-05 0.00074848 -9.57309e-05)
(-1.44506e-05 0.000749002 -9.58226e-05)
(-5.17931e-05 0.000737493 -9.42968e-05)
(-8.93257e-05 0.000714588 -9.10182e-05)
(-0.00012384 0.000679171 -8.56161e-05)
(-0.000164154 0.000634149 -7.43055e-05)
(-0.000207036 0.00056564 -6.10995e-05)
(-0.000269763 0.000470773 -5.09936e-05)
(-0.000250335 0.000274666 -4.1864e-05)
(-0.000165116 0.000205275 -4.26028e-05)
(-0.000119739 0.000165515 -3.52779e-05)
(-8.40579e-05 0.000144227 -2.94895e-05)
(-5.83005e-05 0.00012801 -2.48809e-05)
(-3.52018e-05 0.000115478 -2.19158e-05)
(-1.42917e-05 0.000107138 -1.94526e-05)
(5.50323e-06 0.000101908 -1.39649e-05)
(9.34984e-06 9.44412e-05 8.92919e-07)
(-6.34934e-06 6.44184e-05 2.08235e-06)
(-8.28355e-07 7.02e-05 -9.92513e-06)
(1.84948e-05 7.51078e-05 -1.43114e-05)
(3.8246e-05 8.34091e-05 -1.57904e-05)
(5.87564e-05 9.64514e-05 -1.74836e-05)
(7.92435e-05 0.000113941 -2.03947e-05)
(0.000100585 0.000134857 -2.49573e-05)
(0.000124138 0.000155585 -3.16472e-05)
(0.000161168 0.00017653 -4.02391e-05)
(0.000212222 0.000208077 -4.79901e-05)
(0.000374129 0.000228698 -4.99257e-05)
(0.000416275 0.000584838 -4.4567e-05)
(0.00028785 0.00071326 -5.32846e-05)
(0.000231493 0.000801959 -7.33765e-05)
(0.000179284 0.000861546 -8.9901e-05)
(0.000133779 0.000910589 -9.60021e-05)
(8.27105e-05 0.000943231 -0.00010033)
(3.1478e-05 0.00096019 -0.000102379)
(-2.10089e-05 0.000960886 -0.000102479)
(-7.22911e-05 0.000945295 -0.000100625)
(-0.000123507 0.000913961 -9.6478e-05)
(-0.000169211 0.000866031 -9.05581e-05)
(-0.00022181 0.000807267 -7.41762e-05)
(-0.000278021 0.000718767 -5.42727e-05)
(-0.000406688 0.000590543 -4.58552e-05)
(-0.000359926 0.000231767 -5.15906e-05)
(-0.000195511 0.000218745 -4.97282e-05)
(-0.000145777 0.000188465 -4.22719e-05)
(-0.000105464 0.000169411 -3.44507e-05)
(-7.73776e-05 0.000151063 -2.87129e-05)
(-4.97473e-05 0.00013399 -2.5062e-05)
(-2.32309e-05 0.00012207 -2.20566e-05)
(2.88167e-06 0.00011476 -1.53875e-05)
(9.77085e-06 0.000106271 1.94759e-06)
(-6.36246e-06 6.85008e-05 2.96813e-06)
(1.78139e-06 7.46005e-05 -1.08013e-05)
(2.65664e-05 8.04677e-05 -1.59958e-05)
(5.21176e-05 9.07391e-05 -1.7797e-05)
(7.9096e-05 0.000107204 -1.99004e-05)
(0.000106367 0.00012983 -2.34595e-05)
(0.000132496 0.000156923 -2.89332e-05)
(0.000158061 0.000180701 -3.79655e-05)
(0.000189038 0.000188084 -4.82105e-05)
(0.000154784 0.000112064 -7.0617e-05)
(0.000448217 0.000211899 -7.27067e-05)
(0.000608523 0.0008369 -1.82933e-05)
(0.000377925 0.000908103 -2.08735e-05)
(0.000319453 0.000971827 -4.33595e-05)
(0.000253628 0.00103773 -6.29442e-05)
(0.000190823 0.00109216 -6.52216e-05)
(0.000117469 0.00113129 -6.83548e-05)
(4.37334e-05 0.00115154 -6.99427e-05)
(-3.14346e-05 0.00115243 -7.00208e-05)
(-0.000105249 0.00113395 -6.85909e-05)
(-0.00017886 0.00109653 -6.55857e-05)
(-0.00024212 0.00104363 -6.34873e-05)
(-0.000308891 0.000978837 -4.4028e-05)
(-0.000368016 0.00091503 -2.17382e-05)
(-0.000603034 0.000840423 -1.98604e-05)
(-0.000435324 0.00021517 -7.50797e-05)
(-0.000136321 0.000130623 -7.16771e-05)
(-0.000173705 0.00020442 -4.99643e-05)
(-0.000138417 0.000196395 -4.10137e-05)
(-0.000107323 0.000174091 -3.32576e-05)
(-7.30755e-05 0.000150752 -2.89613e-05)
(-3.75945e-05 0.000134218 -2.53594e-05)
(-2.02619e-06 0.000124438 -1.7203e-05)
(9.70044e-06 0.000115149 3.29008e-06)
(-6.38038e-06 7.01875e-05 3.7673e-06)
(4.8392e-06 7.65945e-05 -1.1869e-05)
(3.60922e-05 8.33574e-05 -1.79909e-05)
(6.8784e-05 9.57637e-05 -2.01883e-05)
(0.000104446 0.000116693 -2.27798e-05)
(0.000141762 0.000148367 -2.67854e-05)
(0.000176964 0.000193823 -3.23988e-05)
(0.00020278 0.000254975 -3.81684e-05)
(0.000165964 0.000333932 -5.67784e-05)
(0.000169605 0.000382182 -8.84883e-05)
(0.000275078 0.000720531 7.08688e-05)
(0.000311239 0.000919536 3.2123e-05)
(0.000382805 0.00104756 1.88167e-05)
(0.000334583 0.00116166 1.889e-05)
(0.000252934 0.00124261 1.42587e-05)
(0.000157319 0.00129636 9.54701e-06)
(5.78474e-05 0.00132259 7.39742e-06)
(-4.31586e-05 0.00132361 7.40254e-06)
(-0.000142729 0.00129946 9.55508e-06)
(-0.000238649 0.00124786 1.42743e-05)
(-0.000320944 0.00116924 1.89219e-05)
(-0.000370864 0.00105762 1.89303e-05)
(-0.000303259 0.000932016 3.18449e-05)
(-0.000270071 0.00073305 6.93571e-05)
(-0.000165912 0.000394591 -8.57909e-05)
(-0.000158759 0.000348324 -5.80992e-05)
(-0.000186429 0.000269652 -4.17548e-05)
(-0.000151563 0.000210464 -3.7604e-05)
(-0.000105354 0.000169124 -3.34888e-05)
(-5.69828e-05 0.000144084 -2.952e-05)
(-8.82005e-06 0.000130716 -1.95861e-05)
(9.37988e-06 0.000119927 4.66592e-06)
(-6.02758e-06 6.88119e-05 4.62279e-06)
(8.82406e-06 7.52844e-05 -1.31149e-05)
(4.77748e-05 8.20237e-05 -2.01958e-05)
(9.02715e-05 9.4611e-05 -2.28897e-05)
(0.000140553 0.000116099 -2.62563e-05)
(0.000202155 0.000149313 -3.14939e-05)
(0.000280521 0.000198895 -3.87785e-05)
(0.000389292 0.000270686 -4.50415e-05)
(0.000520295 0.000374617 -4.8746e-05)
(0.000784123 0.000520589 -3.11569e-05)
(0.000811719 0.000146161 5.06875e-05)
(0.000627148 0.000308331 6.97879e-05)
(0.000695217 0.000679682 0.000129867)
(0.000625968 0.000890383 0.000185662)
(0.000500382 0.00103988 0.000217008)
(0.000358012 0.0011391 0.000226892)
(0.000215749 0.00120025 0.000228127)
(7.70897e-05 0.00122929 0.000227859)
(-5.99525e-05 0.00123025 0.000227924)
(-0.000198542 0.00120319 0.000228321)
(-0.000340681 0.00114417 0.000227238)
(-0.000482823 0.00104737 0.000217619)
(-0.000608244 0.000900712 0.000186842)
(-0.000677475 0.000693366 0.000131714)
(-0.000607664 0.000324828 7.292e-05)
(-0.000799725 0.000149523 5.33565e-05)
(-0.000779046 0.000523526 -3.02038e-05)
(-0.000509889 0.000383835 -5.05045e-05)
(-0.000372284 0.000282877 -4.89759e-05)
(-0.000253859 0.000214224 -4.49423e-05)
(-0.000162477 0.00016925 -3.96241e-05)
(-8.69659e-05 0.000142924 -3.46726e-05)
(-2.02143e-05 0.000129276 -2.27594e-05)
(7.20457e-06 0.000118208 6.42647e-06)
(-5.84517e-06 6.44946e-05 5.47957e-06)
(1.20828e-05 7.05103e-05 -1.43205e-05)
(5.75475e-05 7.62623e-05 -2.22939e-05)
(0.000107781 8.67894e-05 -2.54599e-05)
(0.000168191 0.000104131 -2.95272e-05)
(0.000243553 0.000129217 -3.58851e-05)
(0.000340215 0.000162153 -4.45256e-05)
(0.000469771 0.000200294 -5.2561e-05)
(0.000625594 0.000232848 -5.59358e-05)
(0.000856635 0.000249318 -4.36566e-05)
(0.000965331 0.000123379 -1.72814e-05)
(0.000942493 0.000310073 2.9476e-05)
(0.000916172 0.00050284 0.000139923)
(0.000784675 0.000644868 0.000212304)
(0.000618057 0.00075477 0.000249515)
(0.000436248 0.000828205 0.000264498)
(0.000260489 0.000874465 0.000268121)
(9.20937e-05 0.000896785 0.000268674)
(-7.30565e-05 0.000897579 0.000268738)
(-0.000241326 0.000876861 0.000268315)
(-0.000416854 0.000832244 0.000264854)
(-0.000598285 0.00076048 0.000250158)
(-0.000764816 0.000652201 0.000213592)
(-0.000896605 0.000511196 0.000142073)
(-0.000923745 0.000318362 3.33106e-05)
(-0.000952022 0.000126715 -1.48012e-05)
(-0.000847975 0.000256308 -4.33003e-05)
(-0.000614799 0.000242121 -5.80109e-05)
(-0.000452264 0.000211807 -5.70396e-05)
(-0.000311927 0.000176657 -5.15898e-05)
(-0.000200276 0.000148185 -4.52814e-05)
(-0.000108342 0.000129595 -3.93667e-05)
(-2.78404e-05 0.000119432 -2.55846e-05)
(6.43695e-06 0.000109941 7.89974e-06)
(-5.74637e-06 5.78664e-05 6.2859e-06)
(1.47622e-05 6.31418e-05 -1.53323e-05)
(6.57404e-05 6.77625e-05 -2.40838e-05)
(0.000122221 7.59977e-05 -2.76406e-05)
(0.000190218 8.92186e-05 -3.23062e-05)
(0.000274692 0.000107587 -3.97632e-05)
(0.00038192 0.000130175 -5.02e-05)
(0.000521055 0.000154861 -6.16811e-05)
(0.000684781 0.000175084 -7.02294e-05)
(0.000882613 0.000191555 -6.84022e-05)
(0.00101649 0.000159693 -4.94392e-05)
(0.00107576 0.000249524 1.11598e-05)
(0.00104501 0.000365273 0.0001258)
(0.000891245 0.000461251 0.000196235)
(0.000697225 0.000536765 0.000231973)
(0.000488074 0.000586436 0.000241313)
(0.000290375 0.00061811 0.000241141)
(0.000102171 0.000633404 0.000239762)
(-8.16401e-05 0.000634053 0.000239792)
(-0.000269696 0.000620056 0.000241228)
(-0.000467134 0.000589674 0.000241491)
(-0.000675891 0.00054126 0.000232363)
(-0.00086996 0.000466922 0.000197217)
(-0.00102429 0.000371768 0.000127637)
(-0.00105794 0.000256535 1.47111e-05)
(-0.00100399 0.000164789 -4.73174e-05)
(-0.000872793 0.000198019 -6.79755e-05)
(-0.000672869 0.000183353 -7.23586e-05)
(-0.00050216 0.000165319 -6.64436e-05)
(-0.000351391 0.000143499 -5.78705e-05)
(-0.000227525 0.000125041 -5.00665e-05)
(-0.000124289 0.000112429 -4.31554e-05)
(-3.32432e-05 0.000105275 -2.77507e-05)
(6.145e-06 9.73051e-05 9.30031e-06)
(-5.86264e-06 4.93395e-05 6.94741e-06)
(1.64805e-05 5.36834e-05 -1.61315e-05)
(7.15096e-05 5.70615e-05 -2.55176e-05)
(0.000132198 6.28839e-05 -2.93752e-05)
(0.000204726 7.19947e-05 -3.44849e-05)
(0.000293728 8.41488e-05 -4.27618e-05)
(0.000405262 9.82115e-05 -5.45282e-05)
(0.000546682 0.000112864 -6.82344e-05)
(0.000712005 0.00012436 -7.95664e-05)
(0.000899036 0.000136602 -8.10028e-05)
(0.00104968 0.000137308 -6.20552e-05)
(0.00114839 0.000191899 -4.69754e-06)
(0.00111964 0.000263185 0.000107227)
(0.000953178 0.000322788 0.000170589)
(0.000744723 0.000370496 0.000200675)
(0.00052037 0.000402845 0.00020437)
(0.000309514 0.000423937 0.000200784)
(0.000108766 0.000434294 0.000197692)
(-8.70412e-05 0.000434857 0.000197688)
(-0.000287663 0.000425612 0.000200769)
(-0.000498312 0.000405584 0.000204372)
(-0.000722359 0.000374209 0.000200809)
(-0.000931056 0.00032736 0.000171253)
(-0.0010983 0.000268352 0.00010873)
(-0.00113075 0.000197518 -1.38818e-06)
(-0.00103711 0.00014253 -6.00907e-05)
(-0.000888229 0.000142883 -8.07057e-05)
(-0.00069894 0.000131976 -8.18293e-05)
(-0.000526219 0.000122285 -7.32495e-05)
(-0.000372358 0.000110106 -6.26414e-05)
(-0.000242841 9.95537e-05 -5.36995e-05)
(-0.000133413 9.21252e-05 -4.60001e-05)
(-3.57253e-05 8.77412e-05 -2.93275e-05)
(6.61417e-06 8.14811e-05 1.03785e-05)
(-6.04057e-06 3.95805e-05 7.46409e-06)
(1.75707e-05 4.29787e-05 -1.67332e-05)
(7.55154e-05 4.53366e-05 -2.66028e-05)
(0.00013908 4.92853e-05 -3.06767e-05)
(0.000214479 5.54008e-05 -3.60978e-05)
(0.000306007 6.34431e-05 -4.49503e-05)
(0.000419626 7.26283e-05 -5.76494e-05)
(0.000561766 8.24026e-05 -7.28115e-05)
(0.00072798 9.10754e-05 -8.58558e-05)
(0.000913251 0.000102148 -8.91061e-05)
(0.00107487 0.000112545 -6.9938e-05)
(0.00119234 0.000147671 -1.40311e-05)
(0.00116559 0.000191703 9.60941e-05)
(0.0009929 0.000230112 0.000155165)
(0.00077563 0.000261284 0.000181485)
(0.000541635 0.00028289 0.000181646)
(0.000322249 0.000297146 0.000175851)
(0.000113273 0.000304284 0.000171668)
(-9.0467e-05 0.00030482 0.000171648)
(-0.000299356 0.000298731 0.000175783)
(-0.000518617 0.000285455 0.000181556)
(-0.000752424 0.000264713 0.000181482)
(-0.00097012 0.000234267 0.000155656)
(-0.0011438 0.000196375 9.74205e-05)
(-0.00117461 0.000152768 -1.08872e-05)
(-0.00106201 0.00011766 -6.80841e-05)
(-0.000901672 0.000107972 -8.88926e-05)
(-0.000713885 9.78373e-05 -8.82348e-05)
(-0.00053982 9.05502e-05 -7.80176e-05)
(-0.000384555 8.27214e-05 -6.60718e-05)
(-0.00025192 7.62684e-05 -5.63162e-05)
(-0.000138779 7.18058e-05 -4.80402e-05)
(-3.68091e-05 6.90992e-05 -3.04391e-05)
(7.22345e-06 6.42951e-05 1.11942e-05)
(-6.24497e-06 2.90204e-05 7.81546e-06)
(1.81597e-05 3.14408e-05 -1.71717e-05)
(7.80278e-05 3.29316e-05 -2.73811e-05)
(0.000143419 3.53673e-05 -3.15964e-05)
(0.000220554 3.91525e-05 -3.72094e-05)
(0.000313511 4.41645e-05 -4.64071e-05)
(0.000428309 5.00167e-05 -5.9648e-05)
(0.000571097 5.66194e-05 -7.55936e-05)
(0.000738695 6.345e-05 -8.95048e-05)
(0.000925327 7.28796e-05 -9.35228e-05)
(0.00109365 8.41291e-05 -7.44621e-05)
(0.00122058 0.000106702 -1.92728e-05)
(0.00119507 0.000134038 9.09293e-05)
(0.00101852 0.000158306 0.00014837)
(0.000795798 0.000178164 0.000173017)
(0.000555826 0.000192365 0.000171585)
(0.000330906 0.000201895 0.000164804)
(0.000116471 0.000206821 0.000160138)
(-9.26087e-05 0.000207369 0.000160113)
(-0.000307013 0.000203509 0.000164721)
(-0.000531916 0.000194951 0.000171466)
(-0.00077185 0.000181575 0.00017297)
(-0.000995182 0.000162358 0.000148798)
(-0.00117287 0.000138523 9.21938e-05)
(-0.00120266 0.000111489 -1.60785e-05)
(-0.00108054 8.8966e-05 -7.26817e-05)
(-0.000913202 7.81036e-05 -9.3405e-05)
(-0.000723809 6.9243e-05 -9.20086e-05)
(-0.000547988 6.33213e-05 -8.09712e-05)
(-0.000391558 5.8036e-05 -6.83117e-05)
(-0.000257017 5.40375e-05 -5.80838e-05)
(-0.000141665 5.14171e-05 -4.94493e-05)
(-3.7083e-05 4.98146e-05 -3.12265e-05)
(7.83896e-06 4.64281e-05 1.17111e-05)
(-6.40529e-06 1.80648e-05 8.01288e-06)
(1.84426e-05 1.95134e-05 -1.74679e-05)
(7.94469e-05 2.02794e-05 -2.78854e-05)
(0.000145927 2.15052e-05 -3.21821e-05)
(0.000224128 2.34747e-05 -3.78999e-05)
(0.000318039 2.62217e-05 -4.72821e-05)
(0.000433766 2.97104e-05 -6.08072e-05)
(0.000577418 3.40769e-05 -7.71426e-05)
(0.000746466 3.93643e-05 -9.14689e-05)
(0.000934887 4.65844e-05 -9.58025e-05)
(0.001107 5.55902e-05 -7.67469e-05)
(0.00123835 6.88942e-05 -2.1553e-05)
(0.00121335 8.39098e-05 8.92317e-05)
(0.00103453 9.75019e-05 0.000146439)
(0.000808545 0.000108697 0.000170644)
(0.00056498 0.00011703 0.000168711)
(0.000336602 0.000122741 0.000161607)
(0.00011873 0.000125871 0.000156783)
(-9.37578e-05 0.000126465 0.00015676)
(-0.000311669 0.000124487 0.000161528)
(-0.000540167 0.000119804 0.000168596)
(-0.000783888 0.000112316 0.000170598)
(-0.00101072 0.000101713 0.00014686)
(-0.00119089 8.84486e-05 9.04732e-05)
(-0.00122035 7.35188e-05 -1.843e-05)
(-0.00109378 6.01256e-05 -7.50427e-05)
(-0.000922501 5.11826e-05 -9.57801e-05)
(-0.000731142 4.41398e-05 -9.40944e-05)
(-0.000553614 3.92491e-05 -8.26726e-05)
(-0.000395982 3.55142e-05 -6.96634e-05)
(-0.000260064 3.29546e-05 -5.91896e-05)
(-0.000143297 3.14152e-05 -5.0358e-05)
(-3.71515e-05 3.05005e-05 -3.1762e-05)
(8.25861e-06 2.84449e-05 1.19919e-05)
(-6.50274e-06 6.9928e-06 8.05737e-06)
(1.84892e-05 7.46013e-06 -1.76356e-05)
(7.99218e-05 7.53413e-06 -2.81368e-05)
(0.000146861 7.62545e-06 -3.24617e-05)
(0.000225598 7.90373e-06 -3.821e-05)
(0.000320145 8.54388e-06 -4.76444e-05)
(0.000436673 9.83816e-06 -6.12442e-05)
(0.000581348 1.20773e-05 -7.76727e-05)
(0.000751696 1.56953e-05 -9.20983e-05)
(0.000941536 2.05019e-05 -9.65023e-05)
(0.00111505 2.66395e-05 -7.74654e-05)
(0.00124728 3.18756e-05 -2.21857e-05)
(0.00122205 3.59321e-05 8.90342e-05)
(0.00104217 3.97613e-05 0.000146537)
(0.000814748 4.29083e-05 0.000170873)
(0.000569645 4.57104e-05 0.000168987)
(0.000339666 4.78242e-05 0.00016189)
(0.000120176 4.92736e-05 0.000157067)
(-9.39755e-05 4.99454e-05 0.000157047)
(-0.000313595 4.97959e-05 0.000161816)
(-0.000543865 4.88283e-05 0.000168877)
(-0.000789378 4.69435e-05 0.000170831)
(-0.00101794 4.43726e-05 0.000146951)
(-0.00119948 4.07691e-05 9.02511e-05)
(-0.00122938 3.65521e-05 -1.91354e-05)
(-0.00110198 3.09516e-05 -7.58529e-05)
(-0.000929207 2.4531e-05 -9.65945e-05)
(-0.000736333 1.94939e-05 -9.48566e-05)
(-0.00055738 1.57428e-05 -8.33521e-05)
(-0.000398582 1.34402e-05 -7.02634e-05)
(-0.000261676 1.21365e-05 -5.97272e-05)
(-0.000144088 1.15205e-05 -5.08356e-05)
(-3.72044e-05 1.12132e-05 -3.20857e-05)
(8.44254e-06 1.05021e-05 1.20523e-05)
(-6.53856e-06 -3.90116e-06 7.95022e-06)
(1.8297e-05 -4.41571e-06 -1.76766e-05)
(7.94494e-05 -5.07305e-06 -2.81386e-05)
(0.000146216 -6.20176e-06 -3.24413e-05)
(0.000224944 -7.765e-06 -3.81551e-05)
(0.000319787 -9.4537e-06 -4.75138e-05)
(0.000436975 -1.06396e-05 -6.09928e-05)
(0.000582796 -1.07972e-05 -7.72344e-05)
(0.000754322 -8.8675e-06 -9.14431e-05)
(0.000945338 -6.13662e-06 -9.56837e-05)
(0.00111814 -1.6804e-06 -7.67155e-05)
(0.0012477 -4.18098e-06 -2.13876e-05)
(0.00122131 -1.17834e-05 9.00452e-05)
(0.00104148 -1.83267e-05 0.000148262)
(0.000814421 -2.37636e-05 0.000173221)
(0.000569834 -2.67718e-05 0.00017187)
(0.000340118 -2.84142e-05 0.000165075)
(0.000120834 -2.86836e-05 0.0001604)
(-9.32265e-05 -2.7882e-05 0.00016038)
(-0.000312748 -2.6058e-05 0.000165009)
(-0.000542964 -2.30507e-05 0.000171765)
(-0.000788277 -1.8956e-05 0.000173169)
(-0.00101686 -1.29016e-05 0.000148637)
(-0.00119876 -6.22217e-06 9.11873e-05)
(-0.00123015 8.89975e-07 -1.84625e-05)
(-0.00110549 2.62315e-06 -7.52438e-05)
(-0.000933401 -2.46825e-06 -9.5932e-05)
(-0.000739338 -5.8272e-06 -9.43564e-05)
(-0.0005592 -8.40142e-06 -8.30558e-05)
(-0.000399295 -9.00935e-06 -7.01432e-05)
(-0.000261817 -8.78137e-06 -5.97166e-05)
(-0.000144017 -8.26614e-06 -5.08949e-05)
(-3.7227e-05 -7.85293e-06 -3.22052e-05)
(8.39997e-06 -7.20533e-06 1.18942e-05)
(-6.53572e-06 -1.43274e-05 7.68816e-06)
(1.7794e-05 -1.58409e-05 -1.75829e-05)
(7.78779e-05 -1.73713e-05 -2.78779e-05)
(0.000143714 -2.0021e-05 -3.2102e-05)
(0.00022172 -2.39544e-05 -3.76975e-05)
(0.000316303 -2.87872e-05 -4.68354e-05)
(0.000433788 -3.35524e-05 -5.99554e-05)
(0.000580902 -3.72694e-05 -7.56522e-05)
(0.000753777 -3.75637e-05 -8.92494e-05)
(0.000946727 -3.62525e-05 -9.29375e-05)
(0.00111678 -2.96794e-05 -7.39783e-05)
(0.00123873 -4.05469e-05 -1.82477e-05)
(0.00120966 -6.32597e-05 9.36268e-05)
(0.00103126 -8.33308e-05 0.000153647)
(0.000806693 -9.99547e-05 0.000180262)
(0.000565051 -0.000110239 0.000180423)
(0.000337713 -0.00011645 0.000174512)
(0.000120681 -0.000118737 0.000170249)
(-9.13452e-05 -0.00011773 0.000170211)
(-0.000308742 -0.000113477 0.000174383)
(-0.000536832 -0.000105526 0.000180209)
(-0.00077961 -9.38225e-05 0.000180055)
(-0.00100621 -7.64324e-05 0.000153816)
(-0.0011873 -5.62682e-05 9.45334e-05)
(-0.00122185 -3.45506e-05 -1.55795e-05)
(-0.00110484 -2.50784e-05 -7.27458e-05)
(-0.000935453 -3.26065e-05 -9.34426e-05)
(-0.000739515 -3.49014e-05 -9.23952e-05)
(-0.000558173 -3.57172e-05 -8.16646e-05)
(-0.000397231 -3.34555e-05 -6.92341e-05)
(-0.000259807 -3.06007e-05 -5.91088e-05)
(-0.00014265 -2.81709e-05 -5.04966e-05)
(-3.70123e-05 -2.66094e-05 -3.20986e-05)
(8.18337e-06 -2.44901e-05 1.15013e-05)
(-6.56467e-06 -2.38682e-05 7.26073e-06)
(1.67917e-05 -2.63442e-05 -1.73397e-05)
(7.48246e-05 -2.88701e-05 -2.73321e-05)
(0.000138663 -3.33423e-05 -3.14108e-05)
(0.000214745 -4.02273e-05 -3.67816e-05)
(0.000307831 -4.92167e-05 -4.5488e-05)
(0.000424487 -5.9106e-05 -5.78932e-05)
(0.000572576 -6.83001e-05 -7.24341e-05)
(0.000747372 -7.22618e-05 -8.46599e-05)
(0.000945935 -7.24377e-05 -8.68412e-05)
(0.00111118 -5.4527e-05 -6.82287e-05)
(0.0012166 -7.55234e-05 -1.16835e-05)
(0.00118203 -0.00012264 0.000101472)
(0.00100693 -0.00016243 0.000165233)
(0.000788219 -0.000194811 0.00019516)
(0.00055334 -0.00021515 0.000198501)
(0.000331451 -0.000227594 0.000194513)
(0.000119465 -0.000232598 0.000191162)
(-8.79308e-05 -0.000231266 0.000191072)
(-0.000300421 -0.000223628 0.000194224)
(-0.00052333 -0.000208793 0.000198009)
(-0.000759847 -0.000186383 0.000194564)
(-0.000981263 -0.000152854 0.000164918)
(-0.00115999 -0.00011285 0.000101857)
(-0.00120084 -6.75128e-05 -9.61196e-06)
(-0.00110027 -4.90994e-05 -6.74066e-05)
(-0.000935485 -6.81755e-05 -8.77814e-05)
(-0.000734096 -6.93091e-05 -8.81687e-05)
(-0.000551118 -6.69255e-05 -7.87022e-05)
(-0.000389668 -5.98699e-05 -6.7292e-05)
(-0.000253719 -5.28511e-05 -5.77603e-05)
(-0.00013879 -4.7522e-05 -4.95442e-05)
(-3.59691e-05 -4.43275e-05 -3.17144e-05)
(7.99985e-06 -4.07159e-05 1.08115e-05)
(-6.64792e-06 -3.20972e-05 6.69124e-06)