/*--------------------------------*- C++ -*----------------------------------*\
| =========                 |                                                 |
| \\      /  F ield         | OpenFOAM: The Open Source CFD Toolbox           |
|  \\    /   O peration     | Version:  2112                                  |
|   \\  /    A nd           | Website:  www.openfoam.com                      |
|    \\/     M anipulation  |                                                 |
\*---------------------------------------------------------------------------*/
FoamFile
{
    version     2.0;
    format      ascii;
    arch        "LSB;label=32;scalar=64";
    class       volScalarField;
    location    "4.8";
    object      epsilon;
}
// * * * * * * * * * * * * * * * * * * * * * * * * * * * * * * * * * * * * * //

dimensions      [0 2 -3 0 0 0 0];

internalField   nonuniform List<scalar> 
64906
(
8.15744e-05
9.88746e-05
0.000110788
0.000117292
0.000120614
0.000122229
0.000122965
0.000123267
0.000123363
0.000123364
0.000123325
0.000123274
0.000123232
0.000123203
0.000123183
0.000123167
0.000123155
0.000123146
0.000123144
0.000123149
0.000123159
0.000123173
0.000123191
0.000123213
0.000123239
0.000123243
0.000123165
0.00012289
0.000122181
0.000120588
0.000117281
0.000110787
9.88815e-05
8.15814e-05
9.8892e-05
0.000190063
0.000249481
0.000284337
0.000304166
0.000314915
0.000320323
0.000322715
0.00032349
0.000323463
0.000323102
0.000322671
0.000322306
0.000322051
0.000321896
0.000321804
0.000321751
0.000321727
0.000321727
0.000321751
0.0003218
0.000321883
0.000322012
0.000322193
0.000322366
0.000322335
0.000321652
0.000319468
0.000314316
0.000303808
0.000284166
0.000249428
0.000190067
9.89138e-05
0.000110831
0.000249522
0.000343487
0.000401073
0.000435292
0.000454593
0.000464568
0.000468922
0.000470054
0.000469503
0.000468256
0.000466934
0.000465865
0.000465152
0.000464733
0.000464495
0.000464362
0.000464303
0.000464305
0.000464366
0.000464495
0.000464713
0.000465068
0.000465607
0.000466242
0.000466564
0.000465659
0.000461893
0.000452668
0.00043409
0.000400444
0.000343236
0.000249484
0.000110868
0.000117354
0.000284428
0.000401126
0.000474845
0.000519838
0.000545676
0.000558933
0.000564168
0.000564542
0.000562288
0.000559029
0.000555894
0.00055347
0.000551913
0.000551026
0.000550515
0.000550221
0.000550086
0.000550089
0.000550227
0.000550514
0.000550991
0.000551774
0.000553052
0.000554799
0.00055641
0.000556489
0.000552571
0.000541031
0.000516861
0.00047321
0.000400406
0.000284245
0.000117397
0.000120688
0.0003043
0.000435418
0.000519943
0.000572276
0.000602292
0.000616931
0.000621193
0.0006188
0.00061274
0.000605539
0.000599141
0.00059444
0.000591594
0.000590059
0.000589145
0.00058859
0.000588328
0.000588332
0.000588598
0.000589145
0.000590015
0.000591415
0.0005939
0.000597726
0.000602169
0.00060535
0.00060376
0.000592637
0.000566025
0.000516426
0.000433788
0.000303806
0.000120718
0.000122309
0.000315095
0.000454836
0.000545993
0.000602596
0.000634298
0.000647932
0.000648548
0.000640257
0.000627021
0.000612922
0.00060143
0.000593518
0.000589148
0.000587014
0.000585623
0.000584702
0.000584256
0.000584261
0.000584713
0.000585627
0.000586973
0.000588962
0.000592932
0.000599853
0.000609105
0.000618583
0.000623091
0.000616183
0.000590876
0.000539339
0.000451668
0.000314047
0.0001223
0.00012305
0.00032057
0.000465028
0.000559695
0.000617981
0.000648947
0.000658847
0.000652303
0.000633531
0.000607884
0.000582635
0.000564793
0.000553691
0.000548448
0.000546388
0.000544597
0.000543257
0.000542602
0.000542608
0.000543272
0.00054461
0.000546365
0.000548294
0.000553157
0.000563263
0.000578754
0.000599025
0.000615212
0.000617636
0.000597957
0.000548347
0.000459559
0.000318669
0.000122967
0.000123362
0.000323081
0.00046978
0.000565794
0.000623794
0.000651932
0.000655341
0.000637397
0.000601571
0.000554878
0.000511736
0.000490437
0.000479896
0.000476549
0.000476271
0.000474461
0.000472863
0.000472098
0.000472105
0.000472881
0.000474484
0.000476276
0.00047646
0.000479506
0.000489182
0.000508241
0.000546269
0.000582994
0.000601669
0.000592392
0.000548205
0.000461286
0.000320042
0.000123166
0.000123475
0.000324066
0.000471581
0.000567659
0.000624182
0.000648156
0.000642949
0.000609261
0.000547158
0.000462741
0.00038627
0.000380135
0.000383676
0.000388287
0.0003921
0.000391208
0.000390031
0.000389484
0.000389491
0.000390051
0.000391238
0.00039213
0.000388272
0.00038349
0.000379378
0.000383765
0.000455167
0.000529096
0.000573363
0.000579132
0.000542923
0.000459697
0.000319754
0.000123144
0.000123501
0.000324358
0.000472033
0.000567676
0.000622475
0.000642274
0.00062827
0.000576674
0.000477846
0.000322925
0.000177731
0.000239734
0.000285095
0.000304693
0.000313095
0.000314418
0.000314501
0.000314465
0.000314471
0.000314519
0.000314448
0.000313138
0.000304735
0.000285104
0.000239622
0.000177014
0.000317465
0.000460904
0.000541091
0.000564219
0.000536418
0.000457137
0.000318922
0.000123044
0.000123497
0.000324423
0.000472113
0.000567448
0.000621217
0.000638578
0.000619288
0.000555484
0.000424055
0.000189
0.000141956
0.000218873
0.000247782
0.00025704
0.000260365
0.000261406
0.00026167
0.000261674
0.000261418
0.000260386
0.000257073
0.000247832
0.000218937
0.00014198
0.000186619
0.000408393
0.000520252
0.000555204
0.000532472
0.000455513
0.000318354
0.000122962
0.000123486
0.00032448
0.000472303
0.000567792
0.00062176
0.000639628
0.000622216
0.000565561
0.000460743
0.000301582
0.000163556
0.000196041
0.000229332
0.000243122
0.000246524
0.000250082
0.000251298
0.000251547
0.000251547
0.000251298
0.000250083
0.000246521
0.000243115
0.000229297
0.000195848
0.000162782
0.000296213
0.000443927
0.000529983
0.000557942
0.000533309
0.000455791
0.000318431
0.000122936
0.000123479
0.000324592
0.000472708
0.000568749
0.000623793
0.000643907
0.000631479
0.000586402
0.000508639
0.000405524
0.000310505
0.000274378
0.000255954
0.000249149
0.000246485
0.000246758
0.000246976
0.000246996
0.000246994
0.000246967
0.000246741
0.00024645
0.000249076
0.000255758
0.000273724
0.000308249
0.00039836
0.000490881
0.000550391
0.000566955
0.000537358
0.000457551
0.000319045
0.000122992
0.000123476
0.000324739
0.00047323
0.000569998
0.000626417
0.000649135
0.00064162
0.000605662
0.000543815
0.000463695
0.000382534
0.000320344
0.000276993
0.000257346
0.000249973
0.000247745
0.000247067
0.000246849
0.000246844
0.00024705
0.000247715
0.000249918
0.000257235
0.000276712
0.000319461
0.000379639
0.000455713
0.000525437
0.000569238
0.000576791
0.000542301
0.000459847
0.000319876
0.000123067
0.000123472
0.000324879
0.000473734
0.000571187
0.000628841
0.000653706
0.000649765
0.000619398
0.000565335
0.000493498
0.000415061
0.000343492
0.000289441
0.000263299
0.000253063
0.000249506
0.000248317
0.000247938
0.00024793
0.000248293
0.000249466
0.000252997
0.00026317
0.000289124
0.000342509
0.0004119
0.000485126
0.000546568
0.000582637
0.000584636
0.000546571
0.00046193
0.000320646
0.000123127
0.000123465
0.000324986
0.000474133
0.000572116
0.00063068
0.000657019
0.000655298
0.000627955
0.00057739
0.00050838
0.000429996
0.000354469
0.000295811
0.000266658
0.000254965
0.000250764
0.000249314
0.00024883
0.000248818
0.000249283
0.000250717
0.000254893
0.000266522
0.000295477
0.000353436
0.00042671
0.000499801
0.000558375
0.000590936
0.000589909
0.000549613
0.000463466
0.000321212
0.00012316
0.000123456
0.00032505
0.000474396
0.000572723
0.000631853
0.00065906
0.000658545
0.000632675
0.000583568
0.000515435
0.000436672
0.000359368
0.000298722
0.000268256
0.0002559
0.000251405
0.000249822
0.000249264
0.000249247
0.000249785
0.000251353
0.000255823
0.000268115
0.00029838
0.000358295
0.000433323
0.000506744
0.000564404
0.000595485
0.000592971
0.000551453
0.000464417
0.000321556
0.000123169
0.000123444
0.000325074
0.000474527
0.000573023
0.000632424
0.000660027
0.000660033
0.000634753
0.000586165
0.000518259
0.000439244
0.000361252
0.000299837
0.000268873
0.000256259
0.000251644
0.000249997
0.000249386
0.000249364
0.000249954
0.000251588
0.000256179
0.00026873
0.00029949
0.000360144
0.000435869
0.000509519
0.00056693
0.000597477
0.000594362
0.000552313
0.000464867
0.00032171
0.000123161
0.000123434
0.000325066
0.000474535
0.000573042
0.000632453
0.000660069
0.00066009
0.000634828
0.000586256
0.000518363
0.000439351
0.00036135
0.000299907
0.000268913
0.000256275
0.000251641
0.000249973
0.000249331
0.000249304
0.000249925
0.000251582
0.000256193
0.000268768
0.00029956
0.000360236
0.000435978
0.000509626
0.000567024
0.000597553
0.000594419
0.000552352
0.000464889
0.000321706
0.000123145
0.000123431
0.000325031
0.00047442
0.000572776
0.000631938
0.000659182
0.000658712
0.000632895
0.000583841
0.00051575
0.000437005
0.00035967
0.00029894
0.000268382
0.000255952
0.000251401
0.000249758
0.000249118
0.000249088
0.000249707
0.000251339
0.00025587
0.00026824
0.000298601
0.000358582
0.00043367
0.000507072
0.000564686
0.000595709
0.000593137
0.000551568
0.000464481
0.000321551
0.000123128
0.000123434
0.000324965
0.000474168
0.000572193
0.000630804
0.000657203
0.000655558
0.00062831
0.000577849
0.000508929
0.000430595
0.000354976
0.000296203
0.000266888
0.000255067
0.000250769
0.000249224
0.000248635
0.000248608
0.000249173
0.000250708
0.000254986
0.000266752
0.00029588
0.000353955
0.000427341
0.000500375
0.000558849
0.000591296
0.000590169
0.000549789
0.000463565
0.000321214
0.000123109
0.000123439
0.000324856
0.000473764
0.000571258
0.000628961
0.000653899
0.000650066
0.000619848
0.000565967
0.000494314
0.000416005
0.000344288
0.00029004
0.000263636
0.000253208
0.000249509
0.000248199
0.000247718
0.000247696
0.000248151
0.000249449
0.000253131
0.000263512
0.000289751
0.000343354
0.000412909
0.000485987
0.000547215
0.000583082
0.000584932
0.000546764
0.00046204
0.000320653
0.000123071
0.00012344
0.000324696
0.000473207
0.000569982
0.000626423
0.000649205
0.000641822
0.000606088
0.000544564
0.000464817
0.000383918
0.00032153
0.000277745
0.000257664
0.00025001
0.000247581
0.000246764
0.000246461
0.000246445
0.000246722
0.000247523
0.000249935
0.00025755
0.000277505
0.000320748
0.000381144
0.000456907
0.000526168
0.000569609
0.000576966
0.000542393
0.000459898
0.000319866
0.000123006
0.000123438
0.000324482
0.000472518
0.000568457
0.000623424
0.000643533
0.000631223
0.000586448
0.000509237
0.000406846
0.000312352
0.000275918
0.000256344
0.000248777
0.000245688
0.000245661
0.000245721
0.000245667
0.000245653
0.000245678
0.000245587
0.000245571
0.00024861
0.000256117
0.000275417
0.000310282
0.000399757
0.000491307
0.000550207
0.000566593
0.000537056
0.000457375
0.000318947
0.000122921
0.000123427
0.000324183
0.000471678
0.000566801
0.00062045
0.000638118
0.000620707
0.000564405
0.000460503
0.00030281
0.000164371
0.000196216
0.000227118
0.000239512
0.000242079
0.000245172
0.000246208
0.000246387
0.000246366
0.000246134
0.000245006
0.000241744
0.000238977
0.000226511
0.000195929
0.000163587
0.000297404
0.000443006
0.00052812
0.000556132
0.000531986
0.000455021
0.000318085
0.000122848
0.000123391
0.000323665
0.000470475
0.000564881
0.000617811
0.000634501
0.000614771
0.000550931
0.000420437
0.000187856
0.000137387
0.000207705
0.000232845
0.000239717
0.000242244
0.00024307
0.000243258
0.000243206
0.000242869
0.00024174
0.000238608
0.000230808
0.000204868
0.000135543
0.000184332
0.000402369
0.000513789
0.000549979
0.000528867
0.000453412
0.000317441
0.000122812
0.000123275
0.000322553
0.000468223
0.000561859
0.000614864
0.000633138
0.000617849
0.000565209
0.000465957
0.000312369
0.000170811
0.000216267
0.000250305
0.000260174
0.000261909
0.000261854
0.000261822
0.000261791
0.00026169
0.000261404
0.000260688
0.000259052
0.000254197
0.000240393
0.000206035
0.000165255
0.000299493
0.000442266
0.000525488
0.00055256
0.000528473
0.000452398
0.000316811
0.000122748
0.000122972
0.000320046
0.000463431
0.000555593
0.000608698
0.00062971
0.000621681
0.000584761
0.000518412
0.000428124
0.000342902
0.000317833
0.000301136
0.000285178
0.000276453
0.000272859
0.000271647
0.000271267
0.000271116
0.000270983
0.000270854
0.000271067
0.000272553
0.000277449
0.000290068
0.000316823
0.000401087
0.00048702
0.000541926
0.00055645
0.000527341
0.000450078
0.000315266
0.000122554
0.000122244
0.000314684
0.00045353
0.000542519
0.000594638
0.000617827
0.000616516
0.000592882
0.000548745
0.000489076
0.000426193
0.000376392
0.000332058
0.000295715
0.000278315
0.000271709
0.00026951
0.000268843
0.000268662
0.000268686
0.000269094
0.00027084
0.000276769
0.000293615
0.000331637
0.000383831
0.000450947
0.000511603
0.000548659
0.000553335
0.000520309
0.000443181
0.000311074
0.000121956
0.000120644
0.000304055
0.000434569
0.00051751
0.000566486
0.000590059
0.000593368
0.000579279
0.00054964
0.000507038
0.000456361
0.000403873
0.000352293
0.000309548
0.000288802
0.000280738
0.000277976
0.000277126
0.000276922
0.000277045
0.000277777
0.000280364
0.000288274
0.000309241
0.000353502
0.000408894
0.00046584
0.00051208
0.000537507
0.000535685
0.000501313
0.000427244
0.000301608
0.000120475
0.000117331
0.00028435
0.000400744
0.000473509
0.000516349
0.000537908
0.00054345
0.000535903
0.00051676
0.000487177
0.000449107
0.000405944
0.000362384
0.00032615
0.00030683
0.000298685
0.000295675
0.000294691
0.000294463
0.000294657
0.000295597
0.000298555
0.000306704
0.000326193
0.000363266
0.000408201
0.000451687
0.000484898
0.000501093
0.000495408
0.000462887
0.000396163
0.000282923
0.000117256
0.000110826
0.000249572
0.000343457
0.000400617
0.000433728
0.000450675
0.00045621
0.000452915
0.000441896
0.00042366
0.000398982
0.000369835
0.000340007
0.00031517
0.000300789
0.000294163
0.000291583
0.000290716
0.000290517
0.000290702
0.000291551
0.000294114
0.000300755
0.000315267
0.000340436
0.00037058
0.000398996
0.000419778
0.000428522
0.000421628
0.000394795
0.000341134
0.000248939
0.000110821
9.89088e-05
0.000190156
0.000249632
0.000284423
0.000303909
0.00031378
0.000317368
0.000316424
0.000311679
0.000303265
0.000291327
0.000276726
0.000261499
0.000248622
0.00024074
0.000236887
0.000235303
0.000234744
0.000234614
0.000234747
0.000235308
0.000236893
0.000240759
0.000248696
0.000261676
0.00027693
0.000290965
0.000300753
0.000304095
0.000298926
0.000282239
0.000248892
0.000190021
9.89393e-05
8.15967e-05
9.8948e-05
0.000110929
0.00011749
0.000120845
0.000122443
0.000123067
0.000123082
0.000122602
0.000121607
0.000120132
0.000118212
0.000116073
0.000114163
0.000112945
0.000112317
0.000112029
0.000111895
0.000111851
0.000111901
0.000112035
0.000112321
0.000112946
0.000114164
0.000116078
0.000118214
0.000120064
0.0001213
0.000121581
0.000120524
0.000117439
0.000110977
9.90033e-05
8.16277e-05
0.000109917
0.000167555
0.000208475
0.000232674
0.000246236
0.00025345
0.000257013
0.000258565
0.000259061
0.000259039
0.000258799
0.00025851
0.000258259
0.000258076
0.000257955
0.000257877
0.000257829
0.000257805
0.000257803
0.000257824
0.000257869
0.000257939
0.000258043
0.000258179
0.000258309
0.000258305
0.000257874
0.000256454
0.00025305
0.000245985
0.000232538
0.000208415
0.000167538
0.000109923
0.00016756
0.000212761
0.000258393
0.00028798
0.000305468
0.000315115
0.000320013
0.000322185
0.00032288
0.000322833
0.000322474
0.000322047
0.000321682
0.00032142
0.000321253
0.000321152
0.000321093
0.000321066
0.000321066
0.000321093
0.000321149
0.000321242
0.000321382
0.000321572
0.000321756
0.000321749
0.000321139
0.000319159
0.000314502
0.000305085
0.000287783
0.000258326
0.000212771
0.000167546
0.000208507
0.000258409
0.000314291
0.000352324
0.000375759
0.000389143
0.000396081
0.000399101
0.000399874
0.000399473
0.000398586
0.000397641
0.000396865
0.000396327
0.000395994
0.000395796
0.000395682
0.00039563
0.00039563
0.000395682
0.000395791
0.000395973
0.000396259
0.000396671
0.00039714
0.00039738
0.000396757
0.000394136
0.000387718
0.000374845
0.000351827
0.000314088
0.000258378
0.000208457
0.000232738
0.000288022
0.000352352
0.000397317
0.000425708
0.000442187
0.000450658
0.000454003
0.000454253
0.000452843
0.000450807
0.000448841
0.000447308
0.000446289
0.00044568
0.000445323
0.000445117
0.000445022
0.000445022
0.000445117
0.000445316
0.000445648
0.000446187
0.000447022
0.000448116
0.0004491
0.000449093
0.00044654
0.000439131
0.000423705
0.000396179
0.000351825
0.000287853
0.000232603
0.000246336
0.00030554
0.000375834
0.00042577
0.000457684
0.000476168
0.000485214
0.000487889
0.000486519
0.000482962
0.000478757
0.000475023
0.000472278
0.000470549
0.000469562
0.000468992
0.000468656
0.000468496
0.000468496
0.000468656
0.000468984
0.000469522
0.00047042
0.000471918
0.000474111
0.000476626
0.000478333
0.000477149
0.000470152
0.000453699
0.000423445
0.000374678
0.000305079
0.000246012
0.000253589
0.000315229
0.000389298
0.000442384
0.000476354
0.000495571
0.000503913
0.000504459
0.00049977
0.00049228
0.000484393
0.00047795
0.000473577
0.000471018
0.000469642
0.000468869
0.000468387
0.000468145
0.000468146
0.000468387
0.000468862
0.000469602
0.00047088
0.000473178
0.000476921
0.000481967
0.000487011
0.000489171
0.000484604
0.000469082
0.00043809
0.000387083
0.000314256
0.000252931
0.000257204
0.000320197
0.000396389
0.000451139
0.000485849
0.000504509
0.000510662
0.000507172
0.000496737
0.000482655
0.000469021
0.000458995
0.000453111
0.000450047
0.000448507
0.000447736
0.000447177
0.000446866
0.000446867
0.00044718
0.000447732
0.000448475
0.000449922
0.000452721
0.000457942
0.000466459
0.000477004
0.000485332
0.000485893
0.000473612
0.00044391
0.000392593
0.000318444
0.000256031
0.000258834
0.000322494
0.000399689
0.000455025
0.000489444
0.00050642
0.000508902
0.000499173
0.000479769
0.000455259
0.000433455
0.000419282
0.000413767
0.000411636
0.000410491
0.000410437
0.000410107
0.000409819
0.000409821
0.000410113
0.000410441
0.000410476
0.000411546
0.000413441
0.000418311
0.000430907
0.000449444
0.000467892
0.000477005
0.000470466
0.000443912
0.000393823
0.000319711
0.000256974
0.000259455
0.000323396
0.000400929
0.0004562
0.000489703
0.0005043
0.000502071
0.000484175
0.000452243
0.000412532
0.000383512
0.000360832
0.000361615
0.000363948
0.000363671
0.000366264
0.000366973
0.000366954
0.000366957
0.000366982
0.000366276
0.000363677
0.000363912
0.000361411
0.000360069
0.000381031
0.000406631
0.000440062
0.000461442
0.00046279
0.000440675
0.000392754
0.000319466
0.000256819
0.000259623
0.000323658
0.000401221
0.000456185
0.00048867
0.000500954
0.000494173
0.000468036
0.000422786
0.000370113
0.0004224
0.00029137
0.00030718
0.00031905
0.000318753
0.000327155
0.000329842
0.000330315
0.000330319
0.000329854
0.000327175
0.000318774
0.00031907
0.000307138
0.000290921
0.00041848
0.000363665
0.000410198
0.000444871
0.000454361
0.000436688
0.000391003
0.000318716
0.00025629
0.000259635
0.000323706
0.000401244
0.000455995
0.000487874
0.000498837
0.000489542
0.000459348
0.000413041
0.000467641
0.000281485
0.000252943
0.000270231
0.000280083
0.000280857
0.000280803
0.00028079
0.000280792
0.00028081
0.00028087
0.000280105
0.000270264
0.000252978
0.000281411
0.000455276
0.000399705
0.000435866
0.000449438
0.00043424
0.000389848
0.000318174
0.000255896
0.000259634
0.000323742
0.000401333
0.000456143
0.000488092
0.000499207
0.000490343
0.000460877
0.000410459
0.000348273
0.000360709
0.000253306
0.000283903
0.000306312
0.000330082
0.000314263
0.000308806
0.000307735
0.000307732
0.000308796
0.000314245
0.000330073
0.000306288
0.000283819
0.000252849
0.000356926
0.000341838
0.000397822
0.000437527
0.000450209
0.000434501
0.00038992
0.000318182
0.000255877
0.000259663
0.000323831
0.000401571
0.000456683
0.000489226
0.000501524
0.000495036
0.000470199
0.000427732
0.000372444
0.000321653
0.000283349
0.000273793
0.000270903
0.000273375
0.000269273
0.000267559
0.000267141
0.00026714
0.000267555
0.000269265
0.000273361
0.000270846
0.000273589
0.000282619
0.000319263
0.000366567
0.000415365
0.000446994
0.000454959
0.000436811
0.000391009
0.000318683
0.000256186
0.000259714
0.000323957
0.000401898
0.000457421
0.000490754
0.000504526
0.000500705
0.000480499
0.000445358
0.000399051
0.000350218
0.000309002
0.000281945
0.000265561
0.000259366
0.000256606
0.000255639
0.000255367
0.000255365
0.000255632
0.000256592
0.000259332
0.000265467
0.000281662
0.000308138
0.000347769
0.000393152
0.000433019
0.000457331
0.000460646
0.000439801
0.000392504
0.000319397
0.000256631
0.000259766
0.000324085
0.000402222
0.000458139
0.000492196
0.000507232
0.000505501
0.000488516
0.000457797
0.00041621
0.000369349
0.000325104
0.0002911
0.000268666
0.000259044
0.000255596
0.000254498
0.000254193
0.00025419
0.000254489
0.000255577
0.000259001
0.000268554
0.000290781
0.000324169
0.000366805
0.000410223
0.000445399
0.000465307
0.000465404
0.00044246
0.000393894
0.000320076
0.000257046
0.000259804
0.000324187
0.000402481
0.000458702
0.000493299
0.000509221
0.000508843
0.000493736
0.000465276
0.00042574
0.000379529
0.000333651
0.000296636
0.0002715
0.000260375
0.000256385
0.000255122
0.000254773
0.000254769
0.000255112
0.000256365
0.000260328
0.000271381
0.0002963
0.000332676
0.00037692
0.000419676
0.000452802
0.000470457
0.000468678
0.000444381
0.000394929
0.000320586
0.000257347
0.000259822
0.000324253
0.000402652
0.00045907
0.000494002
0.000510451
0.000510825
0.000496675
0.000469242
0.000430489
0.000384373
0.000337659
0.000299315
0.000273006
0.000261224
0.000256965
0.00025561
0.000255232
0.000255228
0.000255599
0.000256943
0.000261175
0.000272882
0.000298971
0.000336662
0.000381726
0.000424372
0.000456707
0.000473333
0.000470596
0.000445548
0.000395572
0.000320904
0.000257523
0.000259823
0.000324284
0.000402736
0.000459249
0.00049434
0.000511029
0.00051173
0.000497973
0.000470924
0.000432422
0.000386276
0.000339209
0.000300354
0.000273604
0.000261573
0.000257207
0.000255812
0.00025542
0.000255415
0.0002558
0.000257184
0.000261523
0.000273478
0.000300005
0.0003382
0.000383612
0.000426279
0.000458356
0.000474594
0.000471464
0.000446087
0.000395873
0.000321051
0.000257594
0.000259813
0.000324283
0.000402738
0.000459255
0.00049435
0.000511045
0.000511753
0.000498005
0.000470965
0.000432472
0.000386333
0.000339265
0.000300401
0.000273634
0.000261588
0.000257213
0.000255813
0.000255415
0.00025541
0.0002558
0.00025719
0.000261537
0.000273509
0.000300053
0.000338255
0.000383669
0.000426329
0.000458398
0.000474625
0.000471485
0.000446101
0.000395881
0.000321053
0.000257581
0.000259794
0.00032425
0.000402659
0.000459086
0.000494031
0.000510496
0.000510892
0.00049677
0.000469368
0.000430645
0.000384549
0.000337832
0.000299462
0.000273102
0.000261274
0.000256988
0.000255617
0.000255227
0.000255221
0.000255604
0.000256965
0.000261225
0.000272981
0.000299121
0.000336838
0.000381907
0.00042453
0.000456831
0.000473423
0.000470657
0.000445586
0.000395593
0.000320909
0.00025749
0.000259765
0.000324182
0.000402488
0.000458722
0.000493336
0.000509286
0.000508945
0.000493888
0.000465489
0.000426013
0.000379847
0.000333964
0.000296903
0.000271675
0.000260467
0.000256433
0.000255145
0.000254779
0.000254773
0.000255133
0.000256412
0.000260422
0.000271561
0.000296579
0.000333002
0.000377251
0.000419953
0.000453008
0.000470597
0.000468767
0.000444435
0.000394958
0.000320594
0.000257302
0.000259718
0.000324073
0.000402217
0.000458142
0.000492217
0.000507285
0.000505607
0.000488701
0.000458087
0.000416616
0.000369848
0.000325597
0.000291497
0.000268899
0.000259143
0.000255632
0.000254503
0.000254181
0.000254177
0.000254493
0.000255613
0.000259103
0.000268797
0.000291202
0.000324693
0.000367327
0.00041063
0.000445666
0.000465461
0.000465484
0.0004425
0.000393912
0.000320078
0.000256989
0.000259646
0.00032392
0.000401847
0.000457357
0.000490689
0.000504484
0.000500724
0.000480631
0.000445665
0.000399578
0.000350922
0.000309679
0.000282352
0.000265638
0.000259201
0.000256366
0.000255365
0.000255078
0.000255074
0.000255354
0.000256342
0.000259154
0.000265538
0.000282091
0.000308865
0.000348505
0.000393653
0.000433248
0.000457376
0.000460608
0.000439745
0.000392461
0.000319367
0.000256548
0.000259545
0.000323722
0.000401392
0.000456428
0.000488911
0.000501188
0.000494737
0.000470032
0.00042783
0.000372945
0.000322526
0.000284003
0.000273605
0.000269999
0.000271973
0.000267806
0.000266053
0.000265614
0.000265607
0.000266028
0.000267749
0.000271866
0.00026982
0.000273306
0.000283291
0.000320147
0.000366911
0.000415203
0.000446588
0.000454527
0.000436464
0.00039078
0.000318553
0.000256033
0.000259391
0.000323447
0.000400835
0.000455424
0.000487173
0.000498139
0.000489204
0.000459791
0.000409637
0.000348002
0.000362278
0.000252418
0.000281298
0.000302482
0.000325472
0.000309411
0.000303838
0.000302745
0.000302738
0.0003038
0.000309289
0.000325226
0.000301956
0.000280538
0.000251399
0.000358385
0.000340875
0.000396174
0.000435817
0.000448766
0.000433443
0.00038924
0.000317803
0.000255556
0.000259093
0.000322968
0.000400022
0.000454249
0.000485636
0.000496166
0.00048649
0.000455947
0.000409186
0.000460411
0.000264804
0.000239574
0.000254018
0.000261737
0.000261724
0.000261487
0.000261441
0.000261398
0.00026131
0.000261245
0.000260625
0.000251826
0.000236037
0.000258415
0.00044317
0.000393449
0.000430993
0.000445768
0.000431663
0.000388197
0.000317238
0.000255201
0.000258401
0.00032194
0.000398461
0.000452332
0.000483794
0.00049513
0.000487385
0.000460076
0.000413025
0.000356286
0.00038759
0.000263141
0.000271901
0.000276385
0.000271522
0.00027745
0.000279652
0.000280093
0.000280005
0.000279274
0.000276355
0.000268759
0.000270539
0.000262122
0.000250367
0.000364306
0.000341317
0.00039528
0.000434047
0.000446551
0.000431244
0.000387452
0.000316636
0.000254812
0.000256784
0.000319638
0.000395119
0.000448318
0.000479925
0.000492766
0.000488679
0.000468346
0.000432591
0.000386201
0.000345389
0.00031016
0.000295537
0.00028376
0.000274639
0.00027316
0.000272922
0.000272801
0.000272663
0.000272308
0.000271298
0.000269712
0.000272895
0.00027793
0.0002889
0.00032367
0.000366725
0.000411928
0.000441225
0.000448187
0.000430293
0.000385745
0.000315172
0.000253781
0.000253248
0.000314765
0.000388216
0.000439938
0.000471176
0.000485316
0.000484883
0.000471392
0.000446213
0.000412335
0.00037608
0.000343048
0.000316179
0.000295832
0.000281307
0.000275402
0.000273423
0.000272813
0.000272634
0.000272611
0.000272853
0.000274307
0.00028019
0.000294241
0.000316221
0.000350002
0.000389142
0.000423521
0.000444054
0.000445776
0.000425589
0.000380839
0.000311321
0.00025095
0.000246103
0.000305222
0.000375063
0.000423968
0.000453777
0.000468319
0.000470543
0.00046231
0.000444924
0.000420032
0.000390376
0.000359268
0.000329849
0.000306647
0.000289891
0.000282415
0.000279716
0.000278858
0.000278649
0.00027878
0.000279517
0.000282058
0.000289497
0.00030651
0.00033102
0.000363163
0.000396093
0.000422441
0.000436513
0.000434497
0.000413267
0.000369687
0.000302795
0.00024451
0.000232609
0.000287856
0.000351913
0.000396207
0.00042317
0.000436897
0.000440507
0.000435924
0.00042423
0.000406266
0.000383234
0.00035708
0.000330778
0.000308772
0.000294036
0.00028701
0.000284259
0.000283324
0.000283103
0.0002833
0.0002842
0.000286914
0.000293968
0.000308929
0.00033161
0.000358854
0.000384925
0.000404526
0.000413711
0.000409476
0.000388824
0.000348333
0.000286321
0.00023164
0.000208461
0.000258368
0.000314129
0.000351802
0.000374399
0.000386082
0.000389897
0.000387651
0.000380209
0.000367989
0.000351523
0.000332036
0.00031195
0.000294864
0.000283652
0.00027803
0.000275693
0.000274859
0.000274661
0.000274858
0.000275689
0.000278026
0.000283682
0.000295025
0.000312389
0.000332691
0.000351537
0.000365116
0.000370593
0.000365561
0.000347223
0.000312018
0.000257532
0.000207984
0.000167567
0.000212796
0.000258408
0.000287854
0.000304935
0.000313677
0.000316808
0.00031586
0.000311484
0.000303865
0.000293197
0.000280218
0.000266638
0.000255013
0.000247465
0.000243605
0.000241951
0.000241344
0.000241199
0.000241352
0.000241968
0.000243632
0.000247517
0.00025513
0.000266862
0.000280444
0.000292844
0.000301491
0.000304454
0.000299908
0.000285394
0.000257353
0.000212424
0.000167422
0.00010994
0.000167565
0.000208493
0.000232639
0.000245982
0.000252642
0.000255052
0.000254475
0.000251392
0.000245883
0.000238031
0.000228364
0.000218209
0.00020959
0.000204255
0.000201611
0.000200486
0.000200066
0.000199963
0.000200075
0.000200503
0.000201634
0.000204292
0.000209664
0.000218344
0.000228497
0.000237774
0.000244213
0.000246342
0.000242713
0.00023115
0.000207924
0.00016741
0.000109957
0.000128933
0.000221104
0.000288376
0.000329586
0.000353622
0.000366929
0.000373748
0.000376801
0.000377774
0.000377676
0.000377113
0.00037644
0.000375853
0.000375425
0.000375146
0.000374971
0.000374869
0.00037482
0.000374819
0.000374865
0.000374961
0.00037512
0.000375356
0.000375672
0.000375984
0.000376019
0.000375187
0.000372426
0.000365962
0.000352993
0.000329225
0.000288198
0.000221039
0.000128937
0.000221107
0.00025527
0.000303912
0.000337627
0.000358438
0.00037032
0.000376534
0.000379364
0.000380292
0.000380232
0.000379742
0.00037915
0.000378634
0.000378258
0.000378013
0.000377864
0.000377778
0.000377739
0.000377738
0.000377776
0.000377857
0.000377992
0.000378195
0.000378463
0.000378714
0.000378698
0.000377881
0.000375307
0.000369419
0.000357857
0.000337312
0.000303788
0.000255256
0.00022104
0.000288412
0.000303924
0.000353259
0.00039019
0.000414124
0.000428273
0.00043581
0.000439175
0.000440071
0.000439642
0.000438646
0.000437563
0.000436652
0.000436001
0.000435585
0.000435335
0.000435193
0.000435128
0.000435127
0.00043519
0.000435324
0.000435551
0.000435903
0.000436393
0.000436923
0.000437168
0.000436427
0.000433499
0.000426542
0.000412978
0.00038954
0.00035297
0.000303839
0.000288225
0.000329669
0.000337662
0.000390216
0.000431023
0.000458158
0.000474446
0.000483038
0.000486526
0.000486856
0.000485459
0.000483384
0.000481342
0.000479708
0.000478578
0.000477873
0.000477462
0.00047723
0.000477123
0.000477122
0.000477226
0.000477447
0.000477825
0.00047844
0.000479351
0.000480477
0.000481427
0.000481307
0.000478588
0.000471066
0.000455872
0.000429665
0.000389535
0.00033737
0.000329243
0.000353763
0.000358511
0.000414202
0.000458226
0.000487814
0.000505506