/*--------------------------------*- C++ -*----------------------------------*\
| =========                 |                                                 |
| \\      /  F ield         | OpenFOAM: The Open Source CFD Toolbox           |
|  \\    /   O peration     | Version:  2112                                  |
|   \\  /    A nd           | Website:  www.openfoam.com                      |
|    \\/     M anipulation  |                                                 |
\*---------------------------------------------------------------------------*/
FoamFile
{
    version     2.0;
    format      ascii;
    arch        "LSB;label=32;scalar=64";
    class       volScalarField;
    location    "4.8";
    object      k;
}
// * * * * * * * * * * * * * * * * * * * * * * * * * * * * * * * * * * * * * //

dimensions      [0 2 -2 0 0 0 0];

internalField   nonuniform List<scalar> 
64906
(
0.000173819
0.000197741
0.000213437
0.000221792
0.000226017
0.000228065
0.000229
0.000229385
0.000229508
0.000229508
0.000229457
0.000229392
0.000229337
0.0002293
0.000229273
0.000229253
0.000229237
0.000229227
0.000229224
0.00022923
0.000229243
0.000229261
0.000229284
0.000229314
0.000229346
0.000229352
0.000229253
0.000228902
0.000228002
0.000225982
0.000221776
0.000213435
0.00019775
0.000173829
0.000197765
0.00030598
0.00036703
0.000400645
0.000419208
0.000429138
0.000434109
0.000436307
0.00043702
0.000436992
0.000436656
0.000436254
0.000435913
0.000435674
0.000435527
0.000435441
0.000435391
0.000435368
0.000435368
0.00043539
0.000435437
0.000435515
0.000435637
0.000435806
0.000435968
0.000435941
0.000435312
0.000433305
0.00042857
0.000418862
0.000400473
0.000366973
0.000305982
0.000197794
0.000213493
0.000367072
0.000454484
0.000504173
0.000532642
0.000548418
0.000556509
0.000560032
0.000560947
0.000560496
0.000559477
0.000558393
0.000557515
0.000556926
0.000556578
0.00055638
0.00055627
0.000556221
0.000556222
0.000556273
0.00055638
0.000556561
0.000556855
0.000557299
0.000557821
0.000558086
0.000557354
0.000554303
0.000546814
0.000531621
0.00050362
0.000454248
0.000367027
0.000213541
0.000221872
0.000400732
0.000504218
0.000564474
0.000599791
0.000619663
0.000629763
0.000633739
0.000634021
0.000632301
0.000629805
0.000627395
0.000625524
0.000624317
0.000623626
0.000623227
0.000622998
0.000622893
0.000622895
0.000623002
0.000623225
0.000623597
0.000624206
0.000625195
0.000626541
0.000627778
0.00062784
0.000624855
0.000616043
0.000597426
0.000563127
0.000503585
0.000400546
0.000221925
0.000226111
0.000419334
0.000532747
0.000599874
0.000639687
0.000662022
0.000672804
0.000675934
0.000674176
0.000669705
0.000664365
0.000659592
0.000656065
0.000653918
0.000652754
0.00065206
0.00065164
0.000651442
0.000651444
0.000651645
0.000652059
0.000652718
0.000653779
0.000655651
0.000658516
0.000661827
0.000664183
0.000663006
0.00065477
0.000634898
0.000597082
0.000531365
0.000418855
0.000226146
0.000228166
0.000429306
0.000548619
0.000619911
0.000662252
0.000685431
0.0006953
0.000695752
0.000689757
0.000680118
0.000669759
0.000661233
0.000655315
0.000652021
0.000650402
0.000649348
0.000648653
0.000648316
0.00064832
0.000648661
0.00064935
0.000650369
0.000651876
0.000654865
0.000660036
0.000666894
0.000673859
0.000677146
0.000672089
0.000653456
0.000614734
0.000545987
0.000428313
0.00022815
0.000229107
0.00043434
0.000556889
0.000630355
0.00067359
0.000696045
0.000703168
0.000698486
0.000684933
0.000666178
0.000647425
0.000633958
0.000625473
0.000621422
0.000619814
0.000618427
0.000617393
0.000616889
0.000616893
0.000617404
0.000618436
0.000619795
0.0006213
0.000625053
0.000632772
0.000644462
0.000659536
0.000671418
0.000673167
0.000658711
0.000621621
0.000552394
0.00043256
0.000228996
0.000229505
0.000436649
0.000560739
0.000634994
0.00067787
0.000698225
0.000700696
0.000687801
0.000661661
0.000626783
0.000593629
0.000576797
0.0005683
0.000565541
0.000565272
0.0005638
0.000562511
0.000561895
0.0005619
0.000562525
0.000563818
0.000565274
0.000565466
0.000567977
0.000575775
0.000590842
0.000620124
0.000647705
0.00066148
0.000654607
0.000621522
0.000553797
0.000433822
0.000229249
0.00022965
0.000437558
0.000562202
0.00063642
0.000678174
0.000695532
0.000691819
0.000667369
0.000621069
0.00055522
0.000491965
0.000486433
0.000489207
0.00049301
0.000496205
0.000495409
0.00049439
0.000493918
0.000493924
0.000494407
0.000495434
0.00049623
0.000492995
0.00048904
0.000485761
0.000489768
0.000548991
0.000607054
0.000640498
0.000644754
0.000617497
0.000552513
0.000433557
0.000229222
0.000229684
0.000437829
0.000562573
0.000636441
0.000676935
0.000691301
0.000681212
0.000643299
0.000567373
0.000436729
0.000293066
0.000357439
0.000401003
0.000419109
0.000426787
0.000427947
0.000428003
0.000427965
0.00042797
0.00042802
0.000427974
0.000426825
0.000419147
0.000401008
0.000357319
0.00029225
0.000431662
0.000553609
0.000616149
0.000633574
0.000612512
0.000550436
0.000432793
0.000229095
0.00022968
0.00043789
0.00056264
0.00063627
0.000676013
0.000688621
0.000674658
0.000627374
0.000523861
0.00030545
0.000251873
0.000335935
0.000364865
0.000373894
0.000377114
0.000378121
0.000378377
0.000378381
0.000378133
0.000377135
0.000373926
0.000364914
0.000336001
0.0002519
0.000302806
0.000510615
0.000600143
0.000626748
0.000609466
0.000549108
0.000432267
0.000228991
0.000229665
0.000437942
0.000562792
0.000636525
0.000676398
0.000689354
0.00067674
0.000634864
0.000553542
0.000416987
0.000277033
0.000312042
0.000346237
0.000359927
0.00036324
0.000366757
0.000367959
0.000368205
0.000368205
0.000367959
0.000366758
0.000363237
0.00035992
0.000346201
0.00031183
0.000276129
0.000411892
0.00053971
0.000607532
0.000628764
0.00061008
0.00054932
0.000432332
0.000228957
0.000229657
0.000438046
0.000563117
0.000637244
0.000677871
0.000692414
0.000683409
0.000650304
0.000591168
0.000507896
0.000424621
0.000390497
0.000372456
0.000365665
0.000362985
0.000363255
0.000363476
0.000363498
0.000363495
0.000363467
0.000363238
0.00036295
0.000365592
0.00037226
0.000389856
0.000422498
0.000501739
0.00057704
0.00062298
0.000635494
0.000613158
0.000550734
0.000432892
0.000229027
0.000229653
0.000438181
0.000563538
0.000638184
0.000679777
0.000696158
0.000690695
0.000664436
0.00061807
0.000555334
0.00048798
0.000433035
0.000392615
0.000373602
0.000366337
0.00036413
0.000363459
0.000363243
0.000363238
0.000363442
0.0003641
0.000366282
0.000373492
0.000392341
0.000432212
0.000485439
0.000548776
0.000603776
0.000637103
0.000642821
0.00061692
0.000552586
0.000433653
0.000229122
0.000229649
0.000438311
0.000563945
0.000639082
0.000681541
0.000699432
0.000696532
0.00067444
0.000634259
0.000578878
0.000515284
0.000453695
0.000404323
0.000379346
0.000369337
0.000365826
0.000364649
0.000364273
0.000364264
0.000364625
0.000365786
0.000369272
0.000379219
0.000404019
0.0004528
0.000512583
0.000572141
0.000619853
0.000647066
0.000648649
0.000620171
0.00055427
0.000434359
0.000229199
0.000229641
0.00043841
0.000564269
0.000639784
0.000682882
0.000701807
0.000700494
0.000680648
0.000643254
0.000590473
0.000527598
0.000463344
0.000410262
0.00038258
0.000371188
0.00036705
0.000365615
0.000365135
0.000365123
0.000365584
0.000367004
0.000371117
0.000382446
0.000409944
0.000462413
0.000524823
0.000583638
0.000628762
0.000653212
0.000652562
0.000622488
0.000555514
0.00043488
0.000229242
0.000229629
0.000438469
0.000564482
0.000640244
0.00068374
0.000703273
0.000702819
0.000684068
0.000647848
0.00059594
0.000533066
0.000467626
0.000412969
0.000384118
0.0003721
0.000367676
0.000366111
0.000365558
0.000365541
0.000366074
0.000367625
0.000372024
0.00038398
0.000412643
0.000466665
0.000530254
0.00058905
0.000633296
0.000656576
0.000654834
0.000623892
0.000556285
0.000435198
0.000229255
0.000229615
0.000438492
0.000564588
0.000640473
0.000684157
0.000703967
0.000703886
0.000685574
0.000649779
0.000598127
0.000535171
0.00046927
0.000414005
0.000384713
0.000372451
0.000367911
0.000366282
0.000365676
0.000365655
0.000366239
0.000367856
0.000372372
0.000384572
0.000413676
0.00046828
0.000532341
0.00059121
0.000635195
0.00065805
0.000655867
0.000624548
0.00055665
0.00043534
0.000229245
0.000229602
0.000438485
0.000564595
0.000640487
0.000684178
0.000703997
0.000703927
0.000685628
0.000649847
0.000598208
0.000535259
0.000469356
0.000414071
0.000384751
0.000372467
0.000367908
0.000366258
0.000365622
0.000365595
0.000366211
0.000367849
0.000372385
0.00038461
0.000413741
0.000468361
0.000532432
0.000591294
0.000635266
0.000658106
0.00065591
0.000624578
0.000556668
0.000435336
0.000229224
0.000229598
0.000438452
0.000564501
0.000640285
0.000683801
0.00070336
0.000702939
0.000684228
0.000648053
0.000596186
0.000533342
0.00046789
0.000413173
0.00038424
0.000372152
0.000367672
0.000366047
0.000365413
0.000365383
0.000365996
0.000367611
0.00037207
0.000384101
0.00041285
0.000466917
0.000530541
0.000589307
0.000633509
0.000656742
0.000654958
0.000623979
0.000556336
0.000435193
0.000229203
0.000229602
0.000438391
0.000564296
0.000639842
0.000682972
0.000701938
0.00070068
0.000680906
0.000643597
0.000590902
0.000528094
0.000463792
0.00041063
0.000382803
0.000371289
0.000367055
0.000365526
0.000364941
0.000364915
0.000365475
0.000366994
0.000371209
0.00038267
0.000410323
0.000462872
0.000525347
0.000584091
0.00062912
0.000653479
0.000652755
0.000622622
0.000555593
0.000434882
0.000229177
0.000229607
0.000438289
0.000563967
0.000639133
0.000681626
0.000699567
0.000696746
0.000674767
0.000634735
0.000579522
0.000516074
0.000454407
0.00040489
0.000379674
0.000369479
0.000365827
0.000364529
0.000364051
0.00036403
0.000364482
0.000365768
0.000369403
0.000379552
0.000404612
0.000453555
0.00051343
0.000572825
0.000620345
0.000647396
0.000648868
0.000620316
0.000554357
0.000434365
0.000229128
0.000229608
0.00043814
0.000563516
0.000638167
0.000679774
0.000696199
0.000690832
0.000664742
0.000618637
0.000556238
0.000489171
0.000434119
0.000393335
0.000373912
0.000366371
0.000363962
0.000363151
0.000362851
0.000362835
0.00036311
0.000363904
0.000366295
0.000373798
0.0003931
0.000433388
0.000486735
0.000549741
0.000604334
0.000637374
0.000642944
0.000616984
0.000552623
0.000433641
0.000229045
0.000229605
0.000437942
0.000562956
0.000637011
0.000677585
0.000692124
0.000683202
0.00065032
0.000591622
0.000509005
0.000426321
0.000391977
0.000372836
0.000365287
0.00036218
0.000362149
0.000362211
0.000362159
0.000362144
0.000362168
0.000362074
0.000362062
0.00036512
0.000372609
0.000391482
0.000424373
0.000502916
0.00057736
0.000622819
0.0006352
0.00061291
0.00055058
0.000432797
0.000228938
0.00022959
0.000437663
0.000562273
0.000635753
0.000675407
0.000688221
0.000675595
0.000633953
0.000553319
0.000418119
0.000277962
0.000312222
0.000343957
0.000356283
0.000358773
0.000361845
0.000362875
0.000363053
0.000363032
0.000362801
0.000361678
0.000358436
0.000355742
0.000343333
0.000311908
0.000277047
0.000412993
0.00053892
0.00060605
0.000627348
0.000609028
0.000548672
0.000432004
0.000228845
0.000229543
0.000437182
0.000561293
0.000634287
0.00067346
0.000685593
0.000671269
0.000623834
0.000520784
0.000304176
0.000246333
0.00032422
0.00034982
0.000356644
0.000359145
0.000359964
0.000360151
0.000360099
0.000359763
0.00035864
0.000355526
0.000347749
0.00032122
0.000244089
0.000300262
0.000505455
0.00059503
0.000622695
0.000606624
0.000547358
0.000431408
0.000228798
0.000229394
0.000436155
0.00055946
0.000631975
0.000671268
0.000684567
0.000673471
0.000634538
0.000557705
0.000426951
0.000285252
0.000333371
0.000367252
0.00037673
0.00037836
0.000378269
0.000378225
0.000378191
0.000378092
0.000377815
0.000377129
0.00037557
0.000370873
0.000357386
0.000322651
0.000278932
0.00041492
0.000538292
0.000603993
0.000624609
0.000606292
0.000546517
0.000430821
0.000228715
0.000229007
0.000433847
0.000555571
0.000627192
0.000666695
0.000682018
0.00067618
0.000649013
0.000598729
0.000526722
0.000453897
0.000431067
0.00041549
0.000400453
0.00039213
0.000388669
0.000387497
0.000387129
0.000386983
0.000386856
0.00038674
0.000386964
0.000388427
0.000393205
0.000405336
0.000430323
0.000503994
0.000573919
0.000616451
0.000627479
0.000605376
0.000544603
0.000429388
0.000228467
0.000228083
0.000428914
0.000547528
0.000617201
0.000656275
0.000673301
0.000672326
0.00065491
0.000621768
0.000575524
0.000524685
0.000482552
0.000443483
0.000410188
0.000393771
0.000387446
0.000385327
0.000384682
0.000384507
0.000384531
0.000384928
0.000386617
0.000392312
0.000408263
0.000443168
0.000488972
0.000544843
0.000592975
0.000621458
0.000625055
0.000599906
0.000538956
0.000425521
0.000227707
0.000226052
0.000419095
0.000532022
0.000597935
0.000635245
0.00065283
0.000655258
0.000644732
0.000622339
0.000589455
0.000549132
0.000505783
0.00046136
0.000422917
0.000403626
0.000396001
0.00039337
0.000392558
0.000392362
0.00039248
0.000393181
0.000395648
0.000403136
0.000422651
0.000462447
0.000509998
0.0005567
0.000593251
0.00061291
0.00061159
0.000585111
0.000525855
0.00041676
0.000225829
0.000221841
0.000400649
0.000503875
0.000563365
0.000597011
0.000613607
0.000617819
0.000611996
0.000597152
0.00057388
0.000543262
0.000507528
0.000470206
0.000438035
0.000420397
0.000412845
0.000410035
0.000409113
0.000408898
0.000409081
0.000409962
0.000412725
0.000420283
0.00043808
0.000470982
0.000509414
0.000545312
0.000571982
0.000584803
0.00058042
0.000554688
0.000499901
0.000399251
0.000221739
0.000213485
0.000367115
0.000454445
0.00050376
0.000531304
0.00054515
0.000549623
0.000546912
0.000537864
0.000522755
0.000501997
0.000476964
0.000450696
0.000428252
0.000414985
0.000408798
0.000406373
0.000405556
0.000405368
0.000405542
0.000406343
0.000408753
0.000414955
0.000428343
0.00045108
0.000477603
0.000501978
0.000519466
0.000526773
0.000521131
0.000498717
0.000452313
0.000366462
0.000213475
0.000197787
0.000306079
0.000367175
0.000400714
0.000418944
0.00042805
0.000431333
0.000430443
0.000426041
0.000418203
0.000406983
0.000393081
0.000378345
0.000365672
0.000357805
0.000353926
0.000352323
0.000351755
0.000351623
0.000351759
0.000352328
0.000353932
0.000357825
0.000365747
0.000378518
0.000393272
0.000406626
0.00041583
0.000418976
0.000414214
0.000398581
0.000366411
0.000305921
0.000197827
0.000173851
0.000197841
0.00021362
0.000222044
0.000226306
0.000228329
0.000229117
0.000229132
0.000228518
0.000227247
0.000225362
0.000222906
0.000220158
0.000217695
0.000216115
0.000215299
0.000214923
0.000214748
0.00021469
0.000214755
0.00021493
0.000215304
0.000216117
0.000217697
0.000220165
0.000222907
0.000225274
0.000226852
0.000227216
0.000225884
0.00022197
0.000213679
0.000197914
0.000173895
0.000251748
0.000333763
0.000386341
0.000415875
0.000432028
0.00044053
0.000444717
0.000446541
0.000447124
0.000447096
0.000446811
0.000446468
0.000446168
0.000445949
0.000445803
0.00044571
0.000445653
0.000445624
0.000445622
0.000445647
0.0004457
0.000445785
0.000445909
0.000446071
0.000446226
0.000446222
0.000445715
0.000444047
0.000440047
0.00043172
0.000415705
0.000386263
0.000333739
0.000251758
0.000333771
0.000648955
0.000800302
0.000886678
0.000936298
0.000963864
0.000978145
0.000984594
0.000986607
0.000986285
0.00098493
0.000983336
0.000981952
0.00098094
0.00098028
0.00097987
0.000979632
0.000979521
0.000979521
0.00097963
0.000979857
0.000980231
0.000980791
0.000981541
0.00098229
0.000982441
0.000980729
0.000974939
0.000961474
0.000934694
0.00088571
0.000799782
0.000648717
0.00033375
0.000386381
0.000800381
0.00100061
0.00111825
0.00118784
0.0012275
0.00124833
0.0012575
0.00125973
0.00125817
0.00125494
0.00125147
0.00124857
0.00124652
0.00124521
0.00124443
0.00124397
0.00124376
0.00124376
0.00124397
0.0012444
0.00124512
0.00124623
0.00124782
0.00124962
0.00125068
0.00124899
0.00124118
0.00122211
0.00118417
0.001116
0.000999406
0.000799846
0.000386315
0.000415953
0.000886838
0.00111835
0.0012572
0.00134086
0.001389
0.0014139
0.00142373
0.00142416
0.00141932
0.00141232
0.0014054
0.00139987
0.00139612
0.00139383
0.00139245
0.00139165
0.00139128
0.00139128
0.00139165
0.00139242
0.00139369
0.00139571
0.00139879
0.00140278
0.00140642
0.00140691
0.00139969
0.00137819
0.00133343
0.0012526
0.00111582
0.000885693
0.000415781
0.000432147
0.000936552
0.0011881
0.00134108
0.00143403
0.00148715
0.00151314
0.00152064
0.00151602
0.00150446
0.00149048
0.00147764
0.00146787
0.00146161
0.001458
0.00145581
0.00145449
0.00145388
0.00145388
0.00145449
0.00145576
0.00145783
0.00146111
0.00146654
0.0014744
0.00148324
0.00148939
0.00148672
0.00146707
0.00142019
0.00133243
0.00118328
0.000934304
0.000431748
0.000440696
0.000964265
0.00122806
0.00138971
0.00148782
0.00154238
0.00156587
0.0015669
0.00155227
0.00152855
0.00150265
0.00148051
0.00146468
0.00145531
0.00145032
0.00144716
0.00144515
0.00144418
0.00144419
0.00144515
0.00144712
0.00145015
0.00145478
0.00146323
0.00147691
0.00149449
0.00151153
0.00151935
0.00150731
0.00146377
0.00137466
0.00121958
0.000960221
0.0004399
0.000444944
0.00097881
0.00124947
0.00141564
0.00151539
0.00156793
0.00158486
0.00157398
0.00154206
0.00149756
0.00145222
0.00141743
0.0013947
0.00138283
0.00137737
0.0013733
0.00137046
0.00136908
0.00136909
0.00137047
0.00137328
0.00137723
0.00138235
0.0013933
0.00141378
0.00144365
0.00147931
0.0015066
0.00151009
0.00147631
0.00139136
0.00123574
0.000972153
0.000443539
0.00044686
0.000985731
0.0012597
0.00142742
0.00152607
0.00157357
0.00157976
0.00155035
0.0014905
0.00141056
0.00133327
0.00128666
0.00126154
0.0012513
0.00124818
0.00124389
0.00124044
0.00123877
0.00123877
0.00124045
0.00124389
0.00124809
0.00125094
0.00126037
0.00128335
0.00132488
0.0013918
0.00145338
0.00148346
0.00146678
0.00139114
0.00123926
0.00097572
0.000444647
0.000447594
0.000988521
0.00126366
0.00143113
0.001527
0.00156751
0.00155974
0.00150495
0.00140197
0.00125748
0.00111707
0.00108165
0.00107706
0.00108014
0.00108402
0.00108182
0.00107916
0.00107782
0.00107783
0.00107918
0.00108184
0.00108401
0.00107996
0.00107632
0.00107919
0.00110973
0.00123893
0.0013638
0.0014359
0.0014437
0.00138127
0.00123582
0.000974824
0.000444466
0.000447793
0.000989339
0.00126464
0.00143117
0.00152397
0.00155753
0.00153559
0.00145214
0.00128904
0.00101171
0.00061968
0.000783518
0.000869941
0.000905597
0.000918438
0.000923176
0.000923814
0.000923658
0.000923665
0.000923837
0.000923212
0.000918475
0.000905592
0.000869753
0.000782682
0.000615731
0.000994384
0.00125015
0.00138148
0.00141745
0.00136888
0.0012302
0.000972373
0.000443844
0.000447809
0.000989461
0.00126471
0.00143053
0.0015214
0.00155076
0.00152015
0.00141763
0.00120229
0.000663459
0.000471761
0.000696965
0.000759871
0.000780804
0.000786824
0.000788427
0.000788788
0.000788794
0.000788445
0.000786856
0.000780852
0.00075993
0.000697015
0.000471671
0.000651442
0.00116314
0.00134604
0.00140087
0.00136082
0.0012263
0.000970506
0.000443379
0.000447808
0.000989532
0.00126493
0.00143083
0.0015217
0.00155129
0.00152248
0.00142834
0.00124974
0.000950724
0.000557108
0.000653827
0.000729728
0.000762486
0.000776174
0.000777435
0.00077734
0.000777257
0.000777256
0.000777336
0.000777428
0.000776157
0.000762436
0.000729539
0.000652982
0.000553094
0.000933311
0.00121042
0.00135686
0.0014031
0.00136104
0.00122613
0.000970278
0.000443352
0.000447843
0.000989774
0.00126562
0.00143229
0.00152463
0.00155731
0.00153554
0.00145831
0.00132182
0.00112986
0.000929286
0.000824834
0.000766131
0.000743726
0.000736594
0.000735352
0.000735154
0.000735076
0.000735074
0.000735148
0.000735333
0.000736539
0.000743557
0.000765541
0.000822697
0.000922255
0.00111118
0.0012827
0.00138732
0.00141657
0.00136728
0.00122909
0.000971577
0.000443711
0.000447904
0.000990152
0.00126661
0.00143438
0.00152874
0.00156523
0.00155072
0.00148738
0.00137655
0.00122576
0.00105977
0.00091662
0.000805879
0.000752372
0.000732441
0.000726434
0.000724795
0.000724377
0.000724375
0.000724785
0.000726406
0.00073236
0.000752126
0.000805071
0.000913942
0.00105189
0.00120661
0.00133755
0.00141678
0.00143216
0.0013755
0.00123334
0.000973593
0.000444233
0.000447966
0.000990556
0.00126763
0.00143647
0.00153271
0.00157243
0.00156337
0.00150882
0.00141106
0.00127602
0.00111894
0.000963458
0.000832424
0.000764174
0.000737244
0.000728293
0.000725654
0.000724983
0.00072498
0.000725643
0.000728262
0.000737153
0.000763896
0.000831527
0.000960568
0.00111071
0.00125663
0.00137204
0.00143838
0.00144502
0.00138289
0.0012374
0.000975586
0.00044472
0.000448011
0.000990894
0.00126847
0.00143816
0.00153581
0.0015778
0.00157218
0.00152251
0.00143086
0.00130174
0.00114679
0.000986287
0.000846803
0.000771863
0.000741454
0.000731029
0.000727884
0.000727081
0.000727078
0.000727873
0.000730997
0.000741359
0.000771573
0.000845871
0.000983303
0.00113839
0.00128219
0.00139178
0.00145209
0.0014539
0.00138831
0.00124049
0.000977135
0.000445075
0.000448034
0.000991123
0.00126904
0.00143929
0.00153784
0.00158118
0.00157747
0.00153023
0.00144124
0.00131421
0.00115952
0.000996699
0.000853606
0.000775746
0.000743755
0.000732659
0.000729284
0.000728418
0.000728414
0.000729272
0.000732626
0.000743659
0.000775451
0.000852661
0.000993681
0.00115104
0.00129456
0.00140207
0.00145976
0.00145916
0.00139167
0.00124246
0.000978128
0.000445283
0.000448036
0.000991235
0.00126932
0.00143985
0.00153882
0.00158279
0.00157991
0.00153366
0.00144565
0.00131926
0.00116448
0.00100068
0.000856248
0.000777282
0.000744678
0.00073332
0.000729853
0.000728959
0.000728955
0.00072984
0.000733286
0.00074458
0.000776984
0.000855298
0.000997669
0.00115596
0.00129956
0.00140643
0.00146315
0.00146157
0.00139324
0.0012434
0.000978599
0.000445368
0.000448023
0.000991234
0.00126933
0.00143986
0.00153885
0.00158283
0.00157996
0.00153373
0.00144574
0.00131938
0.00116461
0.00100081
0.000856369
0.000777359
0.000744716
0.000733337
0.000729861
0.000728961
0.000728957
0.000729848
0.000733303
0.000744618
0.000777061
0.000855421
0.000997799
0.00115609
0.00129967
0.00140652
0.00146322
0.00146162
0.00139328
0.00124342
0.000978604
0.000445352
0.000448001
0.000991118
0.00126905
0.00143933
0.0015379
0.00158128
0.00157761
0.00153044
0.00144152
0.00131456
0.00115991
0.000997092
0.000853989
0.000775995
0.000743889
0.000732732
0.000729329
0.000728448
0.000728444
0.000729317
0.0007327
0.000743794
0.000775706
0.000853058
0.000994107
0.00115144
0.00129491
0.00140234
0.00145996
0.0014593
0.00139176
0.00124251
0.000978141
0.000445244
0.000447966
0.000990878
0.00126847
0.00143819
0.00153587
0.00157791
0.00157237
0.00152282
0.00143132
0.00130234
0.0011475
0.00098706
0.00084752
0.000772338
0.000741732
0.000731206
0.00072802
0.000727198
0.000727195
0.000728012
0.000731181
0.00074165
0.00077207
0.000846625
0.00098412
0.00113912
0.00128279
0.00139221
0.00145237
0.00145407
0.00138841
0.00124055
0.000977145
0.000445021
0.000447909
0.000990504
0.00126757
0.00143641
0.00153266
0.00157243
0.00156348
0.00150912
0.00141162
0.0012769
0.00112007
0.000964731
0.000833549
0.000764892
0.000737665
0.000728567
0.000725873
0.000725184
0.000725184
0.000725873
0.000728555
0.000737602
0.000764658
0.000832725
0.000961927
0.00111189
0.0012575
0.00137255
0.0014386
0.00144509
0.00138289
0.00123738
0.000975555
0.000444652
0.000447823
0.000989994
0.00126636
0.00143404
0.00152833
0.00156483
0.00155044
0.00148739
0.00137704
0.00122689
0.00106147
0.000918503
0.000807233
0.000752976
0.000732588
0.000726348
0.000724631
0.000724197
0.0007242
0.000724637
0.000726343
0.000732531
0.000752764
0.000806513
0.000915978
0.00105367
0.00120769
0.00133782
0.00141654
0.00143173
0.00137509
0.00123305
0.000973416
0.000444133
0.000447702
0.00098934
0.00126488
0.00143123
0.00152329
0.00155583
0.0015341
0.00145722
0.00132158
0.00113102
0.000931644
0.000827063
0.000766357
0.000742343
0.000734383
0.000732704
0.000732375
0.000732274
0.000732274
0.000732365
0.000732649
0.000734214
0.00074197
0.000765618
0.000825062
0.000924728
0.00111213
0.0012818
0.00138555
0.00141473
0.00136579
0.00122808
0.00097101
0.000443528
0.000447518
0.000988433
0.00126303
0.00142812
0.00151827
0.0015473
0.00151819
0.00142426
0.00124688
0.000951037
0.000558731
0.000652899
0.000722892
0.000752248
0.00076402
0.000764495
0.000764227
0.000764132
0.000764115
0.000764138
0.000764205
0.000763286
0.000750846
0.000721005
0.000651409
0.000554604
0.000932786
0.00120551
0.00135093
0.00139784
0.00135704
0.00122348
0.000968801
0.000442966
0.000447163
0.000986876
0.00126031
0.00142437
0.00151361
0.00154152
0.00150967
0.00140632
0.00119123
0.000656442
0.000452633
0.000662141
0.0007167
0.000731894
0.000736625
0.000738203
0.000738635
0.000738531
0.000737762
0.00073539
0.000728948
0.000710943
0.000653312
0.000445229
0.000639619
0.00114581
0.0013302
0.00138828
0.00135166
0.00122025
0.000967112
0.000442546
0.000446345
0.000983629
0.00125523
0.00141827
0.00150785
0.00153838
0.00151332
0.00142632
0.00125893
0.00097658
0.000584648
0.000707204
0.000772247
0.000786955
0.000785364
0.00078739
0.000788366
0.000788583
0.000788352
0.000787356
0.000784425
0.000777846
0.000770803
0.000744248
0.000674154
0.000560695
0.000937764
0.0012044
0.0013463
0.00139136
0.00135028
0.0012178
0.000965239
0.000442083
0.000444441
0.000976643
0.00124477
0.00140593
0.0014961
0.00153117
0.00151742
0.00145478
0.00134006
0.00117667
0.00100603
0.000928132
0.000877641
0.000833211
0.000808288
0.000799509
0.00079681
0.000795988
0.000795618
0.000795148
0.00079439
0.000794378
0.000800617
0.000817868
0.000859313
0.000940678
0.00111507
0.0012741
0.00137066
0.00139617
0.00134708
0.0012124
0.000960859
0.000440863
0.000440285
0.000962363
0.00122388
0.00138098
0.00147044
0.00150944
0.00150637
0.00146464
0.0013859
0.00127575
0.00115204
0.001042
0.000940289
0.000851349
0.000806163
0.000788933
0.000783256
0.000781548
0.000781084
0.000781128
0.000782145
0.00078676
0.000802971
0.000847745
0.000942037
0.00106142
0.0011974
0.0013116
0.00137897
0.00138874
0.00133299
0.00119772
0.000949787
0.000437529
0.000431862
0.000935099
0.00118489
0.00133424
0.00142023
0.0014608
0.00146548
0.00143901
0.00138386
0.00130309
0.00120334
0.00109443
0.00098262
0.000882716
0.000830459
0.000809555
0.000802303
0.00080004
0.0007995
0.000799851
0.000801839
0.000808733
0.000829489
0.000882734
0.000986747
0.0011061
0.00122069
0.00130931
0.00135738
0.00135625
0.00129724
0.00116511
0.000925814
0.000429928
0.00041579
0.00088587
0.00111621
0.00125252
0.00133115
0.00137006
0.00137908
0.00136332
0.00132512
0.00126597
0.0011885
0.00109809
0.00100365
0.000921654
0.000875134
0.000854609
0.00084685
0.000844255
0.000843644
0.000844191
0.0008467
0.000854385
0.000875038
0.000922396
0.00100641
0.00110332
0.00119298
0.00125948
0.0012923
0.00128405
0.00122596
0.00110243
0.000879618
0.000414588
0.00038632
0.000799837
0.000999434
0.00111555
0.00118196
0.00121556
0.00122568
0.00121719
0.00119214
0.00115137
0.00109612
0.00103007
0.000961018
0.000901837
0.00086601
0.000848888
0.000841898
0.000839401
0.000838807
0.000839411
0.000841914
0.000848934
0.000866206
0.000902494
0.000962496
0.00103199
0.0010957
0.00114176
0.00116215
0.00115048
0.0010984
0.00099091
0.00079615
0.000385703
0.000333778
0.000648731
0.000799851
0.000885531
0.000933538
0.000957838
0.000966086
0.000962219
0.000947835
0.00092336
0.000889376
0.000848149
0.000804953
0.000767969
0.000744707
0.000733027
0.000728036
0.000726185
0.000725745
0.000726226
0.000728117
0.000733164
0.000744955
0.000768458
0.000805767
0.000848892
0.000888195
0.000915993
0.000926861
0.00091597
0.000876427
0.000795602
0.000647026
0.000333574
0.000251783
0.000333776
0.000386359
0.000415823
0.000431707
0.000439546
0.000442364
0.000441669
0.000438017
0.000431472
0.000422083
0.000410406
0.000397982
0.000387297
0.000380609
0.00037727
0.000375843
0.000375309
0.000375178
0.00037532
0.000375864
0.000377299
0.000380656
0.00038739
0.000398148
0.000410563
0.000421761
0.000429464
0.000432018
0.000427755
0.000413979
0.000385623
0.000333557
0.000251809
0.000280114
0.00040174
0.000479866
0.000524795
0.000550204
0.000564068
0.000571133
0.000574293
0.000575299
0.000575195
0.000574606
0.000573902
0.000573286
0.000572837
0.000572542
0.000572358
0.00057225
0.000572199
0.000572198
0.000572246
0.000572348
0.000572514
0.000572762
0.000573094
0.000573421
0.000573458
0.000572597
0.000569738
0.00056304
0.000549524
0.000524394
0.000479659
0.000401657
0.00028012
0.000401744
0.000819269
0.00101754
0.00113341
0.00120172
0.00124063
0.00126125
0.00127073
0.00127367
0.00127306
0.00127082
0.00126818
0.00126586
0.00126414
0.001263
0.00126229
0.00126188
0.00126169
0.00126168
0.00126187
0.00126226
0.0012629
0.00126386
0.00126512
0.00126638
0.00126672
0.00126425
0.00125581
0.00123649
0.00119887
0.00113161
0.00101652
0.000818763
0.000401658
0.000479906
0.00101765
0.00127257
0.00142513
0.00151746
0.00157118
0.00159991
0.00161272
0.00161577
0.00161333
0.0016084
0.00160304
0.00159849
0.00159522
0.00159311
0.00159182
0.00159107
0.00159073
0.00159072
0.00159105
0.00159176
0.00159293
0.00159472
0.00159722
0.00160004
0.00160176
0.00159953
0.00158873
0.00156259
0.00151145
0.00142131
0.00127039
0.00101658
0.000479688
0.000524886
0.00113363
0.00142528
0.00160271
0.00171175
0.00177562
0.00180914
0.00182248
0.00182292
0.0018159
0.00180568
0.00179543
0.00178711
0.00178136
0.0017778
0.00177563
0.00177438
0.0017738
0.0017738
0.00177436
0.00177555
0.00177754
0.00178066
0.00178534
0.00179132
0.00179674
0.00179768
0.00178803
0.00175932
0.00170027
0.00159534
0.001421
0.00113151
0.00052441
0.000550353
0.0012021
0.00151786
0.00171209
0.00183216
0.00190185
0.00193636
0.00194635
0.0019399
0.00192378
0.00190397
0.00188537
0.00187096
0.00186155
0.00185601
0.00185264
0.00185064
0.0018497
0.0018497
0.00185061
0.00185254
0.00185571
0.0018607
0.00186881
0.00188037
0.00189313
0.0019019
0.00189857
0.00187272
0.00181162
0.0016988
0.00151006
0.00119814
0.000549401
0.000564297
0.00124126
0.00157207
0.00177672
0.00190287
0.00197398
0.00200494
0.0020063
0.00198666
0.00195439
0.00191833
0.00188643
0.00186297
0.00184879
0.00184111
0.00183621
0.00183316
0.00183172
0.00183172
0.00183314
0.00183612
0.00184079
0.00184789
0.00186063
0.00188086
0.00190612
0.00192971
0.00194031
0.00192461
0.00186826
0.00175435
0.00155883
0.00123441
0.00056255
0.000571489
0.00126235
0.00160175