/*--------------------------------*- C++ -*----------------------------------*\
| =========                 |                                                 |
| \\      /  F ield         | OpenFOAM: The Open Source CFD Toolbox           |
|  \\    /   O peration     | Version:  2112                                  |
|   \\  /    A nd           | Website:  www.openfoam.com                      |
|    \\/     M anipulation  |                                                 |
\*---------------------------------------------------------------------------*/
FoamFile
{
    version     2.0;
    format      ascii;
    arch        "LSB;label=32;scalar=64";
    class       volScalarField;
    location    "4.8";
    object      nut;
}
// * * * * * * * * * * * * * * * * * * * * * * * * * * * * * * * * * * * * * //

dimensions      [0 2 -1 0 0 0 0];

internalField   nonuniform List<scalar> 
64906
(
3.33336e-05
3.5592e-05
3.70074e-05
3.77455e-05
3.81175e-05
3.82988e-05
3.83824e-05
3.84172e-05
3.84283e-05
3.84282e-05
3.84235e-05
3.84174e-05
3.84122e-05
3.84086e-05
3.84061e-05
3.84043e-05
3.84028e-05
3.84019e-05
3.84017e-05
3.84022e-05
3.84034e-05
3.8405e-05
3.84072e-05
3.841e-05
3.84131e-05
3.84137e-05
3.84047e-05
3.83731e-05
3.82927e-05
3.81141e-05
3.77439e-05
3.70071e-05
3.55928e-05
3.33345e-05
3.55943e-05
4.43334e-05
4.85969e-05
5.08075e-05
5.19985e-05
5.26311e-05
5.29484e-05
5.30894e-05
5.31353e-05
5.31331e-05
5.31106e-05
5.30837e-05
5.30607e-05
5.30445e-05
5.30344e-05
5.30285e-05
5.30251e-05
5.30235e-05
5.30235e-05
5.3025e-05
5.30282e-05
5.30336e-05
5.30418e-05
5.30533e-05
5.30642e-05
5.30627e-05
5.30223e-05
5.28937e-05
5.25919e-05
5.1974e-05
5.07946e-05
4.85921e-05
4.43331e-05
3.55969e-05
3.70124e-05
4.85998e-05
5.41214e-05
5.70398e-05
5.86588e-05
5.95447e-05
5.99981e-05
6.0196e-05
6.02474e-05
6.02211e-05
6.01621e-05
6.0099e-05
6.00475e-05
6.00126e-05
5.99918e-05
5.99798e-05
5.99731e-05
5.99702e-05
5.99702e-05
5.99733e-05
5.99797e-05
5.99906e-05
6.00081e-05
6.00343e-05
6.00648e-05
6.00804e-05
6.00393e-05
5.9868e-05
5.94487e-05
5.8596e-05
5.70042e-05
5.41048e-05
4.85957e-05
3.70166e-05
3.77527e-05
5.08132e-05
5.70425e-05
6.03918e-05
6.22838e-05
6.33314e-05
6.38613e-05
6.407e-05
6.40845e-05
6.39927e-05
6.38588e-05
6.37284e-05
6.36263e-05
6.35597e-05
6.35212e-05
6.34988e-05
6.3486e-05
6.34802e-05
6.34803e-05
6.34862e-05
6.34986e-05
6.35194e-05
6.35532e-05
6.36075e-05
6.36804e-05
6.37469e-05
6.37505e-05
6.35936e-05
6.3131e-05
6.21493e-05
6.03117e-05
5.70017e-05
5.0799e-05
3.7757e-05
3.81258e-05
5.20068e-05
5.86649e-05
6.22885e-05
6.43534e-05
6.54908e-05
6.60364e-05
6.61949e-05
6.61056e-05
6.5877e-05
6.56016e-05
6.53529e-05
6.51672e-05
6.50527e-05
6.49899e-05
6.49524e-05
6.49299e-05
6.49193e-05
6.49194e-05
6.49301e-05
6.49522e-05
6.49877e-05
6.50447e-05
6.5144e-05
6.52941e-05
6.54655e-05
6.55861e-05
6.55259e-05
6.51076e-05
6.40937e-05
6.21301e-05
5.85802e-05
5.19726e-05
3.81282e-05
3.83076e-05
5.26421e-05
5.95566e-05
6.33453e-05
6.55032e-05
6.66616e-05
6.71518e-05
6.71752e-05
6.68776e-05
6.6394e-05
6.58679e-05
6.54284e-05
6.51191e-05
6.49444e-05
6.48572e-05
6.48007e-05
6.47638e-05
6.47461e-05
6.47462e-05
6.47642e-05
6.48007e-05
6.48551e-05
6.4936e-05
6.5094e-05
6.53631e-05
6.5715e-05
6.60668e-05
6.62302e-05
6.5976e-05
6.50398e-05
6.30602e-05
5.94001e-05
5.25738e-05
3.83052e-05
3.83918e-05
5.29637e-05
6.00206e-05
6.38942e-05
6.60783e-05
6.71905e-05
6.75422e-05
6.73145e-05
6.66455e-05
6.57057e-05
6.47478e-05
6.40434e-05
6.35905e-05
6.33696e-05
6.32797e-05
6.32038e-05
6.31481e-05
6.31211e-05
6.31213e-05
6.31487e-05
6.32042e-05
6.32783e-05
6.33623e-05
6.35664e-05
6.39772e-05
6.45867e-05
6.53543e-05
6.59483e-05
6.60321e-05
6.53074e-05
6.34218e-05
5.97584e-05
5.28439e-05
3.83805e-05
3.84279e-05
5.31124e-05
6.02379e-05
6.41393e-05
6.62971e-05
6.73025e-05
6.7427e-05
6.67971e-05
6.54978e-05
6.37206e-05
6.19766e-05
6.10526e-05
6.0569e-05
6.04038e-05
6.03815e-05
6.02966e-05
6.02239e-05
6.01894e-05
6.01897e-05
6.02246e-05
6.02975e-05
6.03813e-05
6.03989e-05
6.05495e-05
6.09927e-05
6.1818e-05
6.33567e-05
6.4764e-05
6.54512e-05
6.51021e-05
6.34181e-05
5.98375e-05
5.29245e-05
3.84032e-05
3.84412e-05
5.31716e-05
6.03215e-05
6.4216e-05
6.63153e-05
6.71735e-05
6.69963e-05
6.57916e-05
6.34468e-05
5.99563e-05
5.63923e-05
5.6021e-05
5.61388e-05
5.63381e-05
5.65156e-05
5.64628e-05
5.64004e-05
5.6372e-05
5.63723e-05
5.64014e-05
5.64642e-05
5.65169e-05
5.63368e-05
5.61276e-05
5.59777e-05
5.62546e-05
5.95939e-05
6.26848e-05
6.43943e-05
6.46031e-05
6.32082e-05
5.97663e-05
5.29079e-05
3.84009e-05
3.84444e-05
5.31896e-05
6.03432e-05
6.42183e-05
6.62544e-05
6.69663e-05
6.64753e-05
6.4586e-05
6.06306e-05
5.31575e-05
4.34921e-05
4.79643e-05
5.07631e-05
5.18842e-05
5.23586e-05
5.24221e-05
5.24221e-05
5.24188e-05
5.24191e-05
5.24232e-05
5.24238e-05
5.23609e-05
5.18864e-05
5.07627e-05
4.79545e-05
4.34254e-05
5.28244e-05
5.98464e-05
6.31458e-05
6.4031e-05
6.29461e-05
5.96498e-05
5.28589e-05
3.83895e-05
3.84442e-05
5.31937e-05
6.03472e-05
6.42095e-05
6.62077e-05
6.68327e-05
6.61481e-05
6.37711e-05
5.82442e-05
4.44285e-05
4.0221e-05
4.64047e-05
4.83545e-05
4.89484e-05
4.91593e-05
4.92253e-05
4.92421e-05
4.92424e-05
4.92261e-05
4.91607e-05
4.89506e-05
4.83577e-05
4.64092e-05
4.02229e-05
4.42196e-05
5.74581e-05
6.23072e-05
6.3676e-05
6.27833e-05
5.95741e-05
5.28247e-05
3.83802e-05
3.84429e-05
5.31972e-05
6.03556e-05
6.42222e-05
6.62254e-05
6.68651e-05
6.62438e-05
6.41394e-05
5.9853e-05
5.18898e-05
4.22315e-05
4.47013e-05
4.70464e-05
4.79565e-05
4.81693e-05
4.8408e-05
4.849e-05
4.8507e-05
4.8507e-05
4.849e-05
4.84081e-05
4.81691e-05
4.7956e-05
4.70436e-05
4.46846e-05
4.21561e-05
5.15473e-05
5.90544e-05
6.26785e-05
6.37717e-05
6.28112e-05
5.95836e-05
5.28279e-05
3.8377e-05
3.84423e-05
5.32039e-05
6.03736e-05
6.42589e-05
6.62973e-05
6.70117e-05
6.65649e-05
6.49053e-05
6.18379e-05
5.72501e-05
5.22608e-05
5.00183e-05
4.87788e-05
4.83004e-05
4.81094e-05
4.81277e-05
4.81436e-05
4.81455e-05
4.81454e-05
4.8143e-05
4.81265e-05
4.81069e-05
4.82952e-05
4.87648e-05
4.99732e-05
5.21183e-05
5.68752e-05
6.10488e-05
6.34627e-05
6.41086e-05
6.29684e-05
5.96605e-05
5.28628e-05
3.8383e-05
3.8442e-05
5.32127e-05
6.03971e-05
6.43074e-05
6.63914e-05
6.71927e-05
6.69171e-05
6.56022e-05
6.32218e-05
5.98576e-05
5.60244e-05
5.26831e-05
5.00848e-05
4.88138e-05
4.83182e-05
4.81671e-05
4.81214e-05
4.81068e-05
4.81064e-05
4.81202e-05
4.8165e-05
4.83144e-05
4.88061e-05
5.00658e-05
5.26281e-05
5.58652e-05
5.94759e-05
6.24414e-05
6.41753e-05
6.4477e-05
6.31626e-05
5.97626e-05
5.29108e-05
3.83916e-05
3.84417e-05
5.32212e-05
6.04201e-05
6.43542e-05
6.64793e-05
6.73521e-05
6.71999e-05
6.60936e-05
6.40427e-05
6.11126e-05
5.75736e-05
5.3933e-05
5.08323e-05
4.91885e-05
4.85132e-05
4.82736e-05
4.81931e-05
4.81673e-05
4.81667e-05
4.81914e-05
4.82709e-05
4.85086e-05
4.91798e-05
5.08114e-05
5.38744e-05
5.74089e-05
6.07288e-05
6.32668e-05
6.46758e-05
6.47705e-05
6.33314e-05
5.98561e-05
5.29559e-05
3.83986e-05
3.84411e-05
5.32278e-05
6.04385e-05
6.43911e-05
6.65465e-05
6.74684e-05
6.73926e-05
6.63986e-05
6.44967e-05
6.17239e-05
5.82617e-05
5.45094e-05
5.12095e-05
4.94005e-05
4.86352e-05
4.83535e-05
4.82552e-05
4.82223e-05
4.82214e-05
4.82531e-05
4.83503e-05
4.86302e-05
4.93912e-05
5.11878e-05
5.44492e-05
5.80946e-05
6.13385e-05
6.37219e-05
6.49846e-05
6.49683e-05
6.34524e-05
5.99258e-05
5.29895e-05
3.84026e-05
3.84401e-05
5.32318e-05
6.04507e-05
6.44154e-05
6.65898e-05
6.75406e-05
6.75063e-05
6.65672e-05
6.47288e-05
6.20118e-05
5.85666e-05
5.47646e-05
5.13817e-05
4.95018e-05
4.86958e-05
4.8395e-05
4.82878e-05
4.82498e-05
4.82486e-05
4.82852e-05
4.83915e-05
4.86906e-05
4.94923e-05
5.13596e-05
5.4703e-05
5.83981e-05
6.16252e-05
6.39538e-05
6.51542e-05
6.50837e-05
6.35261e-05
5.99693e-05
5.30101e-05
3.84039e-05
3.84389e-05
5.32334e-05
6.04568e-05
6.44276e-05
6.6611e-05
6.75749e-05
6.75587e-05
6.66418e-05
6.48267e-05
6.21273e-05
5.86842e-05
5.48628e-05
5.1448e-05
4.95413e-05
4.87194e-05
4.84106e-05
4.82991e-05
4.82575e-05
4.8256e-05
4.82961e-05
4.84068e-05
4.8714e-05
4.95316e-05
5.14257e-05
5.47996e-05
5.8515e-05
6.17399e-05
6.40512e-05
6.52287e-05
6.51364e-05
6.35608e-05
5.999e-05
5.30194e-05
3.84032e-05
3.84379e-05
5.32329e-05
6.04572e-05
6.44283e-05
6.66121e-05
6.75764e-05
6.75607e-05
6.66445e-05
6.48302e-05
6.21316e-05
5.86892e-05
5.4868e-05
5.14523e-05
4.9544e-05
4.87205e-05
4.84104e-05
4.82974e-05
4.82537e-05
4.82519e-05
4.82942e-05
4.84064e-05
4.87149e-05
4.95342e-05
5.143e-05
5.48045e-05
5.85202e-05
6.17444e-05
6.40549e-05
6.52316e-05
6.51386e-05
6.35624e-05
5.9991e-05
5.30192e-05
3.84014e-05
3.84374e-05
5.32307e-05
6.04518e-05
6.44175e-05
6.65928e-05
6.75448e-05
6.75122e-05
6.65752e-05
6.47393e-05
6.20251e-05
5.85823e-05
5.47806e-05
5.13951e-05
4.95102e-05
4.86994e-05
4.83947e-05
4.82833e-05
4.82397e-05
4.82377e-05
4.82798e-05
4.83905e-05
4.86938e-05
4.95005e-05
5.13732e-05
5.47184e-05
5.84145e-05
6.16391e-05
6.39648e-05
6.51626e-05
6.509e-05
6.35307e-05
5.99721e-05
5.30098e-05
3.83994e-05
3.84377e-05
5.32265e-05
6.04399e-05
6.43939e-05
6.65508e-05
6.74746e-05
6.74016e-05
6.64114e-05
6.45143e-05
6.17471e-05
5.82902e-05
5.45368e-05
5.12337e-05
4.94156e-05
4.8642e-05
4.83537e-05
4.82489e-05
4.82087e-05
4.82069e-05
4.82454e-05
4.83495e-05
4.86365e-05
4.94064e-05
5.12127e-05
5.44774e-05
5.81247e-05
6.13631e-05
6.37405e-05
6.49981e-05
6.4978e-05
6.34592e-05
5.99301e-05
5.29895e-05
3.8397e-05
3.84381e-05
5.32197e-05
6.04211e-05
6.43565e-05
6.64831e-05
6.73583e-05
6.721e-05
6.61096e-05
6.40672e-05
6.11476e-05
5.76194e-05
5.39772e-05
5.08696e-05
4.92108e-05
4.85227e-05
4.82734e-05
4.81844e-05
4.81516e-05
4.81501e-05
4.81811e-05
4.82693e-05
4.85175e-05
4.92023e-05
5.08504e-05
5.39213e-05
5.74581e-05
6.07661e-05
6.32923e-05
6.46923e-05
6.47812e-05
6.33386e-05
5.98607e-05
5.29561e-05
3.83924e-05
3.84381e-05
5.32098e-05
6.03954e-05
6.43057e-05
6.63902e-05
6.71936e-05
6.69226e-05
6.56166e-05
6.32508e-05
5.99074e-05
5.60951e-05
5.27519e-05
5.01327e-05
4.88345e-05
4.83199e-05
4.81546e-05
4.80991e-05
4.80785e-05
4.80774e-05
4.80962e-05
4.81505e-05
4.83146e-05
4.88265e-05
5.01162e-05
5.27026e-05
5.59421e-05
5.95293e-05
6.24701e-05
6.4188e-05
6.4482e-05
6.31649e-05
5.97639e-05
5.29097e-05
3.83847e-05
3.84376e-05
5.31966e-05
6.03634e-05
6.4245e-05
6.62806e-05
6.69946e-05
6.65517e-05
6.49034e-05
6.18602e-05
5.73135e-05
5.23688e-05
5.01168e-05
4.8804e-05
4.82728e-05
4.80516e-05
4.80486e-05
4.80534e-05
4.80501e-05
4.8049e-05
4.80503e-05
4.80433e-05
4.80433e-05
4.82609e-05
4.87877e-05
5.00814e-05
5.22373e-05
5.69426e-05
6.10637e-05
6.34512e-05
6.40904e-05
6.29528e-05
5.96502e-05
5.28557e-05
3.83751e-05
3.8436e-05
5.31781e-05
6.03243e-05
6.41784e-05
6.61709e-05
6.68033e-05
6.61804e-05
6.40863e-05
5.98358e-05
5.19603e-05
4.23045e-05
4.47132e-05
4.68814e-05
4.76985e-05
4.78548e-05
4.80638e-05
4.81343e-05
4.81466e-05
4.81451e-05
4.81291e-05
4.8052e-05
4.7831e-05
4.76604e-05
4.68365e-05
4.46884e-05
4.2228e-05
5.16155e-05
5.90041e-05
6.25932e-05
6.36916e-05
6.27504e-05
5.95438e-05
5.2805e-05
3.83668e-05
3.84315e-05
5.31462e-05
6.02678e-05
6.40998e-05
6.6071e-05
6.6672e-05
6.59665e-05
6.35745e-05
5.80573e-05
4.43267e-05
3.97505e-05
4.55485e-05
4.73006e-05
4.77544e-05
4.79215e-05
4.79766e-05
4.79892e-05
4.79856e-05
4.79625e-05
4.78861e-05
4.76762e-05
4.71545e-05
4.53287e-05
3.95604e-05
4.40193e-05
5.71456e-05
6.20205e-05
6.34523e-05
6.26231e-05
5.94693e-05
5.27662e-05
3.83625e-05
3.84178e-05
5.3079e-05
6.01628e-05
6.39757e-05
6.59562e-05
6.66155e-05
6.60691e-05
6.41133e-05
6.00767e-05
5.25207e-05
4.28732e-05
4.62496e-05
4.84955e-05
4.90952e-05
4.91928e-05
4.91795e-05
4.9174e-05
4.91711e-05
4.91644e-05
4.91462e-05
4.91024e-05
4.90046e-05
4.86992e-05
4.78186e-05
4.54746e-05
4.23725e-05
5.1735e-05
5.8965e-05
6.24803e-05
6.35447e-05
6.26013e-05
5.94194e-05
5.27272e-05
3.83546e-05
3.83827e-05
5.29301e-05
5.99426e-05
6.37215e-05
6.57196e-05
6.64804e-05
6.61912e-05
6.48293e-05
6.2234e-05
5.83225e-05
5.40739e-05
5.26179e-05
5.15942e-05
5.06092e-05
5.00588e-05
4.9827e-05
4.97478e-05
4.97229e-05
4.97132e-05
4.97051e-05
4.96987e-05
4.97172e-05
4.98206e-05
5.0153e-05
5.0977e-05
5.26036e-05
5.69973e-05
6.08692e-05
6.31101e-05
6.36818e-05
6.25462e-05
5.93083e-05
5.2634e-05
3.83319e-05
3.83e-05
5.26149e-05
5.94908e-05
6.31947e-05
6.5187e-05
6.6038e-05
6.5987e-05
6.51083e-05
6.34057e-05
6.09528e-05
5.81343e-05
5.56789e-05
5.33068e-05
5.12076e-05
5.0141e-05
4.97233e-05
4.95822e-05
4.95391e-05
4.95273e-05
4.95291e-05
4.9556e-05
4.96696e-05
5.00481e-05
5.1091e-05
5.32988e-05
5.60621e-05
5.92462e-05
6.18561e-05
6.33525e-05
6.35464e-05
6.22512e-05
5.89886e-05
5.23866e-05
3.82641e-05
3.81203e-05
5.19894e-05
5.86196e-05
6.21773e-05
6.41114e-05
6.5005e-05
6.51243e-05
6.45824e-05
6.34189e-05
6.16742e-05
5.94686e-05
5.70066e-05
5.43775e-05
5.20026e-05
5.07694e-05
5.02729e-05
5.01001e-05
5.00464e-05
5.00334e-05
5.00412e-05
5.00877e-05
5.02502e-05
5.07389e-05
5.19886e-05
5.4447e-05
5.7249e-05
5.98754e-05
6.1856e-05
6.29002e-05
6.28426e-05
6.14624e-05
5.82504e-05
5.1829e-05
3.80984e-05
3.77496e-05
5.08063e-05
5.70192e-05
6.03245e-05
6.21247e-05
6.29962e-05
6.32128e-05
6.29003e-05
6.21046e-05
6.08411e-05
5.91441e-05
5.71079e-05
5.49097e-05
5.29472e-05
5.18398e-05
5.13575e-05
5.11764e-05
5.11165e-05
5.11025e-05
5.11145e-05
5.11717e-05
5.135e-05
5.18332e-05
5.29511e-05
5.49573e-05
5.72152e-05
5.92507e-05
6.07234e-05
6.14247e-05
6.12017e-05
5.98225e-05
5.67724e-05
5.07067e-05
3.7739e-05
3.70116e-05
4.86018e-05
5.41168e-05
5.70113e-05
5.85749e-05
5.93486e-05
5.95947e-05
5.94375e-05
5.89206e-05
5.80526e-05
5.6845e-05
5.53614e-05
5.37678e-05
5.23716e-05
5.15283e-05
5.11295e-05
5.09718e-05
5.09183e-05
5.0906e-05
5.09174e-05
5.09699e-05
5.11267e-05
5.15267e-05
5.23779e-05
5.37917e-05
5.53981e-05
5.68387e-05
5.78545e-05
5.82796e-05
5.79704e-05
5.66996e-05
5.39753e-05
4.8552e-05
3.70097e-05
3.55962e-05
4.43404e-05
4.86057e-05
5.08096e-05
5.1977e-05
5.2554e-05
5.27598e-05
5.26993e-05
5.24128e-05
5.19032e-05
5.117e-05
5.02524e-05
4.92662e-05
4.84046e-05
4.78617e-05
4.75911e-05
4.74785e-05
4.74383e-05
4.74289e-05
4.74386e-05
4.74788e-05
4.75916e-05
4.78632e-05
4.841e-05
4.9278e-05
5.02642e-05
5.11437e-05
5.17445e-05
5.19532e-05
5.16567e-05
5.06593e-05
4.85476e-05
4.4326e-05
3.55995e-05
3.33367e-05
3.56013e-05
3.70238e-05
3.77676e-05
3.81422e-05
3.83204e-05
3.83897e-05
3.83901e-05
3.83339e-05
3.8219e-05
3.80493e-05
3.78288e-05
3.75822e-05
3.73606e-05
3.72176e-05
3.71433e-05
3.71088e-05
3.70928e-05
3.70875e-05
3.70935e-05
3.71095e-05
3.71437e-05
3.72177e-05
3.73608e-05
3.75829e-05
3.78288e-05
3.80409e-05
3.81827e-05
3.82168e-05
3.81013e-05
3.7759e-05
3.70282e-05
3.56079e-05
3.33411e-05
5.18932e-05
5.98359e-05
6.44363e-05
6.6899e-05
6.82204e-05
6.89131e-05
6.92555e-05
6.94057e-05
6.94539e-05
6.94513e-05
6.9427e-05
6.93975e-05
6.93718e-05
6.93529e-05
6.93403e-05
6.93323e-05
6.93273e-05
6.93249e-05
6.93248e-05
6.93269e-05
6.93315e-05
6.93387e-05
6.93494e-05
6.93633e-05
6.93766e-05
6.93764e-05
6.93345e-05
6.91974e-05
6.88707e-05
6.81929e-05
6.68833e-05
6.44286e-05
5.98332e-05
5.18941e-05
5.98366e-05
0.000178148
0.000223085
0.000245704
0.000258288
0.000265341
0.00026908
0.000270802
0.000271325
0.000271187
0.000270744
0.000270226
0.000269772
0.000269435
0.000269212
0.000269072
0.000268991
0.000268953
0.000268953
0.00026899
0.000269068
0.000269196
0.000269385
0.000269638
0.000269895
0.000269984
0.000269555
0.000268034
0.000264542
0.000257727
0.000245335
0.000222853
0.000178009
5.98342e-05
6.44398e-05
0.000223115
0.000286711
0.000319431
0.000337949
0.00034848
0.000354092
0.000356594
0.000357168
0.00035664
0.000355605
0.000354483
0.000353529
0.000352845
0.000352405
0.000352135
0.000351978
0.000351907
0.000351907
0.000351976
0.000352125
0.000352371
0.000352747
0.000353275
0.000353878
0.000354265
0.000353866
0.000351778
0.000346692
0.000336681
0.000318599
0.000286203
0.000222843
6.4433e-05
6.69056e-05
0.000245757
0.000319463
0.000358027
0.000380101
0.000392682
0.000399236
0.000401826
0.000401851
0.000400367
0.000398215
0.00039605
0.000394285
0.00039307
0.000392319
0.000391858
0.000391589
0.000391465
0.000391465
0.000391586
0.000391843
0.000392269
0.00039293
0.000393928
0.000395212
0.000396394
0.00039668
0.00039486
0.000389286
0.000377678
0.00035643
0.000318498
0.000245266
6.68893e-05
6.82304e-05
0.000258368
0.00033803
0.000380168
0.000404384
0.000418017
0.000424685
0.000426553
0.000425158
0.000421786
0.000417618
0.000413678
0.000410602
0.000408604
0.000407439
0.000406708
0.000406267
0.000406062
0.000406062
0.000406264
0.000406691
0.00040738
0.000408436
0.00041017
0.000412663
0.000415421
0.000417378
0.000416915
0.00041201
0.000400099
0.00037734
0.000336324
0.000257517
6.81943e-05
6.8927e-05
0.000265466
0.000348658
0.000392907
0.000418227
0.000432036
0.000437925
0.000438024
0.000433917
0.000427161
0.000419525
0.000412746
0.000407697
0.000404685
0.000403093
0.000401996
0.000401294
0.000400966
0.000400966
0.000401292
0.00040198
0.000403034
0.000404509
0.000407232
0.000411629
0.000417071
0.000422217
0.000424712
0.00042195
0.000411094
0.000388214
0.000345828
0.000264059
6.88571e-05
6.92747e-05
0.000269291
0.000354464
0.000399795
0.00042539
0.000438558
0.000442679
0.000439628
0.000430843
0.000418192
0.000404684
0.000393948
0.000386368
0.000382402
0.00038069
0.000379098
0.000378006
0.000377507
0.000377508
0.000378006
0.000379088
0.000380641
0.000382242
0.000385922
0.000392824
0.000402117
0.000412895
0.000420919
0.000422384
0.000414169
0.000392488
0.00035007
0.000267103
6.91536e-05
6.94329e-05
0.000271168
0.000357315
0.000403007
0.000428241
0.00044005
0.000441357
0.000433364
0.00041675
0.000393342
0.000369092
0.000355357
0.000346168
0.000342335
0.000341578
0.00033928
0.000337674
0.000336999
0.000337001
0.000337676
0.000339276
0.000341546
0.000342215
0.000345801
0.00035435
0.000366615
0.000387903
0.000406309
0.000415212
0.000411573
0.000392362
0.000350964
0.000268
6.92444e-05
6.94943e-05
0.000271945
0.000358458
0.000404063
0.000428539
0.000438503
0.000436093
0.000421
0.000391156
0.000344972
0.000292836
0.000291818
0.000288719
0.000288514
0.00029081
0.00028758
0.000285616
0.000284921
0.000284922
0.000285618
0.000287581
0.000290797
0.000288446
0.000288487
0.000291106
0.000290881
0.000339734
0.000380393
0.000402134
0.000405332
0.000389653
0.000349969
0.000267713
6.92297e-05
6.95113e-05
0.000272174
0.000358752
0.000404093
0.000427738
0.000435832
0.00042945
0.000405492
0.000353713
0.000248899
8.18191e-05
0.000189625
0.000221732
0.000231342
0.000238171
0.000234454
0.000232866
0.000232453
0.000232454
0.000232869
0.000234458
0.000238174
0.000231324
0.000221667
0.000189512
8.1536e-05
0.000244709
0.000342905
0.0003861
0.000397978
0.000386188
0.000348349
0.000266996
6.91786e-05
6.95129e-05
0.000272201
0.000358768
0.000403904
0.000426994
0.000433882
0.000424838
0.000393756
0.00031497
8.47145e-05
7.11592e-05
0.000172839
0.000192303
0.000195903
0.000198386
0.000199234
0.000199426
0.000199428
0.000199239
0.000198394
0.000195911
0.00019231
0.00017284
7.11507e-05
8.38918e-05
0.000304625
0.000374113
0.000392978
0.000383808
0.000347167
0.000266425
6.91398e-05
6.95129e-05
0.000272209
0.000358818
0.000403943
0.000426972
0.00043386
0.000425446
0.0003984
0.00034246
0.000233578
7.74398e-05
0.000151887
0.000168809
0.000170821
0.000164263
0.000173092
0.000176108
0.000176683
0.000176684
0.000176112
0.000173099
0.00016426
0.000170813
0.000168771
0.000151769
7.71368e-05
0.000229337
0.000331458
0.000378708
0.000393556
0.000383702
0.000347011
0.000266293
6.91367e-05
6.95159e-05
0.000272268
0.000358996
0.000404288
0.000427622
0.000435214
0.000428677
0.00040706
0.000367632
0.000308481
0.000241631
0.0002161
0.000192942
0.000183762
0.000178624
0.000180734
0.000181794
0.00018204
0.00018204
0.000181794
0.00018073
0.000178606
0.000183717
0.000192789
0.000215536
0.00023977
0.000303153
0.000356504
0.000387523
0.000396962
0.000385179
0.000347712
0.000266587
6.91653e-05
6.95211e-05
0.00027237
0.000359266
0.000404814
0.000428592
0.000437033
0.000432244
0.000414378
0.00038293
0.000338862
0.000288622
0.000244715
0.000207309
0.000191842
0.000186156
0.000185084
0.000184946
0.00018493
0.00018493
0.000184946
0.00018508
0.000186138
0.000191785
0.000207101
0.000243969
0.000286347
0.000333285
0.000371838
0.000395018
0.000400735
0.000387174
0.00034879
0.000267095
6.92076e-05
6.95264e-05
0.000272485
0.000359553
0.00040536
0.000429559
0.000438711
0.000435152
0.000419409
0.000391433
0.000352084
0.000305082
0.000256972
0.000214235
0.000195621
0.000188839
0.000186767
0.000186216
0.000186095
0.000186096
0.000186217
0.000186765
0.000188824
0.00019556
0.000214008
0.00025617
0.000302698
0.000346448
0.000380389
0.000400175
0.000403797
0.000388995
0.00034985
0.000267622
6.92476e-05
6.95304e-05
0.000272585
0.000359796
0.000405814
0.000430337
0.000439988
0.000437184
0.000422542
0.000396031
0.000358217
0.000311863
0.000262396
0.000217562
0.000197493
0.000190026
0.000187594
0.000186904
0.000186748
0.000186749
0.000186906
0.000187592
0.000190011
0.000197432
0.000217329
0.000261575
0.000309442
0.000352561
0.000385011
0.000403375
0.000405917
0.000390357
0.000350681
0.000268045
6.9277e-05
6.95325e-05
0.000272655
0.000359965
0.000406126
0.000430858
0.00044081
0.000438421
0.000424312
0.0003984
0.000361086
0.00031481
0.000264785
0.000219093
0.000198386
0.000190585
0.000188006
0.000187265
0.000187097
0.000187099
0.000187268
0.000188005
0.000190572
0.000198324
0.00021886
0.000263962
0.000312372
0.000355418
0.000387387
0.000405171
0.000407194
0.000391219
0.000351222
0.000268323
6.92945e-05
6.95328e-05
0.00027269
0.000360051
0.000406282
0.000431117
0.000441209
0.000439001
0.000425106
0.000399409
0.000362241
0.000315943
0.000265686
0.000219689
0.000198737
0.000190804
0.000188168
0.000187409
0.000187238
0.00018724
0.000187412
0.000188168
0.00019079
0.000198675
0.000219457
0.000264876
0.000313499
0.000356565
0.000388394
0.000405973
0.000407787
0.000391631
0.000351485
0.000268459
6.93017e-05
6.95318e-05
0.000272691
0.000360052
0.000406285
0.000431121
0.000441215
0.00043901
0.000425118
0.000399425
0.000362261
0.000315965
0.000265708
0.000219717
0.000198754
0.000190813
0.000188173
0.000187413
0.000187243
0.000187244
0.000187416
0.000188173
0.000190799
0.000198692
0.000219485
0.000264901
0.00031352
0.000356584
0.000388411
0.000405985
0.000407796
0.000391637
0.000351489
0.000268461
6.93005e-05
6.95299e-05
0.000272655
0.000359968
0.000406131
0.000430867
0.000440824
0.000438443
0.000424345
0.000398447
0.000361145
0.000314877
0.000264857
0.000219183
0.000198443
0.000190617
0.000188027
0.000187284
0.000187117
0.000187119
0.000187287
0.000188027
0.000190605
0.000198383
0.000218954
0.000264051
0.00031244
0.000355476
0.000387432
0.000405204
0.000407217
0.000391234
0.000351232
0.000268327
6.92913e-05
6.95267e-05
0.00027258
0.000359793
0.000405811
0.000430336
0.000439993
0.000437202
0.000422582
0.0003961
0.000358317
0.000311988
0.000262561
0.000217735
0.000197609
0.000190101
0.00018765
0.000186957
0.000186803
0.000186806
0.000186962
0.000187653
0.000190091
0.000197555
0.000217513
0.000261753
0.000309567
0.000352658
0.000385075
0.000403411
0.000405935
0.000390366
0.000350685
0.000268044
6.92727e-05
6.95217e-05
0.000272466
0.000359525
0.000405321
0.000429513
0.000438667
0.000435125
0.000419418
0.000391501
0.000352224
0.00030529
0.000257261
0.000214522
0.000195818
0.000188982
0.000186882
0.000186325
0.000186207
0.00018621
0.000186332
0.000186889
0.000188979
0.000195773
0.000214315
0.00025648
0.000302909
0.000346582
0.000380441
0.000400167
0.000403762
0.000388958
0.000349822
0.000267603
6.9242e-05
6.95142e-05
0.000272314
0.000359169
0.000404676
0.000428421
0.000436845
0.000432071
0.000414264
0.000382937
0.000339041
0.000288966
0.000245184
0.000207706
0.000192094
0.000186349
0.000185214
0.000185061
0.000185048
0.000185052
0.000185072
0.000185227
0.000186353
0.000192058
0.000207528
0.00024448
0.000286707
0.000333457
0.000371796
0.000394846
0.000400529
0.000386996
0.000348665
0.000267023
6.91991e-05
6.95038e-05
0.000272121
0.000358732
0.000403913
0.00042715
0.000434675
0.000428128
0.000406599
0.000367418
0.0003087
0.000242202
0.000216769
0.000193189
0.000183692
0.000178469
0.000180418
0.000181443
0.000181693
0.000181698
0.000181456
0.000180429
0.000178456
0.000183629
0.000193027
0.000216264
0.000240392
0.000303383
0.000356144
0.000386883
0.000396308
0.000384646
0.000347344
0.000266384
6.91494e-05
6.94879e-05
0.000271853
0.000358183
0.00040305
0.000425849
0.000432552
0.000424037
0.000397064
0.000341582
0.000233914
7.75544e-05
0.00015199
0.000167195
0.00016837
0.000161413
0.000170003
0.000172999
0.000173581
0.000173577
0.000172981
0.000169941
0.000161225
0.000168036
0.000166773
0.00015191
7.72428e-05
0.000229727
0.00033014
0.000376878
0.000391864
0.000382383
0.000346112
0.0002658
6.91033e-05
6.94577e-05
0.000271398
0.000357368
0.000401972
0.00042458
0.000431035
0.000421633
0.00039039
0.000312114
8.42345e-05
6.96324e-05
0.000164704
0.000181992
0.000184194
0.000186591
0.000187561
0.000187814
0.000187792
0.000187464
0.000186308
0.000183493
0.000180639
0.000162744
6.90383e-05
8.30834e-05
0.000300317
0.000369493
0.000389121
0.000380921
0.000345212
0.000265345
6.90681e-05
6.9389e-05
0.000270477
0.000355881
0.000400223
0.000422962
0.000430183
0.000422893
0.000397967
0.00034536
0.000240913
7.93707e-05
0.000171058
0.000197399
0.000201664
0.000204446
0.000201112
0.000200024
0.000199819
0.000199764
0.000199781
0.000200391
0.000202613
0.000197651
0.000190184
0.000163374
7.76656e-05
0.000231885
0.000330277
0.00037583
0.000390168
0.000380509
0.000344487
0.000264821
6.90287e-05
6.92314e-05
0.000268569
0.000352935
0.00039681
0.000419752
0.000428202
0.000424062
0.000406698
0.000373607
0.000322655
0.000263728
0.000249963
0.000234566
0.000220192
0.000214098
0.000210607
0.000209369
0.00020903
0.000208942
0.000208967
0.000209346
0.00021057
0.000211396
0.000216607
0.000230037
0.000246049
0.000305142
0.000354672
0.000383212
0.000391435
0.000379546
0.000342954
0.000263642
6.89274e-05
6.88911e-05
0.00026481
0.000347256
0.000390147
0.000413005
0.00042252
0.000421183
0.000409562
0.000387403
0.000355243
0.000317614
0.000284852
0.000251671
0.000220502
0.000207925
0.000203403
0.000201937
0.000201507
0.000201399
0.000201439
0.000201785
0.000203091
0.000207104
0.000219822
0.000252573
0.000289698
0.000331601
0.00036557
0.000385404
0.000389372
0.000375755
0.000339011
0.000260787
6.86544e-05
6.8205e-05
0.000257835
0.000336892
0.000377901
0.000400053
0.00041009
0.000410773
0.000403124
0.000387384
0.000363837
0.000333839
0.000300056
0.00026345
0.00022869
0.000214113
0.000208856
0.00020711
0.000206578
0.000206453
0.000206538
0.000207018
0.000208696
0.000213904
0.000228801
0.000264728
0.0003032
0.000338576
0.000365225
0.00037988
0.000381007
0.00036648
0.000330478
0.000254765
6.80359e-05
6.68905e-05
0.000245362
0.000318637
0.000356361
0.000376864
0.000386671
0.000388571
0.000383734
0.000372523
0.00035504
0.000331723
0.000303914
0.000274075
0.000247594
0.000234418
0.000229024
0.00022706
0.000226415
0.000226264
0.0002264
0.000227027
0.00022898
0.000234421
0.000247867
0.000274892
0.000305303
0.000332764
0.000352924
0.000363306
0.000362391
0.000347889
0.000314016
0.000243207
6.67823e-05
6.44336e-05
0.000222847
0.000286182
0.00031836
0.000335824
0.000344441
0.000346775
0.000343966
0.000336417
0.000324217
0.000307616
0.000287602
0.000266453
0.000248243
0.000237959
0.000233266
0.000231385
0.000230713
0.000230553
0.000230719
0.000231397
0.000233295
0.000238042
0.000248469
0.000266898
0.000288107
0.000307365
0.000321336
0.000327996
0.000325869
0.000312718
0.000283225
0.000221514
6.43752e-05
5.98368e-05
0.000177995
0.00022282
0.000245176
0.000257217
0.000263235
0.000265141
0.000263813
0.00025958
0.000252525
0.000242803
0.000231042
0.000218706
0.000208146
0.000201697
0.000198517
0.000197161
0.000196653
0.000196533
0.000196669
0.000197191
0.000198569
0.000201789
0.000208315
0.000218966
0.00023126
0.00024245
0.000250468
0.000253951
0.000251777
0.000242231
0.000221363
0.000177371
5.98155e-05
5.18968e-05
5.98366e-05
6.44366e-05
6.68923e-05
6.81894e-05
6.88249e-05
6.90515e-05
6.89908e-05
6.86867e-05
6.81427e-05
6.73602e-05
6.63806e-05
6.53276e-05
6.4411e-05
6.38304e-05
6.35378e-05
6.3412e-05
6.33646e-05
6.3353e-05
6.33656e-05
6.34138e-05
6.35404e-05
6.38346e-05
6.44193e-05
6.53419e-05
6.63929e-05
6.73304e-05
6.79715e-05
6.8188e-05
6.78483e-05
6.67277e-05
6.43672e-05
5.98138e-05
5.18993e-05
5.4771e-05
6.56956e-05
7.1866e-05
7.52063e-05
7.70461e-05
7.80412e-05
7.85486e-05
7.87765e-05
7.88493e-05
7.88412e-05
7.87974e-05
7.87448e-05
7.86987e-05
7.86648e-05
7.86425e-05
7.86286e-05
7.86204e-05
7.86165e-05
7.86165e-05
7.86201e-05
7.86277e-05
7.86403e-05
7.8659e-05
7.86838e-05
7.87081e-05
7.87111e-05
7.86488e-05
7.84428e-05
7.79623e-05
7.69929e-05
7.51738e-05
7.18483e-05
6.56877e-05
5.47715e-05
6.56959e-05
0.000236644
0.000306619
0.000342437
0.000362608
0.000374066
0.000380225
0.00038308
0.000383919
0.000383609
0.000382754
0.000381761
0.000380886
0.000380231
0.000379791
0.000379513
0.00037935
0.000379274
0.000379273
0.000379346
0.000379499
0.000379751
0.000380122
0.000380613
0.00038112
0.000381337
0.000380672
0.000378186
0.000372484
0.000361472
0.00034167
0.000306128
0.000236365
6.56877e-05
7.18692e-05
0.00030667
0.000412584
0.000468463
0.000500433
0.00051877
0.000528613
0.000532995
0.000533924
0.00053283
0.00053078
0.000528555
0.000526657
0.000525286
0.000524398
0.000523847
0.000523527
0.00052338
0.000523378
0.000523519
0.00052382
0.000524319
0.000525074
0.000526133
0.000527351
0.00052819
0.000527611
0.000524027
0.000515193
0.000497854
0.000466734
0.000411508
0.000306115
7.18503e-05
7.52131e-05
0.000342533
0.000468528
0.000536357
0.000575581
0.000598074
0.000609827
0.000614417
0.000614292
0.000611325
0.000607057
0.000602734
0.000599192
0.000596753
0.000595244
0.000594307
0.000593756
0.000593502
0.0005935
0.000593746
0.000594269
0.000595132
0.000596453
0.000598456
0.000601059
0.000603505
0.000604293
0.000601215
0.000591357
0.000570735
0.000533112
0.000466536
0.000341547
7.51742e-05
7.70572e-05
0.000362759
0.000500601
0.000575724
0.000619322
0.000643976
0.000656019