/*--------------------------------*- C++ -*----------------------------------*\
| =========                 |                                                 |
| \\      /  F ield         | OpenFOAM: The Open Source CFD Toolbox           |
|  \\    /   O peration     | Version:  2112                                  |
|   \\  /    A nd           | Website:  www.openfoam.com                      |
|    \\/     M anipulation  |                                                 |
\*---------------------------------------------------------------------------*/
FoamFile
{
    version     2.0;
    format      ascii;
    arch        "LSB;label=32;scalar=64";
    class       volScalarField;
    location    "4.8";
    object      p;
}
// * * * * * * * * * * * * * * * * * * * * * * * * * * * * * * * * * * * * * //

dimensions      [0 2 -2 0 0 0 0];

internalField   nonuniform List<scalar> 
64906
(
-4.41865e-06
-4.40129e-06
-4.39069e-06
-4.38988e-06
-4.41304e-06
-4.45321e-06
-4.51479e-06
-4.59889e-06
-4.70439e-06
-4.82858e-06
-4.96517e-06
-5.10808e-06
-5.24762e-06
-5.39107e-06
-5.50529e-06
-5.59625e-06
-5.66323e-06
-5.70541e-06
-5.72229e-06
-5.71402e-06
-5.68145e-06
-5.6255e-06
-5.54538e-06
-5.44145e-06
-5.33972e-06
-5.23739e-06
-5.14348e-06
-5.06337e-06
-5.0026e-06
-4.96208e-06
-4.93801e-06
-4.94252e-06
-4.9576e-06
-4.97252e-06
-4.36934e-06
-4.31255e-06
-4.26302e-06
-4.22622e-06
-4.21244e-06
-4.22004e-06
-4.24779e-06
-4.29402e-06
-4.35566e-06
-4.42942e-06
-4.50901e-06
-4.59113e-06
-4.66947e-06
-4.73282e-06
-4.79746e-06
-4.85275e-06
-4.89525e-06
-4.92439e-06
-4.9399e-06
-4.9419e-06
-4.93098e-06
-4.90813e-06
-4.87899e-06
-4.84958e-06
-4.80894e-06
-4.76528e-06
-4.7262e-06
-4.69537e-06
-4.67971e-06
-4.6832e-06
-4.70972e-06
-4.76269e-06
-4.8286e-06
-4.90273e-06
-4.3413e-06
-4.2511e-06
-4.15986e-06
-4.07931e-06
-4.02815e-06
-4.00537e-06
-4.00926e-06
-4.03769e-06
-4.08701e-06
-4.15452e-06
-4.23109e-06
-4.31325e-06
-4.3859e-06
-4.44874e-06
-4.50087e-06
-4.54384e-06
-4.57658e-06
-4.60014e-06
-4.61469e-06
-4.62034e-06
-4.61726e-06
-4.60477e-06
-4.58455e-06
-4.55459e-06
-4.51711e-06
-4.47254e-06
-4.43758e-06
-4.41675e-06
-4.42145e-06
-4.45645e-06
-4.52662e-06
-4.63677e-06
-4.75805e-06
-4.8752e-06
-4.33755e-06
-4.21641e-06
-4.08474e-06
-3.96169e-06
-3.87822e-06
-3.83393e-06
-3.82873e-06
-3.86239e-06
-3.93251e-06
-4.03874e-06
-4.16617e-06
-4.30888e-06
-4.42865e-06
-4.52793e-06
-4.59982e-06
-4.65393e-06
-4.69161e-06
-4.71675e-06
-4.73031e-06
-4.73237e-06
-4.72229e-06
-4.6964e-06
-4.65394e-06
-4.58563e-06
-4.49975e-06
-4.39466e-06
-4.31172e-06
-4.25828e-06
-4.25312e-06
-4.29977e-06
-4.40237e-06
-4.56141e-06
-4.73436e-06
-4.89206e-06
-4.37269e-06
-4.2249e-06
-4.0601e-06
-3.90495e-06
-3.80178e-06
-3.75317e-06
-3.76279e-06
-3.83534e-06
-3.97269e-06
-4.1814e-06
-4.4384e-06
-4.7363e-06
-4.97639e-06
-5.16735e-06
-5.29794e-06
-5.39176e-06
-5.45259e-06
-5.48854e-06
-5.5014e-06
-5.4912e-06
-5.45636e-06
-5.38891e-06
-5.28578e-06
-5.12401e-06
-4.91707e-06
-4.65732e-06
-4.44926e-06
-4.30092e-06
-4.2408e-06
-4.26633e-06
-4.37648e-06
-4.57025e-06
-4.78148e-06
-4.97357e-06
-4.4497e-06
-4.27586e-06
-4.08288e-06
-3.90554e-06
-3.79524e-06
-3.75972e-06
-3.80776e-06
-3.95182e-06
-4.20202e-06
-4.57966e-06
-5.05648e-06
-5.64282e-06
-6.08575e-06
-6.42591e-06
-6.65096e-06
-6.8112e-06
-6.91217e-06
-6.96768e-06
-6.98019e-06
-6.94962e-06
-6.87361e-06
-6.73824e-06
-6.53886e-06
-6.22586e-06
-5.81534e-06
-5.26723e-06
-4.84563e-06
-4.53658e-06
-4.37648e-06
-4.34913e-06
-4.44618e-06
-4.65438e-06
-4.89715e-06
-5.12324e-06
-4.571e-06
-4.3654e-06
-4.14633e-06
-3.9539e-06
-3.84733e-06
-3.83983e-06
-3.94551e-06
-4.18595e-06
-4.58338e-06
-5.19124e-06
-5.96408e-06
-7.05572e-06
-7.77749e-06
-8.31282e-06
-8.65475e-06
-8.89949e-06
-9.05173e-06
-9.13285e-06
-9.14538e-06
-9.0891e-06
-8.96143e-06
-8.74044e-06
-8.42236e-06
-7.9113e-06
-7.22107e-06
-6.1652e-06
-5.45802e-06
-4.92649e-06
-4.63158e-06
-4.52662e-06
-4.59301e-06
-4.80493e-06
-5.07558e-06
-5.33871e-06
-4.72565e-06
-4.48601e-06
-4.24228e-06
-4.04019e-06
-3.94778e-06
-3.98247e-06
-4.16176e-06
-4.51147e-06
-5.06834e-06
-5.91878e-06
-6.99053e-06
-9.00128e-06
-1.00158e-05
-1.07812e-05
-1.12563e-05
-1.16041e-05
-1.18197e-05
-1.19327e-05
-1.19456e-05
-1.1858e-05
-1.16673e-05
-1.13426e-05
-1.08896e-05
-1.01438e-05
-9.15952e-06
-7.17467e-06
-6.18977e-06
-5.42062e-06
-4.97683e-06
-4.78062e-06
-4.80238e-06
-5.01023e-06
-5.30761e-06
-5.61551e-06
-4.91076e-06
-4.6297e-06
-4.36022e-06
-4.15163e-06
-4.08183e-06
-4.16968e-06
-4.43133e-06
-4.88724e-06
-5.53094e-06
-6.50531e-06
-7.91685e-06
-1.16005e-05
-1.26203e-05
-1.35902e-05
-1.41815e-05
-1.46169e-05
-1.48863e-05
-1.50272e-05
-1.50406e-05
-1.4926e-05
-1.46823e-05
-1.42702e-05
-1.36999e-05
-1.274e-05
-1.17497e-05
-8.08362e-06
-6.81579e-06
-5.90077e-06
-5.3708e-06
-5.08294e-06
-5.05237e-06
-5.25247e-06
-5.5792e-06
-5.95548e-06
-5.1185e-06
-4.78768e-06
-4.49539e-06
-4.2859e-06
-4.25424e-06
-4.42029e-06
-4.80227e-06
-5.40421e-06
-6.23782e-06
-8.36802e-06
-6.58799e-06
-1.41673e-05
-1.51504e-05
-1.65318e-05
-1.72929e-05
-1.78647e-05
-1.8217e-05
-1.83978e-05
-1.84116e-05
-1.82581e-05
-1.79327e-05
-1.73854e-05
-1.66454e-05
-1.52604e-05
-1.43374e-05
-6.67108e-06
-8.63967e-06
-6.57037e-06
-5.88677e-06
-5.47115e-06
-5.35345e-06
-5.52959e-06
-5.87586e-06
-6.33304e-06
-5.33818e-06
-4.95096e-06
-4.63305e-06
-4.42475e-06
-4.43919e-06
-4.69507e-06
-5.16792e-06
-5.70296e-06
-6.21681e-06
-4.25548e-06
-2.07546e-05
-1.84612e-05
-1.92754e-05
-1.99238e-05
-2.04984e-05
-2.08783e-05
-2.10712e-05
-2.10849e-05
-2.09192e-05
-2.05661e-05
-2.00157e-05
-1.93851e-05
-1.85709e-05
-2.07983e-05
-4.82469e-06
-6.67096e-06
-6.21816e-06
-5.85074e-06
-5.66632e-06
-5.80891e-06
-6.17685e-06
-6.73246e-06
-5.56122e-06
-5.11465e-06
-4.77273e-06
-4.57506e-06
-4.66701e-06
-5.10975e-06
-5.99211e-06
-7.43089e-06
-9.76452e-06
-1.26492e-05
-1.88185e-05
-1.75277e-05
-1.9784e-05
-2.13018e-05
-2.24099e-05
-2.32434e-05
-2.37561e-05
-2.40007e-05
-2.40142e-05
-2.37968e-05
-2.33118e-05
-2.25065e-05
-2.14271e-05
-1.99424e-05
-1.77179e-05
-1.90823e-05
-1.29e-05
-1.00738e-05
-7.858e-06
-6.6314e-06
-6.08707e-06
-6.11359e-06
-6.47921e-06
-7.14515e-06
-5.7742e-06
-5.26915e-06
-4.8979e-06
-4.69847e-06
-4.83639e-06
-5.38341e-06
-6.42952e-06
-8.03681e-06
-1.02673e-05
-1.2781e-05
-1.69593e-05
-1.9141e-05
-2.09642e-05
-2.25376e-05
-2.37748e-05
-2.46617e-05
-2.52126e-05
-2.54765e-05
-2.54894e-05
-2.52514e-05
-2.47267e-05
-2.38659e-05
-2.26553e-05
-2.11038e-05
-1.92929e-05
-1.71587e-05
-1.30253e-05
-1.05446e-05
-8.42645e-06
-7.04764e-06
-6.37721e-06
-6.36102e-06
-6.7469e-06
-7.54413e-06
-5.96946e-06
-5.41194e-06
-5.01082e-06
-4.8032e-06
-4.96894e-06
-5.58416e-06
-6.73849e-06
-8.49006e-06
-1.08893e-05
-1.37546e-05
-1.7165e-05
-1.96604e-05
-2.18012e-05
-2.34939e-05
-2.47925e-05
-2.5677e-05
-2.62182e-05
-2.6474e-05
-2.64861e-05
-2.62547e-05
-2.57383e-05
-2.48789e-05
-2.36065e-05
-2.19366e-05
-1.98212e-05
-1.73437e-05
-1.39474e-05
-1.1125e-05
-8.84873e-06
-7.34537e-06
-6.60312e-06
-6.5759e-06
-7.00048e-06
-7.89494e-06
-6.13867e-06
-5.53676e-06
-5.10528e-06
-4.88091e-06
-5.05213e-06
-5.69424e-06
-6.89019e-06
-8.69054e-06
-1.11165e-05
-1.40074e-05
-1.71872e-05
-1.99462e-05
-2.22965e-05
-2.40418e-05
-2.53526e-05
-2.62132e-05
-2.6731e-05
-2.69722e-05
-2.69837e-05
-2.67659e-05
-2.62717e-05
-2.54352e-05
-2.41498e-05
-2.24263e-05
-2.01002e-05
-1.73491e-05
-1.41799e-05
-1.13319e-05
-9.0354e-06
-7.50059e-06
-6.74833e-06
-6.74236e-06
-7.21386e-06
-8.1915e-06
-6.27778e-06
-5.64123e-06
-5.18319e-06
-4.94061e-06
-5.10797e-06
-5.7591e-06
-6.97134e-06
-8.79147e-06
-1.12277e-05
-1.41379e-05
-1.72836e-05
-2.01753e-05
-2.26312e-05
-2.44151e-05
-2.57303e-05
-2.65692e-05
-2.70649e-05
-2.72921e-05
-2.73035e-05
-2.70994e-05
-2.66272e-05
-2.58123e-05
-2.45226e-05
-2.27602e-05
-2.0327e-05
-1.74381e-05
-1.43002e-05
-1.14332e-05
-9.13283e-06
-7.59309e-06
-6.85047e-06
-6.87332e-06
-7.38659e-06
-8.43117e-06
-6.38379e-06
-5.72232e-06
-5.24327e-06
-4.98417e-06
-5.14365e-06
-5.79443e-06
-7.01059e-06
-8.83838e-06
-1.12816e-05
-1.4213e-05
-1.73767e-05
-2.03434e-05
-2.28679e-05
-2.46809e-05
-2.60009e-05
-2.68282e-05
-2.7311e-05
-2.75301e-05
-2.7542e-05
-2.73468e-05
-2.68882e-05
-2.60858e-05
-2.47924e-05
-2.30021e-05
-2.05006e-05
-1.75323e-05
-1.4373e-05
-1.14848e-05
-9.18241e-06
-7.64641e-06
-6.91914e-06
-6.96933e-06
-7.51524e-06
-8.61119e-06
-6.45569e-06
-5.77894e-06
-5.2863e-06
-5.01602e-06
-5.16966e-06
-5.81977e-06
-7.03943e-06
-8.87558e-06
-1.1331e-05
-1.42854e-05
-1.7475e-05
-2.04733e-05
-2.30601e-05
-2.48998e-05
-2.62295e-05
-2.70562e-05
-2.75359e-05
-2.77528e-05
-2.77656e-05
-2.75744e-05
-2.71208e-05
-2.63206e-05
-2.50195e-05
-2.32062e-05
-2.06613e-05
-1.76392e-05
-1.4448e-05
-1.15357e-05
-9.22405e-06
-7.68698e-06
-6.96842e-06
-7.0359e-06
-7.60174e-06
-8.73165e-06
-6.49328e-06
-5.81057e-06
-5.31234e-06
-5.0375e-06
-5.18933e-06
-5.84105e-06
-7.06657e-06
-8.91395e-06
-1.13866e-05
-1.43648e-05
-1.75815e-05
-2.06073e-05
-2.3221e-05
-2.50798e-05
-2.64217e-05
-2.72567e-05
-2.77413e-05
-2.79613e-05
-2.79755e-05
-2.77839e-05
-2.73278e-05
-2.65216e-05
-2.52099e-05
-2.33791e-05
-2.08094e-05
-1.7754e-05
-1.45323e-05
-1.15948e-05
-9.26689e-06
-7.72153e-06
-7.00212e-06
-7.07467e-06
-7.6478e-06
-8.79233e-06
-6.49701e-06
-5.81761e-06
-5.32172e-06
-5.04885e-06
-5.2029e-06
-5.85849e-06
-7.09182e-06
-8.95239e-06
-1.14462e-05
-1.44489e-05
-1.76953e-05
-2.07348e-05
-2.33519e-05
-2.52207e-05
-2.65754e-05
-2.74257e-05
-2.79226e-05
-2.81504e-05
-2.81663e-05
-2.79704e-05
-2.7505e-05
-2.6686e-05
-2.5363e-05
-2.35221e-05
-2.09455e-05
-1.78757e-05
-1.46231e-05
-1.16598e-05
-9.30964e-06
-7.74976e-06
-7.02062e-06
-7.08661e-06
-7.65506e-06
-8.79365e-06
-6.46847e-06
-5.80173e-06
-5.31532e-06
-5.04948e-06
-5.2072e-06
-5.86523e-06
-7.10434e-06
-8.977e-06
-1.14959e-05
-1.45266e-05
-1.78197e-05
-2.08737e-05
-2.34535e-05
-2.53215e-05
-2.66891e-05
-2.75623e-05
-2.80789e-05
-2.83192e-05
-2.83373e-05
-2.81332e-05
-2.76521e-05
-2.68136e-05
-2.54793e-05
-2.36371e-05
-2.10785e-05
-1.80091e-05
-1.47122e-05
-1.17202e-05
-9.34282e-06
-7.76574e-06
-7.02185e-06
-7.07248e-06
-7.62501e-06
-8.73847e-06
-6.40979e-06
-5.76495e-06
-5.29324e-06
-5.0359e-06
-5.1928e-06
-5.84251e-06
-7.0719e-06
-8.93936e-06
-1.14735e-05
-1.45318e-05
-1.79316e-05
-2.09661e-05
-2.34858e-05
-2.53348e-05
-2.67063e-05
-2.76058e-05
-2.81475e-05
-2.84046e-05
-2.84255e-05
-2.82104e-05
-2.77094e-05
-2.68495e-05
-2.55144e-05
-2.36923e-05
-2.1189e-05
-1.81358e-05
-1.47361e-05
-1.17185e-05
-9.32391e-06
-7.74366e-06
-6.99373e-06
-7.02925e-06
-7.55802e-06
-8.62939e-06
-6.32554e-06
-5.71166e-06
-5.25851e-06
-5.00897e-06
-5.15687e-06
-5.78111e-06
-6.97449e-06
-8.80465e-06
-1.13429e-05
-1.44365e-05
-1.81068e-05
-2.10448e-05
-2.34248e-05
-2.52412e-05
-2.66066e-05
-2.7533e-05
-2.81004e-05
-2.83752e-05
-2.84005e-05
-2.81766e-05
-2.76588e-05
-2.67813e-05
-2.54595e-05
-2.36758e-05
-2.13032e-05
-1.83415e-05
-1.46894e-05
-1.16342e-05
-9.22877e-06
-7.67235e-06
-6.93521e-06
-6.96252e-06
-7.46388e-06
-8.47056e-06
-6.2209e-06
-5.64511e-06
-5.21049e-06
-4.96176e-06
-5.08085e-06
-5.64075e-06
-6.72923e-06
-8.40339e-06
-1.07162e-05
-1.34009e-05
-1.81011e-05
-2.13848e-05
-2.32178e-05
-2.48725e-05
-2.61697e-05
-2.70977e-05
-2.7679e-05
-2.79681e-05
-2.79998e-05
-2.77748e-05
-2.72567e-05
-2.63936e-05
-2.51549e-05
-2.35536e-05
-2.17482e-05
-1.83709e-05
-1.36933e-05
-1.10623e-05
-8.89194e-06
-7.47795e-06
-6.81481e-06
-6.86382e-06
-7.35853e-06
-8.25414e-06
-6.10604e-06
-5.57337e-06
-5.1588e-06
-4.90913e-06
-4.98992e-06
-5.46579e-06
-6.43459e-06
-8.02661e-06
-1.06081e-05
-1.40071e-05
-1.94351e-05
-1.9869e-05
-2.25153e-05
-2.44039e-05
-2.56634e-05
-2.65955e-05
-2.71765e-05
-2.74688e-05
-2.75124e-05
-2.73095e-05
-2.6818e-05
-2.5979e-05
-2.47961e-05
-2.29783e-05
-2.03585e-05
-1.9664e-05
-1.45437e-05
-1.11479e-05
-8.65757e-06
-7.27268e-06
-6.67777e-06
-6.75342e-06
-7.22767e-06
-8.04543e-06
-5.98858e-06
-5.49934e-06
-5.10167e-06
-4.84228e-06
-4.85616e-06
-5.15488e-06
-5.67943e-06
-6.1766e-06
-6.56795e-06
-3.54184e-06
-2.60452e-05
-2.27199e-05
-2.35839e-05
-2.43292e-05
-2.50091e-05
-2.54817e-05
-2.57434e-05
-2.58005e-05
-2.56575e-05
-2.53083e-05
-2.47668e-05
-2.41372e-05
-2.34079e-05
-2.66824e-05
-4.04321e-06
-7.20096e-06
-6.90894e-06
-6.61214e-06
-6.41592e-06
-6.60233e-06
-7.0836e-06
-7.82867e-06
-5.88304e-06
-5.43512e-06
-5.06173e-06
-4.81273e-06
-4.81908e-06
-5.12371e-06
-5.79576e-06
-6.92741e-06
-8.77115e-06
-1.17547e-05
-1.24777e-05
-1.83566e-05
-2.02353e-05
-2.20471e-05
-2.32139e-05
-2.41022e-05
-2.46803e-05
-2.50024e-05
-2.50798e-05
-2.49217e-05
-2.45175e-05
-2.38281e-05
-2.2822e-05
-2.12324e-05
-1.94182e-05
-1.40944e-05
-1.30984e-05
-9.93586e-06
-7.96017e-06
-6.86649e-06
-6.42475e-06
-6.53403e-06
-6.96389e-06
-7.64172e-06
-5.79596e-06
-5.38544e-06
-5.03759e-06
-4.80148e-06
-4.79561e-06
-5.05933e-06
-5.63675e-06
-6.5606e-06
-7.84434e-06
-9.48104e-06
-1.28786e-05
-1.69763e-05
-1.87627e-05
-2.04374e-05
-2.16497e-05
-2.25801e-05
-2.31836e-05
-2.3524e-05
-2.36152e-05
-2.34715e-05
-2.30819e-05
-2.24077e-05
-2.13964e-05
-1.99897e-05
-1.82653e-05
-1.43871e-05
-1.06839e-05
-8.98369e-06
-7.63895e-06
-6.75474e-06
-6.36718e-06
-6.46158e-06
-6.85639e-06
-7.47719e-06
-5.73672e-06
-5.36324e-06
-5.04905e-06
-4.83822e-06
-4.8365e-06
-5.08275e-06
-5.6284e-06
-6.53713e-06
-7.90614e-06
-9.77911e-06
-1.21715e-05
-1.50169e-05
-1.70767e-05
-1.88131e-05
-2.00815e-05
-2.10544e-05
-2.16775e-05
-2.20257e-05
-2.21212e-05
-2.19827e-05
-2.15933e-05
-2.09145e-05
-1.98868e-05
-1.8465e-05
-1.65517e-05
-1.38153e-05
-1.13033e-05
-9.23873e-06
-7.71904e-06
-6.78565e-06
-6.37912e-06
-6.44108e-06
-6.79222e-06
-7.36546e-06
-5.70531e-06
-5.37618e-06
-5.10575e-06
-4.93108e-06
-4.94213e-06
-5.17134e-06
-5.662e-06
-6.46732e-06
-7.6477e-06
-9.24514e-06
-1.12374e-05
-1.3458e-05
-1.53761e-05
-1.7047e-05
-1.82839e-05
-1.92184e-05
-1.98131e-05
-2.01444e-05
-2.02385e-05
-2.01151e-05
-1.97567e-05
-1.91265e-05
-1.81572e-05
-1.68269e-05
-1.50497e-05
-1.28756e-05
-1.07522e-05
-8.97782e-06
-7.65653e-06
-6.81542e-06
-6.4358e-06
-6.47485e-06
-6.78038e-06
-7.30671e-06
-5.71776e-06
-5.43448e-06
-5.22268e-06
-5.10189e-06
-5.14418e-06
-5.37337e-06
-5.8198e-06
-6.52039e-06
-7.51408e-06
-8.81965e-06
-1.04026e-05
-1.21492e-05
-1.37843e-05
-1.52612e-05
-1.63842e-05
-1.72275e-05
-1.77696e-05
-1.80732e-05
-1.81631e-05
-1.80566e-05
-1.77382e-05
-1.71774e-05
-1.63173e-05
-1.51507e-05
-1.3634e-05
-1.19165e-05
-1.02298e-05
-8.78049e-06
-7.67266e-06
-6.94559e-06
-6.59588e-06
-6.59951e-06
-6.84034e-06
-7.30247e-06
-5.76167e-06
-5.53971e-06
-5.40679e-06
-5.36383e-06
-5.46061e-06
-5.71263e-06
-6.14194e-06
-6.77231e-06
-7.62317e-06
-8.69648e-06
-9.95661e-06
-1.133e-05
-1.26612e-05
-1.38776e-05
-1.48285e-05
-1.55471e-05
-1.60187e-05
-1.62866e-05
-1.63691e-05
-1.62791e-05
-1.60051e-05
-1.55266e-05
-1.48049e-05
-1.38421e-05
-1.26242e-05
-1.12845e-05
-9.96486e-06
-8.8009e-06
-7.87933e-06
-7.24093e-06
-6.89615e-06
-6.83531e-06
-6.97825e-06
-7.35221e-06
-5.81917e-06
-5.66959e-06
-5.61763e-06
-5.65587e-06
-5.81936e-06
-6.12117e-06
-6.57655e-06
-7.19672e-06
-7.98565e-06
-8.93436e-06
-1.00185e-05
-1.11779e-05
-1.23057e-05
-1.33369e-05
-1.41672e-05
-1.48038e-05
-1.52346e-05
-1.54838e-05
-1.55622e-05
-1.54778e-05
-1.52238e-05
-1.47888e-05
-1.41526e-05
-1.33231e-05
-1.23053e-05
-1.11967e-05
-1.00907e-05
-9.1e-06
-8.28135e-06
-7.67331e-06
-7.29406e-06
-7.14498e-06
-7.18075e-06
-7.42079e-06
-5.86756e-06
-5.80687e-06
-5.82685e-06
-5.93407e-06
-6.16249e-06
-6.53139e-06
-7.05562e-06
-7.74703e-06
-8.60853e-06
-9.62407e-06
-1.07443e-05
-1.19117e-05
-1.30437e-05
-1.40799e-05
-1.49381e-05
-1.56088e-05
-1.60757e-05
-1.63482e-05
-1.6432e-05
-1.63316e-05
-1.60432e-05
-1.55616e-05
-1.48798e-05
-1.40144e-05
-1.29859e-05
-1.18778e-05
-1.07732e-05
-9.74649e-06
-8.87478e-06
-8.20128e-06
-7.74113e-06
-7.49035e-06
-7.40979e-06
-7.49458e-06
-4.46386e-06
-4.46633e-06
-4.47686e-06
-4.49744e-06
-4.52839e-06
-4.58249e-06
-4.66112e-06
-4.76554e-06
-4.89469e-06
-5.04585e-06
-5.21134e-06
-5.3844e-06
-5.55309e-06
-5.71237e-06
-5.84797e-06
-5.95684e-06
-6.03609e-06
-6.08465e-06
-6.10188e-06
-6.08796e-06
-6.04383e-06
-5.97079e-06
-5.87188e-06
-5.7518e-06
-5.62326e-06
-5.49242e-06
-5.37114e-06
-5.26544e-06
-5.18208e-06
-5.12239e-06
-5.08749e-06
-5.06042e-06
-5.04309e-06
-5.03128e-06
-4.42552e-06
-4.40466e-06
-4.39509e-06
-4.39061e-06
-4.40256e-06
-4.43528e-06
-4.49066e-06
-4.56857e-06
-4.66551e-06
-4.77827e-06
-4.89736e-06
-5.02032e-06
-5.13728e-06
-5.24581e-06
-5.34128e-06
-5.42071e-06
-5.47986e-06
-5.51808e-06
-5.53465e-06
-5.5297e-06
-5.50432e-06
-5.45949e-06
-5.4001e-06
-5.32843e-06
-5.25051e-06
-5.16807e-06
-5.09153e-06
-5.02323e-06
-4.97257e-06
-4.94206e-06
-4.93324e-06
-4.94186e-06
-4.95455e-06
-4.97507e-06
-4.41206e-06
-4.38618e-06
-4.36701e-06
-4.34301e-06
-4.33931e-06
-4.36219e-06
-4.41527e-06
-4.49975e-06
-4.61151e-06
-4.74999e-06
-4.89879e-06
-5.05985e-06
-5.20451e-06
-5.33819e-06
-5.44754e-06
-5.53629e-06
-5.5999e-06
-5.64003e-06
-5.65614e-06
-5.64832e-06
-5.61749e-06
-5.56227e-06
-5.48773e-06
-5.39008e-06
-5.28379e-06
-5.1634e-06
-5.05899e-06
-4.96877e-06
-4.91009e-06
-4.88314e-06
-4.88886e-06
-4.92041e-06
-4.94394e-06
-4.96635e-06
-4.4226e-06
-4.38422e-06
-4.34964e-06
-4.30423e-06
-4.28643e-06
-4.30623e-06
-4.37048e-06
-4.48399e-06
-4.64302e-06
-4.85333e-06
-5.08566e-06
-5.35094e-06
-5.57654e-06
-5.78132e-06
-5.93748e-06
-6.05954e-06
-6.14212e-06
-6.19126e-06
-6.20677e-06
-6.18872e-06
-6.1376e-06
-6.04756e-06
-5.92468e-06
-5.75467e-06
-5.56698e-06
-5.34308e-06
-5.15872e-06
-5.00299e-06
-4.90746e-06
-4.86612e-06
-4.87805e-06
-4.92965e-06
-4.96866e-06
-5.00207e-06
-4.47185e-06
-4.41723e-06
-4.36903e-06
-4.30908e-06
-4.28759e-06
-4.31926e-06
-4.4155e-06
-4.5874e-06
-4.83296e-06
-5.17222e-06
-5.55442e-06
-6.01626e-06
-6.38576e-06
-6.71526e-06
-6.953e-06
-7.13421e-06
-7.25111e-06
-7.3171e-06
-7.33216e-06
-7.29626e-06
-7.20969e-06
-7.05903e-06
-6.85304e-06
-6.55679e-06
-6.22493e-06
-5.80542e-06
-5.47625e-06
-5.19912e-06
-5.02904e-06
-4.94547e-06
-4.94436e-06
-5.00379e-06
-5.05308e-06
-5.10293e-06
-4.56294e-06
-4.48733e-06
-4.4275e-06
-4.36062e-06
-4.3468e-06
-4.40579e-06
-4.55394e-06
-4.81052e-06
-5.17626e-06
-5.69867e-06
-6.30052e-06
-7.08904e-06
-7.66718e-06
-8.17716e-06
-8.5282e-06
-8.79305e-06
-8.9585e-06
-9.04898e-06
-9.0638e-06
-9.00278e-06
-8.86677e-06
-8.63105e-06
-8.31002e-06
-7.83104e-06
-7.28989e-06
-6.54401e-06
-6.00208e-06
-5.54978e-06
-5.27249e-06
-5.12173e-06
-5.09001e-06
-5.1442e-06
-5.19977e-06
-5.275e-06
-4.69297e-06
-4.59365e-06
-4.52431e-06
-4.45716e-06
-4.46103e-06
-4.55959e-06
-4.7729e-06
-5.12839e-06
-5.62889e-06
-6.38121e-06
-7.26261e-06
-8.58868e-06
-9.41825e-06
-1.01398e-05
-1.06107e-05
-1.09663e-05
-1.11827e-05
-1.12999e-05
-1.13147e-05
-1.12268e-05
-1.10394e-05
-1.07115e-05
-1.02686e-05
-9.57447e-06
-8.78073e-06
-7.49594e-06
-6.68548e-06
-6.01086e-06
-5.61189e-06
-5.38027e-06
-5.30676e-06
-5.34792e-06
-5.40875e-06
-5.51625e-06
-4.86389e-06
-4.73222e-06
-4.6556e-06
-4.59582e-06
-4.62996e-06
-4.78322e-06
-5.07604e-06
-5.53454e-06
-6.16144e-06
-7.09932e-06
-8.29594e-06
-1.05324e-05
-1.15799e-05
-1.25295e-05
-1.31284e-05
-1.35941e-05
-1.38746e-05
-1.40256e-05
-1.40406e-05
-1.39192e-05
-1.36678e-05
-1.3229e-05
-1.2656e-05
-1.17279e-05
-1.07122e-05
-8.50972e-06
-7.40474e-06
-6.54824e-06
-6.03569e-06
-5.71927e-06
-5.59211e-06
-5.61092e-06
-5.67389e-06
-5.82508e-06
-5.0677e-06
-4.89433e-06
-4.81031e-06
-4.76184e-06
-4.83292e-06
-5.04507e-06
-5.41033e-06
-5.93961e-06
-6.55845e-06
-7.5318e-06
-8.95465e-06
-1.31859e-05
-1.39919e-05
-1.49725e-05
-1.56097e-05
-1.61208e-05
-1.64249e-05
-1.65922e-05
-1.66074e-05
-1.64699e-05
-1.61951e-05
-1.57106e-05
-1.50984e-05
-1.41288e-05
-1.33472e-05
-9.1394e-06
-7.8706e-06
-6.95864e-06
-6.45901e-06
-6.08648e-06
-5.91267e-06
-5.90965e-06
-5.97667e-06
-6.18181e-06
-5.29735e-06
-5.07391e-06
-4.98809e-06
-4.96558e-06
-5.10207e-06
-5.41721e-06
-5.92458e-06
-6.56015e-06
-7.27243e-06
-9.17208e-06
-6.20126e-06
-1.5182e-05
-1.59154e-05
-1.72017e-05
-1.79568e-05
-1.86137e-05
-1.89898e-05
-1.91897e-05
-1.92047e-05
-1.90343e-05
-1.86882e-05
-1.80598e-05
-1.73326e-05
-1.60569e-05
-1.53621e-05
-6.2676e-06
-9.45039e-06
-7.62733e-06
-7.06786e-06
-6.60846e-06
-6.32318e-06
-6.26087e-06
-6.31387e-06
-6.5939e-06
-5.54051e-06
-5.25742e-06
-5.16704e-06
-5.1699e-06
-5.37085e-06
-5.78247e-06
-6.38534e-06
-6.9955e-06
-7.19201e-06
-3.54254e-06
-2.16066e-05
-1.81786e-05
-1.87866e-05
-1.94192e-05
-1.99417e-05
-2.02829e-05
-2.04668e-05
-2.04809e-05
-2.03247e-05
-2.00109e-05
-1.95139e-05
-1.8902e-05
-1.82925e-05
-2.16221e-05
-4.19496e-06
-7.65639e-06
-7.52522e-06
-7.07942e-06
-6.71794e-06
-6.60148e-06
-6.64831e-06
-7.03229e-06
-5.78834e-06
-5.44287e-06
-5.3575e-06
-5.41107e-06
-5.73884e-06
-6.39908e-06
-7.48645e-06
-9.04466e-06
-1.15408e-05
-1.40065e-05
-1.97929e-05
-1.69405e-05
-1.8673e-05
-2.00559e-05
-2.10719e-05
-2.17177e-05
-2.21429e-05
-2.23602e-05
-2.23735e-05
-2.21828e-05
-2.17842e-05
-2.11648e-05
-2.0175e-05
-1.88205e-05
-1.7114e-05
-2.0041e-05
-1.42163e-05
-1.18202e-05
-9.46718e-06
-8.11581e-06
-7.31481e-06
-7.00483e-06
-6.99119e-06
-7.48725e-06
-6.02529e-06
-5.61785e-06
-5.52744e-06
-5.60887e-06
-6.01101e-06
-6.79829e-06
-8.0621e-06
-9.78661e-06
-1.21027e-05
-1.42e-05
-1.77426e-05
-1.85533e-05
-1.94328e-05
-2.03453e-05
-2.1166e-05
-2.17719e-05
-2.21987e-05
-2.24185e-05
-2.24307e-05
-2.22349e-05
-2.18313e-05
-2.12458e-05
-2.04425e-05
-1.95382e-05
-1.86558e-05
-1.78926e-05
-1.43989e-05
-1.23509e-05
-1.01711e-05
-8.66831e-06
-7.71995e-06
-7.32961e-06
-7.30252e-06
-7.91729e-06
-6.2431e-06
-5.78231e-06
-5.68753e-06
-5.79389e-06
-6.26297e-06
-7.16609e-06
-8.59207e-06
-1.05155e-05
-1.29692e-05
-1.54353e-05
-1.81215e-05
-1.93563e-05
-2.03009e-05
-2.11247e-05
-2.18935e-05
-2.24655e-05
-2.28725e-05
-2.30796e-05
-2.30909e-05
-2.29059e-05
-2.25201e-05
-2.19662e-05
-2.12126e-05
-2.03948e-05
-1.9458e-05
-1.82377e-05
-1.558e-05
-1.31746e-05
-1.08643e-05
-9.181e-06
-8.10037e-06
-7.63935e-06
-7.60046e-06
-8.30726e-06
-6.43141e-06
-5.92634e-06
-5.82136e-06
-5.93539e-06
-6.43651e-06
-7.39534e-06
-8.88891e-06
-1.08865e-05
-1.33513e-05
-1.58961e-05
-1.83652e-05
-1.98486e-05
-2.09222e-05
-2.17221e-05
-2.24685e-05
-2.30147e-05
-2.34061e-05
-2.36037e-05
-2.36145e-05
-2.34381e-05
-2.30668e-05
-2.25369e-05
-2.18042e-05
-2.10077e-05
-1.99421e-05
-1.84621e-05
-1.60191e-05
-1.3539e-05
-1.12234e-05
-9.48197e-06
-8.35938e-06
-7.88119e-06
-7.8541e-06
-8.63531e-06
-6.58585e-06
-6.04783e-06
-5.93317e-06
-6.04927e-06
-6.56947e-06
-7.56372e-06
-9.10059e-06
-1.11483e-05
-1.36311e-05
-1.62219e-05
-1.86382e-05
-2.0254e-05
-2.14026e-05
-2.22226e-05
-2.29739e-05
-2.35098e-05
-2.38915e-05
-2.4082e-05
-2.40929e-05
-2.39237e-05
-2.35621e-05
-2.30424e-05
-2.2305e-05
-2.1487e-05
-2.03427e-05
-1.87271e-05
-1.63349e-05
-1.38104e-05
-1.14829e-05
-9.70539e-06
-8.56132e-06
-8.07897e-06
-8.06498e-06
-8.89864e-06
-6.70292e-06
-6.14195e-06
-6.01821e-06
-6.13142e-06
-6.65851e-06
-7.66871e-06
-9.2254e-06
-1.12982e-05
-1.37934e-05
-1.64205e-05
-1.88434e-05
-2.05484e-05
-2.17417e-05
-2.25821e-05
-2.33414e-05
-2.38741e-05
-2.42522e-05
-2.44397e-05
-2.44512e-05
-2.4286e-05
-2.39292e-05
-2.34137e-05
-2.26693e-05
-2.183e-05
-2.06314e-05
-1.89313e-05
-1.65322e-05
-1.39726e-05
-1.16378e-05
-9.84618e-06
-8.69873e-06
-8.22296e-06
-8.22343e-06
-9.09375e-06
-6.78178e-06
-6.20757e-06
-6.07799e-06
-6.18847e-06
-6.71869e-06
-7.73797e-06
-9.30779e-06
-1.13992e-05
-1.39114e-05
-1.65697e-05
-1.90185e-05
-2.07948e-05
-2.19996e-05
-2.28559e-05
-2.36247e-05
-2.41606e-05
-2.45396e-05
-2.47275e-05
-2.474e-05
-2.45766e-05
-2.42208e-05
-2.37041e-05
-2.29514e-05
-2.20944e-05
-2.0865e-05
-1.91089e-05
-1.66851e-05
-1.40948e-05
-1.17464e-05
-9.94297e-06
-8.79277e-06
-8.32156e-06
-8.33086e-06
-9.22272e-06
-6.82231e-06
-6.24386e-06
-6.11209e-06
-6.22118e-06
-6.75247e-06
-7.7761e-06
-9.35442e-06
-1.14596e-05
-1.39907e-05
-1.66747e-05
-1.91515e-05
-2.09588e-05
-2.21789e-05
-2.30481e-05
-2.3826e-05
-2.43689e-05
-2.47528e-05
-2.49437e-05
-2.49577e-05
-2.47942e-05
-2.44364e-05
-2.39152e-05
-2.31553e-05
-2.22862e-05
-2.10406e-05
-1.92512e-05
-1.67984e-05
-1.41817e-05
-1.18155e-05
-1.00009e-05
-8.84616e-06
-8.37532e-06
-8.38715e-06
-9.28689e-06
-6.82502e-06
-6.25134e-06
-6.12101e-06
-6.22996e-06
-6.76019e-06
-7.78331e-06
-9.36476e-06
-1.14779e-05
-1.40291e-05
-1.67343e-05
-1.92439e-05
-2.1061e-05
-2.22857e-05
-2.31625e-05
-2.39474e-05
-2.45002e-05
-2.48917e-05
-2.50882e-05
-2.51041e-05
-2.49389e-05
-2.4577e-05
-2.40492e-05
-2.32849e-05
-2.24107e-05
-2.11621e-05
-1.93591e-05
-1.6871e-05
-1.42315e-05
-1.18442e-05
-1.002e-05
-8.85964e-06
-8.38545e-06
-8.39377e-06
-9.28739e-06
-6.79155e-06
-6.23225e-06
-6.10658e-06
-6.21557e-06
-6.74078e-06
-7.75573e-06
-9.3323e-06
-1.14449e-05
-1.40186e-05
-1.67404e-05
-1.93017e-05
-2.10909e-05
-2.23224e-05
-2.32048e-05
-2.39961e-05
-2.45632e-05
-2.49657e-05
-2.51705e-05
-2.5189e-05
-2.50206e-05
-2.46521e-05
-2.41143e-05
-2.33468e-05
-2.2472e-05
-2.12359e-05
-1.94401e-05
-1.68974e-05
-1.42392e-05
-1.18275e-05
-9.99832e-06
-8.83419e-06
-8.35522e-06
-8.3546e-06
-9.22625e-06
-6.72399e-06
-6.18879e-06
-6.06835e-06
-6.17245e-06
-6.6802e-06
-7.66618e-06
-9.21103e-06
-1.12925e-05
-1.38757e-05
-1.66074e-05
-1.9294e-05
-2.10557e-05
-2.22593e-05
-2.31362e-05
-2.39268e-05
-2.45096e-05
-2.49257e-05
-2.51415e-05
-2.51632e-05
-2.49904e-05
-2.46142e-05
-2.40665e-05
-2.33037e-05
-2.24393e-05
-2.12395e-05
-1.94578e-05
-1.67932e-05
-1.41256e-05
-1.17035e-05
-9.89717e-06
-8.75043e-06
-8.27871e-06
-8.27098e-06
-9.10453e-06
-6.6276e-06
-6.12747e-06
-6.01364e-06
-6.10904e-06
-6.58884e-06
-7.52779e-06
-9.01715e-06
-1.10391e-05
-1.36323e-05
-1.63299e-05
-1.93053e-05
-2.10198e-05
-2.21153e-05
-2.30258e-05
-2.38419e-05
-2.44557e-05
-2.48914e-05
-2.51213e-05
-2.51478e-05
-2.49708e-05
-2.45842e-05
-2.40159e-05
-2.32349e-05
-2.23459e-05
-2.12541e-05
-1.95082e-05
-1.65689e-05
-1.39342e-05
-1.15003e-05
-9.74091e-06
-8.62899e-06
-8.17411e-06
-8.15847e-06
-8.9299e-06
-6.50798e-06
-6.05093e-06
-5.93856e-06
-6.0096e-06
-6.42837e-06
-7.26016e-06
-8.59314e-06
-1.04071e-05
-1.28021e-05
-1.50539e-05
-1.91078e-05
-2.11315e-05
-2.18747e-05
-2.27964e-05
-2.36284e-05
-2.42639e-05
-2.47168e-05
-2.49621e-05
-2.49942e-05
-2.48134e-05
-2.44204e-05
-2.38447e-05
-2.30613e-05
-2.21855e-05
-2.14671e-05
-1.93403e-05
-1.53416e-05
-1.31722e-05
-1.09503e-05
-9.38504e-06
-8.40212e-06
-8.01623e-06
-8.01716e-06
-8.70687e-06
-6.37733e-06
-5.97136e-06
-5.86467e-06
-5.91593e-06
-6.27957e-06
-7.01523e-06
-8.22008e-06
-9.92414e-06
-1.261e-05
-1.5572e-05
-2.0302e-05
-1.94547e-05
-2.14936e-05
-2.31128e-05
-2.4206e-05
-2.49195e-05
-2.53999e-05
-2.56609e-05
-2.57041e-05
-2.55311e-05
-2.51321e-05
-2.45016e-05
-2.34701e-05
-2.19261e-05
-1.99202e-05
-2.04945e-05
-1.60769e-05
-1.31483e-05
-1.06049e-05
-9.11108e-06
-8.21384e-06
-7.87588e-06
-7.87751e-06
-8.47352e-06
-6.2435e-06
-5.88772e-06
-5.77787e-06
-5.78858e-06
-6.0447e-06
-6.55218e-06
-7.26611e-06
-7.89302e-06
-7.8309e-06
-2.50955e-06
-2.71719e-05
-2.21766e-05
-2.26735e-05
-2.32706e-05
-2.38106e-05
-2.42e-05
-2.44334e-05
-2.44861e-05
-2.43617e-05
-2.40726e-05
-2.36437e-05
-2.31219e-05
-2.2737e-05
-2.76751e-05
-3.0614e-06
-8.52636e-06
-8.72647e-06
-8.28758e-06
-7.83202e-06
-7.66527e-06
-7.71685e-06
-8.23138e-06
-6.12293e-06
-5.81546e-06
-5.71906e-06
-5.72976e-06
-5.97536e-06
-6.49465e-06
-7.34356e-06
-8.50864e-06
-1.0232e-05
-1.2981e-05
-1.25294e-05
-1.89776e-05
-2.03053e-05
-2.17928e-05
-2.27004e-05
-2.35082e-05
-2.4026e-05
-2.43297e-05
-2.43992e-05
-2.42399e-05
-2.38506e-05
-2.31814e-05
-2.23268e-05
-2.10014e-05
-1.97543e-05
-1.41131e-05
-1.42254e-05
-1.14117e-05
-9.59623e-06
-8.48967e-06
-7.82061e-06
-7.58014e-06
-7.58807e-06
-8.02553e-06
-6.02184e-06
-5.75455e-06
-5.6687e-06
-5.67411e-06
-5.8882e-06
-6.35037e-06
-7.10253e-06
-8.14912e-06
-9.46815e-06
-1.09678e-05
-1.41301e-05
-1.81523e-05
-1.91681e-05
-2.02434e-05
-2.10339e-05
-2.17804e-05
-2.22779e-05
-2.25837e-05
-2.26629e-05
-2.25237e-05
-2.21678e-05
-2.15737e-05
-2.07941e-05
-1.98082e-05
-1.89261e-05
-1.53496e-05
-1.20521e-05
-1.06046e-05
-9.28664e-06
-8.30178e-06
-7.69334e-06
-7.46237e-06
-7.45988e-06
-7.85236e-06
-5.95157e-06
-5.72048e-06
-5.65491e-06
-5.67436e-06
-5.88765e-06
-6.33952e-06
-7.08163e-06
-8.14336e-06
-9.57482e-06
-1.13544e-05
-1.35929e-05
-1.61064e-05
-1.7435e-05
-1.85426e-05
-1.93723e-05
-2.01503e-05
-2.06646e-05
-2.09758e-05
-2.10578e-05
-2.09214e-05
-2.05584e-05
-1.99602e-05
-1.91432e-05
-1.81151e-05
-1.69156e-05
-1.477e-05
-1.25942e-05
-1.08091e-05
-9.34824e-06
-8.31242e-06
-7.6757e-06
-7.41306e-06
-7.37831e-06
-7.72257e-06
-5.91691e-06
-5.71564e-06
-5.67346e-06
-5.71116e-06
-5.92224e-06
-6.34745e-06
-7.03196e-06
-8.00485e-06
-9.28724e-06
-1.08789e-05
-1.2683e-05
-1.45741e-05
-1.58605e-05
-1.69477e-05
-1.78002e-05
-1.8555e-05
-1.90563e-05
-1.93598e-05
-1.94435e-05
-1.93194e-05
-1.89782e-05
-1.84198e-05
-1.76225e-05
-1.66378e-05
-1.54582e-05
-1.38278e-05
-1.21009e-05
-1.05203e-05
-9.21813e-06
-8.26149e-06
-7.65941e-06
-7.39182e-06
-7.33604e-06
-7.63537e-06
-5.90482e-06
-5.74208e-06
-5.73141e-06
-5.79877e-06
-6.01995e-06
-6.42875e-06
-7.06041e-06
-7.93488e-06
-9.05599e-06
-1.0398e-05
-1.18623e-05
-1.33573e-05
-1.45334e-05
-1.55875e-05
-1.64336e-05
-1.71541e-05
-1.76479e-05
-1.79481e-05
-1.80349e-05
-1.79202e-05
-1.75941e-05
-1.70629e-05
-1.63108e-05
-1.53959e-05
-1.42975e-05
-1.29944e-05
-1.15955e-05
-1.02674e-05
-9.1327e-06
-8.27171e-06
-7.70738e-06
-7.43088e-06
-7.34793e-06
-7.59594e-06
-5.91724e-06
-5.79562e-06
-5.8212e-06
-5.92625e-06
-6.166e-06
-6.56623e-06
-7.15333e-06
-7.9391e-06
-8.91732e-06
-1.00582e-05
-1.12786e-05
-1.25118e-05
-1.35803e-05
-1.45427e-05
-1.53334e-05
-1.59998e-05
-1.64641e-05
-1.67466e-05
-1.68326e-05
-1.67305e-05
-1.64336e-05
-1.59497e-05
-1.52698e-05
-1.44479e-05
-1.34805e-05
-1.23846e-05
-1.12188e-05
-1.00939e-05
-9.11112e-06
-8.34128e-06
-7.81164e-06
-7.52178e-06
-7.40666e-06
-7.5951e-06
-5.93644e-06
-5.84851e-06
-5.89047e-06
-6.02091e-06
-6.27415e-06
-6.67101e-06
-7.23209e-06
-7.96227e-06
-8.85227e-06
-9.873e-06
-1.0963e-05
-1.20638e-05
-1.30753e-05
-1.39893e-05
-1.47477e-05
-1.53702e-05
-1.58109e-05
-1.60779e-05
-1.61617e-05
-1.6067e-05