/*--------------------------------*- C++ -*----------------------------------*\
| =========                 |                                                 |
| \\      /  F ield         | OpenFOAM: The Open Source CFD Toolbox           |
|  \\    /   O peration     | Version:  2112                                  |
|   \\  /    A nd           | Website:  www.openfoam.com                      |
|    \\/     M anipulation  |                                                 |
\*---------------------------------------------------------------------------*/
FoamFile
{
    version     2.0;
    format      ascii;
    arch        "LSB;label=32;scalar=64";
    class       surfaceScalarField;
    location    "4.8";
    object      phi;
}
// * * * * * * * * * * * * * * * * * * * * * * * * * * * * * * * * * * * * * //

dimensions      [0 3 -1 0 0 0 0];

oriented        oriented;

internalField   nonuniform List<scalar> 
188215
(
4.36738e-10
8.20823e-10
-1.25756e-09
2.41829e-09
-2.40126e-10
-1.74143e-09
5.39923e-09
-1.89761e-09
-1.08333e-09
8.93516e-09
-3.45048e-09
-8.54437e-11
1.2586e-08
-4.63348e-09
9.82641e-10
1.62836e-08
-5.42121e-09
1.7236e-09
1.99398e-08
-5.8798e-09
2.22363e-09
2.33888e-08
-6.0107e-09
2.56172e-09
2.63911e-08
-5.78384e-09
2.78153e-09
2.8518e-08
-5.03066e-09
2.90374e-09
2.94513e-08
-3.8622e-09
2.9289e-09
2.87022e-08
-2.13338e-09
2.88244e-09
2.64298e-08
-6.20665e-10
2.89308e-09
2.29232e-08
4.42139e-10
3.06447e-09
1.86131e-08
9.56624e-10
3.35351e-09
1.36751e-08
1.31198e-09
3.62606e-09
8.3516e-09
1.49558e-09
3.82787e-09
2.84953e-09
1.56671e-09
3.93536e-09
-2.62882e-09
1.5378e-09
3.94055e-09
-7.88237e-09
1.40901e-09
3.84454e-09
-1.27075e-08
1.16916e-09
3.65598e-09
-1.68728e-08
7.65178e-10
3.40016e-09
-2.02332e-08
2.19377e-10
3.14102e-09
-2.22189e-08
-1.05401e-09
3.03967e-09
-2.27178e-08
-2.54117e-09
3.04006e-09
-2.15329e-08
-4.26049e-09
3.07562e-09
-1.91703e-08
-5.35577e-09
2.99318e-09
-1.59577e-08
-5.93823e-09
2.72563e-09
-1.23543e-08
-5.809e-09
2.20554e-09
-8.64207e-09
-5.03764e-09
1.32544e-09
-5.00857e-09
-3.56265e-09
-7.08559e-11
-2.09348e-09
-1.49211e-09
-1.42298e-09
-2.39616e-10
5.61978e-10
-2.41584e-09
1.7336e-09
-1.97322e-09
-2.0524e-09
5.69921e-09
-2.82599e-09
2.34039e-10
5.64392e-09
-8.17048e-09
3.99483e-09
4.43842e-09
-1.00968e-08
8.05245e-09
3.19749e-09
-1.07056e-08
1.20525e-08
2.57786e-09
-1.12114e-08
1.59521e-08
2.70946e-09
-1.20302e-08
1.97353e-08
3.67001e-09
-1.3333e-08
2.32934e-08
5.62563e-09
-1.51943e-08
2.63926e-08
8.76512e-09
-1.76482e-08
2.85957e-08
1.34645e-08
-2.06981e-08
2.95221e-08
1.94326e-08
-2.42212e-08
2.87085e-08
2.66694e-08
-2.79892e-08
2.65513e-08
3.30434e-08
-3.1507e-08
2.31147e-08
3.84703e-08
-3.45915e-08
1.87574e-08
4.24476e-08
-3.71337e-08
1.37784e-08
4.53471e-08
-3.90561e-08
8.43409e-09
4.71801e-08
-4.03401e-08
2.92348e-09
4.8081e-08
-4.10037e-08
-2.56194e-09
4.80724e-08
-4.10492e-08
-7.8307e-09
4.71542e-08
-4.04765e-08
-1.26847e-08
4.53059e-08
-3.92827e-08
-1.68621e-08
4.23948e-08
-3.74522e-08
-2.00447e-08
3.8416e-08
-3.5014e-08
-2.2001e-08
3.29789e-08
-3.20766e-08
-2.25459e-08
2.66913e-08
-2.86876e-08
-2.13225e-08
1.96145e-08
-2.50983e-08
-1.88081e-08
1.39555e-08
-2.18257e-08
-1.53586e-08
9.72916e-09
-1.91168e-08
-1.13882e-08
7.3294e-09
-1.71088e-08
-7.10894e-09
6.45306e-09
-1.577e-08
-2.69984e-09
6.92902e-09
-1.49008e-08
1.3341e-09
8.44025e-09
-1.39663e-08
3.46239e-09
9.83966e-09
-1.1406e-08
9.56278e-09
-4.36679e-09
-4.09894e-09
1.27873e-08
-2.98914e-09
-1.93247e-09
1.40123e-08
-1.05349e-08
2.34625e-09
1.36653e-08
-1.35056e-08
7.02387e-09
1.33651e-08
-1.48453e-08
1.16455e-08
1.3946e-08
-1.59898e-08
1.61734e-08
1.56657e-08
-1.7484e-08
2.06609e-08
1.87797e-08
-1.95972e-08
2.50595e-08
2.36994e-08
-2.24723e-08
2.91241e-08
3.08795e-08
-2.6179e-08
3.22091e-08
4.11208e-08
-3.07413e-08
3.36763e-08
5.39508e-08
-3.59855e-08
3.25598e-08
6.9412e-08
-4.1626e-08
2.96849e-08
8.28651e-08
-4.69468e-08
2.54146e-08
9.43599e-08
-5.16193e-08
2.03624e-08
1.02932e-07
-5.54317e-08
1.47773e-08
1.09257e-07
-5.83247e-08
8.8966e-09
1.13323e-07
-6.02623e-08
2.88353e-09
1.1536e-07
-6.12662e-08
-3.10344e-09
1.15395e-07
-6.13359e-08
-8.90522e-09
1.13427e-07
-6.04714e-08
-1.43589e-08
1.09433e-07
-5.86732e-08
-1.9223e-08
1.03182e-07
-5.59228e-08
-2.32504e-08
9.47057e-08
-5.22624e-08
-2.58453e-08
8.33384e-08
-4.77647e-08
-2.66266e-08
7.01193e-08
-4.26466e-08
-2.47561e-08
5.50088e-08
-3.72648e-08
-2.12059e-08
4.27657e-08
-3.23604e-08
-1.65531e-08
3.33025e-08
-2.82262e-08
-1.14003e-08
2.72039e-08
-2.50273e-08
-5.98278e-09
2.37034e-08
-2.26678e-08
-5.29425e-10
2.23076e-08
-2.0832e-08
4.3184e-09
2.24415e-08
-1.8849e-08
6.29573e-09
2.26766e-08
-1.48142e-08
2.06713e-08
-4.81277e-09
-5.61157e-09
2.07145e-08
-2.3156e-09
-3.40967e-09
2.29045e-08
-1.1094e-08
1.52859e-09
2.3322e-08
-1.45949e-08
7.08729e-09
2.40559e-08
-1.62495e-08
1.2731e-08
2.59954e-08
-1.76931e-08
1.84439e-08
2.94794e-08
-1.95266e-08
2.43843e-08
3.49042e-08
-2.20649e-08
3.05991e-08
4.29673e-08
-2.54827e-08
3.67908e-08
5.45391e-08
-2.98513e-08
4.18784e-08
7.12517e-08
-3.52185e-08
4.4532e-08
9.26609e-08
-4.13636e-08
4.26207e-08
1.19424e-07
-4.81004e-08
3.80963e-08
1.41811e-07
-5.44215e-08
3.18706e-08
1.60565e-07
-5.99798e-08
2.50317e-08
1.74278e-07
-6.4508e-08
1.77989e-08
1.84419e-07
-6.7929e-08
1.03777e-08
1.90946e-07
-7.02014e-08
2.87259e-09
1.94241e-07
-7.13759e-08
-4.60636e-09
1.94328e-07
-7.14539e-08
-1.19476e-08
1.91204e-07
-7.04353e-08
-1.90446e-08
1.84847e-07
-6.83177e-08
-2.56826e-08
1.74874e-07
-6.50546e-08
-3.16377e-08
1.61353e-07
-6.06921e-08
-3.58091e-08
1.42831e-07
-5.53214e-08
-3.72796e-08
1.20818e-07
-4.92279e-08
-3.4065e-08
9.45748e-08
-4.27806e-08
-2.83202e-08
7.40346e-08
-3.70136e-08
-2.12716e-08
5.83629e-08
-3.21091e-08
-1.39526e-08
4.81555e-08
-2.82705e-08
-6.69085e-09
4.18048e-08
-2.53632e-08
2.26423e-10
3.84266e-08
-2.30362e-08
6.18125e-09
3.70814e-08
-2.05947e-08
8.3068e-09
3.63661e-08
-1.58151e-08
3.31106e-08
-4.13249e-09
-6.52455e-09
2.86604e-08
-1.42143e-09
-3.93342e-09
3.15743e-08
-1.1261e-08
1.98391e-09
3.26153e-08
-1.52107e-08
8.79073e-09
3.43409e-08
-1.70918e-08
1.59039e-08
3.7646e-08
-1.87638e-08
2.33962e-08
4.28848e-08
-2.08977e-08
3.16203e-08
5.05203e-08
-2.38402e-08
4.08523e-08
6.15196e-08
-2.77843e-08
5.07946e-08
7.73577e-08
-3.27609e-08
5.97019e-08
1.01195e-07
-3.88502e-08
6.47779e-08
1.33317e-07
-4.57321e-08
6.10922e-08
1.76756e-07
-5.36467e-08
5.33114e-08
2.10559e-07
-6.09674e-08
4.35049e-08
2.37871e-07
-6.74986e-08
3.35056e-08
2.57123e-07
-7.28454e-08
2.33486e-08
2.71398e-07
-7.68228e-08
1.31492e-08
2.80564e-07
-7.94193e-08
2.92252e-09
2.85222e-07
-8.07536e-08
-7.27965e-09
2.85366e-07
-8.08355e-08
-1.74027e-08
2.80991e-07
-7.96644e-08
-2.74258e-08
2.72099e-07
-7.72287e-08
-3.72145e-08
2.58078e-07
-7.34147e-08
-4.67168e-08
2.39093e-07
-6.82377e-08
-5.40623e-08
2.12078e-07
-6.19009e-08
-5.71752e-08
1.78754e-07
-5.48235e-08
-5.13362e-08
1.35956e-07
-4.72199e-08
-4.15789e-08
1.05032e-07
-4.07546e-08
-3.05112e-08
8.24612e-08
-3.5166e-08
-1.98241e-08
6.82285e-08
-3.07601e-08
-9.86991e-09
5.92159e-08
-2.73653e-08
-8.00678e-10
5.40058e-08
-2.46484e-08
6.70241e-09
5.14053e-08
-2.1827e-08
9.50454e-09
4.99724e-08
-1.64084e-08
4.57779e-08
-3.16277e-09
-7.01573e-09
3.62032e-08
-5.27031e-10
-3.59894e-09
3.96584e-08
-1.15009e-08
3.73318e-09
4.12365e-08
-1.59533e-08
1.22345e-08
4.3919e-08
-1.80795e-08
2.12736e-08
4.86035e-08
-1.99966e-08
3.10795e-08
5.55523e-08
-2.24734e-08
4.23268e-08
6.51481e-08
-2.5875e-08
5.58132e-08
7.84238e-08
-3.03907e-08
7.15501e-08
9.75328e-08
-3.59119e-08
8.72694e-08
1.27994e-07
-4.25183e-08
9.74148e-08
1.72603e-07
-4.94309e-08
9.00722e-08
2.42557e-07
-5.84582e-08
7.65058e-08
2.90884e-07
-6.67588e-08
6.0999e-08
3.27996e-07
-7.46183e-08
4.63012e-08
3.53e-07
-8.11791e-08
3.18061e-08
3.71748e-07
-8.58548e-08
1.74169e-08
3.83769e-07
-8.88151e-08
3.0416e-09
3.89921e-07
-9.03242e-08
-1.13143e-08
3.90131e-07
-9.0409e-08
-2.56411e-08
3.84387e-07
-8.90688e-08
-4.00221e-08
3.72753e-07
-8.62731e-08
-5.45209e-08
3.54342e-07
-8.17652e-08
-6.97083e-08
3.29658e-07
-7.53773e-08
-8.2757e-08
2.92848e-07
-6.77216e-08
-8.93688e-08
2.45053e-07
-5.96869e-08
-7.81842e-08
1.7576e-07
-5.09886e-08
-6.14566e-08
1.32846e-07
-4.45419e-08
-4.43308e-08
1.03822e-07
-3.8487e-08
-2.90024e-08
8.65054e-08
-3.36053e-08
-1.55352e-08
7.5466e-08
-2.97172e-08
-3.6401e-09
6.87144e-08
-2.66038e-08
6.06331e-09
6.50609e-08
-2.3359e-08
1.0162e-08
6.30599e-08
-1.71862e-08
5.81253e-08
-2.18541e-09
-7.2503e-09
4.30328e-08
4.20686e-10
-2.50151e-09
4.6887e-08
-1.19774e-08
6.77688e-09
4.90055e-08
-1.70474e-08
1.74686e-08
5.27026e-08
-1.94753e-08
2.88601e-08
5.88936e-08
-2.16816e-08
4.13437e-08
6.76202e-08
-2.45514e-08
5.6021e-08
7.89185e-08
-2.84478e-08
7.47031e-08
9.32675e-08
-3.35258e-08
9.85592e-08
1.13071e-07
-3.93948e-08
1.25538e-07
1.46946e-07
-4.59316e-08
1.46983e-07
2.02347e-07
-5.11895e-08
1.31846e-07
3.18453e-07
-6.07598e-08
1.08339e-07
3.83881e-07
-6.94898e-08
8.45225e-08
4.31074e-07
-7.92619e-08
6.36161e-08
4.61682e-07
-8.77755e-08
4.33684e-08
4.85176e-07
-9.31795e-08
2.33034e-08
5.00321e-07
-9.64876e-08
3.24263e-09
5.08144e-07
-9.81627e-08
-1.68093e-08
5.08432e-07
-9.82496e-08
-3.68432e-08
5.01168e-07
-9.67474e-08
-5.70278e-08
4.86544e-07
-9.36055e-08
-7.77916e-08
4.6348e-07
-8.83741e-08
-1.01324e-07
4.33227e-07
-8.00369e-08
-1.24247e-07
3.86258e-07
-7.04871e-08
-1.38467e-07
3.21339e-07
-6.20663e-08
-1.15556e-07
2.05692e-07
-5.28424e-08
-8.75139e-08
1.5292e-07
-4.81166e-08
-6.20319e-08
1.20524e-07
-4.21837e-08
-4.10514e-08
1.02576e-07
-3.70516e-08
-2.35091e-08
9.06369e-08
-3.27132e-08
-8.1965e-09
8.25964e-08
-2.91947e-08
4.42767e-09
7.7901e-08
-2.54643e-08
1.05002e-08
7.53265e-08
-1.83391e-08
6.98117e-08
-1.18626e-09
-7.27093e-09
4.8738e-08
1.56576e-09
-5.56405e-10
5.29099e-08
-1.27374e-08
1.13174e-08
5.57121e-08
-1.85803e-08
2.4847e-08
6.05584e-08
-2.13854e-08
3.90966e-08
6.85872e-08
-2.39432e-08
5.4432e-08
7.95606e-08
-2.72757e-08
7.21545e-08
9.29341e-08
-3.17381e-08
9.53397e-08
1.07552e-07
-3.74696e-08
1.27732e-07
1.24202e-07
-4.3523e-08
1.72963e-07
1.5165e-07
-4.99349e-08
2.20007e-07
2.03192e-07
-4.78893e-08
1.88986e-07
4.04587e-07
-5.51124e-08
1.50452e-07
4.86394e-07
-6.39786e-08
1.15877e-07
5.43273e-07
-7.76236e-08
8.74141e-08
5.79767e-07
-8.9622e-08
5.95887e-08
6.08794e-07
-9.57929e-08
3.16344e-08
6.27717e-07
-9.94415e-08
3.54965e-09
6.3752e-07
-1.01291e-07
-2.45425e-08
6.37904e-07
-1.0138e-07
-5.25183e-08
6.28849e-07
-9.97049e-08
-8.03782e-08
6.10627e-07
-9.62231e-08
-1.08836e-07
5.82169e-07
-9.02317e-08
-1.43288e-07
5.46095e-07
-7.84171e-08
-1.81289e-07
4.89289e-07
-6.50292e-08
-2.11138e-07
4.07766e-07
-5.65781e-08
-1.61904e-07
2.06109e-07
-4.96512e-08
-1.15793e-07
1.5904e-07
-5.2231e-08
-8.15582e-08
1.32803e-07
-4.6514e-08
-5.54959e-08
1.17868e-07
-4.1354e-08
-3.40404e-08
1.05712e-07
-3.65311e-08
-1.4819e-08
9.5953e-08
-3.25779e-08
1.56112e-09
8.98003e-08
-2.82795e-08
1.05274e-08
8.62948e-08
-1.99346e-08
8.04834e-08
-1.44334e-10
-7.09386e-09
5.30652e-08
2.76664e-09
2.08197e-09
5.75028e-08
-1.37687e-08
1.74545e-08
6.09692e-08
-2.06296e-08
3.46271e-08
6.72525e-08
-2.38668e-08
5.23592e-08
7.7678e-08
-2.68229e-08
7.06076e-08
9.19518e-08
-3.06396e-08
9.01389e-08
1.09084e-07
-3.56811e-08
1.14433e-07
1.25304e-07
-4.20467e-08
1.5051e-07
1.3692e-07
-4.87948e-08
2.24723e-07
1.30938e-07
-5.3501e-08
3.23445e-07
1.55839e-07
-5.13695e-08
2.6007e-07
5.10199e-07
-4.22374e-08
1.99393e-07
5.93944e-07
-4.68727e-08
1.5325e-07
6.55593e-07
-6.61767e-08
1.1664e-07
6.99187e-07
-8.28102e-08
7.9854e-08
7.34599e-07
-8.90193e-08
4.21572e-08
7.58661e-07
-9.32474e-08
3.99185e-09
7.71064e-07
-9.53785e-08
-3.42018e-08
7.7156e-07
-9.54622e-08
-7.19907e-08
7.60133e-07
-9.34954e-08
-1.08953e-07
7.37005e-07
-8.94159e-08
-1.45799e-07
7.02392e-07
-8.33758e-08
-1.92173e-07
6.59376e-07
-6.6907e-08
-2.52621e-07
5.97623e-07
-4.78865e-08
-3.14285e-07
5.13215e-07
-4.37851e-08
-2.122e-07
1.57635e-07
-5.36111e-08
-1.38465e-07
1.41382e-07
-5.60767e-08
-1.00051e-07
1.4645e-07
-5.20613e-08
-7.2066e-08
1.36297e-07
-4.64134e-08
-4.76248e-08
1.22452e-07
-4.11809e-08
-2.40016e-08
1.09174e-07
-3.68439e-08
-2.60513e-09
1.00381e-07
-3.1977e-08
1.02974e-08
9.5463e-08
-2.20707e-08
8.93631e-08
1.41777e-09
-6.52298e-09
5.55237e-08
4.06452e-09
6.01393e-09
6.01026e-08
-1.51367e-08
2.60572e-08
6.41516e-08
-2.32257e-08
4.8482e-08
7.18364e-08
-2.70087e-08
7.17255e-08
8.49187e-08
-3.04842e-08
9.48805e-08
1.03734e-07
-3.4937e-08
1.1705e-07
1.27691e-07
-4.07758e-08
1.38185e-07
1.53277e-07
-4.91079e-08
1.55261e-07
1.77129e-07
-5.72851e-08
2.10392e-07
1.4816e-07
-7.23524e-08
4.45838e-07
-7.96071e-08
3.54812e-07
6.09377e-07
-8.15198e-09
2.68999e-07
6.79038e-07
7.1963e-10
2.1101e-07
7.30391e-07
-1.68099e-08
1.63994e-07
7.81906e-07
-3.57024e-08
1.12703e-07
8.22909e-07
-3.70199e-08
5.89234e-08
8.51749e-07
-3.93073e-08
4.62483e-09
8.66244e-07
-4.0881e-08
-4.97131e-08
8.66834e-07
-4.09362e-08
-1.03633e-07
8.53527e-07
-3.9473e-08
-1.55238e-07
8.25871e-07
-3.7262e-08
-2.02786e-07
7.86032e-07
-3.60927e-08
-2.6161e-07
7.35502e-07
-1.7302e-08
-3.48712e-07
6.8477e-07
-4.54234e-11
-4.39168e-07
6.13233e-07
-9.56121e-09
-1.98773e-07
-8.27605e-08
-1.41731e-07
1.58505e-07
-7.41647e-08
-1.23335e-07
1.88316e-07
-6.0262e-08
-9.78772e-08
1.64744e-07
-5.39048e-08
-6.94383e-08
1.41207e-07
-4.7194e-08
-3.90216e-08
1.2116e-07
-4.24032e-08
-1.00058e-08
1.08251e-07
-3.6886e-08
8.91867e-09
1.01517e-07
-2.49785e-08
9.51514e-08
3.13038e-09
-5.73062e-09
5.58623e-08
5.39203e-09
1.07916e-08
6.04052e-08
-1.68248e-08
3.64167e-08
6.4847e-08
-2.63204e-08
6.54667e-08
7.35503e-08
-3.0764e-08
9.62702e-08
8.89472e-08
-3.48319e-08
1.26655e-07
1.12981e-07
-3.96327e-08
1.50373e-07
1.49153e-07
-4.518e-08
1.51601e-07
2.02261e-07
-5.02123e-08
1.16196e-07
2.79811e-07
-6.72769e-08
3.79638e-07
-1.15283e-07
1.97848e-07
3.28397e-07
8.31322e-08
2.63803e-07
5.59847e-07
5.32356e-08
2.60304e-07
6.88028e-07
4.58624e-08
2.12695e-07
7.82332e-07
4.71829e-08
1.47327e-07
8.44827e-07
4.34503e-08
7.70809e-08
8.83836e-07
3.81589e-08
5.42766e-09
9.02471e-07
3.54256e-08
-6.6272e-08
9.03107e-07
3.54271e-08
-1.36679e-07
8.85779e-07
3.81551e-08
-2.02431e-07
8.4817e-07
4.34539e-08
-2.50926e-07
7.87296e-07
4.72302e-08
-2.5645e-07
6.94992e-07
4.60343e-08
-1.9374e-07
5.68922e-07
5.31379e-08
3.37722e-07
8.17713e-08
-1.12137e-07
3.82493e-07
-1.11851e-07
-1.41169e-07
2.87157e-07
-6.98093e-08
-1.32428e-07
2.11833e-07
-5.58299e-08
-9.9859e-08
1.6162e-07
-5.29822e-08
-5.95781e-08
1.29784e-07
-4.89044e-08
-2.03355e-08
1.12052e-07
-4.30437e-08
6.63163e-09
1.03378e-07
-2.88281e-08
9.70356e-08
4.74745e-09
-4.4395e-09
5.36033e-08
6.69852e-09
1.68191e-08
5.78957e-08
-1.87491e-08
4.95665e-08
6.19008e-08
-2.98012e-08
8.85178e-08
6.97371e-08
-3.51381e-08
1.34383e-07
8.33917e-08
-4.03098e-08
1.90018e-07
1.03951e-07
-4.66045e-08
2.60484e-07
1.32562e-07
-5.38748e-08
3.52178e-07
1.69529e-07
-5.89618e-08
4.78058e-07
2.13609e-07
-5.9679e-08
6.3196e-07
2.66586e-07
-4.08494e-08
4.94501e-07
8.76566e-08
4.98021e-08
4.95684e-07
2.30882e-07
9.63326e-08
4.72808e-07
4.19586e-07
1.63137e-07
4.02715e-07
5.38282e-07
2.19839e-07
3.06603e-07
6.26404e-07
2.5204e-07
2.0384e-07
6.8446e-07
2.6313e-07
1.03806e-07
7.20447e-07
2.63423e-07
6.24863e-09
7.37708e-07
2.62321e-07
-9.12893e-08
7.38277e-07
2.62368e-07
-1.91257e-07
7.22177e-07
2.63569e-07
-2.93919e-07
6.87408e-07
2.63424e-07
-3.89959e-07
6.30664e-07
2.52671e-07
-4.60062e-07
5.43915e-07
2.2118e-07
-4.8271e-07
4.262e-07
1.65371e-07
-4.83849e-07
2.38633e-07
1.00228e-07
-6.26432e-07
8.90954e-08
5.34875e-08
-4.7246e-07
2.68864e-07
-4.03426e-08
-3.41791e-07
2.19506e-07
-6.30171e-08
-2.42532e-07
1.78068e-07
-6.54937e-08
-1.61832e-07
1.44247e-07
-6.33265e-08
-9.40271e-08
1.20047e-07
-5.80686e-08
-3.6802e-08
1.05687e-07
-5.08599e-08
1.59036e-09
9.86778e-08
-3.36922e-08
9.25346e-08
6.09128e-09
-3.57775e-09
4.91969e-08
7.98411e-09
2.17879e-08
5.30813e-08
-2.05513e-08
6.04662e-08
5.63318e-08
-3.31092e-08
1.06922e-07
6.25843e-08
-3.93031e-08
1.62532e-07
7.32355e-08
-4.54537e-08
2.30934e-07
8.85367e-08
-5.29874e-08
3.16874e-07
1.08038e-07
-6.14165e-08
4.23395e-07
1.3035e-07
-6.73423e-08
5.52871e-07
1.50582e-07
-6.64494e-08
7.00486e-07
1.67051e-07
-4.80805e-08
6.94233e-07
1.06402e-07
-1.24918e-08
6.71392e-07
1.93829e-07
5.98938e-08
6.08941e-07
3.08046e-07
1.73992e-07
5.02167e-07
3.93576e-07
2.5148e-07
3.76741e-07
4.58636e-07
2.93193e-07
2.48521e-07
5.00783e-07
3.11897e-07
1.25589e-07
5.26923e-07
3.16457e-07
6.92046e-09
5.39414e-07
3.16962e-07
-1.11707e-07
5.39884e-07
3.1702e-07
-2.34511e-07
5.28338e-07
3.16643e-07
-3.62539e-07
5.03155e-07
3.12281e-07
-4.87832e-07
4.61963e-07
2.93994e-07
-5.94887e-07
3.97801e-07
2.53169e-07
-6.58437e-07
3.12877e-07
1.76872e-07
-6.83297e-07
1.98791e-07
6.47023e-08
-6.93631e-07
1.08868e-07
-9.43894e-09
-5.47146e-07
1.70684e-07
-4.83045e-08
-4.13385e-07
1.5619e-07
-7.04458e-08
-2.98666e-07
1.38252e-07
-7.4903e-08
-2.00969e-07
1.18945e-07
-7.2395e-08
-1.1814e-07
1.03638e-07
-6.64201e-08
-4.84951e-08
9.40536e-08
-5.80112e-08
-1.09469e-09
8.93473e-08
-3.807e-08
8.37768e-08
7.66314e-09
-2.98134e-09
4.29684e-08
9.20989e-09
2.5816e-08
4.63554e-08
-2.20715e-08
6.93975e-08
4.87198e-08
-3.59695e-08
1.21738e-07
5.31802e-08
-4.29363e-08
1.84307e-07
6.06694e-08
-5.00035e-08
2.60699e-07
7.1033e-08
-5.88878e-08
3.54606e-07
8.33673e-08
-6.9236e-08
4.66899e-07
9.64799e-08
-7.84221e-08
5.9294e-07
1.06612e-07
-8.20702e-08
7.16244e-07
1.15861e-07
-7.21147e-08
7.61887e-07
1.03546e-07
-4.27866e-08
7.63372e-07
1.54211e-07
3.81328e-08
6.90323e-07
2.22678e-07
1.58418e-07
5.67459e-07
2.78885e-07
2.37555e-07
4.22373e-07
3.22314e-07
2.81408e-07
2.77173e-07
3.50278e-07
2.95705e-07
1.39548e-07
3.67768e-07
2.9678e-07
7.43686e-09
3.76143e-07
2.95382e-07
-1.24626e-07
3.76539e-07
2.95407e-07
-2.62104e-07
3.6895e-07
2.96866e-07
-4.07103e-07
3.52223e-07
2.95932e-07
-5.52122e-07
3.24972e-07
2.8201e-07
-6.75547e-07
2.82177e-07
2.39048e-07
-7.50172e-07
2.26378e-07
1.61125e-07
-7.52287e-07
1.58112e-07
4.27933e-08
-7.10093e-07
1.06655e-07
-3.99817e-08
-5.86857e-07
1.19815e-07
-7.23675e-08
-4.56327e-07
1.1199e-07
-8.63301e-08
-3.35251e-07
1.03805e-07
-8.66299e-08
-2.28353e-07
9.33604e-08
-8.13134e-08
-1.35656e-07
8.47238e-08
-7.37821e-08
-5.68347e-08
7.92418e-08
-6.40099e-08
-2.40344e-09
7.65447e-08
-4.16287e-08
7.19108e-08
9.46259e-09
-2.8463e-09
3.55327e-08
1.02819e-08
2.84217e-08
3.83402e-08
-2.32528e-08
7.54436e-08
3.9947e-08
-3.8249e-08
1.31563e-07
4.29062e-08
-4.58458e-08
1.98015e-07
4.78577e-08
-5.36404e-08
2.78081e-07
5.45566e-08
-6.35896e-08
3.74662e-07
6.22167e-08
-7.54304e-08
4.87754e-07
7.02076e-08
-8.68198e-08
6.10795e-07
7.65906e-08
-9.30201e-08
7.28184e-07
8.45226e-08
-8.60497e-08
8.00734e-07
8.84736e-08
-5.74777e-08
8.14973e-07
1.20526e-07
1.94459e-08
7.36851e-07
1.63133e-07
1.37667e-07
6.05289e-07
1.99401e-07
2.11046e-07
4.49549e-07
2.27672e-07
2.50381e-07
2.94671e-07
2.46214e-07
2.58942e-07
1.48246e-07
2.57943e-07
2.5625e-07
7.84289e-09
2.63637e-07
2.52909e-07
-1.32522e-07
2.64007e-07
2.52897e-07
-2.78834e-07
2.59039e-07
2.56223e-07
-4.33578e-07
2.47989e-07
2.58977e-07
-5.89368e-07
2.30051e-07
2.50713e-07
-7.21704e-07
2.02286e-07
2.12227e-07
-8.01768e-07
1.66364e-07
1.40078e-07
-7.91604e-07
1.24049e-07
2.3899e-08
-7.2197e-07
9.18507e-08
-5.48294e-08
-6.0421e-07
8.85464e-08
-8.64915e-08
-4.76321e-07
8.16548e-08
-9.75531e-08
-3.53817e-07
7.6825e-08
-9.55241e-08
-2.43188e-07
7.10187e-08
-8.82865e-08
-1.45343e-07
6.63633e-08
-7.94847e-08
-6.10647e-08
6.35179e-08
-6.85545e-08
-2.45807e-09
6.21214e-08
-4.41833e-08
5.84402e-08
1.10126e-08
-2.92978e-09
2.73152e-08
1.11474e-08
3.00487e-08
2.94881e-08
-2.41264e-08
7.94488e-08
3.05065e-08
-3.99596e-08
1.38048e-07
3.23408e-08
-4.80339e-08
2.06823e-07
3.54526e-08
-5.63698e-08
2.88806e-07
3.96787e-08
-6.71051e-08
3.86509e-07
4.45541e-08
-8.00402e-08
4.99759e-07
4.98982e-08
-9.29411e-08
6.22208e-07
5.49584e-08
-1.00817e-07
7.40185e-07
6.22029e-08
-9.56571e-08
8.25611e-07
7.0158e-08
-6.71102e-08
8.46478e-07
9.13399e-08
8.31878e-09
7.66343e-07
1.18398e-07
1.2487e-07
6.29564e-07
1.41977e-07
1.94203e-07
4.67062e-07
1.60502e-07
2.29673e-07
3.0597e-07
1.73006e-07
2.343e-07
1.5391e-07
1.81043e-07
2.2896e-07
8.21277e-09
1.85053e-07
2.24282e-07
-1.37463e-07
1.85434e-07
2.24249e-07
-2.8946e-07
1.82166e-07
2.2887e-07
-4.505e-07
1.74806e-07
2.34224e-07
-6.13175e-07
1.62877e-07
2.29848e-07
-7.50896e-07
1.44804e-07
1.95202e-07
-8.33159e-07
1.21536e-07
1.27091e-07
-8.16614e-07
9.48117e-08
1.26923e-08
-7.33777e-07
7.35838e-08
-6.45701e-08
-6.15075e-07
6.60532e-08
-9.6209e-08
-4.87388e-07
5.95175e-08
-1.05549e-07
-3.64152e-07
5.55794e-08
-1.01991e-07
-2.51558e-07
5.18443e-08
-9.3419e-08
-1.50717e-07
4.91694e-08
-8.36471e-08
-6.30873e-08
4.77002e-08
-7.18122e-08
-2.01979e-09
4.6985e-08
-4.59312e-08
4.42104e-08
1.221e-08
-3.13013e-09
1.86879e-08
1.17573e-08
3.09281e-08
2.01794e-08
-2.47496e-08
8.18404e-08
2.07601e-08
-4.1166e-08
1.41962e-07
2.17846e-08
-4.95655e-08
2.12085e-07
2.35855e-08
-5.82558e-08
2.95125e-07
2.6128e-08
-6.94894e-08
3.93519e-07
2.92556e-08
-8.30954e-08
5.07248e-07
3.30266e-08
-9.68575e-08
6.30537e-07
3.73028e-08
-1.05633e-07
7.50531e-07
4.34923e-08
-1.01283e-07
8.42292e-07
5.12355e-08
-7.28386e-08
8.67234e-07
6.49791e-08
1.41839e-09
7.85647e-07
8.12979e-08
1.18687e-07
6.45459e-07
9.5835e-08
1.8633e-07
4.78698e-07
1.07381e-07
2.19882e-07
3.13615e-07
1.15498e-07
2.22591e-07
1.57838e-07
1.2084e-07
2.1598e-07
8.58643e-09
1.23636e-07
2.10668e-07
-1.40666e-07
1.24056e-07
2.1063e-07
-2.96447e-07
1.22075e-07
2.15872e-07
-4.61586e-07
1.17461e-07
2.22483e-07
-6.28657e-07
1.09942e-07
2.20007e-07
-7.69937e-07
9.88185e-08
1.87266e-07
-8.53711e-07
8.4509e-08
1.20801e-07
-8.33374e-07
6.82544e-08
6.22092e-09
-7.43927e-07
5.45651e-08
-7.04291e-08
-6.22944e-07
4.70345e-08
-1.01964e-07
-4.94091e-07
4.12224e-08
-1.10558e-07
-3.69927e-07
3.76029e-08
-1.06188e-07
-2.56033e-07
3.4806e-08
-9.68554e-08
-1.53411e-07
3.30195e-08
-8.64724e-08
-6.38184e-08
3.21367e-08
-7.40289e-08
-1.43069e-09
3.17036e-08
-4.71063e-08
2.98068e-08
1.29729e-08
-3.30929e-09
9.89738e-09
1.20998e-08
3.13585e-08
1.06826e-08
-2.5171e-08
8.31542e-08
1.09017e-08
-4.19372e-08
1.44185e-07
1.12778e-08
-5.05244e-08
2.15155e-07
1.20271e-08
-5.94112e-08
2.98952e-07
1.32446e-08
-7.09138e-08
3.98039e-07
1.50436e-08
-8.48745e-08
5.12528e-07
1.76057e-08
-9.90687e-08
6.36978e-07
2.11269e-08
-1.08273e-07
7.58757e-07
2.59535e-08
-1.0424e-07
8.53699e-07
3.20611e-08
-7.57681e-08
8.80462e-07
3.95904e-08
-1.37359e-09
7.97991e-07
4.72338e-08
1.16534e-07
6.55691e-07
5.41785e-08
1.83957e-07
4.86331e-07
5.97793e-08
2.16962e-07
3.18732e-07
6.40544e-08
2.19042e-07
1.60565e-07
6.70179e-08
2.1199e-07
8.99567e-09
6.87459e-08
2.06459e-07
-1.42603e-07
6.92312e-08
2.06424e-07
-3.00858e-07
6.84412e-08
2.11889e-07
-4.68647e-07
6.63061e-08
2.18944e-07
-6.38493e-07
6.26934e-08
2.17095e-07
-7.82082e-07
5.75157e-08
1.84891e-07
-8.66938e-07
5.07396e-08
1.18625e-07
-8.44743e-07
4.29961e-08
3.06339e-09
-7.52046e-07
3.53364e-08
-7.34681e-08
-6.29126e-07
2.9172e-08
-1.05058e-07
-4.98889e-07
2.43704e-08
-1.13385e-07
-3.73668e-07
2.10231e-08
-1.08641e-07
-2.58703e-07
1.87737e-08
-9.89322e-08
-1.54898e-07
1.74361e-08
-8.82223e-08
-6.41244e-08
1.67967e-08
-7.54333e-08
-1.01643e-09
1.64794e-08
-4.78838e-08
1.54419e-08
1.33485e-08
-3.42037e-09
1.14996e-09
1.21678e-08
3.14595e-08
1.22235e-09
-2.54196e-08
8.36042e-08
1.07335e-09
-4.23164e-08
1.45051e-07
7.9338e-10
-5.09622e-08
2.16505e-07
4.73389e-10
-5.99008e-08
3.00892e-07
3.25649e-10
-7.14679e-08
4.00714e-07
7.31466e-10
-8.55094e-08
5.16112e-07
1.99937e-09
-9.97918e-08
6.41629e-07
4.68841e-09
-1.09078e-07
7.6449e-07
8.18911e-09
-1.05097e-07
8.6032e-07
1.28766e-08
-7.66446e-08
8.87241e-07
1.47382e-08
-2.06957e-09
8.04211e-07
1.40206e-08
1.16244e-07
6.6091e-07
1.34625e-08
1.84017e-07
4.904e-07
1.31006e-08
2.17188e-07
3.21607e-07
1.35075e-08
2.1934e-07
1.62244e-07
1.40827e-08
2.12298e-07
9.46511e-09
1.47559e-08
2.06769e-07
-1.43379e-07
1.53374e-08
2.06737e-07
-3.02934e-07
1.57893e-08
2.12207e-07
-4.72085e-07
1.62029e-08
2.19255e-07
-6.43304e-07
1.65799e-08
2.17333e-07
-7.88138e-07
1.74037e-08
1.84946e-07
-8.738e-07
1.80942e-08
1.18307e-07
-8.51435e-07
1.85805e-08
2.05042e-09
-7.5785e-07
1.62277e-08
-7.44755e-08
-6.33775e-07
1.11874e-08
-1.06091e-07
-5.02363e-07
7.35937e-09
-1.14401e-07
-3.76107e-07
4.3702e-09
-1.09603e-07
-2.60259e-07
2.75233e-09
-9.98265e-08
-1.55702e-07
1.9225e-09
-8.90436e-08
-6.43129e-08
1.56225e-09
-7.61548e-08
-8.5851e-10
1.38759e-09
-4.83625e-08
1.21892e-09
1.33645e-08
-3.46751e-09
-7.3435e-09
1.1961e-08
3.12262e-08
-7.97108e-09
-2.55003e-08
8.31823e-08
-8.57185e-09
-4.23109e-08
1.44545e-07
-9.67993e-09
-5.08891e-08
2.16109e-07
-1.13501e-08
-5.97408e-08
3.00883e-07
-1.3271e-08
-7.1177e-08
4.01442e-07
-1.47941e-08
-8.50339e-08
5.17889e-07
-1.53758e-08
-9.90714e-08
6.4444e-07
-1.37612e-08
-1.08102e-07
7.67817e-07
-1.12589e-08
-1.03929e-07
8.6233e-07
-6.04538e-09
-7.5591e-08
8.87728e-07
-9.50355e-09
-1.15606e-09
8.04293e-07
-1.99837e-08
1.1744e-07
6.61054e-07
-2.92917e-08
1.85993e-07
4.90856e-07
-3.66562e-08
2.19955e-07
3.22217e-07
-4.06731e-08
2.2282e-07
1.62878e-07
-4.27819e-08
2.16204e-07
1.0021e-08
-4.32613e-08
2.10874e-07
-1.42943e-07
-4.25391e-08
2.10841e-07
-3.026e-07
-4.06553e-08
2.16102e-07
-4.71801e-07
-3.73053e-08
2.22709e-07
-6.42986e-07
-3.22876e-08
2.20052e-07
-7.88056e-07
-2.43627e-08
1.86837e-07
-8.74378e-07
-1.49563e-08
1.19373e-07
-8.53762e-07
-5.04891e-09
3.01352e-09
-7.61458e-07
-2.43557e-09
-7.36408e-08
-6.36848e-07
-8.24829e-09
-1.05175e-07
-5.04411e-07
-1.13924e-08
-1.13685e-07
-3.77152e-07
-1.37553e-08
-1.09133e-07
-2.60641e-07
-1.41774e-08
-9.95819e-08
-1.55787e-07
-1.39635e-08
-8.89678e-08
-6.4358e-08
-1.36497e-08
-7.6217e-08
-9.31422e-10
-1.3478e-08
-4.8561e-08
-1.27354e-08
1.30229e-08
-3.50407e-09
-1.53225e-08
1.14831e-08
3.05342e-08
-1.66138e-08
-2.53956e-08
8.16657e-08
-1.78086e-08
-4.18948e-08
1.423e-07
-2.00381e-08
-5.02758e-08
2.13409e-07
-2.35654e-08
-5.88941e-08
2.98185e-07
-2.80577e-08
-6.99891e-08
3.9939e-07
-3.26196e-08
-8.33794e-08
5.1713e-07
-3.63194e-08
-9.67963e-08
6.45157e-07
-3.66226e-08
-1.05165e-07
7.69248e-07
-3.49589e-08
-1.00391e-07
8.59813e-07
-2.44698e-08
-7.21409e-08
8.81073e-07
-3.34661e-08
2.70327e-09
7.97398e-07
-5.77073e-08
1.21399e-07
6.55433e-07
-7.90687e-08
1.91742e-07
4.87251e-07
-9.60384e-08
2.27564e-07
3.20307e-07
-1.05977e-07
2.32249e-07
1.62372e-07
-1.11615e-07
2.26768e-07
1.07113e-08
-1.13578e-07
2.21977e-07
-1.41103e-07
-1.12639e-07
2.21914e-07
-2.99504e-07
-1.08832e-07
2.26577e-07
-4.67257e-07
-1.01535e-07
2.31982e-07
-6.36779e-07
-9.01988e-08
2.27434e-07
-7.80974e-07
-7.24541e-08
1.92286e-07
-8.67932e-07
-5.09934e-08
1.22996e-07
-8.51693e-07
-2.78855e-08
6.59723e-09
-7.63302e-07
-2.02899e-08
-7.05368e-08
-6.38014e-07
-3.1507e-08
-1.02029e-07
-5.04229e-07
-3.40698e-08
-1.11107e-07
-3.75904e-07
-3.49305e-08
-1.0715e-07
-2.59068e-07
-3.28782e-08
-9.81354e-08
-1.54589e-07
-3.05146e-08
-8.79272e-08
-6.39282e-08
-2.8764e-08
-7.55467e-08
-1.12752e-09
-2.78604e-08
-4.84182e-08
-2.61544e-08
1.22915e-08
-3.66564e-09
-2.23993e-08
1.07424e-08
2.90973e-08
-2.43059e-08
-2.50708e-08
7.85378e-08
-2.62286e-08
-4.10204e-08
1.37451e-07
-2.98851e-08
-4.90661e-08
2.07036e-07
-3.58674e-08
-5.72829e-08
2.90779e-07
-4.40224e-08
-6.77785e-08
3.91962e-07
-5.34784e-08
-8.03245e-08
5.11158e-07
-6.29719e-08
-9.25434e-08
6.42276e-07
-6.81708e-08
-9.95697e-08
7.6952e-07
-6.89172e-08
-9.32856e-08
8.51396e-07
-4.09843e-08
-6.53616e-08
8.64288e-07
-5.69559e-08
1.05974e-08
7.80118e-07
-1.03121e-07
1.29584e-07
6.41115e-07
-1.4324e-07
2.03174e-07
4.77628e-07
-1.74719e-07
2.42167e-07
3.14776e-07
-1.93442e-07
2.50317e-07
1.60265e-07
-2.04208e-07
2.47104e-07
1.15941e-08
-2.08319e-07
2.43412e-07
-1.3728e-07
-2.07038e-07
2.43274e-07
-2.92414e-07
-2.00379e-07
2.46681e-07
-4.56345e-07
-1.87252e-07
2.49649e-07
-6.21615e-07
-1.66406e-07
2.41476e-07
-7.63395e-07
-1.33698e-07
2.03024e-07
-8.51573e-07
-9.32955e-08
1.30481e-07
-8.43868e-07
-4.90074e-08
1.34165e-08
-7.63967e-07
-3.5892e-08
-6.42988e-08
-6.35628e-07
-6.43255e-08
-9.5521e-08
-4.99026e-07
-6.46562e-08
-1.06015e-07
-3.69657e-07
-6.10593e-08
-1.03241e-07
-2.53409e-07
-5.38894e-08
-9.52369e-08
-1.50655e-07
-4.75343e-08
-8.57338e-08
-6.21829e-08
-4.32583e-08
-7.3978e-08
-1.14275e-09
-4.11021e-08
-4.77985e-08
-3.84156e-08
1.11185e-08
-4.02325e-09
-2.81603e-08
9.78427e-09
2.67548e-08
-3.05938e-08
-2.44902e-08
7.34957e-08
-3.33114e-08
-3.9658e-08
1.29411e-07
-3.85593e-08
-4.72411e-08
1.95856e-07
-4.74049e-08
-5.49079e-08
2.76599e-07
-6.01756e-08
-6.4589e-08
3.75769e-07
-7.66434e-08
-7.6005e-08
4.95308e-07
-9.59504e-08
-8.65606e-08
6.31725e-07
-1.12811e-07
-9.17771e-08
7.69296e-07
-1.22988e-07
-8.35002e-08
8.32203e-07
-4.99196e-08
-5.39711e-08
8.29059e-07
-7.84016e-08
2.4589e-08
7.46292e-07
-1.6355e-07
1.43197e-07
6.13991e-07
-2.31154e-07
2.20216e-07
4.59174e-07
-2.82238e-07
2.62336e-07
3.03814e-07
-3.13269e-07
2.75187e-07
1.55714e-07
-3.31055e-07
2.74947e-07
1.28118e-08
-3.38136e-07
2.7272e-07
-1.30327e-07
-3.36344e-07
2.72445e-07
-2.79181e-07
-3.2563e-07
2.74106e-07
-4.35899e-07
-3.04346e-07
2.73812e-07
-5.9307e-07
-2.69922e-07
2.60687e-07
-7.28934e-07
-2.16742e-07
2.18908e-07
-8.16998e-07
-1.48178e-07
1.42947e-07
-8.25594e-07
-6.67527e-08
2.63408e-08
-7.63864e-07
-4.39002e-08
-5.37221e-08
-6.25635e-07
-1.15801e-07
-8.67541e-08
-4.84154e-07
-1.07165e-07
-9.8972e-08
-3.54969e-07
-9.25927e-08
-9.76519e-08
-2.41494e-07
-7.63983e-08
-9.09654e-08
-1.42715e-07
-6.39795e-08
-8.23347e-08
-5.84326e-08
-5.61601e-08
-7.13801e-08
-7.66199e-10
-5.22174e-08
-4.6551e-08
-4.87859e-08
9.60402e-09
-4.79998e-09
-3.2013e-08
8.65266e-09
2.31196e-08
-3.48633e-08
-2.365e-08
6.57992e-08
-3.81578e-08
-3.78332e-08
1.16694e-07
-4.46167e-08
-4.48378e-08
1.76935e-07
-5.58508e-08
-5.17944e-08
2.50149e-07
-7.2988e-08
-6.04014e-08
3.41178e-07
-9.73963e-08
-7.02768e-08
4.54077e-07
-1.3081e-07
-7.80392e-08
5.94107e-07
-1.7342e-07
-7.94214e-08
7.69541e-07
-2.35024e-07
-6.33978e-08
7.99577e-07
-5.01292e-08
-2.98265e-08
7.50573e-07
-6.88575e-08
3.94601e-08
6.77671e-07
-2.41341e-07
1.50693e-07
5.60584e-07