/*--------------------------------*- C++ -*----------------------------------*\
| =========                 |                                                 |
| \\      /  F ield         | OpenFOAM: The Open Source CFD Toolbox           |
|  \\    /   O peration     | Version:  2112                                  |
|   \\  /    A nd           | Website:  www.openfoam.com                      |
|    \\/     M anipulation  |                                                 |
\*---------------------------------------------------------------------------*/
FoamFile
{
    version     2.0;
    format      ascii;
    arch        "LSB;label=32;scalar=64";
    class       volVectorField;
    location    "4.8";
    object      U;
}
// * * * * * * * * * * * * * * * * * * * * * * * * * * * * * * * * * * * * * //

dimensions      [0 1 -1 0 0 0 0];

internalField   nonuniform List<vector> 
64906
(
(-1.96945e-07 -6.09818e-07 -2.38469e-08)
(1.60298e-06 -2.43678e-06 -4.95868e-08)
(5.50009e-06 -4.37329e-06 8.89849e-07)
(1.0237e-05 -6.17914e-06 2.1347e-06)
(1.54517e-05 -7.63827e-06 3.11312e-06)
(2.07434e-05 -8.80274e-06 3.89867e-06)
(2.60542e-05 -9.79955e-06 4.59751e-06)
(3.11935e-05 -1.06948e-05 5.29218e-06)
(3.59256e-05 -1.15247e-05 6.01601e-06)
(3.96984e-05 -1.21862e-05 6.7885e-06)
(4.20487e-05 -1.2773e-05 7.55858e-06)
(4.22163e-05 -1.31141e-05 8.32945e-06)
(3.99611e-05 -1.3686e-05 9.09361e-06)
(3.57542e-05 -1.41325e-05 9.93707e-06)
(3.00443e-05 -1.46116e-05 1.07306e-05)
(2.33442e-05 -1.50367e-05 1.13765e-05)
(1.59031e-05 -1.53946e-05 1.18209e-05)
(8.07143e-06 -1.56073e-05 1.20532e-05)
(1.21631e-07 -1.56595e-05 1.20662e-05)
(-7.64323e-06 -1.55519e-05 1.18608e-05)
(-1.49528e-05 -1.53009e-05 1.14446e-05)
(-2.14668e-05 -1.49832e-05 1.08296e-05)
(-2.69677e-05 -1.45943e-05 1.00782e-05)
(-3.08616e-05 -1.41656e-05 9.31867e-06)
(-3.27311e-05 -1.36749e-05 8.59522e-06)
(-3.21983e-05 -1.34066e-05 7.85648e-06)
(-2.94928e-05 -1.28424e-05 7.09693e-06)
(-2.53976e-05 -1.21216e-05 6.28372e-06)
(-2.03933e-05 -1.10627e-05 5.41569e-06)
(-1.50889e-05 -9.65084e-06 4.39509e-06)
(-9.72227e-06 -7.7259e-06 3.09697e-06)
(-4.95207e-06 -5.29565e-06 1.3528e-06)
(-1.23556e-06 -2.63951e-06 -2.03515e-08)
(4.52706e-07 -4.57409e-07 -1.97212e-07)
(-3.09291e-06 3.3402e-06 -1.00085e-06)
(-2.29643e-06 1.97738e-06 -6.14768e-06)
(2.99885e-06 -3.22202e-07 -7.85509e-06)
(8.64475e-06 -2.63966e-06 -8.23229e-06)
(1.44645e-05 -4.2978e-06 -8.50573e-06)
(2.01255e-05 -5.17399e-06 -9.04189e-06)
(2.56673e-05 -5.28546e-06 -9.96413e-06)
(3.09708e-05 -4.56233e-06 -1.13193e-05)
(3.589e-05 -2.89806e-06 -1.31361e-05)
(3.98052e-05 2.17721e-08 -1.54228e-05)
(4.22841e-05 3.91358e-06 -1.81e-05)
(4.2404e-05 8.81994e-06 -2.09748e-05)
(4.01281e-05 1.29478e-05 -2.36615e-05)
(3.60459e-05 1.64754e-05 -2.60345e-05)
(3.0311e-05 1.8975e-05 -2.79778e-05)
(2.35456e-05 2.07341e-05 -2.9437e-05)
(1.60435e-05 2.17791e-05 -3.04087e-05)
(8.18715e-06 2.22616e-05 -3.09101e-05)
(2.16547e-07 2.22135e-05 -3.09441e-05)
(-7.56694e-06 2.16342e-05 -3.05101e-05)
(-1.49248e-05 2.04928e-05 -2.96049e-05)
(-2.14694e-05 1.86407e-05 -2.82128e-05)
(-2.68923e-05 1.60708e-05 -2.63452e-05)
(-3.06434e-05 1.25294e-05 -2.40896e-05)
(-3.25806e-05 8.39084e-06 -2.15022e-05)
(-3.20499e-05 3.54255e-06 -1.87592e-05)
(-2.91339e-05 -1.33691e-07 -1.62706e-05)
(-2.47516e-05 -2.63739e-06 -1.42492e-05)
(-1.92859e-05 -3.54178e-06 -1.27942e-05)
(-1.33382e-05 -3.02628e-06 -1.18884e-05)
(-7.0304e-06 -1.12435e-06 -1.13759e-05)
(-8.86896e-07 1.84898e-06 -1.07809e-05)
(4.63683e-06 4.76044e-06 -8.55312e-06)
(4.58541e-06 6.10638e-06 -1.76013e-06)
(-5.30139e-06 1.30942e-05 -8.15936e-07)
(-5.66379e-06 1.40689e-05 -8.24576e-06)
(2.51218e-07 1.30423e-05 -1.09124e-05)
(6.71182e-06 1.19589e-05 -1.19035e-05)
(1.344e-05 1.19185e-05 -1.27103e-05)
(1.99721e-05 1.32348e-05 -1.38189e-05)
(2.64549e-05 1.61655e-05 -1.54504e-05)
(3.28443e-05 2.11157e-05 -1.7718e-05)
(3.91191e-05 2.85112e-05 -2.0684e-05)
(4.43954e-05 3.91077e-05 -2.4379e-05)
(4.80981e-05 5.23272e-05 -2.8673e-05)
(4.83895e-05 6.80963e-05 -3.33125e-05)
(4.52114e-05 8.20257e-05 -3.76896e-05)
(3.99896e-05 9.3983e-05 -4.15117e-05)
(3.30924e-05 0.000102923 -4.4616e-05)
(2.54108e-05 0.000109504 -4.69621e-05)
(1.70802e-05 0.000113722 -4.85302e-05)
(8.48964e-06 0.000115823 -4.93427e-05)
(-2.01251e-07 0.000115841 -4.93987e-05)
(-8.716e-06 0.000113777 -4.86977e-05)
(-1.6896e-05 0.0001096 -4.72404e-05)
(-2.43467e-05 0.000103065 -4.50073e-05)
(-3.09355e-05 9.41951e-05 -4.20228e-05)
(-3.57769e-05 8.23278e-05 -3.83391e-05)
(-3.85167e-05 6.86333e-05 -3.41215e-05)
(-3.76898e-05 5.32383e-05 -2.96853e-05)
(-3.33666e-05 4.06674e-05 -2.56626e-05)
(-2.73529e-05 3.09872e-05 -2.23188e-05)
(-2.01179e-05 2.49244e-05 -1.97852e-05)
(-1.25298e-05 2.17904e-05 -1.79826e-05)
(-4.58182e-06 2.11146e-05 -1.66384e-05)
(2.87031e-06 2.22388e-05 -1.51514e-05)
(9.30279e-06 2.32564e-05 -1.15474e-05)
(7.66939e-06 2.14221e-05 -1.68349e-06)
(-6.98123e-06 2.40091e-05 -2.33422e-08)
(-8.102e-06 2.65053e-05 -8.57656e-06)
(-1.44889e-06 2.65904e-05 -1.16461e-05)
(6.11488e-06 2.69114e-05 -1.28357e-05)
(1.42381e-05 2.87137e-05 -1.38425e-05)
(2.23186e-05 3.24441e-05 -1.51942e-05)
(3.06701e-05 3.85846e-05 -1.71528e-05)
(3.93583e-05 4.79253e-05 -1.98618e-05)
(4.85774e-05 6.13651e-05 -2.33827e-05)
(5.68824e-05 8.04923e-05 -2.77689e-05)
(6.33648e-05 0.000104533 -3.28389e-05)
(6.3943e-05 0.00013373 -3.8427e-05)
(5.85942e-05 0.000158832 -4.36637e-05)
(5.0735e-05 0.000180153 -4.8226e-05)
(4.10288e-05 0.000195981 -5.1922e-05)
(3.09285e-05 0.000207679 -5.47002e-05)
(2.02927e-05 0.000215214 -5.65401e-05)
(9.54557e-06 0.000219006 -5.74913e-05)
(-1.28926e-06 0.000219092 -5.75537e-05)
(-1.19598e-05 0.000215472 -5.67267e-05)
(-2.24428e-05 0.000208109 -5.50093e-05)
(-3.23005e-05 0.000196586 -5.23552e-05)
(-4.16733e-05 0.000180969 -4.87879e-05)
(-4.90797e-05 0.000159914 -4.43702e-05)
(-5.38706e-05 0.000135256 -3.93081e-05)
(-5.25614e-05 0.000106692 -3.39439e-05)
(-4.52068e-05 8.36907e-05 -2.91737e-05)
(-3.58474e-05 6.58778e-05 -2.51666e-05)
(-2.52171e-05 5.42028e-05 -2.2099e-05)
(-1.47943e-05 4.71121e-05 -1.98587e-05)
(-4.35808e-06 4.36537e-05 -1.8144e-05)
(4.91498e-06 4.27392e-05 -1.63572e-05)
(1.24948e-05 4.23287e-05 -1.21761e-05)
(9.94448e-06 3.85002e-05 -7.8157e-07)
(-8.09831e-06 3.55555e-05 9.36312e-07)
(-9.43542e-06 3.92673e-05 -8.5858e-06)
(-1.54666e-06 4.03397e-05 -1.19991e-05)
(7.6099e-06 4.212e-05 -1.33206e-05)
(1.76916e-05 4.58935e-05 -1.44783e-05)
(2.80455e-05 5.21807e-05 -1.60606e-05)
(3.92628e-05 6.16267e-05 -1.83597e-05)
(5.16426e-05 7.54448e-05 -2.15436e-05)
(6.58888e-05 9.52575e-05 -2.56314e-05)
(7.96877e-05 0.000124234 -3.07121e-05)
(9.17614e-05 0.000161972 -3.64875e-05)
(9.28262e-05 0.0002104 -4.31929e-05)
(8.29042e-05 0.000249848 -4.93601e-05)
(7.00835e-05 0.000282491 -5.48003e-05)
(5.53466e-05 0.000306049 -5.92261e-05)
(4.09994e-05 0.000323484 -6.24917e-05)
(2.62389e-05 0.0003347 -6.46143e-05)
(1.15762e-05 0.00034038 -6.57055e-05)
(-3.17737e-06 0.000340545 -6.57712e-05)
(-1.77671e-05 0.000335188 -6.48102e-05)
(-3.23814e-05 0.00032429 -6.28146e-05)
(-4.64815e-05 0.00030716 -5.96768e-05)
(-6.08611e-05 0.000283939 -5.53809e-05)
(-7.31441e-05 0.000251689 -5.00874e-05)
(-8.2372e-05 0.000212864 -4.41029e-05)
(-8.03178e-05 0.00016528 -3.76328e-05)
(-6.70797e-05 0.000129004 -3.21851e-05)
(-5.1924e-05 0.000101689 -2.75129e-05)
(-3.5811e-05 8.40159e-05 -2.39128e-05)
(-2.11512e-05 7.28544e-05 -2.12389e-05)
(-7.26873e-06 6.66016e-05 -1.92156e-05)
(4.61765e-06 6.37067e-05 -1.71605e-05)
(1.41624e-05 6.2115e-05 -1.24771e-05)
(1.14678e-05 5.67142e-05 3.54352e-07)
(-8.89414e-06 4.6746e-05 1.93067e-06)
(-9.89493e-06 5.13538e-05 -8.68356e-06)
(-8.1061e-08 5.32316e-05 -1.25047e-05)
(1.13049e-05 5.63747e-05 -1.39848e-05)
(2.39698e-05 6.20757e-05 -1.53212e-05)
(3.72836e-05 7.08085e-05 -1.71969e-05)
(5.22367e-05 8.324e-05 -1.99267e-05)
(6.95856e-05 0.000100913 -2.36923e-05)
(9.12019e-05 0.000126446 -2.8369e-05)
(0.000113943 0.000165899 -3.40566e-05)
(0.00013704 0.000220298 -3.98959e-05)
(0.000139228 0.000298253 -4.77759e-05)
(0.000120323 0.000355926 -5.49583e-05)
(9.92928e-05 0.000401619 -6.16937e-05)
(7.68483e-05 0.000433191 -6.72816e-05)
(5.6295e-05 0.000456652 -7.12026e-05)
(3.53456e-05 0.000471687 -7.36695e-05)
(1.47414e-05 0.000479351 -7.49262e-05)
(-6.00204e-06 0.000479602 -7.49953e-05)
(-2.65465e-05 0.000472428 -7.38755e-05)
(-4.73777e-05 0.000457862 -7.15401e-05)
(-6.77067e-05 0.000434825 -6.77518e-05)
(-8.98036e-05 0.000403683 -6.2296e-05)
(-0.000110223 0.000358438 -5.57129e-05)
(-0.000128303 0.000301519 -4.87281e-05)
(-0.000124769 0.000224522 -4.10876e-05)
(-0.00010017 0.000172145 -3.56126e-05)
(-7.58318e-05 0.000134649 -3.03735e-05)
(-5.18659e-05 0.000111572 -2.62424e-05)
(-3.16126e-05 9.69384e-05 -2.3062e-05)
(-1.32721e-05 8.82831e-05 -2.06822e-05)
(2.16441e-06 8.37846e-05 -1.82905e-05)
(1.46807e-05 8.13219e-05 -1.29641e-05)
(1.26012e-05 7.47432e-05 1.52477e-06)
(-9.56792e-06 5.71501e-05 2.94573e-06)
(-9.71159e-06 6.2455e-05 -8.99098e-06)
(2.8713e-06 6.51047e-05 -1.33365e-05)
(1.72406e-05 6.96546e-05 -1.50313e-05)
(3.31539e-05 7.74162e-05 -1.65948e-05)
(4.99898e-05 8.86471e-05 -1.88305e-05)
(6.91821e-05 0.000103746 -2.20608e-05)
(9.22096e-05 0.000124034 -2.64712e-05)
(0.000123394 0.000153054 -3.16591e-05)
(0.000159135 0.000200317 -3.75148e-05)
(0.000204069 0.000273018 -4.18498e-05)
(0.000209379 0.000399561 -5.06634e-05)
(0.000172429 0.000479808 -5.84189e-05)
(0.00013877 0.000540604 -6.70972e-05)
(0.000105729 0.000580822 -7.46231e-05)
(7.7158e-05 0.000611275 -7.92509e-05)
(4.78514e-05 0.00063082 -8.2074e-05)
(1.91474e-05 0.000640855 -8.34962e-05)
(-9.83289e-06 0.000641206 -8.3569e-05)
(-3.85053e-05 0.000631857 -8.22907e-05)
(-6.77571e-05 0.000612955 -7.96041e-05)
(-9.61801e-05 0.000583047 -7.51161e-05)
(-0.00012896 0.000543319 -6.77268e-05)
(-0.000161974 0.000482928 -5.92163e-05)
(-0.00019803 0.000403454 -5.16931e-05)
(-0.000190817 0.000277766 -4.31151e-05)
(-0.000143956 0.000208027 -3.92013e-05)
(-0.000106572 0.000162895 -3.38311e-05)
(-7.25025e-05 0.000136545 -2.92674e-05)
(-4.5792e-05 0.000119628 -2.55443e-05)
(-2.21979e-05 0.000108927 -2.27605e-05)
(-2.25638e-06 0.000102952 -1.99515e-05)
(1.43786e-05 9.96831e-05 -1.37774e-05)
(1.36192e-05 9.21179e-05 2.82589e-06)
(-1.02299e-05 6.62254e-05 3.96406e-06)
(-8.92363e-06 7.20492e-05 -9.5344e-06)
(7.48324e-06 7.55468e-05 -1.45517e-05)
(2.58131e-05 8.15766e-05 -1.65249e-05)
(4.58463e-05 9.15804e-05 -1.83768e-05)
(6.67744e-05 0.000105387 -2.10587e-05)
(9.00949e-05 0.000122654 -2.49073e-05)
(0.000117915 0.000143366 -3.01765e-05)
(0.000157525 0.000170053 -3.59008e-05)
(0.000208643 0.000218506 -4.24065e-05)
(0.000297991 0.000304826 -3.86015e-05)
(0.000312608 0.000518141 -4.58801e-05)
(0.000240782 0.000620673 -5.43946e-05)
(0.000190926 0.000694443 -6.73083e-05)
(0.000144819 0.000741635 -7.85064e-05)
(0.000106292 0.00077812 -8.39064e-05)
(6.55074e-05 0.000801735 -8.70945e-05)
(2.54159e-05 0.000814003 -8.86865e-05)
(-1.5222e-05 0.000814476 -8.87636e-05)
(-5.53274e-05 0.000803125 -8.73231e-05)
(-9.6168e-05 0.000780362 -8.42778e-05)
(-0.000134707 0.00074457 -7.90319e-05)
(-0.000180795 0.000697914 -6.79836e-05)
(-0.000230123 0.000624352 -5.5274e-05)
(-0.000301223 0.000522527 -4.71003e-05)
(-0.000283647 0.000309745 -3.99469e-05)
(-0.000191767 0.000228373 -4.41617e-05)
(-0.000139432 0.000181693 -3.82218e-05)
(-9.62624e-05 0.000157584 -3.32489e-05)
(-6.37477e-05 0.000140386 -2.88186e-05)
(-3.46158e-05 0.000128065 -2.55515e-05)
(-9.09457e-06 0.000120613 -2.22283e-05)
(1.31746e-05 0.00011642 -1.49376e-05)
(1.46127e-05 0.000108267 4.40088e-06)
(-1.09369e-05 7.35647e-05 5.10202e-06)
(-7.48791e-06 7.98628e-05 -1.02862e-05)
(1.3895e-05 8.43927e-05 -1.62196e-05)
(3.72639e-05 9.23918e-05 -1.85009e-05)
(6.25123e-05 0.000105605 -2.06735e-05)
(8.82055e-05 0.00012358 -2.38168e-05)
(0.000115095 0.000145208 -2.83183e-05)
(0.000144036 0.000167059 -3.45081e-05)
(0.000187286 0.000190488 -4.17763e-05)
(0.000246351 0.000232197 -4.7208e-05)
(0.000421358 0.000255675 -4.56589e-05)
(0.000460455 0.000633404 -3.6089e-05)
(0.000315858 0.000768998 -4.11412e-05)
(0.000251779 0.000862559 -6.11018e-05)
(0.000192521 0.000921563 -7.7458e-05)
(0.00014252 0.000969758 -8.33204e-05)
(8.77153e-05 0.00100132 -8.73655e-05)
(3.34006e-05 0.00101756 -8.93172e-05)
(-2.1939e-05 0.00101818 -8.93944e-05)
(-7.63269e-05 0.00100317 -8.75938e-05)
(-0.000131336 0.000972776 -8.36847e-05)
(-0.000181601 0.000925538 -7.7978e-05)
(-0.000241348 0.000867229 -6.17691e-05)
(-0.000305205 0.000773744 -4.20628e-05)
(-0.00044966 0.000638584 -3.74593e-05)
(-0.000405466 0.000258524 -4.75339e-05)
(-0.00022749 0.000242919 -4.9282e-05)
(-0.00016899 0.000202833 -4.43239e-05)
(-0.000121009 0.000182279 -3.79726e-05)
(-8.59921e-05 0.000164072 -3.28145e-05)
(-5.13439e-05 0.000147881 -2.90923e-05)
(-1.90097e-05 0.000137353 -2.52792e-05)
(1.09158e-05 0.00013136 -1.65052e-05)
(1.58114e-05 0.000122648 6.05581e-06)
(-1.15132e-05 7.85319e-05 6.38683e-06)
(-5.09051e-06 8.51302e-05 -1.13082e-05)
(2.2869e-05 9.05485e-05 -1.83385e-05)
(5.32748e-05 0.000100537 -2.10164e-05)
(8.63399e-05 0.000117169 -2.36015e-05)
(0.000120054 0.000140035 -2.73275e-05)
(0.000152645 0.000166768 -3.26494e-05)
(0.000184238 0.000188522 -4.13576e-05)
(0.000224902 0.000191951 -5.05365e-05)
(0.000184594 0.000102557 -7.35729e-05)
(0.000494381 0.000223186 -7.19059e-05)
(0.000670426 0.000883631 -5.13296e-06)
(0.000412727 0.000954195 5.81424e-07)
(0.000344593 0.00101493 -2.21945e-05)
(0.000269266 0.00107512 -4.25511e-05)
(0.000201476 0.00112566 -4.38026e-05)
(0.000123426 0.00116184 -4.6395e-05)
(4.59302e-05 0.00118053 -4.79276e-05)
(-3.265e-05 0.00118132 -4.79825e-05)
(-0.000110249 0.00116418 -4.65621e-05)
(-0.000188625 0.0011295 -4.40481e-05)
(-0.000256949 0.00108028 -4.29514e-05)
(-0.000333386 0.00102096 -2.27294e-05)
(-0.000402118 0.000959873 -2.06983e-07)
(-0.000664112 0.000885732 -6.75753e-06)
(-0.000480578 0.000226422 -7.44244e-05)
(-0.000164359 0.000121823 -7.4705e-05)
(-0.000206651 0.000208751 -5.26705e-05)
(-0.000159943 0.000205424 -4.51118e-05)
(-0.000121103 0.000186425 -3.79013e-05)
(-7.845e-05 0.00016517 -3.36976e-05)
(-3.54155e-05 0.000150509 -2.93458e-05)
(5.94153e-06 0.000142431 -1.86868e-05)
(1.65511e-05 0.000133397 8.00771e-06)
(-1.20951e-05 8.06896e-05 7.72226e-06)
(-2.11532e-06 8.7451e-05 -1.2604e-05)
(3.35933e-05 9.37788e-05 -2.08923e-05)
(7.2604e-05 0.000106006 -2.40589e-05)
(0.00011584 0.000127338 -2.71073e-05)
(0.00016047 0.000159769 -3.10423e-05)
(0.000201228 0.000206127 -3.59078e-05)
(0.0002293 0.000268562 -4.007e-05)
(0.000183858 0.00035108 -5.95436e-05)
(0.000180704 0.000398971 -9.83533e-05)
(0.000292424 0.000743511 7.44008e-05)
(0.000320656 0.000951678 4.16111e-05)
(0.000401369 0.00107119 2.8288e-05)
(0.000346993 0.00117741 2.79299e-05)
(0.000261498 0.00125255 2.29197e-05)
(0.000162038 0.0013022 1.72538e-05)
(5.96626e-05 0.00132642 1.45028e-05)
(-4.40743e-05 0.00132734 1.45042e-05)
(-0.000146577 0.00130498 1.7247e-05)
(-0.000246408 0.00125728 2.29101e-05)
(-0.000332661 0.00118428 2.7943e-05)
(-0.000388998 0.00108033 2.83905e-05)
(-0.000312655 0.000963074 4.13203e-05)
(-0.000287583 0.000754331 7.27644e-05)
(-0.000176454 0.000409732 -9.4713e-05)
(-0.000174905 0.000365214 -6.11901e-05)
(-0.00020909 0.000284021 -4.46443e-05)
(-0.000169598 0.000224982 -4.23983e-05)
(-0.00011518 0.000184551 -3.90519e-05)
(-5.76255e-05 0.000160977 -3.45429e-05)
(-1.22401e-06 0.000149177 -2.17146e-05)
(1.71318e-05 0.000139578 9.9473e-06)
(-1.24089e-05 7.93237e-05 9.0896e-06)
(1.85884e-06 8.58928e-05 -1.40824e-05)
(4.68875e-05 9.22255e-05 -2.37542e-05)
(9.75678e-05 0.000104654 -2.75916e-05)
(0.000157822 0.000126626 -3.15388e-05)
(0.000229875 0.000160899 -3.67841e-05)
(0.000318266 0.000212332 -4.3353e-05)
(0.000435872 0.000287906 -4.7922e-05)
(0.000570955 0.000399931 -4.96433e-05)
(0.000840143 0.000567789 -3.01563e-05)
(0.000868577 0.000154146 5.28891e-05)
(0.000651909 0.00029803 8.5636e-05)
(0.000718296 0.000689373 0.000137239)
(0.000645981 0.000901719 0.000186634)
(0.000513346 0.00104902 0.000214386)
(0.000366695 0.00114577 0.000223021)
(0.000220419 0.00120484 0.000222572)
(7.88452e-05 0.00123284 0.000221352)
(-6.08849e-05 0.00123373 0.0002214)
(-0.000202394 0.00120758 0.000222712)
(-0.000348553 0.00115052 0.000223279)
(-0.000495015 0.00105608 0.000214915)
(-0.000627569 0.000911539 0.000187773)
(-0.000700217 0.00070254 0.000139109)
(-0.0006328 0.000313547 8.88489e-05)
(-0.000856887 0.000156518 5.54991e-05)
(-0.000835205 0.000567758 -2.92798e-05)
(-0.000560063 0.000408029 -5.21227e-05)
(-0.000416191 0.000300454 -5.31569e-05)
(-0.000285989 0.000229598 -5.123e-05)
(-0.000181136 0.000184629 -4.67322e-05)
(-9.25578e-05 0.000159491 -4.11464e-05)
(-1.34385e-05 0.000147299 -2.55537e-05)
(1.62331e-05 0.000137786 1.1896e-05)
(-1.30245e-05 7.43914e-05 1.04051e-05)
(4.88952e-06 8.04035e-05 -1.5458e-05)
(5.80207e-05 8.5683e-05 -2.64678e-05)
(0.000118065 9.58807e-05 -3.09555e-05)
(0.000190406 0.000113369 -3.5691e-05)
(0.000278267 0.000138895 -4.20028e-05)
(0.0003867 0.000172296 -4.95429e-05)
(0.000525446 0.000210873 -5.48891e-05)
(0.000685955 0.000243489 -5.42487e-05)
(0.000924098 0.000262417 -3.65679e-05)
(0.00103786 0.000123428 -8.12024e-06)
(0.000987015 0.000316648 4.37458e-05)
(0.000940894 0.000511797 0.000142764)
(0.000806673 0.000655247 0.000209287)
(0.000635023 0.000765747 0.000243887)
(0.000448279 0.00083845 0.000258204)
(0.000267343 0.000883731 0.000261018)
(9.4597e-05 0.000905523 0.000261079)
(-7.47052e-05 0.000906272 0.000261135)
(-0.000247325 0.00088599 0.000261182)
(-0.000428031 0.000842254 0.000258519)
(-0.00061444 0.000771113 0.000244515)
(-0.000786188 0.000662089 0.000210649)
(-0.000921144 0.000519399 0.000145129)
(-0.000968582 0.000323868 4.79088e-05)
(-0.00102546 0.000125795 -5.44623e-06)
(-0.000916809 0.000267859 -3.66372e-05)
(-0.00067579 0.000252031 -5.74089e-05)
(-0.000506129 0.000222764 -6.10625e-05)
(-0.00035317 0.00018861 -5.8784e-05)
(-0.000225587 0.000161455 -5.37337e-05)
(-0.000117765 0.000144587 -4.71899e-05)
(-2.15149e-05 0.000136232 -2.90671e-05)
(1.65646e-05 0.000127643 1.39337e-05)
(-1.36863e-05 6.66389e-05 1.16549e-05)
(7.19485e-06 7.19799e-05 -1.65839e-05)
(6.71682e-05 7.60564e-05 -2.87719e-05)
(0.000134806 8.37935e-05 -3.38335e-05)
(0.000216322 9.68462e-05 -3.92919e-05)
(0.000314936 0.000115214 -4.67705e-05)
(0.000435485 0.000137735 -5.60561e-05)
(0.000584846 0.000162357 -6.47465e-05)
(0.000754068 0.000182539 -6.91242e-05)
(0.00095195 0.000200708 -6.22062e-05)
(0.00108181 0.000162965 -4.09987e-05)
(0.00111889 0.000252206 2.37996e-05)
(0.00107012 0.00037323 0.000127839)
(0.000914005 0.000473008 0.000193618)
(0.00071508 0.000549836 0.000228581)
(0.000500709 0.000598881 0.000237692)
(0.000297511 0.000629365 0.000236775)
(0.000104753 0.000643903 0.000234861)
(-8.33745e-05 0.000644511 0.000234883)
(-0.000275984 0.00063119 0.000236837)
(-0.000478925 0.000601913 0.000237837)
(-0.000692963 0.000554035 0.000228979)
(-0.000892179 0.000478274 0.00019473)
(-0.00104939 0.000379199 0.000129951)
(-0.00110192 0.000258581 2.77411e-05)
(-0.00107123 0.000167266 -3.86542e-05)
(-0.000944352 0.000206141 -6.22409e-05)
(-0.000743259 0.000190375 -7.24824e-05)
(-0.000564428 0.000173302 -7.14403e-05)
(-0.000399612 0.000152815 -6.62319e-05)
(-0.000257677 0.000136035 -5.97883e-05)
(-0.000136227 0.000125355 -5.21268e-05)
(-2.69251e-05 0.00012006 -3.18019e-05)
(1.72283e-05 0.000112544 1.60996e-05)
(-1.44761e-05 5.66651e-05 1.27263e-05)
(8.40679e-06 6.11665e-05 -1.74435e-05)
(7.33507e-05 6.3975e-05 -3.05863e-05)
(0.000146131 6.91819e-05 -3.61088e-05)
(0.000233223 7.78675e-05 -4.2128e-05)
(0.00033733 8.96585e-05 -5.05065e-05)
(0.000462927 0.000103221 -6.11194e-05)
(0.000614582 0.000117252 -7.19488e-05)
(0.000784639 0.000127827 -7.89268e-05)
(0.00096793 0.000139826 -7.51423e-05)
(0.00111146 0.000138349 -5.42086e-05)
(0.00119034 0.000194627 6.89549e-06)
(0.00114468 0.000270896 0.000108755)
(0.000975657 0.000334077 0.000168162)
(0.000762245 0.000383233 0.000198107)
(0.000532479 0.000415259 0.000201469)
(0.000316232 0.000435492 0.000196904)
(0.000111184 0.000445265 0.000193129)
(-8.86391e-05 0.000445803 0.000193115)
(-0.000293568 0.000437089 0.000196855)
(-0.000509626 0.000417859 0.000201425)
(-0.000739175 0.000386739 0.000198234)
(-0.000953123 0.00033836 0.000168949)
(-0.00112358 0.000275695 0.000110542)
(-0.00117392 0.000199824 1.0659e-05)
(-0.00110129 0.000143081 -5.20184e-05)
(-0.000959749 0.000145657 -7.53605e-05)
(-0.000772892 0.000135399 -8.25145e-05)
(-0.000592567 0.00012734 -7.90514e-05)
(-0.000424285 0.000116822 -7.19548e-05)
(-0.000275473 0.00010811 -6.43993e-05)
(-0.000146365 0.000102617 -5.57935e-05)
(-2.8775e-05 9.99081e-05 -3.36899e-05)
(1.87629e-05 9.39329e-05 1.78572e-05)
(-1.51951e-05 4.53224e-05 1.35908e-05)
(8.97423e-06 4.89352e-05 -1.80661e-05)
(7.74084e-05 5.07875e-05 -3.19292e-05)
(0.000153672 5.41441e-05 -3.77958e-05)
(0.000244293 5.97806e-05 -4.4227e-05)
(0.000351485 6.73847e-05 -5.32651e-05)
(0.000479533 7.60536e-05 -6.48499e-05)
(0.000631806 8.52748e-05 -7.71177e-05)
(0.000802233 9.33159e-05 -8.57337e-05)
(0.000982104 0.000104382 -8.37391e-05)
(0.0011354 0.000114635 -6.25016e-05)
(0.00123398 0.000151859 -2.69469e-06)
(0.00119064 0.000199689 9.7764e-05)
(0.00101519 0.000241129 0.000153139)
(0.00079263 0.000273594 0.000179361)
(0.000553014 0.00029518 0.000178987)
(0.000328371 0.000308934 0.000171978)
(0.000115461 0.000315695 0.000166976)
(-9.18537e-05 0.000316225 0.000166943)
(-0.000304691 0.0003105 0.000171872)
(-0.000529241 0.000297702 0.000178841)
(-0.000768781 0.000276947 0.00017934)
(-0.000992094 0.00024516 0.000153748)
(-0.00116921 0.000204201 9.93403e-05)
(-0.00121769 0.000156843 7.83851e-07)
(-0.00112526 0.000119564 -6.04271e-05)
(-0.000973349 0.000110092 -8.4042e-05)
(-0.000789464 0.000100273 -8.94733e-05)
(-0.000608085 9.41633e-05 -8.44898e-05)
(-0.0004382 8.76873e-05 -7.61126e-05)
(-0.000285536 8.27781e-05 -6.77087e-05)
(-0.000151835 7.99269e-05 -5.83639e-05)
(-2.89485e-05 7.85324e-05 -3.49192e-05)
(2.03683e-05 7.38841e-05 1.92065e-05)
(-1.57949e-05 3.31325e-05 1.42038e-05)
(9.11104e-06 3.57749e-05 -1.85092e-05)
(7.97822e-05 3.68904e-05 -3.28699e-05)
(0.00015823 3.88695e-05 -3.89668e-05)
(0.000250965 4.22744e-05 -4.56607e-05)
(0.000359885 4.69576e-05 -5.51051e-05)
(0.000489289 5.24861e-05 -6.72679e-05)
(0.00064213 5.88265e-05 -8.03183e-05)
(0.000813695 6.54779e-05 -8.97654e-05)
(0.000994287 7.52672e-05 -8.84975e-05)
(0.00115387 8.72091e-05 -6.72147e-05)
(0.00126254 0.000111754 -7.21078e-06)
(0.00122073 0.00014197 9.28537e-05)
(0.00104104 0.000168588 0.000146604)
(0.000812621 0.000189609 0.000171087)
(0.000566811 0.000204096 0.000168982)
(0.000336679 0.000213526 0.000160864)
(0.00011853 0.000218337 0.000155313)
(-9.38502e-05 0.000218905 0.000155276)
(-0.000311992 0.000215196 0.000160743)
(-0.000542158 0.00020676 0.000168809)
(-0.000788071 0.000193101 0.000171021)
(-0.00101746 0.0001727 0.000147155)
(-0.00119895 0.000146473 9.43333e-05)
(-0.00124625 0.000116564 -4.1247e-06)
(-0.00114368 9.20698e-05 -6.52628e-05)
(-0.000985059 8.05952e-05 -8.89017e-05)
(-0.000800063 7.1592e-05 -9.3654e-05)
(-0.00061699 6.62256e-05 -8.79107e-05)
(-0.000445795 6.17512e-05 -7.88401e-05)
(-0.000290795 5.87742e-05 -6.99207e-05)
(-0.000154401 5.72576e-05 -6.00889e-05)
(-2.83296e-05 5.65258e-05 -3.57264e-05)
(2.18027e-05 5.31949e-05 2.00799e-05)
(-1.61976e-05 2.05598e-05 1.45642e-05)
(9.08722e-06 2.21997e-05 -1.88116e-05)
(8.10463e-05 2.27664e-05 -3.34707e-05)
(0.000160782 2.37541e-05 -3.96993e-05)
(0.0002548 2.55574e-05 -4.65372e-05)
(0.000364859 2.82226e-05 -5.61989e-05)
(0.000495329 3.1728e-05 -6.86655e-05)
(0.000649067 3.62618e-05 -8.21028e-05)
(0.000822067 4.18989e-05 -9.19376e-05)
(0.00100432 4.98656e-05 -9.09343e-05)
(0.0011677 5.99603e-05 -6.95662e-05)
(0.00128106 7.49992e-05 -9.15914e-06)
(0.00123983 9.1908e-05 9.13568e-05)
(0.0010576 0.000107126 0.000144937)
(0.000825574 0.000119305 0.000168958)
(0.000575964 0.000128135 0.000166311)
(0.000342316 0.000134057 0.000157827)
(0.00012078 0.000137281 0.000152098)
(-9.49268e-05 0.000137923 0.000152065)
(-0.000316536 0.00013594 0.000157715)
(-0.000550378 0.00013112 0.00016615)
(-0.000800319 0.000123182 0.000168905)
(-0.00103359 0.000111604 0.000145494)
(-0.00121791 9.66748e-05 9.28698e-05)
(-0.00126481 7.9763e-05 -5.9767e-06)
(-0.00115743 6.46912e-05 -6.76643e-05)
(-0.000994836 5.47111e-05 -9.14395e-05)
(-0.000807921 4.70344e-05 -9.59687e-05)
(-0.000623039 4.19949e-05 -8.98836e-05)
(-0.000450472 3.83891e-05 -8.04763e-05)
(-0.000293812 3.61817e-05 -7.12847e-05)
(-0.000155731 3.5122e-05 -6.1179e-05)
(-2.77734e-05 3.46005e-05 -3.62634e-05)
(2.27639e-05 3.2497e-05 2.05577e-05)
(-1.63859e-05 7.89533e-06 1.46684e-05)
(9.00483e-06 8.50651e-06 -1.89975e-05)
(8.1434e-05 8.56692e-06 -3.37698e-05)
(0.00016171 8.6584e-06 -4.00391e-05)
(0.000256369 9.00943e-06 -4.6914e-05)
(0.000367186 9.84603e-06 -5.66265e-05)
(0.000498599 1.15041e-05 -6.91619e-05)
(0.000653499 1.43141e-05 -8.26759e-05)
(0.000827948 1.87718e-05 -9.2581e-05)
(0.00101176 2.46666e-05 -9.16152e-05)
(0.00117669 3.21381e-05 -7.02548e-05)
(0.00129094 3.87541e-05 -9.70417e-06)
(0.00124938 4.38479e-05 9.12223e-05)
(0.00106593 4.85664e-05 0.000145139)
(0.000832281 5.24514e-05 0.000169309)
(0.000580978 5.58774e-05 0.000166722)
(0.000345595 5.84531e-05 0.000158246)
(0.000122337 6.01844e-05 0.00015252)
(-9.51369e-05 6.09367e-05 0.000152492)
(-0.000318571 6.06593e-05 0.000158146)
(-0.000554343 5.93625e-05 0.000166577)
(-0.000806268 5.69522e-05 0.000169275)
(-0.00104152 5.36918e-05 0.000145704)
(-0.00122743 4.91919e-05 9.27466e-05)
(-0.00127486 4.38839e-05 -6.45839e-06)
(-0.00116654 3.68484e-05 -6.84319e-05)
(-0.00100232 2.90766e-05 -9.22535e-05)
(-0.000813728 2.29567e-05 -9.67758e-05)
(-0.000627227 1.83968e-05 -9.06446e-05)
(-0.000453306 1.55543e-05 -8.11806e-05)
(-0.000295476 1.39286e-05 -7.19318e-05)
(-0.000156429 1.31599e-05 -6.17501e-05)
(-2.75803e-05 1.27803e-05 -3.66157e-05)
(2.31705e-05 1.19171e-05 2.06728e-05)
(-1.63636e-05 -4.55372e-06 1.45184e-05)
(8.85783e-06 -4.96282e-06 -1.90694e-05)
(8.0937e-05 -5.4676e-06 -3.37718e-05)
(0.000161002 -6.38951e-06 -3.99931e-05)
(0.000255647 -7.68431e-06 -4.68043e-05)
(0.000366803 -8.95968e-06 -5.64122e-05)
(0.000498977 -9.49343e-06 -6.87881e-05)
(0.000655259 -8.72308e-06 -8.20774e-05)
(0.00083121 -5.49699e-06 -9.17422e-05)
(0.00101659 -1.32539e-06 -9.06018e-05)
(0.00118106 4.90595e-06 -6.93681e-05)
(0.00129249 3.72825e-06 -8.93293e-06)
(0.00124948 -3.62986e-06 9.21473e-05)
(0.00106597 -1.00158e-05 0.000146758)
(0.000832652 -1.49737e-05 0.000171601)
(0.000581794 -1.72389e-05 0.000169619)
(0.000346503 -1.81697e-05 0.00016149)
(0.00012322 -1.79739e-05 0.00015593)
(-9.44249e-05 -1.70557e-05 0.000155903)
(-0.000318006 -1.54717e-05 0.000161394)
(-0.000553923 -1.29754e-05 0.000169471)
(-0.000805761 -9.46508e-06 0.000171548)
(-0.00104111 -3.79481e-06 0.000147272)
(-0.00122751 2.75325e-06 9.35628e-05)
(-0.00127676 9.58335e-06 -5.93547e-06)
(-0.00117135 9.84282e-06 -6.7731e-05)
(-0.00100753 2.90912e-06 -9.14395e-05)
(-0.000817367 -1.98209e-06 -9.61417e-05)
(-0.000629399 -5.98261e-06 -9.02425e-05)
(-0.000454187 -7.73579e-06 -8.09862e-05)
(-0.000295718 -8.44195e-06 -7.18843e-05)
(-0.000156453 -8.6608e-06 -6.18173e-05)
(-2.77252e-05 -8.7599e-06 -3.67945e-05)
(2.30347e-05 -8.36247e-06 2.04321e-05)
(-1.61561e-05 -1.64797e-05 1.41179e-05)
(8.53534e-06 -1.7898e-05 -1.9011e-05)
(7.93161e-05 -1.91621e-05 -3.34501e-05)
(0.000158249 -2.14868e-05 -3.9531e-05)
(0.000251984 -2.50822e-05 -4.61682e-05)
(0.000362782 -2.94571e-05 -5.54971e-05)
(0.000495294 -3.34799e-05 -6.74727e-05)
(0.000653156 -3.61233e-05 -8.01969e-05)
(0.000830948 -3.48534e-05 -8.92439e-05)
(0.00101914 -3.18417e-05 -8.7544e-05)
(0.0011816 -2.25359e-05 -6.64257e-05)
(0.00128506 -3.14933e-05 -6.18791e-06)
(0.00123872 -5.45567e-05 9.543e-05)
(0.00105659 -7.52423e-05 0.000151739)
(0.000825854 -9.17179e-05 0.00017827)
(0.000577929 -0.000101143 0.000177923)
(0.00034479 -0.000106355 0.000170779)
(0.0001234 -0.000107964 0.000165683)
(-9.26222e-05 -0.000106799 0.000165636)
(-0.000314452 -0.000102918 0.000170615)
(-0.000548493 -9.56877e-05 0.000177655)
(-0.000797843 -8.46129e-05 0.00017804)
(-0.00103115 -6.72271e-05 0.000152013)
(-0.00121683 -4.64214e-05 9.65338e-05)
(-0.00126988 -2.44947e-05 -3.57472e-06)
(-0.00117253 -1.70792e-05 -6.5101e-05)
(-0.00101066 -2.7354e-05 -8.87088e-05)
(-0.000817822 -3.14952e-05 -9.39387e-05)
(-0.000628264 -3.41441e-05 -8.85992e-05)
(-0.000451867 -3.34023e-05 -7.98325e-05)
(-0.00029357 -3.18933e-05 -7.10751e-05)
(-0.000155163 -3.06299e-05 -6.13075e-05)
(-2.7877e-05 -2.99585e-05 -3.67399e-05)
(2.24576e-05 -2.81638e-05 1.98096e-05)
(-1.58457e-05 -2.73933e-05 1.34679e-05)
(7.77242e-06 -2.97457e-05 -1.87928e-05)
(7.60224e-05 -3.19518e-05 -3.27593e-05)
(0.000152502 -3.60776e-05 -3.85964e-05)
(0.000243825 -4.26869e-05 -4.49248e-05)
(0.00035272 -5.13344e-05 -5.37466e-05)
(0.000484168 -6.06053e-05 -6.49674e-05)
(0.000643209 -6.88511e-05 -7.65408e-05)
(0.000823601 -7.11222e-05 -8.42601e-05)
(0.0010193 -6.94039e-05 -8.10297e-05)
(0.00117884 -4.67888e-05 -6.04572e-05)
(0.00126519 -6.44316e-05 -4.29818e-07)
(0.00121215 -0.000112148 0.000102577)
(0.00103302 -0.00015302 0.000162276)
(0.000808303 -0.000185514 0.000191914)
(0.000567273 -0.000204842 0.00019488)
(0.000339387 -0.000216008 0.000189833)
(0.000122611 -0.000220144 0.000185752)
(-8.92964e-05 -0.000218591 0.000185642)
(-0.000306661 -0.000211387 0.000189478)
(-0.000535735 -0.000197425 0.000194278)
(-0.000778724 -0.00017568 0.000191214)
(-0.00100672 -0.000141828 0.000161961)
(-0.0011904 -0.000100743 0.000103088)
(-0.00125092 -5.51359e-05 1.85121e-06)
(-0.00117046 -4.01411e-05 -5.95761e-05)
(-0.00101136 -6.37094e-05 -8.27143e-05)
(-0.000811361 -6.69582e-05 -8.93865e-05)
(-0.00061968 -6.67039e-05 -8.52317e-05)
(-0.000442806 -6.13011e-05 -7.7445e-05)
(-0.000286477 -5.58299e-05 -6.93111e-05)
(-0.000150938 -5.1937e-05 -6.00588e-05)
(-2.71926e-05 -4.99374e-05 -3.63277e-05)
(2.17588e-05 -4.67592e-05 1.87292e-05)
(-1.54693e-05 -3.67782e-05 1.26158e-05)
(6.41335e-06 -4.00216e-05 -1.83718e-05)