/*--------------------------------*- C++ -*----------------------------------*\
| =========                 |                                                 |
| \\      /  F ield         | OpenFOAM: The Open Source CFD Toolbox           |
|  \\    /   O peration     | Version:  2112                                  |
|   \\  /    A nd           | Website:  www.openfoam.com                      |
|    \\/     M anipulation  |                                                 |
\*---------------------------------------------------------------------------*/
FoamFile
{
    version     2.0;
    format      ascii;
    arch        "LSB;label=32;scalar=64";
    class       volScalarField;
    location    "0.1";
    object      p;
}
// * * * * * * * * * * * * * * * * * * * * * * * * * * * * * * * * * * * * * //

dimensions      [0 2 -2 0 0 0 0];

internalField   nonuniform List<scalar> 
64906
(
-3.61793e-05
-3.62697e-05
-3.6475e-05
-3.67966e-05
-3.72319e-05
-3.77769e-05
-3.84269e-05
-3.91757e-05
-4.00124e-05
-4.0924e-05
-4.18843e-05
-4.28678e-05
-4.3823e-05
-4.47095e-05
-4.54841e-05
-4.61139e-05
-4.65723e-05
-4.68421e-05
-4.6915e-05
-4.67912e-05
-4.64808e-05
-4.6002e-05
-4.53824e-05
-4.4656e-05
-4.38668e-05
-4.30557e-05
-4.22751e-05
-4.15503e-05
-4.09077e-05
-4.03606e-05
-3.99201e-05
-3.95934e-05
-3.93857e-05
-3.92888e-05
-3.6262e-05
-3.63362e-05
-3.65443e-05
-3.68708e-05
-3.73132e-05
-3.78683e-05
-3.8532e-05
-3.92994e-05
-4.01605e-05
-4.11043e-05
-4.21023e-05
-4.31321e-05
-4.41305e-05
-4.50564e-05
-4.58625e-05
-4.65162e-05
-4.69905e-05
-4.72684e-05
-4.73418e-05
-4.72109e-05
-4.68858e-05
-4.63842e-05
-4.57344e-05
-4.497e-05
-4.41393e-05
-4.32837e-05
-4.24674e-05
-4.17125e-05
-4.10478e-05
-4.04844e-05
-4.00326e-05
-3.96983e-05
-3.94862e-05
-3.94103e-05
-3.6551e-05
-3.6627e-05
-3.68501e-05
-3.72005e-05
-3.76768e-05
-3.82769e-05
-3.89987e-05
-3.98408e-05
-4.07952e-05
-4.18582e-05
-4.29947e-05
-4.41943e-05
-4.53527e-05
-4.64256e-05
-4.73526e-05
-4.80998e-05
-4.86373e-05
-4.89481e-05
-4.90233e-05
-4.88635e-05
-4.84789e-05
-4.7888e-05
-4.71217e-05
-4.62151e-05
-4.52298e-05
-4.42102e-05
-4.32627e-05
-4.23963e-05
-4.16466e-05
-4.10177e-05
-4.05181e-05
-4.01505e-05
-3.99178e-05
-3.98392e-05
-3.7009e-05
-3.70892e-05
-3.73359e-05
-3.77245e-05
-3.82546e-05
-3.8926e-05
-3.97395e-05
-4.06994e-05
-4.18023e-05
-4.30598e-05
-4.4425e-05
-4.5925e-05
-4.73559e-05
-4.8676e-05
-4.98022e-05
-5.07024e-05
-5.13428e-05
-5.17068e-05
-5.17851e-05
-5.15781e-05
-5.10969e-05
-5.03596e-05
-4.94011e-05
-4.82546e-05
-4.70055e-05
-4.56944e-05
-4.45303e-05
-4.34813e-05
-4.25964e-05
-4.1864e-05
-4.12891e-05
-4.08692e-05
-4.06047e-05
-4.05205e-05
-3.7633e-05
-3.77189e-05
-3.79987e-05
-3.84405e-05
-3.90453e-05
-3.98148e-05
-4.07536e-05
-4.18756e-05
-4.31841e-05
-4.47242e-05
-4.64248e-05
-4.84297e-05
-5.02846e-05
-5.19808e-05
-5.34008e-05
-5.45241e-05
-5.53135e-05
-5.57542e-05
-5.58368e-05
-5.55618e-05
-5.49406e-05
-5.3989e-05
-5.27462e-05
-5.12336e-05
-4.95722e-05
-4.77675e-05
-4.62859e-05
-4.4971e-05
-4.38984e-05
-4.30234e-05
-4.23454e-05
-4.18535e-05
-4.1545e-05
-4.14538e-05
-3.8415e-05
-3.85081e-05
-3.8831e-05
-3.93422e-05
-4.00436e-05
-4.09385e-05
-4.20346e-05
-4.33589e-05
-4.49245e-05
-4.68406e-05
-4.89838e-05
-5.18523e-05
-5.43328e-05
-5.6568e-05
-5.83929e-05
-5.98213e-05
-6.08127e-05
-6.13573e-05
-6.14458e-05
-6.10788e-05
-6.02671e-05
-5.90221e-05
-5.73861e-05
-5.53464e-05
-5.30742e-05
-5.04169e-05
-4.8521e-05
-4.68508e-05
-4.55435e-05
-4.449e-05
-4.36822e-05
-4.30981e-05
-4.27328e-05
-4.26333e-05
-3.93455e-05
-3.94475e-05
-3.98253e-05
-4.04243e-05
-4.12464e-05
-4.2295e-05
-4.35785e-05
-4.51374e-05
-4.69957e-05
-4.93921e-05
-5.19991e-05
-5.64807e-05
-5.98522e-05
-6.28269e-05
-6.51824e-05
-6.70094e-05
-6.82639e-05
-6.89436e-05
-6.90401e-05
-6.85536e-05
-6.74943e-05
-6.5865e-05
-6.37122e-05
-6.09459e-05
-5.78008e-05
-5.35331e-05
-5.12251e-05
-4.90961e-05
-4.75216e-05
-4.62605e-05
-4.52974e-05
-4.45994e-05
-4.41624e-05
-4.40532e-05
-4.04111e-05
-4.05246e-05
-4.09716e-05
-4.16809e-05
-4.26542e-05
-4.38911e-05
-4.53941e-05
-4.72011e-05
-4.93408e-05
-5.22486e-05
-5.50158e-05
-6.27721e-05
-6.72346e-05
-7.11642e-05
-7.41939e-05
-7.65322e-05
-7.81245e-05
-7.89778e-05
-7.9085e-05
-7.84462e-05
-7.7069e-05
-7.49464e-05
-7.21348e-05
-6.84247e-05
-6.42109e-05
-5.66472e-05
-5.4283e-05
-5.16516e-05
-4.9824e-05
-4.83439e-05
-4.71968e-05
-4.6356e-05
-4.58262e-05
-4.57043e-05
-4.15921e-05
-4.17201e-05
-4.22528e-05
-4.30992e-05
-4.42612e-05
-4.57308e-05
-4.74929e-05
-4.95523e-05
-5.18546e-05
-5.54011e-05
-5.74621e-05
-7.22623e-05
-7.75342e-05
-8.26467e-05
-8.64932e-05
-8.94573e-05
-9.14708e-05
-9.25413e-05
-9.26633e-05
-9.18361e-05
-9.00648e-05
-8.73396e-05
-8.37284e-05
-7.88362e-05
-7.38419e-05
-5.91722e-05
-5.77217e-05
-5.44128e-05
-5.24578e-05
-5.07528e-05
-4.93818e-05
-4.83581e-05
-4.77069e-05
-4.75669e-05
-4.28631e-05
-4.30107e-05
-4.36506e-05
-4.46728e-05
-4.6087e-05
-4.78818e-05
-5.00294e-05
-5.2416e-05
-5.49227e-05
-5.97068e-05
-5.16222e-05
-8.36823e-05
-8.98505e-05
-9.69625e-05
-0.000102057
-0.000105868
-0.000108446
-0.000109801
-0.000109942
-0.000108869
-0.000106571
-0.000103032
-9.81999e-05
-9.13182e-05
-8.54906e-05
-5.32273e-05
-6.23e-05
-5.7748e-05
-5.56433e-05
-5.36355e-05
-5.19121e-05
-5.06159e-05
-4.97882e-05
-4.96158e-05
-4.41852e-05
-4.43558e-05
-4.5119e-05
-4.63466e-05
-4.80635e-05
-5.02657e-05
-5.28815e-05
-5.55727e-05
-5.76374e-05
-5.3186e-05
-0.000118596
-0.000114775
-0.000119643
-0.000124978
-0.000129404
-0.000132586
-0.000134281
-0.000134448
-0.000133087
-0.000130235
-0.000126126
-0.000121084
-0.000116446
-0.000120257
-5.66835e-05
-6.10865e-05
-5.92381e-05
-5.68783e-05
-5.47017e-05
-5.30492e-05
-5.19993e-05
-5.17839e-05
-4.55178e-05
-4.5717e-05
-4.66253e-05
-4.81109e-05
-5.02598e-05
-5.31976e-05
-5.71801e-05
-6.26609e-05
-7.09948e-05
-8.20032e-05
-0.000111716
-0.000111463
-0.000128199
-0.000139111
-0.00014838
-0.000155103
-0.00015962
-0.000161929
-0.000162125
-0.000160206
-0.000156079
-0.000149746
-0.00014087
-0.000130362
-0.000114043
-0.000115155
-8.53401e-05
-7.46434e-05
-6.6616e-05
-6.15218e-05
-5.80258e-05
-5.57018e-05
-5.43067e-05
-5.40163e-05
-4.67998e-05
-4.70229e-05
-4.80585e-05
-4.97598e-05
-5.22376e-05
-5.56453e-05
-6.02688e-05
-6.6464e-05
-7.50375e-05
-8.58304e-05
-0.000106546
-0.000119165
-0.000137645
-0.000151002
-0.000162195
-0.000170097
-0.000175342
-0.000177996
-0.000178214
-0.000175997
-0.000171189
-0.000163726
-0.000152976
-0.000140059
-0.000122002
-0.000109952
-8.94891e-05
-7.89854e-05
-7.07323e-05
-6.49494e-05
-6.08525e-05
-5.8119e-05
-5.6479e-05
-5.61407e-05
-4.79878e-05
-4.82315e-05
-4.93781e-05
-5.12646e-05
-5.4017e-05
-5.78039e-05
-6.29212e-05
-6.97074e-05
-7.89066e-05
-9.06041e-05
-0.00010781
-0.000123401
-0.000144144
-0.000159509
-0.000172266
-0.000181179
-0.000187051
-0.000190004
-0.000190241
-0.000187765
-0.00018237
-0.000173936
-0.000161664
-0.000146776
-0.000126511
-0.000111354
-9.44636e-05
-8.30841e-05
-7.42454e-05
-6.7907e-05
-6.33587e-05
-6.03037e-05
-5.84663e-05
-5.80907e-05
-4.9041e-05
-4.92998e-05
-5.05328e-05
-5.25595e-05
-5.55104e-05
-5.95545e-05
-6.49782e-05
-7.21015e-05
-8.1579e-05
-9.35595e-05
-0.000109725
-0.000126518
-0.000148685
-0.000165235
-0.00017899
-0.000188587
-0.0001949
-0.000198068
-0.000198323
-0.000195664
-0.000189862
-0.000180776
-0.000167537
-0.000151488
-0.00012982
-0.000113428
-9.76092e-05
-8.5969e-05
-7.68801e-05
-7.02354e-05
-6.54186e-05
-6.21568e-05
-6.01868e-05
-5.97906e-05
-4.99327e-05
-5.02028e-05
-5.15013e-05
-5.36331e-05
-5.67293e-05
-6.09562e-05
-6.65894e-05
-7.39352e-05
-8.3587e-05
-9.57163e-05
-0.000111669
-0.000129085
-0.00015209
-0.000169429
-0.000183872
-0.000193971
-0.000200615
-0.000203952
-0.000204222
-0.000201425
-0.000195321
-0.000185761
-0.000171857
-0.000155036
-0.000132544
-0.000115526
-9.9938e-05
-8.81654e-05
-7.89234e-05
-7.20812e-05
-6.7086e-05
-6.3682e-05
-6.16195e-05
-6.12102e-05
-5.06431e-05
-5.09218e-05
-5.22669e-05
-5.44726e-05
-5.76693e-05
-6.20209e-05
-6.77954e-05
-7.52916e-05
-8.50739e-05
-9.73402e-05
-0.000113339
-0.00013113
-0.000154674
-0.000172529
-0.000187434
-0.000197881
-0.000204765
-0.000208227
-0.000208512
-0.000205618
-0.000199301
-0.000189416
-0.00017507
-0.000157749
-0.000134727
-0.000117337
-0.000101715
-8.98163e-05
-8.04584e-05
-7.34835e-05
-6.83698e-05
-6.4871e-05
-6.27463e-05
-6.23282e-05
-5.11609e-05
-5.14465e-05
-5.28221e-05
-5.5076e-05
-5.83388e-05
-6.27735e-05
-6.86454e-05
-7.6252e-05
-8.61482e-05
-9.85481e-05
-0.000114677
-0.000132731
-0.000156625
-0.000174818
-0.000190027
-0.000200714
-0.000207764
-0.000211317
-0.000211617
-0.00020866
-0.000202203
-0.000192102
-0.000177469
-0.000159821
-0.000136456
-0.000118806
-0.000103058
-9.10311e-05
-8.15668e-05
-7.44915e-05
-6.92937e-05
-6.57301e-05
-6.35633e-05
-6.31368e-05
-5.14803e-05
-5.17716e-05
-5.3163e-05
-5.54418e-05
-5.874e-05
-6.32222e-05
-6.91563e-05
-7.68434e-05
-8.68426e-05
-9.93738e-05
-0.000115664
-0.000133911
-0.000158016
-0.000176409
-0.000191795
-0.000202624
-0.000209778
-0.000213392
-0.000213707
-0.000210721
-0.000204187
-0.000193966
-0.000179173
-0.000161335
-0.00013776
-0.000119916
-0.000104004
-9.18449e-05
-8.22773e-05
-7.51228e-05
-6.98663e-05
-6.62613e-05
-6.40687e-05
-6.36325e-05
-5.15997e-05
-5.18959e-05
-5.32882e-05
-5.55689e-05
-5.88719e-05
-6.3366e-05
-6.93267e-05
-7.70639e-05
-8.71555e-05
-9.98184e-05
-0.000116308
-0.000134692
-0.00015888
-0.000177342
-0.000192783
-0.000203664
-0.000210863
-0.00021451
-0.000214843
-0.000211858
-0.000205311
-0.000195063
-0.000180231
-0.00016233
-0.000138668
-0.000120679
-0.000104559
-9.22593e-05
-8.25908e-05
-7.53783e-05
-7.00882e-05
-6.64649e-05
-6.4262e-05
-6.38149e-05
-5.15247e-05
-5.1824e-05
-5.32013e-05
-5.54583e-05
-5.87315e-05
-6.31955e-05
-6.91377e-05
-7.68831e-05
-8.70492e-05
-9.98463e-05
-0.000116636
-0.000135097
-0.00015921
-0.000177592
-0.000192949
-0.000203787
-0.000210969
-0.000214622
-0.000214977
-0.000212027
-0.000205535
-0.00019536
-0.000180629
-0.000162815
-0.000139216
-0.000121131
-0.000104694
-9.22417e-05
-8.24811e-05
-7.52428e-05
-6.99531e-05
-6.63408e-05
-6.41469e-05
-6.3689e-05
-5.12647e-05
-5.15645e-05
-5.29082e-05
-5.51108e-05
-5.831e-05
-6.26852e-05
-6.85382e-05
-7.62147e-05
-8.64049e-05
-9.93316e-05
-0.000116702
-0.000135122
-0.000158915
-0.000176988
-0.000192067
-0.000202736
-0.000209827
-0.000213456
-0.000213838
-0.000210966
-0.000204612
-0.000194646
-0.000180217
-0.000162717
-0.000139416
-0.000121333
-0.000104289
-9.168e-05
-8.18683e-05
-7.46706e-05
-6.94403e-05
-6.58842e-05
-6.3728e-05
-6.32628e-05
-5.0838e-05
-5.11348e-05
-5.24253e-05
-5.45399e-05
-5.76137e-05
-6.18272e-05
-6.74931e-05
-7.49764e-05
-8.50655e-05
-9.79712e-05
-0.000116735
-0.00013487
-0.000157798
-0.000175235
-0.000189777
-0.000200135
-0.000207057
-0.000210635
-0.000211052
-0.000208302
-0.000202182
-0.000192582
-0.000178723
-0.000161871
-0.000139395
-0.000121519
-0.000103051
-9.04268e-05
-8.06786e-05
-7.36343e-05
-6.8549e-05
-6.51082e-05
-6.30253e-05
-6.25585e-05
-5.02693e-05
-5.05582e-05
-5.17721e-05
-5.37561e-05
-5.66316e-05
-6.05649e-05
-6.58571e-05
-7.2879e-05
-8.24432e-05
-9.46303e-05
-0.000117163
-0.000134191
-0.000155277
-0.000171341
-0.000184842
-0.000194617
-0.000201229
-0.000204702
-0.000205166
-0.000202614
-0.000196895
-0.000187963
-0.000175199
-0.000159749
-0.00013906
-0.000122105
-9.98625e-05
-8.79101e-05
-7.86353e-05
-7.19978e-05
-6.72306e-05
-6.401e-05
-6.20588e-05
-6.16047e-05
-4.95976e-05
-4.98762e-05
-5.09998e-05
-5.28281e-05
-5.54617e-05
-5.90425e-05
-6.38489e-05
-7.03553e-05
-7.99478e-05
-9.27451e-05
-0.000122282
-0.000129559
-0.000150258
-0.000164797
-0.000177017
-0.000186153
-0.000192427
-0.000195796
-0.00019632
-0.000193997
-0.000188739
-0.000180578
-0.000169185
-0.000155324
-0.000134864
-0.000127238
-9.81814e-05
-8.55656e-05
-7.61871e-05
-6.99925e-05
-6.56401e-05
-6.26997e-05
-6.09122e-05
-6.0476e-05
-4.8862e-05
-4.91258e-05
-5.01425e-05
-5.17748e-05
-5.4065e-05
-5.70239e-05
-6.05693e-05
-6.42681e-05
-6.72668e-05
-6.23983e-05
-0.000147503
-0.000144154
-0.000152314
-0.000160978
-0.000168355
-0.000173725
-0.000176759
-0.000177359
-0.00017553
-0.000171342
-0.000165136
-0.000157447
-0.000150215
-0.000153649
-6.82162e-05
-7.31412e-05
-7.02155e-05
-6.67283e-05
-6.35501e-05
-6.11483e-05
-5.96192e-05
-5.92258e-05
-4.81204e-05
-4.8376e-05
-4.93111e-05
-5.08099e-05
-5.2915e-05
-5.56652e-05
-5.91267e-05
-6.33702e-05
-6.87259e-05
-7.66068e-05
-7.7274e-05
-0.000110651
-0.000122797
-0.000135349
-0.000145138
-0.000152869
-0.000158236
-0.000161266
-0.000161945
-0.000160294
-0.0001563
-0.000149999
-0.000141417
-0.000130162
-0.000117727
-8.51346e-05
-8.32865e-05
-7.50661e-05
-6.95109e-05
-6.53202e-05
-6.21206e-05
-5.98412e-05
-5.84129e-05
-5.80208e-05
-4.74064e-05
-4.76555e-05
-4.85201e-05
-4.99049e-05
-5.18527e-05
-5.44172e-05
-5.76839e-05
-6.1796e-05
-6.69046e-05
-7.38515e-05
-8.28023e-05
-0.000102358
-0.000113967
-0.00012583
-0.000135221
-0.000142737
-0.000147932
-0.000150905
-0.000151649
-0.000150195
-0.00014649
-0.000140569
-0.000132473
-0.000122283
-0.000110142
-9.06269e-05
-8.07464e-05
-7.33815e-05
-6.80035e-05
-6.38628e-05
-6.07814e-05
-5.8616e-05
-5.72717e-05
-5.6879e-05
-4.67546e-05
-4.70005e-05
-4.7811e-05
-4.91104e-05
-5.09453e-05
-5.33819e-05
-5.65249e-05
-6.05492e-05
-6.56869e-05
-7.2525e-05
-8.11577e-05
-9.4807e-05
-0.000106519
-0.000119142
-0.00012871
-0.000136271
-0.000141403
-0.000144356
-0.000145201
-0.000144021
-0.000140484
-0.000134665
-0.000126453
-0.000116229
-0.000103421
-8.9391e-05
-7.97246e-05
-7.22936e-05
-6.67818e-05
-6.26576e-05
-5.96406e-05
-5.75466e-05
-5.62556e-05
-5.58559e-05
-4.61875e-05
-4.64308e-05
-4.71963e-05
-4.84233e-05
-5.01581e-05
-5.24679e-05
-5.5456e-05
-5.92885e-05
-6.41659e-05
-7.05097e-05
-7.8354e-05
-8.89142e-05
-9.94153e-05
-0.000111033
-0.000119866
-0.000126926
-0.000131766
-0.000134567
-0.00013535
-0.000134158
-0.000130918
-0.000125629
-0.000118165
-0.000108855
-9.73081e-05
-8.63227e-05
-7.75733e-05
-7.06628e-05
-6.54204e-05
-6.14793e-05
-5.85963e-05
-5.65972e-05
-5.53649e-05
-5.49648e-05
-4.57243e-05
-4.59651e-05
-4.66944e-05
-4.78616e-05
-4.95094e-05
-5.16987e-05
-5.45189e-05
-5.81011e-05
-6.25909e-05
-6.82323e-05
-7.50404e-05
-8.34373e-05
-9.21218e-05
-0.000101394
-0.000108897
-0.000114957
-0.000119186
-0.000121662
-0.000122367
-0.000121329
-0.000118533
-0.000114009
-0.000107723
-0.000100033
-9.08795e-05
-8.22417e-05
-7.48438e-05
-6.87975e-05
-6.40387e-05
-6.03896e-05
-5.76854e-05
-5.57962e-05
-5.4626e-05
-5.4231e-05
-4.53813e-05
-4.56196e-05
-4.63212e-05
-4.74415e-05
-4.90184e-05
-5.11044e-05
-5.37724e-05
-5.71211e-05
-6.12512e-05
-6.63014e-05
-7.22602e-05
-7.9252e-05
-8.65929e-05
-9.42429e-05
-0.00010071
-0.000105974
-0.000109708
-0.000111914
-0.000112562
-0.000111668
-0.000109237
-0.000105317
-9.99426e-05
-9.34387e-05
-8.59453e-05
-7.88257e-05
-7.24917e-05
-6.71689e-05
-6.2863e-05
-5.94961e-05
-5.6965e-05
-5.51795e-05
-5.40667e-05
-5.36803e-05
-4.51685e-05
-4.54059e-05
-4.60886e-05
-4.71777e-05
-4.87061e-05
-5.07185e-05
-5.32746e-05
-5.64479e-05
-6.03066e-05
-6.49237e-05
-7.02685e-05
-7.63319e-05
-8.26783e-05
-8.91215e-05
-9.47355e-05
-9.93501e-05
-0.000102679
-0.000104665
-0.000105263
-0.000104478
-0.000102326
-9.88771e-05
-9.42152e-05
-8.86366e-05
-8.23733e-05
-7.63038e-05
-7.07589e-05
-6.59828e-05
-6.20298e-05
-5.88836e-05
-5.64872e-05
-5.47811e-05
-5.37125e-05
-5.33332e-05
-4.5112e-05
-4.53767e-05
-4.6058e-05
-4.7142e-05
-4.8661e-05
-5.06564e-05
-5.31823e-05
-5.63019e-05
-6.00719e-05
-6.45412e-05
-6.96766e-05
-7.54262e-05
-8.14408e-05
-8.74773e-05
-9.28124e-05
-9.72128e-05
-0.000100412
-0.000102328
-0.000102909
-0.000102155
-0.00010009
-9.67879e-05
-9.23587e-05
-8.70822e-05
-8.1234e-05
-7.55144e-05
-7.02439e-05
-6.56571e-05
-6.18258e-05
-5.87526e-05
-5.63982e-05
-5.47149e-05
-5.36565e-05
-5.32386e-05
-3.6241e-05
-3.63325e-05
-3.6546e-05
-3.68763e-05
-3.73221e-05
-3.78799e-05
-3.8545e-05
-3.93114e-05
-4.0168e-05
-4.11021e-05
-4.20861e-05
-4.30958e-05
-4.4076e-05
-4.49866e-05
-4.57821e-05
-4.64289e-05
-4.68992e-05
-4.71753e-05
-4.72484e-05
-4.71189e-05
-4.67972e-05
-4.63019e-05
-4.56622e-05
-4.49125e-05
-4.40993e-05
-4.3263e-05
-4.24599e-05
-4.17139e-05
-4.10531e-05
-4.04902e-05
-4.00365e-05
-3.96986e-05
-3.94804e-05
-3.93794e-05
-3.63105e-05
-3.63863e-05
-3.66015e-05
-3.69362e-05
-3.7388e-05
-3.79546e-05
-3.8632e-05
-3.94158e-05
-4.02951e-05
-4.126e-05
-4.22794e-05
-4.33338e-05
-4.43546e-05
-4.53027e-05
-4.61278e-05
-4.67971e-05
-4.72821e-05
-4.75658e-05
-4.76393e-05
-4.75031e-05
-4.71675e-05
-4.66509e-05
-4.59827e-05
-4.51967e-05
-4.43443e-05
-4.34648e-05
-4.26283e-05
-4.18533e-05
-4.11717e-05
-4.05934e-05
-4.01293e-05
-3.97842e-05
-3.95628e-05
-3.9482e-05
-3.66099e-05
-3.66861e-05
-3.6917e-05
-3.72771e-05
-3.77648e-05
-3.83793e-05
-3.91186e-05
-3.99818e-05
-4.09599e-05
-4.20518e-05
-4.32164e-05
-4.44516e-05
-4.5641e-05
-4.67453e-05
-4.76988e-05
-4.84679e-05
-4.90205e-05
-4.93392e-05
-4.94146e-05
-4.92472e-05
-4.8848e-05
-4.82357e-05
-4.74436e-05
-4.65062e-05
-4.54909e-05
-4.44365e-05
-4.34622e-05
-4.2568e-05
-4.17961e-05
-4.11478e-05
-4.06326e-05
-4.02519e-05
-4.00087e-05
-3.99268e-05
-3.70774e-05
-3.71577e-05
-3.74136e-05
-3.78139e-05
-3.83585e-05
-3.90483e-05
-3.98844e-05
-4.08727e-05
-4.2007e-05
-4.33055e-05
-4.47074e-05
-4.62614e-05
-4.77352e-05
-4.91009e-05
-5.02648e-05
-5.11964e-05
-5.18585e-05
-5.22338e-05
-5.23122e-05
-5.20943e-05
-5.15919e-05
-5.08236e-05
-4.98282e-05
-4.86369e-05
-4.73459e-05
-4.59819e-05
-4.47824e-05
-4.36938e-05
-4.27792e-05
-4.20205e-05
-4.14253e-05
-4.09887e-05
-4.07115e-05
-4.06233e-05
-3.77129e-05
-3.77972e-05
-3.80881e-05
-3.85444e-05
-3.91674e-05
-3.99608e-05
-4.09291e-05
-4.20893e-05
-4.34401e-05
-4.50403e-05
-4.6788e-05
-4.88786e-05
-5.07926e-05
-5.25563e-05
-5.40296e-05
-5.51984e-05
-5.60189e-05
-5.64758e-05
-5.65584e-05
-5.62674e-05
-5.56155e-05
-5.4619e-05
-5.33237e-05
-5.17444e-05
-5.00253e-05
-4.81359e-05
-4.66092e-05
-4.52354e-05
-4.41227e-05
-4.32118e-05
-4.25071e-05
-4.19935e-05
-4.16689e-05
-4.15752e-05
-3.85087e-05
-3.85977e-05
-3.89344e-05
-3.94638e-05
-4.01883e-05
-4.11139e-05
-4.22487e-05
-4.36249e-05
-4.52464e-05
-4.72529e-05
-4.94516e-05
-5.24593e-05
-5.50186e-05
-5.73536e-05
-5.92525e-05
-6.07468e-05
-6.17829e-05
-6.23508e-05
-6.24393e-05
-6.20488e-05
-6.11927e-05
-5.98823e-05
-5.81733e-05
-5.60347e-05
-5.36855e-05
-5.08899e-05
-4.89413e-05
-4.71817e-05
-4.58211e-05
-4.47185e-05
-4.38754e-05
-4.3263e-05
-4.28771e-05
-4.27777e-05
-3.94554e-05
-3.95502e-05
-3.99449e-05
-4.05663e-05
-4.14172e-05
-4.25047e-05
-4.38377e-05
-4.54659e-05
-4.7396e-05
-4.99331e-05
-5.26078e-05
-5.73187e-05
-6.07879e-05
-6.39039e-05
-6.63523e-05
-6.8271e-05
-6.95873e-05
-7.02997e-05
-7.03959e-05
-6.98763e-05
-6.87551e-05
-6.70346e-05
-6.47899e-05
-6.18832e-05
-5.8643e-05
-5.41472e-05
-5.1775e-05
-4.95056e-05
-4.78631e-05
-4.65359e-05
-4.55274e-05
-4.47932e-05
-4.43301e-05
-4.42249e-05
-4.05397e-05
-4.06418e-05
-4.11094e-05
-4.18462e-05
-4.28551e-05
-4.41405e-05
-4.57054e-05
-4.76003e-05
-4.98209e-05
-5.29176e-05
-5.5787e-05
-6.38452e-05
-6.84009e-05
-7.25066e-05
-7.56283e-05
-7.8085e-05
-7.97576e-05
-8.06529e-05
-8.07597e-05
-8.0078e-05
-7.86202e-05
-7.63792e-05
-7.34769e-05
-6.95913e-05
-6.52874e-05
-5.7425e-05
-5.49596e-05
-5.21401e-05
-5.02375e-05
-4.86732e-05
-4.7469e-05
-4.65829e-05
-4.60204e-05
-4.59078e-05
-4.17413e-05
-4.18528e-05
-4.24096e-05
-4.32882e-05
-4.44911e-05
-4.60156e-05
-4.78463e-05
-5.00008e-05
-5.23594e-05
-5.60978e-05
-5.84831e-05
-7.37132e-05
-7.89934e-05
-8.41909e-05
-8.80178e-05
-9.10903e-05
-9.31781e-05
-9.42886e-05
-9.44101e-05
-9.35418e-05
-9.16952e-05
-8.88608e-05
-8.52703e-05
-8.02937e-05
-7.52931e-05
-6.02011e-05
-5.84224e-05
-5.49288e-05
-5.29239e-05
-5.1127e-05
-4.96927e-05
-4.86172e-05
-4.79277e-05
-4.78054e-05
-4.30349e-05
-4.31598e-05
-4.38285e-05
-4.48889e-05
-4.63524e-05
-4.82134e-05
-5.04484e-05
-5.29331e-05
-5.54394e-05
-5.99499e-05
-5.04835e-05
-8.49394e-05
-9.03511e-05
-9.72054e-05
-0.000102068
-0.000105899
-0.000108477
-0.00010983
-0.000109971
-0.000108898
-0.000106597
-0.000103037
-9.84371e-05
-9.18119e-05
-8.67377e-05
-5.20496e-05
-6.25552e-05
-5.82825e-05
-5.61795e-05
-5.40769e-05
-5.22726e-05
-5.09136e-05
-5.00391e-05
-4.98946e-05
-4.43801e-05
-4.45203e-05
-4.53154e-05
-4.65832e-05
-4.83481e-05
-5.06056e-05
-5.32854e-05
-5.60447e-05
-5.81877e-05
-5.2071e-05
-0.000122425
-0.00011548
-0.000119517
-0.000124417
-0.00012848
-0.000131477
-0.000133091
-0.000133258
-0.000131979
-0.000129311
-0.000125566
-0.00012096
-0.000117153
-0.000124032
-5.56141e-05
-6.16486e-05
-5.97302e-05
-5.73093e-05
-5.50749e-05
-5.33697e-05
-5.22732e-05
-5.21018e-05
-4.57369e-05
-4.58986e-05
-4.68451e-05
-4.838e-05
-5.05925e-05
-5.3611e-05
-5.77047e-05
-6.32842e-05
-7.18209e-05
-8.29799e-05
-0.000114206
-0.000110961
-0.00012893
-0.000139327
-0.000148175
-0.000154449
-0.000158709
-0.00016089
-0.000161086
-0.000159298
-0.000155432
-0.000149551
-0.000141101
-0.000131101
-0.000113528
-0.000117703
-8.63558e-05
-7.5499e-05
-6.7267e-05
-6.20773e-05
-5.84762e-05
-5.6074e-05
-5.46155e-05
-5.43815e-05
-4.70406e-05
-4.72186e-05
-4.82955e-05
-5.00482e-05
-5.25883e-05
-5.60673e-05
-6.07748e-05
-6.70087e-05
-7.56783e-05
-8.62205e-05
-0.000107175
-0.000118431
-0.000137543
-0.000149531
-0.000159822
-0.000166947
-0.000171742
-0.000174173
-0.000174391
-0.000172398
-0.000168041
-0.000161357
-0.000151513
-0.000139966
-0.000121288
-0.000110609
-8.99097e-05
-7.96551e-05
-7.1307e-05
-6.54894e-05
-6.13148e-05
-5.85123e-05
-5.68089e-05
-5.65432e-05
-4.82486e-05
-4.84408e-05
-4.96328e-05
-5.1576e-05
-5.43977e-05
-5.82657e-05
-6.34808e-05
-7.03288e-05
-7.96182e-05
-9.10457e-05
-0.00010826
-0.000122491
-0.000143674
-0.000157578
-0.000169384
-0.000177443
-0.000182822
-0.000185529
-0.000185767
-0.000183536
-0.000178635
-0.000171056
-0.000159741
-0.000146318
-0.000125637
-0.000111836
-9.49373e-05
-8.38256e-05
-7.48983e-05
-6.85027e-05
-6.38636e-05
-6.07295e-05
-5.88212e-05
-5.85292e-05
-4.93181e-05
-4.95201e-05
-5.08013e-05
-5.2888e-05
-5.59115e-05
-6.004e-05
-6.55621e-05
-7.27492e-05
-8.22932e-05
-9.40375e-05
-0.000110111
-0.000125544
-0.000148081
-0.00016308
-0.000175835
-0.000184528
-0.000190319
-0.000193228
-0.000193483
-0.000191083
-0.000185803
-0.000177622
-0.000165387
-0.000150893
-0.000128883
-0.000113845
-9.81199e-05
-8.67142e-05
-7.75608e-05
-7.08572e-05
-6.59495e-05
-6.2605e-05
-6.05605e-05
-6.02572e-05
-5.02226e-05
-5.04319e-05
-5.17812e-05
-5.39763e-05
-5.7149e-05
-6.14658e-05
-6.72037e-05
-7.46236e-05
-8.43422e-05
-9.62611e-05
-0.000112063
-0.000128123
-0.000151477
-0.000167236
-0.000180667
-0.000189844
-0.000195959
-0.000199032
-0.000199301
-0.000196768
-0.000191193
-0.000182555
-0.000169668
-0.000154431
-0.00013162
-0.000115949
-0.000100516
-8.8952e-05
-7.96458e-05
-7.27346e-05
-6.76426e-05
-6.41505e-05
-6.20092e-05
-6.1699e-05
-5.09416e-05
-5.11567e-05
-5.25543e-05
-5.48253e-05
-5.81012e-05
-6.25461e-05
-6.84289e-05
-7.60056e-05
-8.58566e-05
-9.79274e-05
-0.000113756
-0.0001302
-0.000154083
-0.000170342
-0.000184226
-0.000193744
-0.000200094
-0.000203289
-0.000203573
-0.000200946
-0.000195163
-0.000186208
-0.000172887
-0.000157166
-0.000133835
-0.000117783
-0.000102335
-9.06305e-05
-8.12069e-05
-7.41569e-05
-6.8943e-05
-6.53526e-05
-6.31464e-05
-6.28317e-05
-5.14637e-05
-5.16841e-05
-5.31131e-05
-5.54335e-05
-5.87768e-05
-6.33067e-05
-6.92891e-05
-7.69798e-05
-8.69465e-05
-9.91574e-05
-0.000115111
-0.000131824
-0.000156055
-0.000172646
-0.000186832
-0.000196585
-0.000203101
-0.000206387
-0.000206686
-0.000203996
-0.000198074
-0.000188906
-0.000175301
-0.000159259
-0.000135585
-0.000119268
-0.0001037
-9.18609e-05
-8.23292e-05
-7.51753e-05
-6.98752e-05
-6.6218e-05
-6.39683e-05
-6.36473e-05
-5.17828e-05
-5.20087e-05
-5.34533e-05
-5.57986e-05
-5.91771e-05
-6.37543e-05
-6.97985e-05
-7.7569e-05
-8.7638e-05
-9.99794e-05
-0.000116094
-0.000133001
-0.000157446
-0.000174238
-0.000188601
-0.000198497
-0.000205116
-0.000208463
-0.000208778
-0.000206058
-0.00020006
-0.000190772
-0.000177005
-0.000160772
-0.000136886
-0.000120373
-0.000104642
-9.26713e-05
-8.30371e-05
-7.58046e-05
-7.04463e-05
-6.67478e-05
-6.44722e-05
-6.41423e-05
-5.18977e-05
-5.21291e-05
-5.35738e-05
-5.59197e-05
-5.93013e-05
-6.38879e-05
-6.99556e-05
-7.77715e-05
-8.79291e-05
-0.000100394
-0.000116712
-0.000133752
-0.000158287
-0.000175157
-0.000189579
-0.00019953
-0.000206195
-0.000209575
-0.000209908
-0.000207189
-0.000201176
-0.000191858
-0.000178049
-0.000161745
-0.000137765
-0.00012111
-0.000105167
-9.30631e-05
-8.33317e-05
-7.60458e-05
-7.06567e-05
-6.69423e-05
-6.4658e-05
-6.43162e-05
-5.18137e-05
-5.20502e-05
-5.34783e-05
-5.57981e-05
-5.91471e-05
-6.36995e-05
-6.97442e-05
-7.75608e-05
-8.7789e-05
-0.000100372
-0.000117004
-0.000134116
-0.000158588
-0.000175396
-0.000189743
-0.000199659
-0.00020631
-0.000209699
-0.000210053
-0.000207368
-0.000201405
-0.000192152
-0.000178436
-0.000162201
-0.000138271
-0.000121525
-0.00010525
-9.30102e-05
-8.31906e-05
-7.58862e-05
-7.05019e-05
-6.68023e-05
-6.45298e-05
-6.41742e-05
-5.15405e-05
-5.17807e-05
-5.31726e-05
-5.54347e-05
-5.87051e-05
-6.31625e-05
-6.91108e-05
-7.68469e-05
-8.70964e-05
-9.97817e-05
-0.000117044
-0.000134115
-0.000158291
-0.00017482
-0.000188899
-0.000198661
-0.000205229
-0.000208597
-0.000208979
-0.000206367
-0.000200535
-0.000191476
-0.000178049
-0.0001621
-0.000138443
-0.000121698
-0.000104767
-9.2398e-05
-8.25299e-05
-7.52776e-05
-6.99595e-05
-6.63223e-05
-6.40918e-05
-6.37243e-05
-5.10971e-05
-5.13389e-05
-5.26747e-05
-5.48452e-05
-5.79866e-05
-6.22786e-05
-6.80383e-05
-7.55788e-05
-8.57492e-05
-9.83776e-05
-0.000117119
-0.000133924
-0.000157284
-0.000173265
-0.00018685
-0.000196349
-0.000202774
-0.000206104
-0.00020652
-0.000204016
-0.000198391
-0.00018965
-0.00017675
-0.000161362
-0.00013848
-0.000121922
-0.000103483
-9.11339e-05
-8.13072e-05
-7.42106e-05
-6.90387e-05
-6.55206e-05
-6.33672e-05
-6.29903e-05
-5.05082e-05
-5.07474e-05
-5.20024e-05
-5.40366e-05
-5.69718e-05
-6.09721e-05
-6.63417e-05
-7.33941e-05
-8.30427e-05
-9.49664e-05
-0.000117725
-0.000133441
-0.000155135
-0.000169818
-0.000182396
-0.000191383
-0.000197535
-0.00020078
-0.000201242
-0.000198916
-0.000193653
-0.00018551
-0.000173668
-0.00015961
-0.00013834
-0.00012268
-0.000100216
-8.85278e-05
-7.9172e-05
-7.25091e-05
-6.76714e-05
-6.43854e-05
-6.23718e-05
-6.19987e-05
-4.98147e-05
-5.00503e-05
-5.1212e-05
-5.30883e-05
-5.57825e-05
-5.94397e-05
-6.43506e-05
-7.09412e-05
-8.06981e-05
-9.35506e-05
-0.000124391
-0.000129043
-0.000150891
-0.000164878
-0.000176666
-0.000185348
-0.000191354
-0.000194589
-0.00019511
-0.000192917
-0.000187921
-0.000180214
-0.000169246
-0.000155966
-0.000134385
-0.000129323
-9.89868e-05
-8.63279e-05
-7.67897e-05
-7.05164e-05
-6.60661e-05
-6.3051e-05
-6.1201e-05
-6.08316e-05
-4.90549e-05
-4.92816e-05
-5.03298e-05
-5.19999e-05
-5.43333e-05
-5.73397e-05
-6.09415e-05
-6.47061e-05
-6.77906e-05
-6.09722e-05
-0.000151911
-0.000144934
-0.000152381
-0.000160608
-0.000167635
-0.00017282
-0.000175773
-0.000176371
-0.000174622
-0.000170614
-0.000164775
-0.000157513
-0.000151082
-0.000158167
-6.67641e-05
-7.367e-05
-7.06613e-05
-6.71162e-05
-6.38884e-05
-6.14412e-05
-5.98683e-05
-5.95323e-05
-4.82908e-05
-4.8516e-05
-4.94796e-05
-5.10146e-05
-5.31651e-05
-5.59755e-05
-5.95163e-05
-6.38332e-05
-6.91536e-05
-7.68315e-05
-7.63211e-05
-0.000112043
-0.000123497
-0.000136082
-0.000145721
-0.000153562
-0.000158963
-0.000162008
-0.000162682
-0.000161013
-0.000156988
-0.000150632
-0.000142221
-0.000131145
-0.00011918
-8.43547e-05
-8.35559e-05
-7.5515e-05
-6.99827e-05
-6.57224e-05
-6.24488e-05
-6.01114e-05
-5.86374e-05
-5.82888e-05
-4.75546e-05
-4.77785e-05
-4.86668e-05
-5.0081e-05
-5.20639e-05
-5.46735e-05
-5.79956e-05
-6.21801e-05
-6.735e-05
-7.44969e-05
-8.371e-05
-0.000103845
-0.00011547
-0.000127736
-0.00013711
-0.000144764
-0.000150033
-0.000153047
-0.000153759
-0.000152209
-0.000148414
-0.000142407
-0.000134333
-0.00012408
-0.000111622
-9.16196e-05
-8.13955e-05
-7.38335e-05
-6.83872e-05
-6.41807e-05
-6.10498e-05
-5.8842e-05
-5.74625e-05
-5.71063e-05
-4.68832e-05
-4.71083e-05
-4.79389e-05
-4.92632e-05
-5.1128e-05
-5.36041e-05
-5.67981e-05
-6.0895e-05
-6.61122e-05
-7.31284e-05
-8.18731e-05
-9.59805e-05
-0.000107889
-0.000121759
-0.000131704
-0.000139342
-0.000144683
-0.000147759
-0.000148494
-0.000146917
-0.000143209
-0.000137293
-0.00012903
-0.000118591
-0.000104699
-9.02751e-05
-8.03581e-05
-7.27375e-05
-6.71299e-05
-6.29358e-05
-5.98718e-05
-5.77403e-05
-5.64189e-05
-5.60489e-05
-4.62986e-05
-4.65244e-05
-4.73066e-05
-4.85535e-05
-5.03112e-05
-5.26507e-05
-5.56759e-05
-5.95612e-05
-6.44979e-05
-7.09711e-05
-7.89007e-05
-8.98036e-05
-0.000100489
-0.000113394
-0.000122062
-0.000129222
-0.000134111
-0.000136942
-0.000137692
-0.000136417
-0.000133108
-0.000127763
-0.000120191
-0.000110732
-9.82782e-05
-8.70083e-05
-7.80541e-05
-7.10061e-05
-6.56909e-05
-6.17004e-05
-5.87842e-05
-5.67573e-05
-5.55013e-05
-5.51265e-05
-4.58204e-05
-4.60464e-05
-4.67896e-05
-4.79726e-05
-4.96379e-05
-5.18491e-05
-5.46955e-05
-5.83126e-05
-6.28392e-05
-6.85503e-05
-7.53995e-05
-8.39663e-05
-9.26908e-05
-0.000102296
-0.000109778
-0.000115886
-0.000120111
-0.000122586
-0.000123274
-0.000122214
-0.000119396
-0.000114862
-0.000108533
-0.000100825
-9.13821e-05
-8.26458e-05
-7.51505e-05
-6.90406e-05
-6.42412e-05
-6.05631e-05
-5.78375e-05
-5.59283e-05
-5.47395e-05
-5.43663e-05
-4.54645e-05
-4.5689e-05
-4.64025e-05
-4.75354e-05
-4.91252e-05
-5.12265e-05
-5.39121e-05
-5.72829e-05
-6.14358e-05
-6.65266e-05
-7.25161e-05
-7.96079e-05
-8.69985e-05
-9.48468e-05
-0.000101347
-0.000106657
-0.000110394
-0.000112602
-0.000113242
-0.000112337
-0.00010989
-0.000105956
-0.000100533
-9.39843e-05
-8.6302e-05
-7.9107e-05
-7.27059e-05
-6.73448e-05
-6.30145e-05
-5.96307e-05
-5.70864e-05
-5.52867e-05
-5.41589e-05
-5.37933e-05
-4.52378e-05
-4.54636e-05
-4.61573e-05
-4.72568e-05
-4.87946e-05
-5.08174e-05
-5.33844e-05
-5.65699e-05
-6.04393e-05
-6.50737e-05
-7.04277e-05
-7.65292e-05
-8.28831e-05
-8.93973e-05
-9.50085e-05
-9.96335e-05
-0.000102954
-0.000104936
-0.000105527
-0.000104737
-0.000102581