/*--------------------------------*- C++ -*----------------------------------*\
| =========                 |                                                 |
| \\      /  F ield         | OpenFOAM: The Open Source CFD Toolbox           |
|  \\    /   O peration     | Version:  2112                                  |
|   \\  /    A nd           | Website:  www.openfoam.com                      |
|    \\/     M anipulation  |                                                 |
\*---------------------------------------------------------------------------*/
FoamFile
{
    version     2.0;
    format      ascii;
    arch        "LSB;label=32;scalar=64";
    class       surfaceScalarField;
    location    "0.1";
    object      phi;
}
// * * * * * * * * * * * * * * * * * * * * * * * * * * * * * * * * * * * * * //

dimensions      [0 3 -1 0 0 0 0];

oriented        oriented;

internalField   nonuniform List<scalar> 
188215
(
1.21097e-09
3.15021e-09
-4.36119e-09
2.47796e-09
3.38012e-09
-4.64711e-09
3.70864e-09
3.6201e-09
-4.85078e-09
4.90015e-09
3.94954e-09
-5.14104e-09
6.04133e-09
4.3889e-09
-5.53008e-09
7.11897e-09
4.94536e-09
-6.023e-09
8.11558e-09
5.62621e-09
-6.62283e-09
9.00199e-09
6.44248e-09
-7.32889e-09
9.73593e-09
7.40207e-09
-8.13601e-09
1.02412e-08
8.52341e-09
-9.02866e-09
1.04401e-08
9.78468e-09
-9.98365e-09
1.02079e-08
1.11923e-08
-1.09601e-08
9.51962e-09
1.26e-08
-1.19118e-08
8.37252e-09
1.39354e-08
-1.27883e-08
6.81667e-09
1.51033e-08
-1.35474e-08
4.92701e-09
1.60427e-08
-1.4153e-08
2.80425e-09
1.6702e-08
-1.45793e-08
5.63955e-10
1.70492e-08
-1.48089e-08
-1.66974e-09
1.70673e-08
-1.48336e-08
-3.77268e-09
1.67566e-08
-1.46536e-08
-5.62876e-09
1.6134e-08
-1.42779e-08
-7.13659e-09
1.52321e-08
-1.37243e-08
-8.22074e-09
1.41035e-08
-1.30194e-08
-8.83089e-09
1.281e-08
-1.21999e-08
-8.97084e-09
1.14489e-08
-1.13089e-08
-8.66633e-09
1.00936e-08
-1.03981e-08
-8.04568e-09
8.89396e-09
-9.51461e-09
-7.18782e-09
7.84301e-09
-8.70087e-09
-6.17173e-09
6.96536e-09
-7.98145e-09
-5.04276e-09
6.24463e-09
-7.3736e-09
-3.83422e-09
5.67525e-09
-6.8838e-09
-2.56737e-09
5.24634e-09
-6.51319e-09
-1.2516e-09
4.93225e-09
-6.24802e-09
4.61769e-09
-5.86929e-09
1.39749e-09
6.3961e-09
-4.64338e-09
2.78161e-09
6.80764e-09
-4.81165e-09
4.1417e-09
7.27164e-09
-5.01164e-09
5.47436e-09
7.94487e-09
-5.32799e-09
6.76334e-09
8.85101e-09
-5.7511e-09
7.99457e-09
1.0003e-08
-6.28887e-09
9.1518e-09
1.14166e-08
-6.94764e-09
1.02056e-08
1.31179e-08
-7.72923e-09
1.11101e-08
1.5129e-08
-8.63144e-09
1.17698e-08
1.75017e-08
-9.63805e-09
1.20844e-08
2.01961e-08
-1.07261e-08
1.18581e-08
2.32627e-08
-1.18441e-08
1.10745e-08
2.63207e-08
-1.29371e-08
9.73754e-09
2.9215e-08
-1.39427e-08
7.91635e-09
3.17368e-08
-1.48123e-08
5.70353e-09
3.37597e-08
-1.55042e-08
3.21885e-09
3.51765e-08
-1.59898e-08
5.97197e-10
3.59206e-08
-1.62498e-08
-2.0176e-09
3.59574e-08
-1.62753e-08
-4.48147e-09
3.52869e-08
-1.60664e-08
-6.65884e-09
3.39443e-08
-1.56329e-08
-8.42895e-09
3.1997e-08
-1.49947e-08
-9.69833e-09
2.95539e-08
-1.4181e-08
-1.03972e-08
2.67432e-08
-1.32343e-08
-1.05224e-08
2.37782e-08
-1.2204e-08
-1.0091e-08
2.08161e-08
-1.11539e-08
-9.30338e-09
1.82463e-08
-1.014e-08
-8.26021e-09
1.60152e-08
-9.21539e-09
-7.05956e-09
1.41692e-08
-8.40448e-09
-5.75075e-09
1.26611e-08
-7.72526e-09
-4.3704e-09
1.14756e-08
-7.18065e-09
-2.94678e-09
1.05918e-08
-6.76909e-09
-1.48948e-09
9.97951e-09
-6.50456e-09
9.40818e-09
-6.27997e-09
1.63636e-09
9.57987e-09
-4.82012e-09
3.23829e-09
1.01924e-08
-4.98672e-09
4.82073e-09
1.09018e-08
-5.21261e-09
6.38771e-09
1.19501e-08
-5.57218e-09
7.92345e-09
1.33697e-08
-6.05441e-09
9.41753e-09
1.51819e-08
-6.67299e-09
1.08602e-08
1.74146e-08
-7.44069e-09
1.2226e-08
2.01173e-08
-8.36515e-09
1.34706e-08
2.33366e-08
-9.45216e-09
1.44596e-08
2.71979e-08
-1.06852e-08
1.50555e-08
3.16454e-08
-1.20451e-08
1.48588e-08
3.69149e-08
-1.34555e-08
1.39038e-08
4.2118e-08
-1.48423e-08
1.22134e-08
4.70202e-08
-1.61148e-08
9.90261e-09
5.12601e-08
-1.72125e-08
7.09701e-09
5.46467e-08
-1.80814e-08
3.95155e-09
5.70102e-08
-1.86882e-08
6.34865e-10
5.82473e-08
-1.901e-08
-2.67477e-09
5.83033e-08
-1.90363e-08
-5.79869e-09
5.71782e-08
-1.87674e-08
-8.56719e-09
5.49272e-08
-1.82144e-08
-1.08237e-08
5.16545e-08
-1.74011e-08
-1.24409e-08
4.75322e-08
-1.63612e-08
-1.3302e-08
4.27541e-08
-1.51498e-08
-1.33849e-08
3.76892e-08
-1.38282e-08
-1.26543e-08
3.25742e-08
-1.24885e-08
-1.15185e-08
2.83164e-08
-1.12059e-08
-1.01119e-08
2.46677e-08
-1.00591e-08
-8.57052e-09
2.16963e-08
-9.06848e-09
-6.94112e-09
1.92843e-08
-8.25264e-09
-5.25758e-09
1.73984e-08
-7.60634e-09
-3.54515e-09
1.60005e-08
-7.12114e-09
-1.8034e-09
1.5049e-08
-6.81123e-09
1.41864e-08
-6.58163e-09
1.97572e-09
1.26876e-08
-5.08346e-09
3.92693e-09
1.35212e-08
-5.27998e-09
5.8644e-09
1.45132e-08
-5.54889e-09
7.801e-09
1.59887e-08
-5.97519e-09
9.72647e-09
1.79955e-08
-6.55127e-09
1.16392e-08
2.05685e-08
-7.29928e-09
1.35443e-08
2.37524e-08
-8.24287e-09
1.5431e-08
2.76309e-08
-9.40024e-09
1.72725e-08
3.2289e-08
-1.0794e-08
1.88793e-08
3.79993e-08
-1.24082e-08
2.00657e-08
4.46991e-08
-1.42403e-08
1.99165e-08
5.3225e-08
-1.61609e-08
1.86475e-08
6.14474e-08
-1.80604e-08
1.63401e-08
6.91219e-08
-1.97943e-08
1.31982e-08
7.56868e-08
-2.12848e-08
9.40087e-09
8.09006e-08
-2.24567e-08
5.15812e-09
8.45236e-08
-2.32707e-08
6.9086e-10
8.64122e-08
-2.36976e-08
-3.76922e-09
8.64887e-08
-2.37254e-08
-7.98982e-09
8.47531e-08
-2.33542e-08
-1.17483e-08
8.12828e-08
-2.25971e-08
-1.4832e-08
7.62221e-08
-2.14839e-08
-1.70586e-08
6.98133e-08
-2.00545e-08
-1.82206e-08
6.23015e-08
-1.83853e-08
-1.82369e-08
5.426e-08
-1.65546e-08
-1.68867e-08
4.59336e-08
-1.47096e-08
-1.51062e-08
3.94955e-08
-1.29597e-08
-1.30684e-08
3.4069e-08
-1.1439e-08
-1.09624e-08
2.97401e-08
-1.01499e-08
-8.8147e-09
2.62482e-08
-9.11158e-09
-6.64452e-09
2.353e-08
-8.30186e-09
-4.46333e-09
2.15205e-08
-7.70114e-09
-2.25715e-09
2.01592e-08
-7.31639e-09
1.89656e-08
-7.03639e-09
2.45101e-09
1.56636e-08
-5.42702e-09
4.89284e-09
1.67339e-08
-5.65456e-09
7.33476e-09
1.80478e-08
-5.97654e-09
9.80073e-09
2.00136e-08
-6.49096e-09
1.22885e-08
2.27009e-08
-7.19323e-09
1.48112e-08
2.61631e-08
-8.11727e-09
1.74017e-08
3.04656e-08
-9.30373e-09
2.00875e-08
3.57327e-08
-1.07876e-08
2.29046e-08
4.20961e-08
-1.26241e-08
2.56155e-08
5.00864e-08
-1.47979e-08
2.8047e-08
5.96268e-08
-1.73592e-08
2.79243e-08
7.34128e-08
-2.0065e-08
2.60756e-08
8.60529e-08
-2.27568e-08
2.27417e-08
9.76475e-08
-2.51917e-08
1.82784e-08
1.07427e-07
-2.7277e-08
1.29368e-08
1.15144e-07
-2.89022e-08
7.00194e-09
1.20484e-07
-3.00255e-08
7.67331e-10
1.23256e-07
-3.06091e-08
-5.46022e-09
1.23355e-07
-3.06388e-08
-1.1373e-08
1.20781e-07
-3.01149e-08
-1.66749e-08
1.15637e-07
-2.90524e-08
-2.10764e-08
1.08113e-07
-2.74898e-08
-2.43213e-08
9.85278e-08
-2.54696e-08
-2.60461e-08
8.71302e-08
-2.31039e-08
-2.60101e-08
7.4709e-08
-2.0485e-08
-2.3368e-08
6.11522e-08
-1.78608e-08
-2.04514e-08
5.1966e-08
-1.5387e-08
-1.73946e-08
4.43283e-08
-1.33162e-08
-1.44302e-08
3.83707e-08
-1.15949e-08
-1.15187e-08
3.35806e-08
-1.02439e-08
-8.64067e-09
2.98598e-08
-9.20785e-09
-5.78168e-09
2.71121e-08
-8.45061e-09
-2.90894e-09
2.52568e-08
-7.97033e-09
2.36921e-08
-7.6354e-09
3.08039e-09
1.84318e-08
-5.84858e-09
6.17579e-09
1.97506e-08
-6.11202e-09
9.29614e-09
2.14271e-08
-6.49957e-09
1.24814e-08
2.39536e-08
-7.12527e-09
1.57395e-08
2.7431e-08
-7.98816e-09
1.91027e-08
3.19377e-08
-9.13785e-09
2.2647e-08
3.75607e-08
-1.06394e-08
2.64804e-08
4.44514e-08
-1.2552e-08
3.07939e-08
5.27732e-08
-1.49906e-08
3.5428e-08
6.33875e-08
-1.79352e-08
4.06077e-08
7.60429e-08
-2.15958e-08
4.02795e-08
9.92015e-08
-2.54605e-08
3.73137e-08
1.18334e-07
-2.93158e-08
3.23054e-08
1.35409e-07
-3.27529e-08
2.58133e-08
1.49608e-07
-3.5689e-08
1.81574e-08
1.60752e-07
-3.79519e-08
9.71225e-09
1.68439e-07
-3.95104e-08
8.66243e-10
1.72416e-07
-4.03142e-08
-7.97332e-09
1.72541e-07
-4.03464e-08
-1.63979e-08
1.68813e-07
-3.96073e-08
-2.40157e-08
1.61369e-07
-3.81146e-08
-3.04453e-08
1.50463e-07
-3.59195e-08
-3.53582e-08
1.36494e-07
-3.30531e-08
-3.81818e-08
1.19644e-07
-2.96903e-08
-3.83191e-08
1.00758e-07
-2.59117e-08
-3.28454e-08
7.78153e-08
-2.21368e-08
-2.79811e-08
6.56693e-08
-1.85676e-08
-2.33791e-08
5.54652e-08
-1.57388e-08
-1.91934e-08
4.76132e-08
-1.34283e-08
-1.52244e-08
4.12774e-08
-1.16657e-08
-1.13729e-08
3.63435e-08
-1.03352e-08
-7.58381e-09
3.27e-08
-9.37699e-09
-3.7988e-09
3.02484e-08
-8.77658e-09
2.82698e-08
-8.37646e-09
3.88319e-09
2.08908e-08
-6.34223e-09
7.81812e-09
2.24637e-08
-6.64808e-09
1.18205e-08
2.4539e-08
-7.11433e-09
1.59531e-08
2.7696e-08
-7.87494e-09
2.02346e-08
3.20825e-08
-8.93297e-09
2.47146e-08
3.7815e-08
-1.03573e-08
2.95214e-08
4.4999e-08
-1.22451e-08
3.49058e-08
5.37512e-08
-1.46841e-08
4.13702e-08
6.41936e-08
-1.78849e-08
4.91395e-08
7.74121e-08
-2.17939e-08
6.07649e-08
9.14361e-08
-2.70185e-08
5.92187e-08
1.33151e-07
-3.24035e-08
5.39768e-08
1.61412e-07
-3.78357e-08
4.62556e-08
1.85716e-07
-4.25861e-08
3.67234e-08
2.05793e-07
-4.66525e-08
2.5687e-08
2.21525e-07
-4.97364e-08
1.36066e-08
2.32379e-07
-5.1859e-08
9.90621e-10
2.37981e-07
-5.29489e-08
-1.16203e-08
2.38136e-07
-5.29843e-08
-2.36843e-08
2.32842e-07
-5.19659e-08
-3.46889e-08
2.2229e-07
-4.99155e-08
-4.41645e-08
2.06844e-07
-4.69058e-08
-5.1791e-08
1.87034e-07
-4.29142e-08
-5.68741e-08
1.62971e-07
-3.82436e-08
-5.81959e-08
1.3497e-07
-3.289e-08
-4.61126e-08
9.33377e-08
-2.76057e-08
-3.81298e-08
8.01567e-08
-2.24702e-08
-3.13299e-08
6.73612e-08
-1.86959e-08
-2.55045e-08
5.74258e-08
-1.56381e-08
-2.01408e-08
4.92838e-08
-1.33701e-08
-1.49978e-08
4.28789e-08
-1.16784e-08
-9.97145e-09
3.81487e-08
-1.04751e-08
-4.97572e-09
3.49821e-08
-9.72949e-09
3.25456e-08
-9.25159e-09
4.87659e-09
2.29139e-08
-6.89964e-09
9.86058e-09
2.47338e-08
-7.25407e-09
1.4984e-08
2.72268e-08
-7.81116e-09
2.03427e-08
3.10653e-08
-8.72811e-09
2.59622e-08
3.64735e-08
-1.00105e-08
3.18853e-08
4.36389e-08
-1.1747e-08
3.82485e-08
5.27045e-08
-1.40687e-08
4.54652e-08
6.36184e-08
-1.70839e-08
5.45338e-08
7.62746e-08
-2.11495e-08
6.73521e-08
9.06229e-08
-2.60292e-08
9.41566e-08
9.8146e-08
-3.35144e-08
8.76508e-08
1.8041e-07
-4.07528e-08
7.79791e-08
2.19008e-07
-4.79243e-08
6.61137e-08
2.51655e-07
-5.40739e-08
5.22072e-08
2.79117e-07
-5.94171e-08
3.63587e-08
3.00748e-07
-6.3374e-08
1.91122e-08
3.15743e-07
-6.61179e-08
1.14516e-09
3.23477e-07
-6.75287e-08
-1.68194e-08
3.23669e-07
-6.7568e-08
-3.4057e-08
3.16316e-07
-6.62364e-08
-4.98874e-08
3.01692e-07
-6.35718e-08
-6.37563e-08
2.80409e-07
-5.96963e-08
-7.55468e-08
2.53257e-07
-5.44319e-08
-8.50561e-08
2.20847e-07
-4.83668e-08
-9.12963e-08
1.8248e-07
-4.127e-08
-6.37525e-08
9.99468e-08
-3.41529e-08
-5.08339e-08
9.39879e-08
-2.67497e-08
-4.13726e-08
7.99309e-08
-2.2031e-08
-3.36081e-08
6.77833e-08
-1.81221e-08
-2.65221e-08
5.75005e-08
-1.53026e-08
-1.97122e-08
4.92748e-08
-1.32058e-08
-1.30696e-08
4.32307e-08
-1.17245e-08
-6.49849e-09
3.92246e-08
-1.08137e-08
3.62943e-08
-1.02471e-08
6.06658e-09
2.4357e-08
-7.50968e-09
1.2323e-08
2.63956e-08
-7.91834e-09
1.88358e-08
2.92918e-08
-8.57779e-09
2.57527e-08
3.382e-08
-9.67156e-09
3.31024e-08
4.03288e-08
-1.1205e-08
4.08707e-08
4.91552e-08
-1.32845e-08
4.90699e-08
6.057e-08
-1.60648e-08
5.81634e-08
7.41857e-08
-1.96608e-08
6.98378e-08
8.91542e-08
-2.45541e-08
9.05135e-08
1.00209e-07
-3.02622e-08
1.50011e-07
7.79109e-08
-3.92623e-08
1.29373e-07
2.48232e-07
-4.71839e-08
1.11292e-07
2.92546e-07
-5.54582e-08
9.33192e-08
3.32115e-07
-6.24867e-08
7.35128e-08
3.67711e-07
-6.87878e-08
5.11034e-08
3.96388e-07
-7.32315e-08
2.67252e-08
4.16508e-07
-7.63868e-08
1.33635e-09
4.26892e-07
-7.8026e-08
-2.40533e-08
4.27127e-07
-7.80683e-08
-4.84342e-08
4.17212e-07
-7.65142e-08
-7.08492e-08
3.9755e-07
-7.34431e-08
-9.0659e-08
3.69305e-07
-6.90867e-08
-1.08623e-07
3.34086e-07
-6.28654e-08
-1.26615e-07
2.94762e-07
-5.59231e-08
-1.46878e-07
2.50462e-07
-4.77187e-08
-8.61858e-08
7.91818e-08
-3.99271e-08
-6.56424e-08
1.04457e-07
-3.1012e-08
-5.35364e-08
9.33233e-08
-2.54985e-08
-4.37859e-08
7.88106e-08
-2.07778e-08
-3.46567e-08
6.57815e-08
-1.74102e-08
-2.57185e-08
5.52262e-08
-1.48897e-08
-1.69933e-08
4.76097e-08
-1.31042e-08
-8.41497e-09
4.26572e-08
-1.20109e-08
3.9225e-08
-1.13457e-08
7.44973e-09
2.50642e-08
-8.15691e-09
1.52107e-08
2.72583e-08
-8.62364e-09
2.34236e-08
3.0472e-08
-9.39304e-09
3.23356e-08
3.5584e-08
-1.0676e-08
4.20093e-08
4.31236e-08
-1.24686e-08
5.22794e-08
5.37634e-08
-1.48783e-08
6.26508e-08
6.82338e-08
-1.80353e-08
7.19148e-08
8.68741e-08
-2.19524e-08
7.90134e-08
1.09444e-07
-2.73889e-08
9.80823e-08
1.1555e-07
-3.44092e-08
2.22246e-07
-4.62527e-08
1.81828e-07
3.38018e-07
-4.9368e-08
1.53304e-07
3.76728e-07
-5.5658e-08
1.29053e-07
4.16219e-07
-5.98524e-08
1.02188e-07
4.59148e-07
-6.45719e-08
7.10908e-08
4.95423e-07
-6.79376e-08
3.70442e-08
5.21152e-07
-7.05971e-08
1.57053e-09
5.34423e-07
-7.20581e-08
-3.39066e-08
5.34702e-07
-7.20982e-08
-6.79661e-08
5.21988e-07
-7.07172e-08
-9.9095e-08
4.96814e-07
-6.81349e-08
-1.2602e-07
4.6108e-07
-6.48495e-08
-1.50396e-07
4.18656e-07
-6.01939e-08
-1.79153e-07
3.79592e-07
-5.60725e-08
-2.19424e-07
3.40566e-07
-4.98337e-08
-9.32744e-08
-4.69673e-08
-7.40067e-08
1.2033e-07
-3.51415e-08
-6.67814e-08
1.14464e-07
-2.83661e-08
-5.67553e-08
9.19253e-08
-2.31407e-08
-4.51852e-08
7.3704e-08
-1.94927e-08
-3.33954e-08
6.00709e-08
-1.66346e-08
-2.19188e-08
5.06943e-08
-1.45611e-08
-1.07934e-08
4.48176e-08
-1.32858e-08
4.09507e-08
-1.25191e-08
8.97337e-09
2.49151e-08
-8.8243e-09
1.84179e-08
2.71668e-08
-9.35304e-09
2.85889e-08
3.05429e-08
-1.02419e-08
3.99001e-08
3.60065e-08
-1.17336e-08
5.25197e-08
4.43175e-08
-1.38135e-08
6.6139e-08
5.67413e-08
-1.65972e-08
7.88252e-08
7.56689e-08
-2.01212e-08
8.43163e-08
1.05697e-07
-2.43137e-08
6.71548e-08
1.54665e-07
-2.8059e-08
2.15264e-07
-3.25596e-08
1.2653e-07
2.15424e-07
-3.93631e-09
1.69476e-07
3.26023e-07
7.75921e-09
1.64897e-07
4.05227e-07
1.55714e-08
1.36499e-07
4.66105e-07
2.14416e-08
9.63459e-08
5.10822e-07
2.47534e-08
5.02981e-08
5.40517e-07
2.66831e-08
1.85398e-09
5.55377e-07
2.74903e-08
-4.65953e-08
5.55665e-07
2.74867e-08
-9.26655e-08
5.41385e-07
2.66729e-08
-1.32882e-07
5.12291e-07
2.47392e-08
-1.61444e-07
4.68219e-07
2.14224e-08
-1.66445e-07
4.08102e-07
1.55555e-08
-1.24584e-07
3.29974e-07
7.7571e-09
2.1992e-07
-3.93809e-09
-6.46379e-08
2.18312e-07
-3.33435e-08
-7.98504e-08
1.58745e-07
-2.9068e-08
-7.2662e-08
1.10293e-07
-2.55562e-08
-5.82356e-08
8.09516e-08
-2.16739e-08
-4.26387e-08
6.29735e-08
-1.84995e-08
-2.77158e-08
5.18709e-08
-1.60995e-08
-1.35486e-08
4.52729e-08
-1.46225e-08
4.11457e-08
-1.37437e-08
1.05875e-08
2.38156e-08
-9.48805e-09
2.18598e-08
2.59733e-08
-1.00787e-08
3.42911e-08
2.91991e-08
-1.10876e-08
4.87087e-08
3.43772e-08
-1.27883e-08
6.60508e-08
4.21241e-08
-1.51487e-08
8.77504e-08
5.3319e-08
-1.82774e-08
1.16191e-07
6.92955e-08
-2.20672e-08
1.56709e-07
9.15553e-08
-2.63763e-08
2.18661e-07
1.21877e-07
-2.91642e-08
3.07273e-07
1.56224e-07
-2.95712e-08
2.43908e-07
8.17591e-08
-1.83946e-08
2.71657e-07
1.84677e-07
2.99819e-09
2.63746e-07
2.64062e-07
6.98722e-08
2.33496e-07
3.2861e-07
1.06867e-07
1.85376e-07
3.80843e-07
1.33382e-07
1.28129e-07
4.19358e-07
1.48711e-07
6.6082e-08
4.44986e-07
1.57578e-07
2.14927e-09
4.57822e-07
1.61488e-07
-6.17805e-08
4.58078e-07
1.61517e-07
-1.2382e-07
4.45757e-07
1.57668e-07
-1.81055e-07
4.20654e-07
1.48872e-07
-2.29148e-07
3.82684e-07
1.33628e-07
-2.59304e-07
3.31027e-07
1.07231e-07
-2.66735e-07
2.67053e-07
7.03525e-08
-2.38669e-07
1.88216e-07
3.63845e-09
-3.03727e-07
8.32006e-08
-1.81429e-08
-2.14506e-07
1.59007e-07
-2.99167e-08
-1.51264e-07
1.25494e-07
-2.99909e-08
-1.09189e-07
9.58339e-08
-2.76158e-08
-7.8834e-08
7.42945e-08
-2.36984e-08
-5.48099e-08
5.92675e-08
-2.03181e-08
-3.46801e-08
4.93638e-08
-1.76228e-08
-1.67294e-08
4.32782e-08
-1.5956e-08
3.93857e-08
-1.49693e-08
1.21174e-08
2.18239e-08
-1.01257e-08
2.50976e-08
2.37717e-08
-1.07787e-08
3.95617e-08
2.66469e-08
-1.19119e-08
5.65715e-08
3.12035e-08
-1.38361e-08
7.73468e-08
3.78753e-08
-1.65265e-08
1.03612e-07
4.71864e-08
-2.01326e-08
1.37752e-07
5.97516e-08
-2.45956e-08
1.8311e-07
7.59588e-08
-2.97623e-08
2.43173e-07
9.55653e-08
-3.37509e-08
3.19465e-07
1.15532e-07
-3.56006e-08
3.20599e-07
1.03793e-07
-2.31674e-08
3.48446e-07
1.55512e-07
1.3165e-09
3.28475e-07
2.08905e-07
7.51282e-08
2.84788e-07
2.56568e-07
1.15728e-07
2.23634e-07
2.96725e-07
1.45272e-07
1.53548e-07
3.27102e-07
1.62342e-07
7.88521e-08
3.47549e-07
1.72133e-07
2.40397e-09
3.57864e-07
1.76406e-07
-7.40384e-08
3.58086e-07
1.76434e-07
-1.48717e-07
3.48214e-07
1.72221e-07
-2.18777e-07
3.28212e-07
1.62501e-07
-2.79887e-07
2.98279e-07
1.45515e-07
-3.23505e-07
2.58554e-07
1.16091e-07
-3.43318e-07
2.11272e-07
7.55935e-08
-3.15254e-07
1.58154e-07
1.99821e-09
-3.14922e-07
1.0583e-07
-2.29613e-08
-2.38273e-07
1.18263e-07
-3.59045e-08
-1.77061e-07
9.88496e-08
-3.45673e-08
-1.30021e-07
7.98321e-08
-3.10379e-08
-9.37265e-08
6.43152e-08
-2.63157e-08
-6.47916e-08
5.26435e-08
-2.23109e-08
-4.07677e-08
4.45244e-08
-1.91845e-08
-1.95867e-08
3.93703e-08
-1.72731e-08
3.59621e-08
-1.61631e-08
1.34894e-08
1.90435e-08
-1.0709e-08
2.79825e-08
2.06965e-08
-1.14179e-08
4.42029e-08
2.30883e-08
-1.26619e-08
6.336e-08
2.68283e-08
-1.47818e-08
8.67948e-08
3.21955e-08
-1.7755e-08
1.16252e-07
3.94803e-08
-2.1751e-08
1.53788e-07
4.89437e-08
-2.67285e-08
2.01546e-07
6.06771e-08
-3.24757e-08
2.60178e-07
7.41285e-08
-3.71954e-08
3.26762e-07
8.82731e-08
-3.93249e-08
3.63694e-07
9.5254e-08
-2.83928e-08
3.98789e-07
1.2576e-07
-5.34294e-09
3.7571e-07
1.60814e-07
7.11693e-08
3.24686e-07
1.94326e-07
1.13266e-07
2.54087e-07
2.23434e-07
1.43891e-07
1.74026e-07
2.46004e-07
1.61159e-07
8.92019e-08
2.61405e-07
1.70967e-07
2.62547e-09
2.69248e-07
1.75193e-07
-8.39449e-08
2.69441e-07
1.75216e-07
-1.68752e-07
2.61981e-07
1.7104e-07
-2.48789e-07
2.46957e-07
1.61293e-07
-3.19361e-07
2.2475e-07
1.44101e-07
-3.70381e-07
1.9598e-07
1.13594e-07
-3.93463e-07
1.62753e-07
7.1601e-08
-3.58529e-07
1.27907e-07
-4.68811e-09
-3.2185e-07
9.73474e-08
-2.81967e-08
-2.54736e-07
9.0775e-08
-3.96258e-08
-1.94898e-07
7.70441e-08
-3.80328e-08
-1.45348e-07
6.40881e-08
-3.38057e-08
-1.05451e-07
5.29594e-08
-2.85412e-08
-7.3023e-08
4.4277e-08
-2.40614e-08
-4.59358e-08
3.80229e-08
-2.05858e-08
-2.20534e-08
3.39552e-08
-1.84673e-08
3.11595e-08
-1.72508e-08
1.46304e-08
1.56307e-08
-1.12176e-08
3.03625e-08
1.69394e-08
-1.1975e-08
4.79752e-08
1.87902e-08
-1.33146e-08
6.87546e-08
2.16524e-08
-1.56035e-08
9.40753e-08
2.56983e-08
-1.88235e-08
1.25637e-07
3.1085e-08
-2.31667e-08
1.6528e-07
3.79253e-08
-2.86238e-08
2.14677e-07
4.62553e-08
-3.49759e-08
2.73559e-07
5.57651e-08
-4.05184e-08
3.38732e-07
6.64633e-08
-4.33636e-08
3.91166e-07
7.6393e-08
-3.35726e-08
4.32271e-07
9.5968e-08
-1.13132e-08
4.08344e-07
1.19052e-07
6.56888e-08
3.53155e-07
1.41802e-07
1.07713e-07
2.76371e-07
1.6199e-07
1.38228e-07
1.89256e-07
1.77952e-07
1.55168e-07
9.69801e-08
1.88977e-07
1.64704e-07
2.81705e-09
1.94648e-07
1.68763e-07
-9.13422e-08
1.94819e-07
1.6878e-07
-1.83608e-07
1.89488e-07
1.6476e-07
-2.70714e-07
1.78789e-07
1.55275e-07
-3.47499e-07
1.63132e-07
1.38402e-07
-4.02736e-07
1.43218e-07
1.07999e-07
-4.26752e-07
1.20696e-07
6.60725e-08
-3.85948e-07
9.77929e-08
-1.06895e-08
-3.33502e-07
7.83164e-08
-3.34156e-08
-2.67698e-07
6.86597e-08
-4.36881e-08
-2.0753e-07
5.82722e-08
-4.13965e-08
-1.56223e-07
4.91495e-08
-3.63682e-08
-1.1404e-07
4.13038e-08
-3.05272e-08
-7.92547e-08
3.50906e-08
-2.55989e-08
-4.99487e-08
3.05269e-08
-2.181e-08
-2.39959e-08
2.75104e-08
-1.95079e-08
2.53608e-08
-1.81973e-08
1.55161e-08
1.1748e-08
-1.16333e-08
3.21986e-08
1.26857e-08
-1.24288e-08
5.08561e-08
1.39754e-08
-1.38427e-08
7.28161e-08
1.59538e-08
-1.62615e-08
9.94602e-08
1.87229e-08
-1.96687e-08
1.32448e-07
2.23679e-08
-2.42708e-08
1.73504e-07
2.69464e-08
-3.00775e-08
2.24128e-07
3.24968e-08
-3.68647e-08
2.83953e-07
3.89115e-08
-4.29714e-08
3.50387e-07
4.64077e-08
-4.63784e-08
4.09635e-07
5.45641e-08
-3.74189e-08
4.54421e-07
6.7007e-08
-1.58257e-08
4.30498e-07
8.15334e-08
6.14424e-08
3.72913e-07
9.60369e-08
1.0335e-07
2.92118e-07
1.09066e-07
1.33718e-07
2.00156e-07
1.19505e-07
1.50409e-07
1.02601e-07
1.26788e-07
1.59744e-07
2.98728e-09
1.30576e-07
1.63685e-07
-9.66264e-08
1.30734e-07
1.63699e-07
-1.94184e-07
1.27257e-07
1.59789e-07
-2.86159e-07
1.20266e-07
1.50498e-07
-3.66986e-07
1.10092e-07
1.33867e-07
-4.24662e-07
9.72895e-08
1.03604e-07
-4.48723e-07
8.2968e-08
6.17898e-08
-4.04275e-07
6.85836e-08
-1.52393e-08
-3.44907e-07
5.62504e-08
-3.7302e-08
-2.77776e-07
4.82719e-08
-4.67424e-08
-2.1659e-07
4.09845e-08
-4.3899e-08
-1.63955e-07
3.48358e-08
-3.83207e-08
-1.20213e-07
2.96253e-08
-3.20642e-08
-8.38032e-08
2.54906e-08
-2.68094e-08
-5.29174e-08
2.2429e-08
-2.27878e-08
-2.54464e-08
2.03869e-08
-2.03475e-08
1.88791e-08
-1.89646e-08
1.61336e-08
7.55862e-09
-1.19442e-08
3.34731e-08
8.11321e-09
-1.27671e-08
5.28412e-08
8.84092e-09
-1.42335e-08
7.55878e-08
9.95079e-09
-1.67436e-08
1.03096e-07
1.14966e-08
-2.02817e-08
1.37005e-07
1.35225e-08
-2.50641e-08
1.79001e-07
1.60634e-08
-3.1113e-08
2.30546e-07
1.91562e-08
-3.82043e-08
2.91361e-07
2.27924e-08
-4.46952e-08
3.59143e-07
2.71323e-08
-4.85067e-08
4.21609e-07
3.2112e-08
-4.00144e-08
4.68469e-07
3.88945e-08
-1.87475e-08
4.44625e-07
4.66926e-08
5.86852e-08
3.85646e-07
5.44769e-08
1.00539e-07
3.02387e-07
6.15067e-08
1.30818e-07
2.07335e-07
6.71891e-08
1.47367e-07
1.06344e-07
7.11937e-08
1.56586e-07
3.1437e-09
7.33167e-08
1.6046e-07
-1.00062e-07
7.34698e-08
1.6047e-07
-2.01074e-07
7.16452e-08
1.56622e-07
-2.96165e-07
6.7916e-08
1.47442e-07
-3.79494e-07
6.24721e-08
1.30948e-07
-4.38605e-07
5.56329e-08
1.00768e-07
-4.62626e-07
4.79867e-08
5.90018e-08
-4.1612e-07
4.02795e-08
-1.82013e-08
-3.53491e-07
3.35608e-08
-3.99392e-08
-2.84971e-07
2.86659e-08
-4.89149e-08
-2.22739e-07
2.44265e-08
-4.56736e-08
-1.69107e-07
2.09236e-08
-3.972e-08
-1.24319e-07
1.8009e-08
-3.31719e-08
-8.68468e-08
1.5709e-08
-2.76901e-08
-5.4918e-08
1.40064e-08
-2.35063e-08
-2.64286e-08
1.28666e-08
-2.09691e-08
1.19853e-08
-1.95348e-08
1.64821e-08
3.21907e-09
-1.21425e-08
3.41904e-08
3.38634e-09
-1.29814e-08
5.39541e-08
3.55505e-09
-1.44778e-08
7.71352e-08
3.80914e-09
-1.70395e-08
1.05119e-07
4.16399e-09
-2.06509e-08
1.3954e-07
4.63473e-09
-2.55334e-08
1.82077e-07
5.24198e-09
-3.17154e-08
2.34193e-07
6.01365e-09
-3.89734e-08
2.95673e-07
6.98282e-09
-4.56705e-08
3.64317e-07
8.19064e-09
-4.97026e-08
4.28213e-07
9.65425e-09
-4.14385e-08
4.76043e-07
1.13823e-08
-2.03175e-08
4.52229e-07
1.32403e-08
5.72667e-08
3.92529e-07
1.50378e-08
9.91384e-08
3.0798e-07
1.66502e-08
1.29406e-07
2.11285e-07
1.79786e-08
1.45906e-07
1.08442e-07
1.89563e-08
1.5508e-07
3.29479e-09
1.95377e-08
1.58926e-07
-1.01866e-07
1.96959e-08
1.58935e-07
-2.04751e-07
1.94208e-08
1.5511e-07
-3.01523e-07
1.87191e-08
1.45969e-07
-3.86188e-07
1.76185e-08
1.29518e-07
-4.4607e-07
1.61698e-08
9.93451e-08
-4.70104e-07
1.44671e-08
5.7554e-08
-4.22651e-07
1.2637e-08
-1.98108e-08
-3.58582e-07
1.08993e-08
-4.14076e-08
-2.89179e-07
9.4208e-09
-5.01578e-08
-2.26249e-07
8.19551e-09
-4.66986e-08
-1.72e-07
7.21715e-09
-4.05425e-08
-1.26608e-07
6.45018e-09
-3.38333e-08
-8.85417e-08
5.86834e-09
-2.82259e-08
-5.60332e-08
5.44923e-09
-2.39513e-08
-2.69771e-08
5.17022e-09
-2.13597e-08
4.90378e-09
-1.98956e-08
1.65623e-08
-1.11802e-09
-1.22252e-08
3.43548e-08
-1.33752e-09
-1.30687e-08
5.42089e-08
-1.72654e-09
-1.45726e-08
7.74913e-08
-2.32632e-09
-1.71469e-08
1.05591e-07
-3.16001e-09
-2.07759e-08
1.4015e-07
-4.2415e-09
-2.56821e-08
1.82851e-07
-5.56442e-09
-3.1895e-08
2.35165e-07
-7.1088e-09
-3.91917e-08
2.96879e-07
-8.79728e-09
-4.5934e-08
3.65778e-07
-1.06952e-08
-5.00132e-08
4.29913e-07
-1.2698e-08
-4.17824e-08
4.77868e-07
-1.59073e-08
-2.06659e-08
4.54003e-07
-1.98944e-08
5.69999e-08
3.94123e-07
-2.39988e-08
9.8917e-08
3.09295e-07
-2.77354e-08
1.29214e-07
2.12253e-07
-3.07055e-08
1.45726e-07
1.09017e-07
-3.2713e-08
1.54905e-07
3.45039e-09
-3.36458e-08
1.5875e-07
-1.0214e-07
-3.347e-08
1.58757e-07
-2.05448e-07
-3.21981e-08
1.54927e-07
-3.02615e-07
-2.98907e-08
1.45776e-07
-3.87619e-07
-2.66838e-08
1.29307e-07
-4.47749e-07
-2.2798e-08
9.90979e-08
-4.71896e-07
-1.86402e-08
5.72538e-08
-4.24353e-07
-1.47003e-08
-2.02056e-08
-3.60057e-07
-1.15953e-08
-4.18016e-08
-2.904e-07
-9.71679e-09
-5.0519e-08
-2.27229e-07
-7.96401e-09
-4.70114e-08
-1.72768e-07
-6.43594e-09
-4.08081e-08
-1.27191e-07
-5.06828e-09
-3.40587e-08
-8.89612e-08
-3.94163e-09
-2.84199e-08
-5.6305e-08
-3.0848e-09
-2.41222e-08
-2.71101e-08
-2.50824e-09
-2.15164e-08
-2.16268e-09
-2.00437e-08
1.63752e-08
-5.3013e-09
-1.21919e-08
3.39683e-08
-5.90161e-09
-1.3029e-08
5.36086e-08
-6.84848e-09
-1.45184e-08
7.66597e-08
-8.31054e-09
-1.70669e-08
1.04517e-07
-1.03593e-08
-2.06583e-08
1.38839e-07
-1.30504e-08
-2.55125e-08
1.8133e-07
-1.64009e-08
-3.16551e-08
2.33475e-07
-2.03902e-08
-3.88638e-08
2.95007e-07
-2.48359e-08
-4.54932e-08
3.63583e-07
-2.98209e-08
-4.94502e-08
4.26807e-07
-3.4857e-08
-4.10653e-08
4.74042e-07
-4.33235e-08
-1.9818e-08
4.50032e-07
-5.3734e-08
5.78489e-08
3.90496e-07
-6.42936e-08
9.98313e-08
3.06387e-07
-7.38187e-08
1.30193e-07
2.10281e-07
-8.13736e-08
1.46774e-07
1.08097e-07
-8.65308e-08
1.56002e-07
3.62275e-09
-8.90434e-08
1.59872e-07
-1.00889e-07
-8.88335e-08
1.59875e-07
-2.03183e-07
-8.59163e-08
1.56013e-07
-2.99476e-07
-8.04036e-08
1.46806e-07
-3.83846e-07
-7.25745e-08
1.30261e-07
-4.43726e-07
-6.28962e-08
9.9978e-08
-4.68107e-07
-5.2319e-08
5.806e-08
-4.21344e-07
-4.20472e-08
-1.94165e-08
-3.57986e-07
-3.38077e-08
-4.11457e-08
-2.88672e-07
-2.9016e-08
-5.00144e-08
-2.25699e-07
-2.4314e-08
-4.66226e-08
-1.71424e-07
-2.01874e-08
-4.05239e-08
-1.26078e-07
-1.65607e-08
-3.38534e-08
-8.81145e-08
-1.36296e-08
-2.82757e-08
-5.57399e-08
-1.1438e-08
-2.40214e-08
-2.6831e-08
-9.97611e-09
-2.1441e-08
-9.01366e-09
-1.998e-08
1.59209e-08
-9.17434e-09
-1.20479e-08
3.30282e-08
-1.01417e-08
-1.28672e-08
5.21419e-08
-1.16422e-08
-1.432e-08
7.46116e-08
-1.39765e-08
-1.68037e-08
1.0184e-07
-1.72866e-08
-2.03013e-08
1.35516e-07
-2.17013e-08
-2.5025e-08
1.77402e-07
-2.72962e-08
-3.09905e-08
2.29041e-07
-3.40518e-08
-3.79777e-08
2.90111e-07
-4.1582e-08
-4.43237e-08
3.57979e-07
-4.97015e-08
-4.79871e-08
4.1867e-07
-5.63131e-08
-3.92354e-08
4.64048e-07
-7.09968e-08
-1.7705e-08
4.39796e-07
-8.94005e-08
5.99189e-08
3.8123e-07
-1.07745e-07
1.02017e-07
2.98973e-07
-1.24062e-07
1.325e-07
2.05206e-07
-1.36836e-07
1.49229e-07
1.05616e-07
-1.45506e-07
1.58566e-07
3.82823e-09
-1.49751e-07
1.62495e-07
-9.80122e-08
-1.49485e-07
1.62492e-07
-1.97763e-07
-1.44726e-07
1.58561e-07
-2.91798e-07
-1.35601e-07
1.49233e-07
-3.74432e-07
-1.22472e-07
1.32531e-07
-4.33476e-07
-1.05967e-07
1.02115e-07
-4.58238e-07
-8.76282e-08
6.00713e-08
-4.13419e-07
-6.94859e-08
-1.73801e-08
-3.52627e-07
-5.52049e-08
-3.93945e-08
-2.84057e-07
-4.8963e-08
-4.86235e-08
-2.21584e-07
-4.12742e-08
-4.5513e-08
-1.67859e-07
-3.42296e-08
-3.96823e-08
-1.23179e-07
-2.80249e-08
-3.32158e-08
-8.59426e-08
-2.30691e-08
-2.7797e-08
-5.43056e-08
-1.94199e-08
-2.36551e-08
-2.61264e-08
-1.70145e-08
-2.11409e-08
-1.54274e-08
-1.97127e-08
1.52018e-08
-1.25749e-08
-1.18012e-08
3.15337e-08
-1.3881e-08
-1.25926e-08
4.97905e-08
-1.5911e-08
-1.39879e-08
7.12883e-08
-1.91047e-08
-1.63697e-08
9.74306e-08
-2.37096e-08
-1.97193e-08
1.29956e-07
-2.99901e-08
-2.4237e-08
1.7076e-07
-3.81775e-08
-2.99225e-08
2.21599e-07
-4.83281e-08
-3.65631e-08
2.82317e-07
-5.98425e-08
-4.24573e-08
3.49756e-07
-7.14506e-08
-4.56898e-08
4.04788e-07
-7.50975e-08
-3.62478e-08
4.46543e-07
-9.85896e-08
-1.41619e-08
4.2199e-07
-1.2813e-07
6.32821e-08
3.65307e-07
-1.56585e-07
1.05525e-07
2.86377e-07
-1.81284e-07
1.36152e-07
1.96637e-07
-2.00204e-07
1.53108e-07
1.01405e-07
-2.12895e-07
1.6262e-07
4.08846e-09
-2.19079e-07
1.66645e-07
-9.32998e-08
-2.1873e-07
1.66633e-07
-1.8875e-07
-2.11865e-07
1.62589e-07
-2.78865e-07
-1.98556e-07
1.5307e-07
-3.5833e-07
-1.79134e-07
1.36127e-07
-4.15687e-07
-1.54162e-07
1.05552e-07
-4.40968e-07
-1.25703e-07
6.33565e-08
-3.99911e-07
-9.65976e-08
-1.39447e-08
-3.44784e-07
-7.38213e-08
-3.65113e-08
-2.76691e-07
-7.06359e-08
-4.64203e-08
-2.14626e-07
-5.96165e-08
-4.37219e-08
-1.6177e-07
-4.87663e-08
-3.83192e-08
-1.18266e-07
-3.93571e-08
-3.21723e-08
-8.23086e-08
-3.20208e-08
-2.70057e-08
-5.19327e-08
-2.67536e-08
-2.30421e-08
-2.49682e-08
-2.33462e-08
-2.06328e-08
-2.11389e-08
-1.92566e-08
1.42329e-08
-1.53435e-08
-1.14643e-08
2.95068e-08
-1.6937e-08
-1.22179e-08
4.65664e-08
-1.94352e-08
-1.35354e-08
6.66586e-08
-2.34191e-08
-1.57778e-08
9.11582e-08
-2.92872e-08
-1.8922e-08
1.21853e-07
-3.75369e-08
-2.31476e-08
1.60861e-07
-4.876e-08
-2.84255e-08
2.10441e-07
-6.3359e-08
-3.455e-08
2.71508e-07
-8.11715e-08
-3.97372e-08
3.41559e-07
-9.91162e-08
-4.23861e-08
3.83592e-07
-8.5088e-08
-3.20416e-08
4.18612e-07
-1.24349e-07
-9.26069e-09
3.94373e-07
-1.71484e-07
6.75927e-08
3.41223e-07
-2.13343e-07
1.09907e-07
2.67704e-07
-2.48373e-07
1.40608e-07
1.84088e-07
-2.74433e-07
1.57846e-07
9.52681e-08
-2.91656e-07
1.67581e-07
4.43112e-09
-2.99977e-07
1.71735e-07
-8.64962e-08
-2.99513e-07
1.7171e-07
-1.75601e-07
-2.90272e-07
1.67512e-07
-2.59718e-07
-2.72187e-07
1.57748e-07
-3.33987e-07
-2.45373e-07
1.40509e-07
-3.88097e-07
-2.09899e-07
1.09846e-07
-4.13429e-07
-1.67952e-07
6.75806e-08
-3.79359e-07
-1.21503e-07
-9.16525e-09
-3.37089e-07
-8.36542e-08
-3.24363e-08
-2.66457e-07
-9.803e-08
-4.32386e-08
-2.04126e-07
-8.08482e-08
-4.10987e-08
-1.52616e-07
-6.39069e-08
-3.63702e-08
-1.11024e-07
-5.02469e-08
-3.07022e-08
-7.70641e-08
-4.00746e-08
-2.59056e-08
-4.85648e-08
-3.30557e-08
-2.21972e-08
-2.33422e-08
-2.86337e-08
-1.99352e-08
-2.58495e-08
-1.86316e-08
1.30393e-08
-1.73272e-08
-1.10556e-08
2.69895e-08
-1.91225e-08
-1.17647e-08
4.24976e-08
-2.19527e-08
-1.29907e-08
6.06709e-08
-2.65228e-08
-1.50695e-08
8.27639e-08
-3.34043e-08
-1.79759e-08
1.10538e-07
-4.34387e-08
-2.18721e-08
1.46416e-07
-5.79237e-08
-2.67142e-08
1.93825e-07
-7.84117e-08
-3.23563e-08
2.56735e-07
-1.07155e-07
-3.69267e-08
3.38472e-07
-1.41401e-07
-3.94517e-08
3.49824e-07
-6.87643e-08
-2.76756e-08
3.75028e-07
-1.45695e-07