/*--------------------------------*- C++ -*----------------------------------*\
| =========                 |                                                 |
| \\      /  F ield         | OpenFOAM: The Open Source CFD Toolbox           |
|  \\    /   O peration     | Version:  2112                                  |
|   \\  /    A nd           | Website:  www.openfoam.com                      |
|    \\/     M anipulation  |                                                 |
\*---------------------------------------------------------------------------*/
FoamFile
{
    version     2.0;
    format      ascii;
    arch        "LSB;label=32;scalar=64";
    class       volVectorField;
    location    "0.1";
    object      U;
}
// * * * * * * * * * * * * * * * * * * * * * * * * * * * * * * * * * * * * * //

dimensions      [0 1 -1 0 0 0 0];

internalField   nonuniform List<vector> 
64906
(
(8.39227e-07 2.38045e-06 -2.9348e-06)
(2.65909e-06 2.55623e-06 -3.09859e-06)
(4.45066e-06 2.74084e-06 -3.23542e-06)
(6.1905e-06 2.9917e-06 -3.43215e-06)
(7.86842e-06 3.32568e-06 -3.69513e-06)
(9.46411e-06 3.74787e-06 -4.02816e-06)
(1.09574e-05 4.26363e-06 -4.43346e-06)
(1.23142e-05 4.88131e-06 -4.91049e-06)
(1.34877e-05 5.6057e-06 -5.45647e-06)
(1.43886e-05 6.45127e-06 -6.06009e-06)
(1.49146e-05 7.39857e-06 -6.70762e-06)
(1.49059e-05 8.4532e-06 -7.36906e-06)
(1.42455e-05 9.5067e-06 -8.01557e-06)
(1.29249e-05 1.05079e-05 -8.61067e-06)
(1.09726e-05 1.13839e-05 -9.12669e-06)
(8.48341e-06 1.20896e-05 -9.53829e-06)
(5.58284e-06 1.25851e-05 -9.82807e-06)
(2.42883e-06 1.28461e-05 -9.98399e-06)
(-8.06475e-07 1.28599e-05 -1.00004e-05)
(-3.94266e-06 1.26263e-05 -9.87753e-06)
(-6.8049e-06 1.21586e-05 -9.62136e-06)
(-9.23564e-06 1.14815e-05 -9.24438e-06)
(-1.11083e-05 1.06352e-05 -8.76441e-06)
(-1.23274e-05 9.66569e-06 -8.20733e-06)
(-1.2865e-05 8.64747e-06 -7.60135e-06)
(-1.27308e-05 7.63254e-06 -6.98375e-06)
(-1.20453e-05 6.73197e-06 -6.38401e-06)
(-1.0972e-05 5.93982e-06 -5.83324e-06)
(-9.61551e-06 5.27772e-06 -5.34602e-06)
(-8.06988e-06 4.73266e-06 -4.9348e-06)
(-6.38621e-06 4.30142e-06 -4.60317e-06)
(-4.60743e-06 3.97563e-06 -4.35173e-06)
(-2.76515e-06 3.73509e-06 -4.17294e-06)
(-8.31508e-07 3.49884e-06 -3.95314e-06)
(1.00081e-06 6.81543e-06 -3.07917e-06)
(3.00398e-06 7.26745e-06 -3.08431e-06)
(4.98107e-06 7.76737e-06 -3.20309e-06)
(6.91333e-06 8.47797e-06 -3.40735e-06)
(8.79959e-06 9.43052e-06 -3.68011e-06)
(1.06116e-05 1.0639e-05 -4.02652e-06)
(1.23311e-05 1.21195e-05 -4.45097e-06)
(1.3923e-05 1.38968e-05 -4.95423e-06)
(1.53434e-05 1.59914e-05 -5.53627e-06)
(1.64787e-05 1.84468e-05 -6.18393e-06)
(1.72131e-05 2.12201e-05 -6.88721e-06)
(1.73009e-05 2.43312e-05 -7.60531e-06)
(1.65707e-05 2.74407e-05 -8.3112e-06)
(1.50447e-05 3.03856e-05 -8.95872e-06)
(1.276e-05 3.29572e-05 -9.5199e-06)
(9.84406e-06 3.50231e-05 -9.96594e-06)
(6.44614e-06 3.64719e-05 -1.02792e-05)
(2.75311e-06 3.7234e-05 -1.04468e-05)
(-1.03525e-06 3.72731e-05 -1.0463e-05)
(-4.7096e-06 3.65895e-05 -1.03281e-05)
(-8.06722e-06 3.52199e-05 -1.0048e-05)
(-1.09212e-05 3.32349e-05 -9.63623e-06)
(-1.31209e-05 3.07476e-05 -9.1107e-06)
(-1.45374e-05 2.78924e-05 -8.50084e-06)
(-1.5134e-05 2.48825e-05 -7.83502e-06)
(-1.48886e-05 2.18835e-05 -7.16041e-06)
(-1.39774e-05 1.92425e-05 -6.50444e-06)
(-1.26502e-05 1.69381e-05 -5.90932e-06)
(-1.10239e-05 1.50195e-05 -5.38571e-06)
(-9.21689e-06 1.34476e-05 -4.94791e-06)
(-7.27918e-06 1.22084e-05 -4.59623e-06)
(-5.26652e-06 1.12805e-05 -4.3304e-06)
(-3.20042e-06 1.06238e-05 -4.17286e-06)
(-1.04268e-06 1.00003e-05 -4.16494e-06)
(1.18811e-06 1.14879e-05 -3.19554e-06)
(3.49923e-06 1.22267e-05 -3.1841e-06)
(5.79618e-06 1.30655e-05 -3.31748e-06)
(8.05551e-06 1.42959e-05 -3.54871e-06)
(1.02873e-05 1.59574e-05 -3.85811e-06)
(1.24642e-05 1.80736e-05 -4.25455e-06)
(1.45774e-05 2.06748e-05 -4.74686e-06)
(1.65957e-05 2.38134e-05 -5.33879e-06)
(1.84902e-05 2.75364e-05 -6.03716e-06)
(2.0104e-05 3.19594e-05 -6.82484e-06)
(2.13088e-05 3.7015e-05 -7.7014e-06)
(2.16395e-05 4.28522e-05 -8.59841e-06)
(2.07907e-05 4.86526e-05 -9.49009e-06)
(1.88868e-05 5.41303e-05 -1.03036e-05)
(1.5987e-05 5.88876e-05 -1.1008e-05)
(1.22883e-05 6.26965e-05 -1.15646e-05)
(7.98303e-06 6.53601e-05 -1.19538e-05)
(3.30977e-06 6.6757e-05 -1.21599e-05)
(-1.48363e-06 6.68236e-05 -1.21766e-05)
(-6.13764e-06 6.55601e-05 -1.20041e-05)
(-1.04011e-05 6.30308e-05 -1.16491e-05)
(-1.40345e-05 5.93582e-05 -1.11277e-05)
(-1.68432e-05 5.47422e-05 -1.046e-05)
(-1.86271e-05 4.94144e-05 -9.68546e-06)
(-1.93271e-05 4.37803e-05 -8.8351e-06)
(-1.88162e-05 3.81298e-05 -7.98333e-06)
(-1.74077e-05 3.32991e-05 -7.15578e-06)
(-1.55724e-05 2.91307e-05 -6.4232e-06)
(-1.34343e-05 2.57043e-05 -5.78617e-06)
(-1.11553e-05 2.29137e-05 -5.26334e-06)
(-8.76927e-06 2.07252e-05 -4.84795e-06)
(-6.33316e-06 1.90989e-05 -4.53592e-06)
(-3.85079e-06 1.79838e-05 -4.35215e-06)
(-1.28811e-06 1.69516e-05 -4.36367e-06)
(1.44662e-06 1.60103e-05 -3.37516e-06)
(4.23004e-06 1.7047e-05 -3.37474e-06)
(7.03974e-06 1.8263e-05 -3.5351e-06)
(9.81785e-06 2.00666e-05 -3.80973e-06)
(1.25946e-05 2.25142e-05 -4.1798e-06)
(1.535e-05 2.56446e-05 -4.65964e-06)
(1.80954e-05 2.95088e-05 -5.26564e-06)
(2.08126e-05 3.42004e-05 -6.00676e-06)
(2.35206e-05 3.9812e-05 -6.90456e-06)
(2.5991e-05 4.6611e-05 -7.93318e-06)
(2.81412e-05 5.45125e-05 -9.12111e-06)
(2.89742e-05 6.41336e-05 -1.03348e-05)
(2.7883e-05 7.35493e-05 -1.15599e-05)
(2.53106e-05 8.2382e-05 -1.26661e-05)
(2.13523e-05 8.99833e-05 -1.36233e-05)
(1.63366e-05 9.60387e-05 -1.43737e-05)
(1.05196e-05 0.000100256 -1.4896e-05)
(4.22188e-06 0.00010246 -1.51696e-05)
(-2.23483e-06 0.000102555 -1.51872e-05)
(-8.51285e-06 0.000100542 -1.49491e-05)
(-1.42865e-05 9.65145e-05 -1.44629e-05)
(-1.92332e-05 9.0651e-05 -1.37498e-05)
(-2.30928e-05 8.32468e-05 -1.28314e-05)
(-2.55304e-05 7.4621e-05 -1.17665e-05)
(-2.6451e-05 6.54351e-05 -1.05849e-05)
(-2.54016e-05 5.60692e-05 -9.41983e-06)
(-2.30063e-05 4.84897e-05 -8.28386e-06)
(-2.02719e-05 4.20474e-05 -7.31512e-06)
(-1.72642e-05 3.68505e-05 -6.48394e-06)
(-1.42153e-05 3.26458e-05 -5.81868e-06)
(-1.11077e-05 2.93651e-05 -5.29756e-06)
(-7.98885e-06 2.69363e-05 -4.9108e-06)
(-4.82707e-06 2.52872e-05 -4.68007e-06)
(-1.63143e-06 2.38171e-05 -4.6725e-06)
(1.81087e-06 2.03914e-05 -3.60807e-06)
(5.25367e-06 2.17591e-05 -3.61622e-06)
(8.78786e-06 2.34089e-05 -3.80938e-06)
(1.23061e-05 2.58701e-05 -4.14101e-06)
(1.58663e-05 2.92261e-05 -4.59243e-06)
(1.94601e-05 3.35382e-05 -5.18532e-06)
(2.31347e-05 3.88839e-05 -5.94813e-06)
(2.69007e-05 4.54119e-05 -6.89708e-06)
(3.09028e-05 5.32783e-05 -8.08321e-06)
(3.48066e-05 6.30327e-05 -9.45936e-06)
(3.88339e-05 7.45963e-05 -1.11316e-05)
(4.06787e-05 9.00787e-05 -1.28153e-05)
(3.90414e-05 0.000104699 -1.45573e-05)
(3.53229e-05 0.000118246 -1.6103e-05)
(2.96455e-05 0.00012976 -1.74416e-05)
(2.25626e-05 0.000138876 -1.84799e-05)
(1.44049e-05 0.000145197 -1.91999e-05)
(5.60868e-06 0.000148486 -1.95733e-05)
(-3.40198e-06 0.000148612 -1.95921e-05)
(-1.21787e-05 0.000145575 -1.92566e-05)
(-2.02928e-05 0.000139504 -1.85752e-05)
(-2.73037e-05 0.000130637 -1.75768e-05)
(-3.28752e-05 0.000119375 -1.62794e-05)
(-3.6441e-05 0.000106088 -1.4778e-05)
(-3.78812e-05 9.17562e-05 -1.30819e-05)
(-3.57639e-05 7.65842e-05 -1.14512e-05)
(-3.14314e-05 6.54579e-05 -9.83361e-06)
(-2.72134e-05 5.61611e-05 -8.52387e-06)
(-2.28374e-05 4.88236e-05 -7.41097e-06)
(-1.86418e-05 4.29172e-05 -6.54673e-06)
(-1.44777e-05 3.83244e-05 -5.87934e-06)
(-1.03689e-05 3.49298e-05 -5.39174e-06)
(-6.22807e-06 3.26337e-05 -5.10167e-06)
(-2.12858e-06 3.06575e-05 -5.07731e-06)
(2.29343e-06 2.45314e-05 -3.89432e-06)
(6.61126e-06 2.62489e-05 -3.91095e-06)
(1.11144e-05 2.83901e-05 -4.14444e-06)
(1.56333e-05 3.1605e-05 -4.54791e-06)
(2.02626e-05 3.60145e-05 -5.10262e-06)
(2.50079e-05 4.17114e-05 -5.83975e-06)
(2.99692e-05 4.88029e-05 -6.80558e-06)
(3.52071e-05 5.74941e-05 -8.02456e-06)
(4.11416e-05 6.80025e-05 -9.60575e-06)
(4.73091e-05 8.1352e-05 -1.14475e-05)
(5.51875e-05 9.72749e-05 -1.38785e-05)
(5.90771e-05 0.000122744 -1.62289e-05)
(5.60504e-05 0.000145053 -1.87376e-05)
(5.03711e-05 0.000165276 -2.08976e-05)
(4.19825e-05 0.000182205 -2.27766e-05)
(3.17742e-05 0.000195526 -2.42144e-05)
(2.01295e-05 0.000204725 -2.52097e-05)
(7.63667e-06 0.000209493 -2.5722e-05)
(-5.14604e-06 0.000209654 -2.57424e-05)
(-1.7621e-05 0.000205205 -2.52712e-05)
(-2.92246e-05 0.000196321 -2.43176e-05)
(-3.93618e-05 0.00018331 -2.29228e-05)
(-4.76412e-05 0.000166687 -2.10879e-05)
(-5.31496e-05 0.000146769 -1.89757e-05)
(-5.59552e-05 0.000124799 -1.65145e-05)
(-5.17003e-05 9.9653e-05 -1.4224e-05)
(-4.34294e-05 8.43393e-05 -1.18486e-05)
(-3.69063e-05 7.15398e-05 -1.00825e-05)
(-3.05081e-05 6.16629e-05 -8.5823e-06)
(-2.47144e-05 5.37154e-05 -7.45915e-06)
(-1.90925e-05 4.75382e-05 -6.60182e-06)
(-1.36242e-05 4.2975e-05 -5.98537e-06)
(-8.14198e-06 3.98993e-05 -5.62107e-06)
(-2.80868e-06 3.73591e-05 -5.57891e-06)
(2.90958e-06 2.83049e-05 -4.22988e-06)
(8.34547e-06 3.03867e-05 -4.25605e-06)
(1.41001e-05 3.30768e-05 -4.53795e-06)
(1.99284e-05 3.71495e-05 -5.02867e-06)
(2.59725e-05 4.27807e-05 -5.70932e-06)
(3.22485e-05 5.01085e-05 -6.62251e-06)
(3.89173e-05 5.92689e-05 -7.83875e-06)
(4.61003e-05 7.04623e-05 -9.38753e-06)
(5.47609e-05 8.39192e-05 -1.14748e-05)
(6.40788e-05 0.000101064 -1.38674e-05)
(8.02269e-05 0.000120623 -1.73877e-05)
(8.84546e-05 0.000165072 -2.04697e-05)
(8.15727e-05 0.000198338 -2.40442e-05)
(7.24746e-05 0.000227711 -2.69861e-05)
(5.98949e-05 0.000252023 -2.95795e-05)
(4.50822e-05 0.000271072 -3.15243e-05)
(2.8372e-05 0.000284203 -3.28722e-05)
(1.05368e-05 0.000290987 -3.35621e-05)
(-7.68945e-06 0.000291187 -3.35845e-05)
(-2.55107e-05 0.000284802 -3.29398e-05)
(-4.21876e-05 0.000272062 -3.16375e-05)
(-5.69379e-05 0.000253388 -2.97398e-05)
(-6.94158e-05 0.000229434 -2.71933e-05)
(-7.83288e-05 0.000200399 -2.43036e-05)
(-8.49949e-05 0.000167503 -2.07765e-05)
(-7.6224e-05 0.000123283 -1.77639e-05)
(-5.95445e-05 0.000104671 -1.42936e-05)
(-4.98898e-05 8.81244e-05 -1.19917e-05)
(-4.06618e-05 7.53755e-05 -9.99402e-06)
(-3.27664e-05 6.50238e-05 -8.55508e-06)
(-2.52147e-05 5.69216e-05 -7.46314e-06)
(-1.79398e-05 5.09365e-05 -6.68915e-06)
(-1.0675e-05 4.69194e-05 -6.23483e-06)
(-3.71023e-06 4.3749e-05 -6.17218e-06)
(3.6722e-06 3.15469e-05 -4.60934e-06)
(1.04956e-05 3.39925e-05 -4.64581e-06)
(1.78263e-05 3.72718e-05 -4.98309e-06)
(2.53347e-05 4.22886e-05 -5.57405e-06)
(3.32214e-05 4.93029e-05 -6.39762e-06)
(4.1496e-05 5.85248e-05 -7.50669e-06)
(5.0323e-05 7.01195e-05 -8.99835e-06)
(5.98574e-05 8.41755e-05 -1.08858e-05)
(7.17434e-05 0.00010068 -1.35552e-05)
(8.40079e-05 0.000121746 -1.63694e-05)
(0.000119162 0.000139022 -2.17019e-05)
(0.000136719 0.000222676 -2.56368e-05)
(0.000118681 0.000270485 -3.0392e-05)
(0.000104055 0.000311485 -3.40321e-05)
(8.53435e-05 0.000345326 -3.73751e-05)
(6.3954e-05 0.000371874 -3.98164e-05)
(4.00435e-05 0.000390222 -4.15309e-05)
(1.46206e-05 0.00039969 -4.24098e-05)
(-1.13303e-05 0.000399939 -4.24345e-05)
(-3.67463e-05 0.000390964 -4.16055e-05)
(-6.06387e-05 0.000373096 -3.99406e-05)
(-8.19888e-05 0.000347002 -3.75508e-05)
(-0.000100629 0.000313574 -3.4256e-05)
(-0.000115073 0.000272915 -3.06723e-05)
(-0.000132998 0.000225491 -2.59576e-05)
(-0.000114499 0.000141742 -2.21139e-05)
(-7.85846e-05 0.000126122 -1.68237e-05)
(-6.62018e-05 0.000105575 -1.41204e-05)
(-5.36086e-05 8.98163e-05 -1.15461e-05)
(-4.31681e-05 7.66569e-05 -9.78449e-06)
(-3.31757e-05 6.62297e-05 -8.43505e-06)
(-2.35463e-05 5.85373e-05 -7.48619e-06)
(-1.3956e-05 5.34094e-05 -6.93147e-06)
(-4.87964e-06 4.9553e-05 -6.84777e-06)
(4.58472e-06 3.40635e-05 -5.02566e-06)
(1.3078e-05 3.68521e-05 -5.07356e-06)
(2.23391e-05 4.07329e-05 -5.47393e-06)
(3.19565e-05 4.67545e-05 -6.18011e-06)
(4.22085e-05 5.53242e-05 -7.16741e-06)
(5.3065e-05 6.68081e-05 -8.50105e-06)
(6.45681e-05 8.15029e-05 -1.03004e-05)
(7.66615e-05 9.90432e-05 -1.25615e-05)
(9.23349e-05 0.000119082 -1.58354e-05)
(0.000102242 0.000140583 -1.90625e-05)
(0.000179442 0.000131298 -2.53589e-05)
(0.000217993 0.000298379 -2.82766e-05)
(0.000170164 0.000361804 -3.40936e-05)
(0.000147299 0.000415628 -3.80539e-05)
(0.000120282 0.000461335 -4.19262e-05)
(8.99776e-05 0.000497442 -4.45804e-05)
(5.61875e-05 0.000522552 -4.64917e-05)
(2.02536e-05 0.000535492 -4.74793e-05)
(-1.64153e-05 0.000535798 -4.75054e-05)
(-5.23525e-05 0.000523466 -4.65704e-05)
(-8.61493e-05 0.000498948 -4.4711e-05)
(-0.000116459 0.000463401 -4.21114e-05)
(-0.000143486 0.000418184 -3.82873e-05)
(-0.000166193 0.000364726 -3.43868e-05)
(-0.000214247 0.000301666 -2.86097e-05)
(-0.000173907 0.000133537 -2.57861e-05)
(-9.55709e-05 0.000145733 -1.95207e-05)
(-8.62028e-05 0.000124642 -1.64365e-05)
(-6.95809e-05 0.00010535 -1.32678e-05)
(-5.63527e-05 8.87063e-05 -1.11563e-05)
(-4.33295e-05 7.52433e-05 -9.52175e-06)
(-3.06687e-05 6.54418e-05 -8.37265e-06)
(-1.80983e-05 5.90048e-05 -7.70377e-06)
(-6.34981e-06 5.44127e-05 -7.59646e-06)
(5.64445e-06 3.5632e-05 -5.46771e-06)
(1.60888e-05 3.86954e-05 -5.52618e-06)
(2.76667e-05 4.31006e-05 -5.99212e-06)
(3.99227e-05 5.00415e-05 -6.81682e-06)
(5.32748e-05 6.01244e-05 -7.96164e-06)
(6.76745e-05 7.40011e-05 -9.4848e-06)
(8.25588e-05 9.21944e-05 -1.14835e-05)
(9.74558e-05 0.000113885 -1.37755e-05)
(0.000113478 0.000134438 -1.74012e-05)
(9.27781e-05 0.0001282 -2.02972e-05)
(0.000235462 0.0001028 -3.01539e-05)
(0.000329371 0.000453575 -3.1027e-05)
(0.000231873 0.000501238 -3.49342e-05)
(0.000203355 0.000549335 -3.59548e-05)
(0.000167148 0.000603022 -3.83997e-05)
(0.000125169 0.000648966 -4.00854e-05)
(7.8093e-05 0.000681824 -4.15467e-05)
(2.78662e-05 0.000698861 -4.23612e-05)
(-2.33562e-05 0.000699233 -4.23856e-05)
(-7.35949e-05 0.000682937 -4.162e-05)
(-0.000120702 0.000650808 -4.02053e-05)
(-0.000162744 0.000605553 -3.85686e-05)
(-0.000199073 0.000552454 -3.61564e-05)
(-0.000227534 0.000504671 -3.51899e-05)
(-0.00032643 0.000456269 -3.12901e-05)
(-0.000229577 0.000104398 -3.06116e-05)
(-8.47835e-05 0.000135717 -2.07674e-05)
(-0.000106856 0.000141587 -1.80415e-05)
(-8.95678e-05 0.000120981 -1.45326e-05)
(-7.32758e-05 9.99252e-05 -1.24141e-05)
(-5.64347e-05 8.29404e-05 -1.06024e-05)
(-3.96836e-05 7.08417e-05 -9.28881e-06)
(-2.3261e-05 6.30791e-05 -8.51772e-06)
(-8.17605e-06 5.78122e-05 -8.39509e-06)
(6.80854e-06 3.60557e-05 -5.92514e-06)
(1.94167e-05 3.92866e-05 -5.99646e-06)
(3.36201e-05 4.40688e-05 -6.53711e-06)
(4.89769e-05 5.17593e-05 -7.50221e-06)
(6.61679e-05 6.3326e-05 -8.84387e-06)
(8.51353e-05 8.02718e-05 -1.0653e-05)
(0.000104464 0.000105167 -1.29603e-05)
(0.000119276 0.000142677 -1.57966e-05)
(0.000113641 0.000199509 -1.83118e-05)
(8.67189e-05 0.000249731 -2.13699e-05)
(0.000144041 0.000430685 -2.75624e-06)
(0.000223312 0.000529785 5.65932e-06)
(0.000246932 0.000612217 1.03733e-05)
(0.000219837 0.000688638 1.40837e-05)
(0.000168778 0.000748753 1.62024e-05)
(0.000106084 0.000789919 1.74914e-05)
(3.7664e-05 0.000810807 1.80302e-05)
(-3.23399e-05 0.000811222 1.80278e-05)
(-0.000100779 0.00079117 1.74845e-05)
(-0.000163532 0.000750855 1.61923e-05)
(-0.000214737 0.000691616 1.40685e-05)
(-0.000242211 0.000616135 1.03561e-05)
(-0.000219657 0.000534737 5.64531e-06)
(-0.000141908 0.000436174 -2.75391e-06)
(-8.42032e-05 0.000255761 -2.19074e-05)
(-0.000108705 0.000206231 -1.89506e-05)
(-0.000111653 0.000149645 -1.65796e-05)
(-9.44071e-05 0.000112921 -1.39449e-05)
(-7.24074e-05 8.93229e-05 -1.18611e-05)
(-5.04216e-05 7.42446e-05 -1.02917e-05)
(-2.9288e-05 6.51196e-05 -9.38604e-06)
(-1.02768e-05 5.92789e-05 -9.23621e-06)
(8.03958e-06 3.51632e-05 -6.37935e-06)
(2.2954e-05 3.83706e-05 -6.46025e-06)
(4.00733e-05 4.31676e-05 -7.06961e-06)
(5.91763e-05 5.09203e-05 -8.15905e-06)
(8.17867e-05 6.26726e-05 -9.65165e-06)
(0.000109514 8.01043e-05 -1.16194e-05)
(0.000144994 0.000106315 -1.39082e-05)
(0.00019341 0.000147117 -1.65665e-05)
(0.000260662 0.000213427 -1.74418e-05)
(0.000398256 0.000300094 -1.86182e-05)
(0.000415571 9.9463e-05 -1.12991e-05)
(0.000346665 0.000254784 -2.86125e-07)
(0.00039611 0.000421704 4.2524e-05)
(0.000361455 0.000532901 6.46137e-05)
(0.000303606 0.000618919 8.16679e-05)
(0.000226415 0.000681197 9.13785e-05)
(0.000140128 0.000722229 9.71167e-05)
(4.91647e-05 0.000742681 9.96258e-05)
(-4.29887e-05 0.000743076 9.96436e-05)
(-0.000133945 0.000723421 9.71718e-05)
(-0.000220221 0.000683212 9.14777e-05)
(-0.000297386 0.000621818 8.18192e-05)
(-0.000355177 0.00053682 6.4839e-05)
(-0.000389594 0.000426916 4.28303e-05)
(-0.000338626 0.000261531 1.38911e-07)
(-0.000409152 0.000101186 -1.1159e-05)
(-0.000393617 0.000303456 -1.88713e-05)
(-0.000253649 0.000218621 -1.79697e-05)
(-0.000184515 0.00015339 -1.73597e-05)
(-0.000133629 0.000113696 -1.49462e-05)
(-9.5104e-05 8.88834e-05 -1.29169e-05)
(-6.37747e-05 7.33488e-05 -1.12174e-05)
(-3.63237e-05 6.40421e-05 -1.02256e-05)
(-1.26906e-05 5.81704e-05 -1.00715e-05)
(9.20655e-06 3.29258e-05 -6.8168e-06)
(2.63e-05 3.59027e-05 -6.91126e-06)
(4.61054e-05 4.0312e-05 -7.59827e-06)
(6.84782e-05 4.73427e-05 -8.83595e-06)
(9.53515e-05 5.77385e-05 -1.05513e-05)
(0.00012878 7.24633e-05 -1.28543e-05)
(0.000171541 9.27878e-05 -1.56545e-05)
(0.000228145 0.000119664 -1.90023e-05)
(0.000301405 0.00015265 -2.11668e-05)
(0.00041427 0.000184381 -2.31307e-05)
(0.000466903 0.000141368 -1.29911e-05)
(0.00048113 0.00024778 1.45556e-06)
(0.000495757 0.000338679 4.64583e-05)
(0.000443769 0.000418142 7.08993e-05)
(0.00036809 0.000484102 8.97696e-05)
(0.000272064 0.000533369 0.000100545)
(0.000167553 0.000566366 0.000106867)
(5.85054e-05 0.000582956 0.000109606)
(-5.1596e-05 0.000583298 0.000109624)
(-0.000160629 0.000567394 0.000106921)
(-0.000265112 0.000535091 0.000100643)
(-0.000361087 0.000486527 8.99182e-05)
(-0.000436704 0.000421273 7.112e-05)
(-0.000488567 0.000342462 4.67339e-05)
(-0.000473425 0.000251971 1.81605e-06)
(-0.000459906 0.000143951 -1.2874e-05)
(-0.000407859 0.000188701 -2.33315e-05)
(-0.000293623 0.000157706 -2.16855e-05)
(-0.000218339 0.000125545 -1.98134e-05)
(-0.000158978 9.96835e-05 -1.67471e-05)
(-0.00011275 8.06906e-05 -1.42381e-05)
(-7.51529e-05 6.7761e-05 -1.22321e-05)
(-4.25938e-05 5.96636e-05 -1.10795e-05)
(-1.48604e-05 5.43773e-05 -1.08922e-05)
(1.02557e-05 2.94757e-05 -7.21597e-06)
(2.92923e-05 3.20841e-05 -7.32126e-06)
(5.14531e-05 3.58854e-05 -8.07459e-06)
(7.65993e-05 4.18704e-05 -9.43512e-06)
(0.000106907 5.05462e-05 -1.13244e-05)
(0.000144563 6.24848e-05 -1.38575e-05)
(0.000192201 7.82776e-05 -1.69533e-05)
(0.00025347 9.82075e-05 -2.05476e-05)
(0.000329015 0.000121398 -2.31184e-05)
(0.000424845 0.000145376 -2.44656e-05)
(0.000498361 0.00014625 -1.61561e-05)
(0.00055402 0.000202948 -2.19521e-06)
(0.000566823 0.000264466 4.4696e-05)
(0.00050694 0.00032242 7.05016e-05)
(0.000418864 0.000371944 9.03999e-05)
(0.000308695 0.000409893 0.000101485)
(0.00018972 0.000435599 0.000107944)
(6.60976e-05 0.000448625 0.000110704)
(-5.85514e-05 0.000448921 0.000110719)
(-0.000182158 0.000436488 0.00010799)
(-0.000301105 0.00041137 0.00010157)
(-0.000411235 0.000373998 9.05324e-05)
(-0.0004993 0.000325023 7.07089e-05)
(-0.000559176 0.000267537 4.49604e-05)
(-0.000546462 0.00020636 -1.8064e-06)
(-0.000491225 0.000149278 -1.60453e-05)
(-0.000417576 0.000149167 -2.46694e-05)
(-0.000320437 0.000125856 -2.36545e-05)
(-0.000242735 0.00010345 -2.13952e-05)
(-0.00017849 8.44572e-05 -1.81056e-05)
(-0.000127021 6.98764e-05 -1.53253e-05)
(-8.46996e-05 5.95448e-05 -1.31136e-05)
(-4.79662e-05 5.29045e-05 -1.18415e-05)
(-1.67481e-05 4.84157e-05 -1.16341e-05)
(1.11291e-05 2.49987e-05 -7.56399e-06)
(3.17738e-05 2.71392e-05 -7.67973e-06)
(5.58381e-05 3.01921e-05 -8.49204e-06)
(8.3136e-05 3.49375e-05 -9.96234e-06)
(0.000115966 4.16912e-05 -1.20122e-05)
(0.000156511 5.07604e-05 -1.47708e-05)
(0.000207264 6.23909e-05 -1.81873e-05)
(0.000271277 7.6661e-05 -2.21669e-05)
(0.000348774 9.29193e-05 -2.53452e-05)
(0.000441008 0.000110842 -2.69952e-05)
(0.000525366 0.000124127 -1.95445e-05)
(0.000599979 0.000159102 -5.65478e-06)
(0.000615315 0.000200154 4.14666e-05)
(0.000551302 0.000239964 6.72933e-05)
(0.000455599 0.000274968 8.71539e-05)
(0.000335746 0.000302402 9.80497e-05)
(0.000206301 0.000321247 0.000104349)
(7.18333e-05 0.000330893 0.000107008)
(-6.37375e-05 0.000331153 0.00010702)
(-0.000198195 0.000322024 0.000104385)
(-0.000327629 0.000303681 9.81188e-05)
(-0.000447471 0.000276723 8.72643e-05)
(-0.000543221 0.000242155 6.74748e-05)
(-0.000607311 0.00020271 4.16995e-05)
(-0.000592283 0.000161943 -5.28992e-06)
(-0.000517962 0.00012703 -1.94624e-05)
(-0.000433156 0.000114225 -2.72089e-05)
(-0.00033954 9.68233e-05 -2.59066e-05)
(-0.00025975 8.12001e-05 -2.3053e-05)
(-0.000192551 6.7716e-05 -1.93968e-05)
(-0.000137657 5.7103e-05 -1.63157e-05)
(-9.2035e-05 4.93723e-05 -1.38993e-05)
(-5.21775e-05 4.42986e-05 -1.25123e-05)
(-1.82366e-05 4.07366e-05 -1.22809e-05)
(1.18082e-05 1.97307e-05 -7.84768e-06)
(3.36954e-05 2.13526e-05 -7.97123e-06)
(5.92064e-05 2.36103e-05 -8.82876e-06)
(8.8096e-05 2.70867e-05 -1.03822e-05)
(0.00012273 3.19748e-05 -1.2551e-05)
(0.000165263 3.84427e-05 -1.54716e-05)
(0.000218102 4.66061e-05 -1.91092e-05)
(0.000283999 5.65144e-05 -2.33464e-05)
(0.000363203 6.7875e-05 -2.68942e-05)
(0.000456121 8.09125e-05 -2.87972e-05)
(0.00054666 9.4322e-05 -2.20038e-05)
(0.000630093 0.000116974 -8.37028e-06)
(0.000647735 0.000143536 3.88806e-05)
(0.000581802 0.000169948 6.46772e-05)
(0.000481336 0.000193547 8.44904e-05)
(0.000354997 0.000212347 9.52512e-05)
(0.000218223 0.000225401 0.00010144)
(7.60075e-05 0.00023215 0.00010403)
(-6.74243e-05 0.000232386 0.000104038)
(-0.000209642 0.0002261 0.000101468)
(-0.000346429 0.000213488 9.53088e-05)
(-0.000472794 0.000195095 8.45849e-05)
(-0.000573362 0.000171855 6.484e-05)
(-0.000639438 0.000145737 3.90912e-05)
(-0.000622186 0.000119408 -8.0262e-06)
(-0.000538981 9.6919e-05 -2.19482e-05)
(-0.000447851 8.38328e-05 -2.90356e-05)
(-0.000353469 7.11685e-05 -2.74875e-05)
(-0.000271843 6.0279e-05 -2.4273e-05)
(-0.000202586 5.09655e-05 -2.03717e-05)
(-0.00014536 4.35757e-05 -1.7084e-05)
(-9.74294e-05 3.81228e-05 -1.45216e-05)
(-5.53097e-05 3.45008e-05 -1.30509e-05)
(-1.93518e-05 3.18681e-05 -1.28029e-05)
(1.22818e-05 1.39055e-05 -8.0594e-06)
(3.50332e-05 1.49816e-05 -8.1886e-06)
(6.15371e-05 1.64303e-05 -9.07833e-06)
(9.14987e-05 1.8646e-05 -1.06907e-05)
(0.000127321 2.17381e-05 -1.2944e-05)
(0.000171142 2.57967e-05 -1.598e-05)
(0.000225336 3.08863e-05 -1.97746e-05)
(0.000292546 3.70608e-05 -2.42023e-05)
(0.000373172 4.42497e-05 -2.80064e-05)
(0.000467457 5.27452e-05 -3.01365e-05)
(0.000561429 6.23043e-05 -2.36767e-05)
(0.000649207 7.59434e-05 -1.02229e-05)
(0.00066832 9.17728e-05 3.71431e-05)
(0.000601347 0.000107583 6.29075e-05)
(0.000498021 0.000121832 8.26721e-05)
(0.000367617 0.000133304 9.33455e-05)
(0.000226114 0.000141345 9.94634e-05)
(7.88218e-05 0.00014556 0.000102011)
(-6.97915e-05 0.000145782 0.000102018)
(-0.000217103 0.000142002 9.9487e-05)
(-0.00035865 0.000134365 9.33942e-05)
(-0.000489129 0.000123253 8.27542e-05)
(-0.000592614 0.000109301 6.30542e-05)
(-0.000659789 9.37217e-05 3.7334e-05)
(-0.000641114 7.80621e-05 -9.90055e-06)
(-0.00055354 6.45538e-05 -2.36479e-05)
(-0.000458908 5.51839e-05 -3.04023e-05)
(-0.000363094 4.69123e-05 -2.86319e-05)
(-0.000279953 4.00121e-05 -2.51666e-05)
(-0.000209254 3.42118e-05 -2.10828e-05)
(-0.000150497 2.96167e-05 -1.76478e-05)
(-0.000101053 2.6212e-05 -1.49811e-05)
(-5.74271e-05 2.39361e-05 -1.34506e-05)
(-2.01067e-05 2.22188e-05 -1.31903e-05)
(1.25488e-05 7.75399e-06 -8.19379e-06)
(3.57875e-05 8.27381e-06 -8.32609e-06)
(6.28466e-05 8.91739e-06 -9.23406e-06)
(9.34025e-05 9.89604e-06 -1.08796e-05)
(0.00012988 1.12588e-05 -1.31797e-05)
(0.000174411 1.30475e-05 -1.62792e-05)
(0.000229366 1.53016e-05 -2.01588e-05)
(0.000297362 1.80675e-05 -2.46902e-05)
(0.000378888 2.13668e-05 -2.86283e-05)
(0.000474175 2.53444e-05 -3.08877e-05)
(0.000569859 2.99987e-05 -2.45901e-05)
(0.000659567 3.60536e-05 -1.12321e-05)
(0.000679392 4.29171e-05 3.62411e-05)
(0.000611883 4.97311e-05 6.20173e-05)
(0.000507072 5.58829e-05 8.17793e-05)
(0.000374521 6.0879e-05 9.24243e-05)
(0.000230485 6.44323e-05 9.85163e-05)
(8.0446e-05 6.63619e-05 0.000101047)
(-7.09847e-05 6.65836e-05 0.000101053)
(-0.000221065 6.50847e-05 9.85355e-05)
(-0.000365189 6.1924e-05 9.24654e-05)
(-0.000497873 5.726e-05 8.18506e-05)
(-0.000602914 5.1361e-05 6.21493e-05)
(-0.000670695 4.47143e-05 3.64132e-05)
(-0.000651361 3.79382e-05 -1.09351e-05)
(-0.000561859 3.19265e-05 -2.45896e-05)
(-0.000465492 2.73238e-05 -3.11832e-05)
(-0.00036864 2.34073e-05 -2.92855e-05)
(-0.000284543 2.01987e-05 -2.56885e-05)
(-0.000212981 1.75657e-05 -2.15045e-05)
(-0.000153358 1.55044e-05 -1.79893e-05)
(-0.000103071 1.39863e-05 -1.52648e-05)
(-5.86091e-05 1.29707e-05 -1.37011e-05)
(-2.05279e-05 1.21462e-05 -1.34342e-05)
(1.26094e-05 1.49365e-06 -8.24879e-06)
(3.59611e-05 1.45506e-06 -8.38171e-06)
(6.31466e-05 1.29729e-06 -9.29421e-06)
(9.38394e-05 1.05017e-06 -1.09479e-05)
(0.000130473 7.08685e-07 -1.32592e-05)
(0.000175185 2.74347e-07 -1.63737e-05)
(0.000230355 -2.33312e-07 -2.02728e-05)
(0.000298611 -7.79953e-07 -2.48286e-05)
(0.000380449 -1.29036e-06 -2.87954e-05)
(0.000476088 -1.78615e-06 -3.10841e-05)
(0.000572139 -2.21166e-06 -2.4808e-05)
(0.000662127 -3.25836e-06 -1.14553e-05)
(0.000682005 -4.7447e-06 3.60698e-05)
(0.000614321 -6.35997e-06 6.18732e-05)
(0.000509175 -7.85134e-06 8.1654e-05)
(0.000376171 -9.00882e-06 9.23071e-05)
(0.0002316 -9.73658e-06 9.8402e-05)
(8.09742e-05 -9.98513e-06 0.000100933)
(-7.10699e-05 -9.7478e-06 0.000100937)
(-0.000221765 -9.0407e-06 9.84162e-05)
(-0.00036648 -7.90391e-06 9.23397e-05)
(-0.000499698 -6.41682e-06 8.17131e-05)
(-0.000605168 -4.7031e-06 6.19884e-05)
(-0.00067322 -2.9816e-06 3.62205e-05)
(-0.000653904 -1.50581e-06 -1.11882e-05)
(-0.000564154 -5.36678e-07 -2.48397e-05)
(-0.000467427 -2.09868e-07 -3.14118e-05)
(-0.000370219 1.7056e-07 -2.94839e-05)
(-0.000285794 5.60546e-07 -2.58569e-05)
(-0.000213948 9.8462e-07 -2.16476e-05)
(-0.000154075 1.36956e-06 -1.81125e-05)
(-0.000103566 1.67929e-06 -1.53733e-05)
(-5.88968e-05 1.89015e-06 -1.3801e-05)
(-2.06283e-05 1.94756e-06 -1.35326e-05)
(1.24644e-05 -4.6541e-06 -8.22422e-06)
(3.55563e-05 -5.24676e-06 -8.35555e-06)
(6.24406e-05 -6.20559e-06 -9.25913e-06)
(9.28139e-05 -7.68355e-06 -1.08961e-05)
(0.000129104 -9.74628e-06 -1.31832e-05)
(0.000173469 -1.2441e-05 -1.62648e-05)
(0.000228312 -1.57738e-05 -2.01188e-05)
(0.000296305 -1.97155e-05 -2.46206e-05)
(0.000377881 -2.40914e-05 -2.85126e-05)
(0.000473253 -2.90352e-05 -3.0733e-05)
(0.000568386 -3.42233e-05 -2.43425e-05)
(0.000657034 -4.2499e-05 -1.09063e-05)
(0.000676289 -5.26708e-05 3.66077e-05)
(0.000608774 -6.30339e-05 6.24493e-05)
(0.000504422 -7.24235e-05 8.22659e-05)
(0.000372635 -7.98944e-05 9.29602e-05)
(0.000229509 -8.4989e-05 9.90846e-05)
(8.04347e-05 -8.74424e-05 0.000101631)
(-7.00403e-05 -8.71688e-05 0.000101632)
(-0.00021922 -8.41882e-05 9.9092e-05)
(-0.000362564 -7.86296e-05 9.29813e-05)
(-0.000494671 -7.0798e-05 8.23088e-05)
(-0.000599477 -6.11949e-05 6.25425e-05)
(-0.000667497 -5.07814e-05 3.67311e-05)
(-0.000648915 -4.07368e-05 -1.06773e-05)
(-0.000560563 -3.2693e-05 -2.44133e-05)
(-0.000464784 -2.77691e-05 -3.10977e-05)
(-0.00036787 -2.31317e-05 -2.92342e-05)
(-0.000283729 -1.90986e-05 -2.56767e-05)
(-0.000212172 -1.55435e-05 -2.15156e-05)
(-0.000152663 -1.26544e-05 -1.80198e-05)
(-0.000102549 -1.04818e-05 -1.53081e-05)
(-5.82974e-05 -9.02713e-06 -1.37515e-05)
(-2.04107e-05 -8.08639e-06 -1.34863e-05)
(1.21142e-05 -1.04668e-05 -8.12347e-06)
(3.45718e-05 -1.16011e-05 -8.25068e-06)
(6.07202e-05 -1.3361e-05 -9.13162e-06)
(9.02994e-05 -1.60877e-05 -1.07265e-05)
(0.000125715 -1.99302e-05 -1.29528e-05)
(0.000169157 -2.5015e-05 -1.59504e-05)
(0.000223081 -3.14022e-05 -1.96887e-05)
(0.000290293 -3.9058e-05 -2.40516e-05)
(0.000371129 -4.75777e-05 -2.77516e-05)
(0.000465956 -5.69483e-05 -2.98115e-05)
(0.000558674 -6.57368e-05 -2.31544e-05)
(0.000643677 -8.21245e-05 -9.55413e-06)
(0.000661459 -0.000102417 3.79068e-05)
(0.000594556 -0.000122866 6.38176e-05)
(0.000492306 -0.000141194 8.37038e-05)
(0.000363599 -0.000155657 9.44897e-05)
(0.000224049 -0.000165511 0.000100681)
(7.87932e-05 -0.000170332 0.000103264)
(-6.78145e-05 -0.000169995 0.000103262)
(-0.000213223 -0.000164523 0.000100678)
(-0.000353083 -0.000154096 9.44931e-05)
(-0.000482255 -0.000139191 8.3723e-05)
(-0.000585139 -0.000120624 6.38796e-05)
(-0.000652751 -0.000100169 3.79935e-05)
(-0.000635813 -8.01521e-05 -9.37538e-06)
(-0.000551186 -6.42072e-05 -2.32757e-05)
(-0.000457865 -5.58606e-05 -3.02216e-05)
(-0.000361548 -4.70015e-05 -2.85113e-05)
(-0.000278206 -3.90572e-05 -2.51358e-05)
(-0.000207504 -3.20569e-05 -2.11026e-05)
(-0.000149014 -2.64326e-05 -1.7711e-05)
(-9.99564e-05 -2.22597e-05 -1.5072e-05)
(-5.67799e-05 -1.94923e-05 -1.35567e-05)
(-1.98656e-05 -1.76548e-05 -1.33002e-05)
(1.15611e-05 -1.57189e-05 -7.9523e-06)
(3.3011e-05 -1.7365e-05 -8.07344e-06)
(5.79752e-05 -1.99068e-05 -8.91934e-06)
(8.6246e-05 -2.38812e-05 -1.0449e-05)
(0.000120177 -2.95594e-05 -1.25814e-05)
(0.000161997 -3.7209e-05 -1.54507e-05)
(0.000214269 -4.70273e-05 -1.90125e-05)
(0.00028013 -5.90271e-05 -2.31736e-05)
(0.000359991 -7.24575e-05 -2.65775e-05)
(0.000455092 -8.66879e-05 -2.84607e-05)
(0.000543207 -9.51473e-05 -2.12355e-05)
(0.000620345 -0.000121795 -7.38177e-06)
(0.000635526 -0.00015562 3.99462e-05)
(0.000569971 -0.00018866 6.59017e-05)
(0.000471613 -0.000217743 8.5833e-05)
(0.000348306 -0.000240293 9.67418e-05)
(0.000214826 -0.000255522 0.000103028)
(7.59479e-05 -0.000262966 0.000105667)
(-6.42285e-05 -0.00026253 0.000105659)
(-0.000203314 -0.000254239 0.000103009)
(-0.00033722 -0.000238253 9.67191e-05)
(-0.000461183 -0.000215103 8.58186e-05)
(-0.00056043 -0.0001857 6.59208e-05)
(-0.000627003 -0.000152667 3.99865e-05)
(-0.000612945 -0.000119322 -7.26544e-06)
(-0.000536269 -9.34554e-05 -2.14224e-05)
(-0.000447577 -8.56025e-05 -2.8929e-05)
(-0.000351066 -7.2102e-05 -2.73848e-05)
(-0.000268784 -5.94917e-05 -2.42902e-05)
(-0.000199548 -4.84198e-05 -2.04419e-05)
(-0.000142868 -3.96756e-05 -1.7209e-05)
(-9.56446e-05 -3.33087e-05 -1.46815e-05)