/*--------------------------------*- C++ -*----------------------------------*\
| =========                 |                                                 |
| \\      /  F ield         | OpenFOAM: The Open Source CFD Toolbox           |
|  \\    /   O peration     | Version:  2112                                  |
|   \\  /    A nd           | Website:  www.openfoam.com                      |
|    \\/     M anipulation  |                                                 |
\*---------------------------------------------------------------------------*/
FoamFile
{
    version     2.0;
    format      ascii;
    arch        "LSB;label=32;scalar=64";
    class       volScalarField;
    location    "0.7";
    object      epsilon;
}
// * * * * * * * * * * * * * * * * * * * * * * * * * * * * * * * * * * * * * //

dimensions      [0 2 -3 0 0 0 0];

internalField   nonuniform List<scalar> 
64906
(
0.0203049
0.0207281
0.0208282
0.0208412
0.0208424
0.0208426
0.0208428
0.0208429
0.0208432
0.0208434
0.0208436
0.0208437
0.0208439
0.020844
0.0208441
0.0208441
0.0208441
0.0208441
0.0208441
0.0208441
0.0208441
0.020844
0.020844
0.0208439
0.0208437
0.0208435
0.0208433
0.0208431
0.020843
0.0208427
0.0208416
0.0208286
0.0207284
0.0203052
0.0207282
0.0261462
0.0274986
0.0277086
0.0277324
0.0277346
0.027735
0.0277354
0.0277358
0.0277363
0.0277368
0.0277372
0.0277377
0.027738
0.0277383
0.0277386
0.0277387
0.0277388
0.0277388
0.0277388
0.0277386
0.0277384
0.0277381
0.0277377
0.0277373
0.0277369
0.0277364
0.027736
0.0277355
0.0277333
0.0277094
0.0274994
0.026147
0.0207286
0.0208285
0.027499
0.0293416
0.029657
0.0296967
0.0297008
0.0297016
0.0297022
0.029703
0.0297039
0.0297049
0.029706
0.029707
0.0297078
0.0297086
0.0297092
0.0297096
0.0297098
0.0297098
0.0297096
0.0297093
0.0297087
0.029708
0.0297071
0.0297062
0.0297052
0.0297042
0.0297034
0.0297025
0.0296983
0.0296584
0.029343
0.0275001
0.0208291
0.0208417
0.0277092
0.0296572
0.0299995
0.030044
0.0300488
0.0300498
0.0300507
0.0300519
0.0300532
0.0300547
0.0300564
0.0300579
0.0300593
0.0300605
0.0300614
0.0300621
0.0300624
0.0300624
0.0300621
0.0300615
0.0300606
0.0300595
0.0300581
0.0300566
0.030055
0.0300536
0.0300523
0.030051
0.030046
0.0300014
0.0296589
0.0277107
0.0208424
0.0208429
0.0277332
0.0296971
0.0300441
0.0300895
0.0300946
0.0300959
0.0300971
0.0300986
0.0301004
0.0301025
0.0301051
0.0301074
0.0301095
0.0301112
0.0301125
0.0301134
0.0301139
0.0301139
0.0301135
0.0301126
0.0301114
0.0301097
0.0301077
0.0301054
0.0301028
0.0301008
0.0300991
0.0300975
0.030092
0.0300464
0.0296991
0.0277349
0.0208438
0.0208432
0.0277354
0.0297012
0.0300489
0.0300947
0.0300999
0.0301015
0.0301031
0.0301049
0.0301064
0.0301076
0.0301129
0.030117
0.0301201
0.0301226
0.0301244
0.0301257
0.0301263
0.0301263
0.0301258
0.0301246
0.0301228
0.0301203
0.0301172
0.0301132
0.0301079
0.0301069
0.0301055
0.0301035
0.0300977
0.0300517
0.0297036
0.0277374
0.0208443
0.0208435
0.0277358
0.029702
0.0300499
0.0300959
0.0301014
0.0301033
0.030105
0.0301049
0.030097
0.0300812
0.0301034
0.0301168
0.0301229
0.0301269
0.0301292
0.0301308
0.0301317
0.0301317
0.0301309
0.0301294
0.0301271
0.0301232
0.0301171
0.0301037
0.0300816
0.0300975
0.0301055
0.0301055
0.0300996
0.0300532
0.0297048
0.0277381
0.0208447
0.0208437
0.0277361
0.0297026
0.0300508
0.0300969
0.0301028
0.0301047
0.0301036
0.0300834
0.0299952
0.0298319
0.0299877
0.0300694
0.0300927
0.0301007
0.0301035
0.0301052
0.0301062
0.0301062
0.0301053
0.0301037
0.030101
0.0300931
0.0300698
0.0299881
0.0298323
0.0299957
0.030084
0.0301041
0.0301011
0.0300546
0.0297059
0.0277387
0.0208451
0.0208439
0.0277364
0.0297032
0.0300517
0.0300981
0.0301042
0.030104
0.0300827
0.0299402
0.0293625
0.0282443
0.0292935
0.029796
0.0299155
0.0299393
0.0299434
0.0299452
0.0299464
0.0299464
0.0299454
0.0299436
0.0299396
0.0299159
0.0297965
0.029294
0.0282446
0.029363
0.0299409
0.0300833
0.0301005
0.0300561
0.0297071
0.0277394
0.0208455
0.0208441
0.0277367
0.0297039
0.0300526
0.0300994
0.0301049
0.0300951
0.0299939
0.0293632
0.026747
0.0217468
0.0265628
0.0288557
0.0293548
0.0294309
0.0294423
0.0294453
0.0294466
0.0294466
0.0294454
0.0294425
0.0294312
0.0293552
0.0288563
0.0265636
0.0217467
0.0267475
0.029364
0.0299945
0.0300916
0.0300568
0.0297082
0.0277399
0.0208459
0.0208442
0.0277369
0.0297045
0.0300536
0.0301007
0.030105
0.0300785
0.029833
0.0282561
0.0217563
0.0216471
0.0273008
0.0285323
0.0287043
0.028722
0.0287237
0.0287242
0.0287243
0.0287238
0.0287221
0.0287045
0.0285326
0.0273014
0.0216476
0.0217567
0.0282568
0.0298337
0.030075
0.0300569
0.0297093
0.0277404
0.0208461
0.0208442
0.0277371
0.0297051
0.0300547
0.0301023
0.030109
0.030101
0.0300012
0.0293684
0.0267382
0.0217445
0.0264881
0.0287821
0.029277
0.0293507
0.0293489
0.0293447
0.0293433
0.0293433
0.0293447
0.0293488
0.0293506
0.0292769
0.028782
0.0264878
0.0217439
0.0267376
0.0293686
0.0300016
0.0300973
0.0300608
0.0297106
0.0277407
0.0208463
0.0208442
0.0277372
0.0297056
0.0300556
0.0301037
0.030112
0.0301147
0.0300966
0.0299547
0.0293695
0.0282254
0.0292122
0.0296505
0.0297365
0.0297441
0.0297369
0.0297322
0.0297304
0.0297303
0.0297321
0.0297368
0.0297439
0.0297361
0.0296501
0.0292116
0.0282243
0.029369
0.0299548
0.0300969
0.030111
0.0300635
0.0297117
0.0277408
0.0208463
0.0208442
0.0277372
0.029706
0.0300563
0.0301048
0.0301137
0.0301196
0.0301232
0.0301062
0.0300148
0.0298234
0.0299066
0.0298889
0.0298658
0.029853
0.0298447
0.02984
0.0298379
0.0298378
0.0298398
0.0298445
0.0298527
0.0298654
0.0298883
0.0299054
0.0298226
0.0300144
0.0301063
0.0301234
0.0301157
0.0300652
0.0297125
0.0277409
0.0208462
0.0208441
0.0277372
0.0297064
0.0300569
0.0301057
0.0301149
0.0301216
0.0301292
0.0301339
0.0301247
0.0300817
0.0300304
0.0299335
0.0298904
0.0298729
0.0298637
0.0298582
0.0298553
0.0298552
0.0298579
0.0298634
0.0298725
0.0298899
0.0299329
0.0300293
0.030081
0.0301244
0.030134
0.0301293
0.0301177
0.0300663
0.0297131
0.027741
0.020846
0.0208439
0.0277372
0.0297066
0.0300574
0.0301064
0.0301158
0.0301228
0.0301311
0.0301389
0.0301405
0.0301161
0.0300496
0.0299408
0.0298949
0.0298762
0.0298661
0.0298595
0.0298557
0.0298556
0.0298592
0.0298656
0.0298757
0.0298943
0.0299402
0.0300485
0.0301154
0.0301402
0.030139
0.0301312
0.0301189
0.0300671
0.0297136
0.027741
0.0208458
0.0208438
0.0277371
0.0297068
0.0300578
0.0301069
0.0301165
0.0301236
0.0301322
0.0301405
0.0301435
0.0301213
0.0300537
0.0299426
0.0298962
0.029877
0.0298662
0.0298587
0.0298539
0.0298537
0.0298583
0.0298657
0.0298764
0.0298956
0.029942
0.0300526
0.0301206
0.0301431
0.0301406
0.0301323
0.0301197
0.0300677
0.029714
0.027741
0.0208455
0.0208436
0.0277371
0.0297069
0.030058
0.0301072
0.0301169
0.0301241
0.0301328
0.0301413
0.0301446
0.0301228
0.0300552
0.0299434
0.0298967
0.0298773
0.0298662
0.029858
0.0298524
0.0298521
0.0298576
0.0298656
0.0298767
0.0298961
0.0299427
0.0300542
0.0301221
0.0301442
0.0301414
0.0301329
0.0301202
0.0300681
0.0297142
0.027741
0.0208453
0.0208435
0.0277371
0.029707
0.0300581
0.0301073
0.030117
0.0301243
0.0301331
0.0301416
0.0301449
0.0301232
0.0300556
0.0299436
0.0298969
0.0298773
0.029866
0.0298577
0.0298516
0.0298513
0.0298571
0.0298654
0.0298767
0.0298962
0.0299429
0.0300546
0.0301225
0.0301446
0.0301417
0.0301332
0.0301204
0.0300682
0.0297143
0.027741
0.0208452
0.0208435
0.0277371
0.029707
0.030058
0.0301072
0.0301169
0.0301242
0.0301329
0.0301414
0.0301446
0.0301226
0.030055
0.0299432
0.0298965
0.029877
0.0298659
0.0298577
0.0298519
0.0298516
0.0298571
0.0298652
0.0298764
0.0298959
0.0299426
0.030054
0.030122
0.0301443
0.0301415
0.0301331
0.0301203
0.0300682
0.0297142
0.027741
0.0208452
0.0208436
0.0277371
0.0297069
0.0300578
0.0301069
0.0301165
0.0301237
0.0301323
0.0301404
0.0301424
0.0301183
0.0300519
0.0299418
0.0298955
0.0298762
0.0298654
0.0298578
0.0298529
0.0298526
0.0298572
0.0298648
0.0298756
0.0298948
0.0299412
0.030051
0.0301178
0.0301422
0.0301406
0.0301325
0.0301199
0.0300679
0.0297141
0.027741
0.0208453
0.0208437
0.0277372
0.0297067
0.0300575
0.0301064
0.0301159
0.0301228
0.0301308
0.030136
0.0301275
0.0300851
0.0300339
0.029935
0.0298913
0.029873
0.0298627
0.029856
0.0298521
0.0298519
0.0298555
0.0298621
0.0298723
0.0298907
0.0299344
0.0300332
0.0300848
0.0301274
0.0301364
0.0301312
0.0301191
0.0300674
0.0297138
0.0277411
0.0208455
0.0208439
0.0277372
0.0297065
0.030057
0.0301058
0.030115
0.0301212
0.0301253
0.030109
0.0300187
0.0298288
0.0299119
0.029891
0.0298669
0.029853
0.0298434
0.0298375
0.0298345
0.0298344
0.029837
0.0298428
0.0298523
0.0298663
0.0298905
0.0299114
0.0298287
0.0300189
0.0301095
0.0301258
0.0301176
0.0300665
0.0297134
0.0277411
0.0208457
0.0208439
0.0277372
0.0297061
0.0300564
0.0301049
0.0301135
0.0301167
0.0300992
0.0299583
0.0293752
0.0282345
0.0292197
0.0296532
0.0297377
0.029744
0.0297355
0.0297297
0.0297272
0.0297271
0.0297293
0.029735
0.0297434
0.0297371
0.0296529
0.0292197
0.0282348
0.0293757
0.0299591
0.0300999
0.0301132
0.0300652
0.0297128
0.0277411
0.0208459
0.020844
0.0277372
0.0297057
0.0300557
0.0301037
0.0301108
0.0301032
0.0300041
0.0293726
0.026745
0.0217497
0.0264924
0.0287827
0.0292768
0.0293492
0.0293462
0.0293411
0.0293392
0.029339
0.0293408
0.0293456
0.0293485
0.0292761
0.0287824
0.0264933
0.0217497
0.0267458
0.0293736
0.0300051
0.0301
0.0300628
0.029712
0.027741
0.0208459
0.020844
0.0277371
0.0297053
0.0300549
0.0301023
0.030107
0.030081
0.0298356
0.0282584
0.0217564
0.0216421
0.0272914
0.0285238
0.0286946
0.0287106
0.0287111
0.0287109
0.0287107
0.0287106
0.0287097
0.0286932
0.028522
0.0272891
0.0216404
0.0217563
0.0282594
0.0298368
0.0300779
0.0300592
0.0297109
0.0277409
0.0208459
0.0208439
0.027737
0.0297048
0.0300541
0.0301013
0.0301074
0.0300983
0.0299978
0.029368
0.026753
0.0217532
0.0265552
0.0288436
0.0293311
0.0293999
0.0294071
0.0294079
0.0294081
0.0294079
0.0294072
0.0294055
0.0293966
0.0293247
0.0288316
0.0265489
0.0217523
0.0267536
0.0293692
0.0299991
0.0300954
0.0300597
0.0297102
0.0277406
0.0208457
0.0208438
0.0277368
0.0297043
0.0300534
0.0301004
0.0301071
0.0301079
0.0300876
0.0299464
0.02937
0.0282513
0.0292871
0.0297662
0.0298449
0.0298493
0.0298465
0.0298457
0.0298456
0.0298454
0.0298448
0.0298442
0.0298428
0.0298278
0.0297277
0.0292654
0.0282439
0.029369
0.0299474
0.030089
0.0301051
0.0300596
0.0297094
0.0277403
0.0208455
0.0208436
0.0277366
0.0297037
0.0300524
0.0300992
0.0301059
0.0301088
0.030109
0.03009
0.0300023
0.0298352
0.0299701
0.0300003
0.0299366
0.0299123
0.0299051
0.029903
0.0299024
0.0299022
0.0299022
0.0299026
0.0299041
0.0299084
0.0299176
0.0299205
0.0298167
0.0299983
0.0300905
0.0301103
0.0301061
0.0300584
0.0297084
0.0277398
0.0208452
0.0208434
0.0277345
0.0296997
0.0300477
0.0300942
0.0301006
0.0301035
0.0301066
0.0301079
0.0301004
0.0300805
0.0300826
0.0300442
0.0299663
0.0299397
0.0299329
0.0299314
0.0299311
0.0299309
0.0299308
0.0299308
0.029932
0.0299382
0.029963
0.030032
0.0300615
0.0300964
0.0301085
0.0301081
0.0301009
0.0300532
0.0297041
0.0277375
0.0208448
0.0208422
0.0277106
0.0296598
0.0300031
0.0300486
0.0300547
0.0300573
0.0300604
0.0300637
0.0300663
0.0300662
0.0300618
0.0300402
0.0300001
0.0299844
0.0299803
0.02998
0.0299803
0.0299803
0.0299799
0.0299792
0.0299791
0.0299827
0.0299979
0.0300368
0.0300571
0.0300652
0.0300651
0.030062
0.0300548
0.0300083
0.0296639
0.0277135
0.0208435
0.0208291
0.0275005
0.0293443
0.0296606
0.0297013
0.0297066
0.0297088
0.0297114
0.0297144
0.0297175
0.02972
0.0297197
0.0297136
0.0297007
0.0296955
0.0296945
0.0296948
0.0296952
0.0296953
0.0296949
0.0296942
0.0296936
0.0296944
0.0296992
0.0297118
0.0297176
0.0297182
0.029716
0.029713
0.0297068
0.0296652
0.029348
0.0275031
0.0208303
0.0207288
0.0261478
0.0275011
0.0277119
0.0277366
0.0277397
0.0277413
0.0277432
0.0277453
0.0277475
0.0277495
0.0277504
0.0277496
0.0277464
0.0277451
0.0277446
0.0277446
0.0277446
0.0277446
0.0277445
0.0277444
0.0277443
0.0277446
0.0277458
0.0277488
0.0277495
0.0277485
0.0277467
0.0277445
0.0277407
0.0277155
0.027504
0.0261499
0.0207298
0.0203055
0.020729
0.0208296
0.0208429
0.0208446
0.0208453
0.0208462
0.0208472
0.0208483
0.0208495
0.0208507
0.0208516
0.0208522
0.0208521
0.0208518
0.0208514
0.0208509
0.0208505
0.0208503
0.0208505
0.0208509
0.0208513
0.0208516
0.0208518
0.0208517
0.0208511
0.0208501
0.0208489
0.0208477
0.0208466
0.0208446
0.0208309
0.0207301
0.0203063
0.0252905
0.0280159
0.0287668
0.0288884
0.0289024
0.0289035
0.0289037
0.0289038
0.0289039
0.028904
0.0289041
0.0289042
0.0289043
0.0289043
0.0289043
0.0289043
0.0289043
0.0289042
0.0289042
0.0289042
0.0289042
0.0289042
0.0289042
0.0289042
0.0289042
0.0289041
0.028904
0.0289039
0.0289037
0.0289026
0.0288886
0.028767
0.0280161
0.0252908
0.028016
0.0266815
0.0273976
0.0275655
0.027589
0.0275911
0.0275912
0.0275913
0.0275914
0.0275915
0.0275915
0.0275916
0.0275917
0.0275918
0.0275918
0.0275918
0.0275919
0.0275919
0.0275919
0.0275919
0.0275919
0.0275918
0.0275918
0.0275917
0.0275916
0.0275916
0.0275915
0.0275914
0.0275913
0.0275892
0.0275657
0.0273978
0.0266817
0.0280162
0.0287671
0.0273977
0.0281721
0.0283679
0.0283977
0.0284007
0.0284009
0.028401
0.0284011
0.0284013
0.0284015
0.0284017
0.0284019
0.0284021
0.0284022
0.0284023
0.0284024
0.0284024
0.0284024
0.0284024
0.0284023
0.0284022
0.0284021
0.0284019
0.0284018
0.0284016
0.0284014
0.0284013
0.028401
0.028398
0.0283681
0.0281724
0.027398
0.0287676
0.0288889
0.0275657
0.0283679
0.0285736
0.0286056
0.0286089
0.0286092
0.0286094
0.0286096
0.0286099
0.0286102
0.0286106
0.0286109
0.0286112
0.0286115
0.0286117
0.0286118
0.0286119
0.0286119
0.0286119
0.0286117
0.0286115
0.0286113
0.028611
0.0286107
0.0286103
0.02861
0.0286098
0.0286094
0.028606
0.028574
0.0283683
0.027566
0.0288895
0.028903
0.0275892
0.0283978
0.0286056
0.0286381
0.0286416
0.0286419
0.0286422
0.0286425
0.0286429
0.0286432
0.0286439
0.0286444
0.0286448
0.0286452
0.0286455
0.0286457
0.0286458
0.0286458
0.0286457
0.0286455
0.0286452
0.0286449
0.0286444
0.0286439
0.0286433
0.028643
0.0286427
0.0286422
0.0286387
0.0286061
0.0283982
0.0275896
0.0289037
0.0289043
0.0275913
0.0284008
0.0286089
0.0286416
0.0286451
0.0286455
0.0286459
0.0286462
0.0286459
0.028645
0.0286467
0.0286479
0.0286486
0.0286491
0.0286495
0.0286497
0.0286498
0.0286498
0.0286497
0.0286495
0.0286491
0.0286486
0.028648
0.0286468
0.0286451
0.028646
0.0286463
0.0286459
0.0286423
0.0286096
0.0284013
0.0275918
0.0289052
0.0289045
0.0275915
0.028401
0.0286092
0.0286419
0.0286455
0.028646
0.0286462
0.0286445
0.0286369
0.0286259
0.0286346
0.0286412
0.0286434
0.0286441
0.0286446
0.0286448
0.0286449
0.0286449
0.0286448
0.0286446
0.0286442
0.0286434
0.0286413
0.0286347
0.028626
0.028637
0.0286447
0.0286463
0.0286428
0.02861
0.0284016
0.027592
0.0289055
0.0289046
0.0275915
0.0284011
0.0286094
0.0286421
0.0286458
0.0286461
0.0286436
0.0286269
0.0285717
0.0285093
0.0285513
0.0285936
0.028606
0.0286079
0.028609
0.0286093
0.0286093
0.0286093
0.0286093
0.0286091
0.0286079
0.0286061
0.0285937
0.0285514
0.0285094
0.0285718
0.0286271
0.0286437
0.0286429
0.0286103
0.0284018
0.0275921
0.0289059
0.0289048
0.0275915
0.0284012
0.0286095
0.0286424
0.0286459
0.0286443
0.0286269
0.0285372
0.0282861
0.0282333
0.0281938
0.0283824
0.0284464
0.0284548
0.0284599
0.0284609
0.028461
0.028461
0.0284609
0.02846
0.0284549
0.0284465
0.0283825
0.0281939
0.0282334
0.0282862
0.0285374
0.028627
0.0286412
0.0286104
0.028402
0.0275922
0.0289061
0.0289048
0.0275916
0.0284013
0.0286097
0.0286426
0.0286455
0.0286367
0.0285725
0.0282897
0.0278378
0.0343809
0.0275314
0.0277964
0.0280038
0.0280397
0.0280532
0.0280558
0.0280561
0.0280561
0.0280558
0.0280533
0.0280398
0.0280039
0.0277965
0.0275315
0.0343803
0.0278379
0.0282899
0.0285726
0.0286335
0.02861
0.0284022
0.0275923
0.0289063
0.0289048
0.0275916
0.0284014
0.0286099
0.0286428
0.0286446
0.0286265
0.0285159
0.0282621
0.0344999
0.0335606
0.0273158
0.0274977
0.0275825
0.0275896
0.0275884
0.0275879
0.0275879
0.0275884
0.0275896
0.0275826
0.0274978
0.0273159
0.0335617
0.0345005
0.0282623
0.028516
0.0286234
0.028609
0.0284022
0.0275923
0.0289063
0.0289048
0.0275916
0.0284014
0.0286101
0.0286432
0.0286463
0.0286378
0.0285736
0.0282898
0.0278381
0.0343721
0.0275141
0.0277981
0.0280226
0.0280966
0.0280661
0.028053
0.0280498
0.0280498
0.0280529
0.028066
0.0280965
0.0280226
0.027798
0.0275138
0.0343705
0.027838
0.0282898
0.0285737
0.0286346
0.0286107
0.0284025
0.0275923
0.0289062
0.0289047
0.0275915
0.0284015
0.0286103
0.0286435
0.0286476
0.0286465
0.0286293
0.0285387
0.028283
0.0282209
0.0281661
0.028374
0.0284366
0.028452
0.0284383
0.0284312
0.028429
0.028429
0.0284311
0.0284383
0.0284519
0.0284364
0.0283738
0.0281659
0.0282206
0.0282829
0.0285387
0.0286294
0.0286433
0.0286119
0.0284027
0.0275922
0.028906
0.0289045
0.0275915
0.0284016
0.0286105
0.0286438
0.0286481
0.0286492
0.0286473
0.0286301
0.0285703
0.0284949
0.0285199
0.0285709
0.0285688
0.0285636
0.0285572
0.0285539
0.0285527
0.0285527
0.0285539
0.0285572
0.0285635
0.0285687
0.0285707
0.0285196
0.0284948
0.0285702
0.0286302
0.0286474
0.0286459
0.0286124
0.0284028
0.0275922
0.0289058
0.0289043
0.0275915
0.0284017
0.0286106
0.028644
0.0286483
0.0286498
0.0286509
0.028649
0.028637
0.0286123
0.0286018
0.0286119
0.0285955
0.0285859
0.0285813
0.0285791
0.0285781
0.0285781
0.028579
0.0285812
0.0285858
0.0285953
0.0286118
0.0286016
0.0286121
0.028637
0.0286491
0.0286509
0.0286466
0.0286126
0.0284029
0.0275922
0.0289055
0.0289041
0.0275915
0.0284017
0.0286107
0.0286441
0.0286485
0.02865
0.0286515
0.0286518
0.0286473
0.0286327
0.0286148
0.0286181
0.0285995
0.0285892
0.0285849
0.0285829
0.028582
0.0285819
0.0285828
0.0285848
0.0285891
0.0285994
0.0286179
0.0286145
0.0286326
0.0286473
0.0286519
0.0286515
0.0286468
0.0286128
0.028403
0.0275922
0.0289052
0.028904
0.0275914
0.0284017
0.0286108
0.0286442
0.0286487
0.0286502
0.0286517
0.0286522
0.0286486
0.0286354
0.0286165
0.028619
0.0286002
0.0285899
0.0285855
0.0285834
0.0285824
0.0285824
0.0285834
0.0285855
0.0285898
0.0286001
0.0286189
0.0286163
0.0286352
0.0286486
0.0286523
0.0286517
0.028647
0.0286129
0.0284031
0.0275921
0.0289049
0.0289038
0.0275914
0.0284018
0.0286109
0.0286443
0.0286487
0.0286503
0.0286518
0.0286524
0.0286489
0.0286358
0.0286169
0.0286193
0.0286004
0.0285901
0.0285857
0.0285835
0.0285824
0.0285824
0.0285835
0.0285856
0.02859
0.0286003
0.0286191
0.0286167
0.0286357
0.0286489
0.0286525
0.0286519
0.0286471
0.028613
0.0284031
0.0275921
0.0289047
0.0289038
0.0275914
0.0284018
0.0286109
0.0286443
0.0286488
0.0286504
0.0286519
0.0286524
0.028649
0.0286359
0.028617
0.0286193
0.0286005
0.0285901
0.0285857
0.0285835
0.0285823
0.0285823
0.0285834
0.0285856
0.02859
0.0286004
0.0286192
0.0286168
0.0286358
0.0286489
0.0286526
0.0286519
0.0286471
0.0286131
0.0284032
0.0275921
0.0289046
0.0289038
0.0275914
0.0284018
0.0286109
0.0286443
0.0286488
0.0286503
0.0286518
0.0286524
0.0286489
0.0286356
0.0286168
0.0286192
0.0286003
0.0285899
0.0285855
0.0285834
0.0285822
0.0285822
0.0285833
0.0285855
0.0285898
0.0286002
0.0286191
0.0286166
0.0286355
0.0286489
0.0286525
0.0286519
0.0286471
0.028613
0.0284032
0.0275921
0.0289046
0.0289039
0.0275914
0.0284017
0.0286108
0.0286443
0.0286487
0.0286502
0.0286517
0.0286521
0.0286477
0.0286332
0.0286153
0.0286184
0.0285998
0.0285894
0.028585
0.0285828
0.0285818
0.0285817
0.0285828
0.0285849
0.0285893
0.0285996
0.0286183
0.0286151
0.0286331
0.0286477
0.0286522
0.0286518
0.0286471
0.028613
0.0284031
0.0275922
0.0289048
0.028904
0.0275915
0.0284017
0.0286108
0.0286442
0.0286486
0.0286501
0.0286512
0.0286495
0.0286376
0.0286131
0.0286027
0.0286125
0.0285959
0.0285862
0.0285815
0.0285791
0.0285781
0.0285781
0.0285791
0.0285814
0.0285861
0.0285958
0.0286124
0.0286025
0.028613
0.0286377
0.0286496
0.0286514
0.0286469
0.0286129
0.0284031
0.0275922
0.028905
0.0289042
0.0275915
0.0284017
0.0286107
0.028644
0.0286484
0.0286495
0.0286478
0.0286308
0.0285713
0.0284964
0.0285213
0.0285719
0.0285697
0.0285643
0.0285578
0.0285544
0.0285531
0.0285531
0.0285544
0.0285578
0.0285643
0.0285697
0.0285719
0.0285213
0.0284964
0.0285714
0.028631
0.028648
0.0286464
0.0286127
0.028403
0.0275922
0.0289052
0.0289043
0.0275915
0.0284017
0.0286105
0.0286438
0.0286479
0.0286469
0.02863
0.0285396
0.0282846
0.0282232
0.0281684
0.0283757
0.0284381
0.0284535
0.0284397
0.0284325
0.0284303
0.0284303
0.0284325
0.0284397
0.0284535
0.0284381
0.0283758
0.0281685
0.0282232
0.0282847
0.0285399
0.0286301
0.0286438
0.0286124
0.028403
0.0275923
0.0289055
0.0289044
0.0275916
0.0284016
0.0286104
0.0286436
0.0286468
0.0286384
0.0285744
0.0282909
0.0278399
0.0343841
0.0275157
0.0277993
0.0280239
0.0280978
0.0280672
0.028054
0.0280508
0.0280508
0.028054
0.0280672
0.0280979
0.0280239
0.0277993
0.0275154
0.0343838
0.0278399
0.0282912
0.0285746
0.0286353
0.0286112
0.0284028
0.0275924
0.0289057
0.0289045
0.0275916
0.0284015
0.0286102
0.0286432
0.0286451
0.0286272
0.0285166
0.0282627
0.0344975
0.033546
0.0273122
0.0274929
0.0275769
0.0275834
0.0275819
0.0275812
0.0275811
0.0275817
0.0275832
0.0275764
0.0274919
0.0273101
0.0335407
0.0344966
0.0282629
0.0285168
0.0286241
0.0286096
0.0284026
0.0275924
0.0289058
0.0289045
0.0275916
0.0284015
0.0286101
0.0286431
0.0286461
0.0286375
0.0285735
0.0282909
0.0278396
0.0343904
0.0275281
0.0277874
0.0279897
0.0280225
0.0280344
0.0280364
0.0280365
0.0280364
0.0280362
0.0280339
0.0280211
0.0279863
0.0277815
0.0275226
0.0343853
0.0278391
0.0282911
0.0285737
0.0286345
0.0286107
0.0284026
0.0275924
0.0289057
0.0289044
0.0275916
0.0284014
0.02861
0.028643
0.0286467
0.0286453
0.028628
0.0285386
0.0282874
0.0282331
0.0281859
0.0283638
0.0284206
0.0284225
0.0284231
0.0284228
0.0284225
0.0284224
0.0284225
0.0284221
0.0284194
0.0284131
0.0283562
0.0281752
0.0282268
0.0282856
0.0285385
0.0286282
0.0286423
0.0286113
0.0284025
0.0275924
0.0289056
0.0289043
0.0275916
0.0284013
0.0286097
0.0286426
0.0286465
0.028647
0.0286448
0.0286281
0.0285723
0.0285066
0.0285395
0.0285723
0.0285979
0.028591
0.0285867
0.0285853
0.0285849
0.0285848
0.0285849
0.0285853
0.0285863
0.0285892
0.0285857
0.0285303
0.0284979
0.0285691
0.0286276
0.0286449
0.028644
0.0286111
0.0284023
0.0275923
0.0289054
0.0289031
0.0275895
0.0283983
0.0286064
0.0286392
0.0286429
0.0286437
0.0286441
0.0286426
0.0286343
0.02862
0.0286198
0.0286171
0.0286328
0.0286243
0.0286196
0.0286183
0.028618
0.028618
0.028618
0.0286182
0.0286195
0.0286238
0.028631
0.0286107
0.0286114
0.028631
0.028642
0.0286442
0.0286407
0.0286077
0.0283992
0.0275902
0.0289041
0.0288891
0.027566
0.0283685
0.0285744
0.0286066
0.0286102
0.0286109
0.0286115
0.028612
0.0286114
0.0286085
0.028604
0.0285948
0.0285889
0.0285812
0.0285781
0.0285774
0.0285773
0.0285772
0.0285772
0.0285772
0.0285778
0.0285808
0.0285884
0.0285938
0.0286025
0.0286095
0.0286118
0.0286117
0.028608
0.0285755
0.0283693
0.0275666
0.02889
0.0287674
0.027398
0.0281727
0.0283687
0.0283987
0.028402
0.0284025
0.028403
0.0284035
0.0284038
0.0284033
0.0284011
0.0283958
0.0283898
0.0283858
0.0283843
0.028384
0.028384
0.028384
0.0283839
0.0283839
0.0283842
0.0283856
0.0283896
0.0283955
0.0284007
0.0284032
0.0284037
0.0284032
0.0283999
0.0283696
0.0281734
0.0273986
0.0287682
0.0280163
0.0266818
0.0273982
0.0275663
0.02759
0.0275924
0.0275927
0.0275931
0.0275935
0.0275939
0.027594
0.0275932
0.0275912
0.0275884
0.0275867
0.027586
0.0275858
0.0275858
0.0275858
0.0275858
0.0275858
0.027586
0.0275867
0.0275883
0.0275911
0.0275931
0.0275938
0.0275938
0.0275934
0.0275909
0.0275671
0.0273988
0.0266823
0.0280169
0.025291
0.0280164
0.0287678
0.0288898
0.0289042
0.0289058
0.0289065
0.0289073
0.0289081
0.0289089
0.0289096
0.0289096
0.0289087
0.0289067
0.0289053
0.0289044
0.0289038
0.0289033
0.0289032
0.0289034
0.0289038
0.0289044
0.0289053
0.0289066
0.0289085
0.0289093
0.0289091
0.0289085
0.0289076
0.0289057
0.028891
0.0287687
0.028017
0.0252915
0.0270381
0.0309857
0.0322033
0.0324249
0.032454
0.0324569
0.0324572
0.0324572
0.0324573
0.0324574
0.0324574
0.0324574
0.0324574
0.0324574
0.0324574
0.0324573
0.0324573
0.0324573
0.0324573
0.0324573
0.0324573
0.0324574
0.0324574
0.0324574
0.0324574
0.0324574
0.0324573
0.0324573
0.032457
0.0324542
0.032425
0.0322034
0.0309858
0.0270383
0.0309857
0.0287377
0.0294212
0.0296121
0.0296431
0.0296464
0.0296466
0.0296466
0.0296466
0.0296466
0.0296466
0.0296466
0.0296466
0.0296467
0.0296467
0.0296467
0.0296467
0.0296467
0.0296467
0.0296467
0.0296467
0.0296467
0.0296467
0.0296467
0.0296466
0.0296466
0.0296466
0.0296466
0.0296464
0.0296432
0.0296122
0.0294212
0.0287377
0.0309858
0.0322036
0.0294212
0.0300234
0.0302158
0.0302502
0.0302541
0.0302544
0.0302544
0.0302544
0.0302545
0.0302546
0.0302546
0.0302547
0.0302547
0.0302547
0.0302548
0.0302548
0.0302548
0.0302548
0.0302548
0.0302548
0.0302548
0.0302547
0.0302547
0.0302546
0.0302546
0.0302545
0.0302545
0.0302543
0.0302503
0.0302159
0.0300235
0.0294214
0.0322039
0.0324254
0.0296123
0.0302158
0.0304126
0.0304486
0.0304529
0.0304532
0.0304533
0.0304534
0.0304535
0.0304536
0.0304537
0.0304538
0.0304539
0.030454
0.0304541
0.0304541
0.0304542
0.0304542
0.0304542
0.0304541
0.030454
0.0304539
0.0304538
0.0304537
0.0304536
0.0304535
0.0304535
0.0304531
0.0304488
0.0304128
0.030216
0.0296125
0.0324259
0.0324547
0.0296433
0.0302502
0.0304486
0.0304851
0.0304895
0.0304899
0.03049
0.0304901
0.0304902
0.0304901
0.0304903
0.0304905
0.0304906
0.0304908
0.0304909
0.0304909
0.030491
0.030491
0.0304909
0.0304909
0.0304908
0.0304907
0.0304905
0.0304904
0.0304902
0.0304902
0.0304902
0.0304898
0.0304854
0.0304489
0.0302505
0.0296435
0.0324554
0.0324577
0.0296466
0.0302542
0.0304529
0.0304895
0.030494
0.0304943
0.0304945
0.0304944
0.0304934
0.0304918
0.0304923
0.0304929
0.0304931
0.0304931
0.0304933
0.0304933
0.0304933
0.0304933
0.0304933
0.0304933
0.0304932
0.0304931
0.0304929
0.0304923
0.0304918
0.0304934
0.0304945
0.0304943
0.0304899
0.0304532
0.0302545
0.0296468
0.0324585
0.032458
0.0296467
0.0302545
0.0304532
0.0304898
0.0304943
0.0304947
0.0304944
0.0304916
0.0304824
0.030471
0.0304731
0.0304781
0.0304793
0.0304785
0.0304794
0.0304794
0.0304793
0.0304794
0.0304794
0.0304794
0.0304786
0.0304793
0.0304782
0.0304732
0.030471
0.0304824
0.0304918
0.0304943
0.0304902
0.0304536
0.0302548
0.029647
0.0324589
0.0324581
0.0296467
0.0302545
0.0304533
0.0304899
0.0304944
0.0304944
0.0304906
0.0304712
0.0304192
0.0303804
0.03037
0.0304014
0.0304101
0.0304046
0.0304114
0.0304128
0.0304126
0.0304126
0.0304128
0.0304115
0.0304046
0.0304102
0.0304015
0.03037
0.0303804
0.0304193
0.0304713
0.0304904
0.0304899
0.0304537
0.0302548
0.0296471
0.0324591
0.0324581
0.0296467
0.0302545
0.0304533
0.03049
0.0304943
0.0304917
0.0304716
0.0303878
0.0302196
0.0304425
0.0300041
0.0301086
0.0301529
0.0301294
0.0301634
0.0301707
0.0301711
0.0301711
0.0301707
0.0301634
0.0301294
0.0301529
0.0301087
0.0300041
0.0304425
0.0302196
0.0303879
0.0304714
0.0304872
0.0304535
0.0302548
0.0296471
0.0324593
0.0324581
0.0296467
0.0302545
0.0304534
0.03049
0.0304933
0.0304831
0.0304232
0.0302318
0.0303742
0.0400659
0.0294883
0.0293294
0.0294729
0.0294461
0.0295169
0.0295312
0.0295326
0.0295326
0.0295312
0.029517
0.0294461
0.029473
0.0293296
0.0294883
0.0400651
0.0303742
0.0302319
0.030423
0.0304786
0.0304525
0.0302548
0.029647
0.0324593
0.0324581
0.0296467
0.0302545
0.0304534
0.03049
0.0304921
0.0304748
0.0304011
0.0305359
0.0405997
0.0363442
0.0289079
0.0290823
0.0291917
0.0291823
0.0291754
0.0291739
0.0291739
0.0291754
0.0291824
0.0291918
0.0290824
0.0289081
0.0363455
0.0406003
0.030536
0.0304009
0.0304703
0.0304513
0.0302546
0.029647
0.0324593
0.0324579
0.0296466
0.0302545
0.0304535
0.0304903
0.0304937
0.0304834
0.0304233
0.0302312
0.0303753
0.0400252
0.0295119
0.0295674
0.0298352
0.0301411
0.0298791
0.0298104
0.0297988
0.0297988
0.0298103
0.029879
0.030141
0.0298351
0.0295672
0.0295115
0.0400236
0.0303752
0.0302313
0.0304232
0.0304789
0.0304528
0.0302548
0.0296469
0.032459
0.0324578
0.0296466
0.0302545
0.0304536
0.0304905
0.0304949
0.0304924
0.030472
0.0303863
0.0302129
0.0304326
0.0300792
0.0305576
0.0306706
0.0307396
0.0306722
0.0306468
0.030641
0.030641
0.0306468
0.0306721
0.0307395
0.0306705
0.0305574
0.0300789
0.0304324
0.0302128
0.0303863
0.0304719
0.0304879
0.030454
0.0302549
0.0296468
0.0324587
0.0324575
0.0296465
0.0302545
0.0304536
0.0304906
0.0304953
0.0304955
0.0304913
0.0304696
0.0304116
0.0303757
0.0304705
0.0309093
0.0309498
0.0309515
0.030936
0.0309288
0.0309268
0.0309268
0.0309288
0.0309359
0.0309514
0.0309497
0.0309092
0.0304703
0.0303755
0.0304116
0.0304697
0.0304912
0.030491
0.0304544
0.0302549
0.0296467
0.0324583
0.0324573
0.0296465
0.0302545
0.0304537
0.0304906
0.0304954
0.030496
0.0304954
0.0304901
0.0304742
0.0304659
0.0305739
0.0309854
0.0310064
0.0309955
0.030989
0.0309864
0.0309856
0.0309856
0.0309864
0.030989
0.0309955
0.0310064
0.0309853
0.0305737
0.0304658
0.0304742
0.0304902
0.0304953
0.0304915
0.0304545
0.0302549
0.0296467
0.032458
0.0324571
0.0296464
0.0302545
0.0304537
0.0304907
0.0304955
0.0304961
0.030496
0.0304934
0.0304854
0.0304864
0.0305916
0.0309968
0.0310143
0.0310015
0.0309964
0.0309947
0.0309942
0.0309942
0.0309947
0.0309964
0.0310015
0.0310142
0.0309967
0.0305915
0.0304863
0.0304854
0.0304934
0.0304959
0.0304916
0.0304545
0.0302549
0.0296466
0.0324577
0.032457
0.0296464
0.0302545
0.0304538
0.0304907
0.0304955
0.0304962
0.0304961
0.0304937
0.0304868
0.0304892
0.0305939
0.030998
0.0310151
0.0310022
0.0309973
0.0309957
0.0309952
0.0309952
0.0309957
0.0309973
0.0310021
0.0310151
0.030998
0.0305937
0.0304892
0.0304868
0.0304938
0.030496
0.0304917
0.0304545
0.0302549
0.0296466
0.0324574
0.0324569
0.0296464
0.0302545
0.0304538
0.0304908
0.0304955
0.0304962
0.0304961
0.0304938
0.030487
0.0304895
0.0305942
0.0309982
0.0310153
0.0310023
0.0309974
0.0309959
0.0309954
0.0309954
0.0309959
0.0309974
0.0310023
0.0310152
0.0309981
0.030594
0.0304895
0.030487
0.0304939
0.030496
0.0304917
0.0304546
0.0302549
0.0296466
0.0324573
0.0324568
0.0296464
0.0302545
0.0304538
0.0304908
0.0304956
0.0304962
0.0304961
0.0304938
0.030487
0.0304896
0.0305942
0.0309982
0.0310153
0.0310023
0.0309975
0.0309959
0.0309954
0.0309954
0.0309959
0.0309974
0.0310023
0.0310153
0.0309982
0.0305941