/*--------------------------------*- C++ -*----------------------------------*\
| =========                 |                                                 |
| \\      /  F ield         | OpenFOAM: The Open Source CFD Toolbox           |
|  \\    /   O peration     | Version:  2112                                  |
|   \\  /    A nd           | Website:  www.openfoam.com                      |
|    \\/     M anipulation  |                                                 |
\*---------------------------------------------------------------------------*/
FoamFile
{
    version     2.0;
    format      ascii;
    arch        "LSB;label=32;scalar=64";
    class       volScalarField;
    location    "0.7";
    object      k;
}
// * * * * * * * * * * * * * * * * * * * * * * * * * * * * * * * * * * * * * //

dimensions      [0 2 -2 0 0 0 0];

internalField   nonuniform List<scalar> 
64906
(
0.00617555
0.00627609
0.00630188
0.00630567
0.00630607
0.00630613
0.00630617
0.00630621
0.00630626
0.00630631
0.00630635
0.00630639
0.00630642
0.00630644
0.00630646
0.00630647
0.00630647
0.00630647
0.00630646
0.00630646
0.00630646
0.00630645
0.00630643
0.00630641
0.00630638
0.00630634
0.0063063
0.00630626
0.00630621
0.00630615
0.00630574
0.00630195
0.00627617
0.00617561
0.00627612
0.00742885
0.00772256
0.00777239
0.00777883
0.00777951
0.00777962
0.0077797
0.00777979
0.00777989
0.00777998
0.00778008
0.00778016
0.00778024
0.0077803
0.00778035
0.00778038
0.0077804
0.0077804
0.00778038
0.00778035
0.00778031
0.00778025
0.00778018
0.0077801
0.00778001
0.00777991
0.00777983
0.0077797
0.00777901
0.00777256
0.00772273
0.007429
0.00627622
0.00630195
0.00772265
0.00811981
0.00819397
0.00820459
0.00820585
0.00820607
0.00820621
0.00820637
0.00820655
0.00820675
0.00820696
0.00820716
0.00820733
0.00820748
0.0082076
0.00820768
0.00820772
0.00820773
0.00820769
0.00820762
0.00820751
0.00820736
0.00820719
0.008207
0.0082068
0.00820661
0.00820643
0.00820619
0.0082049
0.00819426
0.00812008
0.00772289
0.00630208
0.00630576
0.00777252
0.00819402
0.00827505
0.00828703
0.00828852
0.00828879
0.00828899
0.00828922
0.00828949
0.0082898
0.00829013
0.00829045
0.00829074
0.00829098
0.00829116
0.00829129
0.00829135
0.00829136
0.0082913
0.00829118
0.008291
0.00829077
0.0082905
0.00829019
0.00828986
0.00828956
0.0082893
0.00828897
0.00828744
0.00827542
0.00819436
0.00777282
0.00630593
0.00630619
0.00777898
0.00820467
0.00828705
0.00829934
0.00830091
0.00830124
0.0083015
0.0083018
0.00830215
0.00830254
0.00830309
0.00830357
0.008304
0.00830435
0.00830462
0.0083048
0.00830489
0.0083049
0.00830481
0.00830464
0.00830438
0.00830404
0.00830362
0.00830315
0.00830261
0.00830223
0.0083019
0.00830149
0.00829985
0.00828751
0.00820508
0.00777934
0.00630639
0.00630627
0.00777968
0.00820594
0.00828855
0.00830092
0.00830254
0.00830292
0.00830324
0.00830356
0.00830372
0.0083038
0.00830496
0.00830588
0.00830655
0.00830707
0.00830744
0.00830769
0.00830782
0.00830782
0.00830771
0.00830747
0.00830711
0.0083066
0.00830594
0.00830502
0.00830388
0.00830381
0.00830367
0.00830325
0.00830154
0.0082891
0.00820643
0.00778009
0.00630651
0.00630633
0.00777979
0.00820615
0.00828882
0.00830123
0.00830291
0.00830334
0.0083036
0.00830322
0.00830073
0.00829663
0.00830162
0.00830491
0.00830641
0.00830728
0.00830775
0.00830806
0.00830823
0.00830823
0.00830808
0.00830779
0.00830733
0.00830647
0.00830498
0.0083017
0.00829671
0.00830083
0.00830333
0.00830362
0.00830198
0.00828948
0.00820672
0.00778026
0.00630661
0.00630638
0.00777986
0.00820627
0.00828899
0.00830146
0.00830318
0.00830354
0.00830281
0.00829683
0.00827481
0.00823833
0.00827173
0.00829108
0.00829703
0.008299
0.00829956
0.00829989
0.00830008
0.00830008
0.00829991
0.0082996
0.00829905
0.0082971
0.00829116
0.00827181
0.00823841
0.00827492
0.00829696
0.00830283
0.00830219
0.00828976
0.00820694
0.00778039
0.0063067
0.00630642
0.00777992
0.0082064
0.00828918
0.00830169
0.0083034
0.00830304
0.00829671
0.00826102
0.00813085
0.00789779
0.00811261
0.00822315
0.00825175
0.00825782
0.0082588
0.00825916
0.00825937
0.00825938
0.00825919
0.00825885
0.00825789
0.00825184
0.00822324
0.00811272
0.00789784
0.00813095
0.00826116
0.00829675
0.0083017
0.00828999
0.00820717
0.00778052
0.00630678
0.00630646
0.00777997
0.00820652
0.00828937
0.00830193
0.0083034
0.00830037
0.00827466
0.0081312
0.00757353
0.00651971
0.00752856
0.00801126
0.00812227
0.00814066
0.00814356
0.00814426
0.00814452
0.00814453
0.00814429
0.00814361
0.00814073
0.00812236
0.00801139
0.00752874
0.00651969
0.00757363
0.00813135
0.00827472
0.00829904
0.00829
0.00820737
0.00778063
0.00630686
0.00630648
0.00778002
0.00820665
0.00828957
0.00830217
0.00830329
0.00829624
0.00823907
0.00790131
0.00652244
0.00649504
0.00768581
0.00794678
0.00798587
0.00799028
0.00799073
0.00799083
0.00799084
0.00799075
0.0079903
0.0079859
0.00794684
0.00768594
0.00649515
0.00652253
0.00790146
0.00823914
0.00829491
0.00828988
0.00820757
0.00778071
0.00630691
0.0063065
0.00778004
0.00820677
0.00828977
0.00830252
0.00830425
0.00830155
0.0082761
0.00813209
0.00757131
0.00651898
0.00751161
0.00799428
0.00810438
0.00812234
0.00812234
0.00812145
0.00812113
0.00812113
0.00812144
0.00812233
0.00812231
0.00810435
0.00799426
0.00751155
0.00651885
0.00757118
0.00813213
0.0082761
0.00830019
0.0082908
0.00820785
0.00778076
0.00630694
0.00630649
0.00778006
0.00820687
0.00828996
0.00830282
0.00830498
0.0083052
0.00829949
0.00826377
0.00813165
0.00789253
0.00809251
0.00818756
0.00820832
0.00821077
0.00820935
0.00820832
0.00820792
0.00820792
0.0082083
0.00820931
0.00821072
0.00820825
0.00818746
0.00809237
0.00789229
0.00813155
0.00826379
0.00829947
0.00830381
0.0082915
0.00820808
0.0077808
0.00630694
0.00630648
0.00778006
0.00820695
0.00829011
0.00830305
0.00830539
0.00830656
0.00830675
0.00830129
0.00827805
0.00823445
0.00824994
0.0082453
0.00824013
0.00823736
0.00823559
0.00823459
0.00823415
0.00823414
0.00823456
0.00823554
0.00823729
0.00824004
0.00824518
0.0082497
0.00823427
0.00827798
0.0083013
0.00830671
0.00830516
0.00829189
0.00820825
0.00778081
0.00630692
0.00630645
0.00778006
0.00820702
0.00829024
0.00830323
0.00830566
0.00830706
0.00830848
0.00830892
0.00830557
0.00829425
0.00828072
0.00825723
0.0082468
0.00824276
0.00824078
0.00823965
0.00823908
0.00823906
0.0082396
0.00824071
0.00824267
0.0082467
0.00825711
0.00828049
0.0082941
0.0083055
0.00830893
0.00830843
0.00830565
0.00829213
0.00820838
0.00778082
0.00630688
0.00630642
0.00778005
0.00820708
0.00829034
0.00830337
0.00830584
0.00830733
0.00830898
0.00831036
0.00830992
0.00830302
0.00828587
0.00825933
0.00824805
0.00824371
0.00824157
0.00824024
0.00823949
0.00823947
0.00824018
0.00824148
0.00824361
0.00824794
0.0082592
0.00828565
0.00830288
0.00830985
0.00831036
0.00830893
0.00830591
0.00829231
0.00820848
0.00778082
0.00630682
0.00630638
0.00778004
0.00820711
0.00829041
0.00830347
0.00830598
0.0083075
0.00830922
0.00831075
0.00831071
0.00830438
0.00828691
0.00825979
0.00824837
0.00824393
0.00824167
0.00824017
0.00823923
0.00823919
0.00824008
0.00824157
0.00824382
0.00824826
0.00825966
0.00828669
0.00830424
0.00831064
0.00831075
0.00830917
0.00830608
0.00829243
0.00820855
0.00778081
0.00630677
0.00630635
0.00778004
0.00820714
0.00829045
0.00830353
0.00830606
0.0083076
0.00830935
0.00831092
0.00831095
0.00830471
0.00828724
0.00825996
0.0082485
0.00824401
0.00824167
0.00824005
0.00823894
0.00823889
0.00823995
0.00824156
0.00824389
0.00824838
0.00825983
0.00828702
0.00830457
0.00831089
0.00831093
0.0083093
0.00830618
0.00829251
0.00820859
0.00778081
0.00630672
0.00630633
0.00778003
0.00820715
0.00829047
0.00830355
0.00830608
0.00830764
0.0083094
0.00831098
0.00831103
0.0083048
0.00828733
0.00826
0.00824853
0.00824401
0.00824165
0.00823998
0.00823879
0.00823873
0.00823987
0.00824153
0.00824389
0.0082484
0.00825987
0.00828711
0.00830466
0.00831097
0.008311
0.00830935
0.00830622
0.00829254
0.00820861
0.00778081
0.00630669
0.00630633
0.00778004
0.00820714
0.00829046
0.00830354
0.00830606
0.00830761
0.00830936
0.00831093
0.00831093
0.00830464
0.00828717
0.00825992
0.00824845
0.00824395
0.0082416
0.00823996
0.00823883
0.00823877
0.00823985
0.00824147
0.00824382
0.00824832
0.00825979
0.00828697
0.00830452
0.00831088
0.00831096
0.00830933
0.0083062
0.00829252
0.00820861
0.00778081
0.00630669
0.00630635
0.00778004
0.00820712
0.00829042
0.00830348
0.00830599
0.00830751
0.00830922
0.00831066
0.00831031
0.00830348
0.00828634
0.00825954
0.00824818
0.00824373
0.00824145
0.00823992
0.00823895
0.0082389
0.00823981
0.00824132
0.00824361
0.00824805
0.00825942
0.00828616
0.00830338
0.00831027
0.0083107
0.0083092
0.00830612
0.00829246
0.00820858
0.00778082
0.00630673
0.00630638
0.00778005
0.00820709
0.00829035
0.00830339
0.00830586
0.00830732
0.00830882
0.00830936
0.00830615
0.00829496
0.00828146
0.00825756
0.00824699
0.00824279
0.00824061
0.00823924
0.00823847
0.00823843
0.00823914
0.00824049
0.00824266
0.00824687
0.00825744
0.0082813
0.00829489
0.00830614
0.00830943
0.00830882
0.00830595
0.00829236
0.00820852
0.00778084
0.00630677
0.00630641
0.00778006
0.00820704
0.00829026
0.00830325
0.00830565
0.00830689
0.00830719
0.00830188
0.00827889
0.0082356
0.00825107
0.00824577
0.00824039
0.0082374
0.00823538
0.00823414
0.00823354
0.0082335
0.00823405
0.00823526
0.00823727
0.00824027
0.00824567
0.00825097
0.00823558
0.00827893
0.00830198
0.00830722
0.00830554
0.00829218
0.00820843
0.00778085
0.00630682
0.00630643
0.00778007
0.00820698
0.00829014
0.00830306
0.00830529
0.0083056
0.00830003
0.00826455
0.00813288
0.00789449
0.00809408
0.00818817
0.00820864
0.00821082
0.00820915
0.00820792
0.00820739
0.00820736
0.00820784
0.00820904
0.0082107
0.00820853
0.00818811
0.0080941
0.00789456
0.00813299
0.0082647
0.0083001
0.00830429
0.00829186
0.00820831
0.00778085
0.00630685
0.00630644
0.00778007
0.0082069
0.00828999
0.00830281
0.00830462
0.00830203
0.00827673
0.008133
0.00757282
0.00652016
0.00751257
0.00799442
0.00810436
0.00812209
0.00812186
0.0081208
0.00812037
0.00812035
0.00812073
0.00812176
0.00812196
0.00810423
0.00799437
0.00751276
0.00652015
0.00757299
0.0081332
0.00827685
0.00830075
0.00829123
0.00820813
0.00778085
0.00630686
0.00630643
0.00778006
0.00820682
0.00828982
0.00830251
0.00830372
0.00829675
0.00823964
0.00790183
0.00652249
0.00649385
0.00768368
0.00794484
0.00798367
0.00798774
0.00798793
0.00798788
0.00798785
0.00798782
0.00798755
0.00798338
0.00794444
0.00768316
0.00649344
0.00652247
0.00790202
0.0082398
0.00829552
0.00829038
0.00820791
0.00778082
0.00630685
0.00630642
0.00778004
0.00820672
0.00828967
0.00830233
0.00830393
0.00830104
0.0082755
0.00813221
0.00757482
0.00652117
0.00752667
0.00800816
0.00811644
0.00813315
0.00813515
0.0081354
0.00813544
0.0081354
0.00813525
0.00813482
0.0081324
0.00811493
0.0080053
0.00752506
0.00652092
0.00757492
0.00813245
0.00827569
0.00829984
0.00829061
0.00820778
0.00778077
0.00630682
0.00630639
0.00778
0.00820663
0.00828952
0.00830216
0.00830401
0.00830383
0.00829774
0.00826231
0.00813236
0.00789905
0.00811052
0.00821511
0.00823386
0.00823518
0.00823461
0.00823443
0.00823441
0.00823436
0.00823425
0.0082341
0.00823364
0.00822966
0.00820571
0.0081049
0.00789702
0.00813198
0.00826247
0.00829794
0.00830265
0.00829072
0.00820765
0.00778071
0.00630677
0.00630636
0.00777992
0.00820644
0.00828927
0.00830186
0.00830375
0.00830432
0.00830384
0.00829812
0.0082761
0.00823848
0.00826645
0.00827288
0.00825792
0.00825193
0.00825013
0.00824964
0.0082495
0.00824945
0.00824944
0.00824954
0.00824989
0.00825083
0.00825289
0.00825389
0.00823358
0.00827491
0.00829811
0.00830403
0.00830316
0.00829048
0.00820741
0.00778059
0.0063067
0.0063063
0.00777925
0.00820519
0.00828778
0.00830029
0.00830214
0.0083028
0.00830334
0.00830322
0.00830071
0.00829538
0.00829506
0.00828516
0.00826615
0.00825934
0.00825756
0.00825717
0.00825709
0.00825706
0.00825703
0.00825706
0.00825739
0.00825899
0.00826525
0.00828211
0.00829029
0.00829949
0.00830323
0.00830354
0.00830165
0.00828892
0.00820609
0.00777988
0.00630661
0.00630588
0.00777281
0.00819456
0.00827579
0.00828798
0.00828973
0.00829035
0.00829096
0.00829158
0.0082919
0.00829147
0.00828991
0.008284
0.00827382
0.00826968
0.00826857
0.00826845
0.00826849
0.00826849
0.00826841
0.00826829
0.00826833
0.00826933
0.00827334
0.00828323
0.00828888
0.00829143
0.00829178
0.00829121
0.00828925
0.00827684
0.0081954
0.0077734
0.00630617
0.00630207
0.00772296
0.00812036
0.00819471
0.00820553
0.00820704
0.00820756
0.00820808
0.00820869
0.00820928
0.00820966
0.00820932
0.00820743
0.00820398
0.00820252
0.00820217
0.00820221
0.00820228
0.0082023
0.00820223
0.0082021
0.008202
0.00820229
0.00820369
0.00820707
0.00820889
0.00820934
0.008209
0.00820836
0.00820666
0.00819565
0.00812112
0.0077235
0.00630233
0.00627626
0.00742917
0.00772309
0.00777309
0.00777969
0.00778058
0.00778095
0.00778134
0.00778178
0.00778222
0.0077826
0.0077827
0.00778236
0.00778148
0.00778108
0.00778093
0.00778092
0.00778093
0.00778093
0.00778091
0.00778088
0.00778088
0.00778099
0.00778137
0.00778221
0.00778252
0.00778241
0.00778205
0.00778159
0.00778057
0.00777383
0.0077237
0.00742961
0.00627649
0.00617568
0.0062763
0.00630217
0.00630605
0.00630656
0.00630675
0.00630694
0.00630716
0.00630742
0.00630769
0.00630795
0.00630815
0.00630826
0.00630822
0.00630815
0.00630806
0.00630795
0.00630785
0.00630781
0.00630785
0.00630794
0.00630804
0.00630811
0.00630815
0.00630817
0.00630803
0.00630781
0.00630755
0.00630728
0.00630702
0.00630643
0.00630248
0.00627654
0.00617586
0.00850605
0.00917535
0.00936868
0.00940301
0.0094075
0.00940796
0.00940801
0.00940804
0.00940807
0.00940809
0.00940812
0.00940813
0.00940814
0.00940815
0.00940814
0.00940814
0.00940814
0.00940814
0.00940813
0.00940813
0.00940814
0.00940814
0.00940814
0.00940813
0.00940812
0.00940811
0.00940808
0.00940806
0.009408
0.00940754
0.00940305
0.00936873
0.00917539
0.00850611
0.00917536
0.0144782
0.0156014
0.0158274
0.0158632
0.0158677
0.0158681
0.0158681
0.015868
0.015868
0.0158679
0.0158678
0.0158677
0.0158676
0.0158676
0.0158675
0.0158675
0.0158674
0.0158674
0.0158675
0.0158675
0.0158676
0.0158676
0.0158677
0.0158678
0.0158679
0.015868
0.015868
0.0158676
0.0158632
0.0158274
0.0156014
0.0144781
0.00917541
0.00936876
0.0156016
0.0170178
0.0173282
0.0173822
0.0173897
0.0173906
0.0173907
0.0173908
0.0173908
0.0173909
0.017391
0.017391
0.0173911
0.0173911
0.0173912
0.0173912
0.0173912
0.0173912
0.0173912
0.0173912
0.0173912
0.0173911
0.0173911
0.017391
0.0173909
0.0173909
0.0173907
0.0173899
0.0173824
0.0173283
0.0170179
0.0156017
0.00936886
0.00940312
0.0158277
0.0173283
0.0176666
0.0177273
0.017736
0.0177371
0.0177373
0.0177374
0.0177376
0.0177377
0.017738
0.0177382
0.0177383
0.0177385
0.0177386
0.0177387
0.0177387
0.0177387
0.0177387
0.0177386
0.0177385
0.0177384
0.0177382
0.017738
0.0177378
0.0177376
0.0177374
0.0177363
0.0177276
0.0176669
0.0173285
0.0158278
0.00940327
0.00940765
0.0158635
0.0173824
0.0177273
0.0177897
0.0177988
0.0177999
0.0178002
0.0178003
0.0178003
0.0178002
0.0178007
0.0178012
0.0178015
0.0178017
0.0178019
0.017802
0.0178021
0.0178021
0.017802
0.0178019
0.0178018
0.0178015
0.0178012
0.0178008
0.0178003
0.0178004
0.0178003
0.0177992
0.0177901
0.0177276
0.0173826
0.0158637
0.00940783
0.00940813
0.015868
0.0173898
0.017736
0.0177988
0.0178079
0.0178091
0.0178092
0.0178087
0.0178067
0.017804
0.0178062
0.017808
0.0178088
0.0178093
0.0178095
0.0178096
0.0178096
0.0178096
0.0178096
0.0178095
0.0178093
0.0178089
0.017808
0.0178062
0.0178041
0.0178068
0.0178087
0.0178082
0.0177992
0.0177364
0.0173901
0.0158681
0.00940835
0.0094082
0.0158683
0.0173907
0.0177371
0.0177999
0.0178091
0.0178101
0.0178091
0.0178034
0.0177867
0.017765
0.01778
0.0177918
0.017796
0.0177974
0.0177975
0.0177974
0.0177974
0.0177974
0.0177975
0.0177975
0.0177975
0.0177961
0.0177919
0.0177801
0.0177651
0.0177868
0.0178034
0.0178081
0.0178002
0.0177375
0.017391
0.0158685
0.00940846
0.00940824
0.0158683
0.0173908
0.0177373
0.0178001
0.0178092
0.017809
0.0178011
0.0177657
0.017664
0.0175276
0.0176303
0.0177045
0.0177286
0.0177345
0.0177346
0.0177341
0.0177339
0.0177339
0.0177341
0.0177346
0.0177346
0.0177286
0.0177046
0.0176304
0.0175277
0.0176641
0.0177657
0.0178001
0.0177991
0.0177376
0.0173911
0.0158685
0.00940853
0.00940827
0.0158682
0.0173908
0.0177374
0.0178002
0.0178085
0.0178033
0.0177659
0.0176016
0.0171093
0.016377
0.0169928
0.0173739
0.0174874
0.0175114
0.0175136
0.0175131
0.0175128
0.0175128
0.0175131
0.0175136
0.0175114
0.0174875
0.017374
0.0169929
0.016377
0.0171094
0.0176017
0.0177649
0.0177934
0.0177369
0.0173911
0.0158683
0.00940859
0.00940828
0.0158681
0.0173908
0.0177374
0.0178001
0.0178065
0.017787
0.017666
0.0171138
0.0152099
0.0106797
0.0149347
0.0165054
0.0169025
0.0169755
0.0169883
0.0169899
0.01699
0.01699
0.0169899
0.0169883
0.0169755
0.0169025
0.0165056
0.014935
0.0106795
0.01521
0.0171138
0.017665
0.0177771
0.0177349
0.0173909
0.0158681
0.00940862
0.00940828
0.0158679
0.0173908
0.0177375
0.0177999
0.0178041
0.0177673
0.0175381
0.0164053
0.0107109
0.0104805
0.0153716
0.0162225
0.0163699
0.0163879
0.0163889
0.0163887
0.0163887
0.0163889
0.0163879
0.0163699
0.0162226
0.0153719
0.0104808
0.010711
0.0164053
0.0175371
0.0177574
0.0177324
0.0173906
0.0158679
0.00940863
0.00940826
0.0158678
0.0173908
0.0177376
0.0178004
0.017807
0.0177875
0.017666
0.017111
0.015196
0.0106761
0.0148845
0.0164527
0.0168489
0.016929
0.016926
0.0169205
0.0169187
0.0169186
0.0169205
0.0169259
0.0169289
0.0168488
0.0164526
0.0148844
0.0106757
0.0151956
0.0171109
0.017665
0.0177776
0.0177352
0.0173908
0.0158675
0.0094086
0.00940823
0.0158676
0.0173908
0.0177378
0.0178008
0.0178095
0.0178044
0.0177667
0.0175998
0.0170977
0.0163428
0.0169046
0.0172171
0.0173007
0.0173156
0.01731
0.0173057
0.0173042
0.0173041
0.0173057
0.0173099
0.0173155
0.0173006
0.0172169
0.0169043
0.0163425
0.0170975
0.0175997
0.0177657
0.0177945
0.0177377
0.0173911
0.0158673
0.00940855
0.0094082
0.0158675
0.0173908
0.0177378
0.0178011
0.0178105
0.0178107
0.0178027
0.0177648
0.0176522
0.0174826
0.0175102
0.0174784
0.0174558
0.0174462
0.0174408
0.0174381
0.0174371
0.0174371
0.0174381
0.0174407
0.0174461
0.0174557
0.0174783
0.01751
0.0174824
0.0176521
0.0177648
0.0178017
0.0178008
0.0177387
0.0173911
0.0158671
0.00940848
0.00940815
0.0158674
0.0173908
0.0177379
0.0178012
0.0178109
0.0178124
0.0178114
0.0178032
0.0177748
0.0177156
0.0176465
0.0175401
0.0174923
0.0174769
0.0174718
0.0174698
0.0174692
0.0174692
0.0174698
0.0174717
0.0174768
0.0174923
0.0175399
0.0176464
0.0177156
0.0177748
0.0178032
0.0178104
0.0178024
0.017739
0.0173912
0.0158669
0.00940841
0.00940811
0.0158673
0.0173908
0.017738
0.0178013
0.017811
0.0178128
0.0178131
0.0178102
0.0177962
0.0177549
0.0176706
0.0175515
0.0174994
0.0174829
0.017478
0.0174763
0.0174757
0.0174757
0.0174763
0.017478
0.0174828
0.0174993
0.0175514
0.0176705
0.0177548
0.0177962
0.0178102
0.0178121
0.0178028
0.0177391
0.0173912
0.0158668
0.00940834
0.00940807
0.0158673
0.0173908
0.017738
0.0178014
0.0178111
0.0178129
0.0178134
0.0178113
0.0177994
0.0177605
0.0176742
0.0175535
0.0175008
0.0174842
0.0174794
0.0174777
0.0174771
0.0174771
0.0174777
0.0174793
0.0174841
0.0175007
0.0175534
0.0176741
0.0177605
0.0177994
0.0178113
0.0178124
0.017803
0.0177392
0.0173912
0.0158667
0.00940828
0.00940803
0.0158672
0.0173908
0.0177381
0.0178015
0.0178112
0.017813
0.0178135
0.0178115
0.0177999
0.0177613
0.0176748
0.0175539
0.0175012
0.0174846
0.0174797
0.0174781
0.0174775
0.0174775
0.0174781
0.0174797
0.0174845
0.0175011
0.0175538
0.0176747
0.0177612
0.0177999
0.0178115
0.0178126
0.0178031
0.0177393
0.0173912
0.0158666
0.00940823
0.00940802
0.0158672
0.0173908
0.0177381
0.0178015
0.0178112
0.0178131
0.0178136
0.0178116
0.0177999
0.0177613
0.0176748
0.017554
0.0175012
0.0174846
0.0174798
0.0174781
0.0174775
0.0174775
0.0174781
0.0174797
0.0174846
0.0175011
0.0175539
0.0176747
0.0177613
0.0177999
0.0178116
0.0178126
0.0178031
0.0177393
0.0173912
0.0158666
0.0094082
0.00940802
0.0158672
0.0173908
0.0177381
0.0178015
0.0178112
0.017813
0.0178135
0.0178114
0.0177995
0.0177607
0.0176744
0.0175537
0.0175009
0.0174843
0.0174795
0.0174778
0.0174772
0.0174772
0.0174778
0.0174794
0.0174843
0.0175009
0.0175536
0.0176743
0.0177606
0.0177996
0.0178114
0.0178126
0.0178031
0.0177393
0.0173912
0.0158667
0.00940821
0.00940804
0.0158673
0.0173908
0.0177381
0.0178014
0.0178112
0.0178129
0.0178133
0.0178104
0.0177965
0.0177552
0.0176709
0.0175519
0.0174997
0.0174832
0.0174782
0.0174765
0.0174759
0.0174759
0.0174765
0.0174782
0.0174831
0.0174997
0.0175518
0.0176709
0.0177552
0.0177965
0.0178104
0.0178123
0.017803
0.0177393
0.0173913
0.0158667
0.00940824
0.00940807
0.0158673
0.0173908
0.017738
0.0178014
0.017811
0.0178126
0.0178117
0.0178036
0.0177753
0.0177162
0.0176471
0.0175408
0.017493
0.0174775
0.0174724
0.0174704
0.0174697
0.0174697
0.0174704
0.0174724
0.0174775
0.017493
0.0175407
0.0176471
0.0177163
0.0177754
0.0178036
0.0178107
0.0178027
0.0177392
0.0173913
0.0158668
0.0094083
0.00940811
0.0158674
0.0173908
0.017738
0.0178013
0.0178107
0.017811
0.0178031
0.0177653
0.017653
0.0174839
0.0175114
0.0174797
0.017457
0.0174474
0.017442
0.0174394
0.0174384
0.0174384
0.0174394
0.017442
0.0174475
0.0174571
0.0174798
0.0175115
0.017484
0.0176531
0.0177654
0.0178021
0.0178011
0.0177389
0.0173913
0.015867
0.00940836
0.00940815
0.0158676
0.0173908
0.0177379
0.0178011
0.0178098
0.0178048
0.0177672
0.0176006
0.0170994
0.0163459
0.016907
0.0172192
0.0173028
0.0173178
0.0173123
0.0173081
0.0173066
0.0173066
0.0173082
0.0173124
0.0173179
0.017303
0.0172194
0.0169073
0.0163461
0.0170995
0.0176007
0.0177663
0.0177949
0.017738
0.0173912
0.0158672
0.00940842
0.00940817
0.0158677
0.0173909
0.0177378
0.0178007
0.0178073
0.017788
0.0176666
0.0171121
0.0151985
0.0106789
0.0148871
0.0164542
0.0168507
0.016931
0.0169281
0.0169228
0.016921
0.016921
0.0169229
0.0169282
0.0169312
0.0168509
0.0164544
0.0148878
0.0106789
0.0151988
0.0171122
0.0176658
0.0177781
0.0177356
0.017391
0.0158674
0.00940847
0.00940819
0.0158679
0.0173909
0.0177377
0.0178002
0.0178045
0.0177678
0.0175387
0.0164058
0.0107104
0.0104769
0.0153661
0.0162172
0.0163642
0.0163819
0.0163828
0.0163825
0.0163825
0.0163827
0.0163818
0.0163638
0.0162163
0.0153643
0.0104755
0.0107101
0.0164059
0.0175378
0.017758
0.0177328
0.0173907
0.0158677
0.00940849
0.0094082
0.015868
0.0173909
0.0177377
0.0178004
0.0178069
0.0177876
0.0176667
0.0171146
0.015211
0.0106816
0.0149253
0.0164913
0.0168798
0.016948
0.0169597
0.0169612
0.0169612
0.0169612
0.016961
0.0169593
0.0169465
0.0168751
0.0164814
0.014918
0.01068
0.0152104
0.0171145
0.0176658
0.0177778
0.0177354
0.0173911
0.0158679
0.00940849
0.00940819
0.0158681
0.0173908
0.0177375
0.0178005
0.017809
0.0178038
0.0177665
0.0176023
0.0171094
0.0163736
0.0169754
0.0173295
0.017404
0.0174096
0.0174083
0.0174074
0.0174071
0.017407
0.0174071
0.0174071
0.0174047
0.017387
0.0172907
0.0169474
0.0163619
0.0171058
0.0176015
0.0177655
0.017794
0.0177374
0.0173912
0.0158681
0.00940847
0.00940814
0.0158677
0.01739
0.0177365
0.0177994
0.0178086
0.0178086
0.0178008
0.0177652
0.0176617
0.0175176
0.0175945
0.0176098
0.0175497
0.0175205
0.0175119
0.0175098
0.0175094
0.0175093
0.0175094
0.0175098
0.0175111
0.0175152
0.0175258
0.0175353
0.0174922
0.0176539
0.0177633
0.0177995
0.0177988
0.0177371
0.0173905
0.0158677
0.0094084
0.00940767
0.0158633
0.0173826
0.0177278
0.0177904
0.0177996
0.0178008
0.0177999
0.0177939
0.0177753
0.0177453
0.0177333
0.0176828
0.0175987
0.0175639
0.0175544
0.0175524
0.017552
0.0175519
0.0175519
0.0175522
0.0175541
0.0175627
0.0175946
0.017671
0.0177185
0.017767
0.017792
0.0177986
0.017791
0.0177285
0.017383
0.0158634
0.00940791
0.00940317
0.0158275
0.0173285
0.0176671
0.017728
0.0177369
0.0177381
0.0177384
0.0177377
0.0177346
0.017727
0.0177135
0.0176796
0.0176312
0.01761
0.017604
0.0176027
0.0176025
0.0176024
0.0176024
0.0176026
0.0176039
0.0176097
0.0176305
0.017678
0.0177115
0.0177298
0.0177366
0.0177373
0.0177287
0.0176678
0.0173289
0.0158275
0.00940338
0.00936882
0.0156015
0.017018
0.0173287
0.0173829
0.0173905
0.0173915
0.0173918
0.0173919
0.0173913
0.0173892
0.0173833
0.0173697
0.0173509
0.0173418
0.017339
0.0173383
0.0173381
0.0173381
0.0173381
0.0173383
0.017339
0.0173418
0.0173508
0.0173695
0.0173831
0.0173895
0.0173915
0.017391
0.0173835
0.0173292
0.0170183
0.0156015
0.009369
0.00917544
0.0144781
0.0156017
0.0158278
0.0158637
0.0158683
0.0158688
0.0158688
0.0158688
0.0158685
0.0158676
0.0158654
0.015861
0.015855
0.0158517
0.0158503
0.0158498
0.0158495
0.0158495
0.0158496
0.0158499
0.0158505
0.015852
0.0158553
0.0158613
0.0158657
0.0158678
0.0158686
0.0158684
0.015864
0.015828
0.0156017
0.014478
0.00917558
0.00850616
0.00917546
0.00936891
0.00940334
0.00940794
0.00940851
0.0094087
0.00940889
0.00940909
0.00940927
0.0094094
0.00940935
0.00940901
0.00940837
0.00940795
0.0094077
0.00940753
0.00940743
0.00940739
0.00940744
0.00940754
0.00940771
0.00940795
0.00940835
0.00940896
0.00940928
0.0094093
0.00940916
0.00940894
0.0094083
0.00940364
0.00936913
0.0091756
0.0085063
0.00890756
0.00985509
0.0101578
0.0102177
0.0102265
0.0102275
0.0102276
0.0102276
0.0102277
0.0102277
0.0102277
0.0102277
0.0102277
0.0102277
0.0102277
0.0102276
0.0102276
0.0102276
0.0102276
0.0102276
0.0102276
0.0102277
0.0102277
0.0102277
0.0102277
0.0102277
0.0102277
0.0102276
0.0102275
0.0102265
0.0102177
0.0101578
0.00985513
0.00890762
0.0098551
0.016561
0.0180691
0.0184035
0.0184627
0.018471
0.0184719
0.0184718
0.0184717
0.0184716
0.0184715
0.0184713
0.0184711
0.0184709
0.0184708
0.0184707
0.0184706
0.0184705
0.0184705
0.0184706
0.0184707
0.0184708
0.0184709
0.0184711
0.0184712
0.0184714
0.0184716
0.0184716
0.0184708
0.0184625
0.0184033
0.0180689
0.0165609
0.00985513
0.0101578
0.0180693
0.0199678
0.0204252
0.020514
0.0205278
0.0205295
0.0205297
0.0205297
0.0205297
0.0205296
0.0205296
0.0205296
0.0205295
0.0205295
0.0205295
0.0205295
0.0205295
0.0205295
0.0205295
0.0205295
0.0205295
0.0205295
0.0205296
0.0205296
0.0205296
0.0205297
0.0205295
0.0205278
0.020514
0.0204252
0.0199678
0.0180693
0.0101579
0.0102178
0.0184038
0.0204253
0.0209268
0.0210272
0.0210434
0.0210455
0.0210458
0.0210459
0.0210459
0.0210459
0.021046
0.0210461
0.0210461
0.0210462
0.0210463
0.0210463
0.0210463
0.0210463
0.0210463
0.0210463
0.0210462
0.0210462
0.0210461
0.021046
0.0210459
0.0210459
0.0210457
0.0210435
0.0210274
0.0209269
0.0204254
0.0184038
0.0102179
0.0102266
0.018463
0.0205141
0.0210273
0.0211309
0.0211478
0.0211501
0.0211503
0.0211503
0.0211498
0.0211492
0.0211494
0.0211497
0.0211499
0.0211501
0.0211501
0.0211501
0.0211501
0.0211501
0.0211501
0.0211501
0.0211501
0.0211499
0.0211497
0.0211495
0.0211492
0.0211498
0.0211501
0.021148
0.0211311
0.0210274
0.0205143
0.0184631
0.0102268
0.0102277
0.0184713
0.0205279
0.0210434
0.0211478
0.0211648
0.0211671
0.021167
0.0211654
0.021161
0.0211554
0.0211569
0.0211586
0.0211594
0.0211598
0.0211597
0.0211595
0.0211594
0.0211594
0.0211595
0.0211597
0.0211598
0.0211594
0.0211586
0.0211569
0.0211554
0.021161
0.0211652
0.0211646
0.021148
0.0210436
0.0205281
0.0184714
0.0102279
0.0102278
0.0184722
0.0205297
0.0210456
0.0211501
0.0211671
0.0211689
0.0211662
0.0211548
0.0211253
0.0210884
0.0211018
0.0211146
0.0211196
0.0211216
0.0211206
0.0211197
0.0211193
0.0211193
0.0211197
0.0211206
0.0211216
0.0211196
0.0211146
0.0211019
0.0210885
0.0211253
0.0211546
0.0211638
0.0211497
0.0210457
0.0205298
0.0184722
0.010228
0.0102278
0.0184721
0.0205298
0.0210458
0.0211503
0.0211669
0.0211662
0.0211507
0.0210896
0.0209303
0.0207284
0.0208275
0.0209082
0.0209367
0.0209455
0.0209429
0.0209402
0.0209393
0.0209393
0.0209403
0.0209429
0.0209455
0.0209367
0.0209082
0.0208275
0.0207284
0.0209303
0.0210894
0.0211483
0.0211471
0.0210456
0.0205299
0.0184721
0.0102281
0.0102278
0.018472
0.0205298
0.0210458
0.0211502
0.0211654
0.0211551
0.0210905
0.0208358
0.0201391
0.019166
0.0197907
0.0201971
0.0203242
0.0203537
0.0203534
0.0203501
0.0203488
0.0203488
0.0203501
0.0203534
0.0203537
0.0203242
0.0201972
0.0197908
0.0191661
0.0201392
0.0208356
0.0210882
0.021136
0.0210439
0.0205296
0.0184719
0.0102281
0.0102278
0.0184718
0.0205297
0.0210458
0.0211497
0.0211613
0.0211274
0.0209377
0.0201543
0.0176538
0.011918
0.0167692
0.0184432
0.0188654
0.0189314
0.018959
0.0189634
0.0189636
0.0189636
0.0189634
0.018959
0.0189314
0.0188654
0.0184433
0.0167695
0.0119179
0.0176538
0.0201541
0.0209353
0.0211082
0.0210398
0.020529
0.0184715
0.0102281
0.0102278
0.0184715
0.0205296
0.0210458
0.0211493
0.021157
0.0210974
0.020763
0.019258
0.012043
0.0111017
0.0161449
0.0170185
0.0171757
0.0171903
0.0171896
0.017189
0.017189
0.0171896
0.0171903
0.0171758
0.0170187
0.0161452
0.011102
0.0120432
0.0192578
0.0207605
0.0210783
0.0210354
0.0205283
0.018471
0.0102281
0.0102278
0.0184713
0.0205295
0.0210459
0.0211499
0.0211615
0.0211275
0.020937
0.0201493
0.017634
0.011905
0.0166874
0.0183754
0.0188172
0.0189605
0.0189021
0.0188804
0.0188755
0.0188754
0.0188803
0.018902
0.0189604
0.0188171
0.0183753
0.0166872
0.0119046
0.0176335
0.0201489
0.0209345
0.0211083
0.0210398
0.0205286
0.0184705
0.010228
0.0102277
0.0184711
0.0205294
0.021046
0.0211506
0.0211659
0.0211555
0.0210895
0.0208279
0.0201068
0.0190655
0.0195392
0.0197639
0.0198269
0.0198524
0.0198314
0.019821
0.019818
0.019818
0.019821
0.0198313
0.0198523
0.0198268
0.0197638
0.019539
0.0190652
0.0201065
0.0208276
0.0210871
0.0211363
0.0210441
0.020529
0.0184701
0.0102279
0.0102277
0.0184708
0.0205294
0.021046
0.0211509
0.0211677
0.0211669
0.0211496
0.0210793
0.0208848
0.0205778
0.0204503
0.0202362
0.020152
0.0201324
0.0201225
0.0201183
0.020117
0.020117
0.0201183
0.0201225
0.0201324
0.0201519
0.0202361
0.0204503
0.0205777
0.0208847
0.0210791
0.0211472
0.0211477
0.0210459
0.0205291
0.0184698
0.0102278
0.0102276
0.0184707
0.0205293
0.021046
0.021151
0.0211683
0.02117
0.0211655
0.0211437
0.0210736
0.0209155
0.0206708
0.0203495
0.0202258
0.0201948
0.020187
0.0201847
0.020184
0.020184
0.0201847
0.020187
0.0201947
0.0202257
0.0203495
0.0206709
0.0209155
0.0210735
0.0211435
0.021163
0.0211507
0.0210464
0.0205291
0.0184695
0.0102278
0.0102276