/*--------------------------------*- C++ -*----------------------------------*\
| =========                 |                                                 |
| \\      /  F ield         | OpenFOAM: The Open Source CFD Toolbox           |
|  \\    /   O peration     | Version:  2112                                  |
|   \\  /    A nd           | Website:  www.openfoam.com                      |
|    \\/     M anipulation  |                                                 |
\*---------------------------------------------------------------------------*/
FoamFile
{
    version     2.0;
    format      ascii;
    arch        "LSB;label=32;scalar=64";
    class       volScalarField;
    location    "0.7";
    object      nut;
}
// * * * * * * * * * * * * * * * * * * * * * * * * * * * * * * * * * * * * * //

dimensions      [0 2 -1 0 0 0 0];

internalField   nonuniform List<scalar> 
64906
(
0.000169041
0.000171026
0.000171605
0.000171704
0.000171717
0.000171719
0.000171719
0.00017172
0.000171721
0.000171722
0.000171722
0.000171723
0.000171723
0.000171724
0.000171724
0.000171724
0.000171724
0.000171724
0.000171724
0.000171724
0.000171724
0.000171724
0.000171724
0.000171723
0.000171723
0.000171722
0.000171721
0.000171721
0.00017172
0.000171718
0.000171706
0.000171606
0.000171027
0.000169043
0.000171027
0.000189966
0.000195189
0.000196217
0.000196374
0.000196393
0.000196396
0.000196397
0.000196398
0.0001964
0.000196401
0.000196403
0.000196404
0.000196405
0.000196406
0.000196407
0.000196407
0.000196407
0.000196407
0.000196407
0.000196407
0.000196406
0.000196405
0.000196404
0.000196403
0.000196402
0.0001964
0.000196399
0.000196396
0.000196376
0.00019622
0.000195192
0.000189969
0.000171028
0.000171606
0.00019519
0.000202232
0.000203753
0.000204008
0.000204043
0.000204048
0.000204051
0.000204053
0.000204056
0.000204059
0.000204062
0.000204066
0.000204068
0.000204071
0.000204072
0.000204074
0.000204074
0.000204074
0.000204074
0.000204073
0.000204071
0.000204069
0.000204066
0.000204063
0.00020406
0.000204057
0.000204054
0.000204048
0.000204013
0.000203758
0.000202236
0.000195194
0.000171608
0.000171706
0.00019622
0.000203754
0.000205433
0.000205723
0.000205764
0.000205771
0.000205774
0.000205778
0.000205782
0.000205787
0.000205792
0.000205797
0.000205802
0.000205806
0.000205809
0.000205811
0.000205812
0.000205812
0.000205811
0.000205809
0.000205806
0.000205803
0.000205798
0.000205793
0.000205788
0.000205783
0.000205779
0.000205771
0.000205729
0.000205439
0.00020376
0.000196224
0.000171709
0.000171719
0.000196376
0.000204009
0.000205723
0.000206022
0.000206066
0.000206073
0.000206078
0.000206082
0.000206087
0.000206093
0.000206102
0.00020611
0.000206117
0.000206123
0.000206127
0.00020613
0.000206131
0.000206131
0.00020613
0.000206127
0.000206123
0.000206118
0.000206111
0.000206103
0.000206094
0.000206088
0.000206083
0.000206075
0.00020603
0.000205731
0.000204016
0.000196382
0.000171722
0.000171721
0.000196396
0.000204044
0.000205765
0.000206066
0.00020611
0.000206118
0.000206123
0.000206126
0.000206124
0.00020612
0.000206141
0.000206159
0.000206171
0.00020618
0.000206186
0.000206189
0.000206191
0.000206191
0.00020619
0.000206186
0.00020618
0.000206172
0.00020616
0.000206142
0.000206122
0.000206126
0.000206128
0.000206121
0.000206075
0.000205773
0.000204052
0.000196402
0.000171725
0.000171722
0.000196398
0.00020405
0.000205771
0.000206073
0.000206118
0.000206127
0.000206128
0.000206109
0.00020604
0.000205945
0.000206041
0.000206113
0.000206145
0.000206161
0.000206168
0.000206173
0.000206175
0.000206175
0.000206173
0.000206169
0.000206161
0.000206145
0.000206114
0.000206042
0.000205946
0.000206042
0.000206111
0.000206126
0.000206084
0.000205782
0.000204059
0.000196406
0.000171727
0.000171723
0.000196399
0.000204052
0.000205774
0.000206077
0.000206122
0.000206127
0.000206098
0.00020594
0.000205451
0.000204757
0.000205348
0.00020575
0.000205886
0.000205929
0.000205938
0.000205942
0.000205945
0.000205945
0.000205943
0.000205939
0.00020593
0.000205887
0.000205751
0.00020535
0.000204759
0.000205452
0.000205942
0.000206096
0.000206084
0.000205786
0.000204062
0.000196408
0.000171728
0.000171724
0.0001964
0.000204054
0.000205777
0.00020608
0.000206124
0.000206106
0.000205939
0.000205143
0.000202638
0.000198757
0.000202205
0.000204249
0.000204852
0.00020499
0.00020501
0.000205016
0.000205018
0.000205019
0.000205016
0.000205011
0.000204991
0.000204853
0.000204251
0.000202207
0.000198758
0.00020264
0.000205145
0.000205937
0.000206064
0.000205787
0.000204065
0.00019641
0.00017173
0.000171724
0.000196401
0.000204055
0.00020578
0.000206083
0.000206119
0.000206035
0.000205452
0.000202651
0.000193003
0.000175916
0.000192041
0.000200176
0.000202264
0.000202656
0.000202722
0.000202736
0.00020274
0.00020274
0.000202736
0.000202722
0.000202657
0.000202265
0.000200178
0.000192044
0.000175916
0.000193005
0.000202653
0.00020545
0.000205993
0.000205783
0.000204068
0.000196411
0.000171731
0.000171724
0.000196402
0.000204057
0.000205783
0.000206086
0.000206113
0.000205944
0.000204787
0.000198851
0.000175986
0.000175391
0.000194736
0.0001992
0.000199959
0.000200056
0.000200067
0.000200068
0.000200068
0.000200067
0.000200057
0.000199959
0.000199201
0.000194738
0.000175393
0.000175987
0.000198854
0.000204786
0.000205902
0.000205776
0.00020407
0.000196412
0.000171732
0.000171725
0.000196402
0.000204059
0.000205786
0.000206093
0.000206132
0.000206054
0.000205473
0.00020266
0.000192953
0.000175895
0.000191716
0.000199838
0.000201909
0.000202296
0.000202308
0.000202293
0.000202286
0.000202286
0.000202292
0.000202308
0.000202295
0.000201908
0.000199838
0.000191715
0.000175892
0.000192951
0.00020266
0.000205471
0.000206011
0.000205795
0.000204075
0.000196413
0.000171732
0.000171725
0.000196402
0.000204061
0.000205789
0.000206098
0.000206149
0.000206141
0.000205981
0.00020518
0.00020263
0.000198625
0.000201764
0.000203479
0.000203921
0.00020399
0.000203969
0.00020395
0.000203943
0.000203943
0.00020395
0.000203968
0.000203989
0.00020392
0.000203477
0.000201762
0.000198621
0.000202628
0.00020518
0.000205978
0.000206098
0.000205811
0.000204079
0.000196413
0.000171732
0.000171724
0.000196402
0.000204062
0.000205792
0.000206102
0.000206157
0.000206175
0.00020616
0.000206005
0.000205477
0.000204623
0.000204823
0.000204713
0.000204614
0.000204564
0.000204533
0.000204516
0.000204509
0.000204509
0.000204516
0.000204533
0.000204563
0.000204613
0.000204711
0.000204819
0.00020462
0.000205476
0.000206005
0.000206156
0.000206132
0.000205819
0.000204082
0.000196413
0.000171732
0.000171724
0.000196402
0.000204063
0.000205794
0.000206105
0.000206162
0.000206186
0.000206205
0.000206194
0.000206091
0.000205823
0.000205503
0.000205
0.000204777
0.000204696
0.000204661
0.000204643
0.000204634
0.000204634
0.000204642
0.00020466
0.000204695
0.000204775
0.000204998
0.000205499
0.000205821
0.00020609
0.000206194
0.000206201
0.000206143
0.000205824
0.000204084
0.000196413
0.000171731
0.000171723
0.000196402
0.000204064
0.000205795
0.000206107
0.000206165
0.000206191
0.000206216
0.000206231
0.000206199
0.000206023
0.000205627
0.000205054
0.000204809
0.000204721
0.000204684
0.000204663
0.000204652
0.000204652
0.000204662
0.000204683
0.00020472
0.000204807
0.000205052
0.000205623
0.000206021
0.000206197
0.000206231
0.000206213
0.000206148
0.000205827
0.000204086
0.000196413
0.00017173
0.000171723
0.000196402
0.000204064
0.000205796
0.000206109
0.000206167
0.000206194
0.000206221
0.00020624
0.000206217
0.000206055
0.00020565
0.000205065
0.000204816
0.000204727
0.000204688
0.000204665
0.000204651
0.00020465
0.000204664
0.000204686
0.000204725
0.000204814
0.000205063
0.000205647
0.000206053
0.000206216
0.00020624
0.000206217
0.000206151
0.000205829
0.000204087
0.000196413
0.000171729
0.000171722
0.000196401
0.000204065
0.000205797
0.00020611
0.000206168
0.000206196
0.000206223
0.000206243
0.000206222
0.000206062
0.000205656
0.000205068
0.000204818
0.000204728
0.000204689
0.000204664
0.000204648
0.000204647
0.000204662
0.000204687
0.000204727
0.000204816
0.000205066
0.000205653
0.000206059
0.000206221
0.000206243
0.00020622
0.000206152
0.00020583
0.000204087
0.000196413
0.000171728
0.000171722
0.000196401
0.000204065
0.000205797
0.00020611
0.000206169
0.000206196
0.000206224
0.000206244
0.000206223
0.000206063
0.000205658
0.000205069
0.000204819
0.000204729
0.000204688
0.000204663
0.000204646
0.000204645
0.000204661
0.000204686
0.000204727
0.000204817
0.000205067
0.000205654
0.000206061
0.000206222
0.000206244
0.00020622
0.000206153
0.00020583
0.000204088
0.000196413
0.000171728
0.000171722
0.000196401
0.000204065
0.000205797
0.00020611
0.000206169
0.000206196
0.000206223
0.000206243
0.000206221
0.000206059
0.000205655
0.000205067
0.000204817
0.000204727
0.000204687
0.000204662
0.000204645
0.000204644
0.00020466
0.000204685
0.000204725
0.000204815
0.000205065
0.000205651
0.000206057
0.00020622
0.000206243
0.00020622
0.000206153
0.00020583
0.000204088
0.000196413
0.000171728
0.000171722
0.000196402
0.000204065
0.000205797
0.000206109
0.000206167
0.000206194
0.00020622
0.000206236
0.000206205
0.000206031
0.000205635
0.000205058
0.000204811
0.000204722
0.000204683
0.000204659
0.000204645
0.000204644
0.000204657
0.000204681
0.00020472
0.000204809
0.000205056
0.000205632
0.000206029
0.000206205
0.000206237
0.000206217
0.000206151
0.000205829
0.000204087
0.000196414
0.000171728
0.000171723
0.000196402
0.000204064
0.000205796
0.000206108
0.000206165
0.00020619
0.00020621
0.000206202
0.0002061
0.000205835
0.000205515
0.000205006
0.000204781
0.000204697
0.00020466
0.000204638
0.000204626
0.000204625
0.000204636
0.000204658
0.000204696
0.000204779
0.000205004
0.000205513
0.000205834
0.0002061
0.000206203
0.000206208
0.000206148
0.000205827
0.000204086
0.000196414
0.000171729
0.000171723
0.000196402
0.000204063
0.000205794
0.000206105
0.000206162
0.00020618
0.000206167
0.000206015
0.000205492
0.000204643
0.000204842
0.000204722
0.00020462
0.000204566
0.000204532
0.000204511
0.000204501
0.000204501
0.00020451
0.00020453
0.000204565
0.000204618
0.00020472
0.000204841
0.000204643
0.000205493
0.000206016
0.000206165
0.000206138
0.000205824
0.000204085
0.000196414
0.00017173
0.000171723
0.000196402
0.000204063
0.000205792
0.000206102
0.000206154
0.000206147
0.00020599
0.000205193
0.000202652
0.00019866
0.000201791
0.000203491
0.000203928
0.000203993
0.000203968
0.000203947
0.000203938
0.000203938
0.000203946
0.000203967
0.000203992
0.000203927
0.00020349
0.000201792
0.000198661
0.000202654
0.000205196
0.000205989
0.000206106
0.000205817
0.000204083
0.000196414
0.000171731
0.000171724
0.000196402
0.000204061
0.00020579
0.000206098
0.000206139
0.000206062
0.000205484
0.000202676
0.000192981
0.000175916
0.000191733
0.000199841
0.000201909
0.000202294
0.000202303
0.000202285
0.000202277
0.000202277
0.000202284
0.000202302
0.000202292
0.000201908
0.000199841
0.000191737
0.000175916
0.000192984
0.000202679
0.000205484
0.000206021
0.000205803
0.00020408
0.000196414
0.000171731
0.000171724
0.000196402
0.00020406
0.000205787
0.000206092
0.00020612
0.000205952
0.000204797
0.000198861
0.000175988
0.000175367
0.000194696
0.000199161
0.000199916
0.000200008
0.000200014
0.000200014
0.000200013
0.000200013
0.000200005
0.000199911
0.000199154
0.000194685
0.000175359
0.000175987
0.000198864
0.000204797
0.000205912
0.000205785
0.000204076
0.000196414
0.000171731
0.000171723
0.000196402
0.000204059
0.000205785
0.00020609
0.000206128
0.000206047
0.000205466
0.000202668
0.000193026
0.000175942
0.000191999
0.000200105
0.000202137
0.000202495
0.000202545
0.000202552
0.000202552
0.000202552
0.000202549
0.000202539
0.000202481
0.000202106
0.000200046
0.000191963
0.000175936
0.000193027
0.000202672
0.000205467
0.000206007
0.000205793
0.000204075
0.000196414
0.00017173
0.000171723
0.000196402
0.000204057
0.000205782
0.000206088
0.000206134
0.00020612
0.000205956
0.000205164
0.000202662
0.000198771
0.000202145
0.000204054
0.000204446
0.000204482
0.000204473
0.000204469
0.000204469
0.000204468
0.000204466
0.000204463
0.00020445
0.000204355
0.000203852
0.000202015
0.000198721
0.00020265
0.000205165
0.000205956
0.00020608
0.000205799
0.000204073
0.000196413
0.000171729
0.000171722
0.000196399
0.000204052
0.000205776
0.000206081
0.000206129
0.000206137
0.000206113
0.000205959
0.000205466
0.000204742
0.000205208
0.000205319
0.000205014
0.000204882
0.000204842
0.000204831
0.000204829
0.000204828
0.000204828
0.00020483
0.000204837
0.000204854
0.000204893
0.000204923
0.000204626
0.000205434
0.000205955
0.000206113
0.000206098
0.000205795
0.000204068
0.00019641
0.000171728
0.000171721
0.00019638
0.000204018
0.000205735
0.000206038
0.000206086
0.000206098
0.000206104
0.000206089
0.000206016
0.000205888
0.000205857
0.000205629
0.000205218
0.000205062
0.000205021
0.000205011
0.00020501
0.000205009
0.000205009
0.00020501
0.000205018
0.000205055
0.000205196
0.000205561
0.000205765
0.000205983
0.000206086
0.000206104
0.000206059
0.000205754
0.000204032
0.000196391
0.000171726
0.000171708
0.000196224
0.000203763
0.000205445
0.000205739
0.000205784
0.000205796
0.000205806
0.000205814
0.000205812
0.000205792
0.000205744
0.000205599
0.000205367
0.000205269
0.000205242
0.000205238
0.000205239
0.000205239
0.000205237
0.000205236
0.000205239
0.000205264
0.000205359
0.000205583
0.000205725
0.000205796
0.000205815
0.000205807
0.000205759
0.000205462
0.000203776
0.000196234
0.000171713
0.000171608
0.000195195
0.000202241
0.000203765
0.000204024
0.000204063
0.000204073
0.000204081
0.000204091
0.000204099
0.000204101
0.000204085
0.000204034
0.000203951
0.000203913
0.000203903
0.000203903
0.000203904
0.000203904
0.000203903
0.000203901
0.000203901
0.00020391
0.000203946
0.000204028
0.000204079
0.000204096
0.000204095
0.000204084
0.000204042
0.000203781
0.000202253
0.000195204
0.000171613
0.000171029
0.000189972
0.000195198
0.000196229
0.000196388
0.000196411
0.000196418
0.000196424
0.000196431
0.000196438
0.000196443
0.000196442
0.00019643
0.000196408
0.000196398
0.000196394
0.000196393
0.000196393
0.000196393
0.000196393
0.000196393
0.000196393
0.000196396
0.000196407
0.000196428
0.000196439
0.00019644
0.000196435
0.000196427
0.000196403
0.000196241
0.000195208
0.000189979
0.000171033
0.000169044
0.00017103
0.00017161
0.000171711
0.000171726
0.000171729
0.000171733
0.000171737
0.000171741
0.000171746
0.000171751
0.000171754
0.000171755
0.000171754
0.000171752
0.000171751
0.000171749
0.000171747
0.000171746
0.000171747
0.000171749
0.00017175
0.000171752
0.000171753
0.000171754
0.000171752
0.000171748
0.000171744
0.000171739
0.000171734
0.000171718
0.000171616
0.000171034
0.000169047
0.000257478
0.000270447
0.000274604
0.000275456
0.000275586
0.000275602
0.000275604
0.000275604
0.000275605
0.000275605
0.000275606
0.000275606
0.000275606
0.000275606
0.000275606
0.000275606
0.000275606
0.000275606
0.000275606
0.000275606
0.000275606
0.000275606
0.000275606
0.000275606
0.000275606
0.000275605
0.000275605
0.000275604
0.000275603
0.000275587
0.000275457
0.000274605
0.000270448
0.000257479
0.000270447
0.000707066
0.000799574
0.000817893
0.0008209
0.000821297
0.000821336
0.000821334
0.000821327
0.000821318
0.000821308
0.000821296
0.000821285
0.000821273
0.000821264
0.000821256
0.000821251
0.000821249
0.000821248
0.000821251
0.000821256
0.000821263
0.000821273
0.000821284
0.000821295
0.000821307
0.000821316
0.000821321
0.000821284
0.000820888
0.000817882
0.000799563
0.000707058
0.000270448
0.000274606
0.000799588
0.00092519
0.000952628
0.000957572
0.000958296
0.000958383
0.000958393
0.000958395
0.000958396
0.000958397
0.000958398
0.000958399
0.000958399
0.000958399
0.0009584
0.0009584
0.0009584
0.0009584
0.0009584
0.0009584
0.0009584
0.0009584
0.0009584
0.000958399
0.000958399
0.000958397
0.000958388
0.0009583
0.000957575
0.000952631
0.000925192
0.000799589
0.000274608
0.000275458
0.000817913
0.000952635
0.000983071
0.000988728
0.000989586
0.000989696
0.000989712
0.00098972
0.000989726
0.000989732
0.000989744
0.000989755
0.000989765
0.000989773
0.000989779
0.000989783
0.000989785
0.000989785
0.000989783
0.00098978
0.000989774
0.000989766
0.000989757
0.000989746
0.000989735
0.000989729
0.000989713
0.000989602
0.000988743
0.000983083
0.000952645
0.000817918
0.000275461
0.000275589
0.000820922
0.000957581
0.000988731
0.00099457
0.000995464
0.000995581
0.0009956
0.000995602
0.000995589
0.000995569
0.000995603
0.000995634
0.000995655
0.000995671
0.00099568
0.000995686
0.000995689
0.000995689
0.000995686
0.000995681
0.000995673
0.000995658
0.000995637
0.000995606
0.000995573
0.000995592
0.000995596
0.000995485
0.00099459
0.000988748
0.000957593
0.000820928
0.000275592
0.000275605
0.000821318
0.000958305
0.000989587
0.000995463
0.000996365
0.000996483
0.000996486
0.000996416
0.000996202
0.000995934
0.000996115
0.000996274
0.000996346
0.000996381
0.000996388
0.00099639
0.000996393
0.000996393
0.000996391
0.000996389
0.000996383
0.000996348
0.000996277
0.000996118
0.000995938
0.000996207
0.00099641
0.00099637
0.000995485
0.000989607
0.000958319
0.000821323
0.000275609
0.000275607
0.000821354
0.00095839
0.000989695
0.000995579
0.000996481
0.000996578
0.000996457
0.000995876
0.000994278
0.000992235
0.000993607
0.000994696
0.000995096
0.000995228
0.000995219
0.000995203
0.000995198
0.000995199
0.000995204
0.000995221
0.00099523
0.000995099
0.0009947
0.000993611
0.00099224
0.000994283
0.00099587
0.000996342
0.000995579
0.000989716
0.000958405
0.000821358
0.000275612
0.000275608
0.000821349
0.000958397
0.000989709
0.000995594
0.00099648
0.000996453
0.000995651
0.000992275
0.000982842
0.000969842
0.000979797
0.000986599
0.000988852
0.000989457
0.00098942
0.000989355
0.000989333
0.000989334
0.000989356
0.000989422
0.000989459
0.000988856
0.000986603
0.000979803
0.000969847
0.000982848
0.00099227
0.000995537
0.000995454
0.000989712
0.000958411
0.000821349
0.000275613
0.000275608
0.000821339
0.000958395
0.000989713
0.000995592
0.000996405
0.000995874
0.000992295
0.000977095
0.000931394
0.000854964
0.000921759
0.000957168
0.000967533
0.0009699
0.000969975
0.000969881
0.000969848
0.000969848
0.000969882
0.000969977
0.000969902
0.000967537
0.000957174
0.000921769
0.000854969
0.000931399
0.000977091
0.000992182
0.000994875
0.000989636
0.0009584
0.000821333
0.000275614
0.000275609
0.000821326
0.000958392
0.000989714
0.000995573
0.000996194
0.000994319
0.000983035
0.000931768
0.00074793
0.000298566
0.000729131
0.000882081
0.000918176
0.000924935
0.000925886
0.000925982
0.000925985
0.000925985
0.000925983
0.000925886
0.000924937
0.000918181
0.000882094
0.00072916
0.000298564
0.000747933
0.000931765
0.000982923
0.000993321
0.000989422
0.000958369
0.000821309
0.000275615
0.000275608
0.000821311
0.000958389
0.000989715
0.000995553
0.000995956
0.000992468
0.000970779
0.00085705
0.000299278
0.000294562
0.000778512
0.000861354
0.000874376
0.000876082
0.000876225
0.00087622
0.000876221
0.000876226
0.000876083
0.000874378
0.000861361
0.000778537
0.000294567
0.00029928
0.000857044
0.000970667
0.000991469
0.00098918
0.000958334
0.000821279
0.000275615
0.000275608
0.000821294
0.000958385
0.000989723
0.000995591
0.000996218
0.00099434
0.000983004
0.00093146
0.000746553
0.000298441
0.000724699
0.0008764
0.000911752
0.000918016
0.000918685
0.000918529
0.000918426
0.000918425
0.000918525
0.000918679
0.000918008
0.000911743
0.000876396
0.00072469
0.000298433
0.000746517
0.000931443
0.000982888
0.000993339
0.000989435
0.000958353
0.000821247
0.000275614
0.000275607
0.00082128
0.000958381
0.00098973
0.000995628
0.000996454
0.000995928
0.000992304
0.000976843
0.000930234
0.000851775
0.000913111
0.000940247
0.000947316
0.000948428
0.000948269
0.000948042
0.000947941
0.00094794
0.000948039
0.000948265
0.000948421
0.000947305
0.000940234
0.00091309
0.000851747
0.000930216
0.00097683
0.000992188
0.000994926
0.000989666
0.000958373
0.000821222
0.000275613
0.000275607
0.000821267
0.000958379
0.000989735
0.000995646
0.000996552
0.000996539
0.000995703
0.000992066
0.000981575
0.000965353
0.000967554
0.000962328
0.000959903
0.000959026
0.000958644
0.000958464
0.000958396
0.000958395
0.000958462
0.000958641
0.000959022
0.000959895
0.000962317
0.000967545
0.000965343
0.000981569
0.000992057
0.000995588
0.000995537
0.00098976
0.000958378
0.000821199
0.000275611
0.000275606
0.000821256
0.000958376
0.000989739
0.000995656
0.000996584
0.000996701
0.000996553
0.000995705
0.000992946
0.000987197
0.000979866
0.000967737
0.000963033
0.000961652
0.000961249
0.00096111
0.000961064
0.000961064
0.000961109
0.000961247
0.000961649
0.000963028
0.000967728
0.000979861
0.000987193
0.000992945
0.000995698
0.000996439
0.000995699
0.000989788
0.000958378
0.000821183
0.00027561
0.000275605
0.000821248
0.000958375
0.000989742
0.000995662
0.000996595
0.000996739
0.000996721
0.000996386
0.000994981
0.000990871
0.000982097
0.000968788
0.00096367
0.0009622
0.000961807
0.000961688
0.000961653
0.000961653
0.000961688
0.000961806
0.000962198
0.000963666
0.00096878
0.000982094
0.000990869
0.000994982
0.00099638
0.000996608
0.000995736
0.000989798
0.000958377
0.000821171
0.000275609
0.000275604
0.000821243
0.000958374
0.000989745
0.000995666
0.000996601
0.00099675
0.000996753
0.000996495
0.000995289
0.000991404
0.000982438
0.000968976
0.000963803
0.000962323
0.000961938
0.000961827
0.000961797
0.000961797
0.000961827
0.000961938
0.000962322
0.000963799
0.00096897
0.000982435
0.000991402
0.00099529
0.00099649
0.00099664
0.000995748
0.000989803
0.000958377
0.000821164
0.000275607
0.000275603
0.00082124
0.000958374
0.000989746
0.000995669
0.000996605
0.000996755
0.000996761
0.000996514
0.000995332
0.000991474
0.000982487
0.000969016
0.000963837
0.000962357
0.000961975
0.000961867
0.00096184
0.00096184
0.000961868
0.000961975
0.000962356
0.000963834
0.00096901
0.000982484
0.000991473
0.000995334
0.000996509
0.000996649
0.000995753
0.000989807
0.000958378
0.00082116
0.000275607
0.000275603
0.00082124
0.000958374
0.000989747
0.00099567
0.000996606
0.000996757
0.000996763
0.000996517
0.000995335
0.000991477
0.00098249
0.000969021
0.000963841
0.000962361
0.000961978
0.000961871
0.000961844
0.000961844
0.000961871
0.000961979
0.00096236
0.000963838
0.000969016
0.000982487
0.000991477
0.000995338
0.000996512
0.000996652
0.000995755
0.000989808
0.000958378
0.000821159
0.000275606
0.000275603
0.000821241
0.000958375
0.000989747
0.00099567
0.000996606
0.000996755
0.000996759
0.000996503
0.000995298
0.000991413
0.000982448
0.000968993
0.000963817
0.000962335
0.00096195
0.00096184
0.000961811
0.000961812
0.00096184
0.00096195
0.000962335
0.000963814
0.000968988
0.000982446
0.000991414
0.000995301
0.0009965
0.000996648
0.000995754
0.000989808
0.000958379
0.000821161
0.000275606
0.000275604
0.000821245
0.000958376
0.000989746
0.000995668
0.000996603
0.000996748
0.000996732
0.000996399
0.000994998
0.00099089
0.000982117
0.00096882
0.000963699
0.000962227
0.000961834
0.000961717
0.000961684
0.000961684
0.000961718
0.000961836
0.000962228
0.000963698
0.000968817
0.000982116
0.000990891
0.000995002
0.000996397
0.000996621
0.000995747
0.000989806
0.00095838
0.000821166
0.000275607
0.000275604
0.000821252
0.000958378
0.000989745
0.000995664
0.000996594
0.000996714
0.000996569
0.000995727
0.000992976
0.000987237
0.000979905
0.000967797
0.00096309
0.000961707
0.000961306
0.00096117
0.000961127
0.000961128
0.000961172
0.000961309
0.00096171
0.000963092
0.000967797
0.000979906
0.00098724
0.000992981
0.000995725
0.000996459
0.000995714
0.0009898
0.000958382
0.000821176
0.000275608
0.000275605
0.000821261
0.000958381
0.000989743
0.000995657
0.000996566
0.000996557
0.000995726
0.000992101
0.000981636
0.000965453
0.000967642
0.000962436
0.00096001
0.000959137
0.000958761
0.000958587
0.000958524
0.000958525
0.000958591
0.000958767
0.000959144
0.000960017
0.000962443
0.00096765
0.000965461
0.000981644
0.000992101
0.000995617
0.000995558
0.000989775
0.000958384
0.00082119
0.000275609
0.000275606
0.000821272
0.000958384
0.00098974
0.000995641
0.000996472
0.00099595
0.000992336
0.000976902
0.000930363
0.000852028
0.0009133
0.000940418
0.000947492
0.000948618
0.000948473
0.000948258
0.000948165
0.000948168
0.000948265
0.000948484
0.000948632
0.000947509
0.000940439
0.000913331
0.000852049
0.000930377
0.000976904
0.000992229
0.000994954
0.000989685
0.00095838
0.00082121
0.00027561
0.000275606
0.000821286
0.000958388
0.000989734
0.000995608
0.000996239
0.000994367
0.000983044
0.000931541
0.000746752
0.000298498
0.000724907
0.000876518
0.000911907
0.000918196
0.000918885
0.000918743
0.00091865
0.000918653
0.000918751
0.000918897
0.000918211
0.000911923
0.000876544
0.000724986
0.000298497
0.000746778
0.000931546
0.000982939
0.000993374
0.000989459
0.000958361
0.000821232
0.000275611
0.000275607
0.0008213
0.000958393
0.000989729
0.000995572
0.000995981
0.000992498
0.000970817
0.000857088
0.000299271
0.000294488
0.000778055
0.000860947
0.000873948
0.00087564
0.000875777
0.000875769
0.000875769
0.000875774
0.000875631
0.000873921
0.000860882
0.00077794
0.000294456
0.000299266
0.000857086
0.000970712
0.000991508
0.000989207
0.000958342
0.000821259
0.000275612
0.000275607
0.000821313
0.000958396
0.000989729
0.000995595
0.000996222
0.000994354
0.000983079
0.000931819
0.000747985
0.000298593
0.000728302
0.000880857
0.000916172
0.000922514
0.000923397
0.00092349
0.000923492
0.00092349
0.000923483
0.000923366
0.000922393
0.000915774
0.00087998
0.000727734
0.000298546
0.000747941
0.000931801
0.00098297
0.000993363
0.000989452
0.000958377
0.000821282
0.000275612
0.000275607
0.000821321
0.000958392
0.000989719
0.000995606
0.000996426
0.000995902
0.00099233
0.000977125
0.000931362
0.000854621
0.000920134
0.000952903
0.000959198
0.000959748
0.000959585
0.000959497
0.000959469
0.000959466
0.000959477
0.00095949
0.000959314
0.00095758
0.000948895
0.000917452
0.000853588
0.000931033
0.000977038
0.000992207
0.000994909
0.000989659
0.000958399
0.000821298
0.000275612
0.000275605
0.000821287
0.000958308
0.000989613
0.000995501
0.000996393
0.000996374
0.000995575
0.000992173
0.00098257
0.000968826
0.000976229
0.000976803
0.000969274
0.00096629
0.000965484
0.000965305
0.000965268
0.000965262
0.000965266
0.000965297
0.00096541
0.000965761
0.000967045
0.000969982
0.000966316
0.00098181
0.000991985
0.000995432
0.000995379
0.000989633
0.000958325
0.000821269
0.00027561
0.000275589
0.000820893
0.000957585
0.000988757
0.00099461
0.000995511
0.000995615
0.000995497
0.000994885
0.000993098
0.000990244
0.00098891
0.000983377
0.000973512
0.000969948
0.000969058
0.000968878
0.000968845
0.00096884
0.00096884
0.000968867
0.000969031
0.00096983
0.000973113
0.000982287
0.000987545
0.000992283
0.000994687
0.000995353
0.000994628
0.000988794
0.000957604
0.000820878
0.000275594
0.000275459
0.000817887
0.000952641
0.000983097
0.000988767
0.000989634
0.000989752
0.000989758
0.000989671
0.000989343
0.000988598
0.00098724
0.000983786
0.000978608
0.000976516
0.000975957
0.000975839
0.000975817
0.000975814
0.000975816
0.000975837
0.000975952
0.000976497
0.00097855
0.000983637
0.00098707
0.000988872
0.000989554
0.000989635
0.000988806
0.000983133
0.000952657
0.000817873
0.000275463
0.000274607
0.000799565
0.000925196
0.000952652
0.000957605
0.000958337
0.000958432
0.000958446
0.000958436
0.000958367
0.000958145
0.000957573
0.000956254
0.000954384
0.000953526
0.000953262
0.000953194
0.000953178
0.000953176
0.00095318
0.000953198
0.000953267
0.00095353
0.000954386
0.000956245
0.000957562
0.000958182
0.000958387
0.000958353
0.000957632
0.000952674
0.000925204
0.000799549
0.00027461
0.000270449
0.00070705
0.00079958
0.000817911
0.000820923
0.000821322
0.00082136
0.000821355
0.000821338
0.000821298
0.000821206
0.000820999
0.000820604
0.000820069
0.000819778
0.000819652
0.0008196
0.000819578
0.000819573
0.000819584
0.000819613
0.000819671
0.000819802
0.000820097
0.000820632
0.000821028
0.000821231
0.000821314
0.000821305
0.000820917
0.000817908
0.000799572
0.000707028
0.000270451
0.00025748
0.000270449
0.000274609
0.000275462
0.000275595
0.000275613
0.000275617
0.000275621
0.000275624
0.000275628
0.000275629
0.000275626
0.000275614
0.000275596
0.000275584
0.000275578
0.000275575
0.000275573
0.000275572
0.000275573
0.000275575
0.000275579
0.000275584
0.000275596
0.000275614
0.000275624
0.000275627
0.000275626
0.000275621
0.000275602
0.000275468
0.000274613
0.000270452
0.000257483
0.00026411
0.0002821
0.000288363
0.000289778
0.00029002
0.000290052
0.000290056
0.000290056
0.000290056
0.000290056
0.000290056
0.000290056
0.000290056
0.000290056
0.000290056
0.000290055
0.000290055
0.000290055
0.000290055
0.000290055
0.000290055
0.000290056
0.000290056
0.000290056
0.000290056
0.000290056
0.000290056
0.000290056
0.000290052
0.00029002
0.000289778
0.000288363
0.000282101
0.000264111
0.0002821
0.000858947
0.000998744
0.00102937
0.00103493
0.00103574
0.00103583
0.00103583
0.00103582
0.0010358
0.00103579
0.00103576
0.00103574
0.00103572
0.00103571
0.00103569
0.00103569
0.00103568
0.00103568
0.00103568
0.00103569
0.00103571
0.00103572
0.00103574
0.00103576
0.00103578
0.0010358
0.0010358
0.00103571
0.0010349
0.00102935
0.000998722
0.00085893
0.000282101
0.000288364
0.000998766
0.00119521
0.00124263
0.00125203
0.00125355
0.00125375
0.00125377
0.00125377
0.00125377
0.00125376
0.00125375
0.00125375
0.00125374
0.00125374
0.00125373
0.00125373
0.00125373
0.00125373
0.00125373
0.00125373
0.00125374
0.00125374
0.00125375
0.00125375
0.00125376
0.00125376
0.00125374
0.00125354
0.00125202
0.00124262
0.0011952
0.000998759
0.000288365
0.000289781
0.0010294
0.00124264
0.00129597
0.00130689
0.00130871
0.00130897
0.001309
0.001309
0.001309
0.001309
0.001309
0.00130901
0.00130901
0.00130902
0.00130902
0.00130902
0.00130902
0.00130902
0.00130902
0.00130902
0.00130902
0.00130901
0.00130901
0.001309
0.001309
0.001309
0.00130898
0.00130872
0.0013069
0.00129598
0.00124264
0.0010294
0.000289783
0.000290022
0.00103496
0.00125205
0.00130689
0.00131823
0.00132014
0.00132042
0.00132045
0.00132043
0.00132037
0.00132029
0.00132031
0.00132034
0.00132036
0.00132038
0.00132038
0.00132038
0.00132038