/*--------------------------------*- C++ -*----------------------------------*\
| =========                 |                                                 |
| \\      /  F ield         | OpenFOAM: The Open Source CFD Toolbox           |
|  \\    /   O peration     | Version:  2112                                  |
|   \\  /    A nd           | Website:  www.openfoam.com                      |
|    \\/     M anipulation  |                                                 |
\*---------------------------------------------------------------------------*/
FoamFile
{
    version     2.0;
    format      ascii;
    arch        "LSB;label=32;scalar=64";
    class       volScalarField;
    location    "0.7";
    object      p;
}
// * * * * * * * * * * * * * * * * * * * * * * * * * * * * * * * * * * * * * //

dimensions      [0 2 -2 0 0 0 0];

internalField   nonuniform List<scalar> 
64906
(
-1.57308e-05
-1.57218e-05
-1.57551e-05
-1.58374e-05
-1.59689e-05
-1.61469e-05
-1.63691e-05
-1.66332e-05
-1.6935e-05
-1.72693e-05
-1.76236e-05
-1.79867e-05
-1.83359e-05
-1.86581e-05
-1.89377e-05
-1.91662e-05
-1.93358e-05
-1.94427e-05
-1.9485e-05
-1.94629e-05
-1.93789e-05
-1.92373e-05
-1.90463e-05
-1.88147e-05
-1.85582e-05
-1.82898e-05
-1.8032e-05
-1.77959e-05
-1.75938e-05
-1.74314e-05
-1.73138e-05
-1.7244e-05
-1.72221e-05
-1.72389e-05
-1.56991e-05
-1.55813e-05
-1.55521e-05
-1.55936e-05
-1.56952e-05
-1.58454e-05
-1.60374e-05
-1.6268e-05
-1.65324e-05
-1.68265e-05
-1.71365e-05
-1.74542e-05
-1.77554e-05
-1.80322e-05
-1.82702e-05
-1.84648e-05
-1.86099e-05
-1.87036e-05
-1.87445e-05
-1.8733e-05
-1.86708e-05
-1.85605e-05
-1.84085e-05
-1.82196e-05
-1.80084e-05
-1.77826e-05
-1.75663e-05
-1.73674e-05
-1.72004e-05
-1.70716e-05
-1.69921e-05
-1.69758e-05
-1.70354e-05
-1.72015e-05
-1.57641e-05
-1.5582e-05
-1.55132e-05
-1.55286e-05
-1.56162e-05
-1.57594e-05
-1.59489e-05
-1.6182e-05
-1.64549e-05
-1.6767e-05
-1.71004e-05
-1.74496e-05
-1.77733e-05
-1.80671e-05
-1.8313e-05
-1.85117e-05
-1.86577e-05
-1.87514e-05
-1.87919e-05
-1.87794e-05
-1.87154e-05
-1.86002e-05
-1.84396e-05
-1.82334e-05
-1.79998e-05
-1.77428e-05
-1.75043e-05
-1.72888e-05
-1.71161e-05
-1.69907e-05
-1.69271e-05
-1.69444e-05
-1.70557e-05
-1.7312e-05
-1.59268e-05
-1.57081e-05
-1.56153e-05
-1.56206e-05
-1.57111e-05
-1.58675e-05
-1.60802e-05
-1.63499e-05
-1.66766e-05
-1.70683e-05
-1.75e-05
-1.7971e-05
-1.83943e-05
-1.87707e-05
-1.90737e-05
-1.93136e-05
-1.9485e-05
-1.95914e-05
-1.96322e-05
-1.96076e-05
-1.95189e-05
-1.93633e-05
-1.91469e-05
-1.88598e-05
-1.85293e-05
-1.81537e-05
-1.78218e-05
-1.75321e-05
-1.73125e-05
-1.71603e-05
-1.70892e-05
-1.71193e-05
-1.72629e-05
-1.75694e-05
-1.61883e-05
-1.59451e-05
-1.58403e-05
-1.5849e-05
-1.59575e-05
-1.6145e-05
-1.64034e-05
-1.67405e-05
-1.71653e-05
-1.7706e-05
-1.8329e-05
-1.9049e-05
-1.96683e-05
-2.02023e-05
-2.06129e-05
-2.09318e-05
-2.11529e-05
-2.12847e-05
-2.13265e-05
-2.12787e-05
-2.11425e-05
-2.09102e-05
-2.05889e-05
-2.01474e-05
-1.96256e-05
-1.9007e-05
-1.84927e-05
-1.80629e-05
-1.77553e-05
-1.7548e-05
-1.74489e-05
-1.74747e-05
-1.76372e-05
-1.79774e-05
-1.65411e-05
-1.62738e-05
-1.61625e-05
-1.61841e-05
-1.6323e-05
-1.65564e-05
-1.68782e-05
-1.73076e-05
-1.78714e-05
-1.86405e-05
-1.95818e-05
-2.07646e-05
-2.1717e-05
-2.25053e-05
-2.30816e-05
-2.3524e-05
-2.38234e-05
-2.39959e-05
-2.40396e-05
-2.39547e-05
-2.37439e-05
-2.33915e-05
-2.29081e-05
-2.22164e-05
-2.13677e-05
-2.0293e-05
-1.94744e-05
-1.88282e-05
-1.83942e-05
-1.81089e-05
-1.79665e-05
-1.79773e-05
-1.81534e-05
-1.85294e-05
-1.69764e-05
-1.66806e-05
-1.65654e-05
-1.66079e-05
-1.6789e-05
-1.70823e-05
-1.74833e-05
-1.80247e-05
-1.8764e-05
-1.98564e-05
-2.12835e-05
-2.33591e-05
-2.48545e-05
-2.60261e-05
-2.68398e-05
-2.74621e-05
-2.78768e-05
-2.81105e-05
-2.81572e-05
-2.8017e-05
-2.76963e-05
-2.71686e-05
-2.64521e-05
-2.53808e-05
-2.39955e-05
-2.20333e-05
-2.07522e-05
-1.97972e-05
-1.92017e-05
-1.88197e-05
-1.86208e-05
-1.86085e-05
-1.87966e-05
-1.9218e-05
-1.74848e-05
-1.71551e-05
-1.70391e-05
-1.71127e-05
-1.73525e-05
-1.77255e-05
-1.82258e-05
-1.88936e-05
-1.9825e-05
-2.12824e-05
-2.33369e-05
-2.71978e-05
-2.95051e-05
-3.12332e-05
-3.23947e-05
-3.32889e-05
-3.38819e-05
-3.42115e-05
-3.4263e-05
-3.40361e-05
-3.35456e-05
-3.27527e-05
-3.16933e-05
-3.00676e-05
-2.78746e-05
-2.4122e-05
-2.22608e-05
-2.09543e-05
-2.01794e-05
-1.96856e-05
-1.94118e-05
-1.93629e-05
-1.95591e-05
-2.00359e-05
-1.80541e-05
-1.7685e-05
-1.75721e-05
-1.76896e-05
-1.80103e-05
-1.84932e-05
-1.91265e-05
-1.99428e-05
-2.10468e-05
-2.29233e-05
-2.54418e-05
-3.30661e-05
-3.62427e-05
-3.86546e-05
-4.02841e-05
-4.15379e-05
-4.23753e-05
-4.28382e-05
-4.28972e-05
-4.25515e-05
-4.18297e-05
-4.06879e-05
-3.91669e-05
-3.6856e-05
-3.37974e-05
-2.62438e-05
-2.40312e-05
-2.23008e-05
-2.13602e-05
-2.07274e-05
-2.03439e-05
-2.02332e-05
-2.04285e-05
-2.0971e-05
-1.86706e-05
-1.82585e-05
-1.81563e-05
-1.83391e-05
-1.87811e-05
-1.94391e-05
-2.03012e-05
-2.13384e-05
-2.26803e-05
-2.50425e-05
-2.32269e-05
-4.06694e-05
-4.45942e-05
-4.79912e-05
-5.03621e-05
-5.21904e-05
-5.34167e-05
-5.40806e-05
-5.415e-05
-5.36238e-05
-5.2533e-05
-5.08339e-05
-4.85831e-05
-4.52865e-05
-4.14978e-05
-2.39103e-05
-2.63097e-05
-2.40771e-05
-2.29058e-05
-2.20549e-05
-2.14628e-05
-2.12296e-05
-2.1397e-05
-2.20094e-05
-1.93123e-05
-1.88531e-05
-1.87654e-05
-1.90277e-05
-1.96223e-05
-2.05188e-05
-2.17142e-05
-2.31175e-05
-2.44961e-05
-2.23145e-05
-5.90814e-05
-5.65883e-05
-5.91473e-05
-6.20416e-05
-6.44285e-05
-6.6085e-05
-6.69574e-05
-6.70399e-05
-6.63314e-05
-6.48367e-05
-6.26045e-05
-5.9852e-05
-5.73931e-05
-5.98402e-05
-2.41774e-05
-2.62101e-05
-2.48844e-05
-2.36353e-05
-2.272e-05
-2.2301e-05
-2.24192e-05
-2.31101e-05
-1.99589e-05
-1.94529e-05
-1.93887e-05
-1.97535e-05
-2.05564e-05
-2.18297e-05
-2.37442e-05
-2.66167e-05
-3.13391e-05
-3.83467e-05
-5.55639e-05
-5.73788e-05
-6.37344e-05
-6.9453e-05
-7.44463e-05
-7.81293e-05
-8.05245e-05
-8.17234e-05
-8.18193e-05
-8.08121e-05
-7.86098e-05
-7.51207e-05
-7.03265e-05
-6.48143e-05
-5.8698e-05
-5.73512e-05
-4.00482e-05
-3.31321e-05
-2.85098e-05
-2.58071e-05
-2.41962e-05
-2.34573e-05
-2.34771e-05
-2.42406e-05
-2.05787e-05
-2.00248e-05
-1.99749e-05
-2.04194e-05
-2.13774e-05
-2.28997e-05
-2.51925e-05
-2.85731e-05
-3.3703e-05
-4.07049e-05
-5.23267e-05
-6.02817e-05
-6.90544e-05
-7.67078e-05
-8.31545e-05
-8.77247e-05
-9.06413e-05
-9.20801e-05
-9.21868e-05
-9.0962e-05
-8.82618e-05
-8.39116e-05
-7.76932e-05
-7.02684e-05
-6.17313e-05
-5.40476e-05
-4.25319e-05
-3.56159e-05
-3.05943e-05
-2.73934e-05
-2.54274e-05
-2.4496e-05
-2.44656e-05
-2.53118e-05
-2.11516e-05
-2.0554e-05
-2.05141e-05
-2.10233e-05
-2.2103e-05
-2.38076e-05
-2.6345e-05
-3.00147e-05
-3.53955e-05
-4.26509e-05
-5.2736e-05
-6.22984e-05
-7.27601e-05
-8.17672e-05
-8.92029e-05
-9.43744e-05
-9.76479e-05
-9.92479e-05
-9.93636e-05
-9.79959e-05
-9.49581e-05
-9.00266e-05
-8.28401e-05
-7.40781e-05
-6.38671e-05
-5.45089e-05
-4.4557e-05
-3.74059e-05
-3.2149e-05
-2.86727e-05
-2.64875e-05
-2.54274e-05
-2.5369e-05
-2.62906e-05
-2.16567e-05
-2.10196e-05
-2.09816e-05
-2.15314e-05
-2.26864e-05
-2.44933e-05
-2.71457e-05
-3.09221e-05
-3.63437e-05
-4.36125e-05
-5.33082e-05
-6.36078e-05
-7.49783e-05
-8.46518e-05
-9.25783e-05
-9.805e-05
-0.000101505
-0.000103187
-0.00010331
-0.000101875
-9.86703e-05
-9.34526e-05
-8.57884e-05
-7.63689e-05
-6.52522e-05
-5.51434e-05
-4.55955e-05
-3.84435e-05
-3.31576e-05
-2.95883e-05
-2.73125e-05
-2.61974e-05
-2.61419e-05
-2.71342e-05
-2.20822e-05
-2.14132e-05
-2.13737e-05
-2.19496e-05
-2.31531e-05
-2.50223e-05
-2.77381e-05
-3.15671e-05
-3.70021e-05
-4.42829e-05
-5.39349e-05
-6.46044e-05
-7.64176e-05
-8.64402e-05
-9.46314e-05
-0.000100261
-0.000103813
-0.000105541
-0.00010567
-0.000104202
-0.000100914
-9.55497e-05
-8.7631e-05
-7.78693e-05
-6.63145e-05
-5.58338e-05
-4.63378e-05
-3.91812e-05
-3.38912e-05
-3.02817e-05
-2.79637e-05
-2.68249e-05
-2.67818e-05
-2.78315e-05
-2.24195e-05
-2.17266e-05
-2.16843e-05
-2.22757e-05
-2.35088e-05
-2.54152e-05
-2.81678e-05
-3.2029e-05
-3.74832e-05
-4.48024e-05
-5.45047e-05
-6.53792e-05
-7.74393e-05
-8.76595e-05
-9.60041e-05
-0.00010173
-0.000105342
-0.0001071
-0.000107236
-0.00010575
-0.000102413
-9.69635e-05
-8.88996e-05
-7.8946e-05
-6.7148e-05
-5.64631e-05
-4.69213e-05
-3.97312e-05
-3.44286e-05
-3.07964e-05
-2.8458e-05
-2.73106e-05
-2.72817e-05
-2.83744e-05
-2.26645e-05
-2.1957e-05
-2.19133e-05
-2.2515e-05
-2.37678e-05
-2.57004e-05
-2.84823e-05
-3.23766e-05
-3.78667e-05
-4.52426e-05
-5.50226e-05
-6.60373e-05
-7.82572e-05
-8.86131e-05
-9.70675e-05
-0.000102869
-0.000106531
-0.000108316
-0.000108459
-0.000106959
-0.000103584
-9.80682e-05
-8.99017e-05
-7.98168e-05
-6.78611e-05
-5.70362e-05
-4.74181e-05
-4.01733e-05
-3.48384e-05
-3.11791e-05
-2.88217e-05
-2.76663e-05
-2.76449e-05
-2.87636e-05
-2.28157e-05
-2.21027e-05
-2.206e-05
-2.26687e-05
-2.39345e-05
-2.58864e-05
-2.86954e-05
-3.26273e-05
-3.81691e-05
-4.56152e-05
-5.54844e-05
-6.66044e-05
-7.89335e-05
-8.93894e-05
-9.79281e-05
-0.000103795
-0.000107503
-0.000109315
-0.000109466
-0.000107953
-0.000104544
-9.89726e-05
-9.07284e-05
-8.05468e-05
-6.84816e-05
-5.75494e-05
-4.78404e-05
-4.05244e-05
-3.51383e-05
-3.14433e-05
-2.90629e-05
-2.78956e-05
-2.78727e-05
-2.89996e-05
-2.2868e-05
-2.21627e-05
-2.21242e-05
-2.27368e-05
-2.40086e-05
-2.59725e-05
-2.88055e-05
-3.27786e-05
-3.83873e-05
-4.59185e-05
-5.58925e-05
-6.70908e-05
-7.9482e-05
-9.00035e-05
-9.86011e-05
-0.000104524
-0.000108274
-0.000110114
-0.000110272
-0.000108749
-0.000105311
-9.96951e-05
-9.13986e-05
-8.11534e-05
-6.9023e-05
-5.80066e-05
-4.81878e-05
-4.07828e-05
-3.53271e-05
-3.15887e-05
-2.9182e-05
-2.79991e-05
-2.79657e-05
-2.90834e-05
-2.28326e-05
-2.21409e-05
-2.21074e-05
-2.27183e-05
-2.39857e-05
-2.59492e-05
-2.87962e-05
-3.28077e-05
-3.84973e-05
-4.6135e-05
-5.62546e-05
-6.74959e-05
-7.98731e-05
-9.0404e-05
-9.9018e-05
-0.000104977
-0.00010876
-0.000110625
-0.000110793
-0.000109264
-0.000105811
-0.000100173
-9.18675e-05
-8.16146e-05
-6.9491e-05
-5.84197e-05
-4.84454e-05
-4.09265e-05
-3.53841e-05
-3.16014e-05
-2.9172e-05
-2.79753e-05
-2.79253e-05
-2.90173e-05
-2.27087e-05
-2.20395e-05
-2.201e-05
-2.26087e-05
-2.38525e-05
-2.57887e-05
-2.86191e-05
-3.26419e-05
-3.84107e-05
-4.61852e-05
-5.65697e-05
-6.77716e-05
-7.99655e-05
-9.03656e-05
-9.88878e-05
-0.000104824
-0.000108608
-0.000110486
-0.000110668
-0.000109151
-0.000105721
-0.000100125
-9.19224e-05
-8.18028e-05
-6.98485e-05
-5.87922e-05
-4.85376e-05
-4.08712e-05
-3.52411e-05
-3.14375e-05
-2.901e-05
-2.78155e-05
-2.77508e-05
-2.88033e-05
-2.25062e-05
-2.18672e-05
-2.18392e-05
-2.24128e-05
-2.36076e-05
-2.54772e-05
-2.82365e-05
-3.2207e-05
-3.80107e-05
-4.59013e-05
-5.69187e-05
-6.79216e-05
-7.95064e-05
-8.94863e-05
-9.77068e-05
-0.000103495
-0.000107208
-0.000109072
-0.000109272
-0.000107806
-0.000104481
-9.90652e-05
-9.11845e-05
-8.14928e-05
-7.01221e-05
-5.92113e-05
-4.8305e-05
-4.05088e-05
-3.48317e-05
-3.10667e-05
-2.86892e-05
-2.75255e-05
-2.74539e-05
-2.84534e-05
-2.22368e-05
-2.16328e-05
-2.15995e-05
-2.21266e-05
-2.32299e-05
-2.49566e-05
-2.75166e-05
-3.12441e-05
-3.68355e-05
-4.45425e-05
-5.73109e-05
-6.78323e-05
-7.80357e-05
-8.69415e-05
-9.43894e-05
-9.97589e-05
-0.000103252
-0.000105045
-0.000105272
-0.000103932
-0.00010088
-9.59366e-05
-8.88651e-05
-8.0268e-05
-7.02418e-05
-5.96792e-05
-4.70211e-05
-3.93931e-05
-3.39096e-05
-3.03667e-05
-2.81599e-05
-2.70926e-05
-2.70399e-05
-2.79813e-05
-2.1922e-05
-2.13578e-05
-2.1318e-05
-2.17897e-05
-2.27788e-05
-2.43132e-05
-2.65658e-05
-2.98587e-05
-3.51459e-05
-4.31024e-05
-6.01377e-05
-6.67636e-05
-7.53945e-05
-8.28049e-05
-8.9108e-05
-9.38608e-05
-9.70328e-05
-9.87109e-05
-9.8975e-05
-9.78282e-05
-9.51791e-05
-9.09433e-05
-8.50827e-05
-7.80242e-05
-6.94312e-05
-6.24819e-05
-4.57416e-05
-3.78249e-05
-3.26033e-05
-2.94582e-05
-2.75177e-05
-2.65855e-05
-2.65604e-05
-2.74327e-05
-2.15797e-05
-2.10548e-05
-2.10015e-05
-2.13995e-05
-2.22302e-05
-2.3459e-05
-2.50721e-05
-2.69126e-05
-2.85663e-05
-2.53831e-05
-7.60142e-05
-7.27209e-05
-7.66033e-05
-8.10249e-05
-8.48051e-05
-8.74922e-05
-8.90047e-05
-8.93164e-05
-8.84372e-05
-8.63831e-05
-8.32552e-05
-7.93888e-05
-7.60363e-05
-7.94317e-05
-2.81885e-05
-3.14431e-05
-2.97859e-05
-2.80352e-05
-2.66775e-05
-2.59839e-05
-2.6023e-05
-2.68341e-05
-2.12408e-05
-2.07569e-05
-2.07026e-05
-2.10589e-05
-2.18084e-05
-2.29283e-05
-2.44649e-05
-2.65151e-05
-2.95518e-05
-3.4446e-05
-3.85229e-05
-5.6257e-05
-6.2991e-05
-6.91118e-05
-7.38902e-05
-7.77461e-05
-8.03942e-05
-8.19143e-05
-8.2277e-05
-8.15059e-05
-7.96282e-05
-7.66086e-05
-7.25395e-05
-6.71267e-05
-6.03892e-05
-4.32079e-05
-3.82549e-05
-3.29332e-05
-2.96324e-05
-2.75343e-05
-2.61678e-05
-2.55058e-05
-2.55341e-05
-2.62708e-05
-2.09214e-05
-2.04747e-05
-2.0422e-05
-2.07459e-05
-2.14322e-05
-2.24688e-05
-2.39132e-05
-2.5914e-05
-2.87622e-05
-3.29882e-05
-3.97256e-05
-5.01859e-05
-5.67682e-05
-6.27938e-05
-6.75189e-05
-7.13136e-05
-7.38848e-05
-7.53703e-05
-7.5769e-05
-7.51192e-05
-7.34291e-05
-7.06318e-05
-6.67126e-05
-6.15063e-05
-5.48885e-05
-4.44279e-05
-3.69957e-05
-3.23365e-05
-2.9165e-05
-2.70478e-05
-2.57106e-05
-2.5066e-05
-2.50782e-05
-2.57506e-05
-2.06423e-05
-2.02313e-05
-2.01879e-05
-2.04971e-05
-2.115e-05
-2.21442e-05
-2.35429e-05
-2.54934e-05
-2.82573e-05
-3.22286e-05
-3.78132e-05
-4.5281e-05
-5.16379e-05
-5.77148e-05
-6.2512e-05
-6.63746e-05
-6.89551e-05
-7.04351e-05
-7.08541e-05
-7.02635e-05
-6.86433e-05
-6.59067e-05
-6.19734e-05
-5.68184e-05
-5.03839e-05
-4.2757e-05
-3.64897e-05
-3.1979e-05
-2.88268e-05
-2.67101e-05
-2.53729e-05
-2.4718e-05
-2.46985e-05
-2.53084e-05
-2.04166e-05
-2.004e-05
-2.00108e-05
-2.03142e-05
-2.09426e-05
-2.18967e-05
-2.32329e-05
-2.50765e-05
-2.762e-05
-3.11481e-05
-3.57852e-05
-4.16234e-05
-4.73079e-05
-5.29497e-05
-5.75107e-05
-6.11606e-05
-6.35962e-05
-6.49938e-05
-6.5406e-05
-6.48854e-05
-6.34011e-05
-6.0874e-05
-5.71938e-05
-5.24542e-05
-4.66861e-05
-4.06321e-05
-3.53663e-05
-3.13173e-05
-2.83974e-05
-2.63851e-05
-2.50933e-05
-2.44438e-05
-2.43977e-05
-2.49513e-05
-2.02579e-05
-1.99224e-05
-1.99194e-05
-2.02306e-05
-2.08483e-05
-2.17721e-05
-2.30461e-05
-2.4763e-05
-2.705e-05
-3.00774e-05
-3.39004e-05
-3.85518e-05
-4.33605e-05
-4.82342e-05
-5.22647e-05
-5.54766e-05
-5.76515e-05
-5.8912e-05
-5.92978e-05
-5.88499e-05
-5.75429e-05
-5.5326e-05
-5.21178e-05
-4.80372e-05
-4.31851e-05
-3.83362e-05
-3.40293e-05
-3.05931e-05
-2.80066e-05
-2.61572e-05
-2.49328e-05
-2.42902e-05
-2.42095e-05
-2.46987e-05
-2.01767e-05
-1.99051e-05
-1.99502e-05
-2.02902e-05
-2.09183e-05
-2.1835e-05
-2.30748e-05
-2.47037e-05
-2.6802e-05
-2.94664e-05
-3.27103e-05
-3.65368e-05
-4.05765e-05
-4.46818e-05
-4.81522e-05
-5.09328e-05
-5.28583e-05
-5.39915e-05
-5.43505e-05
-5.39622e-05
-5.28119e-05
-5.0879e-05
-4.81277e-05
-4.46803e-05
-4.06629e-05
-3.67096e-05
-3.31407e-05
-3.01912e-05
-2.78801e-05
-2.6163e-05
-2.49825e-05
-2.43217e-05
-2.41761e-05
-2.45669e-05
-2.01733e-05
-2.00077e-05
-2.01277e-05
-2.05216e-05
-2.11882e-05
-2.21352e-05
-2.33942e-05
-2.50158e-05
-2.70533e-05
-2.95589e-05
-3.25211e-05
-3.59069e-05
-3.94705e-05
-4.30438e-05
-4.61387e-05
-4.86478e-05
-5.04294e-05
-5.14932e-05
-5.18368e-05
-5.14744e-05
-5.04023e-05
-4.86261e-05
-4.61547e-05
-4.31143e-05
-3.96521e-05
-3.62235e-05
-3.30663e-05
-3.03716e-05
-2.81873e-05
-2.65102e-05
-2.53136e-05
-2.45886e-05
-2.43332e-05
-2.4559e-05
-2.02372e-05
-2.02633e-05
-2.05058e-05
-2.09836e-05
-2.1721e-05
-2.27443e-05
-2.40916e-05
-2.58115e-05
-2.79515e-05
-3.05495e-05
-3.35891e-05
-3.70121e-05
-4.06032e-05
-4.4166e-05
-4.72996e-05
-4.98552e-05
-5.16962e-05
-5.27991e-05
-5.31522e-05
-5.27622e-05
-5.16331e-05
-4.97834e-05
-4.72518e-05
-4.41715e-05
-4.07193e-05
-3.72815e-05
-3.40969e-05
-3.13431e-05
-2.90819e-05
-2.73192e-05
-2.60288e-05
-2.518e-05
-2.4735e-05
-2.46606e-05
-1.58214e-05
-1.58526e-05
-1.59191e-05
-1.60272e-05
-1.61817e-05
-1.63838e-05
-1.66333e-05
-1.69294e-05
-1.72681e-05
-1.76451e-05
-1.80457e-05
-1.84585e-05
-1.8856e-05
-1.92238e-05
-1.95425e-05
-1.98024e-05
-1.99939e-05
-2.01126e-05
-2.01559e-05
-2.0124e-05
-2.00202e-05
-1.98493e-05
-1.96214e-05
-1.93464e-05
-1.90443e-05
-1.87288e-05
-1.84276e-05
-1.81516e-05
-1.79152e-05
-1.7722e-05
-1.75746e-05
-1.74704e-05
-1.74026e-05
-1.73599e-05
-1.58047e-05
-1.57683e-05
-1.57934e-05
-1.58736e-05
-1.60058e-05
-1.61864e-05
-1.64128e-05
-1.66837e-05
-1.69935e-05
-1.73395e-05
-1.77024e-05
-1.80765e-05
-1.84296e-05
-1.87566e-05
-1.90368e-05
-1.92657e-05
-1.94346e-05
-1.95414e-05
-1.95838e-05
-1.95623e-05
-1.94794e-05
-1.93378e-05
-1.91469e-05
-1.89111e-05
-1.86515e-05
-1.83729e-05
-1.81075e-05
-1.78604e-05
-1.76515e-05
-1.74839e-05
-1.73651e-05
-1.72991e-05
-1.72883e-05
-1.73358e-05
-1.58922e-05
-1.58269e-05
-1.58326e-05
-1.59009e-05
-1.60317e-05
-1.62191e-05
-1.64594e-05
-1.67537e-05
-1.70964e-05
-1.74921e-05
-1.79101e-05
-1.83579e-05
-1.87676e-05
-1.91465e-05
-1.94618e-05
-1.97174e-05
-1.99022e-05
-2.00169e-05
-2.00594e-05
-2.00299e-05
-1.99313e-05
-1.97633e-05
-1.95375e-05
-1.92505e-05
-1.89356e-05
-1.85848e-05
-1.82668e-05
-1.79729e-05
-1.77352e-05
-1.75508e-05
-1.74304e-05
-1.73788e-05
-1.73922e-05
-1.74745e-05
-1.60771e-05
-1.59955e-05
-1.59945e-05
-1.60671e-05
-1.62146e-05
-1.64311e-05
-1.67141e-05
-1.70707e-05
-1.74975e-05
-1.80153e-05
-1.85743e-05
-1.92075e-05
-1.97648e-05
-2.02773e-05
-2.06885e-05
-2.10177e-05
-2.12488e-05
-2.13874e-05
-2.14306e-05
-2.13786e-05
-2.12351e-05
-2.09952e-05
-2.06757e-05
-2.02576e-05
-1.97988e-05
-1.92666e-05
-1.8814e-05
-1.84044e-05
-1.80907e-05
-1.78542e-05
-1.77053e-05
-1.76445e-05
-1.76637e-05
-1.77634e-05
-1.63618e-05
-1.62625e-05
-1.62628e-05
-1.63527e-05
-1.65323e-05
-1.67965e-05
-1.71459e-05
-1.75982e-05
-1.81569e-05
-1.88763e-05
-1.9675e-05
-2.0646e-05
-2.14544e-05
-2.21892e-05
-2.2754e-05
-2.32015e-05
-2.3507e-05
-2.36844e-05
-2.37289e-05
-2.3641e-05
-2.34259e-05
-2.30705e-05
-2.26009e-05
-2.19641e-05
-2.12598e-05
-2.0396e-05
-1.97142e-05
-1.91123e-05
-1.86778e-05
-1.8358e-05
-1.81584e-05
-1.8071e-05
-1.80863e-05
-1.82064e-05
-1.67399e-05
-1.66174e-05
-1.66234e-05
-1.67406e-05
-1.69659e-05
-1.72943e-05
-1.77305e-05
-1.83068e-05
-1.90404e-05
-2.00524e-05
-2.12223e-05
-2.27868e-05
-2.39867e-05
-2.50602e-05
-2.58465e-05
-2.64681e-05
-2.68827e-05
-2.71178e-05
-2.71646e-05
-2.70232e-05
-2.67032e-05
-2.61776e-05
-2.54906e-05
-2.45194e-05
-2.34304e-05
-2.19801e-05
-2.09428e-05
-2.00603e-05
-1.94645e-05
-1.9035e-05
-1.87669e-05
-1.86405e-05
-1.86476e-05
-1.87976e-05
-1.72039e-05
-1.70512e-05
-1.70659e-05
-1.72199e-05
-1.75045e-05
-1.79131e-05
-1.84533e-05
-1.91751e-05
-2.0118e-05
-2.15367e-05
-2.32661e-05
-2.59159e-05
-2.76966e-05
-2.92444e-05
-3.03193e-05
-3.11739e-05
-3.17345e-05
-3.20488e-05
-3.20989e-05
-3.18847e-05
-3.14248e-05
-3.06712e-05
-2.97003e-05
-2.82583e-05
-2.65958e-05
-2.40657e-05
-2.24946e-05
-2.12196e-05
-2.04299e-05
-1.98699e-05
-1.95182e-05
-1.93423e-05
-1.93391e-05
-1.95312e-05
-1.77454e-05
-1.75553e-05
-1.75833e-05
-1.77873e-05
-1.81509e-05
-1.8662e-05
-1.9327e-05
-2.01989e-05
-2.13368e-05
-2.31348e-05
-2.5636e-05
-3.03155e-05
-3.28208e-05
-3.49857e-05
-3.644e-05
-3.76156e-05
-3.83833e-05
-3.88122e-05
-3.88674e-05
-3.85483e-05
-3.78902e-05
-3.68225e-05
-3.54773e-05
-3.34193e-05
-3.10358e-05
-2.64726e-05
-2.41783e-05
-2.25371e-05
-2.15681e-05
-2.08729e-05
-2.04185e-05
-2.01761e-05
-2.01558e-05
-2.04025e-05
-1.83521e-05
-1.81159e-05
-1.81613e-05
-1.84288e-05
-1.88926e-05
-1.9531e-05
-2.03413e-05
-2.13493e-05
-2.2547e-05
-2.46519e-05
-2.75089e-05
-3.70167e-05
-3.98858e-05
-4.24899e-05
-4.42792e-05
-4.57511e-05
-4.67274e-05
-4.72809e-05
-4.73436e-05
-4.69145e-05
-4.60606e-05
-4.47063e-05
-4.30317e-05
-4.05299e-05
-3.77849e-05
-2.83464e-05
-2.58284e-05
-2.38769e-05
-2.28569e-05
-2.20347e-05
-2.14548e-05
-2.11247e-05
-2.10801e-05
-2.13993e-05
-1.90108e-05
-1.87226e-05
-1.87968e-05
-1.91561e-05
-1.9771e-05
-2.06162e-05
-2.1694e-05
-2.2884e-05
-2.41446e-05
-2.64232e-05
-2.16068e-05
-4.35312e-05
-4.6709e-05
-5.00068e-05
-5.23697e-05
-5.43113e-05
-5.56112e-05
-5.6336e-05
-5.64082e-05
-5.58262e-05
-5.46668e-05
-5.28578e-05
-5.06195e-05
-4.74207e-05
-4.43824e-05
-2.22318e-05
-2.77397e-05
-2.5603e-05
-2.45368e-05
-2.35406e-05
-2.27116e-05
-2.22169e-05
-2.2111e-05
-2.25114e-05
-1.96968e-05
-1.93479e-05
-1.94517e-05
-1.99115e-05
-2.06948e-05
-2.17823e-05
-2.31915e-05
-2.47628e-05
-2.57573e-05
-2.04112e-05
-6.31047e-05
-5.61433e-05
-5.75821e-05
-6.01225e-05
-6.2125e-05
-6.35794e-05
-6.43745e-05
-6.44577e-05
-6.38278e-05
-6.25358e-05
-6.06875e-05
-5.82908e-05
-5.69387e-05
-6.37792e-05
-2.24038e-05
-2.75373e-05
-2.66122e-05
-2.52081e-05
-2.40528e-05
-2.33545e-05
-2.31817e-05
-2.36898e-05
-2.03901e-05
-1.9981e-05
-2.01319e-05
-2.0734e-05
-2.17798e-05
-2.33252e-05
-2.55887e-05
-2.88378e-05
-3.42115e-05
-4.08172e-05
-5.93132e-05
-5.54983e-05
-5.96439e-05
-6.42794e-05
-6.84485e-05
-7.14475e-05
-7.34484e-05
-7.44625e-05
-7.45574e-05
-7.37329e-05
-7.19225e-05
-6.91141e-05
-6.51449e-05
-6.07191e-05
-5.68093e-05
-6.11629e-05
-4.25313e-05
-3.60557e-05
-3.08138e-05
-2.77443e-05
-2.57487e-05
-2.46305e-05
-2.42999e-05
-2.49072e-05
-2.10537e-05
-2.05823e-05
-2.07632e-05
-2.14685e-05
-2.26905e-05
-2.44995e-05
-2.71438e-05
-3.08519e-05
-3.64361e-05
-4.30464e-05
-5.40793e-05
-5.85058e-05
-6.41396e-05
-6.92267e-05
-7.40458e-05
-7.7494e-05
-7.98051e-05
-8.09651e-05
-8.10697e-05
-8.01186e-05
-7.80183e-05
-7.47813e-05
-7.01819e-05
-6.53095e-05
-5.9906e-05
-5.57849e-05
-4.48821e-05
-3.84028e-05
-3.29603e-05
-2.94404e-05
-2.70795e-05
-2.57394e-05
-2.53364e-05
-2.60571e-05
-2.16673e-05
-2.11421e-05
-2.13512e-05
-2.21501e-05
-2.35289e-05
-2.55673e-05
-2.85206e-05
-3.26031e-05
-3.84525e-05
-4.54734e-05
-5.47751e-05
-6.14173e-05
-6.80792e-05
-7.39434e-05
-7.94928e-05
-8.3393e-05
-8.60137e-05
-8.73155e-05
-8.74292e-05
-8.63548e-05
-8.39644e-05
-8.02951e-05
-7.49859e-05
-6.93493e-05
-6.29257e-05
-5.65184e-05
-4.73937e-05
-4.05208e-05
-3.48291e-05
-3.09473e-05
-2.82972e-05
-2.67692e-05
-2.63003e-05
-2.71098e-05
-2.22064e-05
-2.16339e-05
-2.1858e-05
-2.27173e-05
-2.41924e-05
-2.63575e-05
-2.94525e-05
-3.36778e-05
-3.95666e-05
-4.67197e-05
-5.57423e-05
-6.32168e-05
-7.06034e-05
-7.69059e-05
-8.28292e-05
-8.69617e-05
-8.97459e-05
-9.11233e-05
-9.12445e-05
-9.01097e-05
-8.75706e-05
-8.36829e-05
-7.80131e-05
-7.1946e-05
-6.48098e-05
-5.75501e-05
-4.87219e-05
-4.17291e-05
-3.60105e-05
-3.1999e-05
-2.92278e-05
-2.76117e-05
-2.71224e-05
-2.80124e-05
-2.26592e-05
-2.20502e-05
-2.22845e-05
-2.31871e-05
-2.47299e-05
-2.69817e-05
-3.01693e-05
-3.44895e-05
-4.04208e-05
-4.76693e-05
-5.6668e-05
-6.45825e-05
-7.23742e-05
-7.89791e-05
-8.51575e-05
-8.94427e-05
-9.2332e-05
-9.37591e-05
-9.38874e-05
-9.27167e-05
-9.0086e-05
-8.60578e-05
-8.0144e-05
-7.37815e-05
-6.62467e-05
-5.85434e-05
-4.97488e-05
-4.26674e-05
-3.69162e-05
-3.28219e-05
-2.99764e-05
-2.83059e-05
-2.78069e-05
-2.87561e-05
-2.3016e-05
-2.23807e-05
-2.26202e-05
-2.35498e-05
-2.51344e-05
-2.74383e-05
-3.06804e-05
-3.50583e-05
-4.10294e-05
-4.83646e-05
-5.74231e-05
-6.55868e-05
-7.36242e-05
-8.04161e-05
-8.6752e-05
-9.11359e-05
-9.4094e-05
-9.55555e-05
-9.56906e-05
-9.44988e-05
-9.18117e-05
-8.76957e-05
-8.16334e-05
-7.50898e-05
-6.73141e-05
-5.9362e-05
-5.05131e-05
-4.33496e-05
-3.75658e-05
-3.34229e-05
-3.05375e-05
-2.88389e-05
-2.83394e-05
-2.93313e-05
-2.32726e-05
-2.26225e-05
-2.2866e-05
-2.38131e-05
-2.54249e-05
-2.77642e-05
-3.10467e-05
-3.54729e-05
-4.14938e-05
-4.891e-05
-5.80534e-05
-6.63768e-05
-7.45753e-05
-8.15013e-05
-8.79519e-05
-9.24151e-05
-9.54288e-05
-9.692e-05
-9.70621e-05
-9.58542e-05
-9.3124e-05
-8.89392e-05
-8.27702e-05
-7.60977e-05
-6.81637e-05
-6.0052e-05
-5.112e-05
-4.38775e-05
-3.80475e-05
-3.38619e-05
-3.09451e-05
-2.92263e-05
-2.87244e-05
-2.97399e-05
-2.34269e-05
-2.27733e-05
-2.30203e-05
-2.39768e-05
-2.5604e-05
-2.79652e-05
-3.12779e-05
-3.57456e-05
-4.18225e-05
-4.93137e-05
-5.85492e-05
-6.69791e-05
-7.52823e-05
-8.23043e-05
-8.88367e-05
-9.33647e-05
-9.64243e-05
-9.79426e-05
-9.80922e-05
-9.6872e-05
-9.41089e-05
-8.98702e-05
-8.36266e-05
-7.68622e-05
-6.88241e-05
-6.06039e-05
-5.15786e-05
-4.42597e-05
-3.83741e-05
-3.41484e-05
-3.12046e-05
-2.94694e-05
-2.89617e-05
-2.99826e-05
-2.34776e-05
-2.28329e-05
-2.3083e-05
-2.40409e-05
-2.56712e-05
-2.80405e-05
-3.13724e-05
-3.58741e-05
-4.20127e-05
-4.95753e-05
-5.89144e-05
-6.74079e-05
-7.57627e-05
-8.28449e-05
-8.94267e-05
-9.40048e-05
-9.7101e-05
-9.86439e-05
-9.88023e-05
-9.75742e-05
-9.47893e-05
-9.05124e-05
-8.42266e-05
-7.74054e-05
-6.93135e-05
-6.10239e-05
-5.189e-05
-4.44951e-05
-3.85444e-05
-3.4282e-05
-3.13162e-05
-2.95692e-05
-2.90524e-05
-3.00606e-05
-2.34297e-05
-2.28046e-05
-2.30564e-05
-2.40062e-05
-2.56247e-05
-2.7984e-05
-3.13188e-05
-3.58414e-05
-4.20486e-05
-4.96814e-05
-5.9162e-05
-6.76652e-05
-7.59961e-05
-8.30924e-05
-8.96822e-05
-9.42933e-05
-9.74143e-05
-9.89793e-05
-9.91481e-05
-9.79188e-05
-9.5127e-05
-9.08323e-05
-8.45467e-05
-7.77147e-05
-6.96406e-05
-6.1329e-05
-5.20439e-05
-4.45705e-05
-3.85445e-05
-3.42544e-05
-3.1277e-05
-2.95267e-05
-2.89992e-05
-2.99759e-05
-2.32864e-05
-2.26911e-05
-2.294e-05
-2.38655e-05
-2.5446e-05
-2.77593e-05
-3.10543e-05
-3.55539e-05
-4.18188e-05
-4.95218e-05
-5.92584e-05
-6.76732e-05
-7.58416e-05
-8.28473e-05
-8.93478e-05
-9.39408e-05
-9.70536e-05
-9.8629e-05
-9.88115e-05
-9.75989e-05
-9.48392e-05
-9.05836e-05
-8.43984e-05
-7.76624e-05
-6.97386e-05
-6.14895e-05
-5.19331e-05
-4.43778e-05
-3.82848e-05
-3.40073e-05
-3.10556e-05
-2.93291e-05
-2.88001e-05
-2.97294e-05
-2.3058e-05
-2.25037e-05
-2.27459e-05
-2.36319e-05
-2.51479e-05
-2.73757e-05
-3.05795e-05
-3.49968e-05
-4.12998e-05
-4.90044e-05
-5.92934e-05
-6.74477e-05
-7.51375e-05
-8.19388e-05
-8.82437e-05
-9.27561e-05
-9.58159e-05
-9.73865e-05
-9.75876e-05
-9.64176e-05
-9.37448e-05
-8.96029e-05
-8.36314e-05
-7.71129e-05
-6.96457e-05
-6.16011e-05
-5.14709e-05
-4.39014e-05
-3.77584e-05
-3.35496e-05
-3.06699e-05
-2.89975e-05
-2.84749e-05
-2.93353e-05
-2.27563e-05
-2.22494e-05
-2.24731e-05
-2.32887e-05
-2.46825e-05
-2.6724e-05
-2.96658e-05
-3.37512e-05
-3.9806e-05
-4.71582e-05
-5.94091e-05
-6.67304e-05
-7.35364e-05
-7.97696e-05
-8.55158e-05
-8.97409e-05
-9.26175e-05
-9.41315e-05
-9.43588e-05
-9.32993e-05
-9.0859e-05
-8.70569e-05
-8.16745e-05
-7.57569e-05
-6.91468e-05
-6.17821e-05
-4.96878e-05
-4.24634e-05
-3.65565e-05
-3.26617e-05
-3.00194e-05
-2.84951e-05
-2.80207e-05
-2.88044e-05
-2.24061e-05
-2.19561e-05
-2.21633e-05
-2.29065e-05
-2.41721e-05
-2.60145e-05
-2.86547e-05
-3.23416e-05
-3.82379e-05
-4.57755e-05
-6.37112e-05
-6.53059e-05
-7.14512e-05
-7.76608e-05
-8.30494e-05
-8.70773e-05
-8.9826e-05
-9.13112e-05
-9.15733e-05
-9.06166e-05
-8.83752e-05
-8.48548e-05
-7.98815e-05
-7.40545e-05
-6.79919e-05
-6.59941e-05
-4.84326e-05
-4.1001e-05
-3.52274e-05
-3.17013e-05
-2.93248e-05
-2.79519e-05
-2.75151e-05
-2.81942e-05
-2.20254e-05
-2.163e-05
-2.18046e-05
-2.24389e-05
-2.34949e-05
-2.49512e-05
-2.68193e-05
-2.88658e-05
-3.00172e-05
-2.28467e-05
-8.11398e-05
-7.22435e-05
-7.46839e-05
-7.85625e-05
-8.18287e-05
-8.42184e-05
-8.56162e-05
-8.59203e-05
-8.51425e-05
-8.33462e-05
-8.07033e-05
-7.73063e-05
-7.5408e-05
-8.43991e-05
-2.56454e-05
-3.30036e-05
-3.18917e-05
-2.99474e-05
-2.82929e-05
-2.72538e-05
-2.69341e-05
-2.75251e-05
-2.16506e-05
-2.13119e-05
-2.14774e-05
-2.2058e-05
-2.30289e-05
-2.43907e-05
-2.62101e-05
-2.84758e-05
-3.15285e-05
-3.63422e-05
-3.7753e-05
-5.89487e-05
-6.45035e-05
-7.0222e-05
-7.46572e-05
-7.84382e-05
-8.10245e-05
-8.25529e-05
-8.29043e-05
-8.21042e-05
-8.02194e-05
-7.72066e-05
-7.32895e-05
-6.82275e-05
-6.27604e-05
-4.25128e-05
-4.01939e-05
-3.5067e-05
-3.17654e-05
-2.94577e-05
-2.77652e-05
-2.67482e-05
-2.64163e-05
-2.69023e-05
-2.12963e-05
-2.10054e-05
-2.11589e-05
-2.16851e-05
-2.25659e-05
-2.3813e-05
-2.54994e-05
-2.77522e-05
-3.07912e-05
-3.52496e-05
-4.22237e-05
-5.3995e-05
-5.94621e-05
-6.46999e-05
-6.87877e-05
-7.237e-05
-7.48048e-05
-7.6269e-05
-7.66434e-05
-7.59663e-05
-7.42835e-05
-7.15539e-05
-6.78946e-05
-6.32589e-05
-5.79661e-05
-4.67253e-05
-3.92403e-05
-3.44936e-05
-3.11664e-05
-2.88108e-05
-2.71929e-05
-2.62318e-05
-2.5911e-05
-2.63227e-05
-2.0986e-05
-2.07393e-05
-2.08925e-05
-2.13899e-05
-2.22241e-05
-2.34198e-05
-2.50598e-05
-2.72931e-05
-3.03533e-05
-3.4648e-05
-4.04868e-05
-4.82498e-05
-5.36386e-05
-5.86084e-05
-6.25727e-05
-6.61303e-05
-6.85251e-05
-6.99567e-05
-7.03398e-05
-6.97207e-05
-6.81052e-05
-6.54671e-05
-6.18476e-05
-5.73915e-05
-5.22897e-05
-4.50504e-05
-3.88168e-05
-3.41773e-05
-3.07864e-05
-2.84048e-05
-2.67894e-05
-2.58312e-05
-2.54912e-05
-2.58309e-05
-2.07304e-05
-2.05221e-05
-2.06778e-05
-2.11524e-05
-2.19429e-05
-2.3077e-05
-2.46292e-05
-2.6734e-05
-2.95609e-05
-3.34171e-05
-3.82164e-05
-4.41618e-05
-4.90369e-05
-5.35879e-05
-5.73489e-05
-6.06834e-05
-6.29309e-05
-6.42745e-05
-6.46528e-05
-6.4114e-05
-6.26445e-05
-6.02393e-05
-5.68639e-05
-5.28203e-05
-4.8211e-05
-4.26955e-05
-3.75428e-05
-3.33551e-05
-3.02118e-05
-2.79565e-05
-2.64145e-05
-2.54888e-05
-2.51434e-05
-2.54257e-05
-2.05411e-05
-2.0371e-05
-2.05387e-05
-2.10032e-05
-2.17635e-05
-2.28446e-05
-2.43067e-05
-2.62515e-05
-2.87878e-05
-3.20902e-05
-3.60701e-05
-4.08192e-05
-4.51999e-05
-4.94889e-05
-5.30525e-05
-5.6102e-05
-5.81861e-05
-5.94336e-05
-5.98015e-05
-5.93306e-05
-5.80031e-05
-5.58286e-05
-5.27644e-05
-4.90836e-05
-4.48454e-05
-4.03091e-05
-3.60242e-05
-3.2447e-05
-2.96538e-05
-2.75884e-05
-2.61434e-05
-2.52543e-05
-2.48987e-05
-2.5124e-05
-2.04233e-05
-2.02987e-05
-2.04928e-05
-2.09621e-05
-2.17073e-05
-2.27517e-05
-2.41432e-05
-2.59551e-05
-2.82548e-05
-3.11393e-05
-3.45342e-05
-3.84681e-05
-4.23503e-05
-4.62302e-05
-4.94968e-05
-5.22346e-05
-5.41435e-05
-5.52923e-05
-5.5647e-05
-5.52365e-05
-5.40481e-05
-5.21019e-05
-4.93794e-05
-4.60992e-05
-4.23197e-05
-3.84803e-05
-3.48582e-05
-3.17692e-05
-2.92816e-05
-2.73872e-05
-2.60263e-05
-2.51595e-05
-2.47762e-05
-2.49335e-05
-2.03705e-05
-2.03137e-05
-2.0546e-05
-2.10351e-05
-2.17858e-05
-2.28231e-05
-2.41885e-05
-2.5937e-05
-2.81145e-05
-3.07708e-05
-3.38493e-05
-3.73189e-05
-4.08507e-05
-4.43579e-05
-4.7392e-05
-4.9912e-05
-5.17096e-05
-5.27962e-05
-5.31416e-05
-5.27615e-05
-5.16528e-05