/*--------------------------------*- C++ -*----------------------------------*\
| =========                 |                                                 |
| \\      /  F ield         | OpenFOAM: The Open Source CFD Toolbox           |
|  \\    /   O peration     | Version:  2112                                  |
|   \\  /    A nd           | Website:  www.openfoam.com                      |
|    \\/     M anipulation  |                                                 |
\*---------------------------------------------------------------------------*/
FoamFile
{
    version     2.0;
    format      ascii;
    arch        "LSB;label=32;scalar=64";
    class       surfaceScalarField;
    location    "0.7";
    object      phi;
}
// * * * * * * * * * * * * * * * * * * * * * * * * * * * * * * * * * * * * * //

dimensions      [0 3 -1 0 0 0 0];

oriented        oriented;

internalField   nonuniform List<scalar> 
188215
(
1.30937e-09
3.0819e-09
-4.39127e-09
3.18659e-09
2.85131e-09
-4.72853e-09
5.13245e-09
2.7528e-09
-4.69866e-09
7.0176e-09
2.87664e-09
-4.7618e-09
8.81867e-09
3.17971e-09
-4.98078e-09
1.05263e-08
3.62231e-09
-5.32995e-09
1.21227e-08
4.19309e-09
-5.78946e-09
1.35563e-08
4.91131e-09
-6.34499e-09
1.47608e-08
5.78434e-09
-6.98882e-09
1.55775e-08
6.87955e-09
-7.69621e-09
1.59039e-08
8.12751e-09
-8.45394e-09
1.54798e-08
9.64e-09
-9.21591e-09
1.43703e-08
1.10616e-08
-9.95206e-09
1.25801e-08
1.24032e-08
-1.0613e-08
1.02387e-08
1.3522e-08
-1.11807e-08
7.45331e-09
1.44125e-08
-1.1627e-08
4.37236e-09
1.50221e-08
-1.19411e-08
1.14409e-09
1.53401e-08
-1.21118e-08
-2.07379e-09
1.53533e-08
-1.21354e-08
-5.12384e-09
1.5062e-08
-1.20119e-08
-7.85797e-09
1.44796e-08
-1.17455e-08
-1.01278e-08
1.36175e-08
-1.13477e-08
-1.18277e-08
1.25296e-08
-1.08298e-08
-1.28293e-08
1.12221e-08
-1.02205e-08
-1.31321e-08
9.84132e-09
-9.53844e-09
-1.26725e-08
8.37518e-09
-8.83487e-09
-1.17179e-08
7.18669e-09
-8.14126e-09
-1.03677e-08
6.15797e-09
-7.50815e-09
-8.78031e-09
5.36757e-09
-6.95497e-09
-7.01776e-09
4.75894e-09
-6.52149e-09
-5.13072e-09
4.35667e-09
-6.24371e-09
-3.15844e-09
4.19843e-09
-6.17071e-09
-1.24804e-09
4.32455e-09
-6.23495e-09
4.601e-09
-5.84903e-09
8.38451e-10
7.28288e-09
-5.03943e-09
3.11481e-09
7.68887e-09
-7.11393e-09
5.47058e-09
7.97581e-09
-7.57878e-09
7.6359e-09
8.54966e-09
-7.83835e-09
9.64907e-09
9.4552e-09
-8.28866e-09
1.15488e-08
1.06778e-08
-8.95523e-09
1.334e-08
1.22232e-08
-9.82136e-09
1.49811e-08
1.41467e-08
-1.08764e-08
1.64025e-08
1.64792e-08
-1.21163e-08
1.74168e-08
1.93881e-08
-1.35228e-08
1.78879e-08
2.27234e-08
-1.50669e-08
1.74371e-08
2.67732e-08
-1.66825e-08
1.61825e-08
3.05665e-08
-1.82503e-08
1.41457e-08
3.4115e-08
-1.96751e-08
1.14901e-08
3.70705e-08
-2.08928e-08
8.33788e-09
3.94171e-08
-2.18524e-08
4.85661e-09
4.10261e-08
-2.25227e-08
1.21155e-09
4.18675e-08
-2.28824e-08
-2.42226e-09
4.19086e-08
-2.29215e-08
-5.8697e-09
4.11496e-08
-2.26402e-08
-8.96546e-09
3.96245e-08
-2.20491e-08
-1.15421e-08
3.73643e-08
-2.11701e-08
-1.34785e-08
3.45012e-08
-2.00352e-08
-1.46123e-08
3.10527e-08
-1.86968e-08
-1.49269e-08
2.73763e-08
-1.72204e-08
-1.43051e-08
2.34575e-08
-1.57041e-08
-1.31355e-08
2.0287e-08
-1.42699e-08
-1.15462e-08
1.75586e-08
-1.29899e-08
-9.71663e-09
1.54405e-08
-1.19025e-08
-7.68899e-09
1.37784e-08
-1.10471e-08
-5.45253e-09
1.25769e-08
-1.04567e-08
-2.97036e-09
1.18226e-08
-1.01063e-08
-5.84654e-10
1.14326e-08
-9.49374e-09
1.08299e-08
-6.81351e-09
7.24372e-10
1.16589e-08
-5.10044e-09
3.30335e-09
1.2703e-08
-7.59312e-09
6.04489e-09
1.34424e-08
-8.20813e-09
8.55443e-09
1.45634e-08
-8.52331e-09
1.08854e-08
1.61695e-08
-9.04523e-09
1.31106e-08
1.82777e-08
-9.82518e-09
1.52657e-08
2.09212e-08
-1.08531e-08
1.7328e-08
2.42093e-08
-1.21248e-08
1.92369e-08
2.82174e-08
-1.36471e-08
2.07272e-08
3.33041e-08
-1.54064e-08
2.1602e-08
3.92268e-08
-1.73782e-08
2.10979e-08
4.67399e-08
-1.94625e-08
1.95451e-08
5.36131e-08
-2.14939e-08
1.70056e-08
5.99848e-08
-2.33303e-08
1.37434e-08
6.5227e-08
-2.48942e-08
9.89764e-09
6.93798e-08
-2.6117e-08
5.67281e-09
7.22179e-08
-2.6967e-08
1.25815e-09
7.3701e-08
-2.74188e-08
-3.1447e-09
7.37728e-08
-2.74614e-08
-7.3338e-09
7.24336e-08
-2.70949e-08
-1.11194e-08
6.97411e-08
-2.63311e-08
-1.4296e-08
6.57369e-08
-2.51959e-08
-1.67248e-08
6.06517e-08
-2.37217e-08
-1.81413e-08
5.44479e-08
-2.19788e-08
-1.84898e-08
4.77709e-08
-2.00461e-08
-1.74384e-08
4.04757e-08
-1.80696e-08
-1.57692e-08
3.48351e-08
-1.62174e-08
-1.36602e-08
3.00474e-08
-1.45977e-08
-1.13606e-08
2.63866e-08
-1.32456e-08
-8.88562e-09
2.35039e-08
-1.22005e-08
-6.18385e-09
2.13599e-08
-1.14848e-08
-3.19521e-09
1.98716e-08
-1.10376e-08
-4.31168e-10
1.88809e-08
-1.02123e-08
1.73839e-08
-6.98523e-09
8.90813e-10
1.59095e-08
-5.14142e-09
3.90393e-09
1.74403e-08
-7.75041e-09
7.14123e-09
1.8594e-08
-8.38891e-09
1.01417e-08
2.0276e-08
-8.713e-09
1.29697e-08
2.26251e-08
-9.2837e-09
1.57329e-08
2.56773e-08
-1.01627e-08
1.85115e-08
2.94897e-08
-1.13471e-08
2.13291e-08
3.42384e-08
-1.28467e-08
2.41603e-08
4.00739e-08
-1.46877e-08
2.66225e-08
4.77128e-08
-1.68709e-08
2.83755e-08
5.68568e-08
-1.9383e-08
2.7731e-08
6.94733e-08
-2.20888e-08
2.5567e-08
8.05041e-08
-2.4727e-08
2.20769e-08
9.05663e-08
-2.70914e-08
1.77175e-08
9.86795e-08
-2.9093e-08
1.26378e-08
1.05095e-07
-3.06355e-08
7.09994e-09
1.09457e-07
-3.17009e-08
1.33002e-09
1.11732e-07
-3.2261e-08
-4.42759e-09
1.11835e-07
-3.2305e-08
-9.92784e-09
1.09767e-07
-3.18329e-08
-1.49432e-08
1.05613e-07
-3.0856e-08
-1.92087e-08
9.94055e-08
-2.94032e-08
-2.25737e-08
9.15092e-08
-2.74926e-08
-2.45776e-08
8.16742e-08
-2.52224e-08
-2.50351e-08
7.09109e-08
-2.26825e-08
-2.30612e-08
5.85869e-08
-2.00851e-08
-2.03872e-08
4.98543e-08
-1.76932e-08
-1.73125e-08
4.26267e-08
-1.5654e-08
-1.41962e-08
3.72619e-08
-1.39916e-08
-1.10043e-08
3.30502e-08
-1.27381e-08
-7.62985e-09
2.98895e-08
-1.1904e-08
-3.97985e-09
2.76343e-08
-1.14126e-08
-6.35378e-10
2.60796e-08
-1.05432e-08
2.38882e-08
-7.13966e-09
1.25029e-09
1.99364e-08
-5.27716e-09
4.88375e-09
2.18889e-08
-8.08205e-09
8.79639e-09
2.34492e-08
-8.7679e-09
1.24737e-08
2.57286e-08
-9.12991e-09
1.60021e-08
2.8895e-08
-9.79829e-09
1.95387e-08
3.29902e-08
-1.08495e-08
2.3239e-08
3.80851e-08
-1.22957e-08
2.72408e-08
4.4413e-08
-1.41765e-08
3.16352e-08
5.22337e-08
-1.65542e-08
3.59385e-08
6.28766e-08
-1.94671e-08
3.95202e-08
7.61959e-08
-2.29209e-08
3.84874e-08
9.72716e-08
-2.67656e-08
3.51256e-08
1.14357e-07
-3.04909e-08
3.00013e-08
1.29495e-07
-3.38048e-08
2.3886e-08
1.41393e-07
-3.65978e-08
1.68742e-08
1.50806e-07
-3.86989e-08
9.29914e-09
1.57175e-07
-4.01429e-08
1.43287e-09
1.60492e-07
-4.08936e-08
-6.42097e-09
1.6063e-07
-4.0941e-08
-1.39576e-08
1.57588e-07
-4.02851e-08
-2.09022e-08
1.51493e-07
-3.89358e-08
-2.69154e-08
1.42348e-07
-3.69297e-08
-3.18978e-08
1.30723e-07
-3.42315e-08
-3.5067e-08
1.15858e-07
-3.10146e-08
-3.58658e-08
9.90978e-08
-2.73881e-08
-3.19912e-08
7.83655e-08
-2.36533e-08
-2.74396e-08
6.56247e-08
-2.0322e-08
-2.27523e-08
5.55003e-08
-1.75609e-08
-1.83782e-08
4.82622e-08
-1.53745e-08
-1.41509e-08
4.2589e-08
-1.37661e-08
-9.83852e-09
3.82962e-08
-1.27191e-08
-5.27544e-09
3.51993e-08
-1.21281e-08
-1.08986e-09
3.30632e-08
-1.11693e-08
3.02462e-08
-7.44789e-09
1.76895e-09
2.3666e-08
-5.49853e-09
6.23725e-09
2.6021e-08
-8.60042e-09
1.1047e-08
2.80179e-08
-9.37844e-09
1.56216e-08
3.09689e-08
-9.81487e-09
2.00752e-08
3.50756e-08
-1.06342e-08
2.46299e-08
4.03742e-08
-1.19388e-08
2.95562e-08
4.69265e-08
-1.37677e-08
3.52443e-08
5.49415e-08
-1.62166e-08
4.21123e-08
6.47689e-08
-1.94031e-08
4.98821e-08
7.85489e-08
-2.34421e-08
5.73502e-08
9.70164e-08
-2.82885e-08
5.52623e-08
1.33351e-07
-3.39913e-08
4.95544e-08
1.59551e-07
-3.94866e-08
4.17314e-08
1.81696e-07
-4.43772e-08
3.29655e-08
1.98658e-07
-4.85e-08
2.30922e-08
2.1215e-07
-5.14712e-08
1.25173e-08
2.21257e-07
-5.35074e-08
1.56996e-09
2.25995e-07
-5.45559e-08
-9.36586e-09
2.26176e-07
-5.46098e-08
-1.99044e-08
2.21796e-07
-5.36691e-08
-2.97125e-08
2.13041e-07
-5.17397e-08
-3.83737e-08
1.99884e-07
-4.88743e-08
-4.60414e-08
1.83245e-07
-4.48542e-08
-5.1519e-08
1.61401e-07
-4.00658e-08
-5.33049e-08
1.35554e-07
-3.46701e-08
-4.54199e-08
9.95575e-08
-2.90769e-08
-3.73765e-08
8.19364e-08
-2.4355e-08
-3.01704e-08
6.87732e-08
-2.0479e-08
-2.40249e-08
5.9618e-08
-1.75013e-08
-1.84266e-08
5.23497e-08
-1.5359e-08
-1.28775e-08
4.67361e-08
-1.3989e-08
-7.0949e-09
4.26443e-08
-1.32276e-08
-1.76502e-09
3.98363e-08
-1.21029e-08
3.63841e-08
-7.90287e-09
2.45186e-09
2.69936e-08
-5.77949e-09
7.9966e-09
2.97423e-08
-9.266e-09
1.39652e-08
3.22246e-08
-1.01753e-08
1.96993e-08
3.59517e-08
-1.07168e-08
2.53364e-08
4.11742e-08
-1.17358e-08
3.11653e-08
4.79187e-08
-1.33733e-08
3.76011e-08
5.62015e-08
-1.57108e-08
4.55111e-08
6.59736e-08
-1.89421e-08
5.60878e-08
7.7461e-08
-2.32688e-08
7.02446e-08
9.32735e-08
-2.88814e-08
8.633e-08
1.16446e-07
-3.55148e-08
8.12405e-08
1.82418e-07
-4.39778e-08
7.07496e-08
2.22056e-07
-5.20135e-08
5.8536e-08
2.53238e-07
-5.93291e-08
4.59122e-08
2.7685e-07
-6.55679e-08
3.19498e-08
2.95827e-07
-6.97141e-08
1.7093e-08
3.08689e-07
-7.2575e-08
1.74827e-09
3.15379e-07
-7.40393e-08
-1.35876e-08
3.15616e-07
-7.4104e-08
-2.84159e-08
3.09393e-07
-7.27689e-08
-4.23256e-08
2.96985e-07
-7.00346e-08
-5.48567e-08
2.78427e-07
-6.60123e-08
-6.69174e-08
2.55194e-07
-5.98881e-08
-7.71433e-08
2.24309e-07
-5.26821e-08
-8.18347e-08
1.8499e-07
-4.4745e-08
-6.50988e-08
1.19206e-07
-3.63843e-08
-5.06924e-08
9.74055e-08
-2.98755e-08
-3.97601e-08
8.22773e-08
-2.44363e-08
-3.12986e-08
7.14953e-08
-2.03388e-08
-2.40049e-08
6.25113e-08
-1.74553e-08
-1.68895e-08
5.52693e-08
-1.56485e-08
-9.523e-09
4.99283e-08
-1.46506e-08
-2.68707e-09
4.62907e-08
-1.32904e-08
4.2165e-08
-8.468e-09
3.32606e-09
2.97662e-08
-6.09865e-09
1.0231e-08
3.28885e-08
-1.00512e-08
1.76794e-08
3.59015e-08
-1.11252e-08
2.4907e-08
4.05208e-08
-1.17967e-08
3.20452e-08
4.70962e-08
-1.30602e-08
3.93761e-08
5.5699e-08
-1.51112e-08
4.73438e-08
6.63275e-08
-1.80937e-08
5.74117e-08
7.82812e-08
-2.23756e-08
7.22049e-08
9.08894e-08
-2.82216e-08
9.77243e-08
1.0384e-07
-3.60855e-08
1.33016e-07
1.24301e-07
-4.31469e-08
1.20275e-07
2.49434e-07
-5.42742e-08
1.0099e-07
3.07224e-07
-6.58827e-08
8.2286e-08
3.4881e-07
-7.68681e-08
6.43304e-08
3.81123e-07
-8.63174e-08
4.46145e-08
4.07283e-07
-9.17404e-08
2.3632e-08
4.25203e-07
-9.55322e-08
1.98049e-09
4.34506e-07
-9.74753e-08
-1.96672e-08
4.34818e-07
-9.75548e-08
-4.06371e-08
4.26133e-07
-9.57702e-08
-6.03306e-08
4.08811e-07
-9.2132e-08
-7.82373e-08
3.83193e-07
-8.68593e-08
-9.68396e-08
3.51337e-07
-7.75415e-08
-1.15876e-07
3.10022e-07
-6.66762e-08
-1.28079e-07
2.52367e-07
-5.51742e-08
-9.16586e-08
1.26902e-07
-4.41166e-08
-6.60612e-08
1.08976e-07
-3.7168e-08
-5.09397e-08
9.66476e-08
-2.94919e-08
-4.02105e-08
8.46676e-08
-2.39014e-08
-3.11444e-08
7.34619e-08
-2.00168e-08
-2.21417e-08
6.39181e-08
-1.76516e-08
-1.27422e-08
5.68839e-08
-1.6355e-08
-3.93768e-09
5.21808e-08
-1.46946e-08
4.7331e-08
-9.10369e-09
4.40233e-09
3.1808e-08
-6.4441e-09
1.29752e-08
3.52568e-08
-1.09411e-08
2.2271e-08
3.88188e-08
-1.22131e-08
3.14084e-08
4.44227e-08
-1.30393e-08
4.04844e-08
5.26111e-08
-1.45909e-08
4.96405e-08
6.36686e-08
-1.71256e-08
5.90318e-08
7.78033e-08
-2.08671e-08
7.03714e-08
9.33413e-08
-2.63997e-08
8.81229e-08
1.07444e-07
-3.43057e-08
1.28788e-07
1.06916e-07
-4.37419e-08
2.0603e-07
1.00917e-07
-5.38582e-08
1.74446e-07
3.40521e-07
-5.95029e-08
1.40556e-07
4.14187e-07
-7.30738e-08
1.13755e-07
4.64002e-07
-8.83919e-08
8.91194e-08
5.07337e-07
-1.01578e-07
6.18693e-08
5.4215e-07
-1.07617e-07
3.25837e-08
5.66608e-07
-1.12119e-07
2.28777e-09
5.79231e-07
-1.1443e-07
-2.8012e-08
5.7964e-07
-1.14522e-07
-5.73109e-08
5.67829e-07
-1.12396e-07
-8.45935e-08
5.44164e-07
-1.0807e-07
-1.09277e-07
5.10084e-07
-1.02207e-07
-1.3613e-07
4.67353e-07
-8.91631e-08
-1.69927e-07
4.178e-07
-7.39799e-08
-2.00845e-07
3.43798e-07
-6.05132e-08
-1.21496e-07
1.02625e-07
-5.50714e-08
-8.12709e-08
1.13676e-07
-4.4925e-08
-6.32742e-08
1.14327e-07
-3.56761e-08
-5.1125e-08
1.00581e-07
-2.80631e-08
-4.03046e-08
8.56284e-08
-2.29869e-08
-2.89671e-08
7.25495e-08
-1.99688e-08
-1.69357e-08
6.31805e-08
-1.83281e-08
-5.58279e-09
5.71318e-08
-1.63039e-08
5.15405e-08
-9.79225e-09
5.72609e-09
3.28782e-08
-6.79635e-09
1.63434e-08
3.65546e-08
-1.19152e-08
2.80013e-08
4.05747e-08
-1.34137e-08
3.9754e-08
4.70834e-08
-1.44134e-08
5.16964e-08
5.69548e-08
-1.62861e-08
6.35847e-08
7.11253e-08
-1.9345e-08
7.43192e-08
9.08943e-08
-2.38255e-08
8.22152e-08
1.16229e-07
-3.07835e-08
8.70961e-08
1.42224e-07
-3.96614e-08
1.19398e-07
1.2705e-07
-5.24354e-08
2.96558e-07
-7.62428e-08
2.31711e-07
4.55037e-07
-4.96693e-08
1.88992e-07
5.16272e-07
-5.93651e-08
1.572e-07
5.7063e-07
-7.48365e-08
1.24787e-07
6.28022e-07
-8.82718e-08
8.6821e-08
6.72548e-07
-9.24319e-08
4.54538e-08
7.04021e-07
-9.60457e-08
2.69218e-09
7.19964e-07
-9.79715e-08
-4.00787e-08
7.20468e-07
-9.80566e-08
-8.14809e-08
7.05532e-07
-9.63013e-08
-1.19541e-07
6.75068e-07
-9.28445e-08
-1.52139e-07
6.31536e-07
-8.88543e-08
-1.84333e-07
5.75088e-07
-7.55405e-08
-2.27686e-07
5.21345e-07
-6.01929e-08
-2.92392e-07
4.59245e-07
-5.07401e-08
-1.11714e-07
-7.80537e-08
-7.96153e-08
1.35099e-07
-5.35215e-08
-7.47666e-08
1.5056e-07
-4.10813e-08
-6.57729e-08
1.24174e-07
-3.25867e-08
-5.31398e-08
9.91528e-08
-2.61575e-08
-3.84295e-08
8.03693e-08
-2.25301e-08
-2.26635e-08
6.79512e-08
-2.05367e-08
-7.85957e-09
6.04226e-08
-1.80947e-08
5.41609e-08
-1.048e-08
7.20358e-09
3.28341e-08
-7.15939e-09
2.01271e-08
3.65913e-08
-1.29602e-08
3.45335e-08
4.08902e-08
-1.4722e-08
4.95247e-08
4.80266e-08
-1.59344e-08
6.54231e-08
5.92489e-08
-1.81925e-08
8.19414e-08
7.63902e-08
-2.17832e-08
9.66477e-08
1.03006e-07
-2.68184e-08
1.01834e-07
1.44126e-07
-3.30839e-08
8.21649e-08
2.0616e-07
-4.42671e-08
2.77074e-07
-6.78589e-08
1.52876e-07
2.62881e-07
3.928e-08
2.04889e-07
4.46139e-07
1.81185e-08
2.01662e-07
5.57996e-07
1.58617e-08
1.66564e-07
6.43037e-07
2.00829e-08
1.17214e-07
7.01654e-07
2.02441e-08
6.14955e-08
7.39779e-07
1.99612e-08
3.22596e-09
7.58385e-07
1.98493e-08
-5.50575e-08
7.58905e-07
1.98463e-08
-1.1083e-07
7.41353e-07
1.99514e-08
-1.60327e-07
7.0433e-07
2.02353e-08
-1.95775e-07
6.46915e-07
2.00684e-08
-1.99873e-07
5.63298e-07
1.58882e-08
-1.49704e-07
4.53188e-07
1.79883e-08
2.70907e-07
3.86335e-08
-7.92301e-08
2.81786e-07
-6.74573e-08
-9.59554e-08
2.12763e-07
-4.54781e-08
-8.81714e-08
1.51374e-07
-3.49837e-08
-7.06306e-08
1.10974e-07
-2.93619e-08
-5.04214e-08
8.55034e-08
-2.53433e-08
-2.96449e-08
7.02049e-08
-2.30302e-08
-1.05808e-08
6.14489e-08
-2.00904e-08
5.47878e-08
-1.12077e-08
8.89036e-09
3.14533e-08
-7.50964e-09
2.44766e-08
3.50337e-08
-1.40287e-08
4.23514e-08
3.90762e-08
-1.60607e-08
6.2168e-08
4.57055e-08
-1.74955e-08
8.56926e-08
5.59007e-08
-2.01763e-08
1.15611e-07
7.08947e-08
-2.44225e-08
1.56214e-07
9.26859e-08
-3.02831e-08
2.14179e-07
1.23036e-07
-3.68746e-08
3.01102e-07
1.61062e-07
-4.18243e-08
4.26934e-07
1.89754e-07
-3.85118e-08
3.29294e-07
8.09868e-08
1.66526e-08
3.59576e-07
2.04953e-07
2.76459e-08
3.53929e-07
3.42783e-07
1.09004e-07
3.08109e-07
4.38198e-07
1.65618e-07
2.38908e-07
5.12027e-07
2.00211e-07
1.62279e-07
5.63002e-07
2.15282e-07
8.33347e-08
5.95908e-07
2.22814e-07
3.79024e-09
6.11981e-07
2.25948e-07
-7.57443e-08
6.1243e-07
2.26009e-07
-1.54658e-07
5.97263e-07
2.23004e-07
-2.31238e-07
5.65292e-07
2.15618e-07
-3.00348e-07
5.15306e-07
2.00719e-07
-3.46037e-07
4.42548e-07
1.6644e-07
-3.51146e-07
3.4812e-07
1.10175e-07
-3.20739e-07
2.10887e-07
2.96145e-08
-4.22348e-07
8.31369e-08
1.84715e-08
-2.96061e-07
1.93965e-07
-3.84661e-08
-2.07224e-07
1.66777e-07
-4.28502e-08
-1.4683e-07
1.29634e-07
-3.86534e-08
-1.03068e-07
1.0017e-07
-3.29582e-08
-6.87885e-08
7.95895e-08
-2.83655e-08
-3.93357e-08
6.64288e-08
-2.56767e-08
-1.4295e-08
5.86249e-08
-2.22167e-08
5.23982e-08
-1.19053e-08
1.03928e-08
2.89186e-08
-7.85809e-09
2.8334e-08
3.21542e-08
-1.50617e-08
4.9081e-08
3.57031e-08
-1.73739e-08
7.24385e-08
4.14106e-08
-1.90626e-08
1.00634e-07
4.99265e-08
-2.22213e-08
1.36929e-07
6.18655e-08
-2.72656e-08
1.86e-07
7.7896e-08
-3.42818e-08
2.53835e-07
9.80703e-08
-4.28694e-08
3.45683e-07
1.19632e-07
-5.04176e-08
4.52599e-07
1.35221e-07
-5.23825e-08
4.61268e-07
1.04861e-07
-3.2543e-08
4.88204e-07
1.73244e-07
4.77347e-09
4.52367e-07
2.56497e-07
1.22123e-07
3.80009e-07
3.21934e-07
1.88622e-07
2.90053e-07
3.75381e-07
2.26602e-07
1.95135e-07
4.13306e-07
2.44613e-07
9.95065e-08
4.38279e-07
2.53258e-07
4.23518e-09
4.50606e-07
2.56647e-07
-9.10194e-08
4.50982e-07
2.56702e-07
-1.86595e-07
4.39411e-07
2.53427e-07
-2.81422e-07
4.152e-07
2.4492e-07
-3.71235e-07
3.78038e-07
2.2708e-07
-4.4346e-07
3.25348e-07
1.89425e-07
-4.79174e-07
2.60523e-07
1.23312e-07
-4.5271e-07
1.77654e-07
6.76819e-09
-4.46172e-07
1.07949e-07
-3.13503e-08
-3.39348e-07
1.39444e-07
-5.23019e-08
-2.45998e-07
1.24764e-07
-5.13379e-08
-1.75714e-07
1.04013e-07
-4.46636e-08
-1.23145e-07
8.47219e-08
-3.71219e-08
-8.18579e-08
6.98731e-08
-3.15703e-08
-4.67647e-08
5.96493e-08
-2.83138e-08
-1.71711e-08
5.32988e-08
-2.42674e-08
4.78578e-08
-1.26308e-08
1.17359e-08
2.53576e-08
-8.17487e-09
3.17589e-08
2.81214e-08
-1.59902e-08
5.49859e-08
3.10179e-08
-1.85418e-08
8.1251e-08
3.55784e-08
-2.04329e-08
1.12949e-07
4.21972e-08
-2.3969e-08
1.53333e-07
5.11259e-08
-2.9644e-08
2.06371e-07
6.24666e-08
-3.76082e-08
2.76275e-07
7.6011e-08
-4.7845e-08
3.64328e-07
8.96772e-08
-5.8098e-08
4.62609e-07
1.01899e-07
-6.49591e-08
5.18841e-07
1.00399e-07
-5.17704e-08
5.61987e-07
1.39789e-07
-9.69117e-09
5.18296e-07
1.8893e-07
1.11257e-07
4.33131e-07
2.31795e-07
1.75304e-07
3.2871e-07
2.68348e-07
2.11455e-07
2.20296e-07
2.95051e-07
2.26668e-07
1.12033e-07
3.13033e-07
2.33509e-07
4.61292e-09
3.22035e-07
2.35991e-07
-1.02788e-07
3.22357e-07
2.36026e-07
-2.10992e-07
3.13996e-07
2.33619e-07
-3.19312e-07
2.96644e-07
2.26876e-07
-4.23612e-07
2.70543e-07
2.11795e-07
-5.08756e-07
2.34554e-07
1.75937e-07
-5.52615e-07
1.92126e-07
1.12256e-07
-5.1059e-07
1.43294e-07
-7.66399e-09
-4.55529e-07
1.03625e-07
-5.07377e-08
-3.57124e-07
1.05809e-07
-6.47704e-08
-2.67608e-07
9.42142e-08
-5.89655e-08
-1.95157e-07
8.12396e-08
-4.96772e-08
-1.38324e-07
6.84951e-08
-4.06066e-08
-9.24032e-08
5.82177e-08
-3.4265e-08
-5.29729e-08
5.07859e-08
-3.05669e-08
-1.9621e-08
4.59944e-08
-2.60475e-08
4.15075e-08
-1.32706e-08
1.27955e-08
2.10278e-08
-8.46576e-09
3.446e-08
2.32504e-08
-1.67934e-08
5.95555e-08
2.54696e-08
-1.95473e-08
8.78428e-08
2.88998e-08
-2.16088e-08
1.2172e-07
3.37775e-08
-2.54574e-08
1.64306e-07
4.01863e-08
-3.16467e-08
2.19085e-07
4.80593e-08
-4.03716e-08
2.89621e-07
5.72585e-08
-5.17831e-08
3.76337e-07
6.6654e-08
-6.36935e-08
4.74256e-07
7.67385e-08
-7.2758e-08
5.52219e-07
8.34703e-08
-6.10349e-08
6.06119e-07
1.0778e-07
-2.18907e-08
5.59487e-07
1.38063e-07
9.74993e-08
4.6776e-07
1.65956e-07
1.57566e-07
3.54896e-07
1.90439e-07
1.90773e-07
2.37825e-07
2.08877e-07
2.03245e-07
1.2091e-07
2.21506e-07
2.08442e-07
4.9303e-09
2.27926e-07
2.10089e-07
-1.11035e-07
2.28215e-07
2.10107e-07
-2.27905e-07
2.22366e-07
2.085e-07
-3.44911e-07
2.10285e-07
2.03365e-07
-4.57708e-07
1.92351e-07
1.90988e-07
-5.49513e-07
1.68316e-07
1.58043e-07
-5.96478e-07
1.40769e-07
9.8323e-08
-5.43887e-07
1.10764e-07
-2.00622e-08
-4.66676e-07
8.65033e-08
-6.0089e-08
-3.68485e-07
8.02199e-08
-7.26019e-08
-2.80251e-07
7.05863e-08
-6.4606e-08
-2.07041e-07
6.17336e-08
-5.37044e-08
-1.48202e-07
5.31897e-08
-4.3533e-08
-9.96308e-08
4.61895e-08
-3.65433e-08
-5.7359e-08
4.09867e-08
-3.24725e-08
-2.13428e-08
3.7539e-08
-2.75609e-08
3.40363e-08
-1.38716e-08
1.36039e-08
1.61364e-08
-8.71249e-09
3.65176e-08
1.77801e-08
-1.74434e-08
6.30036e-08
1.93346e-08
-2.0351e-08
9.27362e-08
2.17029e-08
-2.25357e-08
1.28091e-07
2.50315e-08
-2.66092e-08
1.72091e-07
2.93499e-08
-3.3163e-08
2.27974e-07
3.45959e-08
-4.24202e-08
2.99102e-07
4.07414e-08
-5.46103e-08
3.86032e-07
4.72934e-08
-6.75698e-08
4.85772e-07
5.49708e-08
-7.79718e-08
5.73988e-07
6.24149e-08
-6.71608e-08
6.33777e-07
7.77497e-08
-2.97596e-08
5.86508e-07
9.65334e-08
8.87991e-08
4.91304e-07
1.14339e-07
1.46822e-07
3.73119e-07
1.302e-07
1.78424e-07
2.50232e-07
1.4241e-07
1.89354e-07
1.27281e-07
1.5088e-07
1.93578e-07
5.21657e-09
1.5526e-07
1.9473e-07
-1.16841e-07
1.55534e-07
1.94739e-07
-2.39771e-07
1.5169e-07
1.93607e-07
-3.62635e-07
1.43723e-07
1.89426e-07
-4.80815e-07
1.3196e-07
1.78571e-07
-5.76181e-07
1.16473e-07
1.4721e-07
-6.23878e-07
9.89473e-08
8.95187e-08
-5.65466e-07
8.03766e-08
-2.8024e-08
-4.77819e-07
6.51519e-08
-6.6296e-08
-3.77715e-07
5.79873e-08
-7.78714e-08
-2.89184e-07
5.06064e-08
-6.85513e-08
-2.15253e-07
4.44306e-08
-5.6628e-08
-1.5509e-07
3.87556e-08
-4.57285e-08
-1.04755e-07
3.41423e-08
-3.82877e-08
-6.05053e-08
3.06924e-08
-3.39559e-08
-2.25787e-08
2.8371e-08
-2.87586e-08
2.58315e-08
-1.43739e-08
1.41561e-08
1.08929e-08
-8.91255e-09
3.79308e-08
1.19398e-08
-1.79343e-08
6.53582e-08
1.28577e-08
-2.09506e-08
9.60418e-08
1.42394e-08
-2.322e-08
1.32343e-07
1.61765e-08
-2.74463e-08
1.77245e-07
1.86908e-08
-3.42425e-08
2.33917e-07
2.17692e-08
-4.38455e-08
3.05726e-07
2.5446e-08
-5.65136e-08
3.93521e-07
2.95833e-08
-7.00845e-08
4.95052e-07
3.46421e-08
-8.12031e-08
5.88219e-07
4.02314e-08
-7.09834e-08
6.51207e-07
4.9168e-08
-3.44063e-08
6.03707e-07
5.98204e-08
8.42133e-08
5.06502e-07
7.00026e-08
1.41541e-07
3.85085e-07
7.91011e-08
1.72516e-07
2.585e-07
8.62263e-08
1.82769e-07
1.31595e-07
9.12275e-08
1.86557e-07
5.48576e-09
9.3887e-08
1.87482e-07
-1.20628e-07
9.4161e-08
1.87487e-07
-2.47546e-07
9.20353e-08
1.86573e-07
-3.74162e-07
8.75227e-08
1.82817e-07
-4.95647e-07
8.08154e-08
1.72629e-07
-5.93096e-07
7.20395e-08
1.41882e-07
-6.41097e-07
6.20758e-08
8.48728e-08
-5.79524e-07
5.15488e-08
-3.27453e-08
-4.86848e-07
4.26708e-08
-7.01954e-08
-3.84892e-07
3.72066e-08
-8.11747e-08
-2.95426e-07
3.2287e-08
-7.11468e-08
-2.2071e-07
2.83428e-08
-5.86283e-08
-1.59595e-07
2.49234e-08
-4.72827e-08
-1.08108e-07
2.22055e-08
-3.95501e-08
-6.25648e-08
2.0195e-08
-3.50461e-08
-2.33755e-08
1.88346e-08
-2.96529e-08
1.72346e-08
-1.47786e-08
1.44747e-08
5.47671e-09
-9.05857e-09
3.87548e-08
5.91899e-09
-1.82593e-08
6.67339e-08
6.21797e-09
-2.13394e-08
9.79748e-08
6.65524e-09
-2.36568e-08
1.34839e-07
7.28166e-09
-2.79695e-08
1.80305e-07
8.12736e-09
-3.4902e-08
2.37536e-07
9.23543e-09
-4.46978e-08
3.09935e-07
1.06724e-08
-5.76255e-08
3.98521e-07
1.25181e-08
-7.15204e-08
5.01273e-07
1.48907e-08
-8.30006e-08
5.96731e-07
1.78334e-08
-7.30599e-08
6.61238e-07
2.14027e-08
-3.67418e-08
6.13612e-07
2.52527e-08
8.21933e-08
5.15305e-07
2.88788e-08
1.39431e-07
3.92093e-07
3.20552e-08
1.70257e-07
2.63405e-07
3.46235e-08
1.80291e-07
1.3422e-07
3.64855e-08
1.83928e-07
5.75441e-09
3.75822e-08
1.8477e-07
-1.2273e-07
3.78737e-08
1.84772e-07
-2.51973e-07
3.73421e-08
1.83936e-07
-3.80762e-07
3.59866e-08
1.80326e-07
-5.04132e-07
3.38352e-08
1.7035e-07
-6.02782e-07
3.09473e-08
1.39743e-07
-6.50995e-07
2.74791e-08
8.28094e-08
-5.87945e-07
2.36474e-08
-3.51482e-08
-4.92952e-07
2.00254e-08
-7.23481e-08
-3.89744e-07
1.70489e-08
-8.30502e-08
-2.99438e-07
1.46465e-08
-7.26651e-08
-2.24063e-07
1.27978e-08
-5.98304e-08
-1.62285e-07
1.13868e-08
-4.82416e-08
-1.1008e-07
1.0348e-08
-4.03468e-08
-6.37644e-08
9.6263e-09
-3.57473e-08
-2.38329e-08
9.14379e-09
-3.02406e-08
8.46717e-09
-1.50655e-08
1.4566e-08
6.12629e-11
-9.15052e-09
3.90083e-08
-1.05214e-10
-1.84181e-08
6.71692e-08
-4.23724e-10
-2.15192e-08
9.86055e-08
-9.29768e-10
-2.38513e-08
1.35692e-07
-1.61392e-09
-2.81908e-08
1.81423e-07
-2.43897e-09
-3.51652e-08
2.38985e-07
-3.30674e-09
-4.50197e-08
3.11799e-07
-4.11594e-09
-5.80252e-08
4.00893e-07
-4.5617e-09
-7.20146e-08
5.04213e-07
-4.83168e-09
-8.35974e-08
6.00205e-07
-4.43739e-09
-7.3721e-08
6.64969e-07
-5.96135e-09
-3.74001e-08
6.17183e-07
-8.75224e-09
8.17908e-08
5.18441e-07
-1.15446e-08
1.39166e-07
3.94632e-07
-1.41953e-08
1.70059e-07
2.65247e-07
-1.61068e-08
1.80115e-07
1.35302e-07
-1.73265e-08
1.83757e-07
6.03893e-09
-1.77524e-08
1.84598e-07
-1.23263e-07
-1.74221e-08
1.84597e-07
-2.53321e-07
-1.63566e-08
1.83757e-07
-3.82897e-07
-1.45722e-08
1.80135e-07
-5.06984e-07
-1.22086e-08
1.7013e-07
-6.06199e-07
-9.28172e-09
1.39444e-07
-6.54691e-07
-6.38672e-09
8.23581e-08
-5.91449e-07
-3.71009e-09
-3.58849e-08
-4.95926e-07
-2.40047e-09
-7.30966e-08
-3.92139e-07
-3.00121e-09
-8.37368e-08
-3.01302e-07
-2.94348e-09
-7.32469e-08
-2.25481e-07
-2.7074e-09
-6.03157e-08
-1.6333e-07
-2.11442e-09
-4.86504e-08
-1.10799e-07
-1.47857e-09
-4.07043e-08
-6.41807e-08
-9.16761e-10
-3.60752e-08
-2.39816e-08
-5.25627e-10
-3.05297e-08
-2.79982e-10
-1.52344e-08
1.44359e-08
-5.19406e-09
-9.18058e-09
3.86935e-08
-5.95208e-09
-1.84107e-08
6.66654e-08
-6.90407e-09
-2.14915e-08
9.79339e-08
-8.39234e-09
-2.38059e-08
1.34899e-07
-1.04656e-08
-2.81135e-08
1.80597e-07
-1.30994e-08
-3.50373e-08
2.38261e-07
-1.61518e-08
-4.48195e-08
3.11328e-07
-1.94568e-08
-5.77255e-08
4.00688e-07
-2.23346e-08
-7.15876e-08
5.03997e-07
-2.51143e-08
-8.30258e-08
5.98852e-07
-2.6274e-08
-7.30185e-08
6.62575e-07
-3.32183e-08
-3.64667e-08
6.14552e-07
-4.3625e-08
8.28956e-08
5.16008e-07
-5.36124e-08
1.40612e-07
3.92776e-07
-6.2736e-08
1.71773e-07
2.64082e-07
-6.94909e-08
1.82078e-07
1.34882e-07
-7.39984e-08
1.85872e-07
6.36041e-09
-7.60184e-08
1.86788e-07
-1.22223e-07
-7.56205e-08
1.86782e-07
-2.51607e-07
-7.28278e-08
1.85856e-07
-3.8061e-07
-6.76405e-08
1.82071e-07
-5.04281e-07
-6.03419e-08
1.71804e-07
-6.03476e-07
-5.09191e-08
1.40833e-07
-6.52383e-07
-4.08667e-08
8.33868e-08
-5.90281e-07
-3.07502e-08
-3.50619e-08
-4.95915e-07
-2.4258e-08
-7.25082e-08
-3.92142e-07
-2.34962e-08
-8.32783e-08
-3.0104e-07
-2.11241e-08
-7.29212e-08
-2.24973e-07
-1.86708e-08
-6.01036e-08
-1.62736e-07
-1.58299e-08
-4.85219e-08
-1.10269e-07
-1.33136e-08
-4.06315e-08
-6.3818e-08
-1.13318e-08
-3.60363e-08
-2.38237e-08
-9.99498e-09
-3.05249e-08
-8.81642e-09
-1.52872e-08
1.40694e-08
-1.00981e-08
-9.16544e-09
3.77921e-08
-1.14323e-08
-1.82424e-08
6.51865e-08
-1.30401e-08
-2.12585e-08
9.58915e-08
-1.55772e-08
-2.35201e-08
1.32346e-07
-1.91869e-08
-2.77327e-08
1.77661e-07
-2.39094e-08
-3.45051e-08
2.35192e-07
-2.96125e-08
-4.40706e-08
3.08446e-07
-3.60364e-08
-5.66746e-08
3.9811e-07
-4.18514e-08
-7.01466e-08
5.01093e-07
-4.69733e-08
-8.11242e-08
5.92474e-07
-4.69339e-08
-7.07208e-08
6.53332e-07
-6.05931e-08
-3.34836e-08
6.05036e-07
-8.15223e-08
8.61936e-08
5.07486e-07
-1.00831e-07
1.44768e-07
3.86202e-07
-1.18058e-07
1.76605e-07
2.59736e-07
-1.30592e-07
1.87568e-07
1.32897e-07
-1.38921e-07
1.91761e-07
6.74698e-09
-1.42743e-07
1.92874e-07
-1.19492e-07
-1.42238e-07
1.92857e-07
-2.46604e-07
-1.37426e-07
1.9171e-07
-3.73528e-07
-1.28218e-07
1.87501e-07
-4.95468e-07
-1.14954e-07
1.76552e-07
-5.93922e-07
-9.73424e-08
1.44877e-07
-6.43379e-07
-7.79619e-08
8.65525e-08
-5.84298e-07
-5.75846e-08
-3.22471e-08
-4.93418e-07
-4.47677e-08
-7.03699e-08
-3.8997e-07
-4.54117e-08
-8.15324e-08
-2.98585e-07
-4.08989e-08
-7.16101e-08
-2.22371e-07
-3.57314e-08
-5.91533e-08
-1.60341e-07
-3.00227e-08
-4.78372e-08
-1.08377e-07
-2.51582e-08
-4.01197e-08
-6.26099e-08
-2.14707e-08
-3.5628e-08
-2.33323e-08
-1.90439e-08
-3.02286e-08
-1.69175e-08
-1.52313e-08
1.3451e-08
-1.44433e-08
-9.10577e-09
3.6254e-08
-1.63141e-08
-1.79212e-08
6.26243e-08
-1.85805e-08
-2.08299e-08
9.22683e-08
-2.22176e-08
-2.30037e-08
1.27667e-07
-2.75307e-08
-2.70545e-08
1.72063e-07
-3.47438e-08
-3.35622e-08
2.29116e-07
-4.39264e-08
-4.27392e-08
3.0267e-07
-5.48215e-08
-5.47681e-08
3.93475e-07
-6.51988e-08
-6.74575e-08
4.96658e-07
-7.27451e-08
-7.74112e-08
5.80124e-07
-6.40394e-08
-6.63608e-08
6.34957e-07
-8.7672e-08
-2.77544e-08
5.86414e-07
-1.25848e-07
9.28689e-08
4.91137e-07
-1.59012e-07
1.53459e-07
3.73783e-07
-1.8751e-07
1.86806e-07
2.5157e-07
-2.07566e-07
1.99187e-07
1.29079e-07
-2.20673e-07
2.04243e-07
7.23823e-09
-2.26677e-07
2.05775e-07
-1.14723e-07
-2.26009e-07
2.05733e-07
-2.37589e-07
-2.18679e-07
2.04119e-07
-3.60441e-07
-2.04362e-07
1.98996e-07
-4.78747e-07
-1.83231e-07
1.86582e-07
-5.75296e-07
-1.54146e-07
1.53352e-07
-6.25462e-07
-1.20789e-07
9.29931e-08
-5.72658e-07
-8.36016e-08
-2.6787e-08
-4.89622e-07
-6.15538e-08
-6.62495e-08
-3.85948e-07
-7.10256e-08
-7.80605e-08
-2.93457e-07
-6.42772e-08
-6.91128e-08
-2.17016e-07
-5.47891e-08
-5.73832e-08
-1.55591e-07
-4.48706e-08
-4.65767e-08
-1.04751e-07
-3.68269e-08
-3.91711e-08
-6.03462e-08
-3.10162e-08
-3.48595e-08
-2.24153e-08
-2.73213e-08
-2.96536e-08
-2.42414e-08
-1.50913e-08
1.25905e-08
-1.80284e-08
-9.00537e-09
3.40937e-08
-2.03626e-08
-1.74547e-08
5.89738e-08
-2.325e-08
-2.02106e-08
8.69869e-08
-2.79771e-08
-2.22536e-08
1.20619e-07
-3.51004e-08
-2.60624e-08
1.6326e-07
-4.52163e-08
-3.21687e-08
2.19084e-07
-5.8998e-08
-4.07527e-08
2.92743e-07
-7.66198e-08
-5.18609e-08
3.86227e-07
-9.54447e-08
-6.32375e-08
4.92836e-07
-1.07899e-07
-7.14552e-08
5.5908e-07
-7.13206e-08
-5.89631e-08
6.01745e-07
-1.12407e-07
-1.79303e-08
5.54696e-07
-1.82441e-07
1.03643e-07
4.64571e-07
-2.36654e-07
1.67767e-07
3.54143e-07
-2.80779e-07
2.03697e-07
2.38865e-07
-3.10808e-07
2.18519e-07
1.23147e-07
-3.29944e-07
2.24989e-07
7.88836e-09
-3.38628e-07
2.2721e-07
-1.07518e-07
-3.37727e-07
2.27124e-07
-2.23714e-07
-3.27218e-07
2.24735e-07
-3.39834e-07
-3.06351e-07
2.18109e-07
-4.51607e-07
-2.74638e-07
2.0318e-07
-5.43541e-07
-2.29514e-07
1.67302e-07
-5.93031e-07
-1.7472e-07
1.03421e-07
-5.52848e-07
-1.06455e-07
-1.733e-08
-4.86687e-07
-6.85427e-08
-5.91724e-08
-3.79513e-07
-1.05712e-07
-7.2487e-08
-2.84413e-07
-9.41944e-08
-6.51827e-08
-2.07966e-07
-7.65648e-08
-5.46712e-08
-1.47937e-07
-6.02205e-08
-4.46793e-08
-9.91296e-08
-4.78849e-08
-3.77495e-08
-5.69226e-08
-3.95108e-08
-3.37125e-08
-2.10488e-08
-3.44006e-08
-2.87946e-08
-3.04235e-08
-1.48667e-08
1.14572e-08
-2.06019e-08
-8.88378e-09
3.1236e-08
-2.32685e-08
-1.68728e-08
5.40322e-08
-2.66028e-08
-1.94434e-08
7.95433e-08
-3.21585e-08
-2.13297e-08
1.10081e-07
-4.07976e-08
-2.48409e-08
1.49021e-07
-5.37123e-08
-3.0443e-08
2.01195e-07
-7.29029e-08
-3.82696e-08
2.73103e-07
-1.00509e-07
-4.80192e-08
3.71177e-07
-1.36381e-07
-5.71373e-08
4.90794e-07
-1.66738e-07
-6.07782e-08
5.19164e-07
-5.74989e-08
-4.21919e-08
5.40892e-07