/*--------------------------------*- C++ -*----------------------------------*\
| =========                 |                                                 |
| \\      /  F ield         | OpenFOAM: The Open Source CFD Toolbox           |
|  \\    /   O peration     | Version:  2112                                  |
|   \\  /    A nd           | Website:  www.openfoam.com                      |
|    \\/     M anipulation  |                                                 |
\*---------------------------------------------------------------------------*/
FoamFile
{
    version     2.0;
    format      ascii;
    arch        "LSB;label=32;scalar=64";
    class       volVectorField;
    location    "0.7";
    object      U;
}
// * * * * * * * * * * * * * * * * * * * * * * * * * * * * * * * * * * * * * //

dimensions      [0 1 -1 0 0 0 0];

internalField   nonuniform List<vector> 
64906
(
(7.98118e-07 2.25983e-06 -3.16708e-06)
(3.20889e-06 1.98308e-06 -3.3083e-06)
(5.9896e-06 1.83027e-06 -3.2393e-06)
(8.74235e-06 1.8849e-06 -3.26758e-06)
(1.13948e-05 2.09331e-06 -3.41277e-06)
(1.39178e-05 2.41137e-06 -3.64901e-06)
(1.62998e-05 2.82519e-06 -3.95999e-06)
(1.84851e-05 3.3491e-06 -4.33324e-06)
(2.04086e-05 3.98474e-06 -4.76573e-06)
(2.1883e-05 4.78589e-06 -5.23387e-06)
(2.2759e-05 5.69151e-06 -5.73897e-06)
(2.27196e-05 6.79166e-06 -6.2361e-06)
(2.16036e-05 7.82656e-06 -6.7237e-06)
(1.95125e-05 8.81189e-06 -7.15633e-06)
(1.65141e-05 9.63503e-06 -7.53159e-06)
(1.28029e-05 1.02925e-05 -7.82537e-06)
(8.55082e-06 1.07425e-05 -8.03333e-06)
(3.98071e-06 1.09769e-05 -8.14633e-06)
(-6.9082e-07 1.09853e-05 -8.16247e-06)
(-5.23198e-06 1.07678e-05 -8.08164e-06)
(-9.4251e-06 1.03353e-05 -7.90618e-06)
(-1.3048e-05 9.69596e-06 -7.64556e-06)
(-1.59303e-05 8.89289e-06 -7.30423e-06)
(-1.78782e-05 7.92985e-06 -6.90697e-06)
(-1.88293e-05 6.92236e-06 -6.45625e-06)
(-1.86844e-05 5.85347e-06 -5.99911e-06)
(-1.76124e-05 4.98893e-06 -5.53761e-06)
(-1.59343e-05 4.23428e-06 -5.12024e-06)
(-1.37949e-05 3.65823e-06 -4.74965e-06)
(-1.13799e-05 3.21703e-06 -4.46058e-06)
(-8.74696e-06 2.93964e-06 -4.27873e-06)
(-5.97223e-06 2.87064e-06 -4.25142e-06)
(-3.17228e-06 3.06855e-06 -4.36224e-06)
(-6.59508e-07 3.40738e-06 -4.22307e-06)
(3.21301e-07 7.25135e-06 -3.53421e-06)
(2.66075e-06 7.26109e-06 -5.57542e-06)
(6.20119e-06 7.31816e-06 -5.96081e-06)
(9.44314e-06 7.75991e-06 -6.15208e-06)
(1.24418e-05 8.56918e-06 -6.50668e-06)
(1.52505e-05 9.69794e-06 -7.03371e-06)
(1.79127e-05 1.11374e-05 -7.71567e-06)
(2.0382e-05 1.2936e-05 -8.54278e-06)
(2.26285e-05 1.51183e-05 -9.51276e-06)
(2.43988e-05 1.78344e-05 -1.06078e-05)
(2.55703e-05 2.09342e-05 -1.18113e-05)
(2.5636e-05 2.46534e-05 -1.30636e-05)
(2.43661e-05 2.81575e-05 -1.42845e-05)
(2.1996e-05 3.14463e-05 -1.53933e-05)
(1.85742e-05 3.41925e-05 -1.63441e-05)
(1.43685e-05 3.63743e-05 -1.70936e-05)
(9.55043e-06 3.78705e-05 -1.76181e-05)
(4.38317e-06 3.86524e-05 -1.78995e-05)
(-8.99872e-07 3.86891e-05 -1.793e-05)
(-6.03521e-06 3.79809e-05 -1.77097e-05)
(-1.07886e-05 3.65598e-05 -1.7247e-05)
(-1.48969e-05 3.44558e-05 -1.65605e-05)
(-1.81902e-05 3.17936e-05 -1.56746e-05)
(-2.04003e-05 2.85964e-05 -1.46335e-05)
(-2.14858e-05 2.52002e-05 -1.34842e-05)
(-2.12115e-05 2.16026e-05 -1.23098e-05)
(-1.98186e-05 1.8656e-05 -1.11922e-05)
(-1.78177e-05 1.61098e-05 -1.01959e-05)
(-1.53149e-05 1.41335e-05 -9.34417e-06)
(-1.25441e-05 1.25954e-05 -8.6719e-06)
(-9.47778e-06 1.15237e-05 -8.20935e-06)
(-6.09498e-06 1.09494e-05 -7.95163e-06)
(-2.31627e-06 1.08595e-05 -7.44437e-06)
(3.58257e-08 1.07741e-05 -4.78557e-06)
(1.5189e-07 1.36335e-05 -3.52689e-06)
(2.61002e-06 1.46987e-05 -5.96555e-06)
(6.76078e-06 1.54435e-05 -6.46749e-06)
(1.05185e-05 1.66541e-05 -6.69082e-06)
(1.39885e-05 1.84448e-05 -7.09873e-06)
(1.72522e-05 2.08187e-05 -7.71561e-06)
(2.04089e-05 2.38034e-05 -8.5267e-06)
(2.34284e-05 2.75138e-05 -9.52632e-06)
(2.63511e-05 3.20213e-05 -1.07212e-05)
(2.87979e-05 3.76716e-05 -1.20948e-05)
(3.07054e-05 4.41851e-05 -1.36386e-05)
(3.10616e-05 5.21762e-05 -1.52566e-05)
(2.94657e-05 5.96101e-05 -1.68445e-05)
(2.65256e-05 6.65376e-05 -1.82784e-05)
(2.22771e-05 7.22833e-05 -1.95041e-05)
(1.71365e-05 7.68403e-05 -2.04625e-05)
(1.12704e-05 7.99623e-05 -2.113e-05)
(5.0088e-06 8.15952e-05 -2.14848e-05)
(-1.39157e-06 8.16762e-05 -2.15179e-05)
(-7.61947e-06 8.02057e-05 -2.12296e-05)
(-1.34172e-05 7.72486e-05 -2.06292e-05)
(-1.84531e-05 7.28608e-05 -1.97391e-05)
(-2.25617e-05 6.7295e-05 -1.85835e-05)
(-2.53228e-05 6.05616e-05 -1.72229e-05)
(-2.67105e-05 5.33538e-05 -1.57123e-05)
(-2.61112e-05 4.56152e-05 -1.4179e-05)
(-2.39462e-05 3.94209e-05 -1.27285e-05)
(-2.12315e-05 3.4116e-05 -1.1464e-05)
(-1.79947e-05 3.00135e-05 -1.04012e-05)
(-1.45819e-05 2.6784e-05 -9.57879e-06)
(-1.08631e-05 2.44055e-05 -9.021e-06)
(-6.79675e-06 2.28088e-05 -8.70145e-06)
(-2.20493e-06 2.18111e-05 -8.02837e-06)
(2.88398e-07 2.02789e-05 -4.83962e-06)
(2.51327e-07 1.98385e-05 -3.54471e-06)
(3.119e-06 2.16982e-05 -6.07069e-06)
(7.98001e-06 2.30543e-05 -6.57445e-06)
(1.24423e-05 2.50536e-05 -6.79317e-06)
(1.66194e-05 2.78711e-05 -7.23341e-06)
(2.0616e-05 3.15461e-05 -7.92299e-06)
(2.46047e-05 3.61443e-05 -8.85081e-06)
(2.85829e-05 4.187e-05 -1.00207e-05)
(3.27503e-05 4.88804e-05 -1.14563e-05)
(3.65037e-05 5.78975e-05 -1.31454e-05)
(3.9988e-05 6.85101e-05 -1.51011e-05)
(4.09595e-05 8.23462e-05 -1.71748e-05)
(3.86331e-05 9.47999e-05 -1.92219e-05)
(3.45882e-05 0.000106268 -2.10509e-05)
(2.88141e-05 0.000115624 -2.26076e-05)
(2.20044e-05 0.000123027 -2.38061e-05)
(1.42825e-05 0.000128075 -2.46363e-05)
(6.0948e-06 0.000130712 -2.50726e-05)
(-2.27095e-06 0.000130837 -2.51065e-05)
(-1.04233e-05 0.000128451 -2.47381e-05)
(-1.80731e-05 0.000123656 -2.39761e-05)
(-2.47693e-05 0.00011651 -2.28469e-05)
(-3.03889e-05 0.000107423 -2.13606e-05)
(-3.42262e-05 9.62408e-05 -1.96051e-05)
(-3.63084e-05 8.41222e-05 -1.76343e-05)
(-3.50345e-05 7.06559e-05 -1.56454e-05)
(-3.12352e-05 6.05357e-05 -1.37825e-05)
(-2.71653e-05 5.20296e-05 -1.22052e-05)
(-2.26076e-05 4.5608e-05 -1.09074e-05)
(-1.81276e-05 4.05611e-05 -9.9293e-06)
(-1.34118e-05 3.67895e-05 -9.2867e-06)
(-8.39886e-06 3.41273e-05 -8.94829e-06)
(-2.86496e-06 3.23112e-05 -8.26329e-06)
(1.69778e-07 2.9661e-05 -4.93395e-06)
(5.26928e-07 2.58047e-05 -3.63315e-06)
(4.04309e-06 2.83171e-05 -6.33265e-06)
(9.87199e-06 3.0257e-05 -6.8691e-06)
(1.52995e-05 3.3082e-05 -7.11155e-06)
(2.04619e-05 3.70123e-05 -7.6265e-06)
(2.55007e-05 4.21044e-05 -8.44986e-06)
(3.07004e-05 4.84518e-05 -9.58076e-06)
(3.61229e-05 5.63559e-05 -1.1045e-05)
(4.23243e-05 6.61081e-05 -1.28967e-05)
(4.83568e-05 7.91112e-05 -1.51421e-05)
(5.5063e-05 9.49679e-05 -1.78361e-05)
(5.72541e-05 0.000117934 -2.07603e-05)
(5.33014e-05 0.000137453 -2.36478e-05)
(4.7276e-05 0.000155069 -2.62016e-05)
(3.89764e-05 0.000169116 -2.83699e-05)
(2.95437e-05 0.000180222 -2.9997e-05)
(1.89286e-05 0.000187756 -3.11209e-05)
(7.76211e-06 0.000191684 -3.17045e-05)
(-3.64272e-06 0.000191857 -3.17408e-05)
(-1.47734e-05 0.000188273 -3.123e-05)
(-2.53144e-05 0.000181083 -3.01787e-05)
(-3.46258e-05 0.000170319 -2.86249e-05)
(-4.27559e-05 0.000156623 -2.65298e-05)
(-4.85364e-05 0.00013937 -2.40517e-05)
(-5.21973e-05 0.000120281 -2.12407e-05)
(-4.96061e-05 9.77784e-05 -1.8403e-05)
(-4.25014e-05 8.26187e-05 -1.58025e-05)
(-3.61049e-05 7.02845e-05 -1.36756e-05)
(-2.94222e-05 6.12922e-05 -1.19711e-05)
(-2.33676e-05 5.42485e-05 -1.07192e-05)
(-1.72395e-05 4.89477e-05 -9.9135e-06)
(-1.09161e-05 4.51435e-05 -9.50611e-06)
(-4.08174e-06 4.25172e-05 -8.757e-06)
(-1.83803e-07 3.89208e-05 -5.14052e-06)
(9.26245e-07 3.13991e-05 -3.78269e-06)
(5.33654e-06 3.4504e-05 -6.74693e-06)
(1.2459e-05 3.70452e-05 -7.3561e-06)
(1.9168e-05 4.07738e-05 -7.65207e-06)
(2.56351e-05 4.59533e-05 -8.2845e-06)
(3.2048e-05 5.26409e-05 -9.30626e-06)
(3.88463e-05 6.09382e-05 -1.07357e-05)
(4.62249e-05 7.12034e-05 -1.26413e-05)
(5.54787e-05 8.39027e-05 -1.51246e-05)
(6.52996e-05 0.000101572 -1.82359e-05)
(7.86866e-05 0.000124185 -2.20344e-05)
(8.33271e-05 0.000163104 -2.6348e-05)
(7.57e-05 0.00019315 -3.06247e-05)
(6.62134e-05 0.000219286 -3.43932e-05)
(5.39429e-05 0.000239561 -3.75984e-05)
(4.06269e-05 0.000255619 -3.98966e-05)
(2.57339e-05 0.000266467 -4.1485e-05)
(1.01919e-05 0.000272116 -4.23009e-05)
(-5.67888e-06 0.000272343 -4.23422e-05)
(-2.11871e-05 0.000267145 -4.16087e-05)
(-3.60102e-05 0.000256743 -4.01019e-05)
(-4.92044e-05 0.000241115 -3.78851e-05)
(-6.12992e-05 0.000221269 -3.4759e-05)
(-7.05007e-05 0.000195552 -3.10708e-05)
(-7.7784e-05 0.000166004 -2.68712e-05)
(-7.25748e-05 0.00012759 -2.26449e-05)
(-5.86671e-05 0.00010597 -1.894e-05)
(-4.84662e-05 8.9119e-05 -1.59574e-05)
(-3.86303e-05 7.7328e-05 -1.36346e-05)
(-3.04614e-05 6.80771e-05 -1.19682e-05)
(-2.24714e-05 6.10353e-05 -1.09127e-05)
(-1.44097e-05 5.59326e-05 -1.03798e-05)
(-5.81208e-06 5.24207e-05 -9.49984e-06)
(-7.0546e-07 4.7924e-05 -5.45064e-06)
(1.45025e-06 3.65036e-05 -3.9714e-06)
(7.01923e-06 4.01917e-05 -7.27634e-06)
(1.58142e-05 4.33997e-05 -7.99017e-06)
(2.41806e-05 4.81716e-05 -8.36281e-06)
(3.2328e-05 5.4828e-05 -9.15039e-06)
(4.04848e-05 6.34113e-05 -1.04327e-05)
(4.92611e-05 7.39803e-05 -1.2258e-05)
(5.90766e-05 8.67154e-05 -1.4774e-05)
(7.26248e-05 0.000102122 -1.81615e-05)
(8.83423e-05 0.000123721 -2.25059e-05)
(0.000115849 0.000153896 -2.77728e-05)
(0.000125574 0.000222349 -3.41998e-05)
(0.000109197 0.00026801 -4.05108e-05)
(9.3586e-05 0.000305804 -4.61674e-05)
(7.52718e-05 0.000334525 -5.10398e-05)
(5.64286e-05 0.000357466 -5.42517e-05)
(3.54133e-05 0.000372957 -5.65017e-05)
(1.36346e-05 0.000381015 -5.76479e-05)
(-8.61005e-06 0.000381312 -5.76974e-05)
(-3.03623e-05 0.00037384 -5.66498e-05)
(-5.13235e-05 0.00035892 -5.44963e-05)
(-7.0062e-05 0.000336515 -5.13797e-05)
(-8.82196e-05 0.000308297 -4.65955e-05)
(-0.000103516 0.000270942 -4.10257e-05)
(-0.000119519 0.000225783 -3.47908e-05)
(-0.000108907 0.000157745 -2.84463e-05)
(-8.06866e-05 0.000129093 -2.32714e-05)
(-6.46843e-05 0.000108429 -1.90661e-05)
(-5.04554e-05 9.40324e-05 -1.5854e-05)
(-3.96584e-05 8.24175e-05 -1.36099e-05)
(-2.93426e-05 7.32833e-05 -1.22169e-05)
(-1.90451e-05 6.65817e-05 -1.15087e-05)
(-8.12799e-06 6.1994e-05 -1.04414e-05)
(-1.41266e-06 5.65414e-05 -5.83431e-06)
(2.11943e-06 4.09252e-05 -4.1831e-06)
(9.15587e-06 4.51712e-05 -7.89842e-06)
(2.00748e-05 4.91068e-05 -8.74331e-06)
(3.05714e-05 5.50636e-05 -9.21059e-06)
(4.08766e-05 6.34541e-05 -1.0188e-05)
(5.12033e-05 7.43218e-05 -1.17947e-05)
(6.21565e-05 8.76505e-05 -1.41266e-05)
(7.43477e-05 0.000103062 -1.74888e-05)
(9.21869e-05 0.000120454 -2.21569e-05)
(0.000115407 0.000144355 -2.84774e-05)
(0.000172526 0.000178714 -3.39575e-05)
(0.0001934 0.00030698 -4.25768e-05)
(0.000157546 0.000374552 -5.21075e-05)
(0.000132274 0.00042632 -6.07992e-05)
(0.000105481 0.000465614 -6.83173e-05)
(7.89993e-05 0.000497307 -7.25558e-05)
(4.92518e-05 0.000518882 -7.55999e-05)
(1.85366e-05 0.00053011 -7.71467e-05)
(-1.28463e-05 0.000530499 -7.72077e-05)
(-4.3549e-05 0.000520041 -7.57826e-05)
(-7.32764e-05 0.000499209 -7.28563e-05)
(-9.97045e-05 0.000468195 -6.87342e-05)
(-0.000126419 0.000429491 -6.13176e-05)
(-0.000151412 0.000378129 -5.27228e-05)
(-0.000186966 0.000310974 -4.3276e-05)
(-0.000164554 0.000182705 -3.47077e-05)
(-0.00010639 0.000150998 -2.93098e-05)
(-8.326e-05 0.000128035 -2.31428e-05)
(-6.46321e-05 0.000111634 -1.86688e-05)
(-5.12201e-05 9.73429e-05 -1.56173e-05)
(-3.82716e-05 8.55523e-05 -1.37883e-05)
(-2.51538e-05 7.68265e-05 -1.28572e-05)
(-1.12171e-05 7.09178e-05 -1.15511e-05)
(-2.37498e-06 6.44687e-05 -6.25911e-06)
(2.93918e-06 4.44401e-05 -4.41129e-06)
(1.17756e-05 4.92185e-05 -8.60225e-06)
(2.53169e-05 5.39645e-05 -9.60447e-06)
(3.85077e-05 6.13269e-05 -1.01848e-05)
(5.15932e-05 7.19337e-05 -1.13866e-05)
(6.47004e-05 8.59948e-05 -1.3376e-05)
(7.80672e-05 0.000103592 -1.63151e-05)
(9.19741e-05 0.000122879 -2.074e-05)
(0.000113057 0.000142238 -2.73745e-05)
(0.000138772 0.000155138 -3.51788e-05)
(0.000252169 0.000158619 -4.35355e-05)
(0.000298845 0.000409486 -4.71709e-05)
(0.000220531 0.000506893 -5.91271e-05)
(0.000182842 0.000575526 -7.19333e-05)
(0.000145957 0.000630019 -8.27462e-05)
(0.000109601 0.000674177 -8.75975e-05)
(6.81843e-05 0.000704521 -9.13543e-05)
(2.5245e-05 0.000720197 -9.32551e-05)
(-1.86738e-05 0.000720708 -9.33272e-05)
(-6.16225e-05 0.000706045 -9.15704e-05)
(-0.000103076 0.000676686 -8.7951e-05)
(-0.000139479 0.000633427 -8.32377e-05)
(-0.000176478 0.00057968 -7.25362e-05)
(-0.000214042 0.000511451 -5.98433e-05)
(-0.000292507 0.000414085 -4.79646e-05)
(-0.000243009 0.000161612 -4.44944e-05)
(-0.000127955 0.000163202 -3.60945e-05)
(-0.000103347 0.00015117 -2.84382e-05)
(-8.12845e-05 0.000132635 -2.2025e-05)
(-6.58202e-05 0.000114365 -1.79574e-05)
(-4.98484e-05 9.83356e-05 -1.56077e-05)
(-3.30977e-05 8.66333e-05 -1.44176e-05)
(-1.52496e-05 7.89176e-05 -1.2822e-05)
(-3.63169e-06 7.13394e-05 -6.72077e-06)
(3.94524e-06 4.67184e-05 -4.63715e-06)
(1.49789e-05 5.19024e-05 -9.3689e-06)
(3.17822e-05 5.73701e-05 -1.05493e-05)
(4.85294e-05 6.60634e-05 -1.12521e-05)
(6.55665e-05 7.89272e-05 -1.26977e-05)
(8.29552e-05 9.66285e-05 -1.50956e-05)
(9.94739e-05 0.000119726 -1.86209e-05)
(0.000114432 0.000145665 -2.43718e-05)
(0.000125419 0.000165727 -3.20025e-05)
(0.000104773 0.000131366 -4.45315e-05)
(0.00030589 0.000158377 -5.53799e-05)
(0.000429133 0.000615267 -3.99261e-05)
(0.000290342 0.000698644 -5.18435e-05)
(0.000249884 0.000761549 -6.63491e-05)
(0.00020406 0.000828712 -7.81523e-05)
(0.00015382 0.000883339 -8.15515e-05)
(9.55508e-05 0.000922772 -8.48022e-05)
(3.48297e-05 0.000943108 -8.64925e-05)
(-2.70976e-05 0.000943771 -8.65631e-05)
(-8.78436e-05 0.000924756 -8.50147e-05)
(-0.000146204 0.00088662 -8.1893e-05)
(-0.000196623 0.000833208 -7.86362e-05)
(-0.000242847 0.000767059 -6.69316e-05)
(-0.000283737 0.000704512 -5.25289e-05)
(-0.000424798 0.000619492 -4.08243e-05)
(-0.000296578 0.000161111 -5.66554e-05)
(-9.22213e-05 0.000143824 -4.53453e-05)
(-0.00011551 0.000177404 -3.31103e-05)
(-0.000103032 0.000156876 -2.57739e-05)
(-8.59921e-05 0.000131441 -2.04306e-05)
(-6.60872e-05 0.000109769 -1.75979e-05)
(-4.39916e-05 9.45363e-05 -1.61499e-05)
(-2.07559e-05 8.48978e-05 -1.42253e-05)
(-5.37632e-06 7.63328e-05 -7.159e-06)
(5.05814e-06 4.75133e-05 -4.87252e-06)
(1.85585e-05 5.29721e-05 -1.01921e-05)
(3.90804e-05 5.90773e-05 -1.15809e-05)
(6.00674e-05 6.91269e-05 -1.24402e-05)
(8.222e-05 8.47679e-05 -1.4191e-05)
(0.000105842 0.000108249 -1.70167e-05)
(0.000129015 0.000143623 -2.09978e-05)
(0.000146908 0.000195404 -2.59667e-05)
(0.000129793 0.000264662 -3.55896e-05)
(0.000129174 0.000303151 -4.86451e-05)
(0.000208861 0.000560694 3.29925e-05)
(0.000262659 0.00073605 1.38569e-05)
(0.000302944 0.000856637 9.87273e-06)
(0.000270475 0.000963712 1.34414e-05)
(0.000206339 0.00104105 1.30553e-05)
(0.000129671 0.00109344 1.27147e-05)
(4.68418e-05 0.00111942 1.25882e-05)
(-3.75759e-05 0.00112018 1.2586e-05)
(-0.000120444 0.00109574 1.27068e-05)
(-0.000197249 0.00104494 1.30483e-05)
(-0.000261685 0.00096927 1.34282e-05)
(-0.000294987 0.000864 9.89546e-06)
(-0.000256724 0.000745175 1.37196e-05)
(-0.000204944 0.000570351 3.24203e-05)
(-0.000125582 0.000313179 -4.83302e-05)
(-0.000123763 0.000275745 -3.65205e-05)
(-0.000136596 0.000206516 -2.74513e-05)
(-0.000114923 0.000155412 -2.29698e-05)
(-8.71169e-05 0.000121553 -1.98116e-05)
(-5.7452e-05 0.000100665 -1.81221e-05)
(-2.73759e-05 8.85058e-05 -1.57982e-05)
(-7.41214e-06 7.89077e-05 -7.6439e-06)
(6.32285e-06 4.64973e-05 -5.08828e-06)
(2.26251e-05 5.18928e-05 -1.1026e-05)
(4.7558e-05 5.80266e-05 -1.26207e-05)
(7.42394e-05 6.81924e-05 -1.36228e-05)
(0.000104809 8.41364e-05 -1.56607e-05)
(0.000142588 0.000108384 -1.89138e-05)
(0.000191575 0.000145725 -2.33757e-05)
(0.000262428 0.000202734 -2.829e-05)
(0.000356414 0.00028728 -3.17097e-05)
(0.00054891 0.000380109 -2.76414e-05)
(0.000565629 0.000126784 2.08828e-05)
(0.000467904 0.000288763 1.9862e-05)
(0.000534447 0.000563319 8.98784e-05)
(0.000483462 0.00073076 0.000137669)
(0.000397249 0.000855249 0.000167669)
(0.00028914 0.000939912 0.000180423)
(0.000177152 0.00099398 0.000187155)
(6.2651e-05 0.00102018 0.000189969)
(-5.17585e-05 0.00102089 0.000190022)
(-0.000166227 0.000996126 0.000187316)
(-0.00027817 0.000943568 0.000180709)
(-0.00038616 0.000860558 0.000168095)
(-0.00047225 0.000738011 0.000138361)
(-0.000522853 0.000572842 9.08227e-05)
(-0.000454561 0.000300434 2.14103e-05)
(-0.00055603 0.000129926 2.19677e-05)
(-0.000543492 0.000385238 -2.75473e-05)
(-0.000347802 0.000295697 -3.25101e-05)
(-0.000250775 0.000212567 -2.96658e-05)
(-0.000176007 0.000156836 -2.54469e-05)
(-0.000121676 0.000121244 -2.2012e-05)
(-7.66543e-05 9.96777e-05 -2.01374e-05)
(-3.63102e-05 8.7266e-05 -1.74365e-05)
(-1.01728e-05 7.76699e-05 -8.05852e-06)
(7.4505e-06 4.36373e-05 -5.31047e-06)
(2.62599e-05 4.86116e-05 -1.18374e-05)
(5.50177e-05 5.41107e-05 -1.36534e-05)
(8.61985e-05 6.30192e-05 -1.48441e-05)
(0.000122516 7.64666e-05 -1.72581e-05)
(0.000168074 9.56524e-05 -2.11558e-05)
(0.000227419 0.000122145 -2.65538e-05)
(0.000311161 0.000156451 -3.32032e-05)
(0.000419699 0.000193864 -3.8807e-05)
(0.000590435 0.000216466 -4.06441e-05)
(0.000666298 0.000132155 -2.38037e-05)
(0.000686814 0.000273369 -2.24529e-06)
(0.000698992 0.000423666 9.82552e-05)
(0.000601461 0.000534992 0.00014961)
(0.000485504 0.000624427 0.000180277)
(0.000349006 0.000687345 0.000194749)
(0.000212105 0.000728395 0.000201955)
(7.44498e-05 0.000748579 0.000204805)
(-6.22767e-05 0.000749165 0.000204849)
(-0.000199878 0.00073016 0.00020209)
(-0.00033669 0.000690309 0.000194994)
(-0.000472993 0.000628617 0.000180651)
(-0.000588808 0.000540432 0.000150242)
(-0.000686036 0.000430133 9.91555e-05)
(-0.000673692 0.000280263 -4.81206e-07)
(-0.000655736 0.000135878 -2.29045e-05)
(-0.000581967 0.00022291 -4.06094e-05)
(-0.000409752 0.000201756 -3.95405e-05)
(-0.000298347 0.00016551 -3.45968e-05)
(-0.000210368 0.000132484 -2.87536e-05)
(-0.000144987 0.000107728 -2.45384e-05)
(-9.10608e-05 9.11162e-05 -2.22182e-05)
(-4.32926e-05 8.09652e-05 -1.90472e-05)
(-1.23118e-05 7.24857e-05 -8.53421e-06)
(8.46479e-06 3.92166e-05 -5.50668e-06)
(2.94998e-05 4.35951e-05 -1.25638e-05)
(6.16155e-05 4.82662e-05 -1.45664e-05)
(9.66052e-05 5.56942e-05 -1.58993e-05)
(0.000137494 6.66205e-05 -1.85943e-05)
(0.000188548 8.16336e-05 -2.29669e-05)
(0.000254025 0.000101183 -2.90633e-05)
(0.000342645 0.000125024 -3.69625e-05)
(0.000452599 0.000149413 -4.4709e-05)
(0.000601337 0.000169411 -5.09052e-05)
(0.000708349 0.000153333 -4.04438e-05)
(0.000793199 0.000226594 -1.20021e-05)
(0.000802063 0.000315367 8.94683e-05)
(0.000687568 0.000391656 0.000137467)
(0.000551798 0.000455591 0.000166419)
(0.000394517 0.000501479 0.000178329)
(0.000239119 0.000532074 0.000184017)
(8.36453e-05 0.000547277 0.000186105)
(-7.03859e-05 0.000547776 0.000186134)
(-0.000225799 0.000533567 0.000184104)
(-0.000381099 0.000503963 0.000178493)
(-0.000538186 0.000459046 0.00016668)
(-0.000673904 0.000396046 0.000137959)
(-0.000788274 0.000320493 9.01985e-05)
(-0.000780338 0.000232232 -1.04382e-05)
(-0.000697633 0.000158006 -3.96963e-05)
(-0.000591478 0.000175324 -5.07817e-05)
(-0.000441495 0.000156357 -4.54048e-05)
(-0.000328602 0.000133062 -3.83865e-05)
(-0.000235476 0.000110449 -3.13863e-05)
(-0.000163361 9.25357e-05 -2.65993e-05)
(-0.00010297 7.98532e-05 -2.39688e-05)
(-4.91925e-05 7.1813e-05 -2.04308e-05)
(-1.41684e-05 6.45725e-05 -8.92652e-06)
(9.26586e-06 3.34868e-05 -5.69161e-06)
(3.20655e-05 3.71054e-05 -1.3194e-05)
(6.67904e-05 4.0781e-05 -1.53564e-05)
(0.000104554 4.65007e-05 -1.68134e-05)
(0.000148478 5.46934e-05 -1.9749e-05)
(0.000202727 6.55543e-05 -2.45221e-05)
(0.000271285 7.90304e-05 -3.12049e-05)
(0.000361587 9.48366e-05 -4.00118e-05)
(0.00047212 0.000110752 -4.90434e-05)
(0.000613975 0.00012704 -5.69067e-05)
(0.000737762 0.000133536 -4.76182e-05)
(0.000854133 0.000177037 -2.17875e-05)
(0.000865563 0.000231652 7.86109e-05)
(0.000742624 0.000280698 0.000123104)
(0.000595944 0.000323274 0.000149693)
(0.000425926 0.000354995 0.00015941)
(0.000258146 0.000376582 0.000163818)
(9.023e-05 0.000387482 0.000165248)
(-7.60594e-05 0.000387917 0.000165263)
(-0.000243927 0.000377877 0.000163865)
(-0.000411641 0.000357123 0.000159505)
(-0.000581516 0.000326183 0.000149856)
(-0.000728261 0.000284318 0.000123472)
(-0.00085122 0.000235819 7.91999e-05)
(-0.000841129 0.000181642 -2.0322e-05)
(-0.000726674 0.000138066 -4.69416e-05)
(-0.000603185 0.000132362 -5.68101e-05)
(-0.000460065 0.000116845 -4.9777e-05)
(-0.000346463 0.000101823 -4.15059e-05)
(-0.000251388 8.70738e-05 -3.36546e-05)
(-0.000175682 7.5003e-05 -2.83716e-05)
(-0.000111313 6.60981e-05 -2.54642e-05)
(-5.33802e-05 6.02524e-05 -2.16159e-05)
(-1.5471e-05 5.44957e-05 -9.3161e-06)
(9.87858e-06 2.68133e-05 -5.84784e-06)
(3.40242e-05 2.96175e-05 -1.37034e-05)
(7.07212e-05 3.23294e-05 -1.59868e-05)
(0.000110512 3.64841e-05 -1.75322e-05)
(0.000156557 4.23477e-05 -2.06391e-05)
(0.000212909 4.99859e-05 -2.56929e-05)
(0.000283417 5.92849e-05 -3.2783e-05)
(0.000374828 7.013e-05 -4.21853e-05)
(0.000486293 8.14307e-05 -5.20231e-05)
(0.000627251 9.42737e-05 -6.08979e-05)
(0.000760483 0.000105474 -5.23548e-05)
(0.000892011 0.000133092 -2.79828e-05)
(0.000906124 0.000167107 7.19754e-05)
(0.000779572 0.000199133 0.00011485)
(0.000626364 0.000227536 0.000140278)
(0.000448021 0.000249205 0.000148812)
(0.000271716 0.000264155 0.00015249)
(9.50152e-05 0.000271822 0.000153545)
(-8.00237e-05 0.000272223 0.000153553)
(-0.000256699 0.000265344 0.000152516)
(-0.000432986 0.000251141 0.000148871)
(-0.000611257 0.000230148 0.000140389)
(-0.000764643 0.000202331 0.000115152)
(-0.00089133 0.000170752 7.24849e-05)
(-0.000878739 0.000137097 -2.65972e-05)
(-0.000749015 0.00010963 -5.17418e-05)
(-0.000615823 9.89466e-05 -6.08427e-05)
(-0.000473527 8.66382e-05 -5.28102e-05)
(-0.000358838 7.60024e-05 -4.37536e-05)
(-0.000262415 6.59745e-05 -3.53462e-05)
(-0.000184352 5.77671e-05 -2.97218e-05)
(-0.000117279 5.16286e-05 -2.66248e-05)
(-5.63896e-05 4.75189e-05 -2.25517e-05)
(-1.64122e-05 4.31573e-05 -9.63741e-06)
(1.02956e-05 1.94829e-05 -5.97669e-06)
(3.53692e-05 2.14281e-05 -1.40881e-05)
(7.34176e-05 2.31991e-05 -1.64573e-05)
(0.000114563 2.58772e-05 -1.80637e-05)
(0.000161984 2.9628e-05 -2.12878e-05)
(0.000219669 3.44798e-05 -2.65292e-05)
(0.00029145 4.03728e-05 -3.38853e-05)
(0.000383815 4.73209e-05 -4.36533e-05)
(0.000496509 5.49291e-05 -5.39611e-05)
(0.000638478 6.41068e-05 -6.33773e-05)
(0.000776886 7.38489e-05 -5.53307e-05)
(0.000915866 9.08834e-05 -3.16541e-05)
(0.000931764 0.00011149 6.84873e-05)
(0.000803259 0.000131154 0.000110829)
(0.000646165 0.000148726 0.00013582)
(0.000462659 0.000162393 0.000143847)
(0.000280827 0.000171933 0.000147208)
(9.83199e-05 0.000176926 0.000148094)
(-8.25573e-05 0.000177316 0.000148098)
(-0.000265072 0.000173082 0.000147223)
(-0.000446949 0.000164246 0.000143888)
(-0.000630474 0.000151194 0.000135905)
(-0.000787863 0.000134117 0.000111095)
(-0.000916615 0.000114811 6.89515e-05)
(-0.000902348 9.44527e-05 -3.03278e-05)
(-0.000765125 7.75593e-05 -5.47776e-05)
(-0.000626635 6.81074e-05 -6.33772e-05)
(-0.000483254 5.92462e-05 -5.48107e-05)
(-0.000367211 5.20514e-05 -4.52964e-05)
(-0.000269649 4.56322e-05 -3.65479e-05)
(-0.000190018 4.04591e-05 -3.07014e-05)
(-0.000121189 3.65982e-05 -2.7479e-05)
(-5.8352e-05 3.39864e-05 -2.32512e-05)
(-1.70135e-05 3.10121e-05 -9.90264e-06)
(1.05339e-05 1.17817e-05 -6.07159e-06)
(3.61515e-05 1.28565e-05 -1.43416e-05)
(7.49927e-05 1.37297e-05 -1.67612e-05)
(0.000116931 1.50325e-05 -1.84018e-05)
(0.000165161 1.68664e-05 -2.16919e-05)
(0.000223655 1.92671e-05 -2.70384e-05)
(0.000296261 2.22555e-05 -3.45428e-05)
(0.000389398 2.59066e-05 -4.45099e-05)
(0.000503118 3.01939e-05 -5.50677e-05)
(0.000646234 3.55335e-05 -6.4762e-05)
(0.000787301 4.17434e-05 -5.69471e-05)
(0.000929672 5.05775e-05 -3.35044e-05)
(0.000946482 6.08202e-05 6.69533e-05)
(0.000816927 7.05963e-05 0.000109228)
(0.000657683 7.93015e-05 0.000134126)
(0.000471288 8.61911e-05 0.000141993)
(0.000286283 9.10736e-05 0.000145245)
(0.00010041 9.37474e-05 0.00014607)
(-8.38787e-05 9.41488e-05 0.000146073)
(-0.000269801 9.22546e-05 0.000145254)
(-0.000454934 8.8078e-05 0.000142023)
(-0.000641467 8.17802e-05 0.000134196)
(-0.000801146 7.35094e-05 0.000109471)
(-0.000931086 6.4003e-05 6.7385e-05)
(-0.000916015 5.3869e-05 -3.22312e-05)
(-0.000775401 4.50523e-05 -5.64528e-05)
(-0.000634199 3.89101e-05 -6.48216e-05)
(-0.000489621 3.36526e-05 -5.59806e-05)
(-0.000372466 2.9505e-05 -4.6222e-05)
(-0.000274013 2.60615e-05 -3.72874e-05)
(-0.000193371 2.33855e-05 -3.13175e-05)
(-0.000123476 2.14387e-05 -2.80262e-05)
(-5.94891e-05 2.01235e-05 -2.3709e-05)
(-1.73547e-05 1.84859e-05 -1.00912e-05)
(1.05975e-05 3.94758e-06 -6.13286e-06)
(3.63873e-05 4.14897e-06 -1.4464e-05)
(7.54845e-05 4.13603e-06 -1.69e-05)
(0.000117692 4.08987e-06 -1.85507e-05)
(0.000166218 4.05535e-06 -2.1861e-05)
(0.000225058 4.08294e-06 -2.72394e-05)
(0.00029809 4.27534e-06 -3.47884e-05)
(0.000391755 4.75004e-06 -4.48146e-05)
(0.000506141 5.76553e-06 -5.54443e-05)
(0.000650034 7.25538e-06 -6.52183e-05)
(0.000791936 9.52933e-06 -5.7453e-05)
(0.000934954 1.1005e-05 -3.402e-05)
(0.000951825 1.18585e-05 6.66514e-05)
(0.000821796 1.25254e-05 0.000109029)
(0.000661793 1.2962e-05 0.000133979)
(0.000474457 1.34626e-05 0.000141864)
(0.000288398 1.39387e-05 0.000145122)
(0.000101401 1.44225e-05 0.000145947)
(-8.40553e-05 1.48628e-05 0.000145948)
(-0.000271157 1.52315e-05 0.000145125)
(-0.00045745 1.55127e-05 0.000141884)
(-0.000645078 1.56248e-05 0.000134034)
(-0.000805698 1.5587e-05 0.000109246)
(-0.000936302 1.51048e-05 6.70467e-05)
(-0.000921312 1.41907e-05 -3.28083e-05)
(-0.000780089 1.25371e-05 -5.70261e-05)
(-0.000638041 1.00947e-05 -6.53467e-05)
(-0.000492665 8.43462e-06 -5.64242e-05)
(-0.000374803 7.26905e-06 -4.65922e-05)
(-0.000275769 6.66013e-06 -3.75993e-05)
(-0.000194629 6.35262e-06 -3.15909e-05)
(-0.000124287 6.22609e-06 -2.82789e-05)
(-5.98751e-05 6.15477e-06 -2.39314e-05)
(-1.74571e-05 5.84856e-06 -1.02042e-05)
(1.04912e-05 -3.76282e-06 -6.15526e-06)
(3.60824e-05 -4.43064e-06 -1.44548e-05)
(7.48958e-05 -5.33819e-06 -1.68745e-05)
(0.000116844 -6.75584e-06 -1.8512e-05)
(0.000165153 -8.70556e-06 -2.17973e-05)
(0.000223874 -1.1134e-05 -2.71357e-05)
(0.000296928 -1.38611e-05 -3.46279e-05)
(0.000390886 -1.67036e-05 -4.45767e-05)
(0.000505619 -1.90139e-05 -5.51055e-05)
(0.00064999 -2.12463e-05 -6.47694e-05)
(0.000791046 -2.22212e-05 -5.6887e-05)
(0.000932011 -2.81246e-05 -3.32657e-05)
(0.00094801 -3.71666e-05 6.74981e-05)
(0.000818031 -4.59851e-05 0.000110129)
(0.000658617 -5.41384e-05 0.000135266)
(0.000472261 -6.0187e-05 0.000143336)
(0.000287241 -6.41992e-05 0.000146704)
(0.000101334 -6.59176e-05 0.000147585)
(-8.30694e-05 -6.5403e-05 0.000147583)
(-0.000269149 -6.2688e-05 0.000146696)
(-0.000454538 -5.77991e-05 0.000143336)
(-0.00064139 -5.1053e-05 0.000135291)
(-0.000801668 -4.24974e-05 0.000110303)
(-0.000932493 -3.35648e-05 6.78371e-05)
(-0.000918593 -2.47973e-05 -3.21397e-05)
(-0.000779492 -1.93489e-05 -5.65477e-05)
(-0.000638293 -1.88044e-05 -6.49845e-05)
(-0.000492442 -1.70146e-05 -5.61625e-05)
(-0.000374239 -1.51576e-05 -4.64209e-05)
(-0.000274928 -1.28026e-05 -3.7493e-05)
(-0.000193799 -1.06271e-05 -3.1528e-05)
(-0.000123628 -8.85685e-06 -2.82416e-05)
(-5.95145e-05 -7.6453e-06 -2.39214e-05)
(-1.73225e-05 -6.62085e-06 -1.02422e-05)
(1.02039e-05 -1.11028e-05 -6.14916e-06)
(3.52145e-05 -1.26319e-05 -1.43182e-05)
(7.31907e-05 -1.44732e-05 -1.66865e-05)
(0.000114319 -1.73572e-05 -1.82851e-05)
(0.000161838 -2.14123e-05 -2.14965e-05)
(0.000219901 -2.66332e-05 -2.67164e-05)
(0.000292516 -3.27992e-05 -3.40403e-05)
(0.000386588 -3.96001e-05 -4.37569e-05)
(0.000501558 -4.56595e-05 -5.39836e-05)
(0.000646756 -5.13688e-05 -6.33035e-05)
(0.000784999 -5.32174e-05 -5.50744e-05)
(0.00092 -6.75517e-05 -3.08846e-05)
(0.00093393 -8.89499e-05 7.00214e-05)
(0.000804763 -0.00010929 0.000113303)
(0.000647546 -0.000127712 0.000138916)
(0.000464361 -0.000141289 0.00014748)
(0.000282648 -0.000150355 0.00015114)
(0.00010019 -0.000154494 0.000152169)
(-8.08199e-05 -0.000153856 0.000152158)
(-0.000263534 -0.000148477 0.000151106)
(-0.00044578 -0.000138316 0.000147435)
(-0.000629733 -0.000123854 0.000138879)
(-0.000788151 -0.000104961 0.000113394)
(-0.000918569 -8.45394e-05 7.02628e-05)
(-0.000907086 -6.37143e-05 -2.98878e-05)
(-0.000774036 -5.02619e-05 -5.48568e-05)
(-0.000635635 -4.91335e-05 -6.36374e-05)
(-0.000488978 -4.41548e-05 -5.51386e-05)
(-0.000370577 -3.88619e-05 -4.56767e-05)
(-0.000271233 -3.29064e-05 -3.69528e-05)
(-0.00019068 -2.77289e-05 -3.11212e-05)
(-0.000121372 -2.37231e-05 -2.79119e-05)
(-5.83433e-05 -2.10466e-05 -2.36807e-05)
(-1.69323e-05 -1.86473e-05 -1.02089e-05)
(9.72392e-06 -1.77957e-05 -6.1171e-06)
(3.37414e-05 -2.01335e-05 -1.40615e-05)
(7.02646e-05 -2.29186e-05 -1.63449e-05)
(0.0001099 -2.73363e-05 -1.788e-05)
(0.000155873 -3.36845e-05 -2.09674e-05)
(0.000212482 -4.2106e-05 -2.59823e-05)
(0.00028394 -5.24738e-05 -3.30077e-05)
(0.000377941 -6.43651e-05 -4.22832e-05)
(0.000493589 -7.52846e-05 -5.19078e-05)
(0.000641909 -8.45577e-05 -6.04596e-05)
(0.00077441 -8.09834e-05 -5.16899e-05)
(0.000896091 -0.000106438 -2.63701e-05)
(0.000906127 -0.000146705 7.51337e-05)
(0.000779113 -0.000182672 0.000120012)
(0.000626506 -0.000214299 0.000146719)
(0.000449533 -0.000237073 0.000156374)
(0.000273987 -0.000252127 0.000160683)
(9.78155e-05 -0.00025905 0.00016203)
(-7.7038e-05 -0.000258224 0.000162)
(-0.000253562 -0.000249673 0.000160593)
(-0.000429833 -0.000233154 0.000156236)
(-0.000607928 -0.000209135 0.000146555)
(-0.000762201 -0.000176845 0.000119939)
(-0.000891101 -0.000140727 7.52014e-05)
(-0.000884116 -0.000101497 -2.55807e-05)
(-0.000764443 -7.76777e-05 -5.16573e-05)
(-0.00063166 -8.226e-05 -6.09796e-05)
(-0.00048191 -7.40054e-05 -5.32081e-05)
(-0.000362905 -6.41827e-05 -4.43059e-05)
(-0.000263769 -5.35031e-05 -3.59722e-05)
(-0.000184609 -4.45576e-05 -3.03778e-05)
(-0.000117113 -3.78936e-05 -2.73005e-05)
(-5.61569e-05 -3.35614e-05 -2.32222e-05)