/*--------------------------------*- C++ -*----------------------------------*\
| =========                 |                                                 |
| \\      /  F ield         | OpenFOAM: The Open Source CFD Toolbox           |
|  \\    /   O peration     | Version:  2112                                  |
|   \\  /    A nd           | Website:  www.openfoam.com                      |
|    \\/     M anipulation  |                                                 |
\*---------------------------------------------------------------------------*/
FoamFile
{
    version     2.0;
    format      ascii;
    arch        "LSB;label=32;scalar=64";
    class       volScalarField;
    location    "4.2";
    object      epsilon;
}
// * * * * * * * * * * * * * * * * * * * * * * * * * * * * * * * * * * * * * //

dimensions      [0 2 -3 0 0 0 0];

internalField   nonuniform List<scalar> 
64906
(
0.000119905
0.000143318
0.00015893
0.000167082
0.000171022
0.000172821
0.00017359
0.000173888
0.000173979
0.000173982
0.00017395
0.00017391
0.00017388
0.000173858
0.000173841
0.000173827
0.000173814
0.000173805
0.000173802
0.000173807
0.000173817
0.00017383
0.000173846
0.000173863
0.00017388
0.000173882
0.000173808
0.000173534
0.000172788
0.000171007
0.000167079
0.000158934
0.00014333
0.000119915
0.000143338
0.000270579
0.000351116
0.000396638
0.000421376
0.000434098
0.000440153
0.000442701
0.000443507
0.00044351
0.000443202
0.000442837
0.000442536
0.000442336
0.00044222
0.000442154
0.000442115
0.000442097
0.000442097
0.000442115
0.000442153
0.000442214
0.000442311
0.000442455
0.000442597
0.000442545
0.000441828
0.000439473
0.000433648
0.000421132
0.000396547
0.000351116
0.000270611
0.000143367
0.00015898
0.000351163
0.000478172
0.000553541
0.000596583
0.000619783
0.000631224
0.000636018
0.000637255
0.00063675
0.000635577
0.000634365
0.000633422
0.000632826
0.000632498
0.00063232
0.00063222
0.000632175
0.000632177
0.000632226
0.000632327
0.000632494
0.000632776
0.000633235
0.000633806
0.000634084
0.000633081
0.000628874
0.000618162
0.000595638
0.000553106
0.000478048
0.000351192
0.00015903
0.000167156
0.000396741
0.000553601
0.000649874
0.000706593
0.000737896
0.000753329
0.000759224
0.000759674
0.00075734
0.000754031
0.000750938
0.000748634
0.000747229
0.000746476
0.000746051
0.000745801
0.000745683
0.000745687
0.000745811
0.000746062
0.000746467
0.000747144
0.000748324
0.000750034
0.000751679
0.000751726
0.000747246
0.000733612
0.000703991
0.000648561
0.000553107
0.000396677
0.000167219
0.000171111
0.000421522
0.000596714
0.00070669
0.00077264
0.000809164
0.000826375
0.000831226
0.000828521
0.000821842
0.000814087
0.000807409
0.00080268
0.000799965
0.000798589
0.000797766
0.000797243
0.000796988
0.000796993
0.000797257
0.00079778
0.000798577
0.000799853
0.000802274
0.00080623
0.000811041
0.000814655
0.000812865
0.000799583
0.000766725
0.000703579
0.000595416
0.000421213
0.00017117
0.000172916
0.000434281
0.000620011
0.000738172
0.000809427
0.000848112
0.000864221
0.000864765
0.000855008
0.000839732
0.00082381
0.000811304
0.000803048
0.000798759
0.00079682
0.000795495
0.000794558
0.000794089
0.000794096
0.000794576
0.000795515
0.000796814
0.000798646
0.000802608
0.000809989
0.000820358
0.000831535
0.000837178
0.000829009
0.000797611
0.000731854
0.000617245
0.000433488
0.000172949
0.000173687
0.000440383
0.000631624
0.000753983
0.000827309
0.000865167
0.000876783
0.00086854
0.000845752
0.000814961
0.000785253
0.000765362
0.000753699
0.000748671
0.000746981
0.000745229
0.000743792
0.000743067
0.000743075
0.000743814
0.000745257
0.00074699
0.000748585
0.000753303
0.000764092
0.000781757
0.000806397
0.000826821
0.000830434
0.000806046
0.000742598
0.000626529
0.00043879
0.000173661
0.000173989
0.000443017
0.000636742
0.000760645
0.000833624
0.000868055
0.000871633
0.000848985
0.000804289
0.000746182
0.000693367
0.000669935
0.000659896
0.000657695
0.000658352
0.000656642
0.000654897
0.000654032
0.000654041
0.000654922
0.000656678
0.000658383
0.000657661
0.00065962
0.000668908
0.00069024
0.000737912
0.000785207
0.000809929
0.000798863
0.000742223
0.000628441
0.000440301
0.000173864
0.00017409
0.000443982
0.000638552
0.000762483
0.000833675
0.000862983
0.000855691
0.000812699
0.000733395
0.000624922
0.000527202
0.000525118
0.000534837
0.000543406
0.000549288
0.000548858
0.000547672
0.000547076
0.000547085
0.000547698
0.000548899
0.000549339
0.00054343
0.00053473
0.000524526
0.000524982
0.000617694
0.000714945
0.000773644
0.000782212
0.000735745
0.000626538
0.000439966
0.000173837
0.000174109
0.000444241
0.000638947
0.000762353
0.000831483
0.00085565
0.000837158
0.000770717
0.000642351
0.000438417
0.00024549
0.000336648
0.000404
0.0004329
0.000444685
0.000447246
0.000447681
0.000447719
0.000447727
0.000447704
0.000447286
0.000444743
0.000432969
0.000404057
0.000336614
0.000244871
0.000433243
0.000625102
0.000732119
0.000763598
0.00072792
0.000623593
0.000439059
0.000173731
0.000174101
0.00044429
0.000639006
0.000762082
0.000830055
0.000851342
0.000826283
0.000744
0.00057206
0.000259004
0.000202224
0.000315243
0.000357416
0.000370791
0.000375477
0.000376906
0.000377256
0.00037726
0.00037692
0.000375503
0.000370833
0.000357482
0.000315337
0.00020227
0.000256797
0.000556111
0.00070581
0.000752756
0.000723423
0.000621845
0.00043848
0.000173647
0.000174086
0.000444343
0.000639225
0.00076255
0.000830933
0.000853187
0.000831111
0.000759093
0.000623842
0.000414663
0.000229541
0.000284189
0.000335841
0.000357019
0.000362695
0.000367326
0.000368824
0.000369109
0.000369108
0.000368823
0.000367325
0.000362689
0.000357011
0.000335812
0.00028401
0.000228834
0.000409493
0.000606681
0.000720504
0.000757354
0.000725019
0.00062242
0.000438637
0.000173631
0.000174076
0.000444454
0.000639683
0.00076373
0.000833605
0.000859051
0.000844062
0.000788325
0.000690706
0.000559341
0.000437504
0.000396295
0.000376296
0.000369227
0.000366534
0.000366899
0.000367098
0.000367082
0.000367078
0.000367086
0.000366876
0.00036649
0.000369144
0.000376096
0.000395678
0.000435393
0.000552412
0.000672531
0.000749201
0.000769951
0.000730553
0.000624723
0.000439384
0.000173693
0.000174069
0.000444593
0.000640251
0.000765195
0.000836874
0.000865869
0.000857706
0.000814711
0.000739332
0.000640177
0.000538718
0.000461337
0.000406836
0.000382121
0.000372922
0.0003701
0.000369208
0.000368914
0.000368907
0.000369187
0.000370062
0.000372855
0.000381998
0.000406555
0.00046052
0.000536019
0.000632433
0.00072047
0.000775067
0.000783167
0.00073696
0.000627547
0.000440334
0.000173767
0.000174061
0.00044472
0.000640776
0.000766532
0.000839769
0.000871604
0.000868316
0.000833082
0.000768612
0.000681189
0.000583917
0.000493652
0.000424419
0.000390836
0.000377758
0.000373236
0.000371727
0.000371245
0.000371235
0.000371697
0.000373186
0.000377679
0.000390694
0.000424106
0.000492751
0.000580971
0.000673049
0.000749311
0.000793014
0.00079337
0.000742281
0.000629998
0.000441171
0.000173821
0.000174049
0.000444811
0.000641174
0.000767533
0.000841877
0.000875602
0.000875273
0.000844183
0.000784602
0.000701228
0.000604227
0.000508642
0.000433151
0.000395528
0.000380523
0.000375185
0.000373359
0.000372753
0.000372738
0.00037332
0.000375127
0.000380437
0.000395378
0.000432823
0.000507689
0.000601166
0.000692876
0.000765022
0.0008038
0.000799992
0.000745927
0.00063173
0.000441758
0.000173846
0.000174034
0.00044486
0.000641426
0.000768163
0.000843173
0.000877974
0.000879211
0.000850103
0.000792541
0.000710447
0.000613037
0.000515173
0.000437007
0.000397668
0.000381813
0.000376109
0.000374124
0.000373427
0.000373406
0.000374077
0.000376045
0.000381722
0.000397514
0.000436671
0.000514146
0.000609917
0.000701982
0.000772797
0.000809516
0.000803701
0.000748052
0.00063276
0.000442098
0.000173846
0.000174019
0.000444876
0.000641549
0.000768467
0.000843785
0.000879066
0.000880964
0.000852633
0.000795782
0.00071403
0.000616329
0.000517598
0.000438434
0.000398465
0.000382289
0.000376439
0.000374376
0.000373615
0.000373587
0.000374322
0.000376371
0.000382194
0.000398307
0.000438093
0.000516549
0.000613186
0.000705518
0.000775963
0.000811949
0.000805339
0.000749016
0.000633234
0.000442244
0.000173831
0.000174006
0.000444868
0.000641559
0.000768489
0.000843821
0.000879116
0.000881032
0.00085272
0.000795887
0.00071415
0.000616453
0.000517712
0.000438514
0.000398511
0.000382307
0.000376435
0.000374347
0.000373547
0.000373514
0.000374288
0.000376363
0.00038221
0.000398352
0.000438174
0.000516665
0.000613315
0.000705643
0.000776073
0.000812039
0.000805407
0.000749062
0.00063326
0.00044224
0.000173811
0.000174003
0.000444841
0.000641456
0.000768228
0.000843276
0.000878122
0.000879413
0.000850363
0.000792862
0.000710815
0.000613426
0.000515534
0.000437259
0.000397816
0.000381876
0.000376105
0.000374046
0.00037325
0.000373214
0.000373983
0.00037603
0.000381777
0.000397659
0.000436926
0.000514509
0.000610325
0.00070237
0.000773133
0.000809786
0.000803903
0.00074819
0.000632836
0.000442093
0.000173796
0.000174011
0.00044479
0.000641221
0.000767635
0.000842039
0.000875837
0.000875599
0.000844616
0.00078515
0.000701876
0.000604931
0.000509272
0.00043361
0.000395801
0.000380649
0.000375197
0.000373257
0.000372523
0.00037249
0.000373194
0.000375122
0.000380554
0.000395653
0.000433296
0.000508311
0.000601915
0.000693566
0.000765599
0.000804247
0.000800319
0.000746149
0.000631853
0.000441762
0.000173785
0.00017402
0.000444702
0.00064083
0.00076665
0.00083996
0.00087189
0.000868732
0.000833665
0.000769395
0.000682171
0.000585039
0.000494593
0.000425129
0.000391249
0.000377949
0.000373263
0.00037161
0.000371005
0.000370979
0.000371552
0.000373191
0.00037786
0.000391115
0.000424853
0.000493752
0.000582186
0.000674104
0.000750131
0.000793607
0.000793782
0.000742556
0.000630153
0.000441189
0.000173757
0.000174027
0.000444566
0.000640278
0.000765268
0.000837008
0.000866103
0.000858101
0.000815353
0.000740316
0.00064156
0.00054039
0.00046275
0.000407751
0.000382545
0.000373024
0.000369974
0.000368921
0.000368527
0.000368508
0.000368872
0.000369906
0.000372938
0.000382424
0.000407528
0.000462067
0.000537856
0.000633931
0.000721469
0.000775671
0.000783532
0.000737191
0.00062768
0.00044035
0.0001737
0.000174031
0.00044438
0.000639589
0.000763597
0.000833459
0.000858955
0.000844125
0.00078871
0.000691653
0.000561026
0.000439759
0.00039816
0.000376838
0.000368908
0.000365728
0.000365763
0.000365786
0.000365687
0.000365671
0.000365738
0.00036568
0.000365599
0.000368728
0.00037662
0.000397749
0.000437903
0.000554234
0.000673339
0.000749365
0.00076989
0.000730481
0.000624691
0.000439343
0.000173619
0.000174027
0.000444119
0.000638766
0.000761823
0.000829981
0.000852116
0.000830095
0.000758444
0.000624078
0.000416301
0.000230536
0.000284514
0.000333413
0.000352983
0.000357684
0.00036179
0.000363086
0.000363292
0.000363268
0.000363004
0.000361603
0.000357301
0.000352365
0.000332722
0.000284258
0.000229838
0.000411164
0.000606222
0.000719102
0.000755977
0.000724051
0.000621888
0.000438399
0.000173541
0.000174003
0.000443655
0.000637613
0.000759879
0.000827131
0.000847851
0.000822414
0.000740069
0.000568915
0.00025802
0.000197204
0.000302328
0.000339899
0.000350369
0.000354029
0.000355167
0.000355417
0.000355357
0.000354933
0.000353436
0.000349045
0.000337438
0.000298899
0.000195071
0.00025459
0.000550318
0.000699751
0.000748031
0.000720285
0.000620087
0.000437739
0.00017351
0.000173903
0.000442585
0.000635371
0.000756844
0.00082427
0.000847016
0.000827306
0.000759771
0.000630755
0.000427814
0.000238277
0.000309575
0.000362471
0.000378801
0.000382136
0.000382702
0.000382877
0.000382892
0.000382773
0.000382375
0.00038128
0.000378596
0.000371316
0.000350046
0.000297006
0.000232051
0.000414053
0.00060575
0.000716422
0.000752226
0.000720381
0.000619212
0.000437166
0.000173463
0.000173611
0.000439975
0.000630254
0.000750104
0.000817797
0.000844152
0.000834033
0.000787595
0.000703344
0.000587476
0.000478209
0.000451749
0.000434688
0.000415987
0.000405436
0.00040117
0.000399758
0.000399318
0.000399134
0.000398941
0.000398664
0.000398607
0.000399859
0.000404385
0.000417037
0.000446851
0.000556737
0.000669071
0.000740371
0.000758761
0.000719908
0.000616912
0.000435577
0.000173284
0.000172856
0.000433992
0.000618965
0.000735048
0.00080162
0.000830842
0.000829526
0.000800737
0.000746435
0.000672439
0.000594447
0.000533814
0.000478884
0.000432633
0.000410364
0.000401956
0.00039919
0.000398363
0.000398139
0.000398159
0.00039863
0.000400734
0.000408087
0.000429197
0.000477026
0.000542476
0.000627844
0.000704918
0.000751508
0.000756329
0.000712023
0.000608961
0.000430803
0.000172649
0.000171073
0.000421392
0.00059613
0.000704682
0.000767309
0.000797016
0.000801615
0.000785215
0.000749991
0.0006987
0.000636965
0.000572185
0.000507089
0.000452064
0.000425257
0.000414891
0.000411383
0.000410321
0.000410069
0.000410218
0.000411121
0.000414371
0.000424451
0.000451363
0.00050816
0.000578465
0.000650117
0.000707644
0.000738529
0.000734623
0.000688485
0.000589338
0.000419348
0.000170971
0.000167139
0.000396759
0.000553453
0.000648954
0.000703688
0.000730722
0.000738004
0.000729771
0.000707837
0.000673187
0.000627602
0.000574681
0.000519973
0.000473675
0.000448921
0.000438563
0.000434791
0.000433581
0.00043331
0.000433538
0.000434689
0.000438381
0.000448698
0.0004736
0.000520932
0.00057761
0.000631632
0.000672123
0.000691031
0.000682263
0.000638776
0.00054943
0.000395666
0.000167115
0.000158982
0.000351287
0.000478323
0.000553419
0.000595543
0.000616566
0.000623596
0.000620362
0.000608261
0.00058758
0.000558747
0.000523682
0.000486871
0.000455703
0.000437644
0.000429397
0.000426237
0.000425198
0.000424964
0.00042518
0.000426195
0.000429327
0.000437573
0.000455769
0.000487355
0.000524707
0.000559272
0.00058394
0.00059359
0.000583723
0.000548156
0.000476452
0.000350884
0.000159015
0.000143364
0.000270718
0.000351374
0.000396919
0.000421436
0.000433435
0.000437824
0.000437101
0.000432176
0.000423048
0.000409602
0.000392587
0.000374339
0.000358638
0.000349027
0.000344377
0.000342499
0.000341849
0.000341701
0.000341853
0.000342504
0.000344381
0.00034904
0.000358707
0.000374537
0.000392882
0.000409399
0.000420574
0.000423935
0.000416889
0.00039513
0.000350888
0.000270699
0.000143415
0.000119934
0.000143406
0.000159099
0.000167326
0.000171322
0.000173136
0.000173835
0.000173896
0.000173457
0.000172476
0.000170959
0.000168895
0.000166517
0.000164353
0.000162975
0.000162275
0.000161958
0.000161811
0.000161762
0.000161818
0.000161964
0.000162279
0.000162974
0.00016435
0.000166519
0.000168898
0.000170904
0.00017219
0.000172415
0.000171117
0.000167354
0.000159194
0.000143485
0.000119974
0.000160778
0.000240544
0.000295646
0.00032704
0.000343832
0.000352293
0.000356242
0.000357874
0.000358379
0.000358371
0.000358163
0.000357913
0.0003577
0.000357547
0.000357447
0.000357383
0.000357341
0.00035732
0.000357318
0.000357337
0.000357375
0.000357435
0.000357521
0.000357638
0.000357752
0.000357739
0.000357296
0.000355786
0.000351979
0.000343645
0.000326946
0.000295612
0.00024054
0.000160788
0.00024055
0.000302482
0.00036414
0.000402815
0.000424726
0.00043623
0.000441771
0.000444111
0.000444837
0.000444808
0.000444482
0.0004441
0.000443782
0.000443562
0.000443425
0.000443343
0.000443294
0.000443271
0.000443271
0.000443295
0.000443342
0.000443419
0.000443537
0.000443701
0.000443865
0.000443847
0.000443206
0.000441048
0.000435729
0.000424431
0.00040268
0.000364114
0.000302521
0.000240549
0.000295683
0.000364159
0.000439617
0.000489454
0.000519023
0.000535191
0.000543199
0.000546546
0.000547386
0.000546996
0.000546133
0.000545237
0.000544524
0.000544049
0.000543766
0.0005436
0.000543504
0.000543459
0.000543459
0.000543505
0.0005436
0.000543755
0.000544003
0.000544377
0.000544821
0.000545049
0.000544366
0.000541428
0.000533935
0.000518257
0.000489073
0.000439496
0.000364186
0.000295668
0.000327113
0.000402862
0.000489485
0.000548367
0.000584287
0.000604343
0.000614255
0.000618032
0.000618313
0.000616819
0.000614713
0.000612741
0.000611257
0.000610314
0.000609773
0.000609461
0.000609278
0.00060919
0.000609191
0.00060928
0.00060946
0.000609756
0.000610243
0.000611037
0.00061213
0.000613158
0.000613147
0.000610233
0.000601451
0.000582476
0.000547406
0.000489095
0.000402793
0.000327043
0.00034394
0.000424802
0.000519097
0.000584344
0.000624739
0.000647336
0.000658014
0.000661052
0.00065946
0.000655483
0.000650903
0.000646969
0.000644193
0.00064253
0.000641625
0.000641107
0.00064079
0.000640633
0.000640635
0.000640793
0.000641106
0.000641603
0.000642441
0.000643913
0.000646195
0.000648951
0.000650936
0.000649627
0.000641267
0.000620888
0.000582225
0.000518134
0.000424491
0.000343725
0.000352436
0.00043634
0.000535332
0.000604516
0.0006475
0.000671061
0.000680944
0.000681435
0.000675824
0.000667077
0.000658091
0.000651028
0.000646474
0.00064397
0.000642699
0.000641985
0.00064151
0.000641261
0.000641262
0.000641514
0.000641986
0.000642679
0.000643876
0.000646164
0.000650156
0.000655873
0.000661912
0.000664729
0.000659356
0.000640055
0.000600351
0.000533335
0.000435565
0.000351934
0.000356425
0.000441934
0.000543466
0.000614674
0.00065859
0.000681509
0.000688725
0.000684202
0.000671357
0.000654275
0.000638119
0.000626787
0.00062063
0.000617726
0.000616384
0.000615715
0.000615155
0.000614822
0.000614824
0.000615161
0.00061572
0.000616372
0.000617644
0.00062033
0.000625898
0.000635788
0.000648764
0.00065948
0.000660657
0.00064544
0.000607301
0.000539842
0.000440409
0.000355447
0.000358116
0.000444371
0.000547049
0.000618945
0.000662511
0.000683369
0.000685988
0.00067348
0.000648966
0.000618213
0.00059149
0.000575052
0.000569688
0.000568256
0.000567587
0.000567818
0.000567534
0.000567225
0.000567228
0.000567543
0.000567829
0.000567589
0.000568205
0.000569445
0.000574242
0.000589186
0.000612577
0.000636671
0.000649083
0.000641296
0.000607146
0.0005412
0.00044181
0.000356469
0.000358717
0.000445264
0.000548302
0.000620103
0.000662556
0.000680458
0.000677063
0.000653865
0.000612627
0.000561355
0.000525118
0.000497522
0.000500354
0.000504929
0.000505685
0.000509084
0.000510045
0.00051006
0.000510064
0.000510057
0.000509103
0.000505704
0.000504924
0.000500217
0.000496905
0.000522881
0.000555653
0.000600078
0.00062896
0.000631569
0.000603131
0.000539897
0.000441511
0.000356292
0.00035886
0.000445495
0.000548551
0.000619984
0.000661212
0.000676238
0.000666988
0.000632867
0.000573518
0.000503997
0.000578793
0.000404918
0.000426143
0.000443096
0.000444594
0.00045466
0.00045795
0.000458556
0.000458561
0.000457965
0.000454685
0.000444626
0.000443137
0.000426148
0.000404576
0.000575155
0.000497746
0.000560575
0.000607564
0.000621001
0.000598302
0.000537859
0.000440677
0.000355726
0.000358858
0.000445524
0.00054855
0.000619753
0.000660294
0.000673753
0.000661384
0.000622026
0.000561184
0.000635303
0.000402056
0.000358769
0.000382382
0.000395529
0.00039717
0.000397307
0.000397324
0.000397327
0.000397315
0.000397185
0.000395556
0.000382427
0.000358835
0.000402041
0.000623017
0.000547463
0.000596408
0.000615119
0.000595503
0.000536598
0.000440111
0.000355326
0.000358851
0.000445555
0.000548652
0.000619967
0.000660692
0.000674537
0.000663069
0.000625248
0.000559945
0.000479185
0.000505799
0.000359414
0.000397169
0.000425857
0.000453958
0.0004368
0.00043065
0.000429395
0.000429392
0.000430639
0.000436779
0.000453947
0.000425832
0.000397093
0.000359005
0.000502193
0.000472914
0.000546965
0.000599776
0.00061678
0.000596178
0.000536847
0.000440187
0.000355348
0.000358874
0.000445644
0.000548924
0.000620641
0.000662201
0.000677766
0.000669792
0.000638801
0.000585287
0.000515278
0.000452202
0.000405032
0.000395261
0.000393
0.00039642
0.000391613
0.000389481
0.000388925
0.000388923
0.000389475
0.0003916
0.000396403
0.00039294
0.00039507
0.000404366
0.000449988
0.000509584
0.000572571
0.000613467
0.000623548
0.000599382
0.000538294
0.000440809
0.000355722
0.000358917
0.000445766
0.000549282
0.000621514
0.000664121
0.000681716
0.000677515
0.000653156
0.00061017
0.000553031
0.000492782
0.000442345
0.000409913
0.000390204
0.000382732
0.000379323
0.000378083
0.00037772
0.000377717
0.000378074
0.000379305
0.000382694
0.000390107
0.000409649
0.000441564
0.000490519
0.000547307
0.000597463
0.000627832
0.000631258
0.000603287
0.000540149
0.000441637
0.00035622
0.000358957
0.000445885
0.000549621
0.000622325
0.000665854
0.000685131
0.000683804
0.000663967
0.000627249
0.000576811
0.000519395
0.000464905
0.000423105
0.000395392
0.000383458
0.000379168
0.000377793
0.000377407
0.000377404
0.000377782
0.000379146
0.000383411
0.000395278
0.000422808
0.000464061
0.000517043
0.000570992
0.000614462
0.000638573
0.000637473
0.000606618
0.000541794
0.000442386
0.000356659
0.000358981
0.000445976
0.000549881
0.000622936
0.000667123
0.000687539
0.00068802
0.000670762
0.000637198
0.000589651
0.000533183
0.000476494
0.000430637
0.000399371
0.000385491
0.000380526
0.000378962
0.000378531
0.000378526
0.00037895
0.000380502
0.00038544
0.000399251
0.000430326
0.000475616
0.000530771
0.000583752
0.000624322
0.000645274
0.000641593
0.000608928
0.000542969
0.000442925
0.000356961
0.000358988
0.000446032
0.000550046
0.000623319
0.000667902
0.000688973
0.000690429
0.000674452
0.000642295
0.000595844
0.000539539
0.000481753
0.000434141
0.000401365
0.000386657
0.000381363
0.000379693
0.000379231
0.000379225
0.000379679
0.000381338
0.000386604
0.000401242
0.000433822
0.000480852
0.000537091
0.00058989
0.00062935
0.000648888
0.000643919
0.000610278
0.00054367
0.000443245
0.000357126
0.000358982
0.000446057
0.000550124
0.000623501
0.000668266
0.000689627
0.000691496
0.000676032
0.000644392
0.000598288
0.000541961
0.000483726
0.000435453
0.000402127
0.000387113
0.000381692
0.000379976
0.000379497
0.000379491
0.000379961
0.000381666
0.000387059
0.000402001
0.000435131
0.000482811
0.000539497
0.000592309
0.000631412
0.000650426
0.00064494
0.000610885
0.000543989
0.000443389
0.000357188
0.000358969
0.000446055
0.000550127
0.000623508
0.000668278
0.000689646
0.000691524
0.000676069
0.000644439
0.000598345
0.000542024
0.000483789
0.000435505
0.000402161
0.00038713
0.000381699
0.000379976
0.000379492
0.000379485
0.000379961
0.000381672
0.000387076
0.000402036
0.000435184
0.000482874
0.000539562
0.000592367
0.00063146
0.000650462
0.000644966
0.000610901
0.000543998
0.000443391
0.000357173
0.000358956
0.000446029
0.000550054
0.000623339
0.000667938
0.000689029
0.00069051
0.000674563
0.00064244
0.000596021
0.000539738
0.000481952
0.000434305
0.000401474
0.000386715
0.000381391
0.000379702
0.000379225
0.000379218
0.000379687
0.000381365
0.000386662
0.000401353
0.000433991
0.000481053
0.000537298
0.000590073
0.000629496
0.000648995
0.000643993
0.000610325
0.000543696
0.000443251
0.000357088
0.000358938
0.000445973
0.000549893
0.000622966
0.000667177
0.000687627
0.000688151
0.000670947
0.000637449
0.000589968
0.000533548
0.000476854
0.00043094
0.000399573
0.000385604
0.00038059
0.000378997
0.000378547
0.000378541
0.000378983
0.000380566
0.000385555
0.000399461
0.000430644
0.000475991
0.000531156
0.000584079
0.000624572
0.000645451
0.00064171
0.000609001
0.000543009
0.000442936
0.00035691
0.000358906
0.000445879
0.000549629
0.000622351
0.000665907
0.000685227
0.000683963
0.000664213
0.000627607
0.000577295
0.000519977
0.000465478
0.000423567
0.000395677
0.000383599
0.000379241
0.000377833
0.000377429
0.000377424
0.000377821
0.000379221
0.000383558
0.000395579
0.000423302
0.000464676
0.000517663
0.00057149
0.000614809
0.000638793
0.000637606
0.000606695
0.000541835
0.000442398
0.0003566
0.000358852
0.000445743
0.000549259
0.000621495
0.00066412
0.000681755
0.00067763
0.000653395
0.000610594
0.000553686
0.000493626
0.000443155
0.000410424
0.000390362
0.000382633
0.000379146
0.000377874
0.000377496
0.000377492
0.000377863
0.000379124
0.000382589
0.000390269
0.000410195
0.000442444
0.000491418
0.000547955
0.000597823
0.000627991
0.000631313
0.0006033
0.000540149
0.000441629
0.000356142
0.000358772
0.000445566
0.000548802
0.000620472
0.000662004
0.000677574
0.000669661
0.000638815
0.000585573
0.000515979
0.000453289
0.000405856
0.00039518
0.000392159
0.000395059
0.00039018
0.00038801
0.000387436
0.000387429
0.000387987
0.000390125
0.000394956
0.000391982
0.000394902
0.000405233
0.000451116
0.000510139
0.000572603
0.00061324
0.00062327
0.000599156
0.000538146
0.000440725
0.000355591
0.000358647
0.000445321
0.000548255
0.000619392
0.000659964
0.000673702
0.000662195
0.000624441
0.000559403
0.000479183
0.000507832
0.000358492
0.000394342
0.000421657
0.000448891
0.000431441
0.000425159
0.000423881
0.000423874
0.000425119
0.000431308
0.000448611
0.000421058
0.000393485
0.000357421
0.000504159
0.000472185
0.000545538
0.000598304
0.000615565
0.000595311
0.000536306
0.000439893
0.00035508
0.000358389
0.000444886
0.000547471
0.000618201
0.000658306
0.000671387
0.000658676
0.00061897
0.00055762
0.000628184
0.000382822
0.000343537
0.000363707
0.000374283
0.000374931
0.000374823
0.000374794
0.000374746
0.000374622
0.000374376
0.000372975
0.0003611
0.000339313
0.000375069
0.000610298
0.000541222
0.000591722
0.000611705
0.000593173
0.000535144
0.000439311
0.000354725
0.000357732
0.00044388
0.000545905
0.000616264
0.000656504
0.00067063
0.000660447
0.000625109
0.000563741
0.000489504
0.000539709
0.000372633
0.000385104
0.000392835
0.000388533
0.000395585
0.000398243
0.000398792
0.000398689
0.000397798
0.000394276
0.000385195
0.000385747
0.000373275
0.000357274
0.000512327
0.000473206
0.000544864
0.000596546
0.000613272
0.000593032
0.000534488
0.00043875
0.000354373
0.000356066
0.000441452
0.000542305
0.000611918
0.000652414
0.000668548
0.000663271
0.000637478
0.000591908
0.0005327
0.000482047
0.000438644
0.000422125
0.000408977
0.000398451
0.000396699
0.000396432
0.0003963
0.000396135
0.00039569
0.000394418
0.000392372
0.000395599
0.000400618
0.000412785
0.000456252
0.00051069
0.000569359
0.000607472
0.000616351
0.000592455
0.000532773
0.000437224
0.000353312
0.000352158
0.000435958
0.000534383
0.000602217
0.000642302
0.000660159
0.000659736
0.000643167
0.000612066
0.000570124
0.000525579
0.000485409
0.000452988
0.000428496
0.000410748
0.000403457
0.00040102
0.000400276
0.000400059
0.000400023
0.00040029
0.000402006
0.000409069
0.000425945
0.000452426
0.000494213
0.000543351
0.000586842
0.000612684
0.000614265
0.000587162
0.000527099
0.000432804
0.000350121
0.00034376
0.00042456
0.000518467
0.000582746
0.000621015
0.000639386
0.000642402
0.00063274
0.000612
0.000582064
0.000546205
0.00050837
0.000472299
0.000443756
0.000422992
0.000413678
0.000410331
0.000409279
0.000409026
0.000409182
0.000410074
0.00041319
0.000422375
0.000443331
0.000473493
0.000513333
0.000554226
0.000586822
0.000603878
0.0006004
0.000571886
0.000513343
0.00042243
0.000342409
0.000327026
0.000402758
0.000489172
0.000547471
0.000582032
0.000599292
0.000604007
0.000598958
0.000585507
0.000564488
0.000537108
0.000505499
0.000473224
0.000445991
0.000427675
0.000418955
0.000415572
0.00041444
0.000414176
0.00041441
0.000415496
0.000418818
0.000427536
0.00044608
0.000474162
0.000507815
0.000539791
0.000563529
0.000574189
0.000567877
0.000540249
0.000485896
0.000401479
0.000326247
0.000295667
0.000364165
0.000439555
0.000489116
0.000517948
0.000532491
0.000537338
0.000535093
0.000526863
0.000512984
0.000493825
0.000470621
0.000446237
0.000425259
0.000411465
0.000404586
0.00040176
0.000400768
0.000400536
0.000400767
0.000401754
0.000404573
0.000411478
0.000425414
0.000446748
0.000471522
0.000494232
0.000510277
0.000516284
0.000509155
0.000484825
0.000437717
0.000363512
0.000295313
0.000240575
0.000302552
0.00036423
0.000402828
0.000424422
0.000435127
0.000438988
0.000438186
0.00043356
0.000425201
0.000413123
0.000398
0.000381805
0.00036775
0.00035862
0.000353985
0.000352028
0.000351321
0.000351155
0.000351332
0.000352047
0.000354014
0.000358672
0.000367875
0.000382066
0.000398334
0.000412933
0.000422851
0.000425867
0.000419653
0.000400646
0.000363369
0.000302285
0.000240487
0.000160808
0.000240573
0.000295716
0.00032711
0.000343759
0.000351766
0.000354668
0.000354231
0.000351064
0.000345149
0.0003364
0.000325249
0.000313202
0.000302802
0.000296368
0.000293211
0.000291888
0.000291402
0.000291285
0.000291413
0.000291908
0.000293237
0.000296406
0.000302879
0.000313355
0.000325442
0.000336243
0.000343512
0.000345623
0.000340773
0.000325859
0.000295289
0.000240476
0.000160839
0.000187175
0.000314337
0.000404958
0.000458653
0.000488676
0.000504504
0.000512208
0.000515499
0.000516518
0.000516448
0.000515932
0.000515322
0.000514801
0.000514429
0.000514191
0.000514042
0.000513953
0.00051391
0.000513909
0.00051395
0.000514035
0.000514172
0.000514379
0.000514662
0.000514949
0.00051497
0.000514092
0.000511081
0.000503705
0.000488176
0.000458379
0.000404832
0.000314296
0.000187184
0.000314339
0.000360988
0.000426663
0.000470816
0.000497038
0.00051135
0.000518485
0.000521592
0.00052258
0.000522539
0.000522076
0.000521528
0.000521061
0.000520729
0.000520519
0.000520392
0.000520319
0.000520284
0.000520284
0.000520318
0.000520389
0.000520506
0.000520685
0.000520929
0.000521164
0.000521138
0.000520264
0.000517408
0.000510584
0.000496567
0.000470582
0.000426594
0.000361014
0.000314296
0.000404998
0.000426676
0.000493421
0.000541973
0.000572362
0.00058963
0.000598456
0.000602246
0.00060323
0.000602793
0.000601786
0.000600718
0.000599846
0.000599243
0.000598869
0.000598647
0.00059852
0.000598461
0.000598461
0.000598519
0.000598641
0.000598847
0.000599172
0.00059964
0.000600169
0.00060042
0.000599607
0.000596276
0.000588045
0.000571359
0.000541444
0.000493226
0.000426666
0.000404878
0.000458746
0.000470855
0.000542001
0.000595732
0.000630333
0.000650378
0.000660575
0.000664573
0.000664929
0.000663395
0.000661178
0.000659058
0.000657418
0.000656323
0.000655662
0.000655284
0.000655069
0.000654968
0.000654968
0.000655068
0.000655276
0.000655631
0.000656221
0.000657129
0.000658303
0.000659344
0.000659233
0.000656101
0.000647075
0.000628188
0.000594532
0.000541463
0.000470686
0.000458448
0.000488827
0.000497112
0.000572437
0.000630394
0.000668201
0.000690092
0.000700733