/*--------------------------------*- C++ -*----------------------------------*\
| =========                 |                                                 |
| \\      /  F ield         | OpenFOAM: The Open Source CFD Toolbox           |
|  \\    /   O peration     | Version:  2112                                  |
|   \\  /    A nd           | Website:  www.openfoam.com                      |
|    \\/     M anipulation  |                                                 |
\*---------------------------------------------------------------------------*/
FoamFile
{
    version     2.0;
    format      ascii;
    arch        "LSB;label=32;scalar=64";
    class       volScalarField;
    location    "4.2";
    object      k;
}
// * * * * * * * * * * * * * * * * * * * * * * * * * * * * * * * * * * * * * //

dimensions      [0 2 -2 0 0 0 0];

internalField   nonuniform List<scalar> 
64906
(
0.000224065
0.000252566
0.000270755
0.000280051
0.000284512
0.000286548
0.000287422
0.000287762
0.000287867
0.000287869
0.000287833
0.000287786
0.000287751
0.000287725
0.000287705
0.000287689
0.000287675
0.000287665
0.000287661
0.000287667
0.000287678
0.000287693
0.000287711
0.000287731
0.000287751
0.000287754
0.000287669
0.000287357
0.000286509
0.000284493
0.000280047
0.000270759
0.000252579
0.000224077
0.000252589
0.000386232
0.000459821
0.000499021
0.000519774
0.00053034
0.000535358
0.000537473
0.000538143
0.000538143
0.000537882
0.000537573
0.000537317
0.000537146
0.000537047
0.00053699
0.000536957
0.000536941
0.000536941
0.000536957
0.000536989
0.000537041
0.000537125
0.000537248
0.000537369
0.000537327
0.000536731
0.000534777
0.000529951
0.00051956
0.000498936
0.000459817
0.000386261
0.000252623
0.000270813
0.000459863
0.00056533
0.000623604
0.000655804
0.000672909
0.000681302
0.000684817
0.000685724
0.000685348
0.000684477
0.000683572
0.000682866
0.000682417
0.000682168
0.000682032
0.000681956
0.000681922
0.000681923
0.000681961
0.000682037
0.000682164
0.000682378
0.000682724
0.000683151
0.00068336
0.000682624
0.000679539
0.00067168
0.000655073
0.000623254
0.000565221
0.000459884
0.00027087
0.000280135
0.000499108
0.00062365
0.000694364
0.000734509
0.000756284
0.000766945
0.000771012
0.00077132
0.000769699
0.000767394
0.000765231
0.000763611
0.000762617
0.000762081
0.000761777
0.000761599
0.000761516
0.000761518
0.000761606
0.000761784
0.000762073
0.000762554
0.000763387
0.000764587
0.000765735
0.00076577
0.000762675
0.000753246
0.000732628
0.00069338
0.000623252
0.000499044
0.000280205
0.000284612
0.000519897
0.000655902
0.000734579
0.000779923
0.000804558
0.000816075
0.000819317
0.00081751
0.000813028
0.000807797
0.000803265
0.000800036
0.000798169
0.000797216
0.000796646
0.000796285
0.000796111
0.000796114
0.000796295
0.000796655
0.000797206
0.000798089
0.000799751
0.000802446
0.000805704
0.000808135
0.000806929
0.00079801
0.000775802
0.000732332
0.000654899
0.000519621
0.000284677
0.000286655
0.000530493
0.000673079
0.00075648
0.00080474
0.00083042
0.000841029
0.000841398
0.00083498
0.000824865
0.000814233
0.000805803
0.000800191
0.000797248
0.000795905
0.000794992
0.000794351
0.000794031
0.000794035
0.000794362
0.000795005
0.000795899
0.000797166
0.000799881
0.000804892
0.000811871
0.000819323
0.00082305
0.000817619
0.000796674
0.000752011
0.000670989
0.000529808
0.000286688
0.000287532
0.000535551
0.000681602
0.000767408
0.000816714
0.000841664
0.000849276
0.000843915
0.000828955
0.000808504
0.000788487
0.000774869
0.00076678
0.000763244
0.000762032
0.000760801
0.0007598
0.000759297
0.000759303
0.000759815
0.00076082
0.000762036
0.00076318
0.000766495
0.000773971
0.000786054
0.000802651
0.000816232
0.000818587
0.000802349
0.000759445
0.000677798
0.000534196
0.000287496
0.000287876
0.000537739
0.000685361
0.000772013
0.000820949
0.000843596
0.000845969
0.000831172
0.000801548
0.000762191
0.000725462
0.000708687
0.000701324
0.000699619
0.000700024
0.000698766
0.0006975
0.000696875
0.000696881
0.000697518
0.000698791
0.000700045
0.000699591
0.000701115
0.000707927
0.000723192
0.000756367
0.000788496
0.000804991
0.000797553
0.000759199
0.000679204
0.000535448
0.000287727
0.000287993
0.000538545
0.000686696
0.000773293
0.000821006
0.000840304
0.000835582
0.000807233
0.000753593
0.000677007
0.000604066
0.000602051
0.000609146
0.000615501
0.000619902
0.000619529
0.000618609
0.00061815
0.000618156
0.000618629
0.00061956
0.000619939
0.000615517
0.000609057
0.000601573
0.000602298
0.000671601
0.000740569
0.000780646
0.000786352
0.000754732
0.000677814
0.000535172
0.000287697
0.000288015
0.000538764
0.000686991
0.000773213
0.000819558
0.000835504
0.000823408
0.000779089
0.000689723
0.000534329
0.000362605
0.000447169
0.000504739
0.000528462
0.000538021
0.000540045
0.000540376
0.000540402
0.000540408
0.000540395
0.000540077
0.000538068
0.000528517
0.000504785
0.000447132
0.000361968
0.000529971
0.000676988
0.000752327
0.000773732
0.00074931
0.000675654
0.00053442
0.000287576
0.000288006
0.000538805
0.000687036
0.000773027
0.000818605
0.000832662
0.000816197
0.00076088
0.000638303
0.000375969
0.000318071
0.000427387
0.00046467
0.000476192
0.000480208
0.000481433
0.000481733
0.000481737
0.000481445
0.00048023
0.000476229
0.000464727
0.000427473
0.000318119
0.00037375
0.000626061
0.000734078
0.000766311
0.000746171
0.000674364
0.000533937
0.000287481
0.000287989
0.00053885
0.000687195
0.000773344
0.000819175
0.000833842
0.000819325
0.000771047
0.000676128
0.000514474
0.00034641
0.000398689
0.000445394
0.000463857
0.000468712
0.000472739
0.000474046
0.000474296
0.000474296
0.000474045
0.000472738
0.000468706
0.00046385
0.000445368
0.000398515
0.00034567
0.000510044
0.000663333
0.000744149
0.000769382
0.000747244
0.00067477
0.000534062
0.000287461
0.000287979
0.000538942
0.00068753
0.00077415
0.000820937
0.000837655
0.00082779
0.000790653
0.000723507
0.000627994
0.000532447
0.000497752
0.00048038
0.000474132
0.000471734
0.00047205
0.00047223
0.00047222
0.000472216
0.000472219
0.000472031
0.000471696
0.000474059
0.000480204
0.000497215
0.000530668
0.000622621
0.000710414
0.000763733
0.000777877
0.000751046
0.000676443
0.000534677
0.000287532
0.000287971
0.000539059
0.000687946
0.000775153
0.000823099
0.000842097
0.000836691
0.000808183
0.00075704
0.000687106
0.000611722
0.000550926
0.000506064
0.000485055
0.000477112
0.000474666
0.000473895
0.00047364
0.000473634
0.000473876
0.000474633
0.000477055
0.000484948
0.000505823
0.000550249
0.000609598
0.000681368
0.000743762
0.000781212
0.000786771
0.000755456
0.000678503
0.000535462
0.000287616
0.000287962
0.000539166
0.000688332
0.000776072
0.000825019
0.000845838
0.000843602
0.000820305
0.00077691
0.000716169
0.000645528
0.00057644
0.000520595
0.000492413
0.000481213
0.000477308
0.000476002
0.000475584
0.000475575
0.000475975
0.000477265
0.000481145
0.000492291
0.00052033
0.000575708
0.000643271
0.000710262
0.000763501
0.000793253
0.000793624
0.000759122
0.000680295
0.000536156
0.000287678
0.000287949
0.000539243
0.000688625
0.000776763
0.000826421
0.00084845
0.000848133
0.000827607
0.000787681
0.000730186
0.000660464
0.000588108
0.000527757
0.00049637
0.000483565
0.000478965
0.000477385
0.00047686
0.000476846
0.000477351
0.000478915
0.000483491
0.000496241
0.000527481
0.000587343
0.000658145
0.000724184
0.000774173
0.000800466
0.00079807
0.000761638
0.000681566
0.000536645
0.000287708
0.000287933
0.000539285
0.000688812
0.000777198
0.000827285
0.000850004
0.000850701
0.000831501
0.000793018
0.000736608
0.000666909
0.000593168
0.000530915
0.000498176
0.000484666
0.000479754
0.000478037
0.000477434
0.000477416
0.000477996
0.000479699
0.000484588
0.000498043
0.000530633
0.000592351
0.000664557
0.000730552
0.000779443
0.000804289
0.000800564
0.000763107
0.000682324
0.000536929
0.00028771
0.000287916
0.000539299
0.000688903
0.000777409
0.000827695
0.00085072
0.000851846
0.000833168
0.000795197
0.000739104
0.000669316
0.000595048
0.000532085
0.00049885
0.000485073
0.000480037
0.000478253
0.000477594
0.00047757
0.000478206
0.000479978
0.000484991
0.000498714
0.000531799
0.000594212
0.00066695
0.000733024
0.000781589
0.000805917
0.000801667
0.000763775
0.000682673
0.000537052
0.000287694
0.000287902
0.000539292
0.00068891
0.000777425
0.000827718
0.000850753
0.00085189
0.000833225
0.000795269
0.000739188
0.000669408
0.000595137
0.000532151
0.000498889
0.000485089
0.000480034
0.000478228
0.000477535
0.000477506
0.000478176
0.000479971
0.000485005
0.000498753
0.000531865
0.000594303
0.000667045
0.000733112
0.000781665
0.000805978
0.000801712
0.000763808
0.000682691
0.000537049
0.00028767
0.000287898
0.000539269
0.000688833
0.000777243
0.000827353
0.000850101
0.000850832
0.000831673
0.000793235
0.000736867
0.000667195
0.00059345
0.000531123
0.000498302
0.00048472
0.00047975
0.00047797
0.00047728
0.000477248
0.000477915
0.000479685
0.000484635
0.000498167
0.000530844
0.000592632
0.000664858
0.000730825
0.000779672
0.000804469
0.000800699
0.000763202
0.000682379
0.000536925
0.000287654
0.000287906
0.000539226
0.000688659
0.000776832
0.000826528
0.000848603
0.000848345
0.000827893
0.000788052
0.000730642
0.000660985
0.000588599
0.000528137
0.000496603
0.000483674
0.000478975
0.000477296
0.00047666
0.000476631
0.000477241
0.00047891
0.000483591
0.000496475
0.000527873
0.00058783
0.000658699
0.000724671
0.000774566
0.000800766
0.00079829
0.00076179
0.000681655
0.000536649
0.00028764
0.000287917
0.000539151
0.00068837
0.000776151
0.000825143
0.000846023
0.000843871
0.000820689
0.000777442
0.000716866
0.000646367
0.000577184
0.000521187
0.000492766
0.000481378
0.00047733
0.000475897
0.000475373
0.00047535
0.000475847
0.000477268
0.000481301
0.000492651
0.000520952
0.000576502
0.00064418
0.000711012
0.000764062
0.00079365
0.000793899
0.00075931
0.000680407
0.00053617
0.000287606
0.000287924
0.000539036
0.000687963
0.000775199
0.000823182
0.000842243
0.000836943
0.000808606
0.000757715
0.000688106
0.000613005
0.00055207
0.000506835
0.000485417
0.000477197
0.000474551
0.000473638
0.000473297
0.00047328
0.000473595
0.000474492
0.000477122
0.000485312
0.000506642
0.000551501
0.000611008
0.000682454
0.000744451
0.000781614
0.00078701
0.00075561
0.000678596
0.000535473
0.00028754
0.000287928
0.000538879
0.000687454
0.000774048
0.000820825
0.000837575
0.000827812
0.000790897
0.000724163
0.000629264
0.000534299
0.000499337
0.000480843
0.000473843
0.000471016
0.000471042
0.000471067
0.000470983
0.000470969
0.000471024
0.000470968
0.000470902
0.000473684
0.000480651
0.000498975
0.000532729
0.000623998
0.000710972
0.000763824
0.000777815
0.000750981
0.00067641
0.000534638
0.000287448
0.000287923
0.000538658
0.000686847
0.000772822
0.000818511
0.000833098
0.000818608
0.000770561
0.000676269
0.000515833
0.000347423
0.000398988
0.000443187
0.000460265
0.000464276
0.000467859
0.000468994
0.000469176
0.000469156
0.000468922
0.000467694
0.000463937
0.000459715
0.00044256
0.000398737
0.000346691
0.000511431
0.000662954
0.000743123
0.000768393
0.000746537
0.000674358
0.000533856
0.000287359
0.000287894
0.000538268
0.000685992
0.000771472
0.000816599
0.000830285
0.000813535
0.000758081
0.00063586
0.000374972
0.000312657
0.00041539
0.000449061
0.000458206
0.000461397
0.000462391
0.000462611
0.000462557
0.000462184
0.000460871
0.000457029
0.000446852
0.000412188
0.000310353
0.000371532
0.000621558
0.00072972
0.000762974
0.000743917
0.00067303
0.000533304
0.000287323
0.000287778
0.000537372
0.000684336
0.000769358
0.000814655
0.000829687
0.000816719
0.000771452
0.000681137
0.000525424
0.000355273
0.000422402
0.000468945
0.000482782
0.000485554
0.00048599
0.000486124
0.000486134
0.00048603
0.000485691
0.000484765
0.000482504
0.000476312
0.000458021
0.000410723
0.000348928
0.000513828
0.000662579
0.000741224
0.000765786
0.000743948
0.000672368
0.000532819
0.000287268
0.000287445
0.000535202
0.000680572
0.000764685
0.000810283
0.000827721
0.000821055
0.000790094
0.000732362
0.000649093
0.000565334
0.00054368
0.000529435
0.000513831
0.000504951
0.000501333
0.000500131
0.000499756
0.0004996
0.000499438
0.000499211
0.000499188
0.000500298
0.000504252
0.000515117
0.00053999
0.00062584
0.000707871
0.000757569
0.000770148
0.000743561
0.000670649
0.000531491
0.000287063
0.000286586
0.000530242
0.000672283
0.00075426
0.000799401
0.000818845
0.000817957
0.000798737
0.000761874
0.000710194
0.000653602
0.000607769
0.000564778
0.000527367
0.000508884
0.000501814
0.000499475
0.000498773
0.000498583
0.000498601
0.000499003
0.000500791
0.000506998
0.000524595
0.000563401
0.000614459
0.000677949
0.000732818
0.000765036
0.000768395
0.000738018
0.000664778
0.000527528
0.000286342
0.000284568
0.000519778
0.000655443
0.000733118
0.000776198
0.00079625
0.000799309
0.000788212
0.000764157
0.00072848
0.000684392
0.000636607
0.000586816
0.000543104
0.000521168
0.000512556
0.000509622
0.00050873
0.000508519
0.000508644
0.000509403
0.000512125
0.00052051
0.000542559
0.000587687
0.000641317
0.000693801
0.000734583
0.000756063
0.000753472
0.000721505
0.000650266
0.000518012
0.000284444
0.000280115
0.000499116
0.000623518
0.000693661
0.000732396
0.000751191
0.000756196
0.000750442
0.000735075
0.000710519
0.000677622
0.000638488
0.000596826
0.000560458
0.000540526
0.000532071
0.000528969
0.000527971
0.000527746
0.000527936
0.000528886
0.000531922
0.00054035
0.000560408
0.000597581
0.000640678
0.000680504
0.000709658
0.000723122
0.00071704
0.000686137
0.00062036
0.000498144
0.000280082
0.000270814
0.000459969
0.000565439
0.000623485
0.000654982
0.000670459
0.000675587
0.000673173
0.000664202
0.000648776
0.00062702
0.000600118
0.000571283
0.000546326
0.000531603
0.000524805
0.000522185
0.00052132
0.000521124
0.000521305
0.00052215
0.000524748
0.000531547
0.000546384
0.000571671
0.000600907
0.000627388
0.000645993
0.000653248
0.000646
0.000619362
0.000563883
0.000459587
0.000270849
0.00025262
0.000386364
0.000460045
0.000499248
0.0005198
0.000529747
0.000533361
0.000532737
0.000528616
0.000520968
0.000509641
0.000495171
0.000479456
0.000465748
0.000457257
0.000453116
0.000451435
0.000450852
0.000450719
0.000450856
0.00045144
0.00045312
0.000457269
0.000465811
0.000479629
0.000495421
0.000509455
0.000518868
0.000521719
0.000515902
0.000497667
0.000459586
0.000386336
0.00025268
0.000224101
0.000252671
0.00027095
0.000280328
0.000284848
0.000286897
0.000287686
0.000287751
0.000287246
0.000286124
0.000284391
0.000282036
0.000279319
0.000276839
0.000275255
0.000274447
0.00027408
0.000273911
0.000273854
0.000273918
0.000274088
0.000274451
0.000275254
0.000276837
0.000279321
0.00028204
0.000284327
0.000285795
0.000286058
0.0002846
0.000280351
0.000271057
0.000252764
0.000224152
0.000323482
0.000423627
0.000486434
0.000520565
0.000538445
0.000547388
0.000551559
0.000553287
0.000553823
0.000553813
0.000553589
0.00055332
0.00055309
0.000552925
0.000552817
0.000552747
0.000552702
0.000552679
0.000552678
0.000552698
0.000552739
0.000552803
0.000552897
0.000553023
0.000553145
0.000553133
0.000552663
0.000551065
0.000547045
0.000538238
0.000520459
0.000486392
0.000423621
0.000323495
0.000423635
0.000816972
0.00100093
0.0011029
0.00115941
0.00118951
0.00120442
0.00121088
0.00121285
0.0012126
0.00121144
0.00121009
0.00120895
0.00120813
0.00120761
0.00120728
0.00120709
0.001207
0.00120701
0.00120709
0.00120728
0.00120758
0.00120803
0.00120866
0.0012093
0.00120941
0.00120772
0.00120186
0.00118766
0.00115822
0.00110222
0.00100058
0.000816825
0.000423632
0.000486475
0.00100101
0.00124424
0.00138353
0.00146339
0.00150729
0.00152949
0.00153895
0.00154124
0.00153982
0.00153688
0.00153379
0.00153126
0.00152953
0.00152846
0.00152782
0.00152745
0.00152728
0.00152728
0.00152745
0.00152782
0.00152841
0.00152934
0.00153072
0.00153234
0.0015333
0.00153156
0.0015234
0.00150283
0.00146048
0.00138184
0.0012434
0.00100068
0.000486454
0.000520644
0.00110307
0.00138362
0.00154809
0.00164447
0.00169822
0.00172515
0.0017355
0.00173601
0.00173126
0.0017245
0.00171798
0.0017129
0.00170958
0.00170762
0.00170645
0.00170577
0.00170544
0.00170544
0.00170577
0.00170644
0.00170754
0.00170931
0.00171211
0.00171589
0.00171946
0.00171993
0.00171223
0.00168868
0.00163817
0.00154439
0.00138173
0.00110229
0.000520561
0.000538561
0.00115965
0.00146362
0.00164465
0.00175195
0.00181161
0.00184001
0.00184798
0.0018431
0.00183117
0.00181703
0.00180436
0.00179501
0.00178924
0.00178603
0.00178408
0.00178289
0.00178231
0.00178231
0.00178289
0.00178407
0.00178593
0.00178891
0.00179403
0.00180178
0.00181081
0.00181735
0.00181454
0.00179279
0.00173948
0.00163724
0.00145975
0.001158
0.000538318
0.00054754
0.00118986
0.00150775
0.00169879
0.00181216
0.0018737
0.00189951
0.00190038
0.00188437
0.00185893
0.00183169
0.0018091
0.00179348
0.00178463
0.00178013
0.00177721
0.00177529
0.00177434
0.00177435
0.0017753
0.0017772
0.00178003
0.00178427
0.0017924
0.00180621
0.00182468
0.00184332
0.00185232
0.00183909
0.00178933
0.00168519
0.00150053
0.00118667
0.000546989
0.000551754
0.00120495
0.0015304
0.00172657
0.00184192
0.00190134
0.00191983
0.00190717
0.00187131
0.00182197
0.00177269
0.0017364
0.00171376
0.00170262
0.00169784
0.00169404
0.00169123
0.00168982
0.00168983
0.00169124
0.00169404
0.00169777
0.0017023
0.00171273
0.00173349
0.00176536
0.00180531
0.00183693
0.00184172
0.00180315
0.00170361
0.00151815
0.00119941
0.000550695
0.000553546
0.00121176
0.0015407
0.0017386
0.00185277
0.00190655
0.00191274
0.00187847
0.00180968
0.00171838
0.00163172
0.00158302
0.00155906
0.00155058
0.00154872
0.00154483
0.00154139
0.00153966
0.00153966
0.0015414
0.00154485
0.00154869
0.00155035
0.00155822
0.0015804
0.00162459
0.00170135
0.00177388
0.00181028
0.00179182
0.00170303
0.00152177
0.00120307
0.000551775
0.000554187
0.00121433
0.00154444
0.00174203
0.00185313
0.00189894
0.00188888
0.0018245
0.00170382
0.0015343
0.00137154
0.00133874
0.0013413
0.00134932
0.00135567
0.00135443
0.00135198
0.00135064
0.00135065
0.001352
0.00135446
0.00135569
0.00134923
0.0013408
0.00133683
0.00136534
0.00151755
0.00166717
0.00175442
0.00176517
0.00169185
0.00151795
0.00120209
0.000551589
0.00055434
0.001215
0.00154523
0.00174179
0.00184949
0.00188742
0.00186078
0.0017621
0.00156827
0.00123569
0.000762824
0.000978857
0.00109342
0.00114076
0.0011576
0.00116456
0.00116593
0.00116594
0.00116595
0.00116596
0.0011646
0.00115765
0.0011408
0.00109334
0.000978288
0.000759505
0.00122006
0.00153102
0.0016906
0.0017352
0.00167815
0.00151197
0.00119958
0.00055099
0.00055434
0.00121506
0.00154523
0.00174108
0.00184676
0.0018801
0.00184361
0.00172243
0.00146538
0.000812123
0.000596859
0.000888815
0.000969568
0.000996131
0.00100417
0.00100638
0.00100688
0.00100688
0.0010064
0.00100421
0.000996185
0.000969648
0.000888913
0.000596838
0.000801305
0.00142789
0.0016501
0.00171702
0.0016697
0.00150806
0.00119779
0.000550564
0.000554333
0.00121511
0.00154548
0.00174154
0.00184749
0.0018816
0.00184809
0.00173834
0.00152812
0.00117219
0.000696313
0.000837582
0.000938791
0.000981653
0.000999148
0.00100134
0.00100146
0.0010014
0.00100139
0.00100146
0.00100133
0.000999127
0.000981606
0.000938638
0.000836885
0.000692879
0.00115646
0.00149055
0.00166621
0.00172148
0.00167098
0.0015084
0.00119777
0.000550584
0.000554359
0.00121534
0.00154624
0.00174327
0.00185118
0.00188944
0.00186522
0.00177732
0.00162052
0.0013985
0.00116732
0.00105535
0.000995233
0.000973078
0.000966471
0.000965094
0.000964725
0.000964555
0.000964552
0.000964715
0.000965071
0.000966413
0.00097292
0.00099473
0.00105358
0.00116131
0.00138167
0.00158318
0.00170571
0.00173904
0.00167904
0.00151212
0.00119932
0.000550976
0.000554405
0.00121569
0.00154727
0.00174561
0.00185603
0.00189914
0.00188426
0.00181415
0.00168989
0.00151956
0.00133181
0.00117153
0.00104788
0.000988289
0.000966232
0.000959463
0.000957536
0.000957018
0.000957015
0.000957523
0.000959432
0.000966151
0.000988066
0.0010472
0.00116933
0.00132508
0.0015023
0.00165263
0.00174287
0.00175845
0.00168901
0.00151707
0.00120153
0.000551502
0.000554448
0.00121605
0.00154828
0.00174785
0.00186052
0.00190764
0.00189962
0.00184067
0.00173295
0.00158244
0.00140584
0.00123009
0.00108143
0.00100398
0.000973509
0.000963394
0.000960404
0.000959637
0.000959634
0.000960391
0.000963361
0.00097342
0.00100374
0.00108068
0.00122772
0.00139881
0.00156494
0.00169564
0.0017695
0.00177397
0.00169763
0.00152157
0.00120361
0.000551968
0.000554475
0.00121633
0.00154907
0.00174958
0.0018639
0.00191375
0.00190999
0.00185715
0.00175713
0.00161404
0.00144009
0.00125807
0.00109905
0.00101358
0.000978997
0.00096721
0.000963681
0.000962785
0.000962781
0.000963669
0.000967178
0.000978907
0.00101333
0.00109828
0.00125563
0.00143292
0.00159637
0.00171971
0.00178594
0.00178434
0.00170373
0.00152487
0.00120515
0.000552289
0.000554484
0.00121652
0.00154959
0.0017507
0.00186602
0.00191747
0.00191601
0.00186617
0.00176945
0.00162898
0.00145537
0.00127047
0.00110714
0.00101824
0.000981829
0.000969295
0.00096552
0.000964562
0.000964559
0.000965508
0.000969262
0.000981738
0.00101798
0.00110636
0.00126803
0.00144812
0.0016112
0.00173194
0.00179488
0.0017903
0.00170737
0.0015269
0.0012061
0.000552466
0.000554478
0.00121661
0.00154985
0.00175124
0.00186703
0.00191919
0.00191872
0.00187008
0.00177456
0.00163488
0.00146117
0.0012751
0.00111019
0.00102002
0.000982923
0.000970103
0.000966234
0.000965248
0.000965244
0.000966221
0.00097007
0.00098283
0.00101976
0.00110941
0.00127265
0.00145389
0.00161705
0.00173698
0.00179873
0.00179295
0.00170904
0.00152783
0.00120654
0.000552532
0.000554466
0.00121661
0.00154985
0.00175125
0.00186706
0.00191923
0.00191878
0.00187016
0.00177466
0.001635
0.0014613
0.00127523
0.00111031
0.0010201
0.000982962
0.000970123
0.000966244
0.000965252
0.000965247
0.00096623
0.000970089
0.00098287
0.00101983
0.00110953
0.00127277
0.00145401
0.00161717
0.00173708
0.00179881
0.00179301
0.00170907
0.00152786
0.00120654
0.000552517
0.000554451
0.00121652
0.00154961
0.00175074
0.0018661
0.00191758
0.00191618
0.0018664
0.00176975
0.00162934
0.00145577
0.00127087
0.00110753
0.00101849
0.00098197
0.000969376
0.000965575
0.000964602
0.000964598
0.000965563
0.000969345
0.000981882
0.00101824
0.00110676
0.00126844
0.00144853
0.00161157
0.00173224
0.00179511
0.00179045
0.00170748
0.00152696
0.00120611
0.000552426
0.00055443
0.00121633
0.0015491
0.00174964
0.001864
0.00191392
0.00191024
0.00185752
0.00175763
0.00161468
0.00144083
0.00125884
0.00109979
0.00101408
0.000979301
0.000967418
0.000963848
0.000962934
0.000962931
0.00096384
0.000967394
0.000979226
0.00101385
0.00109906
0.00125647
0.00143369
0.00159703
0.00172021
0.00178629
0.00178457
0.00170387
0.00152496
0.00120517
0.000552235
0.000554395
0.00121602
0.00154827
0.00174786
0.00186058
0.00190777
0.00189987
0.0018411
0.00173363
0.00158341
0.00140705
0.00123142
0.00108261
0.00100476
0.000973999
0.000963746
0.000960707
0.000959926
0.000959927
0.000960709
0.000963738
0.000973947
0.00100457
0.00108195
0.00122916
0.00140009
0.00156593
0.00169629
0.00176987
0.00177417
0.00169774
0.00152162
0.00120361
0.000551905
0.000554336
0.00121559
0.00154713
0.00174544
0.00185585
0.00189901
0.00188427
0.00181443
0.00169062
0.00152088
0.00133366
0.00117355
0.00104936
0.000989026
0.000966526
0.000959546
0.000957557
0.000957031
0.000957036
0.000957567
0.000959549
0.000966484
0.000988857
0.00104879
0.00117153
0.00132706
0.00150362
0.00165319
0.00174294
0.00175831
0.00168884
0.00151694
0.00120144
0.000551419
0.000554249
0.00121504
0.00154573
0.00174256
0.0018503
0.00188848
0.00186434
0.00177679
0.00162076
0.00140001
0.00116995
0.0010578
0.000995646
0.000971897
0.000964472
0.000962697
0.00096222
0.000962041
0.000962044
0.000962219
0.000962656
0.000964321
0.000971559
0.000995021
0.00105621
0.00116412
0.00138303
0.0015828
0.00170451
0.00173776
0.00167802
0.00151144
0.00119894
0.000550836
0.000554113
0.00121429
0.00154404
0.00173947
0.00184486
0.00187855
0.00184482
0.00173528
0.00152614
0.00117306
0.000698192
0.000836852
0.000931972
0.000971305
0.000986799
0.000988185
0.00098814
0.000988068
0.000988054
0.000988057
0.000987896
0.000986045
0.000969847
0.000930029
0.000835515
0.000694694
0.00115657
0.00148654
0.00166129
0.0017172
0.00166782
0.00150636
0.00119666
0.000550294
0.000553835
0.00121296
0.00154159
0.00173593
0.00184022
0.00187232
0.00183475
0.00171277
0.00145578
0.000805857
0.000577279
0.00085231
0.000923836
0.000944111
0.000950531
0.000952603
0.000953141
0.000953035
0.000952143
0.000949221
0.000940939
0.000917564
0.000842665
0.00056933
0.000790084
0.00141182
0.00163578
0.00170595
0.00166188
0.00150304
0.00119505
0.000549916
0.000553134
0.00121001
0.00153684
0.00173016
0.00183492
0.00187009
0.00184056
0.00173839
0.00154005
0.00120176
0.000727413
0.000898111
0.000987986
0.00101112
0.00101151
0.0010149
0.0010164
0.00101675
0.0010165
0.00101531
0.00101165
0.00100315
0.000993022
0.000956638
0.00086155
0.000702201
0.00116297
0.00148617
0.00165707
0.00171098
0.00166129
0.00150097
0.00119342
0.000549537
0.000551367
0.00120318
0.00152639
0.00171775
0.00182332
0.00186395
0.00184814
0.00177589
0.0016428
0.00145244
0.00125524
0.00117344
0.00112238
0.00107524
0.00104816
0.00103881
0.00103602
0.00103517
0.00103477
0.00103418
0.00103308
0.00103244
0.00103828
0.0010548
0.00109627
0.00118385
0.00138808
0.00157595
0.00168972
0.001719
0.00165917
0.0014959
0.00118919
0.000548408
0.000547237
0.00118835
0.0015043
0.00169112
0.00179593
0.00184127
0.00183834
0.00179155
0.00170269
0.00157803
0.00143864
0.00131655
0.00120324
0.00110324
0.00105211
0.00103266
0.0010263
0.00102441
0.00102389
0.00102392
0.00102496
0.00102993
0.00104789
0.00109779
0.00120343
0.00133829
0.00149442
0.00162606
0.00170319
0.00171273
0.00164452
0.00148027
0.00117749
0.000545034
0.000538362
0.00115855
0.00146109
0.00163892
0.00173961
0.00178673
0.00179294
0.00176442
0.00170399
0.0016148
0.00150405
0.00138241
0.00125612
0.00114248
0.00108282
0.00105898
0.00105078
0.00104825
0.00104765
0.00104803
0.00105023
0.00105795
0.00108145
0.00114194
0.00126022
0.001396
0.00152631
0.0016266
0.00168002
0.0016762
0.001604
0.00144347
0.00115079
0.000536882
0.000520544
0.00110237
0.00138205
0.00154441
0.00163627
0.00168122
0.00169231
0.0016762
0.0016356
0.00157177
0.00148698
0.00138655
0.00128013
0.00118693
0.00113401
0.00111077
0.00110208
0.00109921
0.00109854
0.00109914
0.0011019
0.00111047
0.00113377
0.00118753
0.00128308
0.00139292
0.00149381
0.00156779
0.00160307
0.00159094
0.00152014
0.00137021
0.00109733
0.000519673
0.000486454
0.00100065
0.00124347
0.00138159
0.00145878
0.00149721
0.00150924
0.00150117
0.00147545
0.00143257
0.00137326
0.00130093
0.00122404
0.00115751
0.00111725
0.00109815
0.00109045
0.00108774
0.00108711
0.00108775
0.00109046
0.00109818
0.00111741
0.00115814
0.00122566
0.00130344
0.00137399
0.00142415
0.00144515
0.00142952
0.00136652
0.00123644
0.000997803
0.000486041
0.000423663
0.000816845
0.00100072
0.00110223
0.00115749
0.00118484
0.00119432
0.00119104
0.00117685
0.00115194
0.00111641
0.00107224
0.00102506
0.000984219
0.000958557
0.000945781
0.000940394
0.000938429
0.000937967
0.000938473
0.000940481
0.00094592
0.000958799
0.000984708
0.00102595
0.00107327
0.0011158
0.00114524
0.0011558
0.00114186
0.00109461
0.000997401
0.000815595
0.00042355
0.000323522
0.000423661
0.000486508
0.000520631
0.000538348
0.000546797
0.000549845
0.000549364
0.000545988
0.000539682
0.000530319
0.000518304
0.0005052
0.000493769
0.000486629
0.000483104
0.000481621
0.000481074
0.000480942
0.000481086
0.000481643
0.000483133
0.000486672
0.000493855
0.000505369
0.00051851
0.000530138
0.000537916
0.000540193
0.000535098
0.000519236
0.000486009
0.000423537
0.000323564
0.000358142
0.000506649
0.00060031
0.000652625
0.00068109
0.000695927
0.000703127
0.000706204
0.000707159
0.000707091
0.000706602
0.000706023
0.000705527
0.000705173
0.000704946
0.000704804
0.000704718
0.000704677
0.000704676
0.000704715
0.000704796
0.000704927
0.000705124
0.000705394
0.000705666
0.000705687
0.000704864
0.000702048
0.000695156
0.0006806
0.000652351
0.000600177
0.000506602
0.000358154
0.000506652
0.00102649
0.00126751
0.00140469
0.00148299
0.00152593
0.00154779
0.00155748
0.00156044
0.00155994
0.00155795
0.00155563
0.00155364
0.00155219
0.00155125
0.00155067
0.00155032
0.00155016
0.00155016
0.00155032
0.00155065
0.00155119
0.001552
0.0015531
0.00155423
0.0015545
0.00155201
0.00154329
0.0015226
0.00148076
0.00140334
0.00126678
0.00102614
0.000506601
0.000600351
0.00126762
0.00157744
0.00175858
0.00186515
0.00192519
0.00195624
0.00196968
0.00197287
0.00197058
0.00196595
0.001961
0.0019569
0.00195402
0.00195221
0.00195112
0.00195048
0.00195018
0.00195018
0.00195047
0.00195108
0.0019521
0.00195367
0.00195595
0.00195859
0.00196023
0.00195788
0.00194642
0.00191785
0.00186021
0.00175558
0.00157582
0.00126688
0.000600223
0.000652716
0.00140491
0.00175872
0.00196956
0.0020959
0.00216787
0.00220459
0.00221886
0.00221939
0.00221233
0.00220222
0.00219229
0.0021844
0.00217911
0.00217592
0.00217401
0.00217288
0.00217236
0.00217236
0.00217287
0.00217396
0.00217576
0.00217862
0.00218306
0.00218893
0.00219441
0.00219538
0.00218495
0.00215311
0.00208588
0.00196341
0.00175536
0.00140336
0.000652413
0.000681233
0.00148333
0.00186549
0.00209618
0.00223564
0.00231463
0.00235279
0.00236356
0.00235664
0.0023397
0.00231925
0.00230045
0.00228622
0.00227722
0.00227209
0.00226897
0.00226708
0.00226619
0.00226619
0.00226707
0.00226891
0.00227189
0.00227662
0.00228458
0.00229633
0.00230972
0.00231924
0.00231571
0.00228679
0.00221671
0.00208449
0.001859
0.00148025
0.000680569
0.000696132
0.00152647
0.00192592
0.00216879
0.00231549
0.00239642
0.00243083
0.00243201
0.00241026
0.00237515
0.00233661
0.00230329
0.00227943
0.00226549
0.00225822
0.00225352
0.00225051
0.00224906
0.00224907
0.00225051
0.00225348
0.00225802
0.00226486
0.00227763
0.0022987
0.00232587
0.00235207
0.00236441
0.00234697
0.00228203
0.0021481
0.00191432
0.00152084
0.000694817
0.000703424
0.00154869
0.00195773
0.00220687
0.00235576
0.0024336
0.00245826
0.00244178
0.00239424
0.0023278
0.0022591
0.00220451
0.00216828
0.00214959
0.0021413
0.00213484
0.0021303
0.00212812
0.00212812
0.00213031
0.00213481
0.00214114
0.002149
0.00216653