/*--------------------------------*- C++ -*----------------------------------*\
| =========                 |                                                 |
| \\      /  F ield         | OpenFOAM: The Open Source CFD Toolbox           |
|  \\    /   O peration     | Version:  2112                                  |
|   \\  /    A nd           | Website:  www.openfoam.com                      |
|    \\/     M anipulation  |                                                 |
\*---------------------------------------------------------------------------*/
FoamFile
{
    version     2.0;
    format      ascii;
    arch        "LSB;label=32;scalar=64";
    class       volScalarField;
    location    "4.2";
    object      nut;
}
// * * * * * * * * * * * * * * * * * * * * * * * * * * * * * * * * * * * * * //

dimensions      [0 2 -1 0 0 0 0];

internalField   nonuniform List<scalar> 
64906
(
3.76836e-05
4.00581e-05
4.15135e-05
4.22462e-05
4.25982e-05
4.27605e-05
4.28311e-05
4.28589e-05
4.28675e-05
4.28677e-05
4.28645e-05
4.28604e-05
4.28573e-05
4.28551e-05
4.28534e-05
4.28521e-05
4.2851e-05
4.28501e-05
4.28499e-05
4.28503e-05
4.28513e-05
4.28525e-05
4.2854e-05
4.28557e-05
4.28575e-05
4.28578e-05
4.28508e-05
4.28253e-05
4.2757e-05
4.25964e-05
4.22456e-05
4.15138e-05
4.00591e-05
3.76846e-05
4.00601e-05
4.96187e-05
5.41964e-05
5.65047e-05
5.77036e-05
5.83128e-05
5.86041e-05
5.8728e-05
5.87675e-05
5.87671e-05
5.8751e-05
5.87318e-05
5.87159e-05
5.87051e-05
5.86987e-05
5.8695e-05
5.86929e-05
5.86919e-05
5.86919e-05
5.86929e-05
5.86949e-05
5.86983e-05
5.87036e-05
5.87114e-05
5.8719e-05
5.87167e-05
5.86817e-05
5.85674e-05
5.82878e-05
5.76892e-05
5.64985e-05
5.41954e-05
4.96202e-05
4.00629e-05
4.15182e-05
5.4199e-05
6.01537e-05
6.32281e-05
6.48813e-05
6.5753e-05
6.61818e-05
6.63625e-05
6.64092e-05
6.6389e-05
6.63424e-05
6.62937e-05
6.62553e-05
6.62305e-05
6.62165e-05
6.62088e-05
6.62044e-05
6.62025e-05
6.62026e-05
6.62047e-05
6.6209e-05
6.62162e-05
6.62282e-05
6.62472e-05
6.62704e-05
6.62818e-05
6.62441e-05
6.60857e-05
6.56849e-05
6.48395e-05
6.32068e-05
6.0146e-05
5.41994e-05
4.15227e-05
4.22528e-05
5.651e-05
6.32306e-05
6.6771e-05
6.87176e-05
6.97617e-05
7.02727e-05
7.04684e-05
7.0483e-05
7.04034e-05
7.02895e-05
7.01816e-05
7.00998e-05
7.00489e-05
7.0021e-05
7.00051e-05
6.99959e-05
6.99916e-05
6.99917e-05
6.99962e-05
7.00054e-05
7.00204e-05
7.00454e-05
7.00879e-05
7.0148e-05
7.02049e-05
7.02069e-05
7.0058e-05
6.96065e-05
6.86187e-05
6.67166e-05
6.32063e-05
5.65045e-05
4.22581e-05
4.2606e-05
5.77108e-05
6.48865e-05
6.87212e-05
7.08548e-05
7.19981e-05
7.25313e-05
7.26821e-05
7.25981e-05
7.23877e-05
7.214e-05
7.19228e-05
7.1766e-05
7.16739e-05
7.1626e-05
7.15975e-05
7.15796e-05
7.15711e-05
7.15712e-05
7.158e-05
7.15978e-05
7.16253e-05
7.16695e-05
7.17511e-05
7.18812e-05
7.20361e-05
7.215e-05
7.20933e-05
7.16796e-05
7.06487e-05
6.86034e-05
6.48293e-05
5.76918e-05
4.26106e-05
4.27688e-05
5.83218e-05
6.57621e-05
6.97718e-05
7.20072e-05
7.31786e-05
7.36614e-05
7.36797e-05
7.3388e-05
7.29235e-05
7.24292e-05
7.20306e-05
7.17609e-05
7.16166e-05
7.15492e-05
7.1504e-05
7.14729e-05
7.14575e-05
7.14577e-05
7.14734e-05
7.15045e-05
7.15486e-05
7.16121e-05
7.17447e-05
7.19844e-05
7.23124e-05
7.2656e-05
7.28245e-05
7.25747e-05
7.16163e-05
6.9545e-05
6.56472e-05
5.82777e-05
4.27706e-05
4.28396e-05
5.86157e-05
6.61981e-05
7.02965e-05
7.2563e-05
7.3692e-05
7.40369e-05
7.37989e-05
7.31241e-05
7.21888e-05
7.12561e-05
7.06045e-05
7.02078e-05
7.00291e-05
6.99647e-05
6.99028e-05
6.98538e-05
6.98293e-05
6.98296e-05
6.98545e-05
6.99037e-05
6.99647e-05
7.00253e-05
7.01926e-05
7.0558e-05
7.11338e-05
7.1903e-05
7.252e-05
7.26218e-05
7.18802e-05
6.99007e-05
6.59936e-05
5.85312e-05
4.28354e-05
4.2868e-05
5.87443e-05
6.63923e-05
7.05196e-05
7.27619e-05
7.37844e-05
7.38954e-05
7.3236e-05
7.18935e-05
7.00689e-05
6.83138e-05
6.74713e-05
6.70817e-05
6.69794e-05
6.699e-05
6.69233e-05
6.68588e-05
6.68271e-05
6.68274e-05
6.68596e-05
6.69245e-05
6.69909e-05
6.69774e-05
6.70698e-05
6.74299e-05
6.81946e-05
6.97754e-05
7.12619e-05
7.20075e-05
7.1662e-05
6.98907e-05
6.60661e-05
5.8604e-05
4.28542e-05
4.28777e-05
5.87924e-05
6.64623e-05
7.05831e-05
7.27676e-05
7.36398e-05
7.34351e-05
7.21624e-05
6.96913e-05
6.60089e-05
6.22922e-05
6.21231e-05
6.24401e-05
6.27444e-05
6.29634e-05
6.29371e-05
6.28861e-05
6.28612e-05
6.28615e-05
6.28871e-05
6.29387e-05
6.29652e-05
6.27449e-05
6.24343e-05
6.20944e-05
6.21901e-05
6.57192e-05
6.90399e-05
7.08941e-05
7.11463e-05
6.96788e-05
6.59959e-05
5.85882e-05
4.28518e-05
4.28797e-05
5.88058e-05
6.64783e-05
7.05804e-05
7.27024e-05
7.34249e-05
7.28896e-05
7.08797e-05
6.6653e-05
5.861e-05
4.82032e-05
5.34578e-05
5.67538e-05
5.80606e-05
5.85853e-05
5.86889e-05
5.87038e-05
5.87044e-05
5.87047e-05
5.87049e-05
5.86906e-05
5.85879e-05
5.80636e-05
5.6756e-05
5.34542e-05
4.81554e-05
5.83465e-05
6.59863e-05
6.95783e-05
7.05601e-05
6.94195e-05
6.58856e-05
5.85443e-05
4.28421e-05
4.28791e-05
5.88084e-05
6.64809e-05
7.05716e-05
7.26582e-05
7.32952e-05
7.25611e-05
7.00328e-05
6.40995e-05
4.91178e-05
4.50255e-05
5.21483e-05
5.43697e-05
5.50399e-05
5.52736e-05
5.53453e-05
5.53631e-05
5.53634e-05
5.53461e-05
5.52749e-05
5.50421e-05
5.43732e-05
5.21535e-05
4.50288e-05
4.8957e-05
6.34328e-05
6.87131e-05
7.02099e-05
6.9267e-05
6.58185e-05
5.85157e-05
4.28344e-05
4.28778e-05
5.88111e-05
6.64889e-05
7.05861e-05
7.26826e-05
7.33442e-05
7.26935e-05
7.04869e-05
6.59516e-05
5.74479e-05
4.70504e-05
5.03388e-05
5.31617e-05
5.424e-05
5.45145e-05
5.47563e-05
5.48358e-05
5.48514e-05
5.48514e-05
5.48358e-05
5.47562e-05
5.45142e-05
5.42395e-05
5.31599e-05
5.03266e-05
4.69943e-05
5.71756e-05
6.52747e-05
6.91712e-05
7.0344e-05
6.93136e-05
6.5837e-05
5.85222e-05
4.28325e-05
4.2877e-05
5.88167e-05
6.6506e-05
7.0624e-05
7.27615e-05
7.35113e-05
7.30648e-05
7.1369e-05
6.82079e-05
6.34565e-05
5.83195e-05
5.62666e-05
5.51928e-05
5.47958e-05
5.46414e-05
5.46603e-05
5.46723e-05
5.46723e-05
5.46721e-05
5.46717e-05
5.46592e-05
5.46391e-05
5.47913e-05
5.51818e-05
5.62328e-05
5.82111e-05
6.31578e-05
6.75387e-05
7.00693e-05
7.07297e-05
6.94903e-05
6.59201e-05
5.85573e-05
4.28382e-05
4.28764e-05
5.88237e-05
6.65274e-05
7.06717e-05
7.28596e-05
7.37081e-05
7.34572e-05
7.21537e-05
6.97656e-05
6.63729e-05
6.25158e-05
5.92123e-05
5.66544e-05
5.54145e-05
5.49371e-05
5.47898e-05
5.47438e-05
5.47287e-05
5.47283e-05
5.47427e-05
5.47878e-05
5.49336e-05
5.5408e-05
5.66396e-05
5.91716e-05
6.23949e-05
6.6068e-05
6.91026e-05
7.08664e-05
7.11353e-05
6.96975e-05
6.60237e-05
5.86026e-05
4.28452e-05
4.28758e-05
5.88303e-05
6.65475e-05
7.07158e-05
7.29475e-05
7.3875e-05
7.37632e-05
7.26951e-05
7.06767e-05
6.7765e-05
6.42275e-05
6.05799e-05
5.74709e-05
5.58352e-05
5.51701e-05
5.4936e-05
5.48574e-05
5.48323e-05
5.48317e-05
5.48558e-05
5.49334e-05
5.5166e-05
5.58277e-05
5.74548e-05
6.05369e-05
6.41025e-05
6.74579e-05
7.00163e-05
7.14142e-05
7.1449e-05
6.98711e-05
6.61148e-05
5.86433e-05
4.28504e-05
4.28749e-05
5.8835e-05
6.65629e-05
7.07493e-05
7.30124e-05
7.39926e-05
7.39651e-05
7.30221e-05
7.11694e-05
6.84306e-05
6.49741e-05
6.1199e-05
5.78724e-05
5.60629e-05
5.53059e-05
5.50306e-05
5.49355e-05
5.49038e-05
5.4903e-05
5.49335e-05
5.50276e-05
5.53014e-05
5.60551e-05
5.78557e-05
6.11546e-05
6.48471e-05
6.81216e-05
7.0509e-05
7.17432e-05
7.16538e-05
6.99912e-05
6.61799e-05
5.86722e-05
4.28531e-05
4.28737e-05
5.88377e-05
6.65728e-05
7.07706e-05
7.30527e-05
7.40632e-05
7.40804e-05
7.31976e-05
7.14145e-05
6.8736e-05
6.52963e-05
6.14674e-05
5.80502e-05
5.61677e-05
5.53703e-05
5.50765e-05
5.49731e-05
5.49367e-05
5.49356e-05
5.49707e-05
5.50732e-05
5.53655e-05
5.61597e-05
5.80332e-05
6.14205e-05
6.51682e-05
6.84256e-05
7.07531e-05
7.19185e-05
7.17695e-05
7.0062e-05
6.62192e-05
5.86892e-05
4.28534e-05
4.28724e-05
5.88387e-05
6.65777e-05
7.0781e-05
7.30719e-05
7.4096e-05
7.41322e-05
7.32732e-05
7.15152e-05
6.88553e-05
6.54173e-05
6.15678e-05
5.81165e-05
5.62072e-05
5.53943e-05
5.50931e-05
5.49857e-05
5.49459e-05
5.49445e-05
5.49829e-05
5.50896e-05
5.53894e-05
5.6199e-05
5.80993e-05
6.15197e-05
6.52886e-05
6.85443e-05
7.08531e-05
7.19937e-05
7.18211e-05
7.00943e-05
6.62374e-05
5.86966e-05
4.28523e-05
4.28713e-05
5.88383e-05
6.65781e-05
7.07817e-05
7.3073e-05
7.40975e-05
7.41342e-05
7.32758e-05
7.15185e-05
6.88594e-05
6.5422e-05
6.15727e-05
5.81204e-05
5.62096e-05
5.53953e-05
5.50929e-05
5.49842e-05
5.49424e-05
5.49406e-05
5.49811e-05
5.50891e-05
5.53902e-05
5.62013e-05
5.81032e-05
6.15246e-05
6.52935e-05
6.85486e-05
7.08567e-05
7.19965e-05
7.18232e-05
7.00959e-05
6.62384e-05
5.86964e-05
4.28505e-05
4.2871e-05
5.88368e-05
6.65739e-05
7.07727e-05
7.30558e-05
7.40676e-05
7.40863e-05
7.32054e-05
7.14247e-05
6.87486e-05
6.5311e-05
6.14827e-05
5.80623e-05
5.61753e-05
5.53735e-05
5.50763e-05
5.4969e-05
5.49274e-05
5.49255e-05
5.49657e-05
5.50723e-05
5.53684e-05
5.61671e-05
5.80454e-05
6.14355e-05
6.51836e-05
6.8439e-05
7.07639e-05
7.19269e-05
7.17758e-05
7.00665e-05
6.6222e-05
5.8689e-05
4.28491e-05
4.28716e-05
5.8834e-05
6.65646e-05
7.07525e-05
7.30171e-05
7.39994e-05
7.39745e-05
7.30351e-05
7.11868e-05
6.84529e-05
6.50009e-05
6.12255e-05
5.78944e-05
5.60768e-05
5.53125e-05
5.50312e-05
5.493e-05
5.48916e-05
5.48899e-05
5.49267e-05
5.50272e-05
5.53075e-05
5.60691e-05
5.78784e-05
6.1181e-05
6.48757e-05
6.81454e-05
7.05275e-05
7.1757e-05
7.16639e-05
6.99984e-05
6.61844e-05
5.86724e-05
4.28478e-05
4.28723e-05
5.88293e-05
6.65493e-05
7.07193e-05
7.29529e-05
7.3883e-05
7.3775e-05
7.27124e-05
7.07016e-05
6.77993e-05
6.42712e-05
6.06211e-05
5.75054e-05
5.58562e-05
5.51799e-05
5.4937e-05
5.48507e-05
5.48191e-05
5.48177e-05
5.48477e-05
5.49332e-05
5.51752e-05
5.58491e-05
5.7491e-05
6.05807e-05
6.41498e-05
6.74947e-05
7.00427e-05
7.14323e-05
7.14614e-05
6.98797e-05
6.61202e-05
5.8644e-05
4.28448e-05
4.28728e-05
5.88222e-05
6.65279e-05
7.06732e-05
7.28626e-05
7.37137e-05
7.34677e-05
7.21723e-05
6.97971e-05
6.64227e-05
6.2584e-05
5.92768e-05
5.66997e-05
5.54358e-05
5.49415e-05
5.47818e-05
5.47271e-05
5.47066e-05
5.47056e-05
5.47244e-05
5.47782e-05
5.49369e-05
5.54293e-05
5.66876e-05
5.92421e-05
6.24699e-05
6.61222e-05
6.91348e-05
7.08842e-05
7.11453e-05
6.9704e-05
6.60279e-05
5.8603e-05
4.28392e-05
4.2873e-05
5.88125e-05
6.65012e-05
7.06177e-05
7.27544e-05
7.35054e-05
7.30634e-05
7.1378e-05
6.82381e-05
6.35222e-05
5.84247e-05
5.63603e-05
5.52198e-05
5.47764e-05
5.45954e-05
5.45961e-05
5.45984e-05
5.45939e-05
5.4593e-05
5.45958e-05
5.45915e-05
5.45882e-05
5.47664e-05
5.52075e-05
5.63366e-05
5.83282e-05
6.32289e-05
6.75637e-05
7.00707e-05
7.0724e-05
6.94851e-05
6.59169e-05
5.85543e-05
4.28315e-05
4.28724e-05
5.8799e-05
6.64692e-05
7.05582e-05
7.26479e-05
7.33055e-05
7.26552e-05
7.04585e-05
6.59542e-05
5.75247e-05
4.71218e-05
5.03568e-05
5.30192e-05
5.40137e-05
5.4237e-05
5.44522e-05
5.45216e-05
5.4533e-05
5.45317e-05
5.4517e-05
5.44419e-05
5.42158e-05
5.39793e-05
5.29791e-05
5.03389e-05
4.7066e-05
5.72534e-05
6.52495e-05
6.91151e-05
7.02912e-05
6.92748e-05
6.58129e-05
5.85087e-05
4.28243e-05
4.28698e-05
5.87751e-05
6.64238e-05
7.04917e-05
7.2558e-05
7.31774e-05
7.24278e-05
6.98878e-05
6.39613e-05
4.90441e-05
4.46132e-05
5.1366e-05
5.33953e-05
5.3931e-05
5.41194e-05
5.41788e-05
5.41921e-05
5.41888e-05
5.41659e-05
5.40867e-05
5.38578e-05
5.3257e-05
5.11575e-05
4.44388e-05
4.87971e-05
6.31819e-05
6.84874e-05
7.00394e-05
6.91492e-05
6.57445e-05
5.84759e-05
4.28213e-05
4.286e-05
5.87214e-05
6.63367e-05
7.03871e-05
7.24637e-05
7.31441e-05
7.25641e-05
7.04981e-05
6.61989e-05
5.80776e-05
4.76743e-05
5.18713e-05
5.46026e-05
5.53776e-05
5.55263e-05
5.5544e-05
5.55492e-05
5.55491e-05
5.55429e-05
5.55231e-05
5.54704e-05
5.53438e-05
5.49897e-05
5.39372e-05
5.11181e-05
4.72205e-05
5.73882e-05
6.52265e-05
6.90196e-05
7.01633e-05
6.91457e-05
6.57078e-05
5.84462e-05
4.28164e-05
4.28326e-05
5.85935e-05
6.61416e-05
7.01594e-05
7.22554e-05
7.30448e-05
7.27451e-05
7.13341e-05
6.86319e-05
6.45455e-05
6.01499e-05
5.88887e-05
5.80349e-05
5.71221e-05
5.66003e-05
5.63854e-05
5.63135e-05
5.6291e-05
5.62817e-05
5.62725e-05
5.62606e-05
5.62633e-05
5.63369e-05
5.65904e-05
5.72638e-05
5.87289e-05
6.33167e-05
6.74029e-05
6.97649e-05
7.03535e-05
6.91193e-05
6.5616e-05
5.83673e-05
4.27993e-05
4.27631e-05
5.83053e-05
6.57173e-05
6.96576e-05
7.17469e-05
7.26318e-05
7.25894e-05
7.17069e-05
6.9987e-05
6.75062e-05
6.46779e-05
6.22774e-05
5.99471e-05
5.78561e-05
5.67951e-05
5.63832e-05
5.62458e-05
5.62043e-05
5.61931e-05
5.61942e-05
5.62184e-05
5.63247e-05
5.66895e-05
5.77077e-05
5.98875e-05
6.26394e-05
6.58848e-05
6.8564e-05
7.00928e-05
7.02589e-05
6.88467e-05
6.5314e-05
5.81373e-05
4.27413e-05
4.26023e-05
5.77022e-05
6.48592e-05
6.86431e-05
7.06671e-05
7.15936e-05
7.17308e-05
7.12099e-05
7.00731e-05
6.83576e-05
6.61815e-05
6.37454e-05
6.11171e-05
5.87231e-05
5.74839e-05
5.69891e-05
5.68188e-05
5.67668e-05
5.67544e-05
5.67618e-05
5.68062e-05
5.69646e-05
5.74479e-05
5.86963e-05
6.11695e-05
6.39899e-05
6.66378e-05
6.86293e-05
6.96613e-05
6.95525e-05
6.80499e-05
6.45744e-05
5.75901e-05
4.25906e-05
4.2251e-05
5.65093e-05
6.32209e-05
6.67303e-05
6.86049e-05
6.9501e-05
6.97353e-05
6.94529e-05
6.87026e-05
6.7493e-05
6.58466e-05
6.38441e-05
6.16534e-05
5.96827e-05
5.85742e-05
5.80963e-05
5.79193e-05
5.78619e-05
5.78488e-05
5.78599e-05
5.79146e-05
5.80881e-05
5.8565e-05
5.96815e-05
6.16957e-05
6.39569e-05
6.59842e-05
6.74359e-05
6.81033e-05
6.78231e-05
6.63309e-05
6.30402e-05
5.64448e-05
4.22471e-05
4.15182e-05
5.42047e-05
6.0158e-05
6.3218e-05
6.48317e-05
6.56158e-05
6.58722e-05
6.57433e-05
6.52759e-05
6.4471e-05
6.33272e-05
6.18939e-05
6.03296e-05
5.89474e-05
5.81161e-05
5.77271e-05
5.75757e-05
5.75254e-05
5.7514e-05
5.75245e-05
5.75738e-05
5.77239e-05
5.81132e-05
5.89513e-05
6.03517e-05
6.19355e-05
6.33419e-05
6.43175e-05
6.47012e-05
6.43428e-05
6.29837e-05
6.00623e-05
5.41769e-05
4.15202e-05
4.00625e-05
4.96272e-05
5.42092e-05
5.65162e-05
5.77011e-05
5.82713e-05
5.8477e-05
5.84367e-05
5.81919e-05
5.77398e-05
5.70701e-05
5.62105e-05
5.52682e-05
5.44363e-05
5.39143e-05
5.36571e-05
5.35519e-05
5.35151e-05
5.35066e-05
5.35153e-05
5.35522e-05
5.36574e-05
5.39152e-05
5.44405e-05
5.5279e-05
5.62249e-05
5.70567e-05
5.76122e-05
5.77852e-05
5.74588e-05
5.64131e-05
5.4176e-05
4.96232e-05
4.00672e-05
3.76867e-05
4.00668e-05
4.15292e-05
4.22679e-05
4.26241e-05
4.27866e-05
4.28492e-05
4.28534e-05
4.28111e-05
4.27189e-05
4.25777e-05
4.23872e-05
4.21682e-05
4.19683e-05
4.184e-05
4.17742e-05
4.17442e-05
4.17304e-05
4.17257e-05
4.1731e-05
4.17448e-05
4.17746e-05
4.184e-05
4.19682e-05
4.21685e-05
4.23875e-05
4.25723e-05
4.26916e-05
4.27146e-05
4.2601e-05
4.2268e-05
4.15371e-05
4.00743e-05
3.76911e-05
5.85754e-05
6.71454e-05
7.20307e-05
7.45747e-05
7.58891e-05
7.65472e-05
7.68567e-05
7.69863e-05
7.70268e-05
7.70258e-05
7.70082e-05
7.69871e-05
7.69689e-05
7.69558e-05
7.69473e-05
7.69417e-05
7.69382e-05
7.69365e-05
7.69363e-05
7.69379e-05
7.69411e-05
7.69462e-05
7.69536e-05
7.69635e-05
7.69731e-05
7.69723e-05
7.69369e-05
7.68172e-05
7.65194e-05
7.58719e-05
7.45656e-05
7.20268e-05
6.71445e-05
5.85765e-05
6.7146e-05
0.00019859
0.000247618
0.000271777
0.000284847
0.000291921
0.00029553
0.000297132
0.000297614
0.000297514
0.000297162
0.000296755
0.000296405
0.000296152
0.000295987
0.000295884
0.000295824
0.000295795
0.000295795
0.000295824
0.000295883
0.000295979
0.000296123
0.000296319
0.000296524
0.000296589
0.00029619
0.000294755
0.000291346
0.000284457
0.000271529
0.000247464
0.000198493
6.71454e-05
7.20339e-05
0.000247646
0.000316938
0.00035197
0.000371346
0.000382058
0.000387596
0.00039
0.000390559
0.00039012
0.000389248
0.000388317
0.000387545
0.000387006
0.000386669
0.000386465
0.000386345
0.00038629
0.00038629
0.000386345
0.00038646
0.000386651
0.000386946
0.000387375
0.00038788
0.000388205
0.000387808
0.000385773
0.000380692
0.000370415
0.000351387
0.000316597
0.000247464
7.20315e-05
7.45807e-05
0.000271825
0.000351997
0.000393337
0.000416553
0.000429485
0.000436062
0.000438612
0.00043867
0.000437328
0.000435407
0.000433511
0.000432
0.000430991
0.000430386
0.000430017
0.0004298
0.000429698
0.000429698
0.000429799
0.000430011
0.000430358
0.000430903
0.000431756
0.000432892
0.000433965
0.000434209
0.000432384
0.000426713
0.000414652
0.000392145
0.000351315
0.00027149
7.45728e-05
7.58977e-05
0.000284914
0.000371407
0.000416602
0.000442166
0.000456292
0.00046307
0.000464945
0.000463608
0.000460403
0.00045651
0.000452905
0.000450155
0.000448422
0.000447444
0.000446829
0.000446451
0.000446272
0.000446273
0.000446451
0.000446822
0.000447411
0.000448316
0.000449856
0.000452148
0.000454754
0.000456647
0.000456155
0.000451091
0.000438598
0.00041436
0.000370131
0.000284309
7.5877e-05
7.65586e-05
0.000292017
0.000382188
0.00042965
0.000456452
0.000470846
0.000476886
0.000476977
0.000472872
0.00046622
0.000458837
0.000452446
0.0004478
0.000445116
0.000443747
0.000442788
0.000442157
0.000441857
0.000441858
0.000442158
0.000442782
0.000443715
0.000445004
0.000447477
0.000451611
0.000456872
0.000462002
0.000464546
0.000461669
0.0004502
0.000425731
0.000379957
0.000290971
7.65135e-05
7.68716e-05
0.000295683
0.000387863
0.000436482
0.000463628
0.000477411
0.000481641
0.00047845
0.000469442
0.000456632
0.000443208
0.000432936
0.000425904
0.000422357
0.000420906
0.000419478
0.000418467
0.000417998
0.000417999
0.000418469
0.000419476
0.00042088
0.000422256
0.000425595
0.000432098
0.000441159
0.000452127
0.000460495
0.000462078
0.000453368
0.00043011
0.000384243
0.000293984
7.67872e-05
7.70064e-05
0.000297392
0.000390529
0.00043953
0.000466331
0.00047872
0.000479996
0.00047155
0.000454175
0.000429878
0.000405125
0.000392202
0.000384001
0.00038079
0.000380327
0.000378264
0.000376767
0.000376128
0.000376129
0.000376771
0.000378265
0.000380312
0.000380715
0.00038375
0.000391457
0.00040316
0.000425276
0.000444809
0.000454397
0.00045058
0.000429926
0.000385109
0.000294843
7.68678e-05
7.70553e-05
0.000298055
0.000391531
0.000440445
0.000466476
0.000476941
0.000474267
0.000458185
0.000426476
0.000377421
0.000322405
0.000324209
0.000323608
0.000324519
0.000327092
0.000324313
0.000322533
0.000321887
0.000321888
0.000322536
0.000324316
0.000327089
0.000324479
0.000323452
0.000323686
0.000320863
0.000373014
0.000416866
0.000440439
0.000444012
0.000427126
0.000384104
0.000294561
7.68541e-05
7.70674e-05
0.00029823
0.000391754
0.000440404
0.000465591
0.000474111
0.000467214
0.000441561
0.000385953
0.000272666
9.04832e-05
0.000212968
0.000252498
0.000264321
0.000271266
0.000268461
0.00026716
0.000266809
0.00026681
0.000267163
0.000268466
0.000271272
0.000264315
0.00025246
0.0002129
9.02649e-05
0.00026915
0.000376331
0.000423384
0.000436362
0.000423625
0.000382526
0.00029389
7.68093e-05
7.70677e-05
0.000298239
0.000391752
0.000440212
0.000464865
0.000472177
0.000462517
0.000429258
0.000344382
9.34342e-05
7.97443e-05
0.000198175
0.000221259
0.000225786
0.000228499
0.000229427
0.000229642
0.000229643
0.000229431
0.000228506
0.000225795
0.000221269
0.000198183
7.97417e-05
9.27551e-05
0.000335178
0.000410885
0.000431353
0.000421344
0.000381446
0.000293387
7.67771e-05
7.70672e-05
0.000298244
0.000391809
0.000440293
0.000464952
0.000472382
0.000463583
0.000434972
0.000375329
0.000258069
8.62726e-05
0.000175672
0.000199713
0.000203655
0.000197918
0.000206595
0.000209598
0.000210183
0.000210183
0.000209601
0.0002066
0.000197915
0.000203647
0.000199686
0.000175579
8.60372e-05
0.00025452
0.000365576
0.000416594
0.000432431
0.000421509
0.000381439
0.000293327
7.67779e-05
7.70694e-05
0.000298297
0.000391996
0.00044069
0.000465746
0.000474055
0.000467478
0.00044505
0.000403814
0.000341607
0.000271198
0.000247485
0.000225532
0.000216843
0.000212063
0.000214055
0.000215062
0.000215293
0.000215293
0.000215061
0.000214051
0.000212047
0.000216805
0.000225413
0.000247061
0.000269736
0.00033716
0.000393977
0.000426835
0.00043651
0.000423314
0.00038229
0.000293674
7.68065e-05
7.70731e-05
0.000298387
0.000392263
0.000441251
0.000466838
0.000476163
0.000471634
0.000453494
0.000421219
0.000375776
0.000323946
0.000279249
0.000241087
0.000225278
0.000219539
0.000218419
0.000218256
0.000218229
0.000218229
0.000218255
0.000218415
0.000219524
0.000225232
0.00024093
0.000278689
0.000322161
0.000371128
0.000411417
0.000435442
0.000440857
0.000425584
0.000383476
0.000294204
7.68455e-05
7.70767e-05
0.000298484
0.000392532
0.000441806
0.000467879
0.000478038
0.000474945
0.000459247
0.000430898
0.00039072
0.000342465
0.000292922
0.000248765
0.000229439
0.000222435
0.000220302
0.000219734
0.000219607
0.000219608
0.000219734
0.0002203
0.000222423
0.000229392
0.000248597
0.000292324
0.000340592
0.000386018
0.000421129
0.000441297
0.000444298
0.000427577
0.000384586
0.000294721
7.68805e-05
7.7079e-05
0.000298564
0.000392751
0.000442249
0.000468684
0.000479419
0.000477203
0.000462774
0.000436088
0.000397625
0.000350064
0.000298946
0.000252445
0.000231517
0.000223764
0.000221258
0.000220553
0.000220394
0.000220395
0.000220555
0.000221258
0.000223753
0.00023147
0.000252274
0.000298337
0.00034816
0.0003929
0.00042633
0.00044487
0.00044662
0.000429019
0.000385421
0.000295118
7.6905e-05
7.70799e-05
0.000298617
0.000392897
0.000442541
0.000469206
0.000480281
0.000478542
0.000464724
0.000438719
0.000400811
0.00035332
0.00030154
0.000254106
0.000232487
0.000224382
0.000221725
0.00022097
0.0002208
0.000220802
0.000220972
0.000221725
0.000224371
0.000232441
0.000253936
0.000300946
0.000351402
0.00039607
0.000428957
0.000446833
0.000447982
0.000429903
0.000385946
0.000295368
7.69187e-05
7.70796e-05
0.000298644
0.00039297
0.000442685
0.000469458
0.00048069
0.000479156
0.000465582
0.000439819
0.000402072
0.000354551
0.000302506
0.000254739
0.00023286
0.000224618
0.000221904
0.000221132
0.000220959
0.000220961
0.000221134
0.000221904
0.000224607
0.000232813
0.000254568
0.000301912
0.000352625
0.000397322
0.000430052
0.000447692
0.000448601
0.000430315
0.000386193
0.000295487
7.6924e-05
7.70787e-05
0.000298644
0.000392972
0.000442689
0.000469464
0.000480697
0.000479166
0.000465596
0.000439836
0.000402092
0.000354571
0.000302527
0.000254764
0.000232876
0.000224626
0.000221909
0.000221136
0.000220964
0.000220966
0.000221138
0.000221909
0.000224615
0.000232829
0.000254594
0.000301931
0.000352645
0.000397341
0.000430069
0.000447705
0.000448611
0.000430322
0.000386198
0.000295488
7.69228e-05
7.70774e-05
0.000298618
0.000392902
0.000442551
0.00046922
0.000480302
0.00047857
0.000464762
0.000438768
0.00040087
0.000353384
0.000301605
0.000254189
0.000232541
0.000224413
0.000221746
0.000220989
0.000220822
0.000220824
0.000220993
0.000221747
0.000224403
0.000232496
0.000254022
0.000301015
0.000351466
0.000396129
0.000429007
0.000446871
0.00044801
0.000429923
0.000385958
0.000295372
7.69158e-05
7.70757e-05
0.000298562
0.000392755
0.000442257
0.000468699
0.000479442
0.000477239
0.000462828
0.000436166
0.000397727
0.000350183
0.000299085
0.000252605
0.000231627
0.000223838
0.000221316
0.000220609
0.000220453
0.000220455
0.000220614
0.00022132
0.000223832
0.000231587
0.000252446
0.000298501
0.000348283
0.000393002
0.000426406
0.000444922
0.000446654
0.000429041
0.000385434
0.00029512
7.6901e-05
7.70727e-05
0.000298474
0.000392523
0.000441796
0.00046787
0.000478037
0.000474961
0.000459294
0.000430992
0.000390872
0.00034267
0.000293196
0.000249036
0.00022963
0.000222578
0.000220421
0.000219849
0.000219727
0.00021973
0.000219857
0.000220429
0.000222578
0.000229599
0.000248889
0.000292622
0.000340806
0.00038617
0.000421213
0.000441331
0.000444304
0.000427576
0.000384582
0.000294713
7.68758e-05
7.70678e-05
0.000298354
0.000392211
0.000441178
0.000466749
0.000476069
0.000471557
0.000453467
0.000421289
0.000375986
0.000324293
0.000279698
0.000241465
0.000225523
0.000219729
0.000218558
0.000218386
0.000218365
0.000218369
0.000218397
0.000218572
0.000219735
0.0002255
0.00024134
0.000279185
0.000322531
0.000371339
0.000411448
0.000435364
0.000440746
0.000425488
0.00038341
0.000294163
7.68391e-05
7.70608e-05
0.000298203
0.000391829
0.00044045
0.000465441
0.000473708
0.000467129
0.000444773
0.000403736
0.00034188
0.000271772
0.000248128
0.000225765
0.000216781
0.000211914
0.000213775
0.000214757
0.000214996
0.000215001
0.00021477
0.000213787
0.000211903
0.000216728
0.000225641
0.000247766
0.000270367
0.000337458
0.00039377
0.000426395
0.000436058
0.000422956
0.000382052
0.000293543
7.67954e-05
7.705e-05
0.000297996
0.000391362
0.000439655
0.000464141
0.000471431
0.000462555
0.000434
0.000374718
0.000258455
8.63916e-05
0.000175817
0.000198233
0.00020137
0.000195235
0.000203703
0.000206694
0.000207287
0.000207285
0.000206679
0.000203647
0.000195059
0.000201051
0.000197837
0.000175781
8.61513e-05
0.000254963
0.000364559
0.000415158
0.000431133
0.000420528
0.000380794
0.000292982
7.67549e-05
7.70281e-05
0.000297637
0.00039068
0.000438709
0.00046297
0.000469928
0.000459965
0.000426549
0.000342054
9.30405e-05
7.8346e-05
0.000190311
0.000211194
0.000214332
0.000216882
0.000217891
0.000218155
0.000218134
0.000217798
0.000216605
0.000213642
0.00020984
0.000188344
7.77786e-05
9.2055e-05
0.000331457
0.000406984
0.000428186
0.000419046
0.000379938
0.000292578
7.67261e-05
7.69743e-05
0.00029686
0.000389386
0.000437168
0.00046157
0.000469336
0.00046164
0.000435092
0.000378646
0.000265534
8.82359e-05
0.000194814
0.000228122
0.000234228
0.000237002
0.000234342
0.000233465
0.000233304
0.000233251
0.000233224
0.000233615
0.00023512
0.000230069
0.000220653
0.000186983
8.66201e-05
0.000257234
0.000364828
0.000414268
0.000429613
0.000418845
0.000379359
0.000292153
7.66965e-05
7.68411e-05
0.000295136
0.000386661
0.00043398
0.000458611
0.000467713
0.00046347
0.000445254
0.000410352
0.000356413
0.000294176
0.000282524
0.000268587
0.000254421
0.000248154
0.000244824
0.000243672
0.000243358
0.000243269
0.000243265
0.000243532
0.000244496
0.000245256
0.00024995
0.000262033
0.000276461
0.000339556
0.000392591
0.000423005
0.000431484
0.000418187
0.000378013
0.000291099
7.6611e-05
7.65344e-05
0.000291534
0.000381117
0.000427406
0.000451942
0.000462197
0.000461024
0.000449136
0.000426302
0.000393103
0.000354413
0.000321373
0.000287648
0.000255642
0.000242545
0.000237879
0.000236387
0.000235955
0.000235846
0.000235877
0.000236199
0.00023748
0.000241589
0.000254643
0.000288094
0.000326157
0.00036992
0.000405504
0.000426122
0.000429797
0.000414534
0.00037414
0.000288316
7.63609e-05
7.58814e-05
0.000284533
0.000370575
0.000414836
0.000438577
0.000449364
0.00045037
0.000442815
0.000426996
0.000403191
0.000372746
0.000338325
0.000300669
0.000264727
0.000249473
0.000243983
0.000242176
0.000241632
0.000241505
0.000241589
0.000242073
0.000243793
0.000249203
0.000264729
0.000301871
0.000341677
0.000378304
0.000405787
0.00042065
0.000421166
0.000404894
0.000365302
0.000282148
7.57627e-05
7.45721e-05
0.00027155
0.000351423
0.000392108
0.000414004
0.000424475
0.000426739
0.00042218
0.000411212
0.000393879
0.000370501
0.000342291
0.000311664
0.000284293
0.000270621
0.000265048
0.00026304
0.000262387
0.000262236
0.000262372
0.000263003
0.000264992
0.000270596
0.000284523
0.000312482
0.000343864
0.000372054
0.000392554
0.000402804
0.000401142
0.000384963
0.000347753
0.000269932
7.44999e-05
7.20316e-05
0.000247462
0.000316591
0.000351229
0.000369772
0.000378874
0.000381513
0.000379031
0.000371873
0.000360057
0.000343697
0.000323653
0.000302184
0.000283555
0.000273032
0.000268261
0.000266372
0.000265707
0.00026555
0.000265712
0.000266382
0.000268282
0.000273098
0.00028376
0.000302638
0.000324282
0.000343779
0.000357725
0.000364068
0.000361221
0.000346649
0.000314337
0.000246498
7.19955e-05
6.7148e-05
0.000198482
0.000247452
0.000271438
0.000284107
0.000290364
0.000292438
0.000291363
0.000287501
0.000280871
0.000271524
0.000259983
0.000247686
0.000237068
0.000230592
0.000227425
0.000226092
0.000225601
0.000225485
0.000225616
0.000226121
0.000227473
0.000230675
0.000237223
0.000247945
0.000260261
0.000271356
0.000279157
0.000282313
0.000279629
0.000269156
0.000246396
0.00019805
6.71368e-05
5.85791e-05
6.71478e-05
7.20356e-05
7.45777e-05
7.5878e-05
7.64965e-05
7.67185e-05
7.66789e-05
7.64226e-05
7.5947e-05
7.5242e-05
7.43354e-05
7.33408e-05
7.24655e-05
7.19131e-05
7.16379e-05
7.15214e-05
7.14782e-05
7.14678e-05
7.14792e-05
7.15231e-05
7.16402e-05
7.19166e-05
7.24724e-05
7.33539e-05
7.43504e-05
7.5226e-05
7.58104e-05
7.59868e-05
7.56213e-05
7.44633e-05
7.1992e-05
6.71356e-05
5.85828e-05
6.16747e-05
7.34956e-05
8.00911e-05
8.3577e-05
8.54339e-05
8.63982e-05
8.68686e-05
8.70715e-05
8.71348e-05
8.71298e-05
8.70963e-05
8.70566e-05
8.70224e-05
8.69978e-05
8.6982e-05
8.69721e-05
8.69662e-05
8.69633e-05
8.69633e-05
8.6966e-05
8.69716e-05
8.69806e-05
8.69943e-05
8.70129e-05
8.70315e-05
8.70331e-05
8.69786e-05
8.67933e-05
8.63437e-05
8.53985e-05
8.35565e-05
8.00805e-05
7.34914e-05
6.16756e-05
7.34958e-05
0.000262699
0.000338893
0.000377184
0.000398225
0.000409819
0.000415846
0.000418558
0.000419354
0.00041912
0.000418421
0.000417617
0.000416921
0.00041641
0.000416073
0.000415861
0.000415736
0.000415677
0.000415677
0.000415734
0.000415854
0.00041605
0.000416342
0.000416737
0.000417155
0.000417325
0.000416686
0.000414291
0.000408644
0.000397406
0.000376648
0.000338555
0.0002625
7.34913e-05
8.00939e-05
0.000338941
0.000453867
0.00051356
0.000547015
0.000565731
0.000575512
0.000579774
0.000580706
0.00057978
0.000578022
0.00057614
0.000574563
0.000573452
0.000572751
0.000572319
0.000572067
0.00057195
0.00057195
0.000572064
0.000572305
0.000572704
0.000573317
0.000574203
0.000575249
0.000575972
0.000575373
0.000571834
0.00056294
0.000545074
0.00051231
0.000453115
0.000338554
8.00834e-05
8.35831e-05
0.000377269
0.000513613
0.000586042
0.000627214
0.000650347
0.000662182
0.000666743
0.000666704
0.000664006
0.000660156
0.000656316
0.000653228
0.000651154
0.000649905
0.000649134
0.000648676
0.000648463
0.000648463
0.000648672
0.000649115
0.000649839
0.00065096
0.000652712
0.000655056
0.000657303
0.000657995
0.000654871
0.000644795
0.000623352
0.000583566
0.00051216
0.00037657
8.35599e-05
8.54435e-05
0.000398349
0.000547144
0.000627319
0.000673195
0.000698711
0.000710977
0.000714266
0.000711543