/*--------------------------------*- C++ -*----------------------------------*\
| =========                 |                                                 |
| \\      /  F ield         | OpenFOAM: The Open Source CFD Toolbox           |
|  \\    /   O peration     | Version:  2112                                  |
|   \\  /    A nd           | Website:  www.openfoam.com                      |
|    \\/     M anipulation  |                                                 |
\*---------------------------------------------------------------------------*/
FoamFile
{
    version     2.0;
    format      ascii;
    arch        "LSB;label=32;scalar=64";
    class       volScalarField;
    location    "4.2";
    object      p;
}
// * * * * * * * * * * * * * * * * * * * * * * * * * * * * * * * * * * * * * //

dimensions      [0 2 -2 0 0 0 0];

internalField   nonuniform List<scalar> 
64906
(
-4.79875e-06
-4.78329e-06
-4.76953e-06
-4.76999e-06
-4.79453e-06
-4.83617e-06
-4.90112e-06
-4.98983e-06
-5.10096e-06
-5.23172e-06
-5.37565e-06
-5.52753e-06
-5.68965e-06
-5.82592e-06
-5.94198e-06
-6.03623e-06
-6.10607e-06
-6.15017e-06
-6.16792e-06
-6.15946e-06
-6.12582e-06
-6.06864e-06
-5.99077e-06
-5.89282e-06
-5.77208e-06
-5.66179e-06
-5.56224e-06
-5.47767e-06
-5.41386e-06
-5.37236e-06
-5.3474e-06
-5.34921e-06
-5.36455e-06
-5.38143e-06
-4.74525e-06
-4.681e-06
-4.63077e-06
-4.59328e-06
-4.57963e-06
-4.58824e-06
-4.61821e-06
-4.66763e-06
-4.73317e-06
-4.81138e-06
-4.89551e-06
-4.98158e-06
-5.05284e-06
-5.13218e-06
-5.202e-06
-5.25998e-06
-5.30429e-06
-5.33473e-06
-5.35108e-06
-5.35346e-06
-5.34239e-06
-5.31831e-06
-5.28346e-06
-5.24155e-06
-5.20878e-06
-5.16351e-06
-5.12179e-06
-5.08853e-06
-5.07138e-06
-5.0747e-06
-5.10228e-06
-5.15731e-06
-5.22813e-06
-5.30838e-06
-4.71733e-06
-4.61919e-06
-4.52306e-06
-4.44014e-06
-4.38806e-06
-4.3658e-06
-4.37121e-06
-4.40194e-06
-4.45417e-06
-4.52521e-06
-4.60532e-06
-4.69068e-06
-4.76452e-06
-4.83259e-06
-4.88779e-06
-4.93258e-06
-4.96648e-06
-4.99093e-06
-5.00619e-06
-5.01239e-06
-5.00955e-06
-4.99648e-06
-4.97413e-06
-4.94057e-06
-4.90331e-06
-4.85711e-06
-4.82019e-06
-4.79761e-06
-4.80164e-06
-4.8374e-06
-4.91047e-06
-5.02498e-06
-5.15421e-06
-5.2812e-06
-4.71634e-06
-4.58586e-06
-4.44719e-06
-4.32094e-06
-4.23562e-06
-4.1913e-06
-4.18726e-06
-4.2231e-06
-4.2964e-06
-4.40716e-06
-4.53973e-06
-4.68819e-06
-4.81196e-06
-4.91514e-06
-4.9893e-06
-5.04484e-06
-5.08336e-06
-5.1092e-06
-5.1234e-06
-5.12604e-06
-5.11635e-06
-5.09023e-06
-5.04664e-06
-4.97569e-06
-4.88706e-06
-4.77747e-06
-4.69076e-06
-4.63445e-06
-4.62843e-06
-4.67623e-06
-4.78196e-06
-4.94965e-06
-5.13211e-06
-5.3018e-06
-4.75661e-06
-4.59833e-06
-4.42537e-06
-4.26651e-06
-4.16097e-06
-4.1121e-06
-4.12297e-06
-4.19849e-06
-4.34097e-06
-4.55809e-06
-4.82579e-06
-5.13675e-06
-5.38608e-06
-5.58398e-06
-5.71831e-06
-5.81452e-06
-5.87668e-06
-5.91354e-06
-5.92698e-06
-5.91704e-06
-5.88205e-06
-5.81337e-06
-5.70769e-06
-5.54016e-06
-5.32513e-06
-5.05334e-06
-4.8358e-06
-4.68064e-06
-4.61792e-06
-4.64451e-06
-4.75991e-06
-4.96029e-06
-5.18418e-06
-5.39124e-06
-4.84052e-06
-4.6557e-06
-4.45398e-06
-4.27253e-06
-4.1598e-06
-4.12421e-06
-4.17427e-06
-4.32332e-06
-4.58279e-06
-4.97676e-06
-5.4761e-06
-6.09199e-06
-6.55549e-06
-6.91051e-06
-7.14376e-06
-7.30939e-06
-7.41337e-06
-7.47064e-06
-7.48371e-06
-7.4525e-06
-7.37462e-06
-7.23502e-06
-7.02869e-06
-6.70208e-06
-6.27215e-06
-5.69529e-06
-5.25232e-06
-4.92845e-06
-4.76172e-06
-4.73387e-06
-4.83607e-06
-5.05245e-06
-5.30955e-06
-5.5522e-06
-4.96747e-06
-4.75369e-06
-4.52547e-06
-4.32869e-06
-4.22001e-06
-4.21312e-06
-4.32233e-06
-4.57108e-06
-4.98432e-06
-5.62099e-06
-6.43616e-06
-7.59103e-06
-8.35352e-06
-8.9172e-06
-9.2749e-06
-9.53009e-06
-9.6882e-06
-9.77258e-06
-9.78567e-06
-9.72725e-06
-9.5948e-06
-9.36447e-06
-9.03195e-06
-8.4941e-06
-7.76448e-06
-6.6458e-06
-5.89759e-06
-5.33867e-06
-5.03063e-06
-4.92225e-06
-4.99312e-06
-5.21442e-06
-5.50117e-06
-5.78304e-06
-5.1404e-06
-4.887e-06
-4.63064e-06
-4.42474e-06
-4.33102e-06
-4.36763e-06
-4.55286e-06
-4.91531e-06
-5.49593e-06
-6.38824e-06
-7.53053e-06
-9.67181e-06
-1.07561e-05
-1.15693e-05
-1.20717e-05
-1.24376e-05
-1.26636e-05
-1.27824e-05
-1.27959e-05
-1.27037e-05
-1.25035e-05
-1.21617e-05
-1.16828e-05
-1.08914e-05
-9.83918e-06
-7.72323e-06
-6.67032e-06
-5.86019e-06
-5.39514e-06
-5.19144e-06
-5.21633e-06
-5.4346e-06
-5.74929e-06
-6.07927e-06
-5.33977e-06
-5.0411e-06
-4.76205e-06
-4.54832e-06
-4.47795e-06
-4.56974e-06
-4.84082e-06
-5.3156e-06
-5.99485e-06
-7.03784e-06
-8.52992e-06
-1.24733e-05
-1.3587e-05
-1.4628e-05
-1.52612e-05
-1.57237e-05
-1.6009e-05
-1.61587e-05
-1.61728e-05
-1.60507e-05
-1.5792e-05
-1.53535e-05
-1.47425e-05
-1.37162e-05
-1.2634e-05
-8.70417e-06
-7.36146e-06
-6.37674e-06
-5.81415e-06
-5.5132e-06
-5.48334e-06
-5.69419e-06
-6.0389e-06
-6.43798e-06
-5.56236e-06
-5.21228e-06
-4.90989e-06
-4.69608e-06
-4.66598e-06
-4.83992e-06
-5.23666e-06
-5.86036e-06
-6.73599e-06
-8.95699e-06
-7.10299e-06
-1.52897e-05
-1.63743e-05
-1.78653e-05
-1.869e-05
-1.93039e-05
-1.96818e-05
-1.98765e-05
-1.98912e-05
-1.97254e-05
-1.93754e-05
-1.87865e-05
-1.79849e-05
-1.6505e-05
-1.54763e-05
-7.18655e-06
-9.24558e-06
-7.08228e-06
-6.35944e-06
-5.92763e-06
-5.80628e-06
-5.99142e-06
-6.35698e-06
-6.84642e-06
-5.79738e-06
-5.38932e-06
-5.0605e-06
-4.84898e-06
-4.86823e-06
-5.13902e-06
-5.6396e-06
-6.21612e-06
-6.77417e-06
-4.73557e-06
-2.24584e-05
-2.00417e-05
-2.09314e-05
-2.16594e-05
-2.22969e-05
-2.27172e-05
-2.29302e-05
-2.29451e-05
-2.27615e-05
-2.23698e-05
-2.17582e-05
-2.10506e-05
-2.01656e-05
-2.25106e-05
-5.32659e-06
-7.24587e-06
-6.74867e-06
-6.34508e-06
-6.14519e-06
-6.29198e-06
-6.67933e-06
-7.27771e-06
-6.03556e-06
-5.56686e-06
-5.21339e-06
-5.01411e-06
-5.11537e-06
-5.58298e-06
-6.51419e-06
-8.03964e-06
-1.05273e-05
-1.36365e-05
-2.03461e-05
-1.90824e-05
-2.15387e-05
-2.32382e-05
-2.44904e-05
-2.54277e-05
-2.60038e-05
-2.62783e-05
-2.62933e-05
-2.6049e-05
-2.55038e-05
-2.45985e-05
-2.33804e-05
-2.17215e-05
-1.93027e-05
-2.06554e-05
-1.39125e-05
-1.08579e-05
-8.48572e-06
-7.17706e-06
-6.59709e-06
-6.61923e-06
-6.99741e-06
-7.72941e-06
-6.26244e-06
-5.73464e-06
-5.35081e-06
-5.15052e-06
-5.30044e-06
-5.87837e-06
-6.98526e-06
-8.69775e-06
-1.10958e-05
-1.3837e-05
-1.83704e-05
-2.07795e-05
-2.28745e-05
-2.46857e-05
-2.61151e-05
-2.71334e-05
-2.77634e-05
-2.80643e-05
-2.80789e-05
-2.78074e-05
-2.72076e-05
-2.62205e-05
-2.48241e-05
-2.30419e-05
-2.09639e-05
-1.86048e-05
-1.41072e-05
-1.13929e-05
-9.10523e-06
-7.62715e-06
-6.91173e-06
-6.88991e-06
-7.29768e-06
-8.14548e-06
-6.46968e-06
-5.89001e-06
-5.47504e-06
-5.2668e-06
-5.44602e-06
-6.09541e-06
-7.31594e-06
-9.1793e-06
-1.17519e-05
-1.48532e-05
-1.85826e-05
-2.13705e-05
-2.38224e-05
-2.57869e-05
-2.73052e-05
-2.8338e-05
-2.89683e-05
-2.9265e-05
-2.92788e-05
-2.90098e-05
-2.84083e-05
-2.74056e-05
-2.59195e-05
-2.39833e-05
-2.15601e-05
-1.87889e-05
-1.50672e-05
-1.20035e-05
-9.55368e-06
-7.94655e-06
-7.15667e-06
-7.12432e-06
-7.57389e-06
-8.51772e-06
-6.64914e-06
-6.02596e-06
-5.57931e-06
-5.35391e-06
-5.53875e-06
-6.21574e-06
-7.4792e-06
-9.39341e-06
-1.19958e-05
-1.51278e-05
-1.86162e-05
-2.16899e-05
-2.43772e-05
-2.64095e-05
-2.79501e-05
-2.89646e-05
-2.95747e-05
-2.98578e-05
-2.98706e-05
-2.96134e-05
-2.903e-05
-2.80432e-05
-2.65324e-05
-2.45252e-05
-2.18636e-05
-1.87954e-05
-1.53132e-05
-1.22213e-05
-9.75082e-06
-8.11283e-06
-7.31449e-06
-7.30576e-06
-7.80539e-06
-8.8334e-06
-6.79731e-06
-6.13957e-06
-5.66541e-06
-5.42131e-06
-5.60199e-06
-6.28788e-06
-7.56768e-06
-9.50213e-06
-1.21155e-05
-1.52682e-05
-1.87236e-05
-2.19423e-05
-2.47466e-05
-2.68234e-05
-2.83713e-05
-2.93647e-05
-2.99523e-05
-3.02208e-05
-3.02328e-05
-2.99885e-05
-2.94257e-05
-2.8458e-05
-2.69374e-05
-2.48832e-05
-2.21029e-05
-1.88839e-05
-1.54343e-05
-1.23247e-05
-9.85263e-06
-8.21201e-06
-7.42591e-06
-7.44871e-06
-7.99327e-06
-9.08844e-06
-6.91139e-06
-6.2275e-06
-5.73195e-06
-5.47098e-06
-5.64345e-06
-6.3287e-06
-7.61228e-06
-9.55475e-06
-1.21762e-05
-1.53529e-05
-1.88287e-05
-2.21176e-05
-2.50073e-05
-2.71151e-05
-2.86673e-05
-2.96476e-05
-3.02211e-05
-3.04803e-05
-3.04919e-05
-3.02559e-05
-2.9706e-05
-2.87495e-05
-2.72223e-05
-2.51354e-05
-2.22811e-05
-1.89775e-05
-1.55067e-05
-1.23768e-05
-9.90473e-06
-8.27009e-06
-7.50177e-06
-7.55435e-06
-8.13457e-06
-9.27967e-06
-6.9895e-06
-6.28925e-06
-5.77991e-06
-5.50764e-06
-5.6742e-06
-6.35886e-06
-7.64625e-06
-9.59801e-06
-1.22335e-05
-1.54373e-05
-1.89468e-05
-2.22919e-05
-2.5227e-05
-2.73583e-05
-2.8919e-05
-2.98975e-05
-3.04668e-05
-3.07229e-05
-3.07346e-05
-3.05018e-05
-2.99557e-05
-2.89997e-05
-2.74615e-05
-2.53449e-05
-2.2423e-05
-1.90831e-05
-1.55839e-05
-1.24306e-05
-9.95023e-06
-8.31563e-06
-7.55737e-06
-7.62876e-06
-8.23125e-06
-9.40789e-06
-7.03129e-06
-6.32433e-06
-5.8094e-06
-5.53271e-06
-5.69775e-06
-6.38458e-06
-7.67876e-06
-9.64325e-06
-1.22983e-05
-1.55294e-05
-1.90708e-05
-2.24495e-05
-2.54115e-05
-2.75619e-05
-2.9135e-05
-3.01219e-05
-3.06961e-05
-3.09549e-05
-3.09674e-05
-3.07333e-05
-3.01832e-05
-2.92192e-05
-2.76679e-05
-2.55304e-05
-2.25797e-05
-1.92064e-05
-1.56761e-05
-1.24968e-05
-9.99935e-06
-8.35605e-06
-7.59686e-06
-7.67362e-06
-8.28433e-06
-9.4741e-06
-7.03723e-06
-6.33318e-06
-5.8208e-06
-5.54646e-06
-5.71434e-06
-6.406e-06
-7.70944e-06
-9.68914e-06
-1.23679e-05
-1.56261e-05
-1.91992e-05
-2.25922e-05
-2.55614e-05
-2.77249e-05
-2.93127e-05
-3.03166e-05
-3.09041e-05
-3.11712e-05
-3.11851e-05
-3.09457e-05
-3.03849e-05
-2.94062e-05
-2.78418e-05
-2.56931e-05
-2.27362e-05
-1.93454e-05
-1.5781e-05
-1.25731e-05
-1.00509e-05
-8.39107e-06
-7.62059e-06
-7.68972e-06
-8.29499e-06
-9.47952e-06
-7.00903e-06
-6.3174e-06
-5.81495e-06
-5.54819e-06
-5.72054e-06
-6.41578e-06
-7.72661e-06
-9.72041e-06
-1.24268e-05
-1.57148e-05
-1.93336e-05
-2.27206e-05
-2.56743e-05
-2.7843e-05
-2.94467e-05
-3.04761e-05
-3.10851e-05
-3.1366e-05
-3.13824e-05
-3.11342e-05
-3.05565e-05
-2.95568e-05
-2.7981e-05
-2.58343e-05
-2.29156e-05
-1.9505e-05
-1.58886e-05
-1.26476e-05
-1.00942e-05
-8.41389e-06
-7.62597e-06
-7.67764e-06
-8.26504e-06
-9.42639e-06
-6.94915e-06
-6.27889e-06
-5.79191e-06
-5.53423e-06
-5.7064e-06
-6.39411e-06
-7.69628e-06
-9.68625e-06
-1.24104e-05
-1.57297e-05
-1.9462e-05
-2.28376e-05
-2.57135e-05
-2.78605e-05
-2.94676e-05
-3.05249e-05
-3.11607e-05
-3.14597e-05
-3.14797e-05
-3.12205e-05
-3.06231e-05
-2.96028e-05
-2.80296e-05
-2.59084e-05
-2.30518e-05
-1.96606e-05
-1.59328e-05
-1.26594e-05
-1.00838e-05
-8.3968e-06
-7.5998e-06
-7.63368e-06
-8.19502e-06
-9.31707e-06
-6.86208e-06
-6.22236e-06
-5.75489e-06
-5.50543e-06
-5.66872e-06
-6.33071e-06
-7.59619e-06
-9.54721e-06
-1.22723e-05
-1.56246e-05
-1.96479e-05
-2.2927e-05
-2.56395e-05
-2.77417e-05
-2.93362e-05
-3.04182e-05
-3.10794e-05
-3.13971e-05
-3.14227e-05
-3.11564e-05
-3.05451e-05
-2.95127e-05
-2.79627e-05
-2.5895e-05
-2.31927e-05
-1.98909e-05
-1.58872e-05
-1.25759e-05
-9.99033e-06
-8.32638e-06
-7.54006e-06
-7.56256e-06
-8.09222e-06
-9.15865e-06
-6.75309e-06
-6.15131e-06
-5.70332e-06
-5.45448e-06
-5.58776e-06
-6.18271e-06
-7.33913e-06
-9.13033e-06
-1.16273e-05
-1.45625e-05
-1.96515e-05
-2.32484e-05
-2.53788e-05
-2.72933e-05
-2.88004e-05
-2.98741e-05
-3.05445e-05
-3.08758e-05
-3.09095e-05
-3.06465e-05
-3.00435e-05
-2.90394e-05
-2.75954e-05
-2.57389e-05
-2.36393e-05
-1.99445e-05
-1.48802e-05
-1.19991e-05
-9.64683e-06
-8.12513e-06
-7.41325e-06
-7.45428e-06
-7.95939e-06
-8.95581e-06
-6.63254e-06
-6.0745e-06
-5.64745e-06
-5.39715e-06
-5.48991e-06
-5.9951e-06
-7.01896e-06
-8.7065e-06
-1.14609e-05
-1.51196e-05
-2.10603e-05
-2.16604e-05
-2.45838e-05
-2.66966e-05
-2.81285e-05
-2.91874e-05
-2.98487e-05
-3.01808e-05
-3.02284e-05
-2.99944e-05
-2.94315e-05
-2.84756e-05
-2.7129e-05
-2.50928e-05
-2.21898e-05
-2.13226e-05
-1.56957e-05
-1.20354e-05
-9.37176e-06
-7.89962e-06
-7.26722e-06
-7.34038e-06
-7.83931e-06
-8.71048e-06
-6.50867e-06
-5.99507e-06
-5.58551e-06
-5.32439e-06
-5.34702e-06
-5.66803e-06
-6.23152e-06
-6.78236e-06
-7.22038e-06
-4.06621e-06
-2.82959e-05
-2.47632e-05
-2.57175e-05
-2.65791e-05
-2.736e-05
-2.79013e-05
-2.82002e-05
-2.82641e-05
-2.80983e-05
-2.76954e-05
-2.70693e-05
-2.63362e-05
-2.5528e-05
-2.90096e-05
-4.60167e-06
-7.90157e-06
-7.5632e-06
-7.21663e-06
-6.99476e-06
-7.18284e-06
-7.68822e-06
-8.47938e-06
-6.39692e-06
-5.92597e-06
-5.54144e-06
-5.29031e-06
-5.30343e-06
-5.62532e-06
-6.32789e-06
-7.51067e-06
-9.45717e-06
-1.26238e-05
-1.34512e-05
-1.9915e-05
-2.19883e-05
-2.39828e-05
-2.52849e-05
-2.62821e-05
-2.69323e-05
-2.7295e-05
-2.73824e-05
-2.72049e-05
-2.67514e-05
-2.59787e-05
-2.48578e-05
-2.31028e-05
-2.1084e-05
-1.52197e-05
-1.41474e-05
-1.07184e-05
-8.60928e-06
-7.45951e-06
-6.99707e-06
-7.10985e-06
-7.56195e-06
-8.28277e-06
-6.30476e-06
-5.87233e-06
-5.51395e-06
-5.2757e-06
-5.27618e-06
-5.557e-06
-6.16767e-06
-7.15077e-06
-8.5281e-06
-1.0308e-05
-1.39227e-05
-1.83611e-05
-2.03421e-05
-2.21973e-05
-2.35504e-05
-2.45944e-05
-2.52732e-05
-2.56571e-05
-2.5761e-05
-2.56008e-05
-2.51648e-05
-2.44101e-05
-2.32828e-05
-2.17186e-05
-1.97977e-05
-1.55605e-05
-1.15584e-05
-9.74578e-06
-8.30287e-06
-7.35461e-06
-6.94001e-06
-7.03505e-06
-7.44822e-06
-8.10159e-06
-6.24397e-06
-5.84806e-06
-5.52377e-06
-5.3114e-06
-5.3164e-06
-5.57933e-06
-6.15535e-06
-7.11461e-06
-8.56411e-06
-1.05635e-05
-1.31471e-05
-1.62384e-05
-1.84786e-05
-2.04127e-05
-2.18292e-05
-2.29207e-05
-2.36223e-05
-2.40159e-05
-2.41255e-05
-2.39719e-05
-2.35369e-05
-2.27778e-05
-2.16313e-05
-2.00499e-05
-1.79341e-05
-1.49395e-05
-1.22006e-05
-9.98926e-06
-8.37469e-06
-7.38572e-06
-6.95402e-06
-7.01493e-06
-7.38199e-06
-7.98621e-06
-6.20756e-06
-5.85967e-06
-5.58094e-06
-5.40601e-06
-5.42477e-06
-5.67095e-06
-6.19093e-06
-7.04409e-06
-8.29955e-06
-1.00091e-05
-1.21503e-05
-1.45573e-05
-1.66485e-05
-1.84928e-05
-1.9871e-05
-2.09194e-05
-2.15898e-05
-2.19649e-05
-2.2073e-05
-2.19363e-05
-2.15354e-05
-2.083e-05
-1.97479e-05
-1.82677e-05
-1.62977e-05
-1.39386e-05
-1.16411e-05
-9.73174e-06
-8.31794e-06
-7.42182e-06
-7.01657e-06
-7.05247e-06
-7.37125e-06
-7.92497e-06
-6.2177e-06
-5.91944e-06
-5.70158e-06
-5.5829e-06
-5.63484e-06
-5.88203e-06
-6.35726e-06
-7.10189e-06
-8.16104e-06
-9.55927e-06
-1.12627e-05
-1.31557e-05
-1.49386e-05
-1.6565e-05
-1.78141e-05
-1.87589e-05
-1.93693e-05
-1.97125e-05
-1.9815e-05
-1.96975e-05
-1.93415e-05
-1.87141e-05
-1.77547e-05
-1.64595e-05
-1.47896e-05
-1.29181e-05
-1.109e-05
-9.52897e-06
-8.34131e-06
-7.56391e-06
-7.18846e-06
-7.18603e-06
-7.43646e-06
-7.92159e-06
-6.26238e-06
-6.02897e-06
-5.89234e-06
-5.85324e-06
-5.96232e-06
-6.23593e-06
-6.69653e-06
-7.36982e-06
-8.28205e-06
-9.43611e-06
-1.07971e-05
-1.22905e-05
-1.37473e-05
-1.50911e-05
-1.61512e-05
-1.69578e-05
-1.749e-05
-1.77937e-05
-1.78881e-05
-1.77879e-05
-1.74804e-05
-1.69434e-05
-1.61364e-05
-1.50652e-05
-1.37208e-05
-1.22547e-05
-1.08191e-05
-9.5605e-06
-8.56784e-06
-7.88123e-06
-7.50844e-06
-7.43706e-06
-7.58462e-06
-7.97498e-06
-6.32231e-06
-6.1667e-06
-6.11557e-06
-6.16162e-06
-6.34123e-06
-6.66835e-06
-7.1584e-06
-7.82594e-06
-8.67437e-06
-9.69953e-06
-1.08759e-05
-1.21434e-05
-1.3385e-05
-1.45301e-05
-1.54598e-05
-1.6177e-05
-1.66649e-05
-1.69482e-05
-1.70382e-05
-1.69436e-05
-1.66572e-05
-1.61671e-05
-1.54526e-05
-1.45257e-05
-1.33964e-05
-1.21761e-05
-1.09663e-05
-9.89018e-06
-9.00368e-06
-8.34608e-06
-7.93448e-06
-7.76839e-06
-7.80081e-06
-8.04986e-06
-6.3752e-06
-6.31427e-06
-6.34049e-06
-6.46116e-06
-6.71024e-06
-7.10754e-06
-7.67172e-06
-8.41662e-06
-9.34582e-06
-1.0446e-05
-1.16678e-05
-1.29476e-05
-1.41968e-05
-1.53486e-05
-1.63089e-05
-1.7063e-05
-1.75901e-05
-1.78989e-05
-1.79949e-05
-1.78827e-05
-1.75587e-05
-1.70177e-05
-1.62541e-05
-1.52883e-05
-1.4147e-05
-1.29253e-05
-1.17143e-05
-1.05932e-05
-9.64585e-06
-8.91531e-06
-8.41542e-06
-8.13986e-06
-8.04712e-06
-8.13063e-06
-4.84743e-06
-4.85065e-06
-4.86114e-06
-4.88189e-06
-4.91598e-06
-4.97419e-06
-5.05738e-06
-5.16749e-06
-5.30348e-06
-5.46261e-06
-5.63698e-06
-5.82003e-06
-6.00023e-06
-6.1646e-06
-6.30532e-06
-6.4189e-06
-6.50183e-06
-6.55275e-06
-6.57095e-06
-6.55658e-06
-6.51075e-06
-6.4351e-06
-6.33348e-06
-6.20939e-06
-6.07169e-06
-5.93271e-06
-5.80449e-06
-5.69292e-06
-5.60487e-06
-5.54098e-06
-5.50241e-06
-5.47553e-06
-5.45776e-06
-5.44557e-06
-4.80663e-06
-4.78297e-06
-4.77264e-06
-4.76802e-06
-4.78099e-06
-4.81584e-06
-4.87437e-06
-4.95655e-06
-5.05874e-06
-5.17764e-06
-5.30313e-06
-5.43244e-06
-5.55354e-06
-5.67e-06
-5.77081e-06
-5.85405e-06
-5.91588e-06
-5.95588e-06
-5.97334e-06
-5.96841e-06
-5.9421e-06
-5.89512e-06
-5.83173e-06
-5.75424e-06
-5.67373e-06
-5.58695e-06
-5.50602e-06
-5.43373e-06
-5.38022e-06
-5.34804e-06
-5.33892e-06
-5.34869e-06
-5.36346e-06
-5.38693e-06
-4.79398e-06
-4.76415e-06
-4.74269e-06
-4.71737e-06
-4.71355e-06
-4.73766e-06
-4.79326e-06
-4.88164e-06
-4.99851e-06
-5.14352e-06
-5.2992e-06
-5.46777e-06
-5.61836e-06
-5.75913e-06
-5.87375e-06
-5.96643e-06
-6.03268e-06
-6.07453e-06
-6.09146e-06
-6.08359e-06
-6.05174e-06
-5.99413e-06
-5.91578e-06
-5.81276e-06
-5.70214e-06
-5.57603e-06
-5.46667e-06
-5.37206e-06
-5.31088e-06
-5.28322e-06
-5.29028e-06
-5.32472e-06
-5.3516e-06
-5.38017e-06
-4.80799e-06
-4.76451e-06
-4.72632e-06
-4.67885e-06
-4.66041e-06
-4.6814e-06
-4.74866e-06
-4.86735e-06
-5.03374e-06
-5.25444e-06
-5.49832e-06
-5.77751e-06
-6.01416e-06
-6.22947e-06
-6.39315e-06
-6.52098e-06
-6.60728e-06
-6.6587e-06
-6.67501e-06
-6.65627e-06
-6.603e-06
-6.50872e-06
-6.37981e-06
-6.20081e-06
-6.00365e-06
-5.76742e-06
-5.57331e-06
-5.40927e-06
-5.30915e-06
-5.26624e-06
-5.27975e-06
-5.33578e-06
-5.37978e-06
-5.42025e-06
-4.86351e-06
-4.80244e-06
-4.74966e-06
-4.68732e-06
-4.66526e-06
-4.69884e-06
-4.79973e-06
-4.97997e-06
-5.23792e-06
-5.59585e-06
-5.99966e-06
-6.48907e-06
-6.87943e-06
-7.22767e-06
-7.47817e-06
-7.66913e-06
-7.79212e-06
-7.86162e-06
-7.87748e-06
-7.83969e-06
-7.74861e-06
-7.58978e-06
-7.37261e-06
-7.05913e-06
-6.70795e-06
-6.26222e-06
-5.91315e-06
-5.61933e-06
-5.4398e-06
-5.35206e-06
-5.35194e-06
-5.41534e-06
-5.47042e-06
-5.53136e-06
-4.96407e-06
-4.88009e-06
-4.81491e-06
-4.74563e-06
-4.73193e-06
-4.7944e-06
-4.95004e-06
-5.21991e-06
-5.60585e-06
-6.16003e-06
-6.80012e-06
-7.641e-06
-8.2561e-06
-8.7987e-06
-9.17112e-06
-9.45221e-06
-9.62757e-06
-9.72357e-06
-9.73924e-06
-9.67439e-06
-9.53016e-06
-9.27985e-06
-8.93914e-06
-8.42917e-06
-7.85263e-06
-7.05542e-06
-6.47695e-06
-5.99469e-06
-5.7003e-06
-5.54086e-06
-5.50816e-06
-5.56619e-06
-5.62939e-06
-5.71497e-06
-5.10956e-06
-4.99663e-06
-4.92096e-06
-4.85168e-06
-4.85691e-06
-4.96125e-06
-5.1859e-06
-5.561e-06
-6.09136e-06
-6.89303e-06
-7.83636e-06
-9.25742e-06
-1.0146e-05
-1.09185e-05
-1.14212e-05
-1.18007e-05
-1.20313e-05
-1.21564e-05
-1.21722e-05
-1.20782e-05
-1.18783e-05
-1.15282e-05
-1.10554e-05
-1.03122e-05
-9.46124e-06
-8.08199e-06
-7.21158e-06
-6.48915e-06
-6.06352e-06
-5.81732e-06
-5.73996e-06
-5.78432e-06
-5.85341e-06
-5.97277e-06
-5.29017e-06
-5.14684e-06
-5.06338e-06
-5.00224e-06
-5.03964e-06
-5.2018e-06
-5.51056e-06
-5.9951e-06
-6.66045e-06
-7.66164e-06
-8.95076e-06
-1.13559e-05
-1.24873e-05
-1.35108e-05
-1.41539e-05
-1.46527e-05
-1.49526e-05
-1.51146e-05
-1.51307e-05
-1.50003e-05
-1.47311e-05
-1.42606e-05
-1.36451e-05
-1.26458e-05
-1.15488e-05
-9.17722e-06
-7.98283e-06
-7.06402e-06
-6.51624e-06
-6.17924e-06
-6.04473e-06
-6.06568e-06
-6.13701e-06
-6.30196e-06
-5.5085e-06
-5.32174e-06
-5.23126e-06
-5.18217e-06
-5.25886e-06
-5.48381e-06
-5.87023e-06
-6.43131e-06
-7.0926e-06
-8.1452e-06
-9.66791e-06
-1.42274e-05
-1.51183e-05
-1.61878e-05
-1.68755e-05
-1.74234e-05
-1.77492e-05
-1.79294e-05
-1.79457e-05
-1.77974e-05
-1.75022e-05
-1.69814e-05
-1.63186e-05
-1.5264e-05
-1.44033e-05
-9.86324e-06
-8.50153e-06
-7.5101e-06
-6.97164e-06
-6.57324e-06
-6.38797e-06
-6.38533e-06
-6.46206e-06
-6.68984e-06
-5.75449e-06
-5.51568e-06
-5.42324e-06
-5.4019e-06
-5.54811e-06
-5.88268e-06
-6.41992e-06
-7.09027e-06
-7.84167e-06
-9.81329e-06
-6.67759e-06
-1.63773e-05
-1.71945e-05
-1.86056e-05
-1.94292e-05
-2.01334e-05
-2.05365e-05
-2.0753e-05
-2.07692e-05
-2.05844e-05
-2.02123e-05
-1.95352e-05
-1.87353e-05
-1.7333e-05
-1.65738e-05
-6.74216e-06
-1.01116e-05
-8.21483e-06
-7.62023e-06
-7.13199e-06
-6.82744e-06
-6.7611e-06
-6.82355e-06
-7.12845e-06
-6.01484e-06
-5.71398e-06
-5.61645e-06
-5.6224e-06
-5.83802e-06
-6.27811e-06
-6.92515e-06
-7.58908e-06
-7.81815e-06
-3.96694e-06
-2.34281e-05
-1.97271e-05
-2.0362e-05
-2.10542e-05
-2.1627e-05
-2.20007e-05
-2.22019e-05
-2.22173e-05
-2.20461e-05
-2.17014e-05
-2.11547e-05
-2.04837e-05
-1.98508e-05
-2.34481e-05
-4.64355e-06
-8.30374e-06
-8.1412e-06
-7.64736e-06
-7.25353e-06
-7.12662e-06
-7.18273e-06
-7.59851e-06
-6.27998e-06
-5.91438e-06
-5.82177e-06
-5.8816e-06
-6.23204e-06
-6.93705e-06
-8.10036e-06
-9.77235e-06
-1.24497e-05
-1.50987e-05
-2.14367e-05
-1.83917e-05
-2.01997e-05
-2.17021e-05
-2.28118e-05
-2.35337e-05
-2.40076e-05
-2.4248e-05
-2.42628e-05
-2.40517e-05
-2.36075e-05
-2.29153e-05
-2.18368e-05
-2.03713e-05
-1.8597e-05
-2.17329e-05
-1.53359e-05
-1.27546e-05
-1.02176e-05
-8.75722e-06
-7.89307e-06
-7.55886e-06
-7.5509e-06
-8.08727e-06
-6.5332e-06
-6.10349e-06
-6.00517e-06
-6.09451e-06
-6.52413e-06
-7.36561e-06
-8.72132e-06
-1.05806e-05
-1.30894e-05
-1.53828e-05
-1.92208e-05
-2.00861e-05
-2.10803e-05
-2.21113e-05
-2.30447e-05
-2.37373e-05
-2.42218e-05
-2.44694e-05
-2.44831e-05
-2.42628e-05
-2.38053e-05
-2.31378e-05
-2.22282e-05
-2.12131e-05
-2.02227e-05
-1.94073e-05
-1.56092e-05
-1.33598e-05
-1.09852e-05
-9.35379e-06
-8.32876e-06
-7.90861e-06
-7.88864e-06
-8.546e-06
-6.76558e-06
-6.28121e-06
-6.17792e-06
-6.29351e-06
-6.79408e-06
-7.75911e-06
-9.28906e-06
-1.13629e-05
-1.40212e-05
-1.67037e-05
-1.96388e-05
-2.10017e-05
-2.20703e-05
-2.30243e-05
-2.39273e-05
-2.45991e-05
-2.50734e-05
-2.53129e-05
-2.53257e-05
-2.51116e-05
-2.46625e-05
-2.40136e-05
-2.31318e-05
-2.21891e-05
-2.11314e-05
-1.97822e-05
-1.68703e-05
-1.42443e-05
-1.17292e-05
-9.90354e-06
-8.73668e-06
-8.24157e-06
-8.21037e-06
-8.96233e-06
-6.96638e-06
-6.43682e-06
-6.32253e-06
-6.44607e-06
-6.98043e-06
-8.00477e-06
-9.60776e-06
-1.17629e-05
-1.44378e-05
-1.721e-05
-1.99222e-05
-2.15595e-05
-2.27701e-05
-2.37047e-05
-2.45934e-05
-2.52449e-05
-2.5708e-05
-2.59396e-05
-2.59516e-05
-2.57437e-05
-2.53037e-05
-2.46721e-05
-2.38013e-05
-2.2872e-05
-2.16688e-05
-2.00344e-05
-1.73459e-05
-1.46368e-05
-1.21139e-05
-1.02255e-05
-9.01407e-06
-8.50128e-06
-8.48367e-06
-9.31283e-06
-7.13142e-06
-6.56799e-06
-6.44338e-06
-6.56904e-06
-7.12342e-06
-8.18528e-06
-9.83487e-06
-1.20449e-05
-1.47421e-05
-1.75673e-05
-2.02292e-05
-2.20171e-05
-2.33064e-05
-2.42636e-05
-2.51613e-05
-2.58046e-05
-2.62596e-05
-2.64844e-05
-2.64958e-05
-2.62933e-05
-2.58598e-05
-2.52342e-05
-2.43516e-05
-2.33951e-05
-2.21059e-05
-2.03204e-05
-1.76837e-05
-1.49263e-05
-1.23903e-05
-1.04638e-05
-9.23015e-06
-8.71364e-06
-8.7108e-06
-9.59434e-06
-7.25718e-06
-6.66966e-06
-6.53552e-06
-6.65823e-06
-7.21989e-06
-8.29875e-06
-9.96996e-06
-1.2208e-05
-1.49211e-05
-1.77889e-05
-2.04639e-05
-2.23623e-05
-2.36866e-05
-2.46625e-05
-2.55685e-05
-2.62083e-05
-2.66594e-05
-2.68807e-05
-2.68917e-05
-2.66921e-05
-2.62613e-05
-2.56372e-05
-2.47435e-05
-2.37629e-05
-2.24202e-05
-2.05389e-05
-1.78938e-05
-1.50989e-05
-1.25556e-05
-1.06145e-05
-9.37789e-06
-8.86893e-06
-8.88208e-06
-9.80327e-06
-7.34256e-06
-6.74091e-06
-6.60065e-06
-6.72069e-06
-7.28583e-06
-8.3746e-06
-1.00603e-05
-1.23194e-05
-1.50526e-05
-1.79565e-05
-2.06615e-05
-2.26303e-05
-2.39754e-05
-2.49676e-05
-2.58829e-05
-2.65254e-05
-2.6977e-05
-2.71979e-05
-2.72091e-05
-2.70101e-05
-2.65784e-05
-2.59507e-05
-2.50454e-05
-2.40449e-05
-2.26837e-05
-2.07288e-05
-1.80571e-05
-1.52301e-05
-1.26727e-05
-1.07194e-05
-9.48023e-06
-8.97638e-06
-8.99931e-06
-9.9422e-06
-7.38729e-06
-6.78094e-06
-6.63842e-06
-6.75728e-06
-7.32394e-06
-8.41784e-06
-1.01133e-05
-1.23881e-05
-1.51429e-05
-1.80763e-05
-2.08124e-05
-2.28075e-05
-2.41787e-05
-2.51851e-05
-2.61095e-05
-2.67589e-05
-2.72151e-05
-2.74387e-05
-2.74508e-05
-2.72506e-05
-2.68156e-05
-2.61813e-05
-2.52665e-05
-2.42517e-05
-2.28718e-05
-2.08833e-05
-1.81811e-05
-1.53264e-05
-1.27499e-05
-1.07846e-05
-9.54029e-06
-9.03667e-06
-9.06234e-06
-1.0013e-05
-7.39195e-06
-6.79027e-06
-6.64935e-06
-6.76843e-06
-7.33452e-06
-8.42856e-06
-1.01283e-05
-1.24124e-05
-1.51896e-05
-1.81466e-05
-2.09203e-05
-2.29366e-05
-2.43045e-05
-2.53186e-05
-2.62503e-05
-2.69102e-05
-2.73743e-05
-2.76035e-05
-2.76173e-05
-2.74148e-05
-2.69748e-05
-2.63326e-05
-2.54123e-05
-2.43909e-05
-2.30073e-05
-2.10045e-05
-1.82653e-05
-1.53859e-05
-1.27863e-05
-1.08099e-05
-9.55877e-06
-9.05094e-06
-9.07256e-06
-1.00171e-05
-7.3582e-06
-6.77115e-06
-6.63526e-06
-6.75478e-06
-7.31622e-06
-8.40239e-06
-1.00975e-05
-1.23814e-05
-1.51824e-05
-1.81569e-05
-2.0987e-05
-2.29869e-05
-2.43505e-05
-2.53708e-05
-2.63093e-05
-2.69845e-05
-2.74603e-05
-2.76985e-05
-2.77151e-05
-2.75094e-05
-2.70628e-05
-2.64106e-05
-2.54879e-05
-2.44651e-05
-2.30809e-05
-2.10989e-05
-1.83021e-05
-1.54022e-05
-1.27755e-05
-1.07925e-05
-9.53612e-06
-9.02222e-06
-9.0338e-06
-9.95639e-06
-7.28827e-06
-6.72572e-06
-6.59559e-06
-6.71043e-06
-7.25411e-06
-8.31034e-06
-9.97217e-06
-1.22228e-05
-1.50329e-05
-1.80163e-05
-2.09749e-05
-2.29268e-05
-2.4277e-05
-2.52941e-05
-2.62302e-05
-2.69211e-05
-2.74105e-05
-2.76603e-05
-2.7681e-05
-2.74718e-05
-2.70194e-05
-2.63599e-05
-2.54469e-05
-2.44373e-05
-2.30892e-05
-2.11283e-05
-1.82017e-05
-1.52903e-05
-1.2651e-05
-1.06908e-05
-9.4513e-06
-8.94375e-06
-8.94703e-06
-9.8317e-06
-7.18746e-06
-6.66079e-06
-6.53794e-06
-6.64399e-06
-7.15851e-06
-8.16499e-06
-9.76709e-06
-1.19524e-05
-1.4768e-05
-1.77083e-05
-2.09715e-05
-2.28713e-05
-2.41032e-05
-2.51541e-05
-2.61117e-05
-2.68322e-05
-2.734e-05
-2.76044e-05
-2.76311e-05
-2.742e-05
-2.69613e-05
-2.62861e-05
-2.53631e-05
-2.43337e-05
-2.31081e-05
-2.1182e-05
-1.79601e-05
-1.50879e-05
-1.24382e-05
-1.0528e-05
-9.3248e-06
-8.8338e-06
-8.82749e-06
-9.65165e-06
-7.06151e-06
-6.5792e-06
-6.45827e-06
-6.53885e-06
-6.98892e-06
-7.88143e-06
-9.31632e-06
-1.12798e-05
-1.38867e-05
-1.6362e-05
-2.07501e-05
-2.29287e-05
-2.38034e-05
-2.48611e-05
-2.58205e-05
-2.65564e-05
-2.70772e-05
-2.73561e-05
-2.73903e-05
-2.71801e-05
-2.67232e-05
-2.60512e-05
-2.51437e-05
-2.41358e-05
-2.32905e-05
-2.10071e-05
-1.66788e-05
-1.42882e-05
-1.18569e-05
-1.01517e-05
-9.08497e-06
-8.66577e-06
-8.67361e-06
-9.42147e-06
-6.92324e-06
-6.49394e-06
-6.37934e-06
-6.43892e-06
-6.82989e-06
-7.61792e-06
-8.90928e-06
-1.07394e-05
-1.3622e-05
-1.68003e-05
-2.20294e-05
-2.11664e-05
-2.33469e-05
-2.5122e-05
-2.63333e-05
-2.71465e-05
-2.7693e-05
-2.79874e-05
-2.80346e-05
-2.78365e-05
-2.73796e-05
-2.66586e-05
-2.5516e-05
-2.38234e-05
-2.16747e-05
-2.22539e-05
-1.73469e-05
-1.42028e-05
-1.14642e-05
-9.85212e-06
-8.88366e-06
-8.51805e-06
-8.5281e-06
-9.16907e-06
-6.78111e-06
-6.40407e-06
-6.2864e-06
-6.30286e-06
-6.57971e-06
-7.12594e-06
-7.89888e-06
-8.59634e-06
-8.5653e-06
-2.9504e-06
-2.95764e-05
-2.41767e-05
-2.46981e-05
-2.53874e-05
-2.60118e-05
-2.64589e-05
-2.6725e-05
-2.67841e-05
-2.66405e-05
-2.63065e-05
-2.5808e-05
-2.52032e-05
-2.48057e-05
-3.01454e-05
-3.53302e-06
-9.31838e-06
-9.49007e-06
-8.98386e-06
-8.48039e-06
-8.29589e-06
-8.35763e-06
-8.90989e-06
-6.65269e-06
-6.32612e-06
-6.22266e-06
-6.23823e-06
-6.50181e-06
-7.05505e-06
-7.95725e-06
-9.19326e-06
-1.1018e-05
-1.39355e-05
-1.35035e-05
-2.06022e-05
-2.20793e-05
-2.37271e-05
-2.47534e-05
-2.5661e-05
-2.62452e-05
-2.65882e-05
-2.66669e-05
-2.64881e-05
-2.60513e-05
-2.53039e-05
-2.43419e-05
-2.28697e-05
-2.14953e-05
-1.52349e-05
-1.53108e-05
-1.22964e-05
-1.036e-05
-9.17839e-06
-8.46236e-06
-8.20464e-06
-8.22043e-06
-8.68872e-06
-6.54464e-06
-6.26016e-06
-6.1679e-06
-6.17735e-06
-6.40723e-06
-6.90053e-06
-7.70441e-06
-8.83001e-06
-1.02598e-05
-1.19128e-05
-1.53007e-05
-1.96903e-05
-2.08359e-05
-2.20384e-05
-2.29306e-05
-2.37719e-05
-2.43342e-05
-2.46812e-05
-2.4772e-05
-2.46164e-05
-2.42174e-05
-2.35514e-05
-2.26735e-05
-2.15644e-05
-2.05513e-05
-1.6641e-05
-1.30933e-05
-1.14953e-05
-1.00565e-05
-8.98698e-06
-8.32981e-06
-8.08101e-06
-8.08493e-06
-8.50676e-06
-6.46704e-06
-6.22243e-06
-6.1518e-06
-6.17543e-06
-6.40376e-06
-6.88515e-06
-7.67633e-06
-8.81298e-06
-1.03507e-05
-1.22752e-05
-1.47093e-05
-1.74641e-05
-1.8943e-05
-2.014e-05
-2.10619e-05
-2.19345e-05
-2.25151e-05
-2.28688e-05
-2.29635e-05
-2.28118e-05
-2.24055e-05
-2.1736e-05
-2.0823e-05
-1.96816e-05
-1.8369e-05
-1.60071e-05
-1.36255e-05
-1.16908e-05
-1.01131e-05
-8.99612e-06
-8.31137e-06
-8.02973e-06
-7.99881e-06
-8.36631e-06
-6.42868e-06
-6.21597e-06
-6.17024e-06
-6.2127e-06
-6.43843e-06
-6.89145e-06
-7.62158e-06
-8.66409e-06
-1.00449e-05
-1.17696e-05
-1.37277e-05
-1.57942e-05
-1.71943e-05
-1.83806e-05
-1.93256e-05
-2.01724e-05
-2.07382e-05
-2.10826e-05
-2.1179e-05
-2.10416e-05
-2.066e-05
-2.00353e-05
-1.91472e-05
-1.8061e-05
-1.68045e-05
-1.49976e-05
-1.31104e-05
-1.13906e-05
-9.97828e-06
-8.94448e-06
-8.29635e-06
-8.00944e-06
-7.95535e-06
-8.27407e-06
-6.41546e-06
-6.24321e-06
-6.23104e-06
-6.30448e-06
-6.54074e-06
-6.97622e-06
-7.6499e-06
-8.58677e-06
-9.79426e-06
-1.12493e-05
-1.28422e-05
-1.44783e-05
-1.57651e-05
-1.69207e-05
-1.78618e-05
-1.86707e-05
-1.92265e-05
-1.95651e-05
-1.9664e-05
-1.95378e-05
-1.91745e-05
-1.85813e-05
-1.77429e-05
-1.67274e-05
-1.55301e-05
-1.41001e-05
-1.25684e-05
-1.11206e-05
-9.88829e-06
-8.95749e-06
-8.35021e-06
-8.05406e-06
-7.97006e-06
-8.23306e-06
-6.42793e-06
-6.29966e-06
-6.32621e-06
-6.43882e-06
-6.695e-06
-7.12252e-06
-7.7498e-06
-8.5924e-06
-9.64736e-06
-1.0886e-05
-1.22178e-05
-1.3573e-05
-1.47513e-05
-1.58197e-05
-1.67039e-05
-1.74535e-05
-1.79771e-05
-1.82964e-05
-1.83946e-05
-1.82814e-05
-1.79493e-05
-1.74073e-05
-1.66468e-05
-1.57307e-05
-1.46593e-05
-1.34503e-05
-1.21683e-05
-1.09385e-05
-9.86942e-06
-9.03638e-06
-8.46605e-06
-8.15524e-06
-8.0354e-06
-8.2334e-06
-6.4482e-06
-6.35726e-06
-6.40345e-06
-6.54217e-06
-6.81467e-06
-7.24177e-06
-7.84289e-06
-8.62755e-06
-9.58788e-06
-1.06965e-05
-1.18879e-05
-1.31007e-05
-1.42223e-05
-1.52436e-05
-1.60966e-05
-1.67995e-05
-1.72981e-05
-1.76008e-05
-1.76965e-05
-1.75908e-05
-1.72798e-05