/*--------------------------------*- C++ -*----------------------------------*\
| =========                 |                                                 |
| \\      /  F ield         | OpenFOAM: The Open Source CFD Toolbox           |
|  \\    /   O peration     | Version:  2112                                  |
|   \\  /    A nd           | Website:  www.openfoam.com                      |
|    \\/     M anipulation  |                                                 |
\*---------------------------------------------------------------------------*/
FoamFile
{
    version     2.0;
    format      ascii;
    arch        "LSB;label=32;scalar=64";
    class       surfaceScalarField;
    location    "4.2";
    object      phi;
}
// * * * * * * * * * * * * * * * * * * * * * * * * * * * * * * * * * * * * * //

dimensions      [0 3 -1 0 0 0 0];

oriented        oriented;

internalField   nonuniform List<scalar> 
188215
(
5.39803e-10
1.08774e-09
-1.62754e-09
2.53841e-09
9.91962e-11
-2.0978e-09
5.44777e-09
-1.43741e-09
-1.47195e-09
8.78848e-09
-2.82942e-09
-5.11295e-10
1.23025e-08
-3.82261e-09
3.08584e-10
1.57842e-08
-4.47162e-09
9.8991e-10
1.92017e-08
-4.81951e-09
1.40205e-09
2.24144e-08
-4.8706e-09
1.65791e-09
2.52095e-08
-4.59969e-09
1.80458e-09
2.71863e-08
-3.83925e-09
1.86247e-09
2.80422e-08
-2.68401e-09
1.82809e-09
2.72171e-08
-8.98837e-10
1.72397e-09
2.50459e-08
4.31028e-10
1.74015e-09
2.17989e-08
1.2912e-09
1.95579e-09
1.77209e-08
1.87042e-09
2.20762e-09
1.3022e-08
2.26323e-09
2.43563e-09
7.94555e-09
2.47355e-09
2.60289e-09
2.69324e-09
2.56102e-09
2.6913e-09
-2.53711e-09
2.53582e-09
2.69452e-09
-7.5485e-09
2.39789e-09
2.6135e-09
-1.21407e-08
2.13729e-09
2.45492e-09
-1.6074e-08
1.69595e-09
2.23733e-09
-1.91498e-08
1.07769e-09
1.9981e-09
-2.11586e-08
2.0802e-10
1.80085e-09
-2.17112e-08
-1.28262e-09
1.83521e-09
-2.06171e-08
-3.02446e-09
1.93038e-09
-1.84183e-08
-4.10885e-09
1.91005e-09
-1.54173e-08
-4.71768e-09
1.71662e-09
-1.20311e-08
-4.67107e-09
1.28492e-09
-8.45693e-09
-4.04223e-09
4.68033e-10
-5.0616e-09
-2.79099e-09
-6.04349e-10
-2.2447e-09
-9.07163e-10
-1.90973e-09
-3.34935e-10
9.17681e-10
-2.82744e-09
2.07434e-09
-2.40927e-09
-1.82206e-09
6.00234e-09
-3.09254e-09
5.15329e-10
5.93717e-09
-8.17536e-09
4.19502e-09
4.85266e-09
-9.96976e-09
8.08263e-09
3.79944e-09
-1.05165e-08
1.18828e-08
3.3468e-09
-1.09695e-08
1.55529e-08
3.59312e-09
-1.17349e-08
1.90935e-08
4.59506e-09
-1.29551e-08
2.24147e-08
6.49789e-09
-1.46897e-08
2.53086e-08
9.47149e-09
-1.69651e-08
2.73665e-08
1.38859e-08
-1.97831e-08
2.82344e-08
1.94795e-08
-2.30314e-08
2.75258e-08
2.63091e-08
-2.64994e-08
2.54649e-08
3.22642e-08
-2.97723e-08
2.21144e-08
3.73478e-08
-3.27061e-08
1.79396e-08
4.11274e-08
-3.50821e-08
1.31725e-08
4.39084e-08
-3.68781e-08
8.04952e-09
4.56778e-08
-3.80813e-08
2.76212e-09
4.65542e-08
-3.87058e-08
-2.50197e-09
4.65516e-08
-3.87517e-08
-7.55522e-09
4.567e-08
-3.82188e-08
-1.22082e-08
4.38971e-08
-3.71068e-08
-1.62258e-08
4.11161e-08
-3.54025e-08
-1.93769e-08
3.73508e-08
-3.31221e-08
-2.11719e-08
3.2301e-08
-3.0298e-08
-2.16701e-08
2.64015e-08
-2.7186e-08
-2.05319e-08
1.97224e-08
-2.38851e-08
-1.81846e-08
1.44128e-08
-2.08689e-08
-1.49583e-08
1.04242e-08
-1.83682e-08
-1.12338e-08
8.1174e-09
-1.6513e-08
-7.19044e-09
7.19745e-09
-1.52831e-08
-2.99375e-09
7.52413e-09
-1.45118e-08
9.60446e-10
8.81496e-09
-1.36763e-08
3.14183e-09
1.00698e-08
-1.13335e-08
9.85929e-09
-4.64312e-09
-3.6864e-09
1.29068e-08
-3.21805e-09
-1.41187e-09
1.40395e-08
-1.03768e-08
2.7854e-09
1.3784e-08
-1.31286e-08
7.28096e-09
1.36383e-08
-1.43345e-08
1.16636e-08
1.43294e-08
-1.53652e-08
1.59175e-08
1.6079e-08
-1.67398e-08
2.01135e-08
1.91007e-08
-1.87017e-08
2.4225e-08
2.37651e-08
-2.13787e-08
2.80399e-08
3.0491e-08
-2.48344e-08
3.0953e-08
4.00655e-08
-2.90928e-08
3.23611e-08
5.2066e-08
-3.39946e-08
3.13105e-08
6.66354e-08
-3.92757e-08
2.85634e-08
7.92823e-08
-4.42711e-08
2.4457e-08
9.01236e-08
-4.86695e-08
1.96016e-08
9.82377e-08
-5.2255e-08
1.42224e-08
1.04265e-07
-5.49775e-08
8.54642e-09
1.08158e-07
-5.68039e-08
2.73427e-09
1.10119e-07
-5.77525e-08
-3.05364e-09
1.10161e-07
-5.7821e-08
-8.65666e-09
1.08282e-07
-5.70092e-08
-1.39151e-08
1.04475e-07
-5.53193e-08
-1.85999e-08
9.85361e-08
-5.27352e-08
-2.24868e-08
9.05321e-08
-4.92943e-08
-2.4961e-08
7.98323e-08
-4.50572e-08
-2.57099e-08
6.74086e-08
-4.02582e-08
-2.39355e-08
5.3166e-08
-3.5218e-08
-2.05976e-08
4.17061e-08
-3.06312e-08
-1.6237e-08
3.2837e-08
-2.67735e-08
-1.14095e-08
2.70917e-08
-2.38019e-08
-6.30432e-09
2.37246e-08
-2.16323e-08
-1.10123e-09
2.23012e-08
-1.99802e-08
3.62467e-09
2.22786e-08
-1.81895e-08
5.73447e-09
2.24395e-08
-1.44795e-08
2.06101e-08
-5.0163e-09
-5.01905e-09
2.05133e-08
-2.58741e-09
-2.6584e-09
2.25495e-08
-1.08706e-08
2.18633e-09
2.30346e-08
-1.40953e-08
7.52318e-09
2.388e-08
-1.55785e-08
1.2859e-08
2.58671e-08
-1.68736e-08
1.82097e-08
2.92895e-08
-1.85612e-08
2.37543e-08
3.44893e-08
-2.09332e-08
2.95697e-08
4.21037e-08
-2.4154e-08
3.5408e-08
5.29461e-08
-2.82933e-08
4.02555e-08
6.86176e-08
-3.33996e-08
4.28398e-08
8.87471e-08
-3.92653e-08
4.10343e-08
1.14148e-07
-4.57072e-08
3.6723e-08
1.35352e-07
-5.17586e-08
3.07621e-08
1.53163e-07
-5.7078e-08
2.41937e-08
1.66216e-07
-6.14097e-08
1.72131e-08
1.75928e-07
-6.46818e-08
1.00241e-08
1.82204e-07
-6.68576e-08
2.73748e-09
1.85389e-07
-6.79837e-08
-4.52456e-09
1.85483e-07
-6.80602e-08
-1.16387e-08
1.82483e-07
-6.70868e-08
-1.84926e-08
1.76391e-07
-6.50624e-08
-2.48748e-08
1.66862e-07
-6.19432e-08
-3.0586e-08
1.54013e-07
-5.77695e-08
-3.45695e-08
1.36441e-07
-5.26254e-08
-3.59737e-08
1.15598e-07
-4.67852e-08
-3.28794e-08
9.06815e-08
-4.06097e-08
-2.74368e-08
7.13572e-08
-3.50937e-08
-2.08113e-08
5.66336e-08
-3.04221e-08
-1.39592e-08
4.70321e-08
-2.67924e-08
-7.13514e-09
4.09826e-08
-2.4082e-08
-5.38273e-10
3.76738e-08
-2.19695e-08
5.21765e-09
3.62738e-08
-1.97512e-08
7.52231e-09
3.55083e-08
-1.53735e-08
3.25022e-08
-4.36987e-09
-5.78071e-09
2.80707e-08
-1.77674e-09
-2.99982e-09
3.07917e-08
-1.10232e-08
2.78761e-09
3.18929e-08
-1.46458e-08
9.29999e-09
3.36955e-08
-1.63279e-08
1.60007e-08
3.70007e-08
-1.78344e-08
2.29995e-08
4.21101e-08
-1.98192e-08
3.0673e-08
4.94271e-08
-2.26113e-08
3.93358e-08
5.98409e-08
-2.64e-08
4.87644e-08
7.47407e-08
-3.12232e-08
5.73249e-08
9.72184e-08
-3.71613e-08
6.23226e-08
1.27654e-07
-4.39045e-08
5.88448e-08
1.69282e-07
-5.16562e-08
5.14311e-08
2.016e-07
-5.88343e-08
4.20503e-08
2.27768e-07
-6.5225e-08
3.24532e-08
2.46263e-07
-7.04502e-08
2.26449e-08
2.60068e-07
-7.43317e-08
1.27496e-08
2.68968e-07
-7.68686e-08
2.80006e-09
2.73512e-07
-7.81731e-08
-7.12592e-09
2.73663e-07
-7.82543e-08
-1.69483e-08
2.69417e-07
-7.71115e-08
-2.66295e-08
2.60805e-07
-7.47332e-08
-3.60287e-08
2.47271e-07
-7.10106e-08
-4.51263e-08
2.29058e-07
-6.59471e-08
-5.21378e-08
2.0319e-07
-5.97368e-08
-5.50922e-08
1.71333e-07
-5.27802e-08
-4.93979e-08
1.30299e-07
-4.53114e-08
-4.00715e-08
1.00983e-07
-3.89522e-08
-2.96161e-08
7.9663e-08
-3.34848e-08
-1.95982e-08
6.6226e-08
-2.92118e-08
-1.02683e-08
5.76271e-08
-2.59744e-08
-1.67993e-09
5.25471e-08
-2.34616e-08
5.55399e-09
4.99255e-08
-2.08856e-08
8.54102e-09
4.84379e-08
-1.59166e-08
4.45417e-08
-3.49841e-09
-6.14645e-09
3.51873e-08
-9.7012e-10
-2.53521e-09
3.84485e-08
-1.1268e-08
4.60176e-09
4.00992e-08
-1.53432e-08
1.27e-08
4.28435e-08
-1.72462e-08
2.11903e-08
4.75036e-08
-1.89932e-08
3.03403e-08
5.42952e-08
-2.13351e-08
4.08489e-08
6.35447e-08
-2.46262e-08
5.35578e-08
7.6194e-08
-2.90621e-08
6.85762e-08
9.42763e-08
-3.4554e-08
8.38038e-08
1.23172e-07
-4.1181e-08
9.38524e-08
1.65787e-07
-4.8182e-08
8.68936e-08
2.33483e-07
-5.72418e-08
7.39232e-08
2.80154e-07
-6.55832e-08
5.90647e-08
3.16058e-07
-7.34313e-08
4.49444e-08
3.40348e-07
-7.9965e-08
3.0927e-08
3.58695e-07
-8.46105e-08
1.69427e-08
3.70512e-07
-8.75592e-08
2.92939e-09
3.76587e-07
-8.90621e-08
-1.10645e-08
3.76805e-07
-8.91481e-08
-2.49876e-08
3.71156e-07
-8.78157e-08
-3.88937e-08
3.59744e-07
-8.50324e-08
-5.28238e-08
3.41753e-07
-8.05519e-08
-6.7382e-08
3.17799e-07
-7.41834e-08
-7.98726e-08
2.82202e-07
-6.6522e-08
-8.61593e-08
2.36038e-07
-5.8419e-08
-7.51529e-08
1.68947e-07
-4.9655e-08
-5.90221e-08
1.27934e-07
-4.3082e-08
-4.27451e-08
1.00359e-07
-3.69729e-08
-2.8332e-08
8.39101e-08
-3.20973e-08
-1.5716e-08
7.33004e-08
-2.82893e-08
-4.49928e-09
6.66705e-08
-2.53401e-08
4.81607e-09
6.29634e-08
-2.23532e-08
9.06419e-09
6.0869e-08
-1.66792e-08
5.62523e-08
-2.64641e-09
-6.25307e-09
4.16469e-08
-2.06569e-10
-1.34174e-09
4.52801e-08
-1.17429e-08
7.62561e-09
4.75198e-08
-1.6388e-08
1.7774e-08
5.12657e-08
-1.85706e-08
2.84587e-08
5.74299e-08
-2.06111e-08
4.01129e-08
6.60158e-08
-2.33747e-08
5.386e-08
7.70195e-08
-2.7222e-08
7.15455e-08
9.08338e-08
-3.23252e-08
9.44339e-08
1.09719e-07
-3.83316e-08
1.20745e-07
1.4198e-07
-4.51191e-08
1.42006e-07
1.95323e-07
-5.07964e-08
1.27532e-07
3.08619e-07
-6.06625e-08
1.04938e-07
3.72421e-07
-6.9672e-08
8.20533e-08
4.18507e-07
-7.95643e-08
6.1923e-08
4.48615e-07
-8.81366e-08
4.22934e-08
4.71902e-07
-9.35768e-08
2.27439e-08
4.86988e-07
-9.69263e-08
3.13779e-09
4.94812e-07
-9.86193e-08
-1.64583e-08
4.95111e-07
-9.87101e-08
-3.59744e-08
4.87868e-07
-9.71964e-08
-5.5538e-08
4.73327e-07
-9.40189e-08
-7.5528e-08
4.50495e-07
-8.87516e-08
-9.81415e-08
4.20761e-07
-8.03486e-08
-1.20194e-07
3.74912e-07
-7.06575e-08
-1.33817e-07
3.11584e-07
-6.19219e-08
-1.11183e-07
1.98676e-07
-5.23627e-08
-8.39341e-08
1.47859e-07
-4.71738e-08
-5.95856e-08
1.16963e-07
-4.09525e-08
-3.97846e-08
9.97633e-08
-3.56542e-08
-2.33351e-08
8.81375e-08
-3.12865e-08
-8.91963e-09
8.01251e-08
-2.78701e-08
3.14804e-09
7.52872e-08
-2.43915e-08
9.29331e-09
7.25489e-08
-1.78253e-08
6.7328e-08
-1.78245e-09
-6.17633e-09
4.70724e-08
7.50849e-10
5.64167e-10
5.10257e-08
-1.24862e-08
1.20415e-08
5.39023e-08
-1.78598e-08
2.48624e-08
5.88345e-08
-2.03897e-08
3.82282e-08
6.68545e-08
-2.27903e-08
5.2563e-08
7.77349e-08
-2.60539e-08
6.91961e-08
9.09249e-08
-3.05384e-08
9.12108e-08
1.05225e-07
-3.64059e-08
1.22359e-07
1.21341e-07
-4.27702e-08
1.66665e-07
1.47327e-07
-4.96528e-08
2.13271e-07
1.97238e-07
-4.85215e-08
1.83331e-07
3.94941e-07
-5.63823e-08
1.46133e-07
4.75391e-07
-6.57724e-08
1.12855e-07
5.31339e-07
-7.95541e-08
8.53647e-08
5.67732e-07
-9.16265e-08
5.83016e-08
5.96825e-07
-9.78603e-08
3.09816e-08
6.1589e-07
-1.01582e-07
3.44977e-09
6.25803e-07
-1.03459e-07
-2.40872e-08
6.26202e-07
-1.03554e-07
-5.14225e-08
6.17068e-07
-1.01865e-07
-7.85101e-08
5.98735e-07
-9.83212e-08
-1.05987e-07
5.70244e-07
-9.22716e-08
-1.39145e-07
5.34296e-07
-8.03775e-08
-1.75851e-07
4.78444e-07
-6.68255e-08
-2.04698e-07
3.98234e-07
-5.78033e-08
-1.55995e-07
2.00171e-07
-5.01981e-08
-1.1097e-07
1.54656e-07
-5.1822e-08
-7.81769e-08
1.29756e-07
-4.55862e-08
-5.35201e-08
1.15181e-07
-4.00749e-08
-3.33825e-08
1.03101e-07
-3.51016e-08
-1.5306e-08
9.32228e-08
-3.11742e-08
2.50475e-10
8.68306e-08
-2.70998e-08
9.20732e-09
8.29989e-08
-1.94068e-08
7.73546e-08
-8.19213e-10
-5.91076e-09
5.11696e-08
1.81358e-09
3.21755e-09
5.53902e-08
-1.34928e-08
1.79763e-08
5.89473e-08
-1.98038e-08
3.42323e-08
6.53242e-08
-2.27457e-08
5.08916e-08
7.57549e-08
-2.55597e-08
6.79991e-08
8.99847e-08
-2.93573e-08
8.63856e-08
1.07047e-07
-3.4509e-08
1.09582e-07
1.23177e-07
-4.11478e-08
1.44532e-07
1.34829e-07
-4.84381e-08
2.16494e-07
1.29322e-07
-5.3957e-08
3.14545e-07
1.52101e-07
-5.2914e-08
2.52861e-07
5.01596e-07
-4.49702e-08
1.94235e-07
5.846e-07
-5.05825e-08
1.4984e-07
6.45676e-07
-6.99431e-08
1.14363e-07
6.89844e-07
-8.6634e-08
7.84455e-08
7.25695e-07
-9.2953e-08
4.14558e-08
7.50156e-07
-9.72762e-08
3.89625e-09
7.62794e-07
-9.94316e-08
-3.36884e-08
7.63311e-07
-9.95247e-08
-7.07605e-08
7.51692e-07
-9.75516e-08
-1.06837e-07
7.28208e-07
-9.33957e-08
-1.42534e-07
6.93198e-07
-8.72577e-08
-1.8715e-07
6.49645e-07
-7.07324e-08
-2.45593e-07
5.88515e-07
-5.16288e-08
-3.0569e-07
5.04818e-07
-4.64869e-08
-2.04353e-07
1.53905e-07
-5.50706e-08
-1.32972e-07
1.39674e-07
-5.63985e-08
-9.59411e-08
1.4423e-07
-5.15055e-08
-6.93637e-08
1.33868e-07
-4.52639e-08
-4.63767e-08
1.19847e-07
-3.97321e-08
-2.41151e-08
1.06291e-07
-3.53301e-08
-3.73317e-09
9.71263e-08
-3.06777e-08
8.82708e-09
9.18666e-08
-2.14279e-08
8.59308e-08
2.5088e-10
-5.25969e-09
5.34893e-08
2.93993e-09
7.08135e-09
5.78564e-08
-1.48072e-08
2.62521e-08
6.20198e-08
-2.22432e-08
4.7486e-08
6.98011e-08
-2.57109e-08
6.94055e-08
8.28942e-08
-2.90588e-08
9.1223e-08
1.01704e-07
-3.35367e-08
1.12077e-07
1.25735e-07
-3.95408e-08
1.31904e-07
1.51501e-07
-4.81519e-08
1.48333e-07
1.75271e-07
-5.68711e-08
2.02823e-07
1.47318e-07
-7.24865e-08
4.36416e-07
-8.14916e-08
3.45137e-07
6.05184e-07
-1.23092e-08
2.62602e-07
6.72223e-07
-5.08896e-09
2.07096e-07
7.24578e-07
-2.33958e-08
1.61394e-07
7.77792e-07
-4.22457e-08
1.11105e-07
8.19926e-07
-4.39423e-08
5.81482e-08
8.49573e-07
-4.64604e-08
4.5343e-09
8.64471e-07
-4.80627e-08
-4.91155e-08
8.65087e-07
-4.81262e-08
-1.02202e-07
8.5143e-07
-4.66509e-08
-1.52785e-07
8.2302e-07
-4.42295e-08
-1.98993e-07
7.82103e-07
-4.26968e-08
-2.55312e-07
7.29935e-07
-2.3972e-08
-3.39182e-07
6.78219e-07
-5.83364e-09
-4.29966e-07
6.09357e-07
-1.37555e-08
-1.91463e-07
-8.45981e-08
-1.35305e-07
1.57735e-07
-7.42186e-08
-1.17818e-07
1.86409e-07
-5.96663e-08
-9.40144e-08
1.62728e-07
-5.26637e-08
-6.72753e-08
1.38719e-07
-4.56116e-08
-3.85317e-08
1.18232e-07
-4.06841e-08
-1.09372e-08
1.04881e-07
-3.53497e-08
7.40216e-09
9.77311e-08
-2.42039e-08
9.14602e-08
1.87273e-09
-4.39034e-09
5.37949e-08
4.08475e-09
1.17427e-08
5.81287e-08
-1.64053e-08
3.62016e-08
6.26991e-08
-2.51383e-08
6.37577e-08
7.14919e-08
-2.9247e-08
9.30106e-08
8.68607e-08
-3.32194e-08
1.22093e-07
1.10768e-07
-3.81461e-08
1.45194e-07
1.46687e-07
-4.40536e-08
1.47073e-07
1.99286e-07
-4.96635e-08
1.13369e-07
2.75834e-07
-6.68584e-08
3.74248e-07
-1.13561e-07
1.95404e-07
3.27534e-07
8.22462e-08
2.61425e-07
5.56445e-07
4.97577e-08
2.57954e-07
6.85795e-07
4.22528e-08
2.1094e-07
7.81162e-07
4.36449e-08
1.46252e-07
8.44632e-07
3.99813e-08
7.65523e-08
8.84368e-07
3.49049e-08
5.35077e-09
9.03357e-07
3.23152e-08
-6.58931e-08
9.04013e-07
3.23179e-08
-1.35742e-07
8.86373e-07
3.49053e-08
-2.00791e-07
8.4808e-07
3.99895e-08
-2.4865e-07
7.86272e-07
4.36906e-08
-2.54071e-07
6.92942e-07
4.24137e-08
-1.91274e-07
5.65779e-07
4.96429e-08
3.37217e-07
8.08663e-08
-1.0956e-07
3.77625e-07
-1.1033e-07
-1.3723e-07
2.83287e-07
-6.92074e-08
-1.28266e-07
2.08678e-07
-5.49141e-08
-9.68246e-08
1.58671e-07
-5.13932e-08
-5.83546e-08
1.26721e-07
-4.69595e-08
-2.09344e-08
1.0865e-07
-4.11893e-08
5.07343e-09
9.95577e-08
-2.78345e-08
9.32476e-08
3.28603e-09
-3.02648e-09
5.16174e-08
5.20398e-09
1.76054e-08
5.57041e-08
-1.82073e-08
4.88285e-08
5.98544e-08
-2.83783e-08
8.58661e-08
6.77985e-08
-3.33442e-08
1.29689e-07
8.14565e-08
-3.84192e-08
1.83383e-07
1.01946e-07
-4.48717e-08
2.52215e-07
1.30423e-07
-5.25673e-08
3.42799e-07
1.67054e-07
-5.8353e-08
4.68228e-07
2.10265e-07
-5.98604e-08
6.23359e-07
2.60722e-07
-4.16052e-08
4.87628e-07
8.6667e-08
4.90638e-08
4.92002e-07
2.31801e-07
9.13589e-08
4.70132e-07
4.18377e-07
1.59938e-07
4.00598e-07
5.37311e-07
2.18018e-07
3.05075e-07
6.25951e-07
2.50734e-07
2.02922e-07
6.84525e-07
2.6226e-07
1.03356e-07
7.20932e-07
2.63002e-07
6.18308e-09
7.38399e-07
2.62131e-07
-9.09682e-08
7.38981e-07
2.62184e-07
-1.9046e-07
7.22699e-07
2.63166e-07
-2.92497e-07
6.87539e-07
2.62579e-07
-3.87915e-07
6.30305e-07
2.51385e-07
-4.57409e-07
5.43071e-07
2.19365e-07
-4.78971e-07
4.25166e-07
1.62176e-07
-4.76772e-07
2.39768e-07
9.52489e-08
-6.17811e-07
8.828e-08
5.27594e-08
-4.62585e-07
2.63416e-07
-4.10172e-08
-3.32692e-07
2.16292e-07
-6.28976e-08
-2.35067e-07
1.75456e-07
-6.44025e-08
-1.56658e-07
1.41672e-07
-6.141e-08
-9.14788e-08
1.17247e-07
-5.57051e-08
-3.68069e-08
1.02527e-07
-4.8548e-08
-9.67542e-11
9.51815e-08
-3.2334e-08
8.87291e-08
4.42176e-09
-2.06609e-09
4.73872e-08
6.2963e-09
2.24511e-08
5.10711e-08
-1.98843e-08
5.92767e-08
5.44775e-08
-3.14486e-08
1.0345e-07
6.08627e-08
-3.72376e-08
1.56641e-07
7.15662e-08
-4.33009e-08
2.22776e-07
8.6869e-08
-5.10581e-08
3.06922e-07
1.06344e-07
-6.00668e-08
4.12416e-07
1.28531e-07
-6.697e-08
5.41447e-07
1.48545e-07
-6.73113e-08
6.87998e-07
1.64438e-07
-5.02674e-08
6.83877e-07
1.06096e-07
-1.53077e-08
6.66614e-07
1.93696e-07
5.53682e-08
6.05753e-07
3.06902e-07
1.72337e-07
4.99543e-07
3.91896e-07
2.51624e-07
3.74562e-07
4.56877e-07
2.94056e-07
2.4705e-07
4.9925e-07
3.12787e-07
1.24836e-07
5.25683e-07
3.17463e-07
6.84999e-09
5.38338e-07
3.18047e-07
-1.11093e-07
5.38815e-07
3.18109e-07
-2.3317e-07
5.27118e-07
3.17658e-07
-3.60472e-07
5.01658e-07
3.13183e-07
-4.8528e-07
4.60256e-07
2.94856e-07
-5.91691e-07
3.96195e-07
2.53286e-07
-6.53521e-07
3.11831e-07
1.75165e-07
-6.72668e-07
1.98824e-07
6.00914e-08
-6.8084e-07
1.08717e-07
-1.22657e-08
-5.35412e-07
1.68294e-07
-5.03065e-08
-4.0244e-07
1.54219e-07
-7.08994e-08
-2.89353e-07
1.36294e-07
-7.39256e-08
-1.94236e-07
1.16844e-07
-7.02883e-08
-1.14521e-07
1.01226e-07
-6.3694e-08
-4.7924e-08
9.12266e-08
-5.52974e-08
-2.29265e-09
8.60913e-08
-3.65411e-08
8.04679e-08
5.96856e-09
-1.34139e-09
4.14014e-08
7.32725e-09
2.64128e-08
4.46098e-08
-2.12928e-08
6.78618e-08
4.71263e-08
-3.40978e-08
1.17609e-07
5.1737e-08
-4.06216e-08
1.77449e-07
5.93224e-08
-4.75962e-08
2.51297e-07
6.97535e-08
-5.67322e-08
3.4321e-07
8.21563e-08
-6.77262e-08
4.54381e-07
9.53204e-08
-7.79602e-08
5.80298e-07
1.05529e-07
-8.29012e-08
7.04331e-07
1.14661e-07
-7.42554e-08
7.52788e-07
1.03255e-07
-4.56166e-08
7.58625e-07
1.53841e-07
3.40186e-08
6.87267e-07
2.21307e-07
1.56954e-07
5.6476e-07
2.76731e-07
2.37671e-07
4.2008e-07
3.19847e-07
2.8171e-07
2.75592e-07
3.47878e-07
2.9586e-07
1.38736e-07
3.65569e-07
2.9697e-07
7.3634e-09
3.74076e-07
2.95635e-07
-1.23958e-07
3.74474e-07
2.95662e-07
-2.60658e-07
3.66758e-07
2.97061e-07
-4.04925e-07
3.49835e-07
2.96089e-07
-5.49484e-07
3.22523e-07
2.82293e-07
-6.72443e-07
2.80049e-07
2.39105e-07
-7.45224e-07
2.25043e-07
1.59569e-07
-7.42757e-07
1.57802e-07
3.85548e-08
-6.97624e-07
1.06439e-07
-4.28545e-08
-5.73738e-07
1.18709e-07
-7.43018e-08
-4.43728e-07
1.10904e-07
-8.66947e-08
-3.24443e-07
1.02483e-07
-8.54738e-08
-2.20429e-07
9.17601e-08
-7.89304e-08
-1.31265e-07
8.27607e-08
-7.06986e-08
-5.59591e-08
7.68534e-08
-6.09325e-08
-3.7347e-09
7.37573e-08
-3.98903e-08
6.91295e-08
7.60369e-09
-1.07211e-09
3.4251e-08
8.22245e-09
2.90207e-08
3.69106e-08
-2.23937e-08
7.37085e-08
3.86505e-08
-3.6212e-08
1.27016e-07
4.17573e-08
-4.33277e-08
1.90534e-07
4.68231e-08
-5.10185e-08
2.67902e-07
5.362e-08
-6.12347e-08
3.62439e-07
6.13855e-08
-7.37662e-08
4.74542e-07
6.94793e-08
-8.62619e-08
5.97894e-07
7.59892e-08
-9.38125e-08
7.16785e-07
8.39261e-08
-8.81556e-08
7.92033e-07
8.81262e-08
-6.01194e-08
8.10386e-07
1.19857e-07
1.56306e-08
7.33898e-07
1.6158e-07
1.36214e-07
6.02638e-07
1.97089e-07
2.10903e-07
4.47334e-07
2.25007e-07
2.50144e-07
2.93164e-07
2.43528e-07
2.5852e-07
1.47475e-07
2.5537e-07
2.55888e-07
7.76684e-09
2.61149e-07
2.52636e-07
-1.31901e-07
2.61516e-07
2.52626e-07
-2.77465e-07
2.56458e-07
2.55864e-07
-4.31474e-07
2.45291e-07
2.58553e-07
-5.86766e-07
2.27368e-07
2.50448e-07
-7.18671e-07
1.99951e-07
2.12002e-07
-7.96904e-07
1.64786e-07
1.3849e-07
-7.82368e-07
1.2337e-07
1.98957e-08
-7.09886e-07
9.14968e-08
-5.75397e-08
-5.90739e-07
8.79466e-08
-8.83841e-08
-4.6298e-07
8.09885e-08
-9.78444e-08
-3.42198e-07
7.59141e-08
-9.42118e-08
-2.34597e-07
6.98263e-08
-8.56681e-08
-1.40553e-07
6.48295e-08
-7.61128e-08
-6.01051e-08
6.1605e-08
-6.51991e-08
-3.92618e-09
5.98819e-08
-4.23036e-08
5.62252e-08
8.97811e-09
-1.03922e-09
2.63431e-08
8.94711e-09
3.06901e-08
2.84028e-08
-2.32216e-08
7.76225e-08
2.95234e-08
-3.78054e-08
1.33263e-07
3.14804e-08
-4.53633e-08
1.98972e-07
3.4694e-08
-5.35802e-08
2.78169e-07
3.9009e-08
-6.45857e-08
3.73816e-07
4.39726e-08
-7.82339e-08
4.86173e-07
4.93944e-08
-9.22726e-08
6.09154e-07
5.45297e-08
-1.01521e-07
7.28985e-07
6.17481e-08
-9.7653e-08
8.17039e-07
6.96796e-08
-6.96076e-08
8.41938e-07
9.05424e-08
4.41627e-09
7.63397e-07
1.1682e-07
1.23301e-07
6.26958e-07
1.39756e-07
1.93771e-07
4.64945e-07
1.57957e-07
2.29063e-07
3.04574e-07
1.70381e-07
2.33518e-07
1.53207e-07
1.78449e-07
2.28287e-07
8.13262e-09
1.82493e-07
2.23731e-07
-1.36917e-07
1.82867e-07
2.23699e-07
-2.88209e-07
1.7955e-07
2.28199e-07
-4.485e-07
1.72145e-07
2.33437e-07
-6.10616e-07
1.60284e-07
2.292e-07
-7.47853e-07
1.42522e-07
1.94667e-07
-8.28296e-07
1.19869e-07
1.25359e-07
-8.07442e-07
9.37979e-08
8.71886e-09
-7.21808e-07
7.30221e-08
-6.71595e-08
-6.01403e-07
6.55389e-08
-9.79971e-08
-4.73671e-07
5.89926e-08
-1.05737e-07
-3.52121e-07
5.4897e-08
-1.00533e-07
-2.42641e-07
5.09552e-08
-9.06088e-08
-1.45774e-07
4.80208e-08
-8.00587e-08
-6.21695e-08
4.62644e-08
-6.82634e-08
-3.62852e-09
4.53173e-08
-4.39764e-08
4.2569e-08
1.00277e-08
-1.15462e-09
1.80371e-08
9.46067e-09
3.16256e-08
1.94478e-08
-2.38252e-08
7.99925e-08
2.00928e-08
-3.89363e-08
1.37067e-07
2.1197e-08
-4.67914e-08
2.04048e-07
2.30622e-08
-5.53492e-08
2.84255e-07
2.56536e-08
-6.68514e-08
3.80592e-07
2.8817e-08
-8.11814e-08
4.93484e-07
3.2601e-08
-9.60983e-08
6.1741e-07
3.68627e-08
-1.06259e-07
7.394e-07
4.29507e-08
-1.03192e-07
8.33796e-07
5.05299e-08
-7.52465e-08
8.62497e-07
6.39304e-08
-2.08947e-09
7.82582e-07
7.97132e-08
1.17023e-07
6.42813e-07
9.3791e-08
1.85734e-07
4.76611e-07
1.05073e-07
2.19086e-07
3.12274e-07
1.13077e-07
2.2164e-07
1.57171e-07
1.18389e-07
2.15164e-07
8.49866e-09
1.21175e-07
2.0999e-07
-1.40171e-07
1.21583e-07
2.09953e-07
-2.95264e-07
1.19589e-07
2.15055e-07
-4.59625e-07
1.14986e-07
2.2152e-07
-6.26066e-07
1.07563e-07
2.19161e-07
-7.66787e-07
9.66958e-08
1.86548e-07
-8.48757e-07
8.28509e-08
1.18988e-07
-8.24095e-07
6.71358e-08
2.00038e-09
-7.31953e-07
5.37909e-08
-7.29115e-08
-6.09171e-07
4.64206e-08
-1.03663e-07
-4.80209e-07
4.0684e-08
-1.10654e-07
-3.57723e-07
3.70271e-08
-1.04616e-07
-2.46999e-07
3.41376e-08
-9.39065e-08
-1.48452e-07
3.22102e-08
-8.27365e-08
-6.29911e-08
3.11604e-08
-7.03569e-08
-3.15063e-09
3.05972e-08
-4.51204e-08
2.87284e-08
1.069e-08
-1.27927e-09
9.56781e-09
9.74854e-09
3.21018e-08
1.03055e-08
-2.42388e-08
8.13115e-08
1.05474e-08
-3.96643e-08
1.39247e-07
1.09515e-08
-4.76895e-08
2.07029e-07
1.17149e-08
-5.64353e-08
2.87962e-07
1.29263e-08
-6.82052e-08
3.8498e-07
1.46943e-08
-8.28958e-08
4.98644e-07
1.71919e-08
-9.8255e-08
6.23758e-07
2.06039e-08
-1.08855e-07
7.47563e-07
2.52556e-08
-1.0611e-07
8.45135e-07
3.11223e-08
-7.81652e-08
8.75525e-07
3.83266e-08
-4.78552e-09
7.94773e-07
4.5672e-08
1.14792e-07
6.52952e-07
5.23491e-08
1.83263e-07
4.84206e-07
5.77624e-08
2.16057e-07
3.17385e-07
6.19138e-08
2.17984e-07
1.59897e-07
6.48021e-08
2.11075e-07
8.89657e-09
6.64874e-08
2.05688e-07
-1.42129e-07
6.69567e-08
2.05652e-07
-2.99689e-07
6.61788e-08
2.1097e-07
-4.66662e-07
6.4092e-08
2.17867e-07
-6.35812e-07
6.05833e-08
2.1613e-07
-7.78763e-07
5.55865e-08
1.84061e-07
-8.61757e-07
4.90955e-08
1.16749e-07
-8.35346e-07
4.17182e-08
-9.92945e-10
-7.39985e-07
3.43329e-08
-7.59024e-08
-6.15251e-07
2.83971e-08
-1.06711e-07
-4.84901e-07
2.37587e-08
-1.13425e-07
-3.61377e-07
2.04997e-08
-1.06997e-07
-2.49627e-07
1.82844e-08
-9.58972e-08
-1.49958e-07
1.69383e-08
-8.43972e-08
-6.33701e-08
1.6262e-08
-7.16889e-08
-2.80055e-09
1.59132e-08
-4.58856e-08
1.49147e-08
1.10132e-08
-1.36878e-09
1.13491e-09
9.80168e-09
3.2226e-08
1.19374e-09
-2.4483e-08
8.17722e-08
1.02728e-09
-4.00261e-08
1.40104e-07
7.24893e-10
-4.81049e-08
2.08349e-07
3.71148e-10
-5.69015e-08
2.89849e-07
1.63716e-10
-6.87371e-08
3.87579e-07
4.78311e-10
-8.35145e-08
5.02127e-07
1.61256e-09
-9.89686e-08
6.28282e-07
4.10725e-09
-1.09658e-07
7.53141e-07
7.36774e-09
-1.06972e-07
8.51574e-07
1.17444e-08
-7.90547e-08
8.82136e-07
1.33322e-08
-5.56705e-09
8.00841e-07
1.24813e-08
1.14485e-07
6.58051e-07
1.18348e-08
1.83305e-07
4.88187e-07
1.13665e-08
2.16259e-07
3.20201e-07
1.16488e-08
2.18252e-07
1.6154e-07
1.21116e-08
2.11351e-07
9.35083e-09
1.27125e-08
2.05964e-07
-1.42897e-07
1.32736e-08
2.05931e-07
-3.0173e-07
1.37589e-08
2.11253e-07
-4.7003e-07
1.42505e-08
2.18141e-07
-6.40507e-07
1.47256e-08
2.16335e-07
-7.84649e-07
1.56405e-08
1.84088e-07
-8.68376e-07
1.64113e-08
1.16412e-07
-8.41896e-07
1.70021e-08
-1.76464e-09
-7.45638e-07
1.49849e-08
-7.69103e-08
-6.19773e-07
1.02707e-08
-1.07738e-07
-4.88281e-07
6.69183e-09
-1.14425e-07
-3.63756e-07
3.90697e-09
-1.07932e-07
-2.51157e-07
2.4417e-09
-9.67567e-08
-1.50768e-07
1.72932e-09
-8.51803e-08
-6.35869e-08
1.45751e-09
-7.23765e-08
-2.66524e-09
1.34437e-09
-4.63528e-08
1.23071e-09
1.10187e-08
-1.42708e-09
-7.05811e-09
9.6201e-09
3.19941e-08
-7.66443e-09
-2.4563e-08
8.13679e-08
-8.31797e-09
-4.00285e-08
1.39628e-07
-9.48843e-09
-4.8047e-08
2.07988e-07
-1.12253e-08
-5.67632e-08
2.89861e-07
-1.32343e-08
-6.84748e-08
3.88294e-07
-1.48865e-08
-8.30687e-08
5.03834e-07
-1.56443e-08
-9.82824e-08
6.30949e-07
-1.42857e-08
-1.08722e-07
7.56245e-07
-1.20799e-08
-1.05848e-07
8.53353e-07
-7.34595e-09
-7.80178e-08
8.82445e-07
-1.12333e-08
-4.52603e-09
8.00784e-07
-2.16103e-08
1.15752e-07
6.58067e-07
-3.08142e-08
1.85365e-07
4.88521e-07
-3.81968e-08
2.1911e-07
3.20709e-07
-4.23407e-08
2.21801e-07
1.62109e-07
-4.46043e-08
2.15317e-07
9.88692e-09
-4.51902e-08
2.10124e-07
-1.42434e-07
-4.44944e-08
2.10089e-07
-3.01328e-07
-4.25549e-08
2.15208e-07
-4.6965e-07
-3.90951e-08
2.21667e-07
-6.40079e-07
-3.39851e-08
2.19139e-07
-7.84441e-07
-2.60606e-08
1.86064e-07
-8.68818e-07
-1.67535e-08
1.17542e-07
-8.43951e-07
-6.85335e-09
-1.01147e-09
-7.49018e-07
-3.85366e-09
-7.6095e-08
-6.22704e-07
-9.19182e-09
-1.06852e-07
-4.90259e-07
-1.20223e-08
-1.13731e-07
-3.6478e-07
-1.4093e-08
-1.07479e-07
-2.51537e-07
-1.42738e-08
-9.65267e-08
-1.50851e-07
-1.38414e-08
-8.51154e-08
-6.36207e-08
-1.33322e-08
-7.24409e-08
-2.72934e-09
-1.30103e-08
-4.65367e-08
-1.22025e-08
1.07039e-08
-1.50404e-09
-1.47616e-08
9.20753e-09
3.12951e-08
-1.59965e-08
-2.4467e-08
7.98972e-08
-1.72708e-08
-3.96492e-08
1.37481e-07
-1.9585e-08
-4.74877e-08
2.05424e-07
-2.31874e-08
-5.59805e-08
2.8731e-07
-2.77664e-08
-6.73536e-08
3.86355e-07
-3.24545e-08
-8.14776e-08
5.03097e-07
-3.63225e-08
-9.60636e-08
6.31542e-07
-3.68895e-08
-1.05841e-07
7.57356e-07
-3.55203e-08
-1.02374e-07
8.50406e-07
-2.58146e-08
-7.45811e-08
8.75668e-07
-3.54418e-08
-1.05342e-09
7.93748e-07
-5.95893e-08
1.19899e-07
6.52299e-07
-8.07116e-08
1.91346e-07
4.84754e-07
-9.76287e-08
2.26978e-07
3.18652e-07
-1.07711e-07
2.31471e-07
1.61507e-07
-1.13559e-07
2.261e-07
1.05528e-08
-1.15669e-07
2.21433e-07
-1.40547e-07
-1.14765e-07
2.2137e-07
-2.98129e-07
-1.10879e-07
2.25906e-07
-4.64979e-07
-1.03432e-07
2.31187e-07
-6.33754e-07
-9.2e-08
2.2679e-07
-7.77242e-07
-7.43296e-08
1.91757e-07
-8.62229e-07
-5.30856e-08
1.21319e-07
-8.41544e-07
-2.99744e-08
2.43595e-09
-7.50571e-07
-2.17862e-08
-7.30401e-08
-6.23762e-07
-3.2252e-08
-1.03749e-07
-4.90097e-07
-3.45001e-08
-1.11188e-07
-3.63614e-07
-3.50366e-08
-1.05539e-07
-2.50048e-07
-3.27045e-08
-9.51353e-08
-1.49693e-07
-3.00618e-08
-8.41347e-08
-6.31703e-08
-2.8039e-08
-7.18158e-08
-2.88631e-09
-2.69052e-08
-4.63891e-08
-2.51282e-08
1.00394e-08
-1.72895e-09
-2.1603e-08
8.57038e-09
2.98669e-08
-2.34237e-08
-2.41687e-08
7.68842e-08
-2.54413e-08
-3.88469e-08
1.3286e-07
-2.9187e-08
-4.63736e-08
1.99377e-07
-3.52289e-08
-5.44752e-08
2.80292e-07
-4.3437e-08
-6.52454e-08
3.7931e-07
-5.29662e-08
-7.85063e-08
4.97397e-07
-6.25395e-08
-9.18697e-08
6.28688e-07
-6.78896e-08
-1.00291e-07
7.57211e-07
-6.86989e-08
-9.53444e-08
8.41479e-07
-4.21972e-08
-6.78855e-08
8.58595e-07
-5.94528e-08
6.89516e-09
7.76302e-07
-1.05675e-07
1.28378e-07
6.37841e-07
-1.45537e-07
2.03287e-07
4.74957e-07
-1.76967e-07
2.42222e-07
3.1295e-07
-1.95889e-07
2.50186e-07
1.59283e-07
-2.06942e-07
2.4705e-07
1.14047e-08
-2.11248e-07
2.43458e-07
-1.36666e-07
-2.10017e-07
2.43323e-07
-2.90922e-07
-2.03258e-07
2.46635e-07
-4.53945e-07
-1.89933e-07
2.49524e-07
-6.1849e-07
-1.68962e-07
2.41507e-07
-7.59526e-07
-1.36343e-07
2.0305e-07
-8.45556e-07
-9.61846e-08
1.29129e-07
-8.33321e-07
-5.18107e-08
9.60171e-09
-7.50918e-07
-3.73274e-08
-6.68621e-08
-6.21464e-07
-6.44167e-08
-9.72893e-08
-4.85182e-07
-6.46572e-08
-1.06125e-07
-3.57719e-07
-6.08153e-08
-1.01685e-07
-2.44693e-07
-5.34021e-08
-9.23282e-08
-1.4594e-07
-4.67599e-08
-8.20543e-08
-6.14568e-08
-4.21751e-08
-7.03474e-08
-2.83208e-09
-3.97343e-08
-4.57956e-08
-3.69324e-08
8.97212e-09
-2.15772e-09
-2.71896e-08
7.74433e-09
2.7569e-08
-2.95144e-08
-2.3636e-08
7.20517e-08
-3.23318e-08
-3.75922e-08
1.25208e-07
-3.76623e-08
-4.46812e-08
1.88755e-07
-4.65402e-08
-5.2236e-08
2.66803e-07
-5.93142e-08
-6.21703e-08
3.63846e-07
-7.57606e-08
-7.42487e-08
4.82109e-07
-9.49297e-08
-8.58726e-08
6.18253e-07
-1.11647e-07
-9.23867e-08
7.56436e-07
-1.21472e-07
-8.54106e-08
8.21722e-07
-5.09282e-08
-5.65551e-08
8.22822e-07
-8.1328e-08
2.07757e-08
7.4221e-07
-1.67269e-07
1.42207e-07
6.10551e-07
-2.3481e-07
2.20931e-07
4.56324e-07
-2.8606e-07
2.6332e-07
3.01824e-07
-3.17433e-07
2.76044e-07
1.5462e-07
-3.35616e-07
2.75877e-07
1.25764e-08
-3.42945e-07
2.73741e-07
-1.29693e-07
-3.41223e-07
2.73475e-07
-2.77616e-07
-3.30399e-07
2.75063e-07
-4.33404e-07
-3.08851e-07
2.74706e-07
-5.89854e-07
-2.74206e-07
2.61694e-07
-7.24861e-07
-2.20937e-07
2.196e-07
-8.10481e-07
-1.52447e-07
1.41883e-07
-8.14625e-07
-7.00948e-08
2.24286e-08
-7.50446e-07
-4.52221e-08
-5.62849e-08
-6.11658e-07
-1.14885e-07
-8.83186e-08
-4.70893e-07
-1.06477e-07
-9.89457e-08
-3.43736e-07
-9.18797e-08
-9.6092e-08
-2.3338e-07
-7.56076e-08
-8.81502e-08
-1.38392e-07
-6.29416e-08
-7.88073e-08
-5.78481e-08
-5.48155e-08
-6.7903e-08
-2.34795e-09
-5.0627e-08
-4.46074e-08
-4.68508e-08
7.57047e-09
-2.99754e-09
-3.09534e-08
6.76133e-09
2.40337e-08
-3.36844e-08
-2.28613e-08
6.46845e-08
-3.70783e-08
-3.59042e-08
1.13078e-07
-4.36179e-08
-4.24383e-08
1.70689e-07
-5.48713e-08
-4.92793e-08
2.41474e-07
-7.19923e-08
-5.81066e-08
3.30639e-07
-9.63464e-08
-6.85798e-08
4.42495e-07
-1.29431e-07
-7.73541e-08
5.81951e-07
-1.71121e-07
-7.99817e-08
7.5537e-07
-2.29662e-07
-6.52283e-08
7.86493e-07
-4.98461e-08
-3.22058e-08
7.44294e-07
-7.47522e-08
3.56238e-08
6.73479e-07
-2.46388e-07
1.49934e-07
5.57106e-07