/*--------------------------------*- C++ -*----------------------------------*\
| =========                 |                                                 |
| \\      /  F ield         | OpenFOAM: The Open Source CFD Toolbox           |
|  \\    /   O peration     | Version:  2112                                  |
|   \\  /    A nd           | Website:  www.openfoam.com                      |
|    \\/     M anipulation  |                                                 |
\*---------------------------------------------------------------------------*/
FoamFile
{
    version     2.0;
    format      ascii;
    arch        "LSB;label=32;scalar=64";
    class       volVectorField;
    location    "4.2";
    object      U;
}
// * * * * * * * * * * * * * * * * * * * * * * * * * * * * * * * * * * * * * //

dimensions      [0 1 -1 0 0 0 0];

internalField   nonuniform List<vector> 
64906
(
(-1.03116e-07 -2.86083e-07 -3.76437e-07)
(1.80372e-06 -2.04183e-06 -4.07076e-07)
(5.65042e-06 -3.85191e-06 4.59389e-07)
(1.01839e-05 -5.47143e-06 1.59477e-06)
(1.51511e-05 -6.71088e-06 2.56136e-06)
(2.01864e-05 -7.70403e-06 3.25689e-06)
(2.51671e-05 -8.54707e-06 3.85879e-06)
(2.99603e-05 -9.29971e-06 4.45525e-06)
(3.43654e-05 -9.99717e-06 5.07935e-06)
(3.78731e-05 -1.05401e-05 5.75087e-06)
(4.00504e-05 -1.10161e-05 6.4207e-06)
(4.0107e-05 -1.12336e-05 7.09753e-06)
(3.78776e-05 -1.15356e-05 7.84167e-06)
(3.39377e-05 -1.17263e-05 8.66235e-06)
(2.85882e-05 -1.20679e-05 9.37882e-06)
(2.22299e-05 -1.23908e-05 9.95469e-06)
(1.51408e-05 -1.26734e-05 1.03497e-05)
(7.66726e-06 -1.28432e-05 1.05563e-05)
(7.63781e-08 -1.28881e-05 1.05679e-05)
(-7.33504e-06 -1.28086e-05 1.03854e-05)
(-1.43008e-05 -1.26182e-05 1.00154e-05)
(-2.04774e-05 -1.239e-05 9.46591e-06)
(-2.55998e-05 -1.21428e-05 8.77833e-06)
(-2.92977e-05 -1.20361e-05 7.99316e-06)
(-3.12154e-05 -1.1742e-05 7.32186e-06)
(-3.07885e-05 -1.15802e-05 6.67664e-06)
(-2.8276e-05 -1.11243e-05 6.01689e-06)
(-2.44599e-05 -1.05335e-05 5.31024e-06)
(-1.97736e-05 -9.63912e-06 4.55581e-06)
(-1.47322e-05 -8.43436e-06 3.64525e-06)
(-9.65156e-06 -6.79579e-06 2.35817e-06)
(-5.1357e-06 -4.61001e-06 7.76012e-07)
(-1.4545e-06 -2.09625e-06 -4.71242e-07)
(3.69894e-07 -1.81423e-08 -6.35333e-07)
(-2.84663e-06 3.85878e-06 -1.29154e-06)
(-1.87008e-06 2.52504e-06 -6.22148e-06)
(3.36736e-06 4.13222e-07 -7.81129e-06)
(8.82684e-06 -1.6209e-06 -8.1458e-06)
(1.43721e-05 -2.97655e-06 -8.38392e-06)
(1.97228e-05 -3.63468e-06 -8.88648e-06)
(2.49215e-05 -3.60229e-06 -9.75229e-06)
(2.98742e-05 -2.82246e-06 -1.10138e-05)
(3.44653e-05 -1.20343e-06 -1.26913e-05)
(3.81193e-05 1.56075e-06 -1.47899e-05)
(4.04454e-05 5.20928e-06 -1.72404e-05)
(4.05999e-05 9.84181e-06 -1.98749e-05)
(3.84747e-05 1.3822e-05 -2.24059e-05)
(3.45311e-05 1.72838e-05 -2.46553e-05)
(2.8997e-05 1.97222e-05 -2.64639e-05)
(2.25189e-05 2.14534e-05 -2.78234e-05)
(1.5331e-05 2.24959e-05 -2.87326e-05)
(7.79508e-06 2.29864e-05 -2.92044e-05)
(1.44761e-07 2.2948e-05 -2.9239e-05)
(-7.32388e-06 2.23806e-05 -2.88362e-05)
(-1.43795e-05 2.12612e-05 -2.79951e-05)
(-2.06612e-05 1.94541e-05 -2.67039e-05)
(-2.59386e-05 1.69509e-05 -2.49657e-05)
(-2.95442e-05 1.34485e-05 -2.27971e-05)
(-3.13264e-05 9.50838e-06 -2.03939e-05)
(-3.08219e-05 4.93938e-06 -1.78864e-05)
(-2.80942e-05 1.48693e-06 -1.56119e-05)
(-2.40023e-05 -9.09053e-07 -1.37608e-05)
(-1.88854e-05 -1.8525e-06 -1.24253e-05)
(-1.32914e-05 -1.51917e-06 -1.16e-05)
(-7.32025e-06 5.04716e-08 -1.11592e-05)
(-1.39057e-06 2.67585e-06 -1.06341e-05)
(4.06362e-06 5.38887e-06 -8.59545e-06)
(4.24584e-06 6.72543e-06 -2.09781e-06)
(-4.86618e-06 1.34366e-05 -1.09752e-06)
(-4.91341e-06 1.43277e-05 -8.18037e-06)
(9.73186e-07 1.34519e-05 -1.06609e-05)
(7.23757e-06 1.26146e-05 -1.15484e-05)
(1.3647e-05 1.278e-05 -1.22691e-05)
(1.9809e-05 1.42041e-05 -1.32856e-05)
(2.58814e-05 1.7096e-05 -1.47952e-05)
(3.18478e-05 2.18168e-05 -1.68961e-05)
(3.77232e-05 2.87558e-05 -1.96436e-05)
(4.2683e-05 3.86577e-05 -2.3068e-05)
(4.621e-05 5.10017e-05 -2.70539e-05)
(4.65129e-05 6.58276e-05 -3.13727e-05)
(4.34855e-05 7.88647e-05 -3.54661e-05)
(3.84824e-05 9.00879e-05 -3.90452e-05)
(3.18552e-05 9.85383e-05 -4.19497e-05)
(2.44661e-05 0.000104805 -4.41475e-05)
(1.64319e-05 0.000108842 -4.56199e-05)
(8.13193e-06 0.000110865 -4.6385e-05)
(-2.72596e-07 0.000110892 -4.644e-05)
(-8.50234e-06 0.000108925 -4.57845e-05)
(-1.63978e-05 0.000104947 -4.4421e-05)
(-2.35762e-05 9.87454e-05 -4.23334e-05)
(-2.99246e-05 9.03873e-05 -3.95434e-05)
(-3.45694e-05 7.92946e-05 -3.60917e-05)
(-3.71872e-05 6.64633e-05 -3.21537e-05)
(-3.63993e-05 5.19875e-05 -2.80263e-05)
(-3.23075e-05 4.0239e-05 -2.42931e-05)
(-2.66701e-05 3.11636e-05 -2.11983e-05)
(-1.98944e-05 2.54267e-05 -1.88637e-05)
(-1.27741e-05 2.23598e-05 -1.72212e-05)
(-5.27692e-06 2.15594e-05 -1.60281e-05)
(1.89393e-06 2.24188e-05 -1.46935e-05)
(8.28825e-06 2.32879e-05 -1.13684e-05)
(7.07179e-06 2.16453e-05 -1.99467e-06)
(-6.35607e-06 2.39752e-05 -3.62651e-07)
(-7.03175e-06 2.62903e-05 -8.46483e-06)
(-3.84772e-07 2.6486e-05 -1.13025e-05)
(6.94344e-06 2.6996e-05 -1.23596e-05)
(1.46569e-05 2.89093e-05 -1.32498e-05)
(2.22549e-05 3.26123e-05 -1.44845e-05)
(3.00571e-05 3.85167e-05 -1.63034e-05)
(3.81644e-05 4.73406e-05 -1.88395e-05)
(4.6821e-05 5.99184e-05 -2.21522e-05)
(5.46771e-05 7.78122e-05 -2.62969e-05)
(6.09196e-05 0.000100337 -3.11059e-05)
(6.15381e-05 0.000127915 -3.64195e-05)
(5.64417e-05 0.000151575 -4.14077e-05)
(4.89417e-05 0.000171729 -4.57527e-05)
(3.96358e-05 0.000186732 -4.92718e-05)
(2.99126e-05 0.000197888 -5.19174e-05)
(1.96242e-05 0.000205104 -5.36723e-05)
(9.19708e-06 0.000208754 -5.45812e-05)
(-1.32906e-06 0.00020885 -5.46424e-05)
(-1.16843e-05 0.00020539 -5.38551e-05)
(-2.183e-05 0.000198367 -5.222e-05)
(-3.13276e-05 0.000187407 -4.96949e-05)
(-4.03253e-05 0.000172634 -4.62992e-05)
(-4.74051e-05 0.000152761 -4.209e-05)
(-5.19894e-05 0.000129528 -3.72648e-05)
(-5.07045e-05 0.00010254 -3.21586e-05)
(-4.36708e-05 8.09748e-05 -2.76278e-05)
(-3.48554e-05 6.42751e-05 -2.38402e-05)
(-2.48894e-05 5.32995e-05 -2.09641e-05)
(-1.51301e-05 4.65322e-05 -1.88976e-05)
(-5.33948e-06 4.31145e-05 -1.73683e-05)
(3.54482e-06 4.2057e-05 -1.57537e-05)
(1.1092e-05 4.15675e-05 -1.19215e-05)
(9.09989e-06 3.80534e-05 -1.14764e-06)
(-7.3124e-06 3.4991e-05 5.02184e-07)
(-8.10064e-06 3.84505e-05 -8.47274e-06)
(-2.33155e-07 3.96095e-05 -1.16113e-05)
(8.60952e-06 4.15189e-05 -1.27778e-05)
(1.81466e-05 4.53185e-05 -1.38018e-05)
(2.78499e-05 5.14559e-05 -1.52593e-05)
(3.8312e-05 6.04928e-05 -1.7425e-05)
(4.98746e-05 7.35432e-05 -2.04632e-05)
(6.33094e-05 9.21308e-05 -2.44002e-05)
(7.64519e-05 0.000119365 -2.93285e-05)
(8.81855e-05 0.000154962 -3.49628e-05)
(8.93713e-05 0.000201107 -4.15049e-05)
(7.99071e-05 0.000238618 -4.7533e-05)
(6.76814e-05 0.000269732 -5.28426e-05)
(5.35632e-05 0.000292239 -5.71576e-05)
(3.97537e-05 0.000308999 -6.03366e-05)
(2.54584e-05 0.000319824 -6.24066e-05)
(1.12057e-05 0.000325332 -6.34716e-05)
(-3.15859e-06 0.000325506 -6.35366e-05)
(-1.73416e-05 0.000320342 -6.26004e-05)
(-3.14977e-05 0.000309856 -6.06558e-05)
(-4.50735e-05 0.000293423 -5.76014e-05)
(-5.88578e-05 0.000271271 -5.34112e-05)
(-7.05838e-05 0.000240556 -4.82385e-05)
(-7.94119e-05 0.000203647 -4.23775e-05)
(-7.73187e-05 0.000158287 -3.60504e-05)
(-6.45288e-05 0.000124049 -3.07187e-05)
(-5.01612e-05 9.83306e-05 -2.61754e-05)
(-3.50071e-05 8.16911e-05 -2.27096e-05)
(-2.12946e-05 7.10688e-05 -2.01836e-05)
(-8.29316e-06 6.49809e-05 -1.83418e-05)
(3.0384e-06 6.20484e-05 -1.64852e-05)
(1.24597e-05 6.03945e-05 -1.21896e-05)
(1.04188e-05 5.53948e-05 -1.30739e-07)
(-7.97191e-06 4.55875e-05 1.38468e-06)
(-8.35121e-06 4.99146e-05 -8.58487e-06)
(1.37726e-06 5.18847e-05 -1.20878e-05)
(1.23252e-05 5.51224e-05 -1.33916e-05)
(2.42702e-05 6.07983e-05 -1.45868e-05)
(3.67208e-05 6.93124e-05 -1.6344e-05)
(5.06675e-05 8.12452e-05 -1.89669e-05)
(6.69139e-05 9.80165e-05 -2.26442e-05)
(8.74085e-05 0.000122097 -2.7273e-05)
(0.000109219 0.000159407 -3.29584e-05)
(0.000131817 0.000211154 -3.88678e-05)
(0.000134261 0.000286197 -4.67601e-05)
(0.000116148 0.000341595 -5.39733e-05)
(9.60497e-05 0.00038557 -6.07011e-05)
(7.45203e-05 0.000416049 -6.62685e-05)
(5.47159e-05 0.000438853 -7.01631e-05)
(3.43922e-05 0.000453532 -7.2622e-05)
(1.4327e-05 0.000461048 -7.38744e-05)
(-5.90962e-06 0.000461309 -7.39443e-05)
(-2.59159e-05 0.000454306 -7.28298e-05)
(-4.61236e-05 0.00044012 -7.05034e-05)
(-6.57113e-05 0.000417764 -6.67398e-05)
(-8.69121e-05 0.000387735 -6.12998e-05)
(-0.000106439 0.000344215 -5.47126e-05)
(-0.000123794 0.000289539 -4.7677e-05)
(-0.000120102 0.000215381 -4.00001e-05)
(-9.61358e-05 0.000165533 -3.44256e-05)
(-7.28982e-05 0.000130016 -2.91623e-05)
(-5.02532e-05 0.000108173 -2.506e-05)
(-3.12897e-05 9.41783e-05 -2.19679e-05)
(-1.41172e-05 8.57272e-05 -1.97414e-05)
(5.37376e-07 8.1192e-05 -1.75665e-05)
(1.2771e-05 7.86334e-05 -1.26771e-05)
(1.13885e-05 7.25061e-05 9.01334e-07)
(-8.50384e-06 5.5412e-05 2.32513e-06)
(-7.98342e-06 6.04147e-05 -8.89813e-06)
(4.3788e-06 6.32009e-05 -1.28856e-05)
(1.81319e-05 6.78264e-05 -1.43833e-05)
(3.31141e-05 7.55434e-05 -1.58059e-05)
(4.88511e-05 8.65455e-05 -1.7942e-05)
(6.67776e-05 0.000101156 -2.11126e-05)
(8.84163e-05 0.000120562 -2.55215e-05)
(0.000118131 0.0001481 -3.0808e-05)
(0.000152619 0.000193023 -3.68738e-05)
(0.000196747 0.000262738 -4.16065e-05)
(0.000202472 0.000385714 -5.06759e-05)
(0.00016686 0.000463603 -5.86994e-05)
(0.000134574 0.000522684 -6.75081e-05)
(0.000102804 0.000561976 -7.51055e-05)
(7.52088e-05 0.00059195 -7.97709e-05)
(4.67028e-05 0.000611278 -8.26378e-05)
(1.86796e-05 0.000621246 -8.40797e-05)
(-9.66558e-06 0.000621611 -8.41555e-05)
(-3.7655e-05 0.000612356 -8.28628e-05)
(-6.61016e-05 0.000593699 -8.01374e-05)
(-9.35471e-05 0.000564302 -7.5613e-05)
(-0.000125066 0.000525525 -6.8148e-05)
(-0.000156745 0.000466861 -5.94921e-05)
(-0.000191538 0.000389704 -5.16746e-05)
(-0.000184019 0.000267495 -4.28125e-05)
(-0.000138121 0.000200603 -3.84666e-05)
(-0.000102197 0.000157637 -3.28566e-05)
(-6.98576e-05 0.00013253 -2.81705e-05)
(-4.47933e-05 0.000116195 -2.44442e-05)
(-2.26881e-05 0.000105631 -2.17646e-05)
(-3.80513e-06 9.95319e-05 -1.91748e-05)
(1.2327e-05 9.60887e-05 -1.34933e-05)
(1.22584e-05 8.89747e-05 2.03638e-06)
(-9.03302e-06 6.40161e-05 3.27548e-06)
(-7.04357e-06 6.95192e-05 -9.41947e-06)
(8.94913e-06 7.31576e-05 -1.40619e-05)
(2.64021e-05 7.92855e-05 -1.58052e-05)
(4.52597e-05 8.92659e-05 -1.75192e-05)
(6.48393e-05 0.000102907 -2.01283e-05)
(8.66595e-05 0.000119833 -2.39735e-05)
(0.000112866 0.000139917 -2.93333e-05)
(0.000150719 0.000165569 -3.53095e-05)
(0.00020026 0.000212028 -4.22067e-05)
(0.000288067 0.000295039 -3.93418e-05)
(0.000303229 0.000503908 -4.71998e-05)
(0.000233698 0.000604446 -5.62471e-05)
(0.000185718 0.000676785 -6.93262e-05)
(0.00014128 0.000723515 -8.06249e-05)
(0.000103945 0.000759918 -8.60919e-05)
(6.4145e-05 0.000783603 -8.93613e-05)
(2.48876e-05 0.000795955 -9.09855e-05)
(-1.49798e-05 0.000796446 -9.1068e-05)
(-5.42456e-05 0.00078505 -8.96055e-05)
(-9.40882e-05 0.000762255 -8.6489e-05)
(-0.000131423 0.000726586 -8.11803e-05)
(-0.000175836 0.000680425 -7.00278e-05)
(-0.000223318 0.000608318 -5.71318e-05)
(-0.000292204 0.000508433 -4.83883e-05)
(-0.000274199 0.000299951 -4.06302e-05)
(-0.000184044 0.000221734 -4.38783e-05)
(-0.000133532 0.000176899 -3.75049e-05)
(-9.24478e-05 0.00015359 -3.22464e-05)
(-6.18885e-05 0.000136689 -2.77111e-05)
(-3.45755e-05 0.000124302 -2.44866e-05)
(-1.04338e-05 0.000116574 -2.13698e-05)
(1.1026e-05 0.00011203 -1.46418e-05)
(1.30905e-05 0.000104217 3.4266e-06)
(-9.58948e-06 7.09817e-05 4.27769e-06)
(-5.52877e-06 7.6961e-05 -1.01608e-05)
(1.51923e-05 8.16093e-05 -1.56373e-05)
(3.74114e-05 8.97365e-05 -1.76765e-05)
(6.11882e-05 0.000102945 -1.97221e-05)
(8.52908e-05 0.000120818 -2.28314e-05)
(0.000110532 0.000142243 -2.74013e-05)
(0.00013794 0.000163711 -3.38003e-05)
(0.000179515 0.000186366 -4.15286e-05)
(0.000236436 0.000225243 -4.76768e-05)
(0.000408001 0.000248087 -4.70924e-05)
(0.000447832 0.000620544 -3.8734e-05)
(0.000307546 0.00075397 -4.48464e-05)
(0.000245773 0.000846033 -6.48663e-05)
(0.000188593 0.00090517 -8.12947e-05)
(0.000139931 0.000953611 -8.72487e-05)
(8.62371e-05 0.000985493 -9.13897e-05)
(3.28428e-05 0.00100196 -9.33708e-05)
(-2.1655e-05 0.00100261 -9.34557e-05)
(-7.5114e-05 0.000987424 -9.16408e-05)
(-0.000128992 0.000956758 -8.76516e-05)
(-0.000177895 0.000909326 -8.18626e-05)
(-0.00023553 0.000850924 -6.55798e-05)
(-0.000297104 0.000758978 -4.57888e-05)
(-0.000437387 0.000625893 -4.00783e-05)
(-0.000392587 0.000250984 -4.89095e-05)
(-0.000218197 0.000235927 -4.96593e-05)
(-0.000162079 0.000198552 -4.39281e-05)
(-0.00011619 0.000178469 -3.70773e-05)
(-8.31543e-05 0.000160262 -3.16857e-05)
(-5.05875e-05 0.000143802 -2.79294e-05)
(-2.00399e-05 0.000132835 -2.43138e-05)
(8.62061e-06 0.000126361 -1.6121e-05)
(1.40357e-05 0.000117899 5.07443e-06)
(-1.00172e-05 7.56789e-05 5.40077e-06)
(-3.10484e-06 8.19648e-05 -1.11454e-05)
(2.38591e-05 8.75323e-05 -1.76215e-05)
(5.27539e-05 9.76628e-05 -2.00418e-05)
(8.39582e-05 0.00011432 -2.25097e-05)
(0.00011574 0.000137192 -2.62336e-05)
(0.000146433 0.000164078 -3.16601e-05)
(0.000176326 0.000186405 -4.05337e-05)
(0.000214331 0.000190879 -5.01113e-05)
(0.000175718 0.000105135 -7.32112e-05)
(0.000482139 0.000220532 -7.253e-05)
(0.000653335 0.000872278 -9.19571e-06)
(0.000402523 0.000942014 -6.11044e-06)
(0.000337339 0.00100342 -2.86644e-05)
(0.000264843 0.00106531 -4.87707e-05)
(0.000198494 0.00111702 -5.03328e-05)
(0.000121769 0.00115409 -5.31115e-05)
(4.53304e-05 0.00117326 -5.46666e-05)
(-3.23097e-05 0.00117409 -5.47288e-05)
(-0.000108843 0.00115655 -5.33004e-05)
(-0.00018587 0.00112105 -5.06169e-05)
(-0.000252726 0.00107073 -4.92194e-05)
(-0.000326269 0.00100979 -2.92479e-05)
(-0.000392072 0.000948099 -6.93372e-06)
(-0.00064729 0.00087478 -1.08011e-05)
(-0.000468597 0.000223772 -7.50261e-05)
(-0.000156006 0.000124189 -7.43349e-05)
(-0.000196936 0.000207517 -5.21324e-05)
(-0.000153388 0.0002029 -4.40859e-05)
(-0.000116743 0.000182935 -3.66451e-05)
(-7.65575e-05 0.000161016 -3.23502e-05)
(-3.5799e-05 0.000145722 -2.81651e-05)
(3.73735e-06 0.00013708 -1.81966e-05)
(1.45751e-05 0.00012823 6.8167e-06)
(-1.04479e-05 7.77061e-05 6.56461e-06)
(-1.32173e-07 8.41614e-05 -1.23697e-05)
(3.41918e-05 9.06635e-05 -2.00019e-05)
(7.12713e-05 0.000103021 -2.2894e-05)
(0.000112244 0.000124334 -2.58496e-05)
(0.000154765 0.000156656 -2.98729e-05)
(0.000194015 0.000202853 -3.50397e-05)
(0.000221583 0.000264994 -3.97351e-05)
(0.000178665 0.000346565 -5.90727e-05)
(0.000177825 0.000395001 -9.59275e-05)
(0.000288195 0.000739574 7.40478e-05)
(0.000318415 0.000943425 3.87375e-05)
(0.000396718 0.00106555 2.52813e-05)
(0.000344041 0.00117431 2.50527e-05)
(0.000259484 0.00125134 2.00981e-05)
(0.00016094 0.00130232 1.46465e-05)
(5.92383e-05 0.00132718 1.20382e-05)
(-4.387e-05 0.00132813 1.2041e-05)
(-0.000145688 0.00130521 1.46448e-05)
(-0.000244578 0.00125625 2.00961e-05)
(-0.000329853 0.00118144 2.50707e-05)
(-0.000384407 0.00107503 2.53861e-05)
(-0.00031038 0.000955224 3.84472e-05)
(-0.000283273 0.000750982 7.24259e-05)
(-0.000173769 0.000406267 -9.25615e-05)
(-0.000170251 0.00036071 -6.06216e-05)
(-0.000202494 0.000280138 -4.40259e-05)
(-0.000164183 0.000220973 -4.11603e-05)
(-0.000112047 0.000180176 -3.75002e-05)
(-5.71584e-05 0.000156047 -3.30709e-05)
(-3.23419e-06 0.000143641 -2.10421e-05)
(1.49478e-05 0.000134119 8.53409e-06)
(-1.0624e-05 7.63745e-05 7.75494e-06)
(3.79329e-06 8.26419e-05 -1.37468e-05)
(4.69947e-05 8.91688e-05 -2.26544e-05)
(9.52004e-05 0.00010173 -2.61833e-05)
(0.000152537 0.000123664 -3.00254e-05)
(0.000221676 0.000157741 -3.53661e-05)
(0.000307456 0.000208735 -4.22549e-05)
(0.000422974 0.00028327 -4.73918e-05)
(0.000557506 0.000393005 -4.97304e-05)
(0.000826293 0.00055484 -3.05597e-05)
(0.000855199 0.00015181 5.28041e-05)
(0.000646816 0.000301763 8.15066e-05)
(0.000713646 0.000687801 0.000135451)
(0.000641804 0.000899943 0.000186932)
(0.000510781 0.00104822 0.000215814)
(0.000364965 0.00114594 0.000224731)
(0.000219492 0.00120578 0.0002247)
(7.84852e-05 0.00123415 0.000223712)
(-6.07123e-05 0.00123506 0.000223766)
(-0.000201647 0.00120859 0.000224857)
(-0.00034699 0.0011508 0.000225017)
(-0.000492586 0.00105544 0.000216372)
(-0.000623479 0.000909962 0.000188092)
(-0.000695539 0.000701188 0.00013734)
(-0.000627443 0.000317663 8.47379e-05)
(-0.000843357 0.000154508 5.54158e-05)
(-0.000821246 0.000555643 -2.96549e-05)
(-0.00054667 0.000401342 -5.2007e-05)
(-0.000404001 0.000295611 -5.22598e-05)
(-0.000276755 0.000225344 -4.96426e-05)
(-0.000175543 0.000180284 -4.47812e-05)
(-9.07162e-05 0.000154686 -3.9257e-05)
(-1.5032e-05 0.000141958 -2.4603e-05)
(1.38705e-05 0.000132236 1.02778e-05)
(-1.10915e-05 7.16362e-05 8.8925e-06)
(6.80937e-06 7.73534e-05 -1.50228e-05)
(5.77165e-05 8.28508e-05 -2.51645e-05)
(0.000114793 9.32225e-05 -2.93102e-05)
(0.000183672 0.000110752 -3.39389e-05)
(0.00026811 0.000136236 -4.03922e-05)
(0.000373566 0.00016956 -4.83908e-05)
(0.00051026 0.000207991 -5.4598e-05)
(0.000670096 0.000240458 -5.51065e-05)
(0.000906753 0.000258528 -3.8776e-05)
(0.00101911 0.000123355 -1.0839e-05)
(0.000976445 0.000315425 3.98028e-05)
(0.000936138 0.000510211 0.000142455)
(0.000802299 0.000653498 0.000211066)
(0.000631495 0.000764062 0.000246613)
(0.000445652 0.000837118 0.00026113)
(0.000265801 0.000882775 0.000264132)
(9.40211e-05 0.000904759 0.000264297)
(-7.43299e-05 0.00090552 0.000264355)
(-0.000245977 0.000885071 0.000264306)
(-0.000425582 0.000840987 0.000261458)
(-0.000611055 0.000769527 0.000247249)
(-0.000781875 0.000660485 0.000212415)
(-0.000916306 0.000518034 0.000144779)
(-0.000957768 0.000322955 4.38974e-05)
(-0.00100629 0.000125965 -8.20372e-06)
(-0.00089892 0.000264396 -3.87072e-05)
(-0.000659614 0.000249148 -5.79578e-05)
(-0.00049135 0.00021969 -6.02934e-05)
(-0.000341455 0.000185271 -5.70095e-05)
(-0.000218085 0.000157685 -5.14378e-05)
(-0.000114715 0.000140242 -4.49277e-05)
(-2.30023e-05 0.000131327 -2.79714e-05)
(1.37555e-05 0.000122476 1.22285e-05)
(-1.16076e-05 6.41929e-05 9.97052e-06)
(9.14368e-06 6.92582e-05 -1.60688e-05)
(6.65706e-05 7.35579e-05 -2.72945e-05)
(0.000130819 8.15011e-05 -3.19756e-05)
(0.000208417 9.46636e-05 -3.73123e-05)
(0.000303175 0.000113086 -4.49436e-05)
(0.000420376 0.00013565 -5.47358e-05)
(0.000567467 0.000160251 -6.43427e-05)
(0.000735823 0.00018035 -6.99216e-05)
(0.000934198 0.00019795 -6.43007e-05)
(0.00106541 0.000162016 -4.36235e-05)
(0.00110898 0.00025184 2.02938e-05)
(0.0010654 0.00037146 0.000127748)
(0.000909572 0.000470185 0.000195314)
(0.000711372 0.000546694 0.000230697)
(0.000497895 0.000595942 0.000239838)
(0.000295859 0.000626796 0.000239044)
(0.000104137 0.000641563 0.000237223)
(-8.29684e-05 0.000642178 0.000237246)
(-0.000274534 0.000628643 0.000239111)
(-0.000476295 0.000599012 0.00023999)
(-0.000689394 0.000550947 0.000231091)
(-0.00088778 0.000475527 0.000196389)
(-0.00104451 0.00037753 0.00012979)
(-0.00109158 0.00025835 2.41398e-05)
(-0.00105408 0.000166481 -4.13298e-05)
(-0.000925763 0.00020362 -6.41897e-05)
(-0.000724513 0.000188242 -7.29264e-05)
(-0.000547327 0.000170986 -7.04871e-05)
(-0.00038591 0.000150158 -6.41901e-05)
(-0.000248736 0.000132875 -5.71594e-05)
(-0.000132378 0.000121578 -4.95358e-05)
(-2.83888e-05 0.00011568 -3.05338e-05)
(1.41167e-05 0.000108137 1.41984e-05)
(-1.2251e-05 5.46087e-05 1.08929e-05)
(1.04452e-05 5.88729e-05 -1.68791e-05)
(7.26124e-05 6.18901e-05 -2.89776e-05)
(0.0001417 6.73186e-05 -3.40818e-05)
(0.000224559 7.61668e-05 -3.99607e-05)
(0.000324544 8.80939e-05 -4.8493e-05)
(0.000446619 0.000101808 -5.9642e-05)
(0.000596063 0.00011599 -7.14362e-05)
(0.000765532 0.000126786 -7.9674e-05)
(0.000950428 0.00013884 -7.72117e-05)
(0.0010962 0.000138069 -5.66671e-05)
(0.00118084 0.000194004 3.67951e-06)
(0.00113997 0.00026884 0.000108697)
(0.000971296 0.000330914 0.000169593)
(0.000758604 0.000379585 0.000199707)
(0.00052978 0.000411657 0.000203071)
(0.000314674 0.000432123 0.000198666)
(0.000110601 0.000442056 0.000195015)
(-8.82727e-05 0.000442594 0.000195003)
(-0.000292217 0.000433721 0.000198624)
(-0.000507113 0.000414259 0.000203035)
(-0.000735666 0.000383094 0.000199826)
(-0.000948769 0.000335204 0.000170332)
(-0.00111864 0.000273652 0.000110388)
(-0.00116386 0.000199237 7.28913e-06)
(-0.00108511 0.000142847 -5.45454e-05)
(-0.000941248 0.00014472 -7.72763e-05)
(-0.000753181 0.0001343 -8.28802e-05)
(-0.000574298 0.000125824 -7.79407e-05)
(-0.000409468 0.000114863 -6.96874e-05)
(-0.000265739 0.000105615 -6.15064e-05)
(-0.000142149 9.95257e-05 -5.29586e-05)
(-3.03931e-05 9.62862e-05 -3.23174e-05)
(1.53304e-05 9.03376e-05 1.57722e-05)
(-1.28379e-05 4.36992e-05 1.1639e-05)
(1.1133e-05 4.71225e-05 -1.74778e-05)
(7.66354e-05 4.91467e-05 -3.02308e-05)
(0.000149003 5.27034e-05 -3.56457e-05)
(0.000235183 5.85037e-05 -4.19171e-05)
(0.00033809 6.62527e-05 -5.11021e-05)
(0.000462528 7.50733e-05 -6.3234e-05)
(0.000612652 8.44391e-05 -7.64912e-05)
(0.000782679 9.26406e-05 -8.6392e-05)
(0.000964665 0.000103708 -8.57112e-05)
(0.00112057 0.000114057 -6.48411e-05)
(0.00122461 0.00015077 -5.78175e-06)
(0.00118591 0.000197438 9.7592e-05)
(0.00101084 0.000237887 0.000154291)
(0.000789087 0.000269885 0.000180617)
(0.000550481 0.000291411 0.000180265)
(0.000326955 0.000305278 0.000173466)
(0.000114928 0.00031213 0.000168618)
(-9.15503e-05 0.000312654 0.000168588)
(-0.000303494 0.000306824 0.000173365)
(-0.000526903 0.000293901 0.000180126)
(-0.000765374 0.000273193 0.000180584)
(-0.000987737 0.000241861 0.000154842)
(-0.0011642 0.000201867 9.90652e-05)
(-0.00120768 0.000155589 -2.4794e-06)
(-0.00110938 0.000118917 -6.28487e-05)
(-0.000954811 0.000109365 -8.58659e-05)
(-0.000769267 9.94751e-05 -8.97399e-05)
(-0.000589216 9.30611e-05 -8.32394e-05)
(-0.000422815 8.6219e-05 -7.36674e-05)
(-0.000275439 8.08647e-05 -6.46241e-05)
(-0.000147525 7.75248e-05 -5.53673e-05)
(-3.0813e-05 7.57253e-05 -3.35038e-05)
(1.66294e-05 7.11175e-05 1.69761e-05)
(-1.33299e-05 3.19662e-05 1.21689e-05)
(1.13907e-05 3.44684e-05 -1.79125e-05)
(7.90343e-05 3.57055e-05 -3.11153e-05)
(0.000153465 3.78343e-05 -3.67353e-05)
(0.000241635 4.13649e-05 -4.32536e-05)
(0.000346179 4.61549e-05 -5.28374e-05)
(0.000471929 5.17812e-05 -6.55505e-05)
(0.000622667 5.8196e-05 -7.96024e-05)
(0.000793937 6.48977e-05 -9.03471e-05)
(0.000976867 7.45973e-05 -9.03955e-05)
(0.00113922 8.63804e-05 -6.95181e-05)
(0.00125305 0.000110433 -1.05724e-05)
(0.00121574 0.00013972 9.25414e-05)
(0.00103655 0.000165554 0.000147599)
(0.000809074 0.000186159 0.000172179)
(0.000564352 0.000200509 0.000170117)
(0.000335339 0.000209937 0.000162234)
(0.000118021 0.000214764 0.000156853)
(-9.35925e-05 0.000215319 0.000156818)
(-0.000310891 0.000211567 0.000162118)
(-0.000539911 0.000203108 0.000169946)
(-0.000784673 0.000189567 0.000172096)
(-0.00101299 0.000169568 0.000148084)
(-0.00119377 0.000144107 9.39726e-05)
(-0.00123607 0.000115038 -7.2631e-06)
(-0.0011278 9.11295e-05 -6.75939e-05)
(-0.000966461 7.98256e-05 -9.06487e-05)
(-0.000779647 7.08664e-05 -9.38361e-05)
(-0.000597863 6.53535e-05 -8.65547e-05)
(-0.000430181 6.06548e-05 -7.62702e-05)
(-0.000280594 5.73819e-05 -6.67095e-05)
(-0.000150139 5.55327e-05 -5.6994e-05)
(-3.04492e-05 5.45391e-05 -3.43036e-05)
(1.78034e-05 5.12489e-05 1.7755e-05)
(-1.36617e-05 1.98563e-05 1.24802e-05)
(1.14562e-05 2.14039e-05 -1.82114e-05)
(8.03359e-05 2.20336e-05 -3.16839e-05)
(0.000155988 2.30998e-05 -3.74207e-05)
(0.000245371 2.49609e-05 -4.40738e-05)
(0.000350997 2.76581e-05 -5.38702e-05)
(0.000477781 3.11677e-05 -6.68887e-05)
(0.00062942 3.56641e-05 -8.13349e-05)
(0.000802149 4.12102e-05 -9.2477e-05)
(0.000986801 4.89757e-05 -9.28008e-05)
(0.00115298 5.87717e-05 -7.18898e-05)
(0.00127137 7.33298e-05 -1.28666e-05)
(0.00123456 8.96473e-05 9.09398e-05)
(0.00105292 0.000104348 0.000145831)
(0.000821937 0.000116203 0.000169944)
(0.000573481 0.000124862 0.000167345)
(0.000340977 0.000130706 0.000159105)
(0.000120264 0.000133892 0.000153551)
(-9.46947e-05 0.000134514 0.000153519)
(-0.000315467 0.000132531 0.000158995)
(-0.000548131 0.000127756 0.000167182)
(-0.000796843 0.000119964 0.000169867)
(-0.00102891 0.0001087 0.000146313)
(-0.00121242 9.43052e-05 9.24057e-05)
(-0.00125436 7.80312e-05 -9.27615e-06)
(-0.00114143 6.34065e-05 -6.99919e-05)
(-0.000976112 5.37127e-05 -9.31521e-05)
(-0.000787349 4.62101e-05 -9.61016e-05)
(-0.000603769 4.12097e-05 -8.84638e-05)
(-0.000434756 3.75624e-05 -7.78319e-05)
(-0.00028359 3.52473e-05 -6.79994e-05)
(-0.000151533 3.40407e-05 -5.80286e-05)
(-3.00788e-05 3.34037e-05 -3.48429e-05)
(1.85862e-05 3.13487e-05 1.81836e-05)
(-1.38194e-05 7.64997e-06 1.25688e-05)
(1.14171e-05 8.21803e-06 -1.83934e-05)
(8.07492e-05 8.28125e-06 -3.19692e-05)
(0.000156919 8.37483e-06 -3.77431e-05)
(0.000246913 8.70987e-06 -4.4432e-05)
(0.000353264 9.50003e-06 -5.42794e-05)
(0.000480958 1.10664e-05 -6.7371e-05)
(0.000633726 1.37276e-05 -8.19006e-05)
(0.000807867 1.79627e-05 -9.31213e-05)
(0.000994037 2.35586e-05 -9.3491e-05)
(0.00116172 3.06448e-05 -7.25985e-05)
(0.001281 3.68473e-05 -1.35243e-05)
(0.00124388 4.16391e-05 9.07814e-05)
(0.00106105 4.61027e-05 0.000146006)
(0.000828494 4.97762e-05 0.000170263)
(0.000578389 5.30233e-05 0.000167719)
(0.000344189 5.54642e-05 0.000159486)
(0.000121784 5.71121e-05 0.000153934)
(-9.49118e-05 5.78381e-05 0.000153906)
(-0.000317475 5.75937e-05 0.000159386)
(-0.000552023 5.63877e-05 0.000167569)
(-0.000802659 5.41236e-05 0.000170199)
(-0.00103663 5.10596e-05 0.00014649)
(-0.00122163 4.68219e-05 9.22439e-05)
(-0.00126412 4.18453e-05 -9.88719e-06)
(-0.00115033 3.52308e-05 -7.07806e-05)
(-0.0009834 2.78477e-05 -9.39687e-05)
(-0.000792997 2.20249e-05 -9.68993e-05)
(-0.000607847 1.7679e-05 -8.92049e-05)
(-0.000437529 1.49752e-05 -7.85087e-05)
(-0.000285241 1.34316e-05 -6.86162e-05)
(-0.000152256 1.27029e-05 -5.85733e-05)
(-2.99624e-05 1.23465e-05 -3.51899e-05)
(1.89183e-05 1.15501e-05 1.82871e-05)
(-1.38062e-05 -4.35561e-06 1.24365e-05)
(1.12686e-05 -4.7577e-06 -1.8461e-05)
(8.02673e-05 -5.31535e-06 -3.19754e-05)
(0.000156248 -6.303e-06 -3.77089e-05)
(0.000246243 -7.67651e-06 -4.4342e-05)
(0.000352928 -9.06377e-06 -5.40946e-05)
(0.000481352 -9.76883e-06 -6.70314e-05)
(0.000635433 -9.24013e-06 -8.13404e-05)
(0.000810983 -6.35614e-06 -9.23264e-05)
(0.000998598 -2.58111e-06 -9.2525e-05)
(0.00116573 3.11848e-06 -7.17318e-05)
(0.00128224 1.4778e-06 -1.26312e-05)
(0.00124375 -5.89437e-06 9.1762e-05)
(0.00106091 -1.22774e-05 0.000147688)
(0.000828684 -1.73342e-05 0.000172614)
(0.000579038 -1.97847e-05 0.000170661)
(0.000344973 -2.09072e-05 0.000162766)
(0.000122604 -2.08393e-05 0.000157375)
(-9.4193e-05 -1.99547e-05 0.000157348)
(-0.000316838 -1.83075e-05 0.00016267)
(-0.000551479 -1.56764e-05 0.000170508)
(-0.000802002 -1.20242e-05 0.000172533)
(-0.00103605 -6.27893e-06 0.000148123)
(-0.00122153 2.60185e-07 9.3124e-05)
(-0.00126571 7.13721e-06 -9.24509e-06)
(-0.00115475 7.88529e-06 -7.00912e-05)
(-0.00098834 1.49929e-06 -9.31882e-05)
(-0.000796491 -2.97198e-06 -9.62936e-05)
(-0.000609961 -6.59659e-06 -8.88259e-05)
(-0.000438402 -8.04948e-06 -7.83333e-05)
(-0.000285487 -8.50154e-06 -6.85813e-05)
(-0.000152275 -8.50807e-06 -5.86423e-05)
(-3.00751e-05 -8.45143e-06 -3.53534e-05)
(1.88148e-05 -7.96966e-06 1.80687e-05)
(-1.36423e-05 -1.58632e-05 1.20867e-05)
(1.09157e-05 -1.72233e-05 -1.84023e-05)
(7.86756e-05 -1.85849e-05 -3.16803e-05)
(0.000153601 -2.10204e-05 -3.72905e-05)
(0.000242754 -2.47251e-05 -4.3762e-05)
(0.00034912 -2.92357e-05 -5.32431e-05)
(0.000477873 -3.34556e-05 -6.57816e-05)
(0.000633444 -3.63665e-05 -7.95222e-05)
(0.000810675 -3.5494e-05 -8.98886e-05)
(0.00100082 -3.29334e-05 -8.95326e-05)
(0.00116566 -2.44477e-05 -6.87901e-05)
(0.00127437 -3.40725e-05 -9.41948e-06)
(0.00123284 -5.70107e-05 9.52222e-05)
(0.00105134 -7.74523e-05 0.000152863)
(0.000821663 -9.39118e-05 0.00017949)
(0.00057494 -0.000103539 0.000179153)
(0.000343077 -0.000109018 0.000172221)
(0.000122694 -0.000110812 0.000167284)
(-9.23712e-05 -0.00010969 0.000167236)
(-0.000313168 -0.000105706 0.000172059)
(-0.000545874 -9.8281e-05 0.000178884)
(-0.000793908 -8.70609e-05 0.000179239)
(-0.00102595 -6.97192e-05 0.000153067)
(-0.00121068 -4.91417e-05 9.62623e-05)
(-0.00125846 -2.72241e-05 -6.69982e-06)
(-0.0011554 -1.9176e-05 -6.74804e-05)
(-0.000991183 -2.86541e-05 -9.05027e-05)
(-0.000796913 -3.23137e-05 -9.41329e-05)
(-0.000608917 -3.44953e-05 -8.72327e-05)
(-0.000436221 -3.33597e-05 -7.7239e-05)
(-0.000283438 -3.14798e-05 -6.78305e-05)
(-0.000151005 -2.98715e-05 -5.81715e-05)
(-3.01266e-05 -2.89231e-05 -3.5287e-05)
(1.83563e-05 -2.70361e-05 1.75064e-05)
(-1.33989e-05 -2.64038e-05 1.15205e-05)
(1.01229e-05 -2.8651e-05 -1.81965e-05)
(7.54713e-05 -3.09853e-05 -3.10456e-05)
(0.000148103 -3.52419e-05 -3.64365e-05)
(0.000235002 -4.19573e-05 -4.2615e-05)
(0.000339585 -5.07204e-05 -5.15951e-05)
(0.000467331 -6.01609e-05 -6.33705e-05)
(0.000624001 -6.86351e-05 -7.59416e-05)
(0.000803616 -7.13293e-05 -8.49647e-05)
(0.0010007 -7.01041e-05 -8.30969e-05)
(0.00116207 -4.88716e-05 -6.28711e-05)
(0.00125387 -6.75831e-05 -3.46684e-06)
(0.00120598 -0.000115238 0.000102666)
(0.0010276 -0.000155787 0.000163851)
(0.000803894 -0.000188213 0.000193695)
(0.00056402 -0.000207798 0.000196668)
(0.000337451 -0.000219323 0.0001918)
(0.000121793 -0.000223702 0.000187853)
(-8.90221e-05 -0.000222209 0.000187747)
(-0.000305238 -0.000214875 0.000191456)
(-0.000532931 -0.000200659 0.000196081)
(-0.000774637 -0.000178741 0.000192998)
(-0.00100139 -0.000144997 0.000163499)
(-0.00118397 -0.000104206 0.000103101)
(-0.00123892 -5.8532e-05 -1.30136e-06)
(-0.00115266 -4.24989e-05 -6.20212e-05)
(-0.000991723 -6.47824e-05 -8.45641e-05)
(-0.000790794 -6.74853e-05 -8.96238e-05)
(-0.000600829 -6.66854e-05 -8.39354e-05)
(-0.000427662 -6.08553e-05 -7.49519e-05)
(-0.00027671 -5.495e-05 -6.61787e-05)
(-0.000146945 -5.06233e-05 -5.70146e-05)
(-2.93499e-05 -4.82452e-05 -3.48902e-05)
(1.78231e-05 -4.49392e-05 1.65289e-05)
(-1.31047e-05 -3.54834e-05 1.0779e-05)
(8.75732e-06 -3.8583e-05 -1.78071e-05)