/*--------------------------------*- C++ -*----------------------------------*\
| =========                 |                                                 |
| \\      /  F ield         | OpenFOAM: The Open Source CFD Toolbox           |
|  \\    /   O peration     | Version:  2112                                  |
|   \\  /    A nd           | Website:  www.openfoam.com                      |
|    \\/     M anipulation  |                                                 |
\*---------------------------------------------------------------------------*/
FoamFile
{
    version     2.0;
    format      ascii;
    arch        "LSB;label=32;scalar=64";
    class       volScalarField;
    location    "1";
    object      epsilon;
}
// * * * * * * * * * * * * * * * * * * * * * * * * * * * * * * * * * * * * * //

dimensions      [0 2 -3 0 0 0 0];

internalField   nonuniform List<scalar> 
64906
(
0.00747384
0.0077974
0.00790728
0.00793064
0.00793457
0.0079352
0.00793537
0.00793549
0.00793561
0.00793573
0.00793584
0.00793594
0.00793602
0.00793607
0.0079361
0.00793611
0.0079361
0.00793609
0.00793608
0.00793608
0.00793608
0.00793607
0.00793604
0.00793599
0.00793591
0.00793581
0.0079357
0.00793558
0.00793541
0.00793477
0.00793084
0.00790748
0.00779759
0.007474
0.00779748
0.0109275
0.012002
0.0122606
0.0123109
0.0123192
0.0123206
0.012321
0.0123213
0.0123216
0.0123219
0.0123222
0.0123224
0.0123227
0.0123228
0.012323
0.0123231
0.0123231
0.0123231
0.0123231
0.012323
0.0123229
0.0123227
0.0123225
0.0123222
0.012322
0.0123217
0.0123212
0.0123198
0.0123115
0.0122612
0.0120025
0.010928
0.00779774
0.00790748
0.0120023
0.0135629
0.0139792
0.0140688
0.0140852
0.0140881
0.0140889
0.0140895
0.0140902
0.0140909
0.0140917
0.0140924
0.014093
0.0140936
0.014094
0.0140943
0.0140944
0.0140944
0.0140943
0.014094
0.0140936
0.0140931
0.0140925
0.0140918
0.0140911
0.0140904
0.0140894
0.0140864
0.0140699
0.0139803
0.0135638
0.0120031
0.00790784
0.00793093
0.0122611
0.0139795
0.0144574
0.0145645
0.014585
0.0145889
0.01459
0.0145909
0.0145918
0.0145929
0.0145942
0.0145955
0.0145966
0.0145975
0.0145982
0.0145987
0.014599
0.014599
0.0145988
0.0145983
0.0145977
0.0145968
0.0145957
0.0145944
0.0145932
0.0145921
0.0145908
0.0145868
0.0145661
0.0144588
0.0139807
0.0122621
0.00793139
0.00793492
0.0123115
0.0140691
0.0145646
0.0146774
0.0146993
0.0147036
0.0147049
0.0147058
0.0147064
0.0147072
0.0147095
0.0147117
0.0147135
0.014715
0.014716
0.0147167
0.014717
0.014717
0.0147167
0.0147161
0.0147151
0.0147137
0.0147119
0.0147097
0.0147075
0.0147067
0.0147056
0.0147014
0.0146793
0.0145664
0.0140707
0.0123127
0.00793548
0.0079356
0.0123198
0.0140856
0.0145852
0.0146993
0.0147218
0.0147262
0.0147271
0.0147261
0.0147225
0.0147189
0.0147241
0.0147295
0.0147332
0.0147357
0.0147371
0.014738
0.0147384
0.0147384
0.014738
0.0147372
0.0147359
0.0147334
0.0147298
0.0147244
0.0147192
0.0147228
0.014726
0.0147236
0.0147015
0.0145872
0.0140874
0.0123213
0.00793626
0.0079358
0.0123212
0.0140884
0.0145889
0.0147035
0.0147261
0.0147298
0.0147275
0.0147152
0.0146856
0.0146535
0.0146762
0.0146983
0.0147096
0.014715
0.0147168
0.0147177
0.0147181
0.0147182
0.0147178
0.014717
0.0147152
0.0147098
0.0146986
0.0146765
0.0146538
0.014686
0.0147151
0.014724
0.0147052
0.0145912
0.0140905
0.0123228
0.00793657
0.00793594
0.0123215
0.0140892
0.01459
0.0147047
0.0147268
0.0147273
0.0147097
0.0146453
0.0144912
0.0143096
0.0144401
0.0145483
0.0145925
0.014608
0.0146107
0.0146112
0.0146116
0.0146117
0.0146114
0.0146109
0.0146083
0.0145928
0.0145486
0.0144405
0.0143099
0.0144916
0.0146453
0.0147063
0.0147027
0.0145919
0.0140915
0.0123233
0.00793682
0.00793605
0.0123217
0.0140896
0.0145907
0.0147053
0.0147255
0.0147148
0.0146456
0.0143944
0.0137516
0.0129026
0.0136017
0.0140783
0.0142437
0.0142888
0.014296
0.0142971
0.0142976
0.0142976
0.0142972
0.0142962
0.0142891
0.0142441
0.0140788
0.0136022
0.0129029
0.013752
0.0143944
0.0146423
0.0146903
0.0145907
0.0140919
0.0123237
0.00793704
0.00793613
0.0123218
0.01409
0.0145913
0.0147055
0.0147216
0.014686
0.0144951
0.0137589
0.0116655
0.00866395
0.0114078
0.0130552
0.0135439
0.0136518
0.0136728
0.0136772
0.0136783
0.0136784
0.0136773
0.013673
0.0136521
0.0135443
0.0130558
0.0114085
0.0086639
0.0116658
0.013759
0.0144918
0.0146615
0.0145868
0.014092
0.0123239
0.00793721
0.00793619
0.0123219
0.0140904
0.0145919
0.014706
0.0147184
0.0146578
0.0143284
0.0129408
0.00868285
0.00855074
0.0119164
0.012844
0.0130264
0.0130544
0.0130579
0.0130584
0.0130584
0.0130579
0.0130544
0.0130265
0.0128443
0.011917
0.00855111
0.00868308
0.0129408
0.0143252
0.0146335
0.0145835
0.0140922
0.012324
0.00793734
0.0079362
0.012322
0.0140908
0.0145928
0.0147078
0.0147249
0.0146904
0.0144997
0.0137596
0.0116523
0.00865723
0.0113241
0.0129524
0.013431
0.0135362
0.0135438
0.0135404
0.0135388
0.0135388
0.0135404
0.0135437
0.0135361
0.0134309
0.0129523
0.0113239
0.00865675
0.0116516
0.0137592
0.0144962
0.0146658
0.0145898
0.0140936
0.0123242
0.00793739
0.00793618
0.012322
0.0140912
0.0145936
0.0147097
0.0147317
0.014723
0.014655
0.0143996
0.0137391
0.012849
0.0134464
0.0138137
0.0139253
0.0139481
0.0139446
0.01394
0.0139381
0.0139381
0.01394
0.0139444
0.0139479
0.013925
0.0138133
0.0134458
0.012848
0.0137386
0.0143991
0.0146514
0.0146982
0.0145963
0.014095
0.0123243
0.00793737
0.00793613
0.0123219
0.0140915
0.0145942
0.014711
0.0147355
0.0147389
0.0147235
0.0146554
0.0144796
0.0142325
0.0142236
0.0141628
0.0141275
0.0141125
0.0141041
0.0140997
0.0140978
0.0140978
0.0140996
0.0141039
0.0141122
0.0141271
0.0141624
0.0142226
0.0142317
0.0144791
0.0146549
0.0147198
0.014714
0.0146
0.014096
0.0123243
0.00793728
0.00793605
0.0123219
0.0140917
0.0145947
0.0147119
0.0147374
0.0147447
0.0147452
0.0147295
0.014676
0.0145675
0.0144342
0.0142629
0.0141856
0.0141587
0.0141485
0.0141437
0.0141416
0.0141415
0.0141435
0.0141482
0.0141584
0.0141852
0.0142624
0.0144333
0.0145668
0.0146756
0.014729
0.0147415
0.0147198
0.0146017
0.0140965
0.0123243
0.00793715
0.00793595
0.0123218
0.0140919
0.0145951
0.0147124
0.0147384
0.0147468
0.0147513
0.0147475
0.0147194
0.0146366
0.0144815
0.0142861
0.0141994
0.0141694
0.0141584
0.0141531
0.0141505
0.0141504
0.0141529
0.0141581
0.0141691
0.014199
0.0142856
0.0144806
0.014636
0.014719
0.014747
0.0147475
0.0147219
0.0146026
0.0140969
0.0123243
0.007937
0.00793585
0.0123218
0.014092
0.0145954
0.0147128
0.0147389
0.0147477
0.0147531
0.0147517
0.0147283
0.0146499
0.0144915
0.0142911
0.0142025
0.0141719
0.0141604
0.0141546
0.0141514
0.0141513
0.0141543
0.01416
0.0141715
0.0142021
0.0142906
0.0144906
0.0146493
0.014728
0.0147512
0.0147493
0.0147228
0.0146031
0.0140972
0.0123242
0.00793684
0.00793575
0.0123218
0.0140921
0.0145955
0.0147131
0.0147393
0.0147482
0.0147538
0.0147529
0.0147303
0.0146526
0.0144938
0.0142923
0.0142034
0.0141725
0.0141608
0.0141546
0.0141509
0.0141507
0.0141543
0.0141604
0.0141721
0.0142029
0.0142918
0.0144929
0.014652
0.01473
0.0147524
0.01475
0.0147232
0.0146035
0.0140973
0.0123242
0.00793669
0.00793568
0.0123218
0.0140921
0.0145956
0.0147132
0.0147394
0.0147483
0.014754
0.0147531
0.0147306
0.0146529
0.0144942
0.0142925
0.0142035
0.0141725
0.0141607
0.0141544
0.0141504
0.0141502
0.014154
0.0141603
0.0141721
0.014203
0.014292
0.0144933
0.0146524
0.0147303
0.0147527
0.0147503
0.0147234
0.0146036
0.0140974
0.0123242
0.00793659
0.00793568
0.0123218
0.0140921
0.0145956
0.0147131
0.0147393
0.0147482
0.0147537
0.0147525
0.0147293
0.014651
0.0144926
0.0142917
0.0142029
0.014172
0.0141602
0.014154
0.0141501
0.0141499
0.0141536
0.0141598
0.0141715
0.0142024
0.0142912
0.0144918
0.0146505
0.014729
0.0147521
0.01475
0.0147233
0.0146035
0.0140974
0.0123242
0.0079366
0.00793575
0.0123218
0.0140921
0.0145955
0.0147129
0.014739
0.0147476
0.0147523
0.0147488
0.0147211
0.0146386
0.0144835
0.0142871
0.0142
0.0141697
0.0141581
0.0141522
0.0141488
0.0141486
0.0141518
0.0141577
0.0141692
0.0141996
0.0142866
0.0144828
0.0146382
0.0147209
0.0147485
0.0147487
0.0147228
0.0146033
0.0140973
0.0123243
0.00793671
0.00793584
0.0123219
0.014092
0.0145952
0.0147125
0.0147383
0.0147458
0.0147467
0.0147315
0.0146785
0.0145706
0.0144375
0.0142645
0.0141867
0.0141592
0.0141482
0.0141427
0.0141398
0.0141397
0.0141423
0.0141478
0.0141587
0.0141863
0.0142641
0.0144369
0.0145704
0.0146785
0.0147313
0.0147432
0.0147211
0.0146027
0.0140971
0.0123244
0.00793686
0.00793593
0.012322
0.0140918
0.0145949
0.0147119
0.0147367
0.0147403
0.0147254
0.0146581
0.0144835
0.0142378
0.0142288
0.0141654
0.0141291
0.0141133
0.0141042
0.0140989
0.0140965
0.0140964
0.0140987
0.0141038
0.0141129
0.0141288
0.0141651
0.0142285
0.0142377
0.0144836
0.014658
0.0147221
0.0147157
0.0146013
0.0140967
0.0123244
0.007937
0.007936
0.012322
0.0140916
0.0145944
0.0147107
0.0147331
0.0147248
0.0146575
0.0144032
0.0137448
0.0128574
0.0134529
0.013817
0.0139274
0.0139494
0.013945
0.0139399
0.0139375
0.0139374
0.0139396
0.0139447
0.0139491
0.0139272
0.013817
0.0134533
0.0128577
0.0137453
0.0144034
0.0146543
0.0147004
0.0145979
0.014096
0.0123245
0.00793711
0.00793604
0.0123221
0.0140914
0.0145937
0.0147091
0.0147266
0.0146925
0.0145026
0.0137638
0.0116587
0.00866125
0.011328
0.0129529
0.013431
0.0135355
0.0135423
0.0135384
0.0135365
0.0135364
0.0135382
0.013542
0.0135351
0.0134305
0.0129528
0.0113289
0.00866115
0.0116594
0.0137642
0.0144996
0.0146684
0.0145917
0.0140948
0.0123245
0.00793717
0.00793605
0.0123221
0.0140911
0.014593
0.0147074
0.0147203
0.0146601
0.014331
0.0129432
0.0086833
0.00854594
0.0119053
0.0128315
0.0130119
0.0130385
0.0130411
0.013041
0.0130409
0.0130407
0.0130377
0.0130105
0.0128291
0.0119018
0.00854399
0.00868312
0.0129434
0.0143282
0.0146362
0.0145857
0.0140936
0.0123245
0.00793716
0.00793602
0.012322
0.0140908
0.0145925
0.0147072
0.0147239
0.0146889
0.0144987
0.0137632
0.0116704
0.00866826
0.0113939
0.0130276
0.0134956
0.0135913
0.0136076
0.0136103
0.0136106
0.0136105
0.0136096
0.0136059
0.0135867
0.0134847
0.0130075
0.0113814
0.00866607
0.0116697
0.0137632
0.0144959
0.014665
0.0145894
0.0140936
0.0123244
0.00793709
0.00793595
0.0123218
0.0140902
0.0145917
0.0147068
0.0147277
0.0147177
0.0146495
0.0143989
0.0137553
0.0128999
0.0135701
0.0139947
0.0140874
0.0140956
0.0140929
0.0140918
0.0140915
0.0140913
0.0140908
0.0140896
0.0140842
0.0140546
0.0139256
0.0135206
0.0128782
0.0137477
0.014397
0.0146463
0.0146938
0.0145933
0.0140936
0.0123242
0.00793697
0.00793581
0.0123206
0.0140874
0.014588
0.014703
0.0147258
0.0147271
0.0147105
0.0146463
0.0144885
0.0142905
0.0143686
0.0143694
0.014267
0.0142202
0.0142056
0.0142017
0.0142008
0.0142005
0.0142006
0.0142011
0.0142031
0.0142094
0.0142275
0.0142628
0.0142404
0.0144711
0.0146418
0.0147068
0.0147032
0.0145918
0.0140909
0.0123229
0.00793676
0.00793519
0.0123123
0.0140711
0.0145676
0.0146812
0.0147042
0.0147088
0.0147074
0.0146952
0.0146614
0.0146107
0.0145778
0.0144853
0.0143452
0.0142875
0.0142708
0.0142669
0.0142661
0.014266
0.0142659
0.0142665
0.0142698
0.0142846
0.0143367
0.0144641
0.0145559
0.0146425
0.0146904
0.0147037
0.0146853
0.0145719
0.0140745
0.0123145
0.00793607
0.00793124
0.0122621
0.0139815
0.0144604
0.0145685
0.01459
0.014595
0.014597
0.0145965
0.0145907
0.0145758
0.014547
0.0144834
0.0143966
0.0143569
0.0143449
0.0143424
0.0143422
0.0143422
0.0143419
0.0143419
0.014344
0.0143554
0.0143939
0.0144786
0.0145424
0.0145795
0.014594
0.0145941
0.0145732
0.0144646
0.0139847
0.0122641
0.00793205
0.00790783
0.0120033
0.0135649
0.0139822
0.0140726
0.01409
0.0140941
0.0140962
0.0140979
0.0140982
0.0140948
0.0140831
0.0140571
0.0140219
0.0140046
0.0139992
0.0139982
0.0139983
0.0139983
0.0139981
0.0139979
0.0139987
0.0140039
0.0140208
0.0140555
0.0140815
0.0140943
0.0140976
0.0140946
0.0140769
0.0139859
0.0135678
0.0120052
0.00790856
0.00779787
0.0109286
0.0120038
0.0122632
0.0123141
0.0123232
0.0123255
0.012327
0.0123285
0.0123297
0.0123297
0.0123272
0.0123206
0.012311
0.012306
0.0123041
0.0123037
0.0123036
0.0123036
0.0123036
0.0123036
0.012304
0.0123058
0.0123107
0.0123201
0.0123267
0.0123292
0.0123291
0.0123268
0.0123173
0.0122659
0.012006
0.01093
0.00779849
0.00747419
0.00779798
0.00790814
0.00793178
0.00793602
0.00793702
0.00793765
0.00793831
0.00793904
0.0079398
0.00794049
0.00794089
0.00794086
0.0079403
0.00793985
0.00793946
0.0079391
0.00793879
0.00793866
0.00793881
0.0079391
0.00793941
0.00793974
0.00794012
0.00794061
0.00794057
0.00794012
0.00793942
0.00793861
0.00793737
0.00793289
0.00790904
0.00779866
0.00747465
0.0094686
0.0111478
0.0117831
0.0119407
0.0119714
0.0119765
0.0119772
0.0119774
0.0119775
0.0119775
0.0119776
0.0119776
0.0119776
0.0119776
0.0119776
0.0119776
0.0119775
0.0119775
0.0119775
0.0119775
0.0119775
0.0119776
0.0119776
0.0119776
0.0119776
0.0119775
0.0119775
0.0119773
0.0119766
0.0119715
0.0119408
0.0117832
0.0111479
0.00946872
0.0111478
0.0116223
0.0123484
0.0125758
0.0126278
0.0126373
0.0126388
0.0126391
0.0126391
0.0126392
0.0126392
0.0126392
0.0126392
0.0126393
0.0126393
0.0126393
0.0126393
0.0126393
0.0126393
0.0126393
0.0126393
0.0126393
0.0126393
0.0126393
0.0126392
0.0126392
0.0126392
0.0126389
0.0126374
0.0126279
0.0125759
0.0123485
0.0116224
0.0111479
0.0117833
0.0123486
0.0132011
0.0134909
0.0135633
0.013578
0.0135805
0.013581
0.0135811
0.0135813
0.0135814
0.0135815
0.0135817
0.0135818
0.0135819
0.013582
0.013582
0.0135821
0.0135821
0.013582
0.013582
0.0135819
0.0135818
0.0135817
0.0135816
0.0135814
0.0135813
0.0135808
0.0135782
0.0135636
0.0134911
0.0132013
0.0123487
0.0117836
0.011941
0.012576
0.013491
0.013811
0.0138939
0.0139113
0.0139145
0.0139151
0.0139153
0.0139155
0.0139156
0.013916
0.0139163
0.0139166
0.0139168
0.013917
0.0139171
0.0139172
0.0139172
0.0139171
0.013917
0.0139169
0.0139166
0.0139163
0.013916
0.0139157
0.0139155
0.0139149
0.0139117
0.0138943
0.0138113
0.0134913
0.0125763
0.0119414
0.0119719
0.012628
0.0135635
0.0138939
0.0139806
0.0139991
0.0140026
0.0140032
0.0140032
0.0140028
0.0140024
0.014003
0.0140037
0.0140043
0.0140048
0.014005
0.0140052
0.0140053
0.0140053
0.0140052
0.0140051
0.0140048
0.0140044
0.0140038
0.014003
0.0140025
0.0140028
0.0140027
0.0139996
0.0139811
0.0138944
0.0135639
0.0126284
0.0119724
0.011977
0.0126376
0.0135781
0.0139113
0.0139991
0.0140179
0.0140213
0.0140214
0.0140194
0.0140151
0.014011
0.0140128
0.0140157
0.0140174
0.0140182
0.0140186
0.0140188
0.0140189
0.0140189
0.0140188
0.0140187
0.0140183
0.0140174
0.0140157
0.0140129
0.0140111
0.0140152
0.014019
0.0140177
0.0139995
0.0139119
0.0135786
0.012638
0.0119776
0.0119778
0.0126391
0.0135807
0.0139145
0.0140026
0.0140213
0.0140239
0.0140208
0.0140092
0.0139856
0.0139636
0.0139723
0.0139861
0.0139931
0.0139955
0.0139964
0.0139965
0.0139966
0.0139966
0.0139966
0.0139964
0.0139955
0.0139931
0.0139862
0.0139724
0.0139637
0.0139857
0.0140087
0.014017
0.0140021
0.0139149
0.0135812
0.0126395
0.0119785
0.0119779
0.0126393
0.0135811
0.0139151
0.0140031
0.0140213
0.0140207
0.0140049
0.0139551
0.0138549
0.0137693
0.0138053
0.0138672
0.0138963
0.0139044
0.0139076
0.0139082
0.0139082
0.0139082
0.0139082
0.0139076
0.0139045
0.0138964
0.0138673
0.0138054
0.0137694
0.013855
0.0139547
0.0140012
0.0139988
0.0139148
0.0135815
0.0126397
0.0119787
0.011978
0.0126393
0.0135812
0.0139152
0.014003
0.0140193
0.0140094
0.0139559
0.0137912
0.013465
0.0133044
0.0133198
0.013534
0.0136351
0.0136603
0.0136714
0.0136739
0.0136742
0.0136743
0.013674
0.0136715
0.0136604
0.0136352
0.0135342
0.0133199
0.0133045
0.013465
0.0137908
0.0139522
0.0139875
0.0139128
0.0135813
0.0126397
0.0119789
0.011978
0.0126393
0.0135812
0.0139153
0.0140026
0.0140153
0.0139873
0.0138605
0.0134753
0.0128301
0.0155051
0.0124728
0.0128878
0.0131431
0.0132084
0.0132331
0.0132387
0.0132396
0.0132396
0.0132387
0.0132331
0.0132085
0.0131432
0.012888
0.012473
0.0155048
0.0128302
0.0134749
0.0138568
0.0139654
0.0139088
0.0135807
0.0126396
0.0119789
0.011978
0.0126392
0.0135812
0.0139154
0.0140023
0.0140123
0.0139701
0.0137911
0.0133607
0.0156662
0.0147218
0.0124345
0.0127395
0.0128579
0.012875
0.0128755
0.0128751
0.0128751
0.0128755
0.012875
0.0128579
0.0127397
0.0124347
0.0147226
0.0156663
0.0133602
0.0137874
0.0139482
0.0139056
0.0135802
0.0126394
0.0119788
0.0119779
0.0126391
0.0135813
0.0139156
0.0140031
0.0140161
0.0139883
0.0138609
0.0134734
0.0128231
0.0154607
0.0124312
0.0128716
0.0131508
0.0132663
0.0132356
0.0132197
0.0132157
0.0132157
0.0132197
0.0132356
0.0132663
0.0131507
0.0128715
0.0124309
0.0154593
0.0128228
0.0134728
0.0138571
0.0139663
0.0139093
0.0135808
0.0126394
0.0119787
0.0119778
0.0126391
0.0135813
0.0139159
0.0140041
0.0140209
0.0140112
0.013957
0.0137882
0.0134496
0.0132611
0.013241
0.013453
0.0135444
0.0135773
0.0135643
0.013556
0.0135533
0.0135533
0.0135559
0.0135643
0.0135772
0.0135443
0.0134528
0.0132407
0.0132607
0.0134493
0.0137876
0.0139532
0.0139892
0.013914
0.0135816
0.0126393
0.0119786
0.0119777
0.012639
0.0135814
0.0139161
0.0140048
0.0140236
0.0140234
0.0140068
0.013952
0.0138356
0.0137134
0.0136975
0.01373
0.0137239
0.0137182
0.0137108
0.0137069
0.0137055
0.0137055
0.0137069
0.0137108
0.0137182
0.0137238
0.0137299
0.0136973
0.0137131
0.0138354
0.0139514
0.014003
0.0140014
0.0139166
0.0135821
0.0126393
0.0119784
0.0119775
0.0126389
0.0135814
0.0139162
0.0140051
0.0140247
0.0140279
0.0140239
0.0140067
0.0139646
0.0139006
0.0138479
0.0138184
0.0137799
0.0137624
0.0137556
0.013753
0.013752
0.013752
0.0137529
0.0137555
0.0137623
0.0137798
0.0138183
0.0138477
0.0139004
0.0139645
0.0140062
0.0140201
0.0140058
0.0139176
0.0135823
0.0126392
0.0119781
0.0119774
0.0126389
0.0135814
0.0139163
0.0140053
0.0140251
0.0140292
0.0140286
0.0140209
0.0139971
0.0139487
0.0138853
0.0138401
0.0137935
0.0137731
0.0137662
0.0137639
0.0137631
0.013763
0.0137638
0.0137662
0.013773
0.0137934
0.01384
0.0138851
0.0139486
0.013997
0.0140203
0.0140248
0.0140071
0.013918
0.0135824
0.0126392
0.0119779
0.0119773
0.0126389
0.0135814
0.0139164
0.0140054
0.0140253
0.0140296
0.0140298
0.014024
0.014004
0.0139587
0.0138932
0.0138447
0.0137964
0.0137754
0.0137685
0.0137661
0.0137653
0.0137653
0.0137661
0.0137684
0.0137753
0.0137962
0.0138445
0.0138929
0.0139585
0.0140038
0.0140235
0.014026
0.0140075
0.0139182
0.0135824
0.0126391
0.0119777
0.0119772
0.0126388
0.0135814
0.0139164
0.0140055
0.0140254
0.0140298
0.0140301
0.0140247
0.0140053
0.0139605
0.0138946
0.0138456
0.013797
0.0137759
0.0137689
0.0137666
0.0137657
0.0137656
0.0137665
0.0137689
0.0137758
0.0137969
0.0138454
0.0138944
0.0139604
0.0140052
0.0140241
0.0140263
0.0140077
0.0139183
0.0135824
0.0126391
0.0119776
0.0119771
0.0126388
0.0135814
0.0139165
0.0140055
0.0140254
0.0140299
0.0140301
0.0140247
0.0140054
0.0139606
0.0138947
0.0138456
0.013797
0.0137759
0.013769
0.0137666
0.0137656
0.0137656
0.0137665
0.0137689
0.0137758
0.0137969
0.0138455
0.0138945
0.0139605
0.0140053
0.0140242
0.0140264
0.0140078
0.0139183
0.0135825
0.0126391
0.0119775
0.0119771
0.0126389
0.0135814
0.0139164
0.0140055
0.0140254
0.0140298
0.0140299
0.0140242
0.0140042
0.013959
0.0138935
0.0138449
0.0137965
0.0137755
0.0137685
0.0137661
0.0137652
0.0137652
0.0137661
0.0137685
0.0137754
0.0137964
0.0138447
0.0138933
0.0139589
0.0140041
0.0140237
0.0140262
0.0140077
0.0139183
0.0135825
0.0126391
0.0119776
0.0119772
0.0126389
0.0135814
0.0139164
0.0140055
0.0140253
0.0140294
0.0140289
0.0140212
0.0139976
0.0139493
0.0138859
0.0138405
0.0137938
0.0137733
0.0137664
0.0137639
0.013763
0.013763
0.0137639
0.0137663
0.0137732
0.0137937
0.0138404
0.0138858
0.0139492
0.0139975
0.0140208
0.0140252
0.0140074
0.0139182
0.0135825
0.0126392
0.0119777
0.0119773
0.0126389
0.0135814
0.0139164
0.0140053
0.0140249
0.0140282
0.0140244
0.0140073
0.0139654
0.0139016
0.0138489
0.0138192
0.0137805
0.0137629
0.013756
0.0137533
0.0137523
0.0137523
0.0137532
0.0137559
0.0137628
0.0137805
0.0138191
0.0138488
0.0139016
0.0139654
0.0140069
0.0140207
0.0140062
0.0139179
0.0135824
0.0126392
0.0119778
0.0119774
0.012639
0.0135814
0.0139163
0.014005
0.0140239
0.0140239
0.0140074
0.0139529
0.0138369
0.0137152
0.0136995
0.0137314
0.0137251
0.0137193
0.0137119
0.0137079
0.0137065
0.0137064
0.0137079
0.0137119
0.0137193
0.0137251
0.0137315
0.0136995
0.0137152
0.013837
0.0139524
0.0140037
0.0140019
0.0139169
0.0135822
0.0126393
0.011978
0.0119775
0.0126391
0.0135814
0.0139161
0.0140045
0.0140213
0.0140118
0.0139578
0.0137895
0.0134517
0.013264
0.0132438
0.0134551
0.0135462
0.0135791
0.0135662
0.0135578
0.0135552
0.0135552
0.0135578
0.0135662
0.0135792
0.0135463
0.0134552
0.013244
0.0132641
0.0134518
0.0137891
0.0139542
0.0139898
0.0139144
0.0135818
0.0126394
0.0119782
0.0119777
0.0126391
0.0135814
0.0139159
0.0140035
0.0140166
0.0139889
0.0138618
0.0134748
0.0128255
0.0154715
0.012433
0.0128722
0.0131512
0.0132667
0.0132359
0.01322
0.0132159
0.013216
0.01322
0.013236
0.0132667
0.0131511
0.012872
0.0124326
0.0154715
0.0128254
0.0134744
0.0138582
0.013967
0.0139099
0.0135811
0.0126394
0.0119783
0.0119777
0.0126392
0.0135814
0.0139157
0.0140027
0.0140128
0.0139708
0.013792
0.0133615
0.0156654
0.0147056
0.0124266
0.0127288
0.0128453
0.0128617
0.0128618
0.0128613
0.0128612
0.0128617
0.0128613
0.0128444
0.0127267
0.0124226
0.014697
0.0156638
0.0133609
0.0137884
0.013949
0.0139062
0.0135805
0.0126395
0.0119784
0.0119778
0.0126392
0.0135813
0.0139156
0.014003
0.0140159
0.0139881
0.0138615
0.0134764
0.0128312
0.0155049
0.0124604
0.0128634
0.0131061
0.0131638
0.0131855
0.0131904
0.0131911
0.013191
0.0131901
0.0131846
0.0131608
0.0130983
0.0128496
0.0124464
0.015488
0.0128284
0.0134753
0.0138577
0.0139663
0.0139094
0.013581
0.0126396
0.0119785
0.0119777
0.0126391
0.013581
0.0139151
0.0140031
0.0140195
0.0140098
0.0139565
0.0137915
0.0134635
0.0132955
0.0132919
0.0134777
0.0135532
0.013561
0.0135633
0.0135636
0.0135635
0.0135634
0.0135631
0.0135611
0.0135535
0.0135345
0.0134512
0.0132625
0.0132764
0.0134563
0.0137889
0.0139523
0.013988
0.0139131
0.0135813
0.0126396
0.0119784
0.0119769
0.0126377
0.0135785
0.013912
0.014
0.0140183
0.0140179
0.0140021
0.0139516
0.0138478
0.0137503
0.0137592
0.0137836
0.0137931
0.0137736
0.0137643
0.0137615
0.0137608
0.0137606
0.0137607
0.0137609
0.0137617
0.0137654
0.0137641
0.0137216
0.0137233
0.013836
0.0139473
0.0139975
0.0139961
0.0139122
0.0135792
0.0126382
0.0119777
0.0119719
0.0126281
0.0135639
0.0138947
0.0139816
0.0140003
0.014003
0.0139998
0.0139874
0.0139598
0.0139254
0.0139061
0.0138807
0.0138662
0.0138386
0.0138266
0.0138232
0.0138225
0.0138223
0.0138224
0.0138231
0.013826
0.0138365
0.0138596
0.0138671
0.0138975
0.0139473
0.0139829
0.0139953
0.0139815
0.0138955
0.0135646
0.0126286
0.0119726
0.0119411
0.0125762
0.0134914
0.0138117
0.0138949
0.0139126
0.0139159
0.013916
0.0139135
0.0139064
0.0138934
0.0138745
0.0138446
0.0138161
0.0137936
0.0137845
0.013782
0.0137814
0.0137813
0.0137814
0.0137819
0.0137842
0.013793
0.0138146
0.0138419
0.0138729
0.0138975
0.0139103
0.0139121
0.0138958
0.0138127
0.0134921
0.0125766
0.0119417
0.0117835
0.0123487
0.0132015
0.0134916
0.0135644
0.0135792
0.013582
0.0135826
0.0135824
0.0135806
0.0135756
0.0135653
0.0135476
0.0135284
0.0135159
0.0135109
0.0135094
0.0135091
0.0135091
0.0135091
0.0135094
0.0135108
0.0135158
0.0135282
0.0135472
0.013565
0.0135762
0.0135808
0.0135798
0.0135653
0.0134925
0.0132021
0.0123491
0.011784
0.011148
0.0116225
0.0123489
0.0125766
0.0126287
0.0126385
0.0126402
0.0126407
0.0126408
0.0126404
0.0126388
0.0126346
0.012627
0.0126179
0.0126124
0.0126101
0.0126093
0.0126091
0.0126091
0.0126091
0.0126094
0.0126102
0.0126125
0.012618
0.012627
0.0126346
0.0126389
0.0126403
0.0126392
0.0126295
0.0125772
0.0123493
0.0116228
0.0111484
0.00946886
0.0111481
0.0117838
0.0119417
0.0119728
0.0119782
0.0119794
0.01198
0.0119805
0.0119808
0.0119804
0.0119785
0.0119743
0.0119685
0.0119651
0.0119636
0.0119628
0.0119625
0.0119623
0.0119625
0.0119629
0.0119636
0.0119652
0.0119685
0.0119742
0.0119784
0.0119802
0.0119805
0.0119794
0.0119739
0.0119426
0.0117844
0.0111484
0.00946921
0.010258
0.0127689
0.0138123
0.014097
0.0141582
0.0141692
0.014171
0.0141712
0.0141713
0.0141713
0.0141713
0.0141712
0.0141712
0.0141711
0.0141711
0.014171
0.014171
0.0141709
0.0141709
0.014171
0.014171
0.014171
0.0141711
0.0141711
0.0141712
0.0141712
0.0141712
0.014171
0.0141693
0.0141583
0.014097
0.0138123
0.0127689
0.0102581
0.0127689
0.0128503
0.0136089
0.0138787
0.0139478
0.0139618
0.0139642
0.0139646
0.0139646
0.0139646
0.0139646
0.0139646
0.0139645
0.0139645
0.0139644
0.0139644
0.0139644
0.0139644
0.0139644
0.0139644
0.0139644
0.0139644
0.0139645
0.0139645
0.0139646
0.0139646
0.0139646
0.0139642
0.0139618
0.0139477
0.0138787
0.0136089
0.0128503
0.0127689
0.0138125
0.013609
0.014382
0.0146876
0.0147741
0.0147936
0.0147973
0.0147979
0.014798
0.014798
0.014798
0.014798
0.014798
0.014798
0.0147981
0.0147981
0.0147981
0.0147981
0.0147981
0.0147981
0.0147981
0.0147981
0.0147981
0.014798
0.014798
0.014798
0.0147979
0.0147973
0.0147937
0.0147742
0.0146877
0.0143821
0.0136091
0.0138127
0.0140974
0.0138789
0.0146877
0.0150173
0.0151141
0.0151368
0.0151413
0.0151421
0.0151422
0.0151421
0.015142
0.015142
0.0151422
0.0151423
0.0151424
0.0151424
0.0151425
0.0151425
0.0151425
0.0151425
0.0151425
0.0151424
0.0151423
0.0151422
0.0151421
0.015142
0.015142
0.0151414
0.015137
0.0151143
0.0150175
0.0146879
0.0138791
0.0140978
0.0141587
0.013948
0.0147742
0.0151141
0.0152152
0.0152393
0.0152441
0.0152448
0.0152444
0.0152433
0.0152422
0.0152422
0.0152426
0.0152429
0.0152431
0.0152432
0.0152433
0.0152433
0.0152433
0.0152433
0.0152432
0.0152431
0.0152429
0.0152426
0.0152422
0.0152423
0.0152432
0.0152435
0.0152393
0.0152154
0.0151144
0.0147745
0.0139482
0.0141592
0.0141698
0.0139621
0.0147937
0.0151369
0.0152393
0.0152638
0.0152684
0.0152681
0.0152649
0.0152586
0.0152526
0.0152523
0.0152544
0.0152556
0.0152559
0.0152562
0.0152563
0.0152563
0.0152563
0.0152563
0.0152563
0.0152559
0.0152556
0.0152544
0.0152524
0.0152527
0.0152585
0.015264
0.0152625
0.0152392
0.0151371
0.014794
0.0139623
0.0141704
0.0141716
0.0139645
0.0147974
0.0151413
0.0152441
0.0152684
0.0152718
0.0152669
0.0152515
0.0152234
0.0151983
0.0151979
0.0152091
0.0152148
0.0152152
0.0152172
0.0152177
0.0152176
0.0152176
0.0152177
0.0152172
0.0152152
0.0152148
0.0152092
0.0151979
0.0151984
0.0152233
0.0152506
0.0152613
0.0152424
0.0151412
0.0147976
0.0139647
0.0141722
0.0141718
0.0139648
0.014798
0.0151421
0.0152448
0.0152681
0.015267
0.0152464
0.0151891
0.0150881
0.0150155
0.0150027
0.0150523
0.0150759
0.0150747
0.0150858
0.0150889
0.0150891
0.0150891
0.0150889
0.0150859
0.0150747
0.015076
0.0150524
0.0150027
0.0150155
0.015088
0.0151882
0.0152408
0.0152376
0.0151408
0.014798
0.013965
0.0141725
0.0141719
0.0139648
0.014798
0.0151421
0.0152444
0.0152651
0.0152525
0.0151912
0.0150274
0.0147641
0.0147753
0.0145047
0.0146541
0.0147333
0.0147247
0.0147665
0.0147774
0.0147786
0.0147786
0.0147774
0.0147665
0.0147248
0.0147334
0.0146542
0.0145048
0.0147753
0.014764
0.0150264
0.0151855
0.015223
0.0151377
0.0147974
0.0139649
0.0141725
0.0141718
0.0139647
0.014798
0.015142
0.0152435
0.0152598
0.0152279
0.0151007
0.0147884
0.0145508
0.0191707
0.0137396
0.0138974
0.0141035
0.014106
0.0141891
0.0142089
0.0142116
0.0142117
0.014209
0.0141892
0.014106
0.0141037
0.0138976
0.0137396
0.0191701
0.0145507
0.0147875
0.015095
0.0151983
0.0151323
0.0147963
0.0139646
0.0141724
0.0141717
0.0139646
0.0147979
0.015142
0.0152429
0.0152563
0.0152125
0.0150611
0.0149094
0.0197218
0.01648
0.0134874
0.0137964
0.0139442
0.0139406
0.0139336
0.0139317
0.0139317
0.0139336
0.0139407
0.0139443
0.0137965
0.0134876
0.016481
0.0197213
0.0149083
0.0150552
0.0151829
0.0151286
0.0147956
0.0139643
0.0141721
0.0141715
0.0139645
0.0147979
0.0151421
0.0152437
0.0152601
0.015228
0.0150999
0.0147845
0.0145369
0.0190362
0.0137237
0.0141303
0.0144934
0.0148903
0.0145823
0.0144957
0.0144805
0.0144805
0.0144956
0.0145822
0.0148902
0.0144933
0.0141302
0.0137233
0.0190347
0.0145366
0.0147834
0.0150941
0.0151984
0.0151324
0.0147962
0.0139642
0.0141719
0.0141713
0.0139644
0.0147979
0.0151424
0.0152449
0.0152657
0.0152528
0.0151895
0.0150188
0.014737
0.0147115
0.0144856
0.0149076
0.015036
0.0151277
0.0150521
0.0150221
0.015015
0.015015
0.015022
0.015052
0.0151277
0.0150358
0.0149075
0.0144853
0.0147112
0.0147367
0.0150177
0.0151837
0.0152232
0.0151379
0.0147971
0.0139642
0.0141716
0.0141711
0.0139643
0.0147979
0.0151425
0.0152456
0.0152691
0.0152676
0.0152442
0.0151772
0.0150534
0.0149508
0.0149805
0.0152955
0.0153036
0.0152991
0.0152801
0.0152714
0.015269
0.015269
0.0152714
0.01528
0.015299
0.0153035
0.0152954
0.0149802
0.0149506
0.0150531
0.0151762
0.0152384
0.015238
0.0151412
0.0147977
0.0139642
0.0141713
0.014171
0.0139643
0.0147979
0.0151426
0.0152459
0.0152705
0.0152734
0.0152652
0.0152383
0.0151837
0.0151255
0.0151604
0.0154242
0.0153906
0.0153633
0.0153523
0.0153487
0.0153476
0.0153476
0.0153486
0.0153523
0.0153633
0.0153905
0.0154241
0.0151602
0.0151254
0.0151835
0.0152374
0.0152594
0.0152437
0.0151426
0.0147979
0.0139641
0.014171
0.0141708
0.0139642
0.0147978
0.0151426
0.0152461
0.015271
0.0152752
0.0152713
0.0152558
0.015221
0.0151788
0.0152087
0.0154565
0.0154117
0.0153795
0.0153693
0.0153666
0.0153659
0.0153659
0.0153666
0.0153693
0.0153794
0.0154116
0.0154564
0.0152085
0.0151787
0.0152208
0.0152549
0.0152655
0.0152455
0.015143
0.014798
0.013964
0.0141708
0.0141707
0.0139641
0.0147978
0.0151427
0.0152461
0.0152712
0.0152756
0.0152728
0.0152599
0.0152295
0.0151909
0.0152191
0.0154631
0.0154159
0.0153827
0.0153727
0.0153701
0.0153695
0.0153695
0.0153701
0.0153727
0.0153827
0.0154158
0.015463
0.015219
0.0151908
0.0152294
0.0152589
0.015267
0.015246
0.0151431
0.014798
0.013964
0.0141706
0.0141706
0.0139641
0.0147978
0.0151427
0.0152462
0.0152712
0.0152758
0.0152731
0.0152607
0.0152312
0.0151932
0.0152211
0.0154643
0.0154167
0.0153833
0.0153733
0.0153708
0.0153701
0.0153701
0.0153708
0.0153733
0.0153833
0.0154166
0.0154642
0.0152209
0.0151931
0.015231
0.0152598
0.0152674
0.0152461
0.0151432
0.014798
0.0139639
0.0141705
0.0141705
0.0139641
0.0147978
0.0151427
0.0152462
0.0152712
0.0152758
0.0152731
0.0152607
0.0152312
0.0151933
0.0152212
0.0154644
0.0154167