/*--------------------------------*- C++ -*----------------------------------*\
| =========                 |                                                 |
| \\      /  F ield         | OpenFOAM: The Open Source CFD Toolbox           |
|  \\    /   O peration     | Version:  2112                                  |
|   \\  /    A nd           | Website:  www.openfoam.com                      |
|    \\/     M anipulation  |                                                 |
\*---------------------------------------------------------------------------*/
FoamFile
{
    version     2.0;
    format      ascii;
    arch        "LSB;label=32;scalar=64";
    class       volScalarField;
    location    "1";
    object      k;
}
// * * * * * * * * * * * * * * * * * * * * * * * * * * * * * * * * * * * * * //

dimensions      [0 2 -2 0 0 0 0];

internalField   nonuniform List<scalar> 
64906
(
0.00328613
0.00338832
0.00342402
0.00343197
0.00343338
0.00343361
0.00343367
0.00343371
0.00343375
0.00343378
0.00343382
0.00343385
0.00343387
0.00343389
0.00343389
0.0034339
0.00343389
0.00343389
0.00343389
0.00343389
0.00343389
0.00343388
0.00343388
0.00343386
0.00343384
0.00343381
0.00343377
0.00343374
0.00343368
0.00343344
0.00343202
0.00342408
0.00338838
0.00328618
0.00338834
0.00428232
0.00457805
0.00465129
0.00466628
0.00466892
0.00466937
0.00466949
0.00466957
0.00466965
0.00466973
0.0046698
0.00466987
0.00466993
0.00466998
0.00467002
0.00467004
0.00467005
0.00467005
0.00467004
0.00467002
0.00466999
0.00466994
0.00466989
0.00466982
0.00466975
0.00466967
0.00466954
0.00466908
0.00466644
0.00465144
0.0045782
0.00428246
0.00338842
0.00342408
0.00457814
0.00499416
0.00510757
0.00513319
0.00513816
0.00513907
0.00513932
0.00513948
0.00513964
0.00513983
0.00514002
0.0051402
0.00514037
0.00514051
0.00514061
0.00514068
0.00514072
0.00514073
0.00514069
0.00514063
0.00514053
0.0051404
0.00514024
0.00514006
0.00513987
0.00513969
0.00513941
0.00513847
0.00513348
0.00510784
0.00499441
0.00457836
0.00342419
0.00343205
0.00465142
0.00510763
0.00523717
0.00526769
0.00527388
0.00527507
0.00527541
0.00527564
0.00527587
0.00527613
0.00527646
0.00527679
0.00527708
0.00527732
0.0052775
0.00527762
0.00527768
0.00527768
0.00527763
0.00527752
0.00527735
0.00527712
0.00527683
0.00527652
0.00527619
0.00527592
0.00527555
0.00527431
0.00526809
0.00523754
0.00510796
0.0046517
0.0034322
0.00343349
0.00466644
0.00513328
0.00526772
0.00529989
0.00530653
0.00530786
0.00530824
0.00530843
0.00530853
0.00530868
0.00530924
0.00530981
0.0053103
0.00531068
0.00531094
0.00531111
0.0053112
0.0053112
0.00531113
0.00531096
0.00531071
0.00531034
0.00530987
0.0053093
0.00530875
0.00530859
0.00530833
0.00530705
0.00530039
0.00526817
0.00513368
0.00466677
0.00343366
0.00343374
0.00466909
0.00513825
0.00527391
0.00530654
0.00531332
0.00531467
0.00531488
0.00531447
0.00531325
0.00531209
0.00531339
0.00531485
0.00531587
0.00531653
0.00531688
0.00531709
0.0053172
0.00531721
0.00531711
0.00531691
0.00531657
0.00531592
0.00531492
0.00531347
0.00531217
0.00531332
0.00531438
0.00531368
0.00530707
0.00527444
0.00513873
0.00466947
0.00343394
0.00343381
0.00466953
0.00513916
0.00527509
0.00530784
0.00531464
0.00531576
0.00531491
0.00531108
0.00530247
0.00529347
0.00529915
0.00530511
0.00530826
0.00530977
0.00531023
0.00531042
0.00531052
0.00531053
0.00531044
0.00531027
0.00530982
0.00530832
0.00530518
0.00529923
0.00529355
0.00530255
0.005311
0.00531372
0.00530815
0.00527565
0.0051397
0.00466997
0.00343404
0.00343385
0.00466963
0.00513938
0.0052754
0.00530818
0.00531481
0.00531486
0.00530946
0.00529086
0.00524851
0.00520048
0.00523308
0.00526158
0.00527374
0.0052781
0.00527882
0.00527892
0.00527899
0.005279
0.00527895
0.00527887
0.00527817
0.00527382
0.00526167
0.00523318
0.00520056
0.00524859
0.00529079
0.00530828
0.00530726
0.00527581
0.00513996
0.00467012
0.00343412
0.00343388
0.00466968
0.0051395
0.00527557
0.0053083
0.00531432
0.00531102
0.00529101
0.00522189
0.00505131
0.0048304
0.00500797
0.00513182
0.00517618
0.00518873
0.00519074
0.00519101
0.00519112
0.00519113
0.00519104
0.00519079
0.00518881
0.00517628
0.00513194
0.0050081
0.00483046
0.00505139
0.00522184
0.00528984
0.00530343
0.00527532
0.00514005
0.00467021
0.00343419
0.00343391
0.00466972
0.0051396
0.00527572
0.0053083
0.00531308
0.00530271
0.00524984
0.0050536
0.00449686
0.00365877
0.00442083
0.00485746
0.00498716
0.00501669
0.00502261
0.00502384
0.00502415
0.00502416
0.00502387
0.00502266
0.00501676
0.00498726
0.00485762
0.00442104
0.00365876
0.00449694
0.00505357
0.0052487
0.00529515
0.00527408
0.00514001
0.00467025
0.00343424
0.00343392
0.00466974
0.0051397
0.00527588
0.00530838
0.00531211
0.00529505
0.00520639
0.00484205
0.00366515
0.00362234
0.00455573
0.00480197
0.00485137
0.00485926
0.00486029
0.00486043
0.00486043
0.0048603
0.00485928
0.0048514
0.00480204
0.00455588
0.00362246
0.00366521
0.00484201
0.00520527
0.0052875
0.00527309
0.00514002
0.00467028
0.00343428
0.00343393
0.00466974
0.0051398
0.0052761
0.00530889
0.00531392
0.00530383
0.00525098
0.00505364
0.00449292
0.0036564
0.0043961
0.00482776
0.00495479
0.00498357
0.00498593
0.00498508
0.00498464
0.00498464
0.00498507
0.00498591
0.00498355
0.00495477
0.00482775
0.00439604
0.00365625
0.00449272
0.00505347
0.00524978
0.00529623
0.00527484
0.00514041
0.00467031
0.00343429
0.00343392
0.00466974
0.00513989
0.00527632
0.00530942
0.0053159
0.00531309
0.00529328
0.00522283
0.00504699
0.00481379
0.00496252
0.00505605
0.00508551
0.0050919
0.00509108
0.00508989
0.00508937
0.00508936
0.00508987
0.00509104
0.00509184
0.00508543
0.00505595
0.00496236
0.00481352
0.00504682
0.00522264
0.00529205
0.00530544
0.00527676
0.00514082
0.00467035
0.00343428
0.0034339
0.00466973
0.00513996
0.00527649
0.00530979
0.00531705
0.00531781
0.00531281
0.00529282
0.00524374
0.00517645
0.00516944
0.00515082
0.00514062
0.00513646
0.00513421
0.00513303
0.00513254
0.00513253
0.005133
0.00513416
0.00513638
0.00514053
0.0051507
0.00516917
0.00517624
0.00524361
0.00529263
0.00531156
0.00531013
0.00527786
0.0051411
0.00467036
0.00343425
0.00343388
0.00466972
0.00514002
0.00527662
0.00531003
0.0053176
0.00531959
0.0053193
0.00531405
0.0052978
0.00526621
0.00522731
0.00517905
0.00515713
0.00514952
0.0051467
0.00514544
0.00514489
0.00514487
0.0051454
0.00514663
0.00514943
0.00515702
0.00517892
0.00522707
0.00526604
0.00529769
0.00531386
0.00531804
0.00531189
0.00527837
0.00514126
0.00467035
0.00343421
0.00343385
0.00466971
0.00514007
0.00527672
0.00531018
0.00531787
0.00532022
0.00532116
0.00531941
0.00531032
0.00528559
0.00524085
0.00518588
0.00516118
0.00515267
0.00514962
0.00514824
0.00514756
0.00514754
0.00514818
0.00514954
0.00515258
0.00516107
0.00518575
0.00524062
0.00528543
0.00531022
0.00531923
0.00531989
0.00531252
0.00527862
0.00514136
0.00467035
0.00343416
0.00343381
0.0046697
0.0051401
0.00527678
0.00531029
0.00531802
0.00532048
0.00532171
0.0053207
0.00531298
0.00528945
0.00524379
0.00518739
0.00516213
0.0051534
0.00515024
0.00514872
0.00514791
0.00514787
0.00514865
0.00515015
0.0051533
0.00516202
0.00518726
0.00524356
0.0052893
0.00531288
0.00532051
0.00532044
0.00531278
0.00527876
0.00514143
0.00467034
0.00343411
0.00343378
0.00466969
0.00514012
0.00527683
0.00531035
0.00531811
0.0053206
0.0053219
0.00532104
0.00531357
0.00529025
0.00524446
0.00518775
0.00516237
0.00515357
0.00515035
0.00514875
0.00514781
0.00514776
0.00514867
0.00515025
0.00515347
0.00516226
0.00518761
0.00524423
0.0052901
0.00531348
0.00532086
0.00532064
0.0053129
0.00527884
0.00514147
0.00467033
0.00343407
0.00343376
0.00466968
0.00514013
0.00527684
0.00531037
0.00531814
0.00532064
0.00532195
0.00532111
0.00531365
0.00529034
0.00524455
0.00518779
0.0051624
0.00515358
0.00515034
0.0051487
0.00514769
0.00514763
0.0051486
0.00515023
0.00515347
0.00516228
0.00518766
0.00524433
0.0052902
0.00531357
0.00532094
0.0053207
0.00531295
0.00527888
0.00514149
0.00467033
0.00343404
0.00343376
0.00466969
0.00514013
0.00527684
0.00531036
0.00531812
0.0053206
0.00532186
0.0053209
0.00531323
0.00528973
0.00524407
0.00518754
0.00516222
0.00515343
0.00515019
0.00514857
0.00514759
0.00514753
0.00514847
0.00515008
0.00515332
0.0051621
0.00518741
0.00524386
0.00528961
0.00531315
0.00532074
0.00532062
0.00531292
0.00527887
0.00514149
0.00467034
0.00343404
0.00343378
0.0046697
0.00514012
0.00527681
0.00531031
0.00531803
0.00532043
0.00532143
0.00531976
0.00531075
0.00528609
0.00524137
0.00518614
0.00516135
0.00515274
0.00514956
0.005148
0.00514713
0.00514709
0.0051479
0.00514945
0.00515263
0.00516124
0.00518602
0.00524119
0.00528599
0.0053107
0.00531962
0.0053202
0.00531276
0.0052788
0.00514147
0.00467036
0.00343407
0.00343381
0.00466972
0.0051401
0.00527674
0.0053102
0.00531782
0.00531988
0.00531969
0.00531456
0.00529847
0.00526704
0.00522817
0.00517948
0.00515741
0.00514965
0.00514665
0.00514519
0.00514446
0.00514442
0.0051451
0.00514654
0.00514954
0.00515731
0.00517938
0.00522803
0.00526697
0.00529845
0.00531445
0.00531849
0.00531223
0.00527862
0.00514141
0.00467038
0.00343412
0.00343384
0.00466974
0.00514006
0.00527665
0.00531002
0.00531734
0.00531819
0.00531333
0.00529354
0.00524478
0.00517784
0.00517082
0.00515151
0.00514108
0.00513671
0.00513425
0.00513287
0.00513224
0.00513221
0.0051328
0.00513415
0.00513661
0.00514099
0.00515144
0.00517075
0.00517784
0.00524481
0.00529346
0.00531216
0.00531058
0.00527819
0.0051413
0.0046704
0.00343417
0.00343386
0.00466976
0.00514001
0.00527652
0.0053097
0.00531626
0.00531357
0.00529393
0.00522379
0.00504852
0.00481609
0.00496428
0.00505695
0.00508611
0.00509227
0.00509125
0.0050899
0.00508928
0.00508926
0.00508984
0.00509117
0.00509218
0.00508605
0.00505695
0.00496437
0.00481618
0.00504863
0.00522378
0.00529282
0.005306
0.00527717
0.00514108
0.00467041
0.0034342
0.00343388
0.00466977
0.00513995
0.00527635
0.00530922
0.00531435
0.00530439
0.00525174
0.00505477
0.00449474
0.00365765
0.00439722
0.0048279
0.00495475
0.00498334
0.00498552
0.00498454
0.00498401
0.004984
0.00498449
0.00498544
0.00498324
0.00495464
0.00482786
0.00439746
0.00365761
0.00449492
0.00505482
0.00525069
0.00529689
0.00527533
0.00514072
0.0046704
0.00343422
0.00343388
0.00466978
0.00513988
0.00527617
0.00530877
0.0053126
0.00529565
0.00520707
0.00484272
0.0036653
0.00362081
0.00455244
0.00479823
0.00484708
0.00485458
0.00485536
0.00485536
0.00485532
0.00485525
0.00485436
0.00484668
0.00479753
0.00455139
0.00362016
0.00366523
0.00484273
0.00520606
0.00528822
0.00527366
0.00514038
0.0046704
0.00343422
0.00343387
0.00466977
0.00513979
0.00527603
0.00530874
0.00531365
0.00530346
0.00525078
0.00505473
0.00449819
0.00366003
0.00441648
0.00484902
0.00497275
0.00499875
0.00500338
0.00500416
0.00500427
0.00500422
0.00500398
0.0050029
0.00499743
0.00496958
0.0048431
0.00441251
0.00365925
0.00449788
0.00505462
0.00524975
0.00529604
0.00527475
0.00514043
0.00467039
0.0034342
0.00343385
0.00466971
0.00513961
0.00527578
0.00530864
0.00531482
0.00531172
0.00529194
0.00522296
0.00505204
0.00482904
0.00499801
0.00510682
0.0051306
0.00513259
0.00513183
0.00513152
0.00513144
0.00513139
0.00513126
0.0051309
0.00512932
0.00512118
0.00508708
0.00498334
0.00482226
0.00504959
0.00522224
0.00529077
0.00530429
0.00527596
0.00514043
0.00467034
0.00343416
0.0034338
0.0046693
0.00513873
0.00527464
0.00530747
0.00531426
0.00531454
0.00530936
0.00529072
0.00524714
0.00519401
0.00521125
0.00520908
0.00518028
0.00516695
0.00516272
0.00516161
0.00516134
0.00516127
0.00516129
0.00516144
0.005162
0.00516382
0.0051693
0.00518084
0.0051791
0.00524176
0.00528917
0.00530801
0.00530711
0.00527552
0.00513963
0.00466991
0.00343409
0.00343357
0.00466668
0.00513378
0.00526848
0.00530089
0.00530775
0.00530908
0.00530846
0.00530455
0.00529451
0.00527976
0.00526903
0.00524211
0.00520274
0.00518618
0.00518131
0.00518016
0.00517992
0.00517987
0.00517987
0.00518005
0.00518103
0.00518533
0.0052003
0.00523633
0.00526349
0.00528864
0.0053029
0.00530713
0.0053018
0.00526956
0.00513467
0.00466727
0.00343384
0.00343215
0.00465169
0.00510816
0.00523794
0.00526871
0.00527516
0.00527664
0.00527709
0.00527675
0.00527472
0.00526995
0.00526096
0.00524216
0.00521725
0.00520568
0.00520208
0.00520132
0.00520124
0.00520123
0.00520117
0.00520119
0.00520186
0.00520526
0.0052165
0.00524086
0.00525977
0.00527111
0.0052758
0.00527604
0.00526989
0.00523901
0.00510899
0.00465225
0.0034324
0.00342418
0.00457843
0.00499471
0.00510834
0.00513418
0.00513941
0.00514063
0.00514121
0.00514158
0.00514147
0.00514018
0.00513637
0.00512834
0.00511787
0.00511263
0.00511092
0.00511058
0.00511058
0.00511058
0.00511053
0.0051105
0.00511079
0.00511243
0.00511758
0.00512794
0.00513596
0.0051401
0.00514133
0.00514056
0.0051353
0.00510929
0.00499546
0.00457893
0.00342441
0.00338846
0.00428262
0.00457857
0.00465199
0.00466716
0.00467001
0.00467072
0.00467114
0.00467152
0.00467178
0.00467169
0.00467075
0.00466855
0.0046655
0.00466386
0.00466325
0.0046631
0.00466307
0.00466307
0.00466306
0.00466308
0.00466322
0.00466381
0.00466542
0.00466843
0.00467061
0.00467157
0.00467162
0.00467098
0.00466803
0.00465273
0.00457916
0.00428302
0.00338866
0.00328624
0.0033885
0.00342428
0.00343232
0.00343383
0.00343418
0.00343438
0.00343459
0.00343482
0.00343505
0.00343525
0.00343536
0.00343532
0.0034351
0.00343494
0.00343481
0.00343469
0.00343459
0.00343455
0.0034346
0.00343469
0.00343479
0.0034349
0.00343505
0.00343524
0.00343526
0.00343514
0.00343493
0.00343468
0.00343425
0.00343267
0.00342456
0.00338871
0.00328638
0.00457297
0.00512838
0.00533796
0.00539175
0.00540281
0.00540473
0.00540504
0.0054051
0.00540513
0.00540515
0.00540516
0.00540517
0.00540517
0.00540517
0.00540516
0.00540515
0.00540515
0.00540514
0.00540514
0.00540514
0.00540515
0.00540515
0.00540516
0.00540516
0.00540516
0.00540515
0.00540513
0.00540507
0.00540477
0.00540284
0.00539179
0.00533799
0.00512842
0.00457301
0.00512839
0.00860224
0.00955578
0.00982415
0.00988807
0.00990089
0.00990308
0.00990338
0.00990338
0.00990333
0.00990325
0.00990315
0.00990305
0.00990296
0.00990288
0.00990281
0.00990277
0.00990275
0.00990275
0.00990277
0.00990281
0.00990288
0.00990296
0.00990305
0.00990314
0.00990324
0.00990327
0.009903
0.00990082
0.00988802
0.0098241
0.00955573
0.00860221
0.00512843
0.00533802
0.00955594
0.0107891
0.011166
0.0112641
0.0112857
0.0112898
0.0112905
0.0112906
0.0112907
0.0112907
0.0112907
0.0112908
0.0112908
0.0112909
0.0112909
0.0112909
0.011291
0.011291
0.0112909
0.0112909
0.0112909
0.0112909
0.0112908
0.0112908
0.0112907
0.0112906
0.0112899
0.0112858
0.0112642
0.0111661
0.0107892
0.00955603
0.00533811
0.00539186
0.00982441
0.0111661
0.0115916
0.0117068
0.0117331
0.0117384
0.0117393
0.0117395
0.0117395
0.0117394
0.0117396
0.0117398
0.0117401
0.0117403
0.0117404
0.0117404
0.0117405
0.0117405
0.0117405
0.0117404
0.0117403
0.0117401
0.0117399
0.0117397
0.0117395
0.0117394
0.0117385
0.0117334
0.0117071
0.0115919
0.0111664
0.00982459
0.005392
0.00540295
0.00988836
0.0112643
0.0117068
0.0118284
0.0118566
0.0118623
0.0118632
0.0118628
0.0118616
0.0118606
0.0118609
0.0118616
0.0118622
0.0118626
0.0118628
0.0118628
0.0118629
0.0118629
0.0118628
0.0118628
0.0118626
0.0118622
0.0118617
0.011861
0.0118606
0.0118616
0.0118618
0.0118567
0.0118287
0.0117072
0.0112646
0.00988859
0.00540312
0.0054049
0.00990118
0.0112858
0.0117332
0.0118566
0.0118854
0.0118909
0.0118906
0.0118869
0.0118796
0.0118726
0.011874
0.0118771
0.0118791
0.0118802
0.0118804
0.0118803
0.0118803
0.0118803
0.0118803
0.0118804
0.0118802
0.0118792
0.0118772
0.011874
0.0118727
0.0118795
0.0118859
0.011884
0.0118566
0.0117335
0.0112862
0.00990141
0.0054051
0.00540521
0.00990334
0.0112899
0.0117384
0.0118623
0.0118909
0.0118949
0.0118892
0.0118706
0.0118351
0.0118008
0.0118112
0.0118276
0.0118366
0.0118404
0.0118405
0.01184
0.0118398
0.0118398
0.0118401
0.0118406
0.0118404
0.0118367
0.0118277
0.0118113
0.0118009
0.011835
0.0118696
0.0118825
0.0118604
0.0117383
0.0112902
0.00990357
0.00540545
0.00540528
0.0099036
0.0112906
0.0117393
0.0118631
0.0118906
0.0118893
0.0118642
0.0117906
0.0116448
0.0114992
0.0115681
0.0116474
0.011685
0.0116982
0.0116991
0.011698
0.0116974
0.0116975
0.011698
0.0116992
0.0116983
0.0116851
0.0116475
0.0115682
0.0114993
0.0116447
0.0117896
0.0118575
0.0118547
0.0117379
0.0112906
0.00990378
0.00540554
0.0054053
0.00990354
0.0112906
0.0117394
0.0118627
0.011887
0.0118713
0.0117921
0.0115549
0.0110428
0.0104615
0.0108505
0.0111778
0.0113102
0.0113499
0.0113558
0.0113553
0.0113548
0.0113548
0.0113554
0.0113559
0.0113499
0.0113103
0.011178
0.0108507
0.0104616
0.0110427
0.0115539
0.0117855
0.0118368
0.0117342
0.01129
0.00990358
0.00540558
0.0054053
0.00990342
0.0112906
0.0117393
0.0118616
0.0118804
0.0118385
0.0116535
0.0110556
0.00948436
0.00646762
0.00912197
0.0102838
0.0106515
0.0107425
0.010764
0.0107678
0.0107682
0.0107682
0.0107678
0.010764
0.0107425
0.0106516
0.010284
0.00912233
0.00646751
0.00948427
0.0110546
0.0116469
0.0118039
0.0117276
0.0112888
0.00990318
0.00540558
0.00540529
0.00990326
0.0112906
0.0117393
0.0118609
0.0118756
0.0118123
0.0115309
0.0105218
0.00651844
0.00622641
0.00939465
0.0100604
0.0102109
0.0102366
0.0102394
0.0102394
0.0102394
0.0102394
0.0102366
0.0102109
0.0100605
0.00939495
0.00622666
0.00651842
0.0105207
0.0115242
0.0117776
0.0117226
0.0112878
0.00990276
0.00540555
0.00540526
0.00990309
0.0112905
0.0117395
0.011862
0.0118809
0.0118389
0.0116528
0.0110507
0.00946666
0.00645211
0.00904092
0.0101883
0.0105518
0.0106516
0.0106533
0.0106478
0.0106456
0.0106456
0.0106477
0.0106532
0.0106515
0.0105517
0.0101882
0.00904076
0.00645168
0.00946606
0.0110494
0.0116461
0.0118042
0.0117278
0.0112886
0.00990253
0.00540552
0.00540523
0.00990293
0.0112905
0.0117398
0.0118635
0.0118881
0.0118722
0.011791
0.011546
0.0110116
0.0103799
0.010672
0.0108942
0.0109781
0.011002
0.0109981
0.0109936
0.0109917
0.0109917
0.0109935
0.0109981
0.0110019
0.0109779
0.010894
0.0106717
0.0103795
0.0110112
0.0115448
0.0117843
0.0118375
0.0117348
0.0112898
0.00990241
0.00540547
0.00540519
0.00990279
0.0112905
0.01174
0.0118644
0.0118923
0.0118907
0.0118629
0.0117783
0.0115993
0.011375
0.0113024
0.011215
0.0111731
0.0111587
0.0111518
0.0111486
0.0111474
0.0111474
0.0111485
0.0111517
0.0111586
0.011173
0.0112149
0.0113023
0.0113748
0.011599
0.0117771
0.0118562
0.011856
0.0117389
0.0112905
0.00990227
0.0054054
0.00540514
0.00990267
0.0112905
0.0117402
0.0118649
0.011894
0.0118978
0.011889
0.0118573
0.0117818
0.0116533
0.0114983
0.0113208
0.0112375
0.0112099
0.0112016
0.011199
0.0111983
0.0111982
0.011199
0.0112016
0.0112099
0.0112374
0.0113207
0.0114981
0.0116531
0.0117815
0.0118562
0.0118823
0.011863
0.0117406
0.0112908
0.00990214
0.00540533
0.0054051
0.00990259
0.0112905
0.0117402
0.0118651
0.0118946
0.0119001
0.0118965
0.0118788
0.0118288
0.0117214
0.0115483
0.0113487
0.0112545
0.0112235
0.0112148
0.0112124
0.0112118
0.0112118
0.0112124
0.0112148
0.0112234
0.0112544
0.0113485
0.0115481
0.0117212
0.0118286
0.0118777
0.0118898
0.0118652
0.0117411
0.0112909
0.00990203
0.00540526
0.00540506
0.00990253
0.0112905
0.0117403
0.0118652
0.0118949
0.0119007
0.0118984
0.0118838
0.0118392
0.0117358
0.0115591
0.011355
0.0112584
0.0112267
0.011218
0.0112157
0.0112151
0.0112151
0.0112157
0.011218
0.0112266
0.0112584
0.0113548
0.011559
0.0117357
0.011839
0.0118827
0.0118917
0.0118659
0.0117413
0.0112909
0.00990196
0.0054052
0.00540503
0.0099025
0.0112905
0.0117403
0.0118652
0.011895
0.0119009
0.0118988
0.0118849
0.0118412
0.0117385
0.0115612
0.0113563
0.0112593
0.0112274
0.0112187
0.0112164
0.0112158
0.0112158
0.0112164
0.0112187
0.0112274
0.0112592
0.0113561
0.0115611
0.0117384
0.011841
0.0118838
0.0118921
0.0118661
0.0117414
0.0112909
0.00990192
0.00540516
0.00540501
0.00990249
0.0112905
0.0117403
0.0118653
0.011895
0.0119009
0.0118989
0.011885
0.0118412
0.0117386
0.0115613
0.0113563
0.0112594
0.0112275
0.0112188
0.0112165
0.0112158
0.0112158
0.0112164
0.0112187
0.0112274
0.0112593
0.0113562
0.0115612
0.0117385
0.0118411
0.0118839
0.0118922
0.0118661
0.0117415
0.0112909
0.00990191
0.00540514
0.00540501
0.00990251
0.0112905
0.0117403
0.0118653
0.011895
0.0119008
0.0118985
0.011884
0.0118394
0.011736
0.0115593
0.0113552
0.0112586
0.0112268
0.0112181
0.0112158
0.0112151
0.0112151
0.0112158
0.0112181
0.0112268
0.0112586
0.0113551
0.0115593
0.011736
0.0118392
0.0118829
0.0118918
0.011866
0.0117414
0.0112909
0.00990194
0.00540514
0.00540504
0.00990256
0.0112906
0.0117403
0.0118652
0.0118948
0.0119002
0.0118968
0.0118792
0.0118292
0.0117218
0.0115487
0.0113492
0.0112549
0.0112238
0.0112151
0.0112127
0.0112121
0.0112121
0.0112127
0.0112151
0.0112238
0.0112549
0.0113491
0.0115486
0.0117218
0.011829
0.0118781
0.0118901
0.0118655
0.0117413
0.0112909
0.009902
0.00540518
0.00540507
0.00990263
0.0112906
0.0117403
0.011865
0.0118942
0.0118981
0.0118894
0.0118578
0.0117825
0.0116542
0.0114992
0.0113218
0.0112383
0.0112107
0.0112024
0.0111998
0.011199
0.011199
0.0111998
0.0112024
0.0112107
0.0112383
0.0113218
0.0114992
0.0116542
0.0117824
0.0118568
0.0118827
0.0118634
0.0117408
0.0112909
0.00990209
0.00540523
0.00540511
0.00990274
0.0112906
0.0117402
0.0118646
0.0118926
0.0118911
0.0118635
0.0117791
0.0116006
0.0113768
0.0113042
0.0112168
0.0111747
0.0111603
0.0111534
0.0111502
0.0111491
0.0111491
0.0111503
0.0111535
0.0111604
0.0111748
0.0112169
0.0113043
0.0113769
0.0116005
0.0117781
0.0118568
0.0118564
0.0117392
0.0112906
0.00990221
0.00540529
0.00540515
0.00990287
0.0112906
0.01174
0.0118638
0.0118884
0.0118727
0.0117917
0.0115472
0.0110138
0.0103835
0.0106752
0.0108968
0.0109805
0.0110045
0.0110008
0.0109964
0.0109946
0.0109946
0.0109964
0.0110009
0.0110046
0.0109807
0.010897
0.0106756
0.0103837
0.0110139
0.0115463
0.0117852
0.0118381
0.0117352
0.0112899
0.00990233
0.00540535
0.00540518
0.00990302
0.0112906
0.0117397
0.0118624
0.0118814
0.0118395
0.0116537
0.0110521
0.0094696
0.00645538
0.00904364
0.0101893
0.0105526
0.0106525
0.0106543
0.010649
0.0106468
0.0106469
0.010649
0.0106544
0.0106526
0.0105526
0.0101892
0.00904426
0.00645537
0.0094697
0.0110512
0.0116471
0.0118049
0.0117283
0.0112888
0.00990242
0.00540539
0.00540521
0.00990317
0.0112907
0.0117395
0.0118613
0.011876
0.0118129
0.0115316
0.0105226
0.00651822
0.00622113
0.00938433
0.0100474
0.0101959
0.0102209
0.0102235
0.0102235
0.0102235
0.0102234
0.0102206
0.0101949
0.0100451
0.00938015
0.00621823
0.00651766
0.0105214
0.011525
0.0117783
0.0117231
0.011288
0.00990261
0.00540543
0.00540522
0.00990327
0.0112906
0.0117395
0.0118619
0.0118808
0.0118391
0.0116542
0.0110563
0.00948472
0.00646694
0.00910141
0.010247
0.010594
0.010673
0.0106917
0.0106952
0.0106957
0.0106956
0.0106949
0.0106906
0.010669
0.0105827
0.010225
0.00908269
0.00646103
0.00948147
0.011054
0.0116473
0.0118045
0.011728
0.0112889
0.00990292
0.00540545
0.00540518
0.00990305
0.01129
0.0117387
0.0118621
0.0118865
0.011871
0.0117917
0.0115537
0.0110381
0.0104443
0.010799
0.0110683
0.0111292
0.0111313
0.0111292
0.0111281
0.0111277
0.0111276
0.0111274
0.0111262
0.01112
0.0110946
0.0109968
0.0107378
0.0104114
0.0110248
0.0115483
0.011784
0.0118363
0.0117338
0.0112895
0.00990295
0.00540542
0.00540489
0.00990093
0.011286
0.0117336
0.0118571
0.0118845
0.0118833
0.0118579
0.0117825
0.0116291
0.011459
0.011466
0.0114315
0.0113294
0.0112774
0.0112606
0.0112564
0.0112554
0.0112553
0.0112553
0.0112558
0.0112578
0.0112657
0.0112918
0.01135
0.0113961
0.0116035
0.0117732
0.0118492
0.0118486
0.0117324
0.0112861
0.00990096
0.00540512
0.00540297
0.00988816
0.0112645
0.0117074
0.0118291
0.0118572
0.0118611
0.011855
0.0118343
0.01179
0.0117286
0.0116715
0.0115637
0.0114225
0.0113571
0.0113369
0.0113319
0.0113309
0.0113307
0.0113309
0.0113317
0.0113361
0.0113541
0.0114136
0.0115465
0.0116604
0.0117621
0.0118243
0.0118463
0.0118271
0.0117075
0.0112648
0.00988824
0.00540319
0.0053919
0.00982424
0.0111663
0.0115922
0.0117076
0.0117341
0.0117391
0.0117384
0.0117332
0.0117198
0.0116941
0.0116497
0.0115703
0.0114756
0.011429
0.0114137
0.0114097
0.0114089
0.0114087
0.0114088
0.0114097
0.0114135
0.0114283
0.0114738
0.0115671
0.0116482
0.0117009
0.0117262
0.011731
0.0117075
0.0115928
0.0111668
0.00982432
0.0053921
0.00533808
0.00955581
0.0107894
0.0111666
0.0112649
0.0112866
0.0112908
0.0112913
0.0112901
0.0112859
0.0112757
0.0112541
0.0112155
0.0111704
0.0111465
0.0111379
0.0111354
0.0111348
0.0111347
0.0111349
0.0111355
0.0111379
0.0111464
0.0111702
0.0112151
0.011254
0.0112769
0.0112865
0.011286
0.0112653
0.0111671
0.0107897
0.00955583
0.00533824
0.00512846
0.00860218
0.00955603
0.00982464
0.00988872
0.00990165
0.00990394
0.00990424
0.00990392
0.00990262
0.00989915
0.00989137
0.00987764
0.00986134
0.00985206
0.00984831
0.00984702
0.00984661
0.00984653
0.00984668
0.00984717
0.00984851
0.00985229
0.00986159
0.00987787
0.00989167
0.00989953
0.00990261
0.00990154
0.00988895
0.00982489
0.00955615
0.00860209
0.00512858
0.00457306
0.00512847
0.00533817
0.00539209
0.00540326
0.0054053
0.00540575
0.00540595
0.00540612
0.00540618
0.00540597
0.00540517
0.00540349
0.00540129
0.00539999
0.0053994
0.00539914
0.00539902
0.00539898
0.00539903
0.00539916
0.00539943
0.0054
0.00540129
0.00540347
0.00540513
0.00540591
0.00540606
0.0054057
0.00540362
0.00539238
0.00533838
0.00512859
0.00457318
0.00483015
0.00563295
0.00596034
0.00605213
0.00607284
0.00607678
0.00607744
0.00607754
0.00607756
0.00607756
0.00607755
0.00607754
0.00607752
0.0060775
0.00607748
0.00607746
0.00607745
0.00607744
0.00607744
0.00607745
0.00607746
0.00607748
0.00607749
0.00607751
0.00607753
0.00607754
0.00607753
0.00607744
0.00607679
0.00607285
0.00605213
0.00596035
0.00563296
0.00483019
0.00563294
0.0100831
0.0113544
0.0117416
0.0118424
0.0118645
0.0118686
0.0118692
0.0118692
0.011869
0.0118689
0.0118687
0.0118685
0.0118683
0.0118681
0.011868
0.0118679
0.0118679
0.0118679
0.0118679
0.011868
0.0118681
0.0118683
0.0118684
0.0118686
0.0118688
0.0118689
0.0118683
0.0118643
0.0118422
0.0117414
0.0113543
0.0100829
0.00563296
0.00596041
0.0113546
0.0129794
0.0135129
0.0136639
0.0137001
0.0137075
0.0137088
0.0137089
0.0137089
0.0137088
0.0137087
0.0137086
0.0137086
0.0137085
0.0137085
0.0137085
0.0137084
0.0137084
0.0137085
0.0137085
0.0137085
0.0137086
0.0137086
0.0137087
0.0137087
0.0137086
0.0137074
0.0137
0.0136639
0.0135129
0.0129794
0.0113546
0.00596047
0.00605225
0.0117419
0.013513
0.0141157
0.0142929
0.014337
0.0143464
0.0143481
0.0143482
0.0143478
0.0143474
0.0143473
0.0143473
0.0143474
0.0143475
0.0143475
0.0143475
0.0143475
0.0143475
0.0143475
0.0143475
0.0143475
0.0143474
0.0143473
0.0143473
0.0143474
0.0143475
0.0143462
0.014337
0.014293
0.0141158
0.0135132
0.011742
0.00605236
0.006073
0.0118428
0.0136641
0.0142929
0.0144807
0.0145282
0.0145384
0.0145398
0.0145387
0.0145361
0.0145334
0.0145327
0.0145329
0.0145333
0.0145336
0.0145336
0.0145335
0.0145334
0.0145335
0.0145335
0.0145336
0.0145337
0.0145333
0.014533
0.0145328
0.0145334
0.0145358
0.0145365
0.0145277
0.0144808
0.0142931
0.0136643
0.0118429
0.00607315
0.00607696
0.0118649
0.0137003
0.0143371
0.0145282
0.0145767
0.0145864
0.0145855
0.0145782
0.0145648
0.0145514
0.0145492
0.0145509
0.0145526
0.0145537
0.0145533
0.0145527
0.0145524
0.0145525
0.0145527
0.0145534
0.0145538
0.0145527
0.0145509
0.0145493
0.0145514
0.0145645
0.014576
0.014573
0.0145274
0.0143371
0.0137005
0.011865
0.00607714
0.00607763
0.0118689
0.0137077
0.0143465
0.0145384
0.0145864
0.0145933
0.0145827
0.0145506
0.0144925
0.0144353
0.0144343
0.0144466
0.0144554
0.0144601
0.0144585
0.0144565
0.0144556
0.0144556
0.0144565
0.0144586
0.0144601
0.0144555
0.0144467
0.0144344
0.0144353
0.0144922
0.0145484
0.0145701
0.0145338
0.0143456
0.0137077
0.011869
0.00607782
0.00607773
0.0118695
0.013709
0.0143482
0.0145398
0.0145856
0.014583
0.0145406
0.0144247
0.0142083
0.0139923
0.0140296
0.0140991
0.0141376
0.0141542
0.0141513
0.0141468
0.0141449
0.0141449
0.0141468
0.0141513
0.0141542
0.0141376
0.0140992
0.0140297
0.0139924
0.014208
0.0144224
0.0145279
0.0145234
0.0143445
0.0137084
0.0118694
0.00607794
0.00607774
0.0118694
0.0137091
0.0143482
0.0145388
0.014579
0.0145529
0.0144288
0.0140833
0.013383
0.0126022
0.012932
0.0132466
0.013383
0.0134281
0.0134304
0.0134261
0.0134241
0.0134241
0.0134261
0.0134304
0.0134282
0.0133831
0.0132467
0.0129321
0.0126022
0.0133827
0.014081
0.0144161
0.0144933
0.0143377
0.013707
0.011869
0.00607793
0.00607772
0.0118692
0.0137089
0.0143479
0.0145367
0.0145677
0.014502
0.0142305
0.0134151
0.0113818
0.00748913
0.0104557
0.0116698
0.0120503
0.0121306
0.0121694
0.0121768
0.0121775
0.0121775
0.0121768
0.0121694
0.0121306
0.0120504
0.0116699
0.010456
0.00748896
0.0113815
0.0134128
0.0142178
0.0144423
0.0143263
0.0137046
0.0118683
0.00607786
0.00607768
0.0118689
0.0137088
0.0143477
0.0145354
0.01456
0.0144645
0.0140696
0.0127527
0.00764498
0.00673128
0.00999779
0.010678
0.010838
0.0108585
0.0108589
0.0108584
0.0108584
0.010859
0.0108586
0.010838
0.0106781
0.00999811
0.00673155
0.00764476
0.0127503
0.0140568
0.0144047
0.0143183
0.0137029
0.0118675
0.00607777
0.00607763
0.0118687
0.0137087
0.0143479
0.0145369
0.014568
0.0145016
0.0142276
0.0134044
0.0113497
0.00744641
0.0103122
0.0115366
0.0119404
0.0121162
0.0120479
0.0120207
0.0120143
0.0120143
0.0120206
0.0120478
0.0121161
0.0119403
0.0115364
0.0103121
0.00744599
0.0113488
0.0134018
0.0142148
0.0144417
0.0143261
0.0137041
0.0118672
0.0060777
0.00607757
0.0118684
0.0137086
0.0143483
0.0145393
0.0145794
0.0145521
0.0144222
0.0140576
0.0133035
0.0123959
0.0125081
0.0125982
0.0126471
0.0126807
0.0126577
0.0126454
0.0126417
0.0126416
0.0126453
0.0126576
0.0126806
0.0126469
0.012598
0.0125079
0.0123955
0.0133028
0.0140551
0.0144094
0.0144922
0.0143374
0.0137061
0.0118671
0.00607763
0.00607751
0.0118682
0.0137086
0.0143486
0.0145408
0.0145865
0.014582
0.0145309
0.014385
0.0140836
0.0136729
0.0133793
0.0130748
0.0129529
0.0129225
0.012909
0.0129035
0.0129017
0.0129017
0.0129034
0.0129089
0.0129225
0.0129528
0.0130746
0.0133792
0.0136727
0.0140831
0.0143826
0.0145181
0.0145221
0.0143444
0.0137074
0.011867
0.00607755
0.00607745
0.011868
0.0137085
0.0143487
0.0145415
0.0145896
0.0145942
0.0145731