/*--------------------------------*- C++ -*----------------------------------*\
| =========                 |                                                 |
| \\      /  F ield         | OpenFOAM: The Open Source CFD Toolbox           |
|  \\    /   O peration     | Version:  2112                                  |
|   \\  /    A nd           | Website:  www.openfoam.com                      |
|    \\/     M anipulation  |                                                 |
\*---------------------------------------------------------------------------*/
FoamFile
{
    version     2.0;
    format      ascii;
    arch        "LSB;label=32;scalar=64";
    class       volScalarField;
    location    "1";
    object      nut;
}
// * * * * * * * * * * * * * * * * * * * * * * * * * * * * * * * * * * * * * //

dimensions      [0 2 -1 0 0 0 0];

internalField   nonuniform List<scalar> 
64906
(
0.000130038
0.000132514
0.00013344
0.000133666
0.00013371
0.000133717
0.000133719
0.00013372
0.000133721
0.000133722
0.000133722
0.000133723
0.000133723
0.000133724
0.000133724
0.000133724
0.000133724
0.000133724
0.000133724
0.000133724
0.000133724
0.000133724
0.000133724
0.000133723
0.000133723
0.000133722
0.000133721
0.00013372
0.000133719
0.000133711
0.000133667
0.000133442
0.000132515
0.000130039
0.000132514
0.000151036
0.000157164
0.00015881
0.000159182
0.000159255
0.000159268
0.000159271
0.000159272
0.000159274
0.000159275
0.000159277
0.000159278
0.000159279
0.00015928
0.000159281
0.000159281
0.000159282
0.000159282
0.000159281
0.000159281
0.00015928
0.00015928
0.000159278
0.000159277
0.000159276
0.000159274
0.000159271
0.000159258
0.000159186
0.000158813
0.000157167
0.000151038
0.000132516
0.000133442
0.000157165
0.000165507
0.000167953
0.000168562
0.000168692
0.000168717
0.000168723
0.000168727
0.00016873
0.000168733
0.000168737
0.00016874
0.000168743
0.000168746
0.000168748
0.000168749
0.00016875
0.00016875
0.00016875
0.000168748
0.000168747
0.000168744
0.000168741
0.000168738
0.000168734
0.00016873
0.000168724
0.000168698
0.000168568
0.000167958
0.000165512
0.00015717
0.000133444
0.000133668
0.000158813
0.000167954
0.000170744
0.000171469
0.000171631
0.000171664
0.000171672
0.000171676
0.00017168
0.000171685
0.000171691
0.000171697
0.000171703
0.000171707
0.000171711
0.000171713
0.000171714
0.000171714
0.000171713
0.000171711
0.000171708
0.000171704
0.000171698
0.000171692
0.000171686
0.000171681
0.000171672
0.000171639
0.000171477
0.000170751
0.00016796
0.000158818
0.000133671
0.000133712
0.000159186
0.000168564
0.00017147
0.000172238
0.000172412
0.000172448
0.000172457
0.000172459
0.000172458
0.000172458
0.000172469
0.00017248
0.00017249
0.000172498
0.000172503
0.000172506
0.000172507
0.000172508
0.000172506
0.000172503
0.000172498
0.000172491
0.000172481
0.00017247
0.00017246
0.000172459
0.000172455
0.000172421
0.000172247
0.000171479
0.000168572
0.000159193
0.000133716
0.00013372
0.000159258
0.000168694
0.000171631
0.000172412
0.000172589
0.000172626
0.000172629
0.000172613
0.000172577
0.000172543
0.000172567
0.000172598
0.00017262
0.000172635
0.000172641
0.000172645
0.000172647
0.000172647
0.000172645
0.000172642
0.000172635
0.000172622
0.0001726
0.000172568
0.000172545
0.000172578
0.000172609
0.000172592
0.000172421
0.000171641
0.000168703
0.000159266
0.000133725
0.000133722
0.000159271
0.000168719
0.000171664
0.000172448
0.000172625
0.000172654
0.000172626
0.000172521
0.000172308
0.0001721
0.000172203
0.000172331
0.000172403
0.000172438
0.000172447
0.000172449
0.00017245
0.000172451
0.000172449
0.000172447
0.000172439
0.000172404
0.000172333
0.000172205
0.000172102
0.000172309
0.000172517
0.000172589
0.000172448
0.000171673
0.000168729
0.00015928
0.000133728
0.000133723
0.000159274
0.000168725
0.000171672
0.000172455
0.000172627
0.000172625
0.00017248
0.000172027
0.000171084
0.000170099
0.000170682
0.000171263
0.000171534
0.000171636
0.000171651
0.000171651
0.000171651
0.000171651
0.000171651
0.000171652
0.000171637
0.000171535
0.000171265
0.000170684
0.0001701
0.000171086
0.000172023
0.000172444
0.00017242
0.000171675
0.000168735
0.000159283
0.000133729
0.000133724
0.000159275
0.000168727
0.000171675
0.000172456
0.000172611
0.000172522
0.000172032
0.000170492
0.000166992
0.000162753
0.000165948
0.000168358
0.000169293
0.000169578
0.000169624
0.000169628
0.00016963
0.00016963
0.000169629
0.000169625
0.000169579
0.000169295
0.000168361
0.000165951
0.000162754
0.000166993
0.000170488
0.000171996
0.000172316
0.000171658
0.000168735
0.000159285
0.000133731
0.000133724
0.000159275
0.000168729
0.000171677
0.000172454
0.000172575
0.00017232
0.000171125
0.000167055
0.000156011
0.000139058
0.000154188
0.000162658
0.000165274
0.000165915
0.000166052
0.00016608
0.000166087
0.000166087
0.000166081
0.000166053
0.000165917
0.000165276
0.000162661
0.000154192
0.000139058
0.000156013
0.000167052
0.00017109
0.000172115
0.000171623
0.000168732
0.000159285
0.000133732
0.000133725
0.000159275
0.000168731
0.00017168
0.000172454
0.00017255
0.000172152
0.000170262
0.000163057
0.00013924
0.000138108
0.000156752
0.000161577
0.00016261
0.00016279
0.000162815
0.000162818
0.000162818
0.000162815
0.00016279
0.000162611
0.000161578
0.000156755
0.000138111
0.000139241
0.000163054
0.000170227
0.000171948
0.000171598
0.00016873
0.000159285
0.000133733
0.000133725
0.000159276
0.000168732
0.000171684
0.000172465
0.000172592
0.000172341
0.000171145
0.000167049
0.000155915
0.000138986
0.000153594
0.000161952
0.000164507
0.00016513
0.000165194
0.000165179
0.00016517
0.00016517
0.000165179
0.000165194
0.00016513
0.000164507
0.000161952
0.000153592
0.000138982
0.00015591
0.000167043
0.000171108
0.000172135
0.000171637
0.000168739
0.000159286
0.000133733
0.000133725
0.000159275
0.000168734
0.000171689
0.000172478
0.000172641
0.00017256
0.000172071
0.000170492
0.000166858
0.000162311
0.000164832
0.000166554
0.000167151
0.000167296
0.000167285
0.000167262
0.000167251
0.00016725
0.000167261
0.000167284
0.000167295
0.000167149
0.000166552
0.000164829
0.000162306
0.000166854
0.000170485
0.000172033
0.000172354
0.000171685
0.000168749
0.000159287
0.000133733
0.000133724
0.000159275
0.000168736
0.000171692
0.000172487
0.00017267
0.000172681
0.000172537
0.000172036
0.000170911
0.000169443
0.000169091
0.000168595
0.000168348
0.000168254
0.000168207
0.000168182
0.000168172
0.000168172
0.000168182
0.000168206
0.000168253
0.000168347
0.000168593
0.000169086
0.000169439
0.000170908
0.00017203
0.000172499
0.000172473
0.000171714
0.000168756
0.000159287
0.000133732
0.000133723
0.000159275
0.000168737
0.000171695
0.000172492
0.000172684
0.000172728
0.000172703
0.000172546
0.000172118
0.000171338
0.000170375
0.000169253
0.000168737
0.000168559
0.000168496
0.00016847
0.00016846
0.000168459
0.00016847
0.000168495
0.000168557
0.000168735
0.00016925
0.00017037
0.000171335
0.000172116
0.00017254
0.000172665
0.00017252
0.000171727
0.00016876
0.000159287
0.000133731
0.000133723
0.000159274
0.000168737
0.000171697
0.000172495
0.00017269
0.000172744
0.000172753
0.000172684
0.000172422
0.000171786
0.000170699
0.000169423
0.000168839
0.000168638
0.00016857
0.000168542
0.000168529
0.000168528
0.00016854
0.000168568
0.000168636
0.000168836
0.000169421
0.000170695
0.000171783
0.00017242
0.000172678
0.000172715
0.000172536
0.000171733
0.000168762
0.000159287
0.00013373
0.000133722
0.000159274
0.000168738
0.000171698
0.000172497
0.000172694
0.00017275
0.000172767
0.000172718
0.000172491
0.000171882
0.000170773
0.000169463
0.000168863
0.000168656
0.000168586
0.000168556
0.00016854
0.00016854
0.000168554
0.000168584
0.000168654
0.000168861
0.00016946
0.000170769
0.000171879
0.000172488
0.000172712
0.000172729
0.000172542
0.000171736
0.000168763
0.000159287
0.000133729
0.000133721
0.000159274
0.000168738
0.000171699
0.000172498
0.000172695
0.000172753
0.000172772
0.000172727
0.000172506
0.000171902
0.000170789
0.000169472
0.000168869
0.000168661
0.000168589
0.000168557
0.00016854
0.000168539
0.000168556
0.000168587
0.000168659
0.000168867
0.000169469
0.000170785
0.000171899
0.000172504
0.000172721
0.000172734
0.000172545
0.000171737
0.000168764
0.000159287
0.000133728
0.000133721
0.000159274
0.000168739
0.000171699
0.000172499
0.000172696
0.000172754
0.000172773
0.000172728
0.000172507
0.000171903
0.000170791
0.000169473
0.000168869
0.000168661
0.000168589
0.000168556
0.000168537
0.000168536
0.000168555
0.000168587
0.000168659
0.000168867
0.00016947
0.000170787
0.000171901
0.000172505
0.000172722
0.000172735
0.000172546
0.000171738
0.000168765
0.000159287
0.000133727
0.000133721
0.000159274
0.000168739
0.000171699
0.000172499
0.000172696
0.000172753
0.00017277
0.000172722
0.000172496
0.000171887
0.000170779
0.000169466
0.000168865
0.000168657
0.000168585
0.000168553
0.000168534
0.000168533
0.000168551
0.000168583
0.000168655
0.000168862
0.000169463
0.000170775
0.000171885
0.000172494
0.000172716
0.000172733
0.000172545
0.000171738
0.000168765
0.000159287
0.000133727
0.000133721
0.000159274
0.000168738
0.000171699
0.000172498
0.000172694
0.000172748
0.000172758
0.000172691
0.000172431
0.000171796
0.00017071
0.000169429
0.000168842
0.000168639
0.000168569
0.000168537
0.000168521
0.00016852
0.000168536
0.000168567
0.000168637
0.00016884
0.000169427
0.000170706
0.000171794
0.00017243
0.000172686
0.000172721
0.000172541
0.000171736
0.000168764
0.000159287
0.000133728
0.000133722
0.000159275
0.000168738
0.000171698
0.000172495
0.000172689
0.000172734
0.000172711
0.000172556
0.000172132
0.000171355
0.000170393
0.000169262
0.000168743
0.000168562
0.000168496
0.000168467
0.000168452
0.000168452
0.000168465
0.000168494
0.00016856
0.000168741
0.00016926
0.00017039
0.000171354
0.000172131
0.000172551
0.000172674
0.000172527
0.000171732
0.000168763
0.000159288
0.000133729
0.000133723
0.000159275
0.000168737
0.000171696
0.000172491
0.000172676
0.000172688
0.000172547
0.000172051
0.000170932
0.000169472
0.00016912
0.00016861
0.000168359
0.00016826
0.000168209
0.000168181
0.000168168
0.000168168
0.00016818
0.000168207
0.000168259
0.000168357
0.000168609
0.000169119
0.000169472
0.000170932
0.000172047
0.000172511
0.000172482
0.00017172
0.00016876
0.000159288
0.00013373
0.000133723
0.000159276
0.000168737
0.000171693
0.000172483
0.000172648
0.00017257
0.000172084
0.000170512
0.00016689
0.00016236
0.000164868
0.000166574
0.000167164
0.000167305
0.00016729
0.000167264
0.000167251
0.000167251
0.000167263
0.000167289
0.000167304
0.000167163
0.000166574
0.000164871
0.000162362
0.000166892
0.000170509
0.000172049
0.000172365
0.000171693
0.000168754
0.000159288
0.000133731
0.000133724
0.000159276
0.000168735
0.000171689
0.000172472
0.0001726
0.000172352
0.00017116
0.000167073
0.000155956
0.000139016
0.000153618
0.000161954
0.000164505
0.000165124
0.000165185
0.000165167
0.000165156
0.000165156
0.000165166
0.000165183
0.000165122
0.000164503
0.000161953
0.000153624
0.000139015
0.000155959
0.000167072
0.000171127
0.000172149
0.000171647
0.000168745
0.000159288
0.000133731
0.000133724
0.000159276
0.000168734
0.000171686
0.000172462
0.00017256
0.000172164
0.000170276
0.000163072
0.000139244
0.000138068
0.000156672
0.000161483
0.000162503
0.000162674
0.000162694
0.000162694
0.000162694
0.000162692
0.000162669
0.000162494
0.000161466
0.000156645
0.00013805
0.000139242
0.000163069
0.000170243
0.000171962
0.000171609
0.000168738
0.000159288
0.000133731
0.000133724
0.000159276
0.000168732
0.000171683
0.000172462
0.000172587
0.000172335
0.000171144
0.000167078
0.000156039
0.000139085
0.000154071
0.000162437
0.000164909
0.000165465
0.000165572
0.000165591
0.000165594
0.000165593
0.000165587
0.000165561
0.000165433
0.000164831
0.000162292
0.000153964
0.00013906
0.000156027
0.000167071
0.00017111
0.000172132
0.000171636
0.00016874
0.000159288
0.000133731
0.000133723
0.000159274
0.000168728
0.000171677
0.000172461
0.000172618
0.000172533
0.000172048
0.000170509
0.000166996
0.000162696
0.000165674
0.000167717
0.00016817
0.000168203
0.000168185
0.000168178
0.000168176
0.000168175
0.000168172
0.000168163
0.000168124
0.000167944
0.00016725
0.000165306
0.000162513
0.000166926
0.000170484
0.00017201
0.000172331
0.000171669
0.000168741
0.000159287
0.00013373
0.000133722
0.000159262
0.000168703
0.000171645
0.000172429
0.000172604
0.000172606
0.000172464
0.000172006
0.000171027
0.000169903
0.000170102
0.000169952
0.000169284
0.000168968
0.000168866
0.000168839
0.000168832
0.000168831
0.000168831
0.000168834
0.000168847
0.000168892
0.000169035
0.00016937
0.000169524
0.000170881
0.000171959
0.00017242
0.000172403
0.000171658
0.00016872
0.000159275
0.000133728
0.000133714
0.000159191
0.000168574
0.000171485
0.000172257
0.000172434
0.000172466
0.000172442
0.000172331
0.000172075
0.000171712
0.0001714
0.000170737
0.000169824
0.000169427
0.000169306
0.000169277
0.000169271
0.00016927
0.00016927
0.000169275
0.0001693
0.000169406
0.000169766
0.000170611
0.000171298
0.000171915
0.000172281
0.000172399
0.000172268
0.000171504
0.000168591
0.000159203
0.00013372
0.00013367
0.000158818
0.000167964
0.000170759
0.000171489
0.000171656
0.000171693
0.0001717
0.000171682
0.000171619
0.000171483
0.000171237
0.000170762
0.000170164
0.000169878
0.000169786
0.000169765
0.000169762
0.000169761
0.00016976
0.000169762
0.000169781
0.000169869
0.000170147
0.000170734
0.000171215
0.000171516
0.00017165
0.000171664
0.00017151
0.000170779
0.000167981
0.000158829
0.000133676
0.000133444
0.000157171
0.000165518
0.000167968
0.000168582
0.000168717
0.000168748
0.00016876
0.000168764
0.000168754
0.00016871
0.000168599
0.000168384
0.000168118
0.00016798
0.000167934
0.000167923
0.000167922
0.000167922
0.000167921
0.000167922
0.000167931
0.000167977
0.000168112
0.000168376
0.000168592
0.000168711
0.000168752
0.000168737
0.000168603
0.000167987
0.000165533
0.000157182
0.000133449
0.000132517
0.000151042
0.000157174
0.000158824
0.000159201
0.000159277
0.000159296
0.000159305
0.000159312
0.000159315
0.000159308
0.000159277
0.000159212
0.000159127
0.000159081
0.000159063
0.000159059
0.000159058
0.000159058
0.000159058
0.000159058
0.000159063
0.00015908
0.000159126
0.000159209
0.000159274
0.000159306
0.000159312
0.000159297
0.000159219
0.00015884
0.000157187
0.00015105
0.000132522
0.00013004
0.000132518
0.000133447
0.000133674
0.00013372
0.000133731
0.000133736
0.000133741
0.000133746
0.000133752
0.000133756
0.000133757
0.000133754
0.000133747
0.000133742
0.000133738
0.000133736
0.000133733
0.000133732
0.000133733
0.000133736
0.000133738
0.000133741
0.000133746
0.000133753
0.000133755
0.000133753
0.000133749
0.000133743
0.00013373
0.000133682
0.000133453
0.000132523
0.000130043
0.000198771
0.000212332
0.000217637
0.000219116
0.00021945
0.000219514
0.000219525
0.000219527
0.000219528
0.000219528
0.000219529
0.000219529
0.000219529
0.000219529
0.000219528
0.000219528
0.000219528
0.000219528
0.000219528
0.000219528
0.000219528
0.000219528
0.000219528
0.000219529
0.000219529
0.000219528
0.000219528
0.000219526
0.000219515
0.000219451
0.000219117
0.000217638
0.000212333
0.000198772
0.000212332
0.000573023
0.000665522
0.00069071
0.000696849
0.000698128
0.000698354
0.000698384
0.000698381
0.00069837
0.000698357
0.000698342
0.000698327
0.000698314
0.000698302
0.000698293
0.000698287
0.000698284
0.000698284
0.000698287
0.000698293
0.000698302
0.000698313
0.000698327
0.000698341
0.000698355
0.000698363
0.000698337
0.000698113
0.000696835
0.000690698
0.00066551
0.000573014
0.000212333
0.000217639
0.000665539
0.000793606
0.000831762
0.000841917
0.000844232
0.000844687
0.000844765
0.000844776
0.000844775
0.000844772
0.00084477
0.00084477
0.00084477
0.00084477
0.000844769
0.000844769
0.000844769
0.000844769
0.000844769
0.00084477
0.000844771
0.000844771
0.000844771
0.000844772
0.000844772
0.000844764
0.000844689
0.000844236
0.000841921
0.000831765
0.000793609
0.000665541
0.000217641
0.000219119
0.000690735
0.000831772
0.000875605
0.000887756
0.000890639
0.000891231
0.000891337
0.000891348
0.000891333
0.000891317
0.000891325
0.000891341
0.000891357
0.000891369
0.000891375
0.000891379
0.000891381
0.000891381
0.00089138
0.000891377
0.000891371
0.000891359
0.000891344
0.000891328
0.000891319
0.000891319
0.000891232
0.000890652
0.000887773
0.000875621
0.000831786
0.000690744
0.000219122
0.000219454
0.000696876
0.000841932
0.000887761
0.000900671
0.000903783
0.000904425
0.000904518
0.000904459
0.000904313
0.000904172
0.000904185
0.000904243
0.000904292
0.000904325
0.000904334
0.000904336
0.000904337
0.000904337
0.000904337
0.000904336
0.000904328
0.000904296
0.000904247
0.000904189
0.000904175
0.000904299
0.000904332
0.000903768
0.000900686
0.000887782
0.00084195
0.000696888
0.000219458
0.000219518
0.000698155
0.000844246
0.000890644
0.000903783
0.000906958
0.000907577
0.000907528
0.000907088
0.00090625
0.000905448
0.000905542
0.000905834
0.000906035
0.000906141
0.00090614
0.000906121
0.000906112
0.000906113
0.000906122
0.000906143
0.000906144
0.000906039
0.000905839
0.000905548
0.000905452
0.000906236
0.000906957
0.000906757
0.00090375
0.000890658
0.000844266
0.000698166
0.000219523
0.000219529
0.000698378
0.000844699
0.000891233
0.000904423
0.000907575
0.000908019
0.000907353
0.000905271
0.000901367
0.000897567
0.000898595
0.000900209
0.00090113
0.000901541
0.000901507
0.000901421
0.000901383
0.000901384
0.000901423
0.000901509
0.000901545
0.000901135
0.000900215
0.000898602
0.000897572
0.000901353
0.00090514
0.000906577
0.000904169
0.000891198
0.00084471
0.000698386
0.000219535
0.000219531
0.000698404
0.000844773
0.000891336
0.000904513
0.000907526
0.000907363
0.000904562
0.000896567
0.000880851
0.000864308
0.000872405
0.000880459
0.000884299
0.000885793
0.000885725
0.000885517
0.000885431
0.000885432
0.000885519
0.000885728
0.000885797
0.000884305
0.000880467
0.000872414
0.000864313
0.000880838
0.000896438
0.000903787
0.000903509
0.000891132
0.000844751
0.000698403
0.000219538
0.000219532
0.000698395
0.000844779
0.000891341
0.000904454
0.000907108
0.000905361
0.000896746
0.000871309
0.000815073
0.000740347
0.000795516
0.000830866
0.000844356
0.000848718
0.000848916
0.000848689
0.000848594
0.000848594
0.000848691
0.000848918
0.000848722
0.000844362
0.000830876
0.000795531
0.000740352
0.000815061
0.000871182
0.000895973
0.000901509
0.000890707
0.000844674
0.000698376
0.000219539
0.000219532
0.000698379
0.000844771
0.000891324
0.000904325
0.000906364
0.000901779
0.000881818
0.000816335
0.000630996
0.000242804
0.000600422
0.000738531
0.000776901
0.000786319
0.000787999
0.000788223
0.000788239
0.000788239
0.000788224
0.000788
0.000786322
0.000776909
0.00073855
0.00060046
0.000242802
0.000630984
0.000816209
0.000881049
0.000897927
0.000889957
0.000844527
0.000698328
0.000219538
0.000219532
0.00069836
0.000844763
0.000891313
0.000904238
0.000905819
0.000898892
0.000867696
0.000745747
0.000244099
0.000237005
0.000638816
0.000715024
0.000729794
0.000732495
0.000732871
0.000732897
0.000732897
0.000732871
0.000732496
0.000729797
0.000715033
0.000638847
0.00023701
0.000244096
0.000745622
0.000866926
0.000895036
0.000889401
0.000844416
0.000698278
0.000219537
0.000219531
0.000698339
0.000844757
0.000891333
0.00090435
0.000906394
0.000901784
0.000881684
0.000815721
0.000628988
0.000242336
0.000591773
0.000725797
0.000761976
0.000769695
0.00077173
0.000771859
0.000771776
0.000771774
0.000771855
0.000771723
0.000769685
0.000761965
0.000725791
0.000591764
0.000242326
0.000628924
0.000815575
0.000880905
0.00089792
0.00088996
0.000844496
0.000698248
0.000219536
0.00021953
0.00069832
0.000844754
0.000891361
0.000904505
0.000907172
0.000905379
0.000896504
0.000870159
0.0008114
0.000731224
0.000774133
0.000793991
0.000800819
0.000802358
0.000802569
0.000802396
0.000802283
0.000802282
0.000802392
0.000802563
0.000802349
0.000800805
0.000793972
0.000774105
0.000731186
0.000811353
0.000870013
0.000895721
0.000901507
0.000890722
0.000844622
0.000698233
0.000219535
0.000219529
0.000698304
0.000844751
0.000891381
0.000904605
0.000907639
0.000907415
0.000904248
0.000894896
0.000875196
0.000849184
0.000839352
0.000824465
0.000818679
0.000816908
0.000816334
0.000816096
0.000816009
0.000816008
0.000816094
0.00081633
0.000816902
0.000818668
0.000824449
0.000839342
0.000849165
0.000875164
0.000894755
0.000903463
0.000903537
0.000891176
0.000844698
0.000698216
0.000219534
0.000219528
0.000698291
0.000844748
0.000891391
0.000904651
0.000907834
0.000908213
0.000907117
0.000903397
0.000894609
0.000879234
0.00085926
0.000834723
0.000824772
0.000821779
0.000820971
0.000820745
0.000820684
0.000820684
0.000820745
0.00082097
0.000821775
0.000824763
0.000834709
0.000859254
0.000879225
0.000894584
0.000903259
0.000906333
0.000904331
0.000891363
0.000844727
0.000698201
0.000219532
0.000219527
0.000698282
0.000844746
0.000891397
0.000904671
0.000907902
0.000908462
0.000907961
0.000905765
0.000899672
0.00088647
0.000864408
0.000837516
0.000826457
0.000823124
0.000822267
0.000822057
0.000822012
0.000822012
0.000822057
0.000822266
0.000823122
0.000826449
0.000837504
0.000864404
0.000886464
0.00089965
0.00090563
0.000907177
0.000904579
0.000891425
0.000844736
0.000698189
0.00021953
0.000219526
0.000698275
0.000844744
0.0008914
0.00090468
0.000907925
0.000908531
0.000908173
0.000906326
0.000900811
0.000888022
0.000865548
0.000838169
0.000826866
0.000823459
0.000822596
0.000822397
0.000822358
0.000822359
0.000822397
0.000822596
0.000823457
0.00082686
0.000838158
0.000865544
0.000888017
0.00090079
0.000906192
0.000907389
0.000904648
0.000891446
0.000844738
0.000698181
0.000219529
0.000219525
0.000698272
0.000844744
0.000891403
0.000904685
0.000907934
0.00090855
0.000908222
0.000906443
0.000901034
0.000888314
0.000865766
0.000838307
0.000826959
0.000823539
0.000822676
0.000822481
0.000822446
0.000822446
0.000822482
0.000822677
0.000823537
0.000826953
0.000838297
0.000865763
0.00088831
0.000901014
0.000906309
0.000907438
0.000904667
0.000891453
0.000844739
0.000698176
0.000219528
0.000219525
0.000698271
0.000844744
0.000891404
0.000904687
0.000907936
0.000908553
0.000908225
0.000906447
0.000901039
0.000888318
0.00086577
0.000838315
0.000826965
0.000823543
0.00082268
0.000822485
0.000822451
0.000822451
0.000822486
0.000822681
0.000823542
0.000826959
0.000838305
0.000865767
0.000888315
0.00090102
0.000906314
0.000907443
0.00090467
0.000891455
0.00084474
0.000698175
0.000219527
0.000219525
0.000698273
0.000844745
0.000891404
0.000904686
0.000907932
0.00090854
0.000908184
0.000906339
0.000900826
0.000888037
0.000865562
0.000838193
0.000826885
0.000823474
0.000822611
0.000822412
0.000822376
0.000822377
0.000822414
0.000822612
0.000823474
0.000826881
0.000838184
0.00086556
0.000888035
0.000900808
0.000906207
0.000907403
0.000904658
0.000891453
0.00084474
0.000698178
0.000219527
0.000219525
0.000698278
0.000844748
0.000891403
0.00090468
0.000907914
0.000908477
0.00090798
0.00090579
0.000899702
0.000886502
0.00086444
0.000837565
0.000826498
0.000823161
0.000822304
0.000822097
0.000822054
0.000822055
0.000822099
0.000822306
0.000823163
0.000826496
0.000837559
0.000864439
0.000886501
0.000899685
0.000905659
0.0009072
0.000904597
0.000891437
0.00084474
0.000698184
0.000219528
0.000219526
0.000698286
0.000844751
0.0008914
0.000904665
0.000907851
0.000908235
0.000907147
0.000903437
0.000894666
0.000879304
0.000859328
0.000834818
0.000824858
0.000821862
0.000821057
0.000820836
0.000820779
0.000820781
0.00082084
0.000821062
0.000821866
0.000824861
0.000834817
0.000859332
0.000879306
0.000894651
0.000903309
0.000906369
0.000904358
0.00089138
0.000844734
0.000698194
0.000219529
0.000219527
0.000698298
0.000844754
0.000891392
0.000904622
0.000907662
0.000907446
0.000904291
0.000894963
0.000875307
0.000849345
0.0008395
0.000824637
0.000818843
0.000817075
0.00081651
0.000816283
0.000816203
0.000816205
0.00081629
0.00081652
0.000817087
0.000818855
0.000824648
0.000839515
0.000849355
0.000875297
0.000894838
0.000903517
0.000903573
0.0008912
0.000844706
0.000698207
0.000219531
0.000219528
0.000698312
0.000844758
0.000891375
0.000904527
0.000907201
0.000905419
0.000896564
0.000870264
0.000811603
0.000731574
0.000774435
0.000794242
0.000801063
0.000802618
0.000802849
0.000802695
0.000802593
0.000802597
0.000802705
0.000802865
0.000802638
0.000801086
0.00079427
0.000774478
0.0007316
0.000811602
0.000870144
0.000895796
0.000901555
0.000890752
0.000844633
0.00069822
0.000219532
0.000219529
0.000698329
0.000844762
0.00089135
0.000904376
0.00090643
0.000901832
0.000881757
0.000815851
0.000629262
0.000242412
0.000592045
0.000725897
0.000762073
0.000769801
0.000771861
0.000772014
0.000771944
0.000771948
0.000772025
0.000771877
0.000769815
0.000762078
0.000725904
0.000592141
0.000242412
0.000629278
0.000815734
0.000880993
0.000897977
0.000889996
0.000844507
0.000698231
0.000219533
0.00021953
0.000698347
0.000844766
0.00089133
0.000904267
0.000905858
0.000898942
0.000867758
0.000745812
0.000244095
0.000236864
0.00063782
0.00071378
0.000728361
0.00073101
0.000731379
0.000731405
0.000731404
0.000731373
0.000730985
0.000728275
0.000713562
0.000637456
0.000236782
0.000244078
0.000745674
0.000866988
0.000895092
0.000889439
0.000844426
0.000698254
0.000219534
0.00021953
0.000698358
0.000844764
0.000891328
0.00090434
0.00090639
0.000901816
0.000881861
0.000816368
0.000630994
0.000242757
0.000598311
0.000734653
0.000770703
0.000778808
0.000780258
0.000780486
0.000780511
0.000780506
0.00078046
0.000780149
0.000778405
0.000769521
0.000732289
0.000596525
0.000242578
0.000630699
0.000816102
0.000881051
0.000897959
0.00088998
0.000844524
0.00069829
0.000219535
0.000219529
0.000698336
0.000844695
0.000891246
0.000904359
0.000907021
0.000905281
0.00089665
0.00087111
0.000814469
0.000738407
0.000789631
0.000818069
0.000822478
0.000822324
0.000821869
0.000821688
0.000821635
0.000821624
0.000821622
0.000821567
0.000821106
0.000818504
0.000809123
0.000782436
0.000734818
0.00081294
0.000870456
0.000895733
0.000901403
0.000890626
0.000844592
0.000698296
0.000219534
0.000219518
0.000698117
0.000844247
0.000890672
0.000903797
0.000906801
0.000906634
0.000903789
0.000895557
0.000878925
0.000859454
0.000859945
0.000853276
0.000837511
0.000831021
0.000829116
0.000828656
0.000828559
0.000828543
0.00082855
0.000828605
0.000828843
0.000829797
0.000833721
0.000844942
0.000851714
0.000875815
0.000894418
0.00090275
0.00090275
0.000890477
0.000844226
0.000698092
0.000219524
0.000219454
0.000696842
0.000841936
0.000887796
0.000900719
0.000903793
0.000904215
0.000903492
0.000901135
0.000896175
0.000889048
0.000881637
0.000867021
0.000846849
0.000838857
0.000836595
0.000836068
0.000835962
0.000835945
0.000835956
0.000836045
0.000836508
0.000838529
0.000845942
0.000865291
0.000880502
0.000892741
0.000899906
0.000902452
0.000900415
0.000887768
0.000841947
0.000696825
0.00021946
0.000219119
0.000690704
0.000831779
0.000875642
0.000887813
0.000890699
0.000891246
0.000891145
0.000890509
0.000888935
0.00088586
0.000880351
0.000870267
0.000857842
0.000852278
0.000850555
0.000850122
0.000850027
0.000850012
0.000850027
0.00085012
0.00085054
0.000852215
0.000857668
0.000869956
0.000880228
0.000886626
0.000889649
0.000890267
0.00088775
0.000875664
0.000831796
0.000690689
0.000219124
0.00021764
0.000665511
0.000793615
0.000831797
0.00084197
0.000844295
0.000844748
0.000844781
0.000844616
0.000844109
0.000842886
0.000840292
0.000835641
0.000830107
0.000827316
0.000826348
0.000826076
0.000826008
0.000825997
0.000826012
0.000826084
0.000826358
0.000827319
0.000830094
0.000835608
0.0008403
0.000843032
0.000844183
0.000844166
0.000841969
0.000831819
0.000793624
0.000665493
0.000217644
0.000212334
0.000573005
0.000665533
0.000690739
0.000696888
0.000698172
0.000698398
0.000698416
0.000698363
0.000698201
0.000697802
0.000696936
0.000695422
0.000693627
0.000692626
0.000692225
0.000692086
0.00069204
0.000692032
0.000692049
0.000692104
0.00069225
0.000692656
0.00069366
0.000695455
0.000696977
0.000697851
0.000698207
0.00069812
0.00069688
0.000690739
0.000665525
0.000572981
0.000212337
0.000198773
0.000212334
0.000217642
0.000219124
0.000219462
0.000219529
0.000219543
0.000219549
0.000219552
0.000219552
0.000219542
0.000219512
0.000219453
0.00021938
0.000219337
0.000219318
0.00021931
0.000219306
0.000219306
0.000219307
0.000219311
0.000219318
0.000219337
0.00021938
0.000219453
0.000219511
0.000219541
0.000219549
0.000219538
0.000219471
0.000219132
0.000217647
0.000212337
0.000198776
0.000204693
0.000223646
0.000231483
0.000233847
0.000234432
0.000234554
0.000234576
0.00023458
0.00023458
0.00023458
0.00023458
0.00023458
0.000234579
0.000234579
0.000234578
0.000234578
0.000234577
0.000234577
0.000234577
0.000234577
0.000234578
0.000234578
0.000234578
0.000234579
0.000234579
0.00023458
0.000234579
0.000234576
0.000234554
0.000234432
0.000233847
0.000231484
0.000223646
0.000204694
0.000223646
0.000712058
0.000852611
0.000894024
0.000904934
0.000907396
0.000907868
0.000907937
0.000907933
0.000907913
0.000907888
0.00090786
0.000907832
0.000907807
0.000907786
0.000907769
0.000907758
0.000907752
0.000907751
0.000907757
0.000907768
0.000907784
0.000907805
0.000907829
0.000907855
0.000907881
0.000907892
0.00090783
0.000907362
0.000904903
0.000893995
0.000852585
0.000712039
0.000223646
0.000231485
0.000852636
0.00105422
0.00111889
0.00113734
0.00114186
0.00114282
0.00114299
0.00114301
0.00114299
0.00114297
0.00114296
0.00114295
0.00114294
0.00114293
0.00114292
0.00114292
0.00114291
0.00114291
0.00114292
0.00114292
0.00114293
0.00114294
0.00114295
0.00114296
0.00114297
0.00114296
0.0011428
0.00114185
0.00113734
0.00111888
0.00105421
0.00085263
0.000231486
0.00023385
0.000894062
0.00111891
0.00119413
0.00121646
0.00122215
0.00122339
0.00122362
0.00122363
0.00122357
0.0012235
0.00122348
0.00122348
0.00122348
0.00122349
0.00122349
0.00122349
0.00122349
0.00122349
0.00122349
0.00122349
0.00122349
0.00122349
0.00122348
0.00122348
0.0012235
0.00122353
0.00122335
0.00122214
0.00121647
0.00119414
0.00111891
0.000894065
0.000233853
0.000234436
0.000904977
0.00113737
0.00121647
0.00124035
0.00124653
0.00124788
0.00124807
0.00124791
0.00124755
0.00124718
0.00124707