/*--------------------------------*- C++ -*----------------------------------*\
| =========                 |                                                 |
| \\      /  F ield         | OpenFOAM: The Open Source CFD Toolbox           |
|  \\    /   O peration     | Version:  2112                                  |
|   \\  /    A nd           | Website:  www.openfoam.com                      |
|    \\/     M anipulation  |                                                 |
\*---------------------------------------------------------------------------*/
FoamFile
{
    version     2.0;
    format      ascii;
    arch        "LSB;label=32;scalar=64";
    class       volScalarField;
    location    "1";
    object      p;
}
// * * * * * * * * * * * * * * * * * * * * * * * * * * * * * * * * * * * * * //

dimensions      [0 2 -2 0 0 0 0];

internalField   nonuniform List<scalar> 
64906
(
-1.24218e-05
-1.24016e-05
-1.24144e-05
-1.24642e-05
-1.25534e-05
-1.26809e-05
-1.28451e-05
-1.30446e-05
-1.32762e-05
-1.35358e-05
-1.38128e-05
-1.40976e-05
-1.43718e-05
-1.46247e-05
-1.4844e-05
-1.50234e-05
-1.51574e-05
-1.52433e-05
-1.528e-05
-1.52675e-05
-1.52077e-05
-1.51034e-05
-1.49607e-05
-1.47857e-05
-1.45913e-05
-1.43875e-05
-1.41931e-05
-1.40173e-05
-1.38707e-05
-1.37576e-05
-1.36816e-05
-1.36437e-05
-1.3641e-05
-1.36682e-05
-1.23766e-05
-1.22475e-05
-1.21946e-05
-1.21955e-05
-1.22477e-05
-1.23417e-05
-1.24707e-05
-1.2631e-05
-1.28184e-05
-1.30295e-05
-1.32529e-05
-1.34821e-05
-1.36985e-05
-1.38971e-05
-1.40673e-05
-1.42071e-05
-1.43127e-05
-1.43834e-05
-1.44186e-05
-1.44184e-05
-1.43839e-05
-1.43163e-05
-1.42195e-05
-1.40958e-05
-1.39558e-05
-1.38042e-05
-1.366e-05
-1.35294e-05
-1.34251e-05
-1.33536e-05
-1.33255e-05
-1.33524e-05
-1.34347e-05
-1.3609e-05
-1.2411e-05
-1.22096e-05
-1.2113e-05
-1.20786e-05
-1.21073e-05
-1.21851e-05
-1.23021e-05
-1.24545e-05
-1.26384e-05
-1.28534e-05
-1.30844e-05
-1.33274e-05
-1.35489e-05
-1.37483e-05
-1.39127e-05
-1.40459e-05
-1.4145e-05
-1.42118e-05
-1.42462e-05
-1.42483e-05
-1.42188e-05
-1.41563e-05
-1.40639e-05
-1.39383e-05
-1.37924e-05
-1.36264e-05
-1.34746e-05
-1.33409e-05
-1.3243e-05
-1.3187e-05
-1.3188e-05
-1.32633e-05
-1.34136e-05
-1.3658e-05
-1.25231e-05
-1.22745e-05
-1.21452e-05
-1.20882e-05
-1.2107e-05
-1.21855e-05
-1.23129e-05
-1.24879e-05
-1.27102e-05
-1.29867e-05
-1.3296e-05
-1.36371e-05
-1.3935e-05
-1.41949e-05
-1.43976e-05
-1.45571e-05
-1.46714e-05
-1.47456e-05
-1.47798e-05
-1.47742e-05
-1.47293e-05
-1.46403e-05
-1.45099e-05
-1.43242e-05
-1.41031e-05
-1.38409e-05
-1.36142e-05
-1.34231e-05
-1.32934e-05
-1.32256e-05
-1.32348e-05
-1.33379e-05
-1.35277e-05
-1.38499e-05
-1.27173e-05
-1.24397e-05
-1.22881e-05
-1.22218e-05
-1.22456e-05
-1.23423e-05
-1.25023e-05
-1.27313e-05
-1.30376e-05
-1.34467e-05
-1.39289e-05
-1.44937e-05
-1.49635e-05
-1.53577e-05
-1.56483e-05
-1.58714e-05
-1.6025e-05
-1.61192e-05
-1.6154e-05
-1.61296e-05
-1.60466e-05
-1.58953e-05
-1.56785e-05
-1.53605e-05
-1.49706e-05
-1.44886e-05
-1.40958e-05
-1.37793e-05
-1.35747e-05
-1.34657e-05
-1.34616e-05
-1.35736e-05
-1.37846e-05
-1.41793e-05
-1.29909e-05
-1.2687e-05
-1.25193e-05
-1.24532e-05
-1.24941e-05
-1.26236e-05
-1.2835e-05
-1.31453e-05
-1.3581e-05
-1.42061e-05
-1.49911e-05
-1.59892e-05
-1.67656e-05
-1.7389e-05
-1.78257e-05
-1.81572e-05
-1.83792e-05
-1.85089e-05
-1.85452e-05
-1.8488e-05
-1.83393e-05
-1.80821e-05
-1.77218e-05
-1.71772e-05
-1.6485e-05
-1.55741e-05
-1.48898e-05
-1.43668e-05
-1.40438e-05
-1.38676e-05
-1.38339e-05
-1.3946e-05
-1.41851e-05
-1.46159e-05
-1.3337e-05
-1.30024e-05
-1.28212e-05
-1.27623e-05
-1.28308e-05
-1.30063e-05
-1.32854e-05
-1.37002e-05
-1.43077e-05
-1.52465e-05
-1.64964e-05
-1.83352e-05
-1.96112e-05
-2.05841e-05
-2.12349e-05
-2.17286e-05
-2.20541e-05
-2.22388e-05
-2.22776e-05
-2.21704e-05
-2.19228e-05
-2.15072e-05
-2.09362e-05
-2.00445e-05
-1.8857e-05
-1.71073e-05
-1.59781e-05
-1.51524e-05
-1.46693e-05
-1.44036e-05
-1.43264e-05
-1.44315e-05
-1.46964e-05
-1.51716e-05
-1.37474e-05
-1.33756e-05
-1.31826e-05
-1.31389e-05
-1.3249e-05
-1.34885e-05
-1.38551e-05
-1.43924e-05
-1.51959e-05
-1.64923e-05
-1.83265e-05
-2.1834e-05
-2.38281e-05
-2.53028e-05
-2.62677e-05
-2.70077e-05
-2.74933e-05
-2.77643e-05
-2.78074e-05
-2.76221e-05
-2.72219e-05
-2.6566e-05
-2.56849e-05
-2.42924e-05
-2.23893e-05
-1.89615e-05
-1.72913e-05
-1.61159e-05
-1.54467e-05
-1.50725e-05
-1.49341e-05
-1.50209e-05
-1.53088e-05
-1.58419e-05
-1.42112e-05
-1.37951e-05
-1.35921e-05
-1.35732e-05
-1.37432e-05
-1.40718e-05
-1.45538e-05
-1.52317e-05
-1.62097e-05
-1.79138e-05
-2.01816e-05
-2.70956e-05
-2.97375e-05
-3.18007e-05
-3.31713e-05
-3.42211e-05
-3.49142e-05
-3.52982e-05
-3.53479e-05
-3.50624e-05
-3.44665e-05
-3.35102e-05
-3.22289e-05
-3.02454e-05
-2.76985e-05
-2.08248e-05
-1.88275e-05
-1.72279e-05
-1.63883e-05
-1.58829e-05
-1.56549e-05
-1.57045e-05
-1.60101e-05
-1.66154e-05
-1.47163e-05
-1.42508e-05
-1.40431e-05
-1.40665e-05
-1.43309e-05
-1.48049e-05
-1.54831e-05
-1.63534e-05
-1.75632e-05
-1.99837e-05
-1.79556e-05
-3.36312e-05
-3.67882e-05
-3.97421e-05
-4.1743e-05
-4.32825e-05
-4.43017e-05
-4.48532e-05
-4.49118e-05
-4.44767e-05
-4.35719e-05
-4.21409e-05
-4.02391e-05
-3.73634e-05
-3.43261e-05
-1.84759e-05
-2.10119e-05
-1.86812e-05
-1.76237e-05
-1.69301e-05
-1.65296e-05
-1.64911e-05
-1.67938e-05
-1.74797e-05
-1.52437e-05
-1.47235e-05
-1.4513e-05
-1.45897e-05
-1.49744e-05
-1.56464e-05
-1.6599e-05
-1.77351e-05
-1.88575e-05
-1.64897e-05
-4.95642e-05
-4.67623e-05
-4.88796e-05
-5.12335e-05
-5.31957e-05
-5.45457e-05
-5.5255e-05
-5.53245e-05
-5.47534e-05
-5.35396e-05
-5.17068e-05
-4.94689e-05
-4.74271e-05
-5.0159e-05
-1.80651e-05
-2.026e-05
-1.91672e-05
-1.8174e-05
-1.75128e-05
-1.73352e-05
-1.762e-05
-1.83988e-05
-1.57763e-05
-1.52008e-05
-1.49947e-05
-1.51448e-05
-1.57006e-05
-1.67005e-05
-1.8303e-05
-2.08055e-05
-2.50204e-05
-3.11311e-05
-4.60752e-05
-4.69805e-05
-5.23676e-05
-5.71494e-05
-6.12439e-05
-6.42712e-05
-6.62141e-05
-6.71798e-05
-6.72601e-05
-6.64553e-05
-6.46743e-05
-6.18097e-05
-5.78811e-05
-5.32697e-05
-4.80737e-05
-4.75662e-05
-3.25028e-05
-2.64566e-05
-2.23169e-05
-1.99746e-05
-1.86922e-05
-1.82517e-05
-1.84757e-05
-1.93446e-05
-1.62869e-05
-1.56554e-05
-1.54459e-05
-1.56487e-05
-1.63259e-05
-1.75322e-05
-1.9455e-05
-2.23817e-05
-2.68615e-05
-3.28755e-05
-4.28958e-05
-4.94984e-05
-5.66285e-05
-6.29057e-05
-6.81602e-05
-7.18791e-05
-7.42221e-05
-7.53698e-05
-7.54586e-05
-7.44892e-05
-7.23267e-05
-6.87909e-05
-6.37248e-05
-5.76312e-05
-5.06813e-05
-4.43015e-05
-3.43515e-05
-2.83838e-05
-2.39813e-05
-2.12244e-05
-1.96494e-05
-1.90657e-05
-1.92729e-05
-2.02408e-05
-1.67588e-05
-1.60761e-05
-1.58606e-05
-1.61033e-05
-1.68717e-05
-1.82224e-05
-2.03424e-05
-2.35058e-05
-2.82043e-05
-3.45277e-05
-4.31893e-05
-5.11464e-05
-5.96071e-05
-6.69386e-05
-7.29605e-05
-7.71259e-05
-7.97244e-05
-8.0983e-05
-8.10785e-05
-8.00117e-05
-7.7608e-05
-7.36408e-05
-6.78233e-05
-6.06885e-05
-5.24283e-05
-4.46245e-05
-3.60514e-05
-2.97902e-05
-2.51829e-05
-2.22036e-05
-2.04608e-05
-1.9792e-05
-2.00004e-05
-2.10582e-05
-1.71742e-05
-1.64459e-05
-1.62189e-05
-1.64819e-05
-1.73009e-05
-1.87246e-05
-2.09258e-05
-2.41628e-05
-2.88842e-05
-3.52278e-05
-4.35197e-05
-5.21122e-05
-6.13309e-05
-6.91741e-05
-7.55532e-05
-7.99187e-05
-8.26298e-05
-8.39361e-05
-8.40367e-05
-8.29325e-05
-8.04265e-05
-7.62691e-05
-7.01039e-05
-6.24641e-05
-5.34442e-05
-4.49939e-05
-3.68015e-05
-3.05304e-05
-2.59111e-05
-2.28732e-05
-2.1077e-05
-2.03866e-05
-2.06206e-05
-2.17602e-05
-1.75238e-05
-1.67586e-05
-1.65196e-05
-1.67927e-05
-1.76409e-05
-1.91049e-05
-2.13449e-05
-2.46102e-05
-2.93284e-05
-3.5676e-05
-4.39199e-05
-5.28303e-05
-6.24071e-05
-7.05062e-05
-7.70606e-05
-8.15132e-05
-8.42704e-05
-8.55955e-05
-8.57007e-05
-8.45868e-05
-8.20432e-05
-7.78067e-05
-7.14734e-05
-6.35828e-05
-5.42088e-05
-4.54365e-05
-3.72981e-05
-3.10293e-05
-2.64223e-05
-2.33694e-05
-2.15584e-05
-2.08693e-05
-2.11328e-05
-2.23382e-05
-1.78006e-05
-1.70079e-05
-1.67584e-05
-1.70353e-05
-1.78993e-05
-1.93848e-05
-2.16444e-05
-2.49246e-05
-2.96474e-05
-3.60211e-05
-4.43037e-05
-5.33857e-05
-6.3157e-05
-7.13935e-05
-7.80413e-05
-8.25405e-05
-8.53232e-05
-8.66597e-05
-8.67695e-05
-8.5653e-05
-8.30921e-05
-7.88159e-05
-7.23949e-05
-6.43709e-05
-5.48051e-05
-4.58609e-05
-3.76874e-05
-3.13967e-05
-2.67917e-05
-2.37345e-05
-2.19223e-05
-2.12425e-05
-2.15322e-05
-2.27865e-05
-1.80016e-05
-1.71921e-05
-1.69362e-05
-1.72158e-05
-1.80906e-05
-1.9592e-05
-2.18698e-05
-2.51711e-05
-2.99182e-05
-3.63368e-05
-4.46835e-05
-5.38818e-05
-6.3779e-05
-7.21129e-05
-7.88326e-05
-8.33758e-05
-8.61856e-05
-8.75366e-05
-8.76513e-05
-8.65298e-05
-8.39501e-05
-7.96369e-05
-7.31491e-05
-6.50307e-05
-5.53404e-05
-4.62795e-05
-3.80428e-05
-3.17092e-05
-2.70838e-05
-2.40123e-05
-2.21939e-05
-2.15176e-05
-2.18229e-05
-2.3107e-05
-1.81254e-05
-1.731e-05
-1.70528e-05
-1.73359e-05
-1.82194e-05
-1.97352e-05
-2.20341e-05
-2.53658e-05
-3.01561e-05
-3.66345e-05
-4.50571e-05
-5.4344e-05
-6.43301e-05
-7.27434e-05
-7.95281e-05
-8.41211e-05
-8.69655e-05
-8.83365e-05
-8.84566e-05
-8.73257e-05
-8.47208e-05
-8.03651e-05
-7.38169e-05
-6.56213e-05
-5.58416e-05
-4.66905e-05
-3.83762e-05
-3.19821e-05
-2.73146e-05
-2.42153e-05
-2.23808e-05
-2.16986e-05
-2.20064e-05
-2.33014e-05
-1.81724e-05
-1.73617e-05
-1.71084e-05
-1.73957e-05
-1.82857e-05
-1.98136e-05
-2.21357e-05
-2.55064e-05
-3.03581e-05
-3.69125e-05
-4.54264e-05
-5.47807e-05
-6.48211e-05
-7.32957e-05
-8.01378e-05
-8.47857e-05
-8.76712e-05
-8.90676e-05
-8.91942e-05
-8.80503e-05
-8.5415e-05
-8.1013e-05
-7.44123e-05
-6.61566e-05
-5.63197e-05
-4.70957e-05
-3.86868e-05
-3.22139e-05
-2.7483e-05
-2.43432e-05
-2.24834e-05
-2.1786e-05
-2.20837e-05
-2.33706e-05
-1.81445e-05
-1.73491e-05
-1.71038e-05
-1.73941e-05
-1.8285e-05
-1.98182e-05
-2.21597e-05
-2.5572e-05
-3.05021e-05
-3.71538e-05
-4.57967e-05
-5.51894e-05
-6.52221e-05
-7.37189e-05
-8.05942e-05
-8.52922e-05
-8.82199e-05
-8.9645e-05
-8.97796e-05
-8.86225e-05
-8.59586e-05
-8.15172e-05
-7.48892e-05
-6.66128e-05
-5.67777e-05
-4.7506e-05
-3.89599e-05
-3.2384e-05
-2.75702e-05
-2.43834e-05
-2.24956e-05
-2.17787e-05
-2.20563e-05
-2.33169e-05
-1.80453e-05
-1.72747e-05
-1.70389e-05
-1.73261e-05
-1.82042e-05
-1.97223e-05
-2.206e-05
-2.54943e-05
-3.05037e-05
-3.72785e-05
-4.61602e-05
-5.55209e-05
-6.54012e-05
-7.38052e-05
-8.06291e-05
-8.53357e-05
-8.82852e-05
-8.97336e-05
-8.98789e-05
-8.87196e-05
-8.60528e-05
-8.16188e-05
-7.50514e-05
-6.68701e-05
-5.71761e-05
-4.79158e-05
-3.91194e-05
-3.24124e-05
-2.75126e-05
-2.42951e-05
-2.2396e-05
-2.16684e-05
-2.19232e-05
-2.31414e-05
-1.78827e-05
-1.71455e-05
-1.69197e-05
-1.7195e-05
-1.80404e-05
-1.95114e-05
-2.1801e-05
-2.52038e-05
-3.02515e-05
-3.71163e-05
-4.65781e-05
-5.57816e-05
-6.514e-05
-7.32136e-05
-7.98145e-05
-8.44276e-05
-8.73423e-05
-8.87932e-05
-8.89541e-05
-8.78235e-05
-8.52205e-05
-8.09068e-05
-7.45792e-05
-6.67355e-05
-5.75433e-05
-4.83927e-05
-3.90042e-05
-3.21973e-05
-2.72497e-05
-2.40508e-05
-2.2178e-05
-2.14602e-05
-2.16943e-05
-2.28543e-05
-1.76664e-05
-1.69684e-05
-1.67483e-05
-1.69947e-05
-1.77708e-05
-1.91276e-05
-2.12548e-05
-2.44561e-05
-2.93087e-05
-3.59111e-05
-4.69613e-05
-5.59156e-05
-6.40662e-05
-7.1282e-05
-7.72711e-05
-8.15691e-05
-8.43281e-05
-8.57348e-05
-8.59191e-05
-8.48803e-05
-8.24793e-05
-7.8527e-05
-7.28421e-05
-6.58748e-05
-5.78703e-05
-4.88426e-05
-3.78705e-05
-3.13172e-05
-2.65504e-05
-2.35333e-05
-2.17929e-05
-2.11404e-05
-2.13737e-05
-2.24673e-05
-1.74146e-05
-1.67614e-05
-1.65475e-05
-1.67585e-05
-1.7446e-05
-1.86437e-05
-2.05122e-05
-2.33586e-05
-2.80716e-05
-3.50982e-05
-4.96609e-05
-5.47253e-05
-6.20287e-05
-6.81772e-05
-7.32636e-05
-7.70861e-05
-7.96047e-05
-8.09314e-05
-8.11496e-05
-8.02617e-05
-7.81741e-05
-7.47767e-05
-7.00491e-05
-6.41763e-05
-5.68789e-05
-5.14938e-05
-3.72344e-05
-3.02136e-05
-2.55456e-05
-2.28474e-05
-2.13227e-05
-2.07682e-05
-2.10059e-05
-2.20209e-05
-1.71428e-05
-1.65341e-05
-1.63207e-05
-1.64804e-05
-1.70384e-05
-1.79683e-05
-1.92461e-05
-2.0696e-05
-2.19568e-05
-1.84077e-05
-6.43844e-05
-6.04378e-05
-6.34891e-05
-6.69735e-05
-6.99841e-05
-7.21163e-05
-7.33213e-05
-7.35831e-05
-7.29099e-05
-7.13085e-05
-6.88423e-05
-6.58127e-05
-6.31904e-05
-6.72024e-05
-2.06389e-05
-2.42809e-05
-2.30187e-05
-2.16691e-05
-2.06777e-05
-2.03201e-05
-2.05949e-05
-2.15383e-05
-1.68775e-05
-1.63145e-05
-1.61128e-05
-1.62507e-05
-1.67531e-05
-1.76086e-05
-1.88701e-05
-2.06579e-05
-2.34853e-05
-2.81767e-05
-3.14881e-05
-4.68344e-05
-5.24498e-05
-5.75979e-05
-6.15188e-05
-6.4674e-05
-6.68305e-05
-6.80749e-05
-6.83854e-05
-6.77824e-05
-6.62859e-05
-6.38419e-05
-6.05127e-05
-5.5947e-05
-5.03207e-05
-3.55838e-05
-3.14755e-05
-2.63661e-05
-2.32572e-05
-2.14207e-05
-2.03545e-05
-1.99899e-05
-2.02318e-05
-2.10928e-05
-1.66321e-05
-1.61107e-05
-1.59223e-05
-1.60457e-05
-1.65054e-05
-1.72985e-05
-1.84847e-05
-2.02118e-05
-2.27367e-05
-2.64405e-05
-3.26188e-05
-4.18608e-05
-4.73554e-05
-5.2372e-05
-5.62794e-05
-5.94162e-05
-6.15348e-05
-6.27652e-05
-6.31096e-05
-6.26025e-05
-6.12481e-05
-5.89695e-05
-5.57358e-05
-5.13901e-05
-4.58946e-05
-3.67124e-05
-2.98975e-05
-2.57974e-05
-2.29562e-05
-2.11163e-05
-2.00609e-05
-1.969e-05
-1.98991e-05
-2.06898e-05
-1.64249e-05
-1.59437e-05
-1.57757e-05
-1.59007e-05
-1.63438e-05
-1.71088e-05
-1.82564e-05
-1.99282e-05
-2.23699e-05
-2.59106e-05
-3.09272e-05
-3.75017e-05
-4.29012e-05
-4.79499e-05
-5.19419e-05
-5.51534e-05
-5.72923e-05
-5.85228e-05
-5.88847e-05
-5.84254e-05
-5.71218e-05
-5.48809e-05
-5.16221e-05
-4.73083e-05
-4.18983e-05
-3.52507e-05
-2.96502e-05
-2.55976e-05
-2.27719e-05
-2.09365e-05
-1.98712e-05
-1.94732e-05
-1.96371e-05
-2.03593e-05
-1.62666e-05
-1.58263e-05
-1.56848e-05
-1.58204e-05
-1.62555e-05
-1.6994e-05
-1.80867e-05
-1.96514e-05
-2.18711e-05
-2.49945e-05
-2.91174e-05
-3.42238e-05
-3.90702e-05
-4.3778e-05
-4.75824e-05
-5.06252e-05
-5.26474e-05
-5.38087e-05
-5.41635e-05
-5.37608e-05
-5.25672e-05
-5.04968e-05
-4.74421e-05
-4.34727e-05
-3.86143e-05
-3.33748e-05
-2.87135e-05
-2.5094e-05
-2.25007e-05
-2.07685e-05
-1.97379e-05
-1.93276e-05
-1.94499e-05
-2.01067e-05
-1.6168e-05
-1.57795e-05
-1.56785e-05
-1.58408e-05
-1.62838e-05
-1.70089e-05
-1.80533e-05
-1.95014e-05
-2.1474e-05
-2.41221e-05
-2.74867e-05
-3.15405e-05
-3.5663e-05
-3.97728e-05
-4.31608e-05
-4.58532e-05
-4.7665e-05
-4.87138e-05
-4.90453e-05
-4.8699e-05
-4.7646e-05
-4.5825e-05
-4.31486e-05
-3.97118e-05
-3.55978e-05
-3.14019e-05
-2.76094e-05
-2.45647e-05
-2.22919e-05
-2.07116e-05
-1.97304e-05
-1.93037e-05
-1.93712e-05
-1.99475e-05
-1.61353e-05
-1.58247e-05
-1.57874e-05
-1.59987e-05
-1.64727e-05
-1.72107e-05
-1.82398e-05
-1.96181e-05
-2.14197e-05
-2.37296e-05
-2.65564e-05
-2.98748e-05
-3.33469e-05
-3.68316e-05
-3.97621e-05
-4.20971e-05
-4.37032e-05
-4.46469e-05
-4.49545e-05
-4.46525e-05
-4.37221e-05
-4.21307e-05
-3.98321e-05
-3.69207e-05
-3.35003e-05
-3.00824e-05
-2.69617e-05
-2.4373e-05
-2.23588e-05
-2.08925e-05
-1.99309e-05
-1.94574e-05
-1.94361e-05
-1.98915e-05
-1.61626e-05
-1.59643e-05
-1.60094e-05
-1.6288e-05
-1.6817e-05
-1.76028e-05
-1.86692e-05
-2.00593e-05
-2.182e-05
-2.39946e-05
-2.65695e-05
-2.9501e-05
-3.25688e-05
-3.56162e-05
-3.82404e-05
-4.03536e-05
-4.18458e-05
-4.27359e-05
-4.30304e-05
-4.27435e-05
-4.18674e-05
-4.03954e-05
-3.83228e-05
-3.57457e-05
-3.2787e-05
-2.9823e-05
-2.70718e-05
-2.47142e-05
-2.2808e-05
-2.13608e-05
-2.03585e-05
-1.97979e-05
-1.96533e-05
-1.99322e-05
-1.62438e-05
-1.62423e-05
-1.64314e-05
-1.68239e-05
-1.74427e-05
-1.83148e-05
-1.94775e-05
-2.09751e-05
-2.28498e-05
-2.51304e-05
-2.77962e-05
-3.07817e-05
-3.38933e-05
-3.69539e-05
-3.96339e-05
-4.18099e-05
-4.33729e-05
-4.43094e-05
-4.46145e-05
-4.42951e-05
-4.33511e-05
-4.17907e-05
-3.9639e-05
-3.70021e-05
-3.4029e-05
-3.10401e-05
-2.82503e-05
-2.58265e-05
-2.38372e-05
-2.22956e-05
-2.11801e-05
-2.04587e-05
-2.00933e-05
-2.00614e-05
-1.25122e-05
-1.25304e-05
-1.25754e-05
-1.26515e-05
-1.27641e-05
-1.29157e-05
-1.3107e-05
-1.33382e-05
-1.36065e-05
-1.39084e-05
-1.42315e-05
-1.45656e-05
-1.48875e-05
-1.51854e-05
-1.54431e-05
-1.56534e-05
-1.58087e-05
-1.59062e-05
-1.59438e-05
-1.59219e-05
-1.58428e-05
-1.57099e-05
-1.55309e-05
-1.53134e-05
-1.50737e-05
-1.48234e-05
-1.45857e-05
-1.43702e-05
-1.41892e-05
-1.40449e-05
-1.39382e-05
-1.3865e-05
-1.38174e-05
-1.37881e-05
-1.24818e-05
-1.24352e-05
-1.24379e-05
-1.24802e-05
-1.25651e-05
-1.26906e-05
-1.28544e-05
-1.30554e-05
-1.32887e-05
-1.35519e-05
-1.38283e-05
-1.41133e-05
-1.43813e-05
-1.46299e-05
-1.48422e-05
-1.50164e-05
-1.51456e-05
-1.52294e-05
-1.52661e-05
-1.5256e-05
-1.52011e-05
-1.51024e-05
-1.49668e-05
-1.47965e-05
-1.46085e-05
-1.44049e-05
-1.42115e-05
-1.40325e-05
-1.38854e-05
-1.37733e-05
-1.3703e-05
-1.36763e-05
-1.36874e-05
-1.37428e-05
-1.25357e-05
-1.24595e-05
-1.24412e-05
-1.24641e-05
-1.25392e-05
-1.26633e-05
-1.28329e-05
-1.30485e-05
-1.33046e-05
-1.36055e-05
-1.3924e-05
-1.42673e-05
-1.45769e-05
-1.48633e-05
-1.50987e-05
-1.52898e-05
-1.54283e-05
-1.55165e-05
-1.5553e-05
-1.5538e-05
-1.54735e-05
-1.53574e-05
-1.51986e-05
-1.49905e-05
-1.47613e-05
-1.45e-05
-1.42661e-05
-1.40516e-05
-1.3886e-05
-1.37677e-05
-1.37068e-05
-1.37052e-05
-1.37442e-05
-1.38285e-05
-1.26682e-05
-1.25695e-05
-1.25372e-05
-1.25534e-05
-1.26338e-05
-1.27756e-05
-1.29764e-05
-1.32418e-05
-1.35688e-05
-1.39766e-05
-1.44196e-05
-1.49278e-05
-1.53652e-05
-1.5766e-05
-1.60804e-05
-1.63316e-05
-1.6507e-05
-1.66141e-05
-1.66509e-05
-1.66176e-05
-1.65169e-05
-1.63415e-05
-1.61048e-05
-1.57836e-05
-1.5429e-05
-1.50054e-05
-1.46518e-05
-1.43357e-05
-1.41068e-05
-1.39497e-05
-1.38742e-05
-1.38768e-05
-1.39304e-05
-1.40436e-05
-1.28859e-05
-1.27653e-05
-1.27263e-05
-1.27484e-05
-1.28492e-05
-1.30271e-05
-1.32828e-05
-1.36323e-05
-1.40796e-05
-1.46755e-05
-1.53442e-05
-1.61685e-05
-1.68369e-05
-1.74406e-05
-1.78915e-05
-1.82474e-05
-1.84876e-05
-1.86285e-05
-1.86663e-05
-1.86011e-05
-1.84375e-05
-1.81594e-05
-1.77886e-05
-1.72669e-05
-1.66852e-05
-1.59498e-05
-1.53789e-05
-1.48824e-05
-1.45431e-05
-1.43142e-05
-1.42007e-05
-1.41895e-05
-1.42477e-05
-1.43947e-05
-1.31851e-05
-1.30384e-05
-1.29972e-05
-1.3035e-05
-1.31694e-05
-1.34e-05
-1.37315e-05
-1.41954e-05
-1.48095e-05
-1.56868e-05
-1.6714e-05
-1.81021e-05
-1.91385e-05
-2.00595e-05
-2.07149e-05
-2.1231e-05
-2.15707e-05
-2.17644e-05
-2.18039e-05
-2.16895e-05
-2.14299e-05
-2.09946e-05
-2.04224e-05
-1.95862e-05
-1.86415e-05
-1.73469e-05
-1.64303e-05
-1.56619e-05
-1.51677e-05
-1.48382e-05
-1.4668e-05
-1.46311e-05
-1.4691e-05
-1.48717e-05
-1.356e-05
-1.33803e-05
-1.33394e-05
-1.34012e-05
-1.35814e-05
-1.38792e-05
-1.43038e-05
-1.49049e-05
-1.57228e-05
-1.69928e-05
-1.85536e-05
-2.09626e-05
-2.25333e-05
-2.38936e-05
-2.48134e-05
-2.55424e-05
-2.60135e-05
-2.62791e-05
-2.63216e-05
-2.6141e-05
-2.57551e-05
-2.51113e-05
-2.42785e-05
-2.30051e-05
-2.15313e-05
-1.9218e-05
-1.77898e-05
-1.66392e-05
-1.59543e-05
-1.5502e-05
-1.52602e-05
-1.51884e-05
-1.52484e-05
-1.54734e-05
-1.40032e-05
-1.37826e-05
-1.37454e-05
-1.38421e-05
-1.40856e-05
-1.44712e-05
-1.50089e-05
-1.57546e-05
-1.67678e-05
-1.83966e-05
-2.06676e-05
-2.49471e-05
-2.71514e-05
-2.90736e-05
-3.03394e-05
-3.1361e-05
-3.2018e-05
-3.23869e-05
-3.2434e-05
-3.21588e-05
-3.15951e-05
-3.06649e-05
-2.94906e-05
-2.76555e-05
-2.55493e-05
-2.13579e-05
-1.92631e-05
-1.77616e-05
-1.68941e-05
-1.63114e-05
-1.598e-05
-1.5859e-05
-1.59138e-05
-1.61971e-05
-1.45041e-05
-1.42324e-05
-1.42009e-05
-1.4343e-05
-1.4667e-05
-1.51599e-05
-1.58244e-05
-1.66945e-05
-1.77588e-05
-1.96551e-05
-2.22564e-05
-3.08612e-05
-3.32236e-05
-3.54903e-05
-3.70312e-05
-3.82961e-05
-3.91207e-05
-3.95912e-05
-3.96448e-05
-3.92807e-05
-3.85608e-05
-3.73962e-05
-3.5952e-05
-3.37668e-05
-3.15033e-05
-2.29385e-05
-2.06365e-05
-1.88547e-05
-1.79426e-05
-1.72444e-05
-1.68084e-05
-1.66232e-05
-1.667e-05
-1.70321e-05
-1.5051e-05
-1.47212e-05
-1.47047e-05
-1.49173e-05
-1.53686e-05
-1.60425e-05
-1.69455e-05
-1.79691e-05
-1.90831e-05
-2.13531e-05
-1.6691e-05
-3.62294e-05
-3.87315e-05
-4.16498e-05
-4.36773e-05
-4.53594e-05
-4.64607e-05
-4.7075e-05
-4.71365e-05
-4.66442e-05
-4.5663e-05
-4.40944e-05
-4.21723e-05
-3.93321e-05
-3.69502e-05
-1.71616e-05
-2.24283e-05
-2.02651e-05
-1.93247e-05
-1.84816e-05
-1.78287e-05
-1.75098e-05
-1.75166e-05
-1.79702e-05
-1.56227e-05
-1.52244e-05
-1.52221e-05
-1.55111e-05
-1.61028e-05
-1.69845e-05
-1.8167e-05
-1.94772e-05
-2.02124e-05
-1.48486e-05
-5.28772e-05
-4.62146e-05
-4.73741e-05
-4.94177e-05
-5.10663e-05
-5.22489e-05
-5.28975e-05
-5.29679e-05
-5.24589e-05
-5.14137e-05
-4.9895e-05
-4.79703e-05
-4.68748e-05
-5.33976e-05
-1.6549e-05
-2.16775e-05
-2.09881e-05
-1.98303e-05
-1.89061e-05
-1.84251e-05
-1.83918e-05
-1.89675e-05
-1.62017e-05
-1.57346e-05
-1.57624e-05
-1.61675e-05
-1.69899e-05
-1.82886e-05
-2.02663e-05
-2.31556e-05
-2.797e-05
-3.36022e-05
-4.92122e-05
-4.50818e-05
-4.83859e-05
-5.21328e-05
-5.54334e-05
-5.78648e-05
-5.94685e-05
-6.02797e-05
-6.03592e-05
-5.97067e-05
-5.82628e-05
-5.59915e-05
-5.28573e-05
-4.92831e-05
-4.61659e-05
-5.07548e-05
-3.49786e-05
-2.94506e-05
-2.47411e-05
-2.20163e-05
-2.03153e-05
-1.94644e-05
-1.93063e-05
-2.00001e-05
-1.67561e-05
-1.62189e-05
-1.62611e-05
-1.67454e-05
-1.77163e-05
-1.92461e-05
-2.15632e-05
-2.48617e-05
-2.98022e-05
-3.53827e-05
-4.45832e-05
-4.77399e-05
-5.17617e-05
-5.56183e-05
-5.93312e-05
-6.20433e-05
-6.38553e-05
-6.47671e-05
-6.48539e-05
-6.41155e-05
-6.24785e-05
-5.99408e-05
-5.64065e-05
-5.27162e-05
-4.8858e-05
-4.59624e-05
-3.68574e-05
-3.13685e-05
-2.65367e-05
-2.34103e-05
-2.13891e-05
-2.03563e-05
-2.01531e-05
-2.09757e-05
-1.72685e-05
-1.66707e-05
-1.6727e-05
-1.72829e-05
-1.83854e-05
-2.01154e-05
-2.27067e-05
-2.63457e-05
-3.15413e-05
-3.76052e-05
-4.52908e-05
-5.02561e-05
-5.49305e-05
-5.92875e-05
-6.35174e-05
-6.65323e-05
-6.85557e-05
-6.95616e-05
-6.96552e-05
-6.88364e-05
-6.70024e-05
-6.41763e-05
-6.01397e-05
-5.59555e-05
-5.14278e-05
-4.66803e-05
-3.91306e-05
-3.31737e-05
-2.81011e-05
-2.46467e-05
-2.23742e-05
-2.11886e-05
-2.09432e-05
-2.18678e-05
-1.77179e-05
-1.70673e-05
-1.71269e-05
-1.77249e-05
-1.89026e-05
-2.0736e-05
-2.34434e-05
-2.72031e-05
-3.24325e-05
-3.86476e-05
-4.60788e-05
-5.17477e-05
-5.69756e-05
-6.16205e-05
-6.60978e-05
-6.9257e-05
-7.13835e-05
-7.24343e-05
-7.25333e-05
-7.16804e-05
-6.97536e-05
-6.67927e-05
-6.25183e-05
-5.80548e-05
-5.30141e-05
-4.75117e-05
-4.02275e-05
-3.413e-05
-2.90352e-05
-2.54738e-05
-2.31086e-05
-2.18626e-05
-2.16155e-05
-2.26293e-05
-1.80947e-05
-1.74035e-05
-1.74639e-05
-1.80906e-05
-1.93193e-05
-2.12211e-05
-2.40018e-05
-2.78388e-05
-3.31009e-05
-3.94099e-05
-4.68174e-05
-5.28633e-05
-5.84005e-05
-6.32532e-05
-6.78986e-05
-7.11464e-05
-7.33329e-05
-7.44097e-05
-7.45137e-05
-7.36445e-05
-7.16672e-05
-6.86261e-05
-6.41916e-05
-5.95258e-05
-5.41833e-05
-4.82967e-05
-4.10437e-05
-3.48579e-05
-2.97401e-05
-2.61142e-05
-2.36965e-05
-2.24175e-05
-2.21747e-05
-2.32538e-05
-1.8391e-05
-1.76705e-05
-1.77295e-05
-1.83723e-05
-1.96306e-05
-2.1571e-05
-2.43916e-05
-2.82724e-05
-3.35628e-05
-3.99491e-05
-4.74066e-05
-5.36641e-05
-5.93896e-05
-6.43692e-05
-6.91141e-05
-7.24162e-05
-7.464e-05
-7.57343e-05
-7.58431e-05
-7.4966e-05
-7.29602e-05
-6.98723e-05
-6.53446e-05
-6.0556e-05
-5.50292e-05
-4.89304e-05
-4.1632e-05
-3.53732e-05
-3.02342e-05
-2.65746e-05
-2.41333e-05
-2.28419e-05
-2.26085e-05
-2.37343e-05
-1.86039e-05
-1.78667e-05
-1.79253e-05
-1.85786e-05
-1.98562e-05
-2.18231e-05
-2.46743e-05
-2.85933e-05
-3.39234e-05
-4.038e-05
-4.79091e-05
-5.43005e-05
-6.01504e-05
-6.52253e-05
-7.00474e-05
-7.33991e-05
-7.5657e-05
-7.67693e-05
-7.68833e-05
-7.59981e-05
-7.39674e-05
-7.08375e-05
-6.62383e-05
-6.13582e-05
-5.57092e-05
-4.94763e-05
-4.2108e-05
-3.57808e-05
-3.06061e-05
-2.69146e-05
-2.44529e-05
-2.31514e-05
-2.29223e-05
-2.40745e-05
-1.87321e-05
-1.79905e-05
-1.80504e-05
-1.871e-05
-1.99991e-05
-2.19834e-05
-2.48595e-05
-2.88137e-05
-3.41919e-05
-4.07138e-05
-4.83216e-05
-5.48019e-05
-6.07346e-05
-6.58837e-05
-7.07677e-05
-7.41681e-05
-7.64601e-05
-7.75925e-05
-7.77123e-05
-7.68183e-05
-7.47632e-05
-7.15928e-05
-6.69371e-05
-6.19858e-05
-5.62547e-05
-4.99314e-05
-4.24833e-05
-3.609e-05
-3.08677e-05
-2.71431e-05
-2.46605e-05
-2.3348e-05
-2.31165e-05
-2.42761e-05
-1.87756e-05
-1.80418e-05
-1.8105e-05
-1.87667e-05
-2.00592e-05
-2.20515e-05
-2.49459e-05
-2.89314e-05
-3.43658e-05
-4.09503e-05
-4.86479e-05
-5.51818e-05
-6.11575e-05
-6.63605e-05
-7.12904e-05
-7.47377e-05
-7.70635e-05
-7.82183e-05
-7.83449e-05
-7.74418e-05
-7.53644e-05
-7.21566e-05
-6.74606e-05
-6.24581e-05
-5.66822e-05
-5.03004e-05
-4.2759e-05
-3.62994e-05
-3.10185e-05
-2.72603e-05
-2.47568e-05
-2.34326e-05
-2.31923e-05
-2.43404e-05
-1.87369e-05
-1.80233e-05
-1.8091e-05
-1.87491e-05
-2.00346e-05
-2.20215e-05
-2.49226e-05
-2.89304e-05
-3.44294e-05
-4.10738e-05
-4.88949e-05
-5.54374e-05
-6.13977e-05
-6.66257e-05
-7.15773e-05
-7.50666e-05
-7.74233e-05
-7.8602e-05
-7.87371e-05
-7.78268e-05
-7.57331e-05
-7.24954e-05
-6.77842e-05
-6.276e-05
-5.69953e-05
-5.05949e-05
-4.29223e-05
-3.63962e-05
-3.10451e-05
-2.72583e-05
-2.47393e-05
-2.34066e-05
-2.31526e-05
-2.42693e-05
-1.86192e-05
-1.79374e-05
-1.80072e-05
-1.86495e-05
-1.99061e-05
-2.18564e-05
-2.47268e-05
-2.87168e-05
-3.4268e-05
-4.09642e-05
-4.90116e-05
-5.54849e-05
-6.13235e-05
-6.64982e-05
-7.13978e-05
-7.48936e-05
-7.72588e-05
-7.8455e-05
-7.86014e-05
-7.76962e-05
-7.56136e-05
-7.23868e-05
-6.7737e-05
-6.27715e-05
-5.71198e-05
-5.07667e-05
-4.28561e-05
-3.62691e-05
-3.08583e-05
-2.70798e-05
-2.4577e-05
-2.32573e-05
-2.2995e-05
-2.40625e-05
-1.84315e-05
-1.77936e-05
-1.78646e-05
-1.84795e-05
-1.96854e-05
-2.15653e-05
-2.43602e-05
-2.82786e-05
-3.38594e-05
-4.05157e-05
-4.90555e-05
-5.53394e-05
-6.08096e-05
-6.5867e-05
-7.06436e-05
-7.41027e-05
-7.64432e-05
-7.76466e-05
-7.7809e-05
-7.6929e-05
-7.48998e-05
-7.17381e-05
-6.72271e-05
-6.23914e-05
-5.70921e-05
-5.08794e-05
-4.24609e-05
-3.59051e-05
-3.04556e-05
-2.67358e-05
-2.42883e-05
-2.30054e-05
-2.2738e-05
-2.37322e-05
-1.81836e-05
-1.75976e-05
-1.76599e-05
-1.82203e-05
-1.93221e-05
-2.10364e-05
-2.35942e-05
-2.72035e-05
-3.25279e-05
-3.87221e-05
-4.89891e-05
-5.47529e-05
-5.96312e-05
-6.43232e-05
-6.86926e-05
-7.19591e-05
-7.41757e-05
-7.53475e-05
-7.55328e-05
-7.47312e-05
-7.28683e-05
-6.99438e-05
-6.5865e-05
-6.14238e-05
-5.67009e-05
-5.08705e-05
-4.07301e-05
-3.4636e-05
-2.94354e-05
-2.60086e-05
-2.37727e-05
-2.26136e-05
-2.23781e-05
-2.32875e-05
-1.78974e-05
-1.73734e-05
-1.7431e-05
-1.79373e-05
-1.89322e-05
-2.04724e-05
-2.27621e-05
-2.60151e-05
-3.12725e-05
-3.77655e-05
-5.24378e-05
-5.32143e-05
-5.82067e-05
-6.31919e-05
-6.73856e-05
-7.05653e-05
-7.27149e-05
-7.38796e-05
-7.40964e-05
-7.33685e-05
-7.16356e-05
-6.88701e-05
-6.50081e-05
-6.03233e-05
-5.53831e-05
-5.42354e-05
-3.99199e-05
-3.35017e-05
-2.83468e-05
-2.52483e-05
-2.32422e-05
-2.22039e-05
-2.1986e-05
-2.27809e-05
-1.75885e-05
-1.71247e-05
-1.71627e-05
-1.75809e-05
-1.8391e-05
-1.95768e-05
-2.11372e-05
-2.28109e-05
-2.35543e-05
-1.61441e-05
-6.86965e-05
-5.97789e-05
-6.15257e-05
-6.4484e-05
-6.70265e-05
-6.88879e-05
-6.99926e-05
-7.02472e-05
-6.96604e-05
-6.82894e-05
-6.62559e-05
-6.36776e-05
-6.23529e-05
-7.13213e-05
-1.83681e-05
-2.59991e-05
-2.53012e-05
-2.37321e-05
-2.24041e-05
-2.16614e-05
-2.15357e-05
-2.22303e-05
-1.72882e-05
-1.6886e-05
-1.6927e-05
-1.73111e-05
-1.80601e-05
-1.91823e-05
-2.07482e-05
-2.27565e-05
-2.55715e-05
-3.01298e-05
-3.1061e-05
-4.9183e-05
-5.36648e-05
-5.83825e-05
-6.19347e-05
-6.50038e-05
-6.7095e-05
-6.8347e-05
-6.86474e-05
-6.80158e-05
-6.65143e-05
-6.40742e-05
-6.09134e-05
-5.66889e-05
-5.23125e-05
-3.51996e-05
-3.34632e-05
-2.86159e-05
-2.55426e-05
-2.34873e-05
-2.20613e-05
-2.13038e-05
-2.11451e-05
-2.17273e-05
-1.70091e-05
-1.6659e-05
-1.66991e-05
-1.70462e-05
-1.7724e-05
-1.87509e-05
-2.02014e-05
-2.21986e-05
-2.49292e-05
-2.88294e-05
-3.51757e-05
-4.54156e-05
-4.97005e-05
-5.37922e-05
-5.69915e-05
-5.98656e-05
-6.18303e-05
-6.30334e-05
-6.33555e-05
-6.28268e-05
-6.14941e-05
-5.93103e-05
-5.63833e-05
-5.26723e-05
-4.86165e-05
-3.9003e-05
-3.22515e-05
-2.81275e-05
-2.51243e-05
-2.30237e-05
-2.16525e-05
-2.09276e-05
-2.07643e-05
-2.12672e-05
-1.67715e-05
-1.64699e-05
-1.65206e-05
-1.68552e-05
-1.75032e-05
-1.84943e-05
-1.991e-05
-2.18905e-05
-2.46512e-05
-2.84959e-05
-3.36989e-05
-4.03755e-05
-4.46455e-05
-4.84302e-05
-5.15094e-05
-5.43592e-05
-5.62892e-05
-5.74629e-05
-5.77916e-05
-5.73143e-05
-5.60363e-05
-5.39244e-05
-5.10308e-05
-4.74899e-05
-4.3567e-05
-3.75296e-05
-3.20971e-05
-2.79797e-05
-2.49113e-05
-2.27833e-05
-2.14007e-05
-2.06595e-05
-2.04631e-05
-2.08893e-05
-1.6584e-05
-1.63263e-05
-1.63909e-05
-1.67184e-05
-1.7338e-05
-1.828e-05
-1.96157e-05
-2.14695e-05
-2.39979e-05
-2.7446e-05
-3.16852e-05
-3.67477e-05
-4.06137e-05
-4.40766e-05
-4.70175e-05
-4.96968e-05
-5.15138e-05
-5.26159e-05
-5.29398e-05
-5.25267e-05
-5.13627e-05
-4.9437e-05
-4.67314e-05
-4.35201e-05
-3.997e-05
-3.5451e-05
-3.10252e-05
-2.73157e-05
-2.44938e-05
-2.24895e-05
-2.11699e-05
-2.04442e-05
-2.02285e-05
-2.05903e-05
-1.64547e-05
-1.62433e-05
-1.63328e-05
-1.66674e-05
-1.7273e-05
-1.81766e-05
-1.9434e-05
-2.11375e-05
-2.33874e-05
-2.63201e-05
-2.982e-05
-3.38744e-05
-3.74399e-05
-4.0826e-05
-4.36887e-05
-4.61832e-05
-4.78963e-05
-4.89319e-05
-4.92491e-05
-4.88837e-05
-4.7818e-05
-4.60549e-05
-4.35521e-05
-4.05709e-05
-3.72032e-05
-3.34518e-05
-2.97638e-05
-2.66014e-05
-2.41078e-05
-2.22812e-05
-2.10431e-05
-2.03334e-05
-2.00899e-05
-2.03824e-05
-1.6385e-05
-1.62296e-05
-1.63578e-05
-1.67143e-05
-1.73216e-05
-1.82037e-05
-1.9404e-05
-2.09873e-05
-2.30139e-05
-2.55576e-05
-2.85312e-05
-3.19096e-05
-3.51556e-05
-3.83311e-05
-4.10203e-05
-4.32937e-05
-4.48831e-05
-4.58461e-05
-4.61529e-05
-4.5829e-05
-4.48603e-05
-4.32582e-05
-4.10063e-05
-3.82992e-05
-3.51969e-05
-3.19631e-05
-2.88293e-05
-2.61052e-05
-2.38979e-05
-2.22289e-05
-2.10577e-05
-2.03484e-05
-2.00595e-05
-2.02671e-05
-1.63637e-05
-1.62782e-05
-1.64475e-05
-1.68349e-05
-1.74594e-05
-1.8345e-05
-1.95284e-05
-2.10574e-05
-2.29714e-05
-2.53052e-05
-2.79966e-05
-3.09925e-05
-3.40021e-05
-3.69497e-05
-3.94993e-05
-4.16178e-05
-4.31293e-05
-4.40463e-05
-4.43451e-05
-4.404e-05