/*--------------------------------*- C++ -*----------------------------------*\
| =========                 |                                                 |
| \\      /  F ield         | OpenFOAM: The Open Source CFD Toolbox           |
|  \\    /   O peration     | Version:  2112                                  |
|   \\  /    A nd           | Website:  www.openfoam.com                      |
|    \\/     M anipulation  |                                                 |
\*---------------------------------------------------------------------------*/
FoamFile
{
    version     2.0;
    format      ascii;
    arch        "LSB;label=32;scalar=64";
    class       surfaceScalarField;
    location    "1";
    object      phi;
}
// * * * * * * * * * * * * * * * * * * * * * * * * * * * * * * * * * * * * * //

dimensions      [0 3 -1 0 0 0 0];

oriented        oriented;

internalField   nonuniform List<scalar> 
188215
(
1.22771e-09
2.93399e-09
-4.1617e-09
3.22711e-09
2.49975e-09
-4.49915e-09
5.36898e-09
2.23486e-09
-4.37673e-09
7.46806e-09
2.20978e-09
-4.30886e-09
9.48048e-09
2.40245e-09
-4.41488e-09
1.13944e-08
2.7549e-09
-4.66881e-09
1.3192e-08
3.24092e-09
-5.03848e-09
1.4816e-08
3.87627e-09
-5.50036e-09
1.61879e-08
4.66967e-09
-6.04155e-09
1.71221e-08
5.70158e-09
-6.63572e-09
1.74956e-08
6.89717e-09
-7.27071e-09
1.70173e-08
8.3851e-09
-7.90681e-09
1.57798e-08
9.7511e-09
-8.5136e-09
1.37985e-08
1.10305e-08
-9.04914e-09
1.12309e-08
1.20723e-08
-9.5048e-09
8.19486e-09
1.28961e-08
-9.86009e-09
4.85194e-09
1.34525e-08
-1.01096e-08
1.35689e-09
1.37409e-08
-1.02458e-08
-2.12648e-09
1.37501e-08
-1.02667e-08
-5.4347e-09
1.34804e-08
-1.01722e-08
-8.41349e-09
1.29433e-08
-9.96455e-09
-1.09019e-08
1.21401e-08
-9.65174e-09
-1.27843e-08
1.11217e-08
-9.23929e-09
-1.3905e-08
9.86917e-09
-8.74844e-09
-1.42543e-08
8.53767e-09
-8.18836e-09
-1.37411e-08
7.09007e-09
-7.6033e-09
-1.26647e-08
5.94971e-09
-7.02611e-09
-1.11431e-08
4.98151e-09
-6.50314e-09
-9.36008e-09
4.27466e-09
-6.05765e-09
-7.38932e-09
3.76985e-09
-5.74061e-09
-5.29303e-09
3.50966e-09
-5.60596e-09
-3.13495e-09
3.54908e-09
-5.70716e-09
-1.11392e-09
3.88465e-09
-5.90567e-09
4.43593e-09
-5.54985e-09
4.90375e-10
7.38274e-09
-4.93913e-09
2.8748e-09
7.63763e-09
-7.52231e-09
5.51783e-09
7.7748e-09
-8.18297e-09
7.96332e-09
8.20132e-09
-8.43704e-09
1.02138e-08
9.00886e-09
-8.8569e-09
1.23226e-08
1.01715e-08
-9.52545e-09
1.43104e-08
1.16838e-08
-1.04307e-08
1.61391e-08
1.36048e-08
-1.15571e-08
1.77288e-08
1.59768e-08
-1.28968e-08
1.88644e-08
1.90014e-08
-1.44354e-08
1.93812e-08
2.25172e-08
-1.61368e-08
1.88672e-08
2.68339e-08
-1.79348e-08
1.74794e-08
3.08069e-08
-1.96679e-08
1.52556e-08
3.44881e-08
-2.12339e-08
1.23904e-08
3.74985e-08
-2.25609e-08
9.01407e-09
3.98751e-08
-2.36026e-08
5.30401e-09
4.14898e-08
-2.43272e-08
1.4289e-09
4.23313e-08
-2.47153e-08
-2.43348e-09
4.23697e-08
-2.47573e-08
-6.10534e-09
4.16053e-08
-2.44531e-08
-9.41838e-09
4.00696e-08
-2.38133e-08
-1.21957e-08
3.7775e-08
-2.28575e-08
-1.43092e-08
3.48538e-08
-2.16186e-08
-1.55661e-08
3.12707e-08
-2.01446e-08
-1.5935e-08
2.74157e-08
-1.85091e-08
-1.52599e-08
2.32331e-08
-1.68181e-08
-1.39627e-08
1.98909e-08
-1.52384e-08
-1.21949e-08
1.70586e-08
-1.38449e-08
-1.01538e-08
1.49236e-08
-1.26901e-08
-7.87489e-09
1.3309e-08
-1.18181e-08
-5.33658e-09
1.22283e-08
-1.1257e-08
-2.55168e-09
1.16703e-08
-1.09061e-08
-1.19963e-10
1.14809e-08
-1.0028e-08
1.10377e-08
-6.72172e-09
1.9947e-10
1.21791e-08
-4.99581e-09
2.84126e-09
1.32199e-08
-8.22411e-09
5.91768e-09
1.38759e-08
-9.1775e-09
8.75622e-09
1.49146e-08
-9.55183e-09
1.13536e-08
1.64908e-08
-1.00793e-08
1.38044e-08
1.86192e-08
-1.08984e-08
1.61737e-08
2.13314e-08
-1.20169e-08
1.84538e-08
2.47552e-08
-1.34305e-08
2.05757e-08
2.89979e-08
-1.51431e-08
2.22361e-08
3.44915e-08
-1.71505e-08
2.3178e-08
4.09894e-08
-1.94141e-08
2.25772e-08
4.92684e-08
-2.18337e-08
2.08456e-08
5.67117e-08
-2.41732e-08
1.80814e-08
6.35291e-08
-2.62769e-08
1.45968e-08
6.90349e-08
-2.80518e-08
1.05311e-08
7.33757e-08
-2.94349e-08
6.09437e-09
7.63184e-08
-3.03918e-08
1.47254e-09
7.78535e-08
-3.09003e-08
-3.13584e-09
7.79263e-08
-3.09482e-08
-7.53198e-09
7.65371e-08
-3.05357e-08
-1.15297e-08
7.37426e-08
-2.96752e-08
-1.49185e-08
6.95537e-08
-2.83899e-08
-1.75602e-08
6.42103e-08
-2.67148e-08
-1.9143e-08
5.75685e-08
-2.4715e-08
-1.95766e-08
5.0335e-08
-2.24857e-08
-1.84471e-08
4.22914e-08
-2.01877e-08
-1.65976e-08
3.61043e-08
-1.80629e-08
-1.42563e-08
3.09403e-08
-1.6223e-08
-1.16939e-08
2.70866e-08
-1.47254e-08
-8.90749e-09
2.41293e-08
-1.36067e-08
-5.82441e-09
2.20129e-08
-1.28676e-08
-2.45401e-09
2.06329e-08
-1.2333e-08
3.50965e-10
1.97439e-08
-1.10679e-08
1.82675e-08
-6.87881e-09
2.32472e-10
1.68824e-08
-4.93576e-09
3.29223e-09
1.85245e-08
-8.36432e-09
6.90871e-09
1.96488e-08
-9.38941e-09
1.02903e-08
2.13109e-08
-9.77785e-09
1.34283e-08
2.36995e-08
-1.03468e-08
1.64596e-08
2.68501e-08
-1.12622e-08
1.95106e-08
3.08257e-08
-1.25454e-08
2.26389e-08
3.58376e-08
-1.42106e-08
2.58141e-08
4.21041e-08
-1.62815e-08
2.8591e-08
5.04922e-08
-1.87776e-08
3.04803e-08
6.07583e-08
-2.16582e-08
2.96573e-08
7.48971e-08
-2.48057e-08
2.71852e-08
8.70253e-08
-2.78415e-08
2.33485e-08
9.79137e-08
-3.05479e-08
1.8689e-08
1.06509e-07
-3.28144e-08
1.3336e-08
1.13283e-07
-3.4554e-08
7.54999e-09
1.17853e-07
-3.57486e-08
1.54436e-09
1.20236e-07
-3.63769e-08
-4.44714e-09
1.20344e-07
-3.64267e-08
-1.01901e-08
1.18178e-07
-3.58983e-08
-1.54699e-08
1.13826e-07
-3.48036e-08
-2.00232e-08
1.07272e-07
-3.31646e-08
-2.37202e-08
9.89067e-08
-3.09994e-08
-2.60151e-08
8.8261e-08
-2.83975e-08
-2.66339e-08
7.64248e-08
-2.54711e-08
-2.45065e-08
6.26092e-08
-2.24453e-08
-2.15025e-08
5.28051e-08
-1.97047e-08
-1.80555e-08
4.48761e-08
-1.73827e-08
-1.4565e-08
3.9137e-08
-1.55411e-08
-1.097e-08
3.47345e-08
-1.42002e-08
-7.1297e-09
3.15147e-08
-1.33421e-08
-3.04194e-09
2.92951e-08
-1.27499e-08
2.86847e-10
2.77809e-08
-1.13658e-08
2.54742e-08
-6.91987e-09
4.87339e-10
2.1343e-08
-4.94795e-09
4.18648e-09
2.34669e-08
-8.64151e-09
8.53482e-09
2.50321e-08
-9.73164e-09
1.26541e-08
2.73368e-08
-1.01452e-08
1.6549e-08
3.05999e-08
-1.07954e-08
2.04196e-08
3.48578e-08
-1.18783e-08
2.44941e-08
4.01874e-08
-1.34362e-08
2.89829e-08
4.68703e-08
-1.55214e-08
3.3988e-08
5.52912e-08
-1.81922e-08
3.8925e-08
6.7077e-08
-2.15217e-08
4.27979e-08
8.23421e-08
-2.54568e-08
4.14059e-08
1.06215e-07
-2.99261e-08
3.74549e-08
1.25172e-07
-3.41958e-08
3.17342e-08
1.41617e-07
-3.79829e-08
2.51619e-08
1.5422e-07
-4.11385e-08
1.77585e-08
1.64183e-07
-4.34966e-08
9.83982e-09
1.70875e-07
-4.51037e-08
1.65162e-09
1.74364e-07
-4.59398e-08
-6.52222e-09
1.74512e-07
-4.59937e-08
-1.43964e-08
1.71318e-07
-4.52652e-08
-2.17227e-08
1.64917e-07
-4.3765e-08
-2.81785e-08
1.55241e-07
-4.15134e-08
-3.37388e-08
1.42929e-07
-3.84624e-08
-3.74736e-08
1.26777e-07
-3.47811e-08
-3.86055e-08
1.08176e-07
-3.06191e-08
-3.44117e-08
8.46859e-08
-2.62705e-08
-2.92068e-08
7.00769e-08
-2.24767e-08
-2.38739e-08
5.88727e-08
-1.93295e-08
-1.89345e-08
5.1103e-08
-1.69054e-08
-1.4174e-08
4.51563e-08
-1.51823e-08
-9.29313e-09
4.07472e-08
-1.41134e-08
-4.22199e-09
3.76494e-08
-1.34254e-08
-8.09993e-11
3.55454e-08
-1.19056e-08
3.24826e-08
-7.08947e-09
9.19169e-10
2.54696e-08
-5.04582e-09
5.48975e-09
2.80271e-08
-9.13084e-09
1.08093e-08
3.00499e-08
-1.03374e-08
1.58984e-08
3.30637e-08
-1.0816e-08
2.07837e-08
3.7323e-08
-1.16084e-08
2.57511e-08
4.28456e-08
-1.29553e-08
3.11873e-08
4.96877e-08
-1.49365e-08
3.76336e-08
5.80976e-08
-1.76736e-08
4.55782e-08
6.86159e-08
-2.12694e-08
5.46143e-08
8.39261e-08
-2.58853e-08
6.27025e-08
1.05573e-07
-3.13187e-08
5.98881e-08
1.4695e-07
-3.79201e-08
5.30552e-08
1.76194e-07
-4.41888e-08
4.42067e-08
2.00267e-07
-4.98009e-08
3.47431e-08
2.18169e-07
-5.44858e-08
2.42946e-08
2.3245e-07
-5.78185e-08
1.32173e-08
2.42026e-07
-6.00732e-08
1.79761e-09
2.47019e-07
-6.12354e-08
-9.60868e-09
2.47216e-07
-6.12974e-08
-2.06437e-08
2.42612e-07
-6.02589e-08
-3.10172e-08
2.33416e-07
-5.81255e-08
-4.03606e-08
2.19496e-07
-5.4912e-08
-4.90322e-08
2.01941e-07
-5.034e-08
-5.56032e-08
1.78186e-07
-4.4838e-08
-5.80758e-08
1.49324e-07
-3.86755e-08
-4.95247e-08
1.08325e-07
-3.219e-08
-4.01938e-08
8.76456e-08
-2.68996e-08
-3.18732e-08
7.30291e-08
-2.24769e-08
-2.48773e-08
6.3258e-08
-1.91509e-08
-1.85789e-08
5.56815e-08
-1.68235e-08
-1.23349e-08
4.9913e-08
-1.54098e-08
-5.93517e-09
4.57953e-08
-1.45457e-08
-5.71301e-10
4.30049e-08
-1.28233e-08
3.92759e-08
-7.36454e-09
1.5174e-09
2.91522e-08
-5.19996e-09
7.21697e-09
3.2125e-08
-9.79739e-09
1.37912e-08
3.46536e-08
-1.11778e-08
2.01266e-08
3.84901e-08
-1.17618e-08
2.62637e-08
4.39419e-08
-1.27561e-08
3.25798e-08
5.09971e-08
-1.44676e-08
3.96685e-08
5.96333e-08
-1.70342e-08
4.8688e-08
6.97699e-08
-2.06918e-08
6.10523e-08
8.18381e-08
-2.55865e-08
7.75663e-08
9.93293e-08
-3.19171e-08
9.49666e-08
1.2722e-07
-3.90472e-08
8.8402e-08
2.02141e-07
-4.86271e-08
7.58505e-08
2.46361e-07
-5.76154e-08
6.1971e-08
2.80158e-07
-6.60117e-08
4.83481e-08
3.04931e-07
-7.3139e-08
3.35826e-08
3.24963e-07
-7.77484e-08
1.80137e-08
3.38466e-07
-8.08709e-08
1.99041e-09
3.45513e-07
-8.24704e-08
-1.40227e-08
3.45775e-07
-8.25458e-08
-2.95585e-08
3.39244e-07
-8.10966e-08
-4.4264e-08
3.26241e-07
-7.81195e-08
-5.77817e-08
3.06665e-07
-7.36509e-08
-7.14875e-08
2.82297e-07
-6.66501e-08
-8.37359e-08
2.48805e-07
-5.83711e-08
-8.98439e-08
2.04919e-07
-4.94871e-08
-7.17104e-08
1.30201e-07
-4.001e-08
-5.49349e-08
1.03895e-07
-3.30251e-08
-4.21809e-08
8.71713e-08
-2.68961e-08
-3.25025e-08
7.58774e-08
-2.2298e-08
-2.43254e-08
6.66107e-08
-1.91063e-08
-1.63759e-08
5.91632e-08
-1.71997e-08
-8.26322e-09
5.37514e-08
-1.60688e-08
-1.33191e-09
5.01111e-08
-1.40375e-08
4.56877e-08
-7.74368e-09
2.30531e-09
3.22285e-08
-5.38168e-09
9.44165e-09
3.55945e-08
-1.06059e-08
1.76242e-08
3.86834e-08
-1.22123e-08
2.55646e-08
4.3485e-08
-1.29354e-08
3.3277e-08
5.04175e-08
-1.41879e-08
4.11431e-08
5.94972e-08
-1.63662e-08
4.98385e-08
7.06282e-08
-1.96903e-08
6.12943e-08
8.28876e-08
-2.45735e-08
7.86106e-08
9.5622e-08
-3.11002e-08
1.08003e-07
1.0963e-07
-3.96929e-08
1.46148e-07
1.35336e-07
-4.62611e-08
1.30645e-07
2.75644e-07
-5.79996e-08
1.08098e-07
3.3937e-07
-7.04634e-08
8.7003e-08
3.8426e-07
-8.30071e-08
6.77392e-08
4.17981e-07
-9.37865e-08
4.69288e-08
4.45459e-07
-9.96855e-08
2.49117e-08
4.64183e-07
-1.037e-07
2.24588e-09
4.73934e-07
-1.05756e-07
-2.04158e-08
4.74285e-07
-1.05849e-07
-4.24191e-08
4.65225e-07
-1.03978e-07
-6.32073e-08
4.4717e-07
-1.0014e-07
-8.24208e-08
4.2029e-07
-9.44119e-08
-1.03407e-07
3.87061e-07
-8.37779e-08
-1.25671e-07
3.42433e-07
-7.13637e-08
-1.4056e-07
2.78827e-07
-5.90195e-08
-1.01123e-07
1.38104e-07
-4.734e-08
-7.16851e-08
1.15363e-07
-4.09055e-08
-5.40099e-08
1.02022e-07
-3.25263e-08
-4.1762e-08
8.99628e-08
-2.63333e-08
-3.16821e-08
7.85143e-08
-2.19836e-08
-2.17083e-08
6.86193e-08
-1.94299e-08
-1.14017e-08
6.13895e-08
-1.79447e-08
-2.41453e-09
5.66247e-08
-1.55008e-08
5.14464e-08
-8.17329e-09
3.29392e-09
3.45107e-08
-5.57609e-09
1.22046e-08
3.82215e-08
-1.15377e-08
2.24054e-08
4.19034e-08
-1.34208e-08
3.24058e-08
4.77987e-08
-1.43141e-08
4.215e-08
5.65488e-08
-1.58756e-08
5.18548e-08
6.83944e-08
-1.8602e-08
6.18966e-08
8.33965e-08
-2.28101e-08
7.45834e-08
9.92958e-08
-2.90949e-08
9.52007e-08
1.12795e-07
-3.77901e-08
1.41316e-07
1.11222e-07
-4.77077e-08
2.24265e-07
1.09367e-07
-5.698e-08
1.87361e-07
3.73458e-07
-6.09102e-08
1.49136e-07
4.52088e-07
-7.44928e-08
1.19616e-07
5.05658e-07
-9.1878e-08
9.3503e-08
5.5097e-07
-1.06876e-07
6.49129e-08
5.87367e-07
-1.13318e-07
3.42654e-08
6.12849e-07
-1.18019e-07
2.59036e-09
6.26019e-07
-1.20409e-07
-2.90899e-08
6.26482e-07
-1.20516e-07
-5.97554e-08
6.1423e-07
-1.18339e-07
-8.83912e-08
5.89643e-07
-1.13838e-07
-1.14575e-07
5.54065e-07
-1.07591e-07
-1.44175e-07
5.0941e-07
-9.27491e-08
-1.82304e-07
4.56075e-07
-7.55131e-08
-2.18446e-07
3.77033e-07
-6.20644e-08
-1.33108e-07
1.11136e-07
-5.83703e-08
-8.75976e-08
1.1891e-07
-4.90567e-08
-6.66712e-08
1.20428e-07
-3.9332e-08
-5.30029e-08
1.07322e-07
-3.10274e-08
-4.11653e-08
9.20345e-08
-2.53579e-08
-2.872e-08
7.82292e-08
-2.20552e-08
-1.55629e-08
6.83902e-08
-2.01578e-08
-3.88719e-09
6.21509e-08
-1.72019e-08
5.61858e-08
-8.62659e-09
4.54607e-09
3.57275e-08
-5.76285e-09
1.56628e-08
3.96792e-08
-1.25745e-08
2.84814e-08
4.38657e-08
-1.47809e-08
4.13636e-08
5.07884e-08
-1.58719e-08
5.42224e-08
6.1476e-08
-1.77859e-08
6.68268e-08
7.68994e-08
-2.11095e-08
7.81521e-08
9.82379e-08
-2.61667e-08
8.6923e-08
1.24588e-07
-3.40633e-08
9.36099e-08
1.49871e-07
-4.37636e-08
1.30997e-07
1.31791e-07
-5.79559e-08
3.22065e-07
-8.17013e-08
2.49715e-07
4.91798e-07
-4.59897e-08
2.00961e-07
5.55662e-07
-5.4819e-08
1.66037e-07
6.12823e-07
-7.22413e-08
1.31774e-07
6.72991e-07
-8.77576e-08
9.16934e-08
7.19287e-07
-9.18393e-08
4.80733e-08
7.51928e-07
-9.54587e-08
3.05476e-09
7.68406e-07
-9.73689e-08
-4.19755e-08
7.68976e-07
-9.74643e-08
-8.564e-08
7.53639e-07
-9.5745e-08
-1.25842e-07
7.2214e-07
-9.22948e-08
-1.60347e-07
6.76967e-07
-8.83964e-08
-1.95774e-07
6.17847e-07
-7.301e-08
-2.45301e-07
5.6133e-07
-5.57278e-08
-3.1747e-07
4.96428e-07
-4.72259e-08
-1.22501e-07
-8.38318e-08
-8.52086e-08
1.40732e-07
-5.9115e-08
-7.86839e-08
1.59214e-07
-4.53103e-08
-6.86171e-08
1.33419e-07
-3.61643e-08
-5.492e-08
1.07337e-07
-2.89995e-08
-3.87757e-08
8.71045e-08
-2.50196e-08
-2.14646e-08
7.37769e-08
-2.26977e-08
-6.04689e-09
6.58687e-08
-1.91356e-08
5.91813e-08
-9.04233e-09
5.95885e-09
3.57221e-08
-5.95343e-09
1.95822e-08
3.9758e-08
-1.37022e-08
3.5476e-08
4.42557e-08
-1.62838e-08
5.19905e-08
5.18929e-08
-1.76191e-08
6.92991e-08
6.41239e-08
-1.99565e-08
8.71322e-08
8.29303e-08
-2.38639e-08
1.02893e-07
1.12012e-07
-2.95354e-08
1.07946e-07
1.5609e-07
-3.6554e-08
8.6669e-08
2.21037e-07
-4.98889e-08
2.96736e-07
-7.8276e-08
1.60969e-07
2.79606e-07
5.12227e-08
2.17276e-07
4.77473e-07
2.18811e-08
2.14088e-07
5.98425e-07
1.75859e-08
1.76578e-07
6.89701e-07
2.08008e-08
1.23988e-07
7.52021e-07
1.98555e-08
6.50847e-08
7.92192e-07
1.86391e-08
3.67556e-09
8.11674e-07
1.81409e-08
-5.77507e-08
8.12263e-07
1.81392e-08
-1.1672e-07
7.93976e-07
1.86329e-08
-1.69492e-07
7.55057e-07
1.98545e-08
-2.07434e-07
6.94111e-07
2.07985e-08
-2.11679e-07
6.04461e-07
1.76303e-08
-1.57532e-07
4.85469e-07
2.17136e-08
2.88564e-07
5.03328e-08
-8.37722e-08
3.01878e-07
-7.7374e-08
-1.01746e-07
2.28334e-07
-5.11465e-08
-9.36037e-08
1.6407e-07
-3.87925e-08
-7.43279e-08
1.20744e-07
-3.26827e-08
-5.1872e-08
9.29575e-08
-2.83089e-08
-2.88343e-08
7.63624e-08
-2.56232e-08
-8.70182e-09
6.70773e-08
-2.13411e-08
5.99631e-08
-9.48367e-09
7.61774e-09
3.42358e-08
-6.13144e-09
2.41724e-08
3.80774e-08
-1.48741e-08
4.39884e-08
4.22903e-08
-1.78506e-08
6.59862e-08
4.93535e-08
-1.94583e-08
9.19997e-08
6.04132e-08
-2.23028e-08
1.2519e-07
7.67873e-08
-2.70471e-08
1.70584e-07
1.00475e-07
-3.38563e-08
2.35301e-07
1.32741e-07
-4.13686e-08
3.31957e-07
1.71386e-07
-4.70051e-08
4.68309e-07
2.01284e-07
-4.08997e-08
3.61885e-07
8.06249e-08
2.57987e-08
3.90581e-07
2.13143e-07
3.77677e-08
3.83767e-07
3.64826e-07
1.19462e-07
3.32432e-07
4.69544e-07
1.80217e-07
2.56303e-07
5.49699e-07
2.1613e-07
1.73095e-07
6.04461e-07
2.30768e-07
8.87156e-08
6.39466e-07
2.37105e-07
4.32967e-09
6.5646e-07
2.396e-07
-8.00433e-08
6.56967e-07
2.39669e-07
-1.64383e-07
6.40999e-07
2.37316e-07
-2.47526e-07
6.07058e-07
2.31143e-07
-3.23546e-07
5.53423e-07
2.16708e-07
-3.74747e-07
4.74485e-07
1.81178e-07
-3.81003e-07
3.70862e-07
1.20863e-07
-3.52427e-07
2.1987e-07
4.01178e-08
-4.63415e-07
8.29383e-08
2.80494e-08
-3.2673e-07
2.05826e-07
-4.06323e-08
-2.27964e-07
1.77681e-07
-4.81129e-08
-1.6039e-07
1.39999e-07
-4.35036e-08
-1.11084e-07
1.0868e-07
-3.72415e-08
-7.24236e-08
8.63679e-08
-3.20705e-08
-3.93964e-08
7.21909e-08
-2.88558e-08
-1.25238e-08
6.39782e-08
-2.37735e-08
5.73411e-08
-9.9018e-09
9.06212e-09
3.14877e-08
-6.31401e-09
2.81812e-08
3.49562e-08
-1.59978e-08
5.12144e-08
3.8627e-08
-1.937e-08
7.71884e-08
4.46483e-08
-2.12687e-08
1.08467e-07
5.3775e-08
-2.46406e-08
1.48927e-07
6.66214e-08
-3.02938e-08
2.04118e-07
8.37401e-08
-3.84561e-08
2.8038e-07
1.04783e-07
-4.83039e-08
3.82558e-07
1.25939e-07
-5.67316e-08
5.00408e-07
1.40191e-07
-5.67573e-08
5.10553e-07
1.04567e-07
-3.40881e-08
5.34459e-07
1.7877e-07
1.04672e-08
4.94309e-07
2.70464e-07
1.34511e-07
4.1249e-07
3.41869e-07
2.09493e-07
3.12575e-07
3.99348e-07
2.50267e-07
2.08902e-07
4.39523e-07
2.68611e-07
1.06225e-07
4.65749e-07
2.76393e-07
4.83808e-09
4.78609e-07
2.79239e-07
-9.65272e-08
4.79031e-07
2.79301e-07
-1.99134e-07
4.6702e-07
2.76586e-07
-3.02686e-07
4.4165e-07
2.6896e-07
-4.02425e-07
4.02336e-07
2.50826e-07
-4.84109e-07
3.45708e-07
2.1046e-07
-5.24216e-07
2.7498e-07
1.35989e-07
-5.01025e-07
1.83704e-07
1.29748e-08
-4.93494e-07
1.07916e-07
-3.25082e-08
-3.75977e-07
1.44808e-07
-5.65e-08
-2.72156e-07
1.31591e-07
-5.77308e-08
-1.93006e-07
1.11324e-07
-5.04748e-08
-1.33479e-07
9.12422e-08
-4.2089e-08
-8.67503e-08
7.54753e-08
-3.58363e-08
-4.72773e-08
6.46795e-08
-3.19615e-08
-1.5355e-08
5.81123e-08
-2.60565e-08
5.23336e-08
-1.03475e-08
1.03438e-08
2.7623e-08
-6.47921e-09
3.17159e-08
3.05857e-08
-1.70016e-08
5.75043e-08
3.35539e-08
-2.07153e-08
8.66946e-08
3.8306e-08
-2.28481e-08
1.21814e-07
4.52971e-08
-2.66414e-08
1.66739e-07
5.4737e-08
-3.30403e-08
2.26292e-07
6.65927e-08
-4.24059e-08
3.05157e-07
8.04166e-08
-5.4499e-08
4.04187e-07
9.35133e-08
-6.66041e-08
5.12948e-07
1.04564e-07
-7.31337e-08
5.74259e-07
1.00988e-07
-5.77314e-08
6.15409e-07
1.43394e-07
-5.77382e-09
5.6636e-07
1.97046e-07
1.22467e-07
4.69913e-07
2.43009e-07
1.95307e-07
3.53781e-07
2.81627e-07
2.33853e-07
2.35429e-07
3.09338e-07
2.48537e-07
1.19356e-07
3.27878e-07
2.53945e-07
5.2628e-09
3.37104e-07
2.55599e-07
-1.08805e-07
3.37463e-07
2.55637e-07
-2.24798e-07
3.2895e-07
2.54063e-07
-3.43022e-07
3.11113e-07
2.48761e-07
-4.58997e-07
2.84073e-07
2.34237e-07
-5.55428e-07
2.46083e-07
1.96057e-07
-6.04752e-07
2.00594e-07
1.23711e-07
-5.65122e-07
1.47242e-07
-3.16812e-09
-5.05358e-07
1.04507e-07
-5.63563e-08
-3.96658e-07
1.08856e-07
-7.2747e-08
-2.96052e-07
9.85114e-08
-6.75272e-08
-2.14193e-07
8.61771e-08
-5.6712e-08
-1.49935e-07
7.32383e-08
-4.62542e-08
-9.80536e-08
6.26078e-08
-3.9014e-08
-5.37341e-08
5.49533e-08
-3.45933e-08
-1.77149e-08
5.01025e-08
-2.80093e-08
4.53479e-08
-1.07292e-08
1.13267e-08
2.29384e-08
-6.64212e-09
3.44488e-08
2.5325e-08
-1.78614e-08
6.228e-08
2.75821e-08
-2.18595e-08
9.36507e-08
3.11183e-08
-2.41829e-08
1.31054e-07
3.62061e-08
-2.83121e-08
1.78202e-07
4.28814e-08
-3.52928e-08
2.39396e-07
5.09683e-08
-4.55691e-08
3.18774e-07
6.02058e-08
-5.9167e-08
4.16544e-07
6.91721e-08
-7.3429e-08
5.25248e-07
7.86394e-08
-8.27796e-08
6.10287e-07
8.46893e-08
-6.87395e-08
6.62923e-07
1.10618e-07
-1.98606e-08
6.10227e-07
1.43236e-07
1.06505e-07
5.06286e-07
1.7267e-07
1.74281e-07
3.80957e-07
1.98155e-07
2.088e-07
2.53476e-07
2.1702e-07
2.19799e-07
1.28463e-07
2.29879e-07
2.23011e-07
5.6159e-09
2.36388e-07
2.23563e-07
-1.17211e-07
2.3671e-07
2.23579e-07
-2.4216e-07
2.30838e-07
2.23062e-07
-3.69546e-07
2.18588e-07
2.19911e-07
-4.94778e-07
2.00282e-07
2.09023e-07
-5.98815e-07
1.75292e-07
1.74828e-07
-6.51996e-07
1.46233e-07
1.07541e-07
-6.01045e-07
1.13916e-07
-1.76254e-08
-5.17106e-07
8.80193e-08
-6.74506e-08
-4.08298e-07
8.24734e-08
-8.24257e-08
-3.08903e-07
7.35101e-08
-7.4394e-08
-2.26389e-07
6.51462e-08
-6.14832e-08
-1.60166e-07
5.66431e-08
-4.96272e-08
-1.055e-07
4.95686e-08
-4.16267e-08
-5.81104e-08
4.43299e-08
-3.67666e-08
-1.92751e-08
4.09035e-08
-2.96362e-08
3.71919e-08
-1.11191e-08
1.20645e-08
1.76619e-08
-6.78796e-09
3.65076e-08
1.94358e-08
-1.85539e-08
6.58469e-08
2.10119e-08
-2.27691e-08
9.87564e-08
2.3439e-08
-2.52301e-08
1.37673e-07
2.6889e-08
-2.95995e-08
1.86188e-07
3.13571e-08
-3.69907e-08
2.48338e-07
3.67148e-08
-4.7897e-08
3.28127e-07
4.2885e-08
-6.24674e-08
4.26088e-07
4.9259e-08
-7.80487e-08
5.36998e-07
5.67709e-08
-8.90416e-08
6.33339e-07
6.41535e-08
-7.58046e-08
6.92256e-07
8.04808e-08
-2.87792e-08
6.38573e-07
1.00614e-07
9.63047e-08
5.30666e-07
1.1934e-07
1.61237e-07
3.99607e-07
1.35816e-07
1.93399e-07
2.66083e-07
1.48306e-07
2.02238e-07
1.34922e-07
1.56936e-07
2.04105e-07
5.93479e-09
1.61388e-07
2.03987e-07
-1.23041e-07
1.61695e-07
2.03992e-07
-2.54167e-07
1.57843e-07
2.04121e-07
-3.87643e-07
1.49775e-07
2.02289e-07
-5.18676e-07
1.37782e-07
1.93534e-07
-6.26775e-07
1.2172e-07
1.61671e-07
-6.81051e-07
1.03299e-07
9.72104e-08
-6.23895e-07
8.33962e-08
-2.66361e-08
-5.28445e-07
6.71766e-08
-7.46067e-08
-4.17328e-07
6.01049e-08
-8.87487e-08
-3.17652e-07
5.2923e-08
-7.90894e-08
-2.34578e-07
4.69698e-08
-6.48969e-08
-1.67129e-07
4.13336e-08
-5.21394e-08
-1.10663e-07
3.67161e-08
-4.36143e-08
-6.11728e-08
3.32845e-08
-3.84445e-08
-2.03555e-08
3.09997e-08
-3.09135e-08
2.82966e-08
-1.14603e-08
1.25585e-08
1.20206e-08
-6.91729e-09
3.7906e-08
1.31651e-08
-1.90767e-08
6.8261e-08
1.41022e-08
-2.34454e-08
1.02175e-07
1.55244e-08
-2.59998e-08
1.4205e-07
1.75435e-08
-3.05291e-08
1.91428e-07
2.01663e-08
-3.81872e-08
2.5428e-07
2.33526e-08
-4.949e-08
3.34668e-07
2.71282e-08
-6.46307e-08
4.33541e-07
3.13266e-08
-8.09405e-08
5.46542e-07
3.65329e-08
-9.27635e-08
6.4837e-07
4.23974e-08
-8.00716e-08
7.10698e-07
5.20774e-08
-3.39248e-08
6.56574e-07
6.36362e-08
9.11018e-08
5.46382e-07
7.45131e-08
1.55019e-07
4.11851e-07
8.41154e-08
1.86231e-07
2.74496e-07
9.15414e-08
1.94119e-07
1.3931e-07
9.67352e-08
1.95386e-07
6.23609e-09
9.94973e-08
1.94964e-07
-1.2684e-07
9.98064e-08
1.94964e-07
-2.6203e-07
9.76461e-08
1.95387e-07
-3.994e-07
9.30019e-08
1.94143e-07
-5.33988e-07
8.60441e-08
1.86326e-07
-6.44466e-07
7.67999e-08
1.55399e-07
-6.99266e-07
6.61609e-08
9.19383e-08
-6.38741e-07
5.47345e-08
-3.1864e-08
-5.37712e-07
4.51074e-08
-7.89592e-08
-4.24435e-07
3.93793e-08
-9.25519e-08
-3.23767e-07
3.43282e-08
-8.2073e-08
-2.39973e-07
3.03502e-08
-6.71746e-08
-1.71621e-07
2.68737e-08
-5.38916e-08
-1.13983e-07
2.41176e-08
-4.50396e-08
-6.31322e-08
2.21036e-08
-3.967e-08
-2.10227e-08
2.07554e-08
-3.18653e-08
1.90303e-08
-1.17563e-08
1.28414e-08
6.20214e-09
-7.02294e-09
3.87224e-08
6.71004e-09
-1.94259e-08
6.96781e-08
7.03269e-09
-2.38862e-08
1.0419e-07
7.50663e-09
-2.64937e-08
1.44648e-07
8.19869e-09
-3.11134e-08
1.94591e-07
9.14409e-09
-3.89212e-08
2.57994e-07
1.03936e-08
-5.04436e-08
3.38981e-07
1.20297e-08
-6.58888e-08
4.3873e-07
1.41528e-08
-8.25745e-08
5.53147e-07
1.6916e-08
-9.48007e-08
6.57536e-07
2.03676e-08
-8.2359e-08
7.21487e-07
2.45706e-08
-3.64446e-08
6.67124e-07
2.90695e-08
8.89303e-08
5.55653e-07
3.32808e-08
1.52703e-07
4.19164e-07
3.69268e-08
1.83678e-07
2.7959e-07
3.98537e-08
1.91262e-07
1.42038e-07
4.19632e-08
1.92323e-07
6.53879e-09
4.32032e-08
1.91794e-07
-1.28979e-07
4.35335e-08
1.91791e-07
-2.66585e-07
4.2934e-08
1.92318e-07
-4.06255e-07
4.13974e-08
1.91275e-07
-5.42907e-07
3.89406e-08
1.83755e-07
-6.54777e-07
3.56167e-08
1.53054e-07
-7.09915e-07
3.15768e-08
8.97223e-08
-6.47814e-07
2.70894e-08
-3.44556e-08
-5.44192e-07
2.28156e-08
-8.13307e-08
-4.29458e-07
1.93221e-08
-9.46771e-08
-3.27857e-07
1.65285e-08
-8.38014e-08
-2.43379e-07
1.44115e-08
-6.85387e-08
-1.74349e-07
1.28187e-08
-5.49757e-08
-1.15955e-07
1.16679e-08
-4.59439e-08
-6.42773e-08
1.08892e-08
-4.04633e-08
-2.14018e-08
1.03773e-08
-3.24974e-08
9.61185e-09
-1.19834e-08
1.29231e-08
3.83381e-10
-7.10432e-09
3.89828e-08
2.53424e-10
-1.96031e-08
7.01495e-08
-3.82271e-11
-2.40957e-08
1.04888e-07
-5.1204e-10
-2.672e-08
1.45603e-07
-1.14816e-09
-3.13683e-08
1.95856e-07
-1.88541e-09
-3.92232e-08
2.59648e-07
-2.58395e-09
-5.08143e-08
3.41131e-07
-3.10172e-09
-6.63519e-08
4.41494e-07
-3.06106e-09
-8.31494e-08
5.56595e-07
-2.69355e-09
-9.54912e-08
6.61611e-07
-1.53503e-09
-8.31134e-08
7.25837e-07
-2.48196e-09
-3.71738e-08
6.7126e-07
-4.86794e-09
8.85152e-08
5.59254e-07
-7.18459e-09
1.52472e-07
4.22057e-07
-9.40755e-09
1.83531e-07
2.81678e-07
-1.09083e-08
1.91141e-07
1.43262e-07
-1.18292e-08
1.92208e-07
6.86084e-09
-1.20717e-08
1.91676e-07
-1.29581e-07
-1.16965e-08
1.91672e-07
-2.68116e-07
-1.07274e-08
1.92196e-07
-4.08695e-07
-9.16572e-09
1.91142e-07
-5.46191e-07
-7.15219e-09
1.83589e-07
-6.58746e-07
-4.61882e-09
1.5279e-07
-7.14234e-07
-2.19142e-09
8.92566e-08
-6.5193e-07
5.531e-11
-3.52699e-08
-5.47682e-07
7.50612e-10
-8.21831e-08
-4.32245e-07
-6.45028e-10
-9.54697e-08
-3.29998e-07
-1.24088e-09
-8.44774e-08
-2.44985e-07
-1.49886e-09
-6.91025e-08
-1.75511e-07
-1.20402e-09
-5.54515e-08
-1.16732e-07
-7.48644e-10
-4.63625e-08
-6.47013e-08
-2.94757e-10
-4.08468e-08
-2.15289e-08
2.69959e-11
-3.28221e-08
2.23528e-10
-1.21406e-08
1.28059e-08
-5.26236e-09
-7.16017e-09
3.86899e-08
-6.02163e-09
-1.96089e-08
6.96759e-08
-6.94856e-09
-2.40757e-08
1.04269e-07
-8.42367e-09
-2.66818e-08
1.44911e-07
-1.04915e-08
-3.12983e-08
1.95213e-07
-1.3087e-08
-3.91004e-08
2.59233e-07
-1.59902e-08
-5.06134e-08
3.41124e-07
-1.89546e-08
-6.60385e-08
4.4189e-07
-2.11334e-08
-8.26936e-08
5.57029e-07
-2.2955e-08
-9.4878e-08
6.60836e-07
-2.29397e-08
-8.24021e-08
7.23937e-07
-2.93546e-08
-3.62285e-08
6.69114e-07
-3.97491e-08
8.97042e-08
5.57275e-07
-4.9483e-08
1.54137e-07
4.206e-07
-5.83105e-08
1.85579e-07
2.80812e-07
-6.4648e-08
1.93527e-07
1.43021e-07
-6.88317e-08
1.94794e-07
7.22542e-09
-7.06367e-08
1.9436e-07
-1.28637e-07
-7.01844e-08
1.9435e-07
-2.6663e-07
-6.75005e-08
1.94766e-07
-4.06751e-07
-6.25435e-08
1.93499e-07
-5.4391e-07
-5.55854e-08
1.85593e-07
-6.56502e-07
-4.64177e-08
1.54391e-07
-7.12439e-07
-3.66126e-08
9.03575e-08
-6.51372e-07
-2.65595e-08
-3.44516e-08
-5.48345e-07
-2.06748e-08
-8.16021e-08
-4.32864e-07
-2.11371e-08
-9.4989e-08
-3.30209e-07
-1.97535e-08
-8.41419e-08
-2.44793e-07
-1.80213e-08
-6.88939e-08
-1.7511e-07
-1.55501e-08
-5.5337e-08
-1.16317e-07
-1.32343e-08
-4.63076e-08
-6.44075e-08
-1.13749e-08
-4.08289e-08
-2.14082e-08
-1.01278e-08
-3.28445e-08
-8.95884e-09
-1.22259e-08
1.24772e-08
-1.05429e-08
-7.19672e-09
3.78168e-08
-1.19141e-08
-1.94471e-08
6.82079e-08
-1.35124e-08
-2.38273e-08
1.02244e-07
-1.60824e-08
-2.63771e-08
1.42426e-07
-1.97768e-08
-3.08966e-08
1.92461e-07
-2.45862e-08
-3.85364e-08
2.56544e-07
-3.02653e-08
-4.98075e-08
3.38872e-07
-3.64065e-08
-6.48766e-08
4.40138e-07
-4.13302e-08
-8.10689e-08
5.54954e-07
-4.50546e-08
-9.27159e-08
6.54988e-07
-4.3075e-08
-7.98987e-08
7.14971e-07
-5.63344e-08
-3.30035e-08
6.59919e-07
-7.81164e-08
9.34189e-08
5.49143e-07
-9.77689e-08
1.59063e-07
4.14437e-07
-1.15105e-07
1.915e-07
2.76803e-07
-1.27376e-07
2.00362e-07
1.41245e-07
-1.35448e-07
2.02175e-07
7.66375e-09
-1.3906e-07
2.02004e-07
-1.26016e-07
-1.38485e-07
2.0198e-07
-2.61876e-07
-1.33744e-07
2.02103e-07
-4.00011e-07
-1.24666e-07
2.00258e-07
-5.35448e-07
-1.11556e-07
1.91407e-07
-6.47267e-07
-9.37729e-08
1.59174e-07
-7.03748e-07
-7.40356e-08
9.39036e-08
-6.45974e-07
-5.29007e-08
-3.14331e-08
-5.46721e-07
-4.06366e-08
-7.92902e-08
-4.31549e-07
-4.32935e-08
-9.30161e-08
-3.28408e-07
-4.02181e-08
-8.26768e-08
-2.42599e-07
-3.59746e-08
-6.78553e-08
-1.72944e-07
-3.05974e-08
-5.46079e-08
-1.14563e-07
-2.58476e-08
-4.57675e-08
-6.33092e-08
-2.22241e-08
-4.04046e-08
-2.10006e-08
-1.98695e-08
-3.2567e-08
-1.77036e-08
-1.22558e-08
1.19082e-08
-1.52301e-08
-7.22097e-09
3.62916e-08
-1.71738e-08
-1.91236e-08
6.5597e-08
-1.9461e-08
-2.33569e-08
9.85347e-08
-2.32096e-08
-2.58105e-08
1.3768e-07
-2.8762e-08
-3.01601e-08
1.86906e-07
-3.63061e-08
-3.75065e-08
2.5075e-07
-4.57852e-08
-4.83235e-08
3.33719e-07
-5.67025e-08
-6.2673e-08
4.36426e-07
-6.61676e-08
-7.78696e-08
5.51464e-07
-7.18599e-08
-8.82331e-08
6.42898e-07
-5.96162e-08
-7.48923e-08
6.96278e-07
-8.30962e-08
-2.66181e-08
6.41072e-07
-1.24036e-07
1.01126e-07
5.32822e-07
-1.5903e-07
1.6951e-07
4.02254e-07
-1.88675e-07
2.04138e-07
2.68909e-07
-2.09007e-07
2.14976e-07
1.37624e-07
-2.22141e-07
2.17978e-07
8.22076e-09
-2.2803e-07
2.18373e-07
-1.21316e-07
-2.27265e-07
2.18317e-07
-2.53016e-07
-2.19852e-07
2.17808e-07
-3.87066e-07
-2.05322e-07
2.14707e-07
-5.18699e-07
-1.83737e-07
2.03814e-07
-6.2841e-07
-1.53395e-07
1.69332e-07
-6.85572e-07
-1.1817e-07
1.01296e-07
-6.34689e-07
-7.83939e-08
-2.53898e-08
-5.43936e-07
-5.68125e-08
-7.45773e-08
-4.28489e-07
-6.99049e-08
-8.88356e-08
-3.23935e-07
-6.50495e-08
-7.97226e-08
-2.37569e-07
-5.65155e-08
-6.58252e-08
-1.68312e-07
-4.66445e-08
-5.32098e-08
-1.10998e-07
-3.8436e-08
-4.47259e-08
-6.11362e-08
-3.25145e-08
-3.95713e-08
-2.01911e-08
-2.88193e-08
-3.19953e-08
-2.56393e-08
-1.22554e-08
1.11055e-08
-1.9103e-08
-7.23265e-09
3.41191e-08
-2.15435e-08
-1.86439e-08
6.18185e-08
-2.44931e-08
-2.26673e-08
9.30225e-08
-2.94358e-08
-2.49779e-08
1.30343e-07
-3.70098e-08
-2.90725e-08
1.77832e-07
-4.7822e-08
-3.59738e-08
2.40593e-07
-6.2454e-08
-4.60919e-08
3.23881e-07
-8.07307e-08
-5.92599e-08
4.29414e-07
-9.89817e-08
-7.27188e-08
5.48129e-07
-1.09755e-07
-8.082e-08
6.2106e-07
-6.65134e-08
-6.60341e-08
6.61069e-07
-1.07515e-07
-1.55896e-08
6.07749e-07
-1.84087e-07
1.13371e-07
5.0539e-07
-2.42763e-07
1.86091e-07
3.82319e-07
-2.89802e-07
2.24198e-07
2.56199e-07
-3.21171e-07
2.38283e-07
1.31786e-07
-3.40883e-07
2.43155e-07
8.96149e-09
-3.49657e-07
2.44451e-07
-1.14025e-07
-3.48614e-07
2.44336e-07
-2.38963e-07
-3.37723e-07
2.42809e-07
-3.66012e-07
-3.15989e-07
2.37716e-07
-4.90588e-07
-2.82632e-07
2.23472e-07
-5.95021e-07
-2.34391e-07
1.85429e-07
-6.51229e-07
-1.75029e-07
1.13068e-07
-6.14249e-07
-1.00535e-07
-1.48385e-08
-5.41558e-07
-6.33905e-08
-6.61136e-08
-4.2233e-07
-1.07222e-07
-8.19108e-08
-3.15022e-07
-9.74048e-08
-7.49528e-08
-2.28457e-07
-8.04132e-08
-6.2668e-08
-1.60494e-07
-6.35196e-08
-5.10871e-08
-1.05268e-07
-5.05162e-08
-4.31465e-08
-5.77405e-08
-4.17381e-08
-3.83035e-08
-1.89421e-08
-3.65015e-08
-3.11162e-08
-3.23597e-08
-1.22217e-08
1.00173e-08
-2.18722e-08
-7.24805e-09
3.11794e-08
-2.46712e-08
-1.80344e-08
5.65841e-08
-2.81004e-08
-2.17973e-08
8.50361e-08
-3.3959e-08
-2.39288e-08
1.18966e-07
-4.32453e-08
-2.76946e-08
1.62392e-07
-5.72439e-08
-3.40043e-08
2.21084e-07
-7.79861e-08
-4.31594e-08
3.02038e-07
-1.07242e-07
-5.44429e-08
4.11508e-07
-1.43687e-07
-6.47648e-08
5.44627e-07
-1.76129e-07
-6.67439e-08
5.77957e-07
-5.43006e-08
-4.55428e-08
5.94081e-07
-1.21336e-07