/*--------------------------------*- C++ -*----------------------------------*\
| =========                 |                                                 |
| \\      /  F ield         | OpenFOAM: The Open Source CFD Toolbox           |
|  \\    /   O peration     | Version:  2112                                  |
|   \\  /    A nd           | Website:  www.openfoam.com                      |
|    \\/     M anipulation  |                                                 |
\*---------------------------------------------------------------------------*/
FoamFile
{
    version     2.0;
    format      ascii;
    arch        "LSB;label=32;scalar=64";
    class       volVectorField;
    location    "1";
    object      U;
}
// * * * * * * * * * * * * * * * * * * * * * * * * * * * * * * * * * * * * * //

dimensions      [0 1 -1 0 0 0 0];

internalField   nonuniform List<vector> 
64906
(
(6.8978e-07 2.0538e-06 -2.9227e-06)
(3.13698e-06 1.49487e-06 -3.03063e-06)
(6.18601e-06 1.11413e-06 -2.8461e-06)
(9.23682e-06 9.85848e-07 -2.74551e-06)
(1.21962e-05 1.06367e-06 -2.78235e-06)
(1.50187e-05 1.27322e-06 -2.92209e-06)
(1.76947e-05 1.57983e-06 -3.13502e-06)
(2.01626e-05 1.99218e-06 -3.39964e-06)
(2.23498e-05 2.50991e-06 -3.70928e-06)
(2.40336e-05 3.19915e-06 -4.03691e-06)
(2.50399e-05 3.99031e-06 -4.38955e-06)
(2.4998e-05 4.99867e-06 -4.72483e-06)
(2.37439e-05 5.91649e-06 -5.05197e-06)
(2.14205e-05 6.78879e-06 -5.33001e-06)
(1.81153e-05 7.49602e-06 -5.57083e-06)
(1.40584e-05 8.0579e-06 -5.75567e-06)
(9.43316e-06 8.43544e-06 -5.8875e-06)
(4.47981e-06 8.63021e-06 -5.95993e-06)
(-5.7822e-07 8.6335e-06 -5.97312e-06)
(-5.49887e-06 8.44551e-06 -5.92686e-06)
(-1.00581e-05 8.0752e-06 -5.82134e-06)
(-1.40168e-05 7.5213e-06 -5.66318e-06)
(-1.71941e-05 6.82411e-06 -5.44936e-06)
(-1.93617e-05 5.964e-06 -5.19929e-06)
(-2.0439e-05 5.06386e-06 -4.90102e-06)
(-2.0286e-05 4.07675e-06 -4.5975e-06)
(-1.90759e-05 3.31784e-06 -4.28045e-06)
(-1.71828e-05 2.6673e-06 -3.99758e-06)
(-1.47731e-05 2.20789e-06 -3.74948e-06)
(-1.20671e-05 1.89542e-06 -3.58269e-06)
(-9.13108e-06 1.78615e-06 -3.54083e-06)
(-6.06858e-06 1.95725e-06 -3.68685e-06)
(-3.0128e-06 2.44262e-06 -3.96354e-06)
(-4.97568e-07 3.15325e-06 -3.89952e-06)
(-1.70009e-07 7.1091e-06 -3.38568e-06)
(2.06224e-06 6.77055e-06 -5.99117e-06)
(6.07101e-06 6.53293e-06 -6.56124e-06)
(9.72179e-06 6.70963e-06 -6.73324e-06)
(1.30895e-05 7.32982e-06 -7.0586e-06)
(1.62147e-05 8.31538e-06 -7.59131e-06)
(1.91687e-05 9.63217e-06 -8.31163e-06)
(2.19142e-05 1.13258e-05 -9.20313e-06)
(2.44266e-05 1.34269e-05 -1.026e-05)
(2.64114e-05 1.6117e-05 -1.14672e-05)
(2.77248e-05 1.92316e-05 -1.28039e-05)
(2.77799e-05 2.30377e-05 -1.42106e-05)
(2.63542e-05 2.65523e-05 -1.55731e-05)
(2.375e-05 2.98228e-05 -1.68031e-05)
(2.00324e-05 3.24977e-05 -1.78492e-05)
(1.55128e-05 3.46092e-05 -1.86708e-05)
(1.03627e-05 3.60411e-05 -1.92435e-05)
(4.86273e-06 3.67855e-05 -1.95504e-05)
(-7.54805e-07 3.68156e-05 -1.95837e-05)
(-6.21849e-06 3.61319e-05 -1.93433e-05)
(-1.12958e-05 3.47626e-05 -1.88378e-05)
(-1.57064e-05 3.27166e-05 -1.80844e-05)
(-1.9282e-05 3.01142e-05 -1.71083e-05)
(-2.17113e-05 2.6925e-05 -1.59515e-05)
(-2.29389e-05 2.35102e-05 -1.46666e-05)
(-2.26628e-05 1.98192e-05 -1.33451e-05)
(-2.11183e-05 1.68559e-05 -1.21046e-05)
(-1.88922e-05 1.43376e-05 -1.10118e-05)
(-1.61003e-05 1.24583e-05 -1.01002e-05)
(-1.30008e-05 1.10742e-05 -9.41201e-06)
(-9.53954e-06 1.02419e-05 -8.98058e-06)
(-5.72264e-06 1.00171e-05 -8.74132e-06)
(-1.40659e-06 1.03039e-05 -7.98412e-06)
(7.51136e-07 1.0649e-05 -4.62562e-06)
(-6.17435e-07 1.40737e-05 -3.34053e-06)
(1.61315e-06 1.50409e-05 -6.58686e-06)
(6.35458e-06 1.56297e-05 -7.40972e-06)
(1.05865e-05 1.66797e-05 -7.66317e-06)
(1.44795e-05 1.83804e-05 -8.06798e-06)
(1.80886e-05 2.07281e-05 -8.72159e-06)
(2.15595e-05 2.37422e-05 -9.61602e-06)
(2.48862e-05 2.75533e-05 -1.07418e-05)
(2.81327e-05 3.22608e-05 -1.21021e-05)
(3.08638e-05 3.82807e-05 -1.36884e-05)
(3.29855e-05 4.53141e-05 -1.54807e-05)
(3.33214e-05 5.40033e-05 -1.73853e-05)
(3.14953e-05 6.19535e-05 -1.92382e-05)
(2.82595e-05 6.92855e-05 -2.09027e-05)
(2.36735e-05 7.52602e-05 -2.23124e-05)
(1.82162e-05 7.99737e-05 -2.34111e-05)
(1.20318e-05 8.31759e-05 -2.41729e-05)
(5.46769e-06 8.48466e-05 -2.45778e-05)
(-1.23437e-06 8.49264e-05 -2.46158e-05)
(-7.75987e-06 8.34158e-05 -2.42871e-05)
(-1.38668e-05 8.0377e-05 -2.3602e-05)
(-1.92062e-05 7.58322e-05 -2.25812e-05)
(-2.36366e-05 7.00394e-05 -2.12511e-05)
(-2.66752e-05 6.2906e-05 -1.96696e-05)
(-2.8276e-05 5.51928e-05 -1.79047e-05)
(-2.76798e-05 4.67714e-05 -1.60974e-05)
(-2.52855e-05 4.00841e-05 -1.44152e-05)
(-2.22679e-05 3.44408e-05 -1.29621e-05)
(-1.86636e-05 3.01852e-05 -1.17727e-05)
(-1.48478e-05 2.69325e-05 -1.08872e-05)
(-1.06363e-05 2.46563e-05 -1.03218e-05)
(-6.03041e-06 2.32711e-05 -9.95251e-06)
(-7.53907e-07 2.24736e-05 -8.85536e-06)
(1.37171e-06 2.10535e-05 -4.63132e-06)
(-6.90376e-07 2.09161e-05 -3.25678e-06)
(1.86368e-06 2.28601e-05 -6.65485e-06)
(7.39292e-06 2.41408e-05 -7.50989e-06)
(1.23976e-05 2.60694e-05 -7.74885e-06)
(1.70653e-05 2.88947e-05 -8.1694e-06)
(2.14651e-05 3.26561e-05 -8.88512e-06)
(2.58367e-05 3.74238e-05 -9.89444e-06)
(3.02234e-05 4.34416e-05 -1.12003e-05)
(3.48815e-05 5.09335e-05 -1.28208e-05)
(3.91223e-05 6.07674e-05 -1.47629e-05)
(4.30278e-05 7.25433e-05 -1.70129e-05)
(4.39677e-05 8.79169e-05 -1.94467e-05)
(4.1217e-05 0.000101509 -2.18169e-05)
(3.66924e-05 0.000113858 -2.39242e-05)
(3.0428e-05 0.00012374 -2.56974e-05)
(2.32154e-05 0.000131524 -2.70562e-05)
(1.51081e-05 0.000136791 -2.79924e-05)
(6.57441e-06 0.000139539 -2.84848e-05)
(-2.13461e-06 0.000139669 -2.85238e-05)
(-1.06275e-05 0.00013718 -2.81094e-05)
(-1.86526e-05 0.000132176 -2.72513e-05)
(-2.57362e-05 0.000124658 -2.59713e-05)
(-3.1827e-05 0.00011506 -2.42778e-05)
(-3.61204e-05 0.000103014 -2.2253e-05)
(-3.86029e-05 8.97851e-05 -1.99688e-05)
(-3.73338e-05 7.48165e-05 -1.76313e-05)
(-3.309e-05 6.35891e-05 -1.54903e-05)
(-2.85055e-05 5.43227e-05 -1.36852e-05)
(-2.33941e-05 4.74908e-05 -1.22454e-05)
(-1.83738e-05 4.22481e-05 -1.12042e-05)
(-1.30409e-05 3.84495e-05 -1.05681e-05)
(-7.39041e-06 3.58852e-05 -1.01884e-05)
(-1.04484e-06 3.41635e-05 -9.03263e-06)
(1.51206e-06 3.14382e-05 -4.60335e-06)
(-5.12587e-07 2.75234e-05 -3.23099e-06)
(2.63617e-06 3.02445e-05 -6.86525e-06)
(9.20399e-06 3.21696e-05 -7.76126e-06)
(1.52573e-05 3.49992e-05 -8.00232e-06)
(2.09929e-05 3.90262e-05 -8.47685e-06)
(2.6517e-05 4.43056e-05 -9.31726e-06)
(3.22129e-05 5.09422e-05 -1.05347e-05)
(3.82279e-05 5.9301e-05 -1.21616e-05)
(4.52422e-05 6.98069e-05 -1.42436e-05)
(5.2193e-05 8.41562e-05 -1.68266e-05)
(5.97806e-05 0.000102111 -1.99029e-05)
(6.19159e-05 0.000127965 -2.33467e-05)
(5.711e-05 0.000149511 -2.66789e-05)
(5.02168e-05 0.000168616 -2.96197e-05)
(4.11225e-05 0.00018351 -3.20847e-05)
(3.11083e-05 0.000195256 -3.39183e-05)
(1.99485e-05 0.000203165 -3.51756e-05)
(8.31082e-06 0.000207289 -3.58293e-05)
(-3.56282e-06 0.000207471 -3.58711e-05)
(-1.51587e-05 0.000203712 -3.53009e-05)
(-2.62334e-05 0.000196168 -3.41265e-05)
(-3.61086e-05 0.000184785 -3.23758e-05)
(-4.50107e-05 0.000170266 -2.99925e-05)
(-5.16273e-05 0.000151551 -2.71351e-05)
(-5.61072e-05 0.000130476 -2.38869e-05)
(-5.35283e-05 0.000105136 -2.05384e-05)
(-4.55074e-05 8.79675e-05 -1.75706e-05)
(-3.81608e-05 7.43666e-05 -1.51309e-05)
(-3.05868e-05 6.47113e-05 -1.32429e-05)
(-2.37783e-05 5.73244e-05 -1.19117e-05)
(-1.6872e-05 5.18938e-05 -1.1125e-05)
(-9.79037e-06 4.81121e-05 -1.06961e-05)
(-2.01849e-06 4.55349e-05 -9.45194e-06)
(1.32923e-06 4.16741e-05 -4.66794e-06)
(-1.92253e-07 3.37154e-05 -3.26463e-06)
(3.81837e-06 3.70918e-05 -7.26069e-06)
(1.17749e-05 3.96542e-05 -8.24901e-06)
(1.92142e-05 4.34421e-05 -8.52766e-06)
(2.63514e-05 4.87937e-05 -9.10731e-06)
(3.3345e-05 5.57519e-05 -1.01525e-05)
(4.07798e-05 6.44243e-05 -1.17e-05)
(4.90107e-05 7.52458e-05 -1.3841e-05)
(5.95958e-05 8.89139e-05 -1.66577e-05)
(7.114e-05 0.000108534 -2.02694e-05)
(8.63517e-05 0.000134679 -2.4547e-05)
(9.08996e-05 0.00017885 -2.9672e-05)
(8.15595e-05 0.000212248 -3.46294e-05)
(7.0503e-05 0.000240633 -3.90329e-05)
(5.69464e-05 0.000262065 -4.27324e-05)
(4.27868e-05 0.000279047 -4.53387e-05)
(2.70904e-05 0.000290437 -4.71204e-05)
(1.08634e-05 0.000296378 -4.8037e-05)
(-5.69627e-06 0.000296622 -4.80851e-05)
(-2.18836e-05 0.000291167 -4.72643e-05)
(-3.74994e-05 0.000280256 -4.55766e-05)
(-5.15189e-05 0.000263735 -4.30633e-05)
(-6.48753e-05 0.000242762 -3.9452e-05)
(-7.56067e-05 0.000214825 -3.51356e-05)
(-8.4556e-05 0.000181972 -3.0261e-05)
(-7.93671e-05 0.000138365 -2.52274e-05)
(-6.35837e-05 0.00011335 -2.10577e-05)
(-5.1631e-05 9.46481e-05 -1.75989e-05)
(-4.03731e-05 8.19929e-05 -1.49939e-05)
(-3.11605e-05 7.23084e-05 -1.31878e-05)
(-2.2194e-05 6.50742e-05 -1.21402e-05)
(-1.32113e-05 5.99581e-05 -1.15934e-05)
(-3.56376e-06 5.64858e-05 -1.01888e-05)
(9.21673e-07 5.16141e-05 -4.80675e-06)
(2.45419e-07 3.93635e-05 -3.32954e-06)
(5.39488e-06 4.33621e-05 -7.79998e-06)
(1.51576e-05 4.66204e-05 -8.93113e-06)
(2.43856e-05 5.15104e-05 -9.27864e-06)
(3.33132e-05 5.84308e-05 -1.00108e-05)
(4.21457e-05 6.73853e-05 -1.13421e-05)
(5.16935e-05 7.84094e-05 -1.33527e-05)
(6.26564e-05 9.17186e-05 -1.62421e-05)
(7.82475e-05 0.000108138 -2.01432e-05)
(9.70088e-05 0.000132146 -2.52088e-05)
(0.000128102 0.000167921 -3.09335e-05)
(0.000137691 0.000245774 -3.85777e-05)
(0.000117953 0.000296766 -4.58666e-05)
(9.96441e-05 0.000337846 -5.26003e-05)
(7.93738e-05 0.000368115 -5.83484e-05)
(5.9391e-05 0.000392406 -6.20032e-05)
(3.72297e-05 0.000408706 -6.45275e-05)
(1.44793e-05 0.000417208 -6.58153e-05)
(-8.75909e-06 0.000417533 -6.58741e-05)
(-3.14783e-05 0.000409672 -6.47037e-05)
(-5.35782e-05 0.000393995 -6.22928e-05)
(-7.34417e-05 0.000370283 -5.87487e-05)
(-9.35354e-05 0.000340553 -5.31e-05)
(-0.000111485 0.000299933 -4.64606e-05)
(-0.000130791 0.000249479 -3.92525e-05)
(-0.000120192 0.000172089 -3.16875e-05)
(-8.83088e-05 0.000138059 -2.60708e-05)
(-6.92567e-05 0.000115101 -2.11657e-05)
(-5.28846e-05 9.97998e-05 -1.74961e-05)
(-4.07125e-05 8.77365e-05 -1.49876e-05)
(-2.92082e-05 7.83535e-05 -1.35577e-05)
(-1.78034e-05 7.15956e-05 -1.28213e-05)
(-5.67477e-06 6.70261e-05 -1.11645e-05)
(3.55766e-07 6.11598e-05 -5.00563e-06)
(8.16673e-07 4.42615e-05 -3.40236e-06)
(7.42934e-06 4.88472e-05 -8.4512e-06)
(1.9503e-05 5.2866e-05 -9.76881e-06)
(3.10359e-05 5.9019e-05 -1.02096e-05)
(4.22577e-05 6.78039e-05 -1.11389e-05)
(5.33496e-05 7.91915e-05 -1.28431e-05)
(6.51438e-05 9.3072e-05 -1.54739e-05)
(7.86601e-05 0.000108938 -1.94308e-05)
(9.91227e-05 0.000126931 -2.48411e-05)
(0.000127022 0.000153254 -3.21588e-05)
(0.000190693 0.000195519 -3.70477e-05)
(0.00021165 0.000340128 -4.67977e-05)
(0.000169864 0.000414968 -5.76275e-05)
(0.000140598 0.000470786 -6.81922e-05)
(0.000111133 0.000511789 -7.72406e-05)
(8.32129e-05 0.000545071 -8.20299e-05)
(5.18117e-05 0.000567612 -8.53955e-05)
(1.96639e-05 0.000579387 -8.71059e-05)
(-1.32112e-05 0.00057982 -8.71797e-05)
(-4.53447e-05 0.0005689 -8.56164e-05)
(-7.67264e-05 0.000547182 -8.23911e-05)
(-0.00010459 0.000514642 -7.7739e-05)
(-0.000133977 0.00047427 -6.88071e-05)
(-0.000162932 0.000418857 -5.83493e-05)
(-0.000204375 0.000344448 -4.76159e-05)
(-0.000181661 0.000199826 -3.78932e-05)
(-0.000116822 0.000160636 -3.3103e-05)
(-8.90707e-05 0.000135346 -2.59568e-05)
(-6.7701e-05 0.000118431 -2.08059e-05)
(-5.26838e-05 0.000103792 -1.72846e-05)
(-3.83714e-05 9.16663e-05 -1.53312e-05)
(-2.39299e-05 8.27951e-05 -1.43332e-05)
(-8.5445e-06 7.68631e-05 -1.23364e-05)
(-4.34503e-07 6.99689e-05 -5.21716e-06)
(1.52626e-06 4.81763e-05 -3.47489e-06)
(9.9552e-06 5.33272e-05 -9.20031e-06)
(2.49013e-05 5.82157e-05 -1.07459e-05)
(3.93627e-05 6.59151e-05 -1.13019e-05)
(5.35494e-05 7.71682e-05 -1.24686e-05)
(6.75211e-05 9.21007e-05 -1.46168e-05)
(8.16957e-05 0.00011061 -1.79979e-05)
(9.67679e-05 0.000130295 -2.32709e-05)
(0.000120541 0.000149453 -3.1002e-05)
(0.000151711 0.000163795 -3.97614e-05)
(0.000276527 0.000171799 -4.76782e-05)
(0.000323868 0.00045027 -5.01524e-05)
(0.000234989 0.000557592 -6.30201e-05)
(0.000192982 0.000631981 -7.88105e-05)
(0.000153134 0.000688892 -9.19727e-05)
(0.000115139 0.000735379 -9.74497e-05)
(7.15631e-05 0.00076714 -0.000101613)
(2.67019e-05 0.000783585 -0.000103698)
(-1.92615e-05 0.000784162 -0.000103785)
(-6.41352e-05 0.000768856 -0.000101875)
(-0.000107761 0.000738201 -9.78746e-05)
(-0.000145828 0.000692712 -9.2559e-05)
(-0.000185834 0.000636605 -7.95249e-05)
(-0.000227722 0.000562597 -6.38645e-05)
(-0.000316795 0.000455293 -5.10994e-05)
(-0.000266221 0.000174892 -4.88127e-05)
(-0.000139563 0.000172731 -4.08315e-05)
(-0.00010974 0.000159354 -3.22116e-05)
(-8.48076e-05 0.000141104 -2.47825e-05)
(-6.78148e-05 0.000122512 -2.00104e-05)
(-5.03644e-05 0.000105786 -1.74243e-05)
(-3.20132e-05 9.36463e-05 -1.61175e-05)
(-1.23691e-05 8.57618e-05 -1.36977e-05)
(-1.49141e-06 7.76695e-05 -5.43145e-06)
(2.42667e-06 5.07377e-05 -3.5255e-06)
(1.31143e-05 5.63179e-05 -1.00291e-05)
(3.16781e-05 6.19925e-05 -1.18396e-05)
(5.00698e-05 7.11861e-05 -1.25261e-05)
(6.8584e-05 8.50145e-05 -1.39587e-05)
(8.71822e-05 0.000104104 -1.6589e-05)
(0.000104632 0.00012875 -2.06932e-05)
(0.000120645 0.000155208 -2.76267e-05)
(0.000133815 0.000173012 -3.64335e-05)
(0.000111269 0.000129527 -5.16747e-05)
(0.000335909 0.000172088 -6.1708e-05)
(0.000467004 0.00067159 -3.79047e-05)
(0.000308779 0.000756186 -5.01248e-05)
(0.000264721 0.000822389 -6.811e-05)
(0.000215378 0.000892302 -8.28073e-05)
(0.00016269 0.000948849 -8.63812e-05)
(0.000100912 0.00098964 -8.98759e-05)
(3.70104e-05 0.00101067 -9.16553e-05)
(-2.82368e-05 0.00101143 -9.17383e-05)
(-9.21694e-05 0.000991889 -9.01258e-05)
(-0.000154065 0.000952564 -8.67775e-05)
(-0.000206986 0.000897378 -8.33664e-05)
(-0.000256838 0.000828572 -6.87822e-05)
(-0.000301415 0.000762667 -5.09194e-05)
(-0.000462418 0.000676022 -3.90191e-05)
(-0.000325578 0.00017502 -6.32665e-05)
(-9.72101e-05 0.000143747 -5.25453e-05)
(-0.000122921 0.000186124 -3.76442e-05)
(-0.000107991 0.000167675 -2.92831e-05)
(-8.94461e-05 0.000141684 -2.2937e-05)
(-6.77521e-05 0.000118642 -1.97738e-05)
(-4.34764e-05 0.000102495 -1.81536e-05)
(-1.78285e-05 9.24707e-05 -1.5233e-05)
(-3.06515e-06 8.33234e-05 -5.57241e-06)
(3.42812e-06 5.16776e-05 -3.57688e-06)
(1.66755e-05 5.75552e-05 -1.09325e-05)
(3.93934e-05 6.3947e-05 -1.30512e-05)
(6.25253e-05 7.47019e-05 -1.39054e-05)
(8.67675e-05 9.17496e-05 -1.56663e-05)
(0.000112383 0.000117502 -1.87522e-05)
(0.000137334 0.000156055 -2.33339e-05)
(0.00015664 0.000211033 -2.90329e-05)
(0.000135841 0.000282403 -4.13242e-05)
(0.000139007 0.000323016 -5.81062e-05)
(0.000225028 0.000604297 4.41741e-05)
(0.000275481 0.000790631 1.68594e-05)
(0.00032238 0.000919154 9.71264e-06)
(0.000287031 0.00103292 1.22864e-05)
(0.000218564 0.00111415 1.06379e-05)
(0.000137137 0.00116884 9.33229e-06)
(4.97786e-05 0.00119582 8.82392e-06)
(-3.92211e-05 0.00119669 8.82284e-06)
(-0.000126627 0.00117146 9.32733e-06)
(-0.000208223 0.00111857 1.06372e-05)
(-0.00027706 0.00103924 1.22815e-05)
(-0.000313424 0.000927518 9.75069e-06)
(-0.000268959 0.000800953 1.66639e-05)
(-0.000220724 0.000615163 4.33553e-05)
(-0.00013538 0.000334198 -5.73253e-05)
(-0.000129761 0.000294776 -4.22792e-05)
(-0.000145514 0.000223341 -3.08129e-05)
(-0.000121634 0.000169019 -2.5831e-05)
(-9.09053e-05 0.000132169 -2.23771e-05)
(-5.79733e-05 0.000109522 -2.05158e-05)
(-2.45487e-05 9.66215e-05 -1.69983e-05)
(-4.93297e-06 8.63348e-05 -5.74407e-06)
(4.609e-06 5.06144e-05 -3.60214e-06)
(2.08122e-05 5.64193e-05 -1.18625e-05)
(4.85039e-05 6.28444e-05 -1.42971e-05)
(7.80769e-05 7.37348e-05 -1.53183e-05)
(0.000111883 9.11329e-05 -1.74246e-05)
(0.000153675 0.000117784 -2.10793e-05)
(0.000208178 0.000158673 -2.64119e-05)
(0.000287579 0.000219912 -3.21774e-05)
(0.000391381 0.000308505 -3.65023e-05)
(0.000604607 0.000409808 -2.92621e-05)
(0.000623161 0.000131166 3.0207e-05)
(0.00051016 0.000298934 3.01474e-05)
(0.000579096 0.000601652 0.000101281)
(0.000523848 0.00078529 0.000155072)
(0.000427257 0.00092035 0.000187492)
(0.000309167 0.00101142 0.000200089)
(0.000188597 0.00106898 0.000205937)
(6.68598e-05 0.00109668 0.000208299)
(-5.44166e-05 0.00109748 0.00020836)
(-0.000176111 0.00107141 0.000206125)
(-0.00029662 0.00101558 0.000200422)
(-0.00041456 0.000926402 0.000187996)
(-0.00051101 0.000793566 0.000155912)
(-0.000565874 0.000612508 0.000102452)
(-0.000495043 0.000312232 3.20691e-05)
(-0.000612656 0.000134633 3.16675e-05)
(-0.00059915 0.000415128 -2.89399e-05)
(-0.00038238 0.000317736 -3.7371e-05)
(-0.000275103 0.000230723 -3.38475e-05)
(-0.000190978 0.000170848 -2.90944e-05)
(-0.000129809 0.000131941 -2.51849e-05)
(-7.92136e-05 0.000108505 -2.30467e-05)
(-3.40013e-05 9.53221e-05 -1.89064e-05)
(-7.66464e-06 8.5045e-05 -5.82492e-06)
(5.6264e-06 4.75142e-05 -3.64368e-06)
(2.44399e-05 5.28554e-05 -1.276e-05)
(5.64116e-05 5.85698e-05 -1.5519e-05)
(9.10192e-05 6.80192e-05 -1.67452e-05)
(0.000131273 8.25236e-05 -1.92587e-05)
(0.000181851 0.000103327 -2.36395e-05)
(0.000248231 0.000131872 -3.00423e-05)
(0.000342539 0.000167932 -3.78496e-05)
(0.000464054 0.000204597 -4.44725e-05)
(0.000652685 0.000223999 -4.45936e-05)
(0.00073866 0.000128545 -2.57735e-05)
(0.000756901 0.000282361 1.36469e-06)
(0.000764377 0.000448239 0.000111677)
(0.00065582 0.00057048 0.000172982)
(0.000524747 0.000667347 0.000206883)
(0.000374675 0.000734673 0.000221954)
(0.000226484 0.00077819 0.000228577)
(7.96076e-05 0.000799453 0.000231058)
(-6.57011e-05 0.000800113 0.000231111)
(-0.000212508 0.000780179 0.000228738)
(-0.000360578 0.000738018 0.000222244)
(-0.000510403 0.00067208 0.000207335)
(-0.000641305 0.00057662 0.000173769)
(-0.000749567 0.000455496 0.000112841)
(-0.000742097 0.00029002 3.56961e-06)
(-0.000727097 0.000132521 -2.45282e-05)
(-0.000643823 0.000231085 -4.44086e-05)
(-0.000453716 0.000213302 -4.52743e-05)
(-0.000328909 0.000177903 -3.95551e-05)
(-0.000229482 0.000143225 -3.29244e-05)
(-0.000155564 0.000116659 -2.81745e-05)
(-9.47918e-05 9.89357e-05 -2.55475e-05)
(-4.11259e-05 8.8341e-05 -2.07286e-05)
(-9.63767e-06 7.93082e-05 -5.98731e-06)
(6.53622e-06 4.2716e-05 -3.67253e-06)
(2.76498e-05 4.7415e-05 -1.3557e-05)
(6.33577e-05 5.22294e-05 -1.65937e-05)
(0.000102183 6.00228e-05 -1.7975e-05)
(0.000147467 7.16528e-05 -2.07961e-05)
(0.000204047 8.76687e-05 -2.574e-05)
(0.00027714 0.000108324 -3.3039e-05)
(0.000376902 0.000132929 -4.26464e-05)
(0.000501145 0.000156557 -5.24348e-05)
(0.000666834 0.000174727 -5.91643e-05)
(0.000786254 0.000154392 -4.7943e-05)
(0.000874113 0.000233189 -1.08889e-05)
(0.000877556 0.000330254 0.000101215)
(0.000749465 0.000412586 0.000158572)
(0.000595873 0.000480686 0.000189816)
(0.000422827 0.000528688 0.000201188)
(0.000254849 0.000560462 0.000205608)
(8.92381e-05 0.000576152 0.000207)
(-7.411e-05 0.000576708 0.000207032)
(-0.00023964 0.000562128 0.000205704)
(-0.000407485 0.000531464 0.000201368)
(-0.000580274 0.000484548 0.000190113)
(-0.000733786 0.000417494 0.000159161)
(-0.000861762 0.000335969 0.000102151)
(-0.00085963 0.000239442 -8.96404e-06)
(-0.000774597 0.000159494 -4.69022e-05)
(-0.000656457 0.000181207 -5.88652e-05)
(-0.000489567 0.000164204 -5.31768e-05)
(-0.000361973 0.000141778 -4.43843e-05)
(-0.00025677 0.000118524 -3.60939e-05)
(-0.000175385 9.97468e-05 -3.06323e-05)
(-0.00010742 8.65139e-05 -2.76334e-05)
(-4.70227e-05 7.8279e-05 -2.22655e-05)
(-1.1321e-05 7.0589e-05 -6.08401e-06)
(7.22793e-06 3.65026e-05 -3.71762e-06)
(3.01319e-05 4.03854e-05 -1.42417e-05)
(6.8707e-05 4.41353e-05 -1.75116e-05)
(0.000110544 5.00557e-05 -1.9023e-05)
(0.000159062 5.8639e-05 -2.20959e-05)
(0.000218934 7.00051e-05 -2.74894e-05)
(0.000295085 8.39138e-05 -3.54828e-05)
(0.000396278 9.98338e-05 -4.62704e-05)
(0.000521116 0.000114961 -5.77915e-05)
(0.0006798 0.000130021 -6.69344e-05)
(0.00081775 0.000134876 -5.68758e-05)
(0.000939987 0.000181372 -2.2726e-05)
(0.000945766 0.00024041 8.77769e-05)
(0.000807707 0.000292373 0.000140199)
(0.000641957 0.000336863 0.000167841)
(0.000455255 0.000369453 0.000176009)
(0.000274395 0.00039152 0.00017858)
(9.5997e-05 0.000402607 0.000179039)
(-7.98549e-05 0.000403091 0.000179052)
(-0.000258187 0.00039296 0.000178621)
(-0.000438949 0.000371819 0.000176095)
(-0.000625451 0.000340095 0.000168003)
(-0.000791256 0.00029639 0.000140618)
(-0.000929377 0.000245019 8.85341e-05)
(-0.000925361 0.000186434 -2.0849e-05)
(-0.000805675 0.000139834 -5.59065e-05)
(-0.000668385 0.000135872 -6.66654e-05)
(-0.000508496 0.000121676 -5.85704e-05)
(-0.000380175 0.000107537 -4.80915e-05)
(-0.000273223 9.27958e-05 -3.87058e-05)
(-0.000188147 8.05125e-05 -3.26787e-05)
(-0.000115937 7.14767e-05 -2.93688e-05)
(-5.10028e-05 6.56293e-05 -2.3555e-05)
(-1.24081e-05 5.95351e-05 -6.23838e-06)
(7.74686e-06 2.92924e-05 -3.7629e-06)
(3.20012e-05 3.23109e-05 -1.47921e-05)
(7.27296e-05 3.5063e-05 -1.82398e-05)
(0.000116747 3.93284e-05 -1.98431e-05)
(0.000167487 4.54153e-05 -2.30944e-05)
(0.00022946 5.33271e-05 -2.88034e-05)
(0.000307443 6.2823e-05 -3.72794e-05)
(0.00040945 7.36781e-05 -4.88271e-05)
(0.00053505 8.45501e-05 -6.13942e-05)
(0.000692876 9.68993e-05 -7.18991e-05)
(0.000841419 0.000107695 -6.24982e-05)
(0.00098033 0.000137045 -3.007e-05)
(0.000988676 0.000173467 7.96048e-05)
(0.000846237 0.000207094 0.000129569)
(0.000673288 0.000236547 0.000155323)
(0.000477765 0.000258656 0.000161709)
(0.000288165 0.000273845 0.000163198)
(0.000100861 0.000281608 0.000163115)
(-8.38041e-05 0.000282055 0.000163119)
(-0.000271069 0.000275172 0.000163211)
(-0.000460625 0.000260815 0.000161747)
(-0.000656029 0.000239457 0.000155416)
(-0.000829162 0.00021065 0.000129898)
(-0.000971795 0.000177511 8.02574e-05)
(-0.000965422 0.000141477 -2.829e-05)
(-0.00082893 0.000112272 -6.16022e-05)
(-0.000680752 0.000102054 -7.16756e-05)
(-0.000521645 9.03002e-05 -6.22321e-05)
(-0.000392389 8.01687e-05 -5.07364e-05)
(-0.000284338 7.02356e-05 -4.06487e-05)
(-0.000196927 6.20112e-05 -3.42308e-05)
(-0.000121893 5.58862e-05 -3.07048e-05)
(-5.37776e-05 5.18307e-05 -2.45639e-05)
(-1.31612e-05 4.72026e-05 -6.37804e-06)
(8.08947e-06 2.13942e-05 -3.81402e-06)
(3.32654e-05 2.35036e-05 -1.52076e-05)
(7.54632e-05 2.53011e-05 -1.87813e-05)
(0.000120929 2.80439e-05 -2.04468e-05)
(0.000173097 3.1929e-05 -2.38172e-05)
(0.000236384 3.69484e-05 -2.97313e-05)
(0.000315557 4.29758e-05 -3.85112e-05)
(0.000418359 4.99923e-05 -5.04997e-05)
(0.000545142 5.75201e-05 -6.36342e-05)
(0.00070413 6.67187e-05 -7.48035e-05)
(0.000858525 7.66737e-05 -6.58708e-05)
(0.00100567 9.48963e-05 -3.42488e-05)
(0.00101573 0.000117029 7.55441e-05)
(0.000870894 0.000137786 0.000124683)
(0.000693664 0.000156115 0.000149722)
(0.000492692 0.000170173 0.000155357)
(0.000297432 0.000179952 0.000156386)
(0.000104238 0.000185066 0.000156065)
(-8.63176e-05 0.000185503 0.000156066)
(-0.00027951 0.000181244 0.000156388)
(-0.0004748 0.000172253 0.000155375)
(-0.00067576 0.00015888 0.000149785)
(-0.000853308 0.0001411 0.00012497)
(-0.000998466 0.000120732 7.61438e-05)
(-0.000990503 9.88667e-05 -3.25379e-05)
(-0.000845721 8.0783e-05 -6.50428e-05)
(-0.000691546 7.11483e-05 -7.4643e-05)
(-0.000531194 6.23018e-05 -6.45439e-05)
(-0.00040061 5.52396e-05 -5.24982e-05)
(-0.000291543 4.8829e-05 -4.20064e-05)
(-0.000202578 4.365e-05 -3.53456e-05)
(-0.000125723 3.9818e-05 -3.16814e-05)
(-5.55302e-05 3.72511e-05 -2.5317e-05)
(-1.36111e-05 3.40733e-05 -6.52124e-06)
(8.2815e-06 1.3115e-05 -3.86399e-06)
(3.39984e-05 1.43076e-05 -1.5484e-05)
(7.7065e-05 1.5211e-05 -1.91329e-05)
(0.000123388 1.65678e-05 -2.08332e-05)
(0.00017641 1.85053e-05 -2.42705e-05)
(0.000240521 2.10521e-05 -3.02996e-05)
(0.000320515 2.4216e-05 -3.92487e-05)
(0.000424071 2.80795e-05 -5.14736e-05)
(0.000551939 3.26158e-05 -6.49031e-05)
(0.000712241 3.83526e-05 -7.63971e-05)
(0.00086967 4.51386e-05 -6.76774e-05)
(0.00102059 5.49371e-05 -3.62865e-05)
(0.00103152 6.62695e-05 7.38837e-05)
(0.00088538 7.69493e-05 0.000122914)
(0.000705743 8.63442e-05 0.000147791)
(0.00050167 9.37031e-05 0.000153193)
(0.000303098 9.88987e-05 0.000154069)
(0.000106426 0.000101748 0.000153668)
(-8.76391e-05 0.000102201 0.000153668)
(-0.000284357 0.000100233 0.000154067)
(-0.000483056 9.58335e-05 0.000153203)
(-0.000687252 8.91394e-05 0.000147841)
(-0.00086737 8.02278e-05 0.00012318)
(-0.00101399 6.98415e-05 7.44503e-05)
(-0.00100528 5.86193e-05 -3.46338e-05)
(-0.000856721 4.88235e-05 -6.69153e-05)
(-0.000699445 4.21077e-05 -7.63045e-05)
(-0.000537718 3.64641e-05 -6.58857e-05)
(-0.000405947 3.20938e-05 -5.35542e-05)
(-0.000295979 2.84808e-05 -4.2846e-05)
(-0.000205964 2.57012e-05 -3.60514e-05)
(-0.000127979 2.37146e-05 -3.23114e-05)
(-5.65428e-05 2.2389e-05 -2.58153e-05)
(-1.38593e-05 2.05981e-05 -6.64059e-06)
(8.32931e-06 4.70074e-06 -3.91321e-06)
(3.42243e-05 4.97161e-06 -1.56228e-05)
(7.75875e-05 4.99679e-06 -1.92979e-05)
(0.000124222 5.00196e-06 -2.10089e-05)
(0.000177588 5.05206e-06 -2.44671e-05)
(0.000242099 5.21925e-06 -3.05321e-05)
(0.000322589 5.64126e-06 -3.95338e-05)
(0.000426772 6.47394e-06 -5.18302e-05)
(0.000555443 8.03601e-06 -6.5347e-05)
(0.000716685 1.02501e-05 -7.6935e-05)
(0.000875113 1.34111e-05 -6.82678e-05)
(0.00102677 1.57449e-05 -3.68729e-05)
(0.00103774 1.7368e-05 7.35743e-05)
(0.000891001 1.88044e-05 0.00012275)
(0.000710444 1.98922e-05 0.000147696)
(0.000505274 2.09471e-05 0.000153119)
(0.000305492 2.18163e-05 0.000154001)
(0.000107547 2.25344e-05 0.000153599)
(-8.78376e-05 2.30338e-05 0.000153598)
(-0.000285893 2.32827e-05 0.000153994)
(-0.000485922 2.32709e-05 0.000153122)
(-0.000691394 2.29084e-05 0.000147733)
(-0.000872641 2.22666e-05 0.000122992)
(-0.00102008 2.10296e-05 7.41036e-05)
(-0.0010115 1.93243e-05 -3.52881e-05)
(-0.000862234 1.67729e-05 -6.75824e-05)
(-0.000703936 1.34211e-05 -7.69218e-05)
(-0.000541237 1.10251e-05 -6.64077e-05)
(-0.000408611 9.31359e-06 -5.39886e-05)
(-0.000297951 8.35404e-06 -4.32126e-05)
(-0.000207346 7.82995e-06 -3.63758e-05)
(-0.000128836 7.5805e-06 -3.26127e-05)
(-5.69047e-05 7.43555e-06 -2.60686e-05)
(-1.39302e-05 7.02548e-06 -6.73679e-06)
(8.23606e-06 -3.58301e-06 -3.95852e-06)
(3.39471e-05 -4.22947e-06 -1.56235e-05)
(7.70332e-05 -5.09568e-06 -1.92775e-05)
(0.00012343 -6.47397e-06 -2.09758e-05)
(0.000176624 -8.37343e-06 -2.44099e-05)
(0.000241108 -1.06919e-05 -3.04337e-05)
(0.000321766 -1.31638e-05 -3.93746e-05)
(0.000426455 -1.55259e-05 -5.15828e-05)
(0.000555693 -1.69819e-05 -6.49867e-05)
(0.000717586 -1.81045e-05 -7.64493e-05)
(0.000875154 -1.7768e-05 -6.76941e-05)
(0.00102457 -2.28776e-05 -3.61005e-05)
(0.00103461 -3.1544e-05 7.44958e-05)
(0.000887914 -3.97787e-05 0.000124041)
(0.000707882 -4.73645e-05 0.000149266)
(0.00050359 -5.2795e-05 0.00015495)
(0.000304681 -5.63478e-05 0.000155982)
(0.000107643 -5.77762e-05 0.000155655)
(-8.68902e-05 -5.7192e-05 0.00015565)
(-0.000284117 -5.46312e-05 0.000155964)
(-0.000483426 -5.00834e-05 0.000154931)
(-0.000688254 -4.38605e-05 0.000149271)
(-0.000869261 -3.58209e-05 0.000124235)
(-0.00101696 -2.74637e-05 7.49594e-05)
(-0.00100956 -1.91234e-05 -3.46163e-05)
(-0.000862609 -1.45481e-05 -6.71105e-05)
(-0.00070516 -1.53664e-05 -7.65395e-05)
(-0.000541803 -1.472e-05 -6.61402e-05)
(-0.000408607 -1.37399e-05 -5.38215e-05)
(-0.000297457 -1.18917e-05 -4.31189e-05)
(-0.000206724 -1.00167e-05 -3.63274e-05)
(-0.000128301 -8.43042e-06 -3.25912e-05)
(-5.66218e-05 -7.34325e-06 -2.60804e-05)
(-1.38275e-05 -6.36895e-06 -6.80623e-06)
(7.99062e-06 -1.14818e-05 -4.00667e-06)
(3.31391e-05 -1.30413e-05 -1.54898e-05)
(7.53509e-05 -1.4856e-05 -1.90724e-05)
(0.000120916 -1.77477e-05 -2.07323e-05)
(0.000173355 -2.18463e-05 -2.40934e-05)
(0.000237297 -2.70777e-05 -2.99916e-05)
(0.000317728 -3.3081e-05 -3.87471e-05)
(0.000422877 -3.93917e-05 -5.06809e-05)
(0.000552696 -4.43023e-05 -6.37255e-05)
(0.000715655 -4.83725e-05 -7.47615e-05)
(0.000870189 -4.81369e-05 -6.56988e-05)
(0.00101304 -6.17688e-05 -3.34591e-05)
(0.00102088 -8.35609e-05 7.74242e-05)
(0.000875153 -0.000103813 0.000127949)
(0.000697384 -0.000122 0.000153924)
(0.000496246 -0.00013503 0.000160329)
(0.000300484 -0.000143646 0.000161781)
(0.000106693 -0.000147467 0.00016166)
(-8.46852e-05 -0.000146743 0.000161643)
(-0.000278759 -0.00014151 0.00016173)
(-0.000475109 -0.000131648 0.000160253)
(-0.00067709 -0.000117607 0.000153848)
(-0.00085622 -9.88808e-05 0.000128033)
(-0.00100342 -7.85374e-05 7.77596e-05)
(-0.00099861 -5.74155e-05 -3.21378e-05)
(-0.000858314 -4.4817e-05 -6.52649e-05)
(-0.000703858 -4.58585e-05 -7.49997e-05)
(-0.000539439 -4.25709e-05 -6.50014e-05)
(-0.000405701 -3.8467e-05 -5.30133e-05)
(-0.000294186 -3.30578e-05 -4.25477e-05)
(-0.000203848 -2.81447e-05 -3.58969e-05)
(-0.000126207 -2.42962e-05 -3.22425e-05)
(-5.56059e-05 -2.17463e-05 -2.58518e-05)
(-1.35226e-05 -1.93248e-05 -6.86052e-06)
(7.57142e-06 -1.86961e-05 -4.06282e-06)
(3.17347e-05 -2.11162e-05 -1.52272e-05)
(7.23938e-05 -2.39057e-05 -1.86892e-05)
(0.000116393 -2.84156e-05 -2.02843e-05)
(0.000167262 -3.49709e-05 -2.35187e-05)
(0.000229832 -4.36419e-05 -2.91906e-05)
(0.000309329 -5.41148e-05 -3.75989e-05)
(0.000414867 -6.56956e-05 -4.89715e-05)
(0.000545843 -7.5221e-05 -6.12298e-05)
(0.000712357 -8.21851e-05 -7.11999e-05)
(0.000860693 -7.50477e-05 -6.16982e-05)
(0.000988881 -0.000100024 -2.82128e-05)
(0.000992502 -0.000142472 8.36482e-05)
(0.000849346 -0.000179589 0.000136551)
(0.000676531 -0.000211835 0.000164285)
(0.000481824 -0.000234466 0.000172326)
(0.000292169 -0.000249282 0.000174736)
(0.000104519 -0.000255943 0.000175075)
(-8.0914e-05 -0.000255 0.000175033)
(-0.000268954 -0.000246478 0.000174608)
(-0.00045941 -0.000229984 0.00017212)
(-0.000655359 -0.000205912 0.000164029)
(-0.000830061 -0.00017289 0.000136406)
(-0.000975416 -0.000135593 8.3738e-05)
(-0.000975525 -9.43568e-05 -2.71667e-05)
(-0.000849936 -7.13216e-05 -6.14996e-05)
(-0.0007015 -7.95845e-05 -7.1681e-05)
(-0.000533536 -7.37001e-05 -6.26971e-05)
(-0.000398717 -6.53262e-05 -5.14373e-05)
(-0.000286982 -5.50416e-05 -4.14616e-05)
(-0.000197874 -4.61497e-05 -3.50757e-05)
(-0.000122035 -3.95019e-05 -3.15676e-05)
(-5.35964e-05 -3.52434e-05 -2.53909e-05)
(-1.29222e-05 -3.13869e-05 -6.92677e-06)