/*--------------------------------*- C++ -*----------------------------------*\
| =========                 |                                                 |
| \\      /  F ield         | OpenFOAM: The Open Source CFD Toolbox           |
|  \\    /   O peration     | Version:  2112                                  |
|   \\  /    A nd           | Website:  www.openfoam.com                      |
|    \\/     M anipulation  |                                                 |
\*---------------------------------------------------------------------------*/
FoamFile
{
    version     2.0;
    format      ascii;
    arch        "LSB;label=32;scalar=64";
    class       volScalarField;
    location    "2.4";
    object      epsilon;
}
// * * * * * * * * * * * * * * * * * * * * * * * * * * * * * * * * * * * * * //

dimensions      [0 2 -3 0 0 0 0];

internalField   nonuniform List<scalar> 
64906
(
0.000605003
0.000682494
0.000725757
0.000743427
0.000749748
0.000751809
0.000752437
0.000752625
0.000752688
0.000752715
0.00075273
0.000752739
0.000752742
0.000752739
0.00075273
0.000752717
0.0007527
0.000752683
0.000752671
0.000752683
0.000752699
0.000752712
0.000752721
0.000752723
0.000752718
0.0007527
0.000752645
0.000752463
0.000751838
0.000749781
0.000743464
0.000725797
0.000682535
0.000605033
0.000682525
0.00117593
0.00144258
0.00156388
0.00161412
0.00163301
0.00163947
0.00164148
0.00164204
0.00164215
0.00164213
0.00164211
0.00164211
0.00164213
0.00164216
0.00164218
0.00164219
0.0016422
0.0016422
0.0016422
0.00164219
0.00164217
0.00164214
0.00164211
0.00164208
0.00164196
0.00164145
0.00163951
0.00163311
0.00161426
0.00156404
0.00144274
0.00117607
0.000682596
0.000725845
0.00144268
0.00185664
0.00205914
0.00214959
0.00218626
0.00219968
0.00220402
0.00220508
0.00220503
0.00220472
0.0022045
0.00220445
0.00220453
0.00220466
0.00220476
0.00220482
0.00220485
0.00220485
0.00220483
0.00220478
0.00220469
0.00220457
0.00220447
0.00220444
0.0022043
0.00220335
0.0021993
0.0021862
0.00214976
0.00205942
0.00185695
0.00144293
0.000725964
0.000743562
0.00156407
0.00205926
0.00231288
0.00243152
0.00248175
0.00250067
0.00250648
0.00250705
0.00250565
0.00250391
0.00250272
0.00250221
0.0025022
0.00250239
0.00250252
0.00250256
0.00250258
0.00250259
0.00250259
0.00250256
0.00250244
0.00250226
0.00250224
0.00250261
0.00250322
0.00250299
0.00249829
0.00248056
0.00243121
0.00231306
0.00205962
0.0015644
0.00074372
0.000749909
0.00161436
0.0021498
0.00243161
0.002567
0.00262549
0.00264712
0.00265207
0.00264931
0.00264322
0.00263702
0.00263308
0.00263131
0.00263103
0.00263131
0.00263136
0.00263124
0.00263116
0.00263117
0.00263128
0.00263141
0.00263138
0.00263111
0.00263135
0.00263293
0.00263612
0.00263984
0.00263842
0.00262062
0.00256496
0.00243116
0.00215003
0.00161473
0.000750098
0.000751981
0.00163328
0.0021865
0.0024819
0.00262557
0.00268741
0.00270798
0.00270743
0.00269472
0.00267582
0.00265814
0.00264845
0.00264473
0.00264454
0.00264534
0.00264517
0.00264462
0.00264427
0.00264429
0.00264466
0.00264524
0.00264543
0.00264463
0.00264478
0.00264828
0.00265714
0.00267206
0.00268267
0.00267292
0.00261889
0.00247962
0.00218619
0.00163356
0.000752193
0.00075261
0.00163974
0.00219993
0.00250088
0.00264737
0.00270829
0.00272259
0.0027079
0.0026713
0.00262142
0.00257728
0.00256009
0.00255695
0.00255966
0.00256285
0.00256251
0.00256119
0.00256042
0.00256044
0.00256124
0.0025626
0.00256296
0.00255979
0.00255704
0.00255996
0.0025763
0.00261762
0.00265888
0.00267216
0.00263046
0.00249453
0.00219832
0.00163975
0.000752831
0.000752788
0.00164173
0.00220427
0.00250683
0.0026528
0.00270882
0.00270967
0.00266637
0.00257921
0.0024594
0.00235577
0.00234416
0.00235824
0.00237373
0.00238401
0.00238433
0.00238242
0.00238131
0.00238133
0.00238247
0.00238443
0.00238414
0.00237388
0.00235837
0.00234411
0.00235493
0.00245583
0.002567
0.00263054
0.00261672
0.00249301
0.00220025
0.00164119
0.000752994
0.000752832
0.00164226
0.0022054
0.00250782
0.00265132
0.00269908
0.00267851
0.00258692
0.00240464
0.00213128
0.00188125
0.00195516
0.00204466
0.00209636
0.00212096
0.00212489
0.00212413
0.00212346
0.00212348
0.00212419
0.00212499
0.0021211
0.00209654
0.00204485
0.00195525
0.00188067
0.00212824
0.00239307
0.00255165
0.0025858
0.00248295
0.00219785
0.00164089
0.000752994
0.000752837
0.00164234
0.00220553
0.00250731
0.00264792
0.00268658
0.00264109
0.0024865
0.00215412
0.00156384
0.000961307
0.00136569
0.00166365
0.00178535
0.00182774
0.0018399
0.00184276
0.0018433
0.00184332
0.00184282
0.00183999
0.00182788
0.00178554
0.00166392
0.00136599
0.000961122
0.00156169
0.00214343
0.00245196
0.00254888
0.00247064
0.00219432
0.00164008
0.000752934
0.00075283
0.00164233
0.00220556
0.00250709
0.00264635
0.00268033
0.00262049
0.00242219
0.00195111
0.000984289
0.000880022
0.00138806
0.00156862
0.00162179
0.00163648
0.00163989
0.00164053
0.00164053
0.00163991
0.00163652
0.00162188
0.00156877
0.00138831
0.000880177
0.000983408
0.00194117
0.00238803
0.00252845
0.00246438
0.00219257
0.00163962
0.000752899
0.000752813
0.00164233
0.00220581
0.00250792
0.00264866
0.00268678
0.00263928
0.0024799
0.00213918
0.00153855
0.00094264
0.00127856
0.00154375
0.0016486
0.00168091
0.00169135
0.00169301
0.00169292
0.00169292
0.00169299
0.00169133
0.00168087
0.00164858
0.00154374
0.00127842
0.000942226
0.00153591
0.00212818
0.00244511
0.00254673
0.00247032
0.00219434
0.00163993
0.000752902
0.000752787
0.00164235
0.00220622
0.00250942
0.00265319
0.00269968
0.00267432
0.00257105
0.00236572
0.00205406
0.00175038
0.00173066
0.00173848
0.00174661
0.00175002
0.00175078
0.00175002
0.00174943
0.00174942
0.00174999
0.00175072
0.00174992
0.00174647
0.00173824
0.00173019
0.00174921
0.00205055
0.00235385
0.00253544
0.00258098
0.00248244
0.00219813
0.00164074
0.000752918
0.000752754
0.00164236
0.00220663
0.00251091
0.00265763
0.00271181
0.00270503
0.00264251
0.00251606
0.00232774
0.00212124
0.00197402
0.0018627
0.001813
0.00179546
0.00178947
0.00178716
0.0017863
0.00178629
0.00178711
0.00178938
0.00179533
0.0018128
0.0018624
0.00197352
0.00211993
0.00232384
0.00250361
0.00260619
0.0026109
0.00249376
0.0022018
0.00164153
0.000752916
0.000752717
0.00164237
0.00220694
0.00251201
0.00266079
0.00272005
0.00272464
0.0026845
0.00259502
0.00245243
0.00227034
0.00208245
0.0019236
0.00184715
0.0018187
0.00180916
0.00180595
0.00180489
0.00180486
0.00180588
0.00180905
0.00181855
0.00184693
0.00192328
0.00208182
0.00226899
0.00244836
0.00258223
0.00264768
0.00262991
0.00250137
0.00220434
0.00164208
0.000752888
0.000752676
0.00164235
0.00220713
0.00251269
0.00266264
0.00272463
0.00273493
0.00270513
0.00263081
0.00250394
0.00232728
0.0021256
0.00194867
0.00186158
0.00182853
0.00181741
0.00181371
0.00181245
0.00181242
0.00181362
0.00181729
0.00182836
0.00186136
0.00194835
0.00212494
0.00232592
0.00249979
0.00261784
0.00266802
0.00263983
0.00250554
0.00220578
0.00164236
0.00075284
0.000752635
0.00164233
0.00220724
0.00251305
0.00266358
0.00272682
0.00273958
0.00271393
0.00264514
0.00252322
0.00234745
0.00214096
0.00195766
0.00186681
0.00183206
0.00182032
0.00181637
0.00181493
0.00181489
0.00181626
0.00182019
0.00183189
0.00186658
0.00195733
0.0021403
0.00234609
0.00251904
0.00263209
0.00267668
0.00264428
0.00250749
0.00220647
0.00164248
0.000752782
0.000752596
0.00164231
0.00220729
0.00251322
0.00266398
0.00272768
0.00274132
0.00271705
0.00264998
0.0025294
0.00235366
0.00214566
0.0019604
0.00186841
0.00183313
0.00182116
0.00181707
0.00181549
0.00181543
0.00181695
0.00182101
0.00183295
0.00186818
0.00196007
0.00214501
0.0023523
0.00252522
0.00263689
0.00267974
0.00264594
0.00250825
0.00220675
0.00164251
0.000752724
0.000752563
0.0016423
0.00220731
0.00251325
0.00266403
0.00272776
0.00274142
0.00271718
0.00265014
0.00252959
0.00235386
0.00214585
0.00196052
0.00186849
0.00183316
0.00182115
0.00181701
0.00181534
0.00181526
0.00181687
0.00182099
0.00183297
0.00186825
0.0019602
0.00214521
0.00235252
0.00252543
0.00263708
0.00267989
0.00264605
0.00250833
0.00220679
0.00164251
0.000752674
0.00075256
0.00164231
0.00220729
0.00251316
0.00266375
0.00272706
0.0027399
0.00271434
0.00264566
0.00252382
0.00234809
0.00214158
0.00195806
0.00186706
0.00183217
0.00182031
0.0018162
0.00181454
0.00181446
0.00181605
0.00182015
0.00183199
0.00186682
0.00195774
0.00214096
0.00234678
0.0025197
0.00263266
0.00267713
0.00264462
0.00250772
0.00220659
0.00164247
0.00075267
0.000752594
0.00164233
0.00220722
0.00251287
0.00266293
0.00272503
0.00273547
0.00270584
0.00263171
0.00250503
0.00232848
0.00212679
0.00194943
0.00186207
0.00182878
0.00181745
0.00181351
0.00181198
0.0018119
0.00181337
0.00181729
0.00182859
0.00186185
0.00194914
0.00212623
0.00232724
0.002501
0.00261885
0.00266882
0.00264042
0.00250593
0.00220599
0.00164237
0.000752721
0.000752635
0.00164235
0.00220707
0.00251228
0.0026612
0.00272062
0.00272541
0.00268554
0.00259639
0.00245416
0.00227236
0.00208445
0.00192487
0.00184798
0.00181918
0.00180935
0.00180585
0.00180453
0.00180447
0.00180572
0.0018092
0.00181902
0.00184779
0.00192464
0.002084
0.00227124
0.00245032
0.00258379
0.00264886
0.00263076
0.00250194
0.00220465
0.00164212
0.000752771
0.000752676
0.00164236
0.0022068
0.00251125
0.00265815
0.00271254
0.00270604
0.00264391
0.00251798
0.00233033
0.00212441
0.00197667
0.00186454
0.00181414
0.00179613
0.00178978
0.00178718
0.00178614
0.0017861
0.00178709
0.00178966
0.00179599
0.001814
0.00186441
0.00197646
0.00212352
0.00232681
0.00250581
0.00260776
0.002612
0.0024945
0.0022022
0.00164161
0.000752804
0.000752712
0.00164236
0.00220641
0.0025098
0.00265377
0.00270052
0.0026755
0.00257272
0.00236813
0.0020575
0.00175488
0.00173433
0.00174024
0.00174724
0.00174998
0.00175033
0.00174932
0.0017486
0.00174857
0.00174925
0.00175022
0.00174983
0.00174707
0.00174014
0.00173441
0.00175439
0.00205456
0.00235657
0.00253726
0.00258223
0.00248327
0.00219859
0.00164085
0.000752811
0.000752739
0.00164232
0.00220595
0.00250822
0.00264915
0.00268753
0.00264036
0.0024815
0.00214163
0.00154218
0.00094463
0.00128011
0.00154159
0.00164444
0.00167547
0.0016853
0.0016867
0.0016865
0.00168647
0.0016866
0.00168507
0.001675
0.00164366
0.00154076
0.00128016
0.000944353
0.00154014
0.0021306
0.00244655
0.00254773
0.00247104
0.00219478
0.00164003
0.000752799
0.000752752
0.00164221
0.00220539
0.00250688
0.00264618
0.00268028
0.00262057
0.00242232
0.00195131
0.000984314
0.000874295
0.0013707
0.00154386
0.00159229
0.00160513
0.00160796
0.00160838
0.00160829
0.00160762
0.00160426
0.00159024
0.00153984
0.00136501
0.000871322
0.000982434
0.00193945
0.0023868
0.00252799
0.00246433
0.00219264
0.0016396
0.000752795
0.000752725
0.00164171
0.00220414
0.00250521
0.00264537
0.00268384
0.0026382
0.00248318
0.00214992
0.00155888
0.000956578
0.00133114
0.00160134
0.00169561
0.00172069
0.00172766
0.00172954
0.0017299
0.00172973
0.00172875
0.00172523
0.00171403
0.00168066
0.00157614
0.00130906
0.000949238
0.00154718
0.00213166
0.00244454
0.00254465
0.00246826
0.00219305
0.00163953
0.000752799
0.000752567
0.00163982
0.00219996
0.00249968
0.00264132
0.00268795
0.00266635
0.00257264
0.0023852
0.00210067
0.00182821
0.00185239
0.00187795
0.00186117
0.00184586
0.00183933
0.00183727
0.00183665
0.00183636
0.00183587
0.00183459
0.00183155
0.00182518
0.0018097
0.00178326
0.00177722
0.00206378
0.00235441
0.00252871
0.00257158
0.00247379
0.00219236
0.00163851
0.000752701
0.00075196
0.00163347
0.00218682
0.00248159
0.00262227
0.00267512
0.00267349
0.00262593
0.00252844
0.00238508
0.00223414
0.0021398
0.00204093
0.00193918
0.00188982
0.00187193
0.00186646
0.00186497
0.00186459
0.0018646
0.00186524
0.00186852
0.00188145
0.00192168
0.00201694
0.00214007
0.00232296
0.00248561
0.00257783
0.00257959
0.00246607
0.00218262
0.00163299
0.000752142
0.000749911
0.00161465
0.00215038
0.00243212
0.00256615
0.00262001
0.00262985
0.00260943
0.00255997
0.00248086
0.00237874
0.00226432
0.00213015
0.00200188
0.00194006
0.00191747
0.0019105
0.00190863
0.00190822
0.00190845
0.00190997
0.00191612
0.00193707
0.00199667
0.00212535
0.00227137
0.00241108
0.00251443
0.00256274
0.00254211
0.00242402
0.00214863
0.00161476
0.00075012
0.000743591
0.00156443
0.00206003
0.00231391
0.00243224
0.00248061
0.00249417
0.00248762
0.00246375
0.00242009
0.00235377
0.0022642
0.00215583
0.00205396
0.00200017
0.00197895
0.00197211
0.00197027
0.00196991
0.00197018
0.00197186
0.00197847
0.00199906
0.00205238
0.00215515
0.00226788
0.00236395
0.00242711
0.0024495
0.00242026
0.00231053
0.00205977
0.00156486
0.000743806
0.000725908
0.00144307
0.00185748
0.00206038
0.00215103
0.0021873
0.00219887
0.00219823
0.00218831
0.00216727
0.00213156
0.00207914
0.00201436
0.00195363
0.00191894
0.00190417
0.00189911
0.00189768
0.0018974
0.00189765
0.00189903
0.00190398
0.00191859
0.0019532
0.00201431
0.00208034
0.00213388
0.00216625
0.00217346
0.00214652
0.00205972
0.00185799
0.00144361
0.000726111
0.000682617
0.00117629
0.00144328
0.00156492
0.00161546
0.0016345
0.00164072
0.00164152
0.00163878
0.00163173
0.00161845
0.00159758
0.00157095
0.00154546
0.00153006
0.00152311
0.00152059
0.00151983
0.00151968
0.00151984
0.0015206
0.00152311
0.00153002
0.00154541
0.00157099
0.00159788
0.00161873
0.00163026
0.00163081
0.00161484
0.0015654
0.00144394
0.00117675
0.000682784
0.000605081
0.000682672
0.000726082
0.000743901
0.000750365
0.000752572
0.000753337
0.000753605
0.000753587
0.000753216
0.00075233
0.000750648
0.00074824
0.000745732
0.000744151
0.000743372
0.000743012
0.000742821
0.000742749
0.000742833
0.000743023
0.000743374
0.000744137
0.0007457
0.000748191
0.000750595
0.000752259
0.000753004
0.000752775
0.000750751
0.000744289
0.000726393
0.000682874
0.00060519
0.000793715
0.00108924
0.00126454
0.00134507
0.00137789
0.00138997
0.00139401
0.00139523
0.00139554
0.00139557
0.00139551
0.00139544
0.00139539
0.00139535
0.00139532
0.00139529
0.00139527
0.00139525
0.00139525
0.00139526
0.00139528
0.0013953
0.00139533
0.00139537
0.0013954
0.00139538
0.00139511
0.00139394
0.00138994
0.00137789
0.00134509
0.00126457
0.00108927
0.000793743
0.00108925
0.00130109
0.00150116
0.00160512
0.00165118
0.00166929
0.00167566
0.00167766
0.00167816
0.00167817
0.00167806
0.00167794
0.00167785
0.0016778
0.00167777
0.00167775
0.00167773
0.00167773
0.00167773
0.00167774
0.00167775
0.00167777
0.0016778
0.00167784
0.00167789
0.00167786
0.00167741
0.0016755
0.00166921
0.00165117
0.00160514
0.00150119
0.00130112
0.00108928
0.00126461
0.0015012
0.0017452
0.00188066
0.00194479
0.0019717
0.00198176
0.001985
0.0019857
0.00198551
0.00198511
0.00198476
0.00198455
0.00198446
0.00198443
0.00198441
0.0019844
0.00198439
0.00198439
0.0019844
0.00198442
0.00198444
0.00198447
0.00198454
0.00198467
0.00198473
0.00198413
0.00198115
0.00197138
0.00194468
0.00188066
0.00174527
0.00150128
0.0012647
0.00134521
0.00160521
0.00188071
0.0020392
0.00211722
0.00215123
0.00216424
0.00216819
0.00216845
0.0021673
0.00216589
0.00216485
0.0021643
0.0021641
0.00216406
0.00216403
0.00216399
0.00216397
0.00216397
0.002164
0.00216405
0.00216408
0.00216412
0.00216429
0.00216472
0.00216533
0.00216532
0.00216215
0.00215002
0.00211669
0.00203907
0.00188077
0.00160532
0.00134534
0.00137808
0.00165131
0.00194489
0.00211728
0.00220402
0.00224245
0.00225684
0.00226007
0.00225809
0.00225391
0.0022497
0.00224693
0.00224564
0.00224527
0.00224523
0.00224517
0.00224505
0.00224497
0.00224497
0.00224506
0.00224519
0.00224525
0.00224529
0.00224563
0.00224677
0.002249
0.00225147
0.00225051
0.00223869
0.00220221
0.00211662
0.00194479
0.0016514
0.00137823
0.00139019
0.00166943
0.00197183
0.00215132
0.0022425
0.00228266
0.00229617
0.00229577
0.0022875
0.00227548
0.00226449
0.00225825
0.00225605
0.0022558
0.00225601
0.00225598
0.00225573
0.00225553
0.00225554
0.00225574
0.002256
0.00225604
0.00225583
0.00225604
0.00225807
0.00226372
0.00227279
0.00227918
0.00227252
0.0022375
0.0021493
0.00197124
0.00166939
0.0013903
0.00139424
0.00167581
0.0019819
0.00216439
0.00225703
0.0022964
0.00230579
0.0022965
0.00227373
0.00224378
0.00221832
0.0022066
0.00220513
0.00220681
0.00220819
0.00220867
0.00220835
0.00220802
0.00220802
0.00220837
0.0022087
0.00220823
0.00220685
0.00220514
0.00220644
0.00221754
0.002241
0.00226507
0.00227237
0.00224517
0.00215946
0.00198024
0.00167543
0.0013942
0.00139546
0.0016778
0.00198517
0.00216849
0.00226063
0.00229677
0.00229771
0.00227111
0.00221929
0.00215244
0.00210015
0.00208135
0.00208829
0.00209758
0.00210238
0.00210496
0.00210512
0.00210478
0.00210479
0.00210514
0.00210499
0.00210243
0.00209764
0.00208832
0.00208122
0.0020994
0.00214967
0.00221056
0.00224666
0.00223632
0.00215836
0.00198161
0.00167679
0.00139511
0.00139576
0.0016783
0.00198596
0.00216908
0.00225957
0.00229048
0.0022785
0.00222443
0.0021232
0.00199029
0.00191095
0.00186618
0.00190164
0.00193147
0.00194317
0.0019517
0.0019539
0.00195405
0.00195406
0.00195392
0.00195174
0.00194324
0.00193155
0.00190172
0.00186612
0.00191023
0.00198757
0.00211448
0.00219989
0.00221682
0.00215151
0.00197971
0.0016764
0.00139493
0.00139579
0.00167835
0.00198598
0.00216862
0.00225722
0.0022826
0.00225659
0.00217088
0.00200886
0.00180496
0.00212278
0.00158956
0.00167272
0.00174033
0.00176166
0.00178067
0.00178652
0.00178761
0.00178762
0.00178655
0.00178072
0.00176173
0.00174044
0.00167285
0.00158956
0.00212132
0.00180198
0.002
0.00214619
0.00219471
0.00214335
0.00197698
0.00167553
0.00139445
0.00139575
0.0016783
0.00198591
0.00216832
0.00225603
0.00227872
0.0022457
0.00214524
0.00197594
0.00224122
0.00172935
0.00151599
0.00160046
0.00164306
0.00165111
0.00165193
0.00165188
0.00165188
0.00165195
0.00165114
0.00164311
0.00160055
0.00151611
0.00172962
0.0022344
0.00196658
0.00212032
0.00218363
0.00213924
0.00197555
0.001675
0.00139413
0.0013957
0.00167827
0.001986
0.00216872
0.00225725
0.0022821
0.00225453
0.00216534
0.0019963
0.00177676
0.00201603
0.00151805
0.001626
0.00171267
0.00177412
0.0017497
0.00173831
0.00173546
0.00173545
0.00173829
0.00174966
0.00177409
0.00171264
0.00162595
0.00151778
0.00201402
0.00177354
0.00198726
0.00214046
0.00219238
0.00214246
0.00197655
0.00167522
0.00139421
0.00139567
0.00167829
0.00198623
0.00216961
0.00226
0.00228977
0.00227441
0.00221258
0.00209572
0.0019336
0.00180505
0.00171766
0.00172789
0.00174211
0.00175629
0.00174749
0.00174223
0.00174056
0.00174055
0.00174221
0.00174745
0.00175625
0.00174204
0.00172775
0.00171732
0.00180406
0.00193063
0.00208675
0.00218768
0.00221216
0.00214997
0.0019791
0.00167595
0.00139456
0.00139563
0.00167831
0.00198647
0.00217054
0.00226278
0.00229731
0.00229304
0.00225428
0.00217828
0.00206908
0.00195345
0.0018629
0.00181143
0.00177942
0.00176768
0.00176108
0.00175821
0.00175726
0.00175726
0.00175819
0.00176105
0.00176763
0.00177933
0.00181126
0.00186255
0.00195248
0.0020661
0.00216926
0.00222929
0.00223064
0.00215731
0.00198167
0.00167672
0.00139491
0.00139559
0.00167832
0.00198666
0.00217123
0.00226479
0.00230256
0.0023054
0.00228035
0.0022263
0.00214293
0.00203995
0.00193794
0.00185899
0.0018055
0.00178273
0.00177456
0.0017719
0.00177113
0.00177113
0.00177188
0.00177453
0.00178267
0.0018054
0.00185882
0.00193758
0.00203897
0.00213991
0.0022172
0.00225523
0.00224285
0.00216237
0.0019835
0.00167727
0.00139512
0.00139554
0.00167832
0.00198677
0.00217164
0.00226597
0.0023055
0.00231203
0.00229361
0.0022493
0.00217627
0.00207792
0.00197018
0.00188011
0.00181792
0.00179081
0.00178148
0.00177867
0.00177791
0.0017779
0.00177865
0.00178145
0.00179075
0.00181782
0.00187995
0.00196981
0.00207694
0.00217322
0.00224013
0.00226839
0.00224934
0.00216516
0.00198453
0.00167757
0.00139521
0.00139549
0.00167832
0.00198683
0.00217185
0.00226655
0.0023069
0.00231505
0.00229937
0.00225879
0.00218935
0.00209226
0.00198215
0.00188798
0.00182264
0.00179396
0.00178414
0.00178121
0.00178043
0.00178042
0.00178119
0.00178411
0.0017939
0.00182253
0.00188781
0.00198178
0.00209128
0.00218628
0.00224959
0.00227409
0.00225228
0.00216646
0.00198502
0.00167771
0.00139522
0.00139545
0.00167831
0.00198685
0.00217194
0.00226678
0.00230743
0.00231616
0.0023014
0.00226201
0.00219361
0.00209678
0.00198586
0.0018904
0.00182409
0.00179494
0.00178494
0.00178197
0.00178116
0.00178115
0.00178194
0.00178491
0.00179488
0.00182399
0.00189023
0.00198549
0.0020958
0.00219054
0.0022528
0.0022761
0.00225335
0.00216696
0.00198521
0.00167776
0.00139519
0.00139543
0.00167831
0.00198686
0.00217196
0.0022668
0.00230746
0.0023162
0.00230145
0.00226208
0.00219368
0.00209687
0.00198595
0.00189047
0.00182414
0.00179496
0.00178496
0.00178197
0.00178115
0.00178114
0.00178194
0.00178492
0.0017949
0.00182403
0.0018903
0.00198558
0.0020959
0.00219062
0.00225287
0.00227615
0.00225339
0.00216698
0.00198522
0.00167776
0.00139516
0.00139544
0.00167831
0.00198684
0.00217189
0.00226661
0.00230698
0.00231517
0.00229952
0.00225899
0.00218959
0.00209254
0.00198243
0.0018882
0.00182279
0.00179406
0.00178419
0.00178124
0.00178042
0.00178041
0.00178121
0.00178416
0.001794
0.00182269
0.00188804
0.00198208
0.00209158
0.00218655
0.00224981
0.00227426
0.0022524
0.00216654
0.00198506
0.00167771
0.00139514
0.00139546
0.00167832
0.0019868
0.0021717
0.00226607
0.00230565
0.00231224
0.00229389
0.00224967
0.00217673
0.00207845
0.00197073
0.00188055
0.00181824
0.00179102
0.00178164
0.00177878
0.00177798
0.00177797
0.00177875
0.00178161
0.00179097
0.00181815
0.00188041
0.0019704
0.00207752
0.00217373
0.00224054
0.0022687
0.00224955
0.00216529
0.00198459
0.00167758
0.00139511
0.0013955
0.00167832
0.0019867
0.00217131
0.00226494
0.00230277
0.00230571
0.00228077
0.00222688
0.00214369
0.00204087
0.00193888
0.00185974
0.00180605
0.00178312
0.00177488
0.00177218
0.00177138
0.00177138
0.00177217
0.00177486
0.00178309
0.001806
0.00185964
0.00193861
0.00204
0.00214076
0.00221784
0.00225569
0.00224315
0.00216256
0.0019836
0.00167729
0.00139501
0.00139554
0.00167831
0.00198652
0.00217064
0.00226296
0.00229758
0.00229343
0.00225485
0.0021791
0.00207022
0.00195489
0.00186434
0.00181251
0.00178014
0.00176814
0.00176149
0.00175859
0.00175764
0.00175764
0.00175859
0.00176148
0.00176813
0.00178011
0.00181246
0.00186416
0.0019541
0.00206738
0.00217016
0.00222989
0.00223104
0.00215755
0.0019818
0.00167675
0.00139479
0.00139557
0.00167828
0.00198626
0.00216971
0.00226018
0.00229006
0.00227484
0.00221323
0.00209671
0.00193508
0.00180704
0.00171947
0.00172869
0.00174216
0.00175588
0.00174705
0.00174179
0.00174012
0.00174012
0.00174179
0.00174704
0.00175584
0.00174207
0.00172857
0.00171929
0.00180628
0.00193224
0.00208776
0.00218831
0.00221256
0.00215021
0.00197922
0.00167598
0.00139443
0.00139559
0.00167823
0.00198597
0.00216873
0.00225732
0.00228225
0.00225481
0.0021658
0.00199705
0.00177804
0.00202083
0.00151771
0.00162344
0.00170848
0.001769
0.0017442
0.00173266
0.00172979
0.00172979
0.00173264
0.00174408
0.00176871
0.00170776
0.00162233
0.00151653
0.00201923
0.00177442
0.00198757
0.00214059
0.00219247
0.00214252
0.00197658
0.0016752
0.00139406
0.00139555
0.00167811
0.00198559
0.00216791
0.00225558
0.00227826
0.00224523
0.00214466
0.00197501
0.00223763
0.00170391
0.00149671
0.00157525
0.00161361
0.00162001
0.00162041
0.00162027
0.00162022
0.00162016
0.00161926
0.00161169
0.00157115
0.00148977
0.00169052
0.00222477
0.00196336
0.00211854
0.00218263
0.00213867
0.0019752
0.00167479
0.00139386
0.00139526
0.00167759
0.00198467
0.00216679
0.00225502
0.00228015
0.00225383
0.00216743
0.00200367
0.00179459
0.00208112
0.00154936
0.00161503
0.00166403
0.00167336
0.00168725
0.00169202
0.001693
0.00169287
0.00169139
0.00168522
0.00166775
0.00165151
0.00159392
0.00152341
0.00204
0.00177869
0.0019884
0.00213969
0.00219086
0.00214095
0.00197549
0.0016747
0.00139383
0.00139409
0.00167565
0.00198149
0.00216294
0.0022522
0.00228225
0.00226935
0.00221344
0.0021078
0.00196443
0.0018621
0.00178592
0.00178133
0.00177378
0.0017612
0.00175906
0.00175877
0.00175861
0.00175837
0.0017576
0.00175509
0.00174985
0.00174803
0.0017406
0.00173902
0.00182112
0.00193768
0.00208648
0.00218326
0.00220612
0.00214421
0.00197486
0.00167362
0.00139314
0.0013901
0.00166935
0.00197162
0.00215047
0.00223944
0.00227348
0.00227256
0.0022428
0.00218382
0.00210118
0.00201839
0.00195261
0.0019019
0.00186133
0.00182874
0.00181503
0.00181061
0.00180936
0.00180903
0.00180895
0.00180922
0.00181159
0.00182244
0.00184893
0.00188977
0.00196538
0.00206493
0.00215727
0.00221091
0.00221024
0.00213866
0.00196753
0.00166817
0.00138961
0.00137805
0.0016513
0.00194488
0.00211699
0.00220258
0.00223764
0.00224397
0.00223062
0.0021994
0.00215156
0.00209274
0.00202936
0.00196451
0.00191077
0.00187005
0.00185203
0.00184593
0.00184419
0.00184381
0.00184404
0.00184546
0.00185085
0.00186772
0.00190702
0.00196236
0.00203661
0.00211287
0.00217192
0.00219981
0.00218539
0.00211026
0.00194266
0.00165074
0.00137789
0.00134523
0.00160526
0.00188083
0.0020393
0.00211687
0.00214931
0.0021583
0.00215361
0.00213765
0.0021099
0.00206996
0.00201888
0.00196098
0.0019092
0.00187386
0.00185764
0.00185182
0.00185007
0.0018497
0.00185003
0.00185169
0.00185731
0.00187318
0.00190828
0.00196103
0.00202226
0.00207707
0.00211445
0.00212748
0.00210746
0.00203584
0.00187981
0.00160506
0.00134525
0.00126468
0.00150128
0.0017454
0.00188096
0.00194502
0.00197135
0.00197966
0.00197881
0.00197118
0.00195601
0.00193164
0.00189752
0.00185702
0.00181975
0.00179518
0.0017835
0.0017791
0.00177771
0.00177741
0.00177771
0.0017791
0.00178346
0.00179506
0.00181964
0.00185731
0.00189883
0.0019336
0.00195526
0.00195993
0.00194044
0.00187945
0.00174504
0.00150127
0.00126477
0.00108933
0.00130118
0.00150137
0.00160547
0.00165162
0.0016696
0.00167537
0.00167571
0.00167247
0.0016651
0.00165217
0.00163286
0.00160904
0.00158664
0.00157216
0.00156521
0.00156252
0.00156164
0.00156146
0.00156167
0.00156257
0.00156526
0.00157221
0.00158672
0.00160925
0.00163334
0.00165259
0.00166368
0.00166456
0.00164983
0.00160502
0.00150134
0.00130122
0.00108943
0.000793787
0.00108933
0.0012648
0.00134552
0.0013785
0.00139064
0.00139449
0.00139491
0.00139313
0.00138869
0.00138036
0.00136725
0.00135046
0.00133439
0.00132456
0.00132002
0.00131827
0.00131767
0.00131753
0.00131769
0.00131831
0.00132007
0.0013246
0.00133444
0.00135056
0.00136748
0.00138051
0.00138771
0.00138805
0.00137781
0.00134552
0.00126494
0.00108943
0.000793886
0.000896212
0.00135957
0.00164855
0.00178935
0.00185057
0.00187464
0.00188319
0.0018859
0.00188657
0.00188657
0.00188637
0.00188615
0.00188596
0.00188584
0.00188576
0.00188569
0.00188565
0.00188563
0.00188562
0.00188565
0.00188569
0.00188575
0.00188583
0.00188593
0.00188605
0.00188605
0.00188547
0.00188289
0.00187446
0.00185048
0.00178931
0.00164853
0.00135957
0.000896242
0.00135956
0.00151388
0.00172636
0.00184654
0.00190352
0.00192735
0.00193623
0.00193914
0.00193988
0.00193989
0.00193968
0.00193945
0.00193928
0.00193917
0.0019391
0.00193906
0.00193903
0.00193901
0.00193901
0.00193903
0.00193906
0.00193911
0.00193917
0.00193926
0.00193936
0.00193933
0.00193867
0.00193589
0.00192714
0.00190342
0.00184651
0.00172636
0.00151388
0.00135956
0.00164863
0.00172639
0.00194479
0.00207969
0.00214838
0.00217904
0.00219115
0.00219522
0.00219609
0.00219579
0.00219516
0.00219459
0.0021942
0.00219398
0.00219387
0.0021938
0.00219375
0.00219373
0.00219373
0.00219376
0.00219381
0.00219388
0.00219398
0.00219417
0.00219444
0.00219459
0.00219387
0.00219016
0.00217845
0.00214809
0.0020796
0.0019448
0.00172642
0.00164866
0.00178952
0.00184661
0.00207974
0.00222951
0.00230873
0.00234539
0.00236016
0.00236481
0.00236507
0.00236359
0.00236173
0.00236025
0.00235935
0.00235889
0.00235868
0.00235856
0.00235847
0.00235842
0.00235842
0.00235847
0.00235857
0.00235868
0.00235889
0.0023593
0.00236003
0.00236094
0.00236098
0.00235729
0.00234362
0.00230784
0.00222917
0.00207968
0.00184666
0.00178959
0.00185082
0.00190364
0.00214847
0.00230878
0.00239525
0.00243581
0.00245172
0.00245541
0.00245315
0.00244834
0.00244339
0.00243985
0.00243795
0.00243709
0.00243671
0.00243653
0.00243638
0.00243627
0.00243627
0.00243638
0.00243655
0.00243672
0.0024371
0.0024379
0.00243958
0.00244241
0.0024452
0.00244397
0.00243096
0.00239273
0.00230771
0.00214814
0.00190361
0.00185086
0.00187493
0.00192748
0.00217917
0.0023455
0.00243589
0.00247789
0.00249265
0.00249241
0.00248362
0.00247093
0.00245917
0.00245167
0.00244853
0.00244734
0.00244676
0.00244674
0.00244655
0.00244636
0.00244637
0.00244656
0.00244675
0.00244677
0.00244735
0.00244847
0.00245138
0.00245809
0.00246746
0.00247356
0.00246592
0.00242957
0.00234268
0.00217814
0.00192721
0.00187479
0.00188351
0.00193638
0.00219131
0.00236036
0.002452
0.00249298
0.00250334
0.00249412
0.00247142
0.00244236
0.00241756
0.0024032
0.00240027
0.00239992
0.00239913
0.00240039
0.00240056
0.00240032
0.00240032
0.00240057
0.00240041
0.00239915
0.00239994
0.00240022
0.00240291
0.00241642
0.00243871
0.00246087
0.00246653
0.00243808
0.00235405
0.00218886
0.00193556
0.00188292
0.00188623
0.00193931
0.00219546
0.00236524
0.00245622
0.00249375
0.00249566
0.00247019
0.00242213
0.00236359
0.00231936
0.00228994
0.00229409
0.00229869
0.00229682
0.00230359
0.00230546
0.00230539
0.0023054
0.00230548
0.00230362
0.00229686
0.00229872
0.00229407
0.00228967
0.00231821
0.00235985
0.00241131
0.00244201
0.00242929
0.00235304
0.0021906
0.00193754
0.00188482
0.00188693
0.00194009
0.0021965
0.00236601
0.00245518
0.00248745
0.00247732
0.00242846
0.00234317
0.00224538
0.00221105
0.00210578
0.00213606
0.00215653
0.00214781
0.00217351
0.00218089
0.00218175
0.00218176
0.00218092
0.00217355
0.00214786
0.0021566
0.0021361
0.00210555
0.00220978
0.00224143
0.00233203
0.0023998
0.00241028
0.00234583
0.00218841
0.00193702
0.00188436
0.00188699
0.00194019
0.00219654
0.00236548
0.00245269
0.00247972
0.0024577
0.0023862
0.00227081
0.0021966
0.00293788
0.00188023
0.00196702
0.00202503
0.00198962
0.00206514
0.0020857
0.00208889
0.0020889
0.00208574
0.00206521
0.00198968
0.00202515
0.00196715
0.00188004
0.0029344
0.00219151
0.00225899
0.00235697
0.00239008
0.00233749
0.00218528
0.00193583
0.00188323
0.00188691
0.00194014
0.00219644
0.0023651
0.00245138
0.00247597
0.00244892
0.00237298
0.00230416
0.00320065
0.00205009
0.00174899
0.00184509
0.00190579