/*--------------------------------*- C++ -*----------------------------------*\
| =========                 |                                                 |
| \\      /  F ield         | OpenFOAM: The Open Source CFD Toolbox           |
|  \\    /   O peration     | Version:  2112                                  |
|   \\  /    A nd           | Website:  www.openfoam.com                      |
|    \\/     M anipulation  |                                                 |
\*---------------------------------------------------------------------------*/
FoamFile
{
    version     2.0;
    format      ascii;
    arch        "LSB;label=32;scalar=64";
    class       volScalarField;
    location    "2.4";
    object      k;
}
// * * * * * * * * * * * * * * * * * * * * * * * * * * * * * * * * * * * * * //

dimensions      [0 2 -2 0 0 0 0];

internalField   nonuniform List<scalar> 
64906
(
0.000648048
0.000703241
0.000733365
0.000745625
0.000750044
0.000751503
0.000751953
0.000752089
0.000752134
0.000752152
0.000752162
0.000752167
0.000752168
0.000752166
0.000752159
0.00075215
0.000752138
0.000752126
0.000752118
0.000752127
0.000752138
0.000752147
0.000752153
0.000752155
0.000752152
0.00075214
0.0007521
0.000751969
0.000751522
0.000750065
0.000745649
0.000733392
0.000703269
0.00064807
0.000703263
0.00101331
0.00116301
0.00122862
0.00125561
0.00126583
0.00126937
0.00127049
0.0012708
0.00127085
0.00127084
0.00127082
0.00127082
0.00127083
0.00127084
0.00127085
0.00127086
0.00127086
0.00127086
0.00127086
0.00127085
0.00127085
0.00127083
0.00127082
0.0012708
0.00127074
0.00127046
0.00126938
0.00126588
0.00125569
0.0012287
0.0011631
0.00101339
0.000703313
0.000733427
0.00116306
0.0013783
0.00147849
0.00152266
0.00154062
0.00154726
0.00154943
0.00154996
0.00154993
0.00154976
0.00154963
0.00154959
0.00154962
0.00154968
0.00154972
0.00154975
0.00154976
0.00154976
0.00154976
0.00154973
0.00154969
0.00154964
0.0015496
0.0015496
0.00154954
0.00154906
0.00154705
0.00154057
0.00152273
0.00147862
0.00137846
0.0011632
0.000733509
0.000745718
0.00122872
0.00147855
0.00159957
0.00165524
0.00167883
0.00168779
0.00169056
0.00169083
0.00169014
0.00168928
0.00168868
0.0016884
0.00168837
0.00168844
0.0016885
0.00168851
0.00168852
0.00168852
0.00168852
0.00168851
0.00168847
0.0016884
0.00168841
0.00168862
0.00168893
0.00168883
0.00168659
0.00167821
0.00165506
0.00159964
0.00147872
0.00122889
0.000745827
0.000750155
0.00125574
0.00152276
0.00165529
0.00171777
0.00174475
0.00175479
0.0017571
0.00175581
0.00175295
0.00175001
0.0017481
0.0017472
0.00174703
0.00174712
0.00174713
0.00174707
0.00174702
0.00174703
0.00174708
0.00174715
0.00174715
0.00174706
0.00174722
0.00174802
0.00174956
0.00175131
0.00175063
0.00174238
0.00171674
0.00165502
0.00152285
0.00125593
0.000750285
0.000751622
0.00126598
0.00154074
0.0016789
0.00174478
0.0017731
0.00178257
0.00178233
0.00177649
0.00176778
0.00175959
0.00175497
0.0017531
0.00175291
0.00175322
0.00175312
0.00175285
0.00175269
0.00175269
0.00175287
0.00175315
0.00175326
0.00175295
0.00175312
0.00175488
0.00175909
0.00176597
0.00177079
0.00176626
0.00174156
0.00167774
0.00154055
0.00126611
0.000751767
0.000752073
0.00126951
0.00154739
0.00168789
0.00175491
0.00178272
0.00178929
0.00178263
0.00176596
0.00174319
0.00172285
0.00171458
0.0017128
0.00171384
0.00171522
0.00171502
0.00171439
0.00171403
0.00171404
0.00171442
0.00171506
0.00171527
0.0017139
0.00171283
0.00171451
0.00172236
0.00174133
0.00176005
0.00176596
0.00174691
0.00168477
0.00154653
0.00126949
0.000752222
0.000752202
0.00127062
0.00154956
0.00169074
0.00175747
0.00178301
0.00178347
0.00176386
0.00172422
0.00166926
0.00162096
0.0016147
0.00162059
0.00162749
0.00163217
0.00163227
0.00163135
0.00163082
0.00163083
0.00163138
0.00163232
0.00163223
0.00162756
0.00162065
0.00161466
0.00162052
0.00166748
0.00171835
0.00174706
0.00174062
0.00168406
0.00154748
0.00127029
0.000752338
0.000752234
0.00127092
0.00155013
0.00169122
0.00175679
0.00177857
0.00176937
0.00172787
0.00164428
0.00151554
0.00139309
0.00142817
0.00147086
0.00149547
0.00150723
0.00150907
0.00150868
0.00150834
0.00150835
0.00150871
0.00150912
0.00150729
0.00149555
0.00147095
0.0014282
0.00139276
0.00151395
0.00163857
0.00171116
0.00172644
0.00167934
0.00154629
0.00127011
0.000752337
0.000752236
0.00127097
0.0015502
0.00169098
0.00175522
0.00177289
0.00175245
0.00168216
0.00152684
0.00123101
0.00088768
0.00112162
0.00127945
0.00134133
0.00136268
0.00136879
0.00137023
0.0013705
0.00137051
0.00137026
0.00136884
0.00136275
0.00134143
0.00127959
0.00112178
0.000887552
0.00122976
0.00152137
0.00166556
0.00170954
0.00167357
0.00154454
0.00126967
0.000752291
0.000752231
0.00127096
0.00155021
0.00169087
0.00175449
0.00177004
0.00174313
0.00165267
0.00142871
0.000902325
0.000835199
0.00113218
0.00122872
0.00125655
0.00126427
0.00126608
0.00126642
0.00126643
0.00126609
0.00126429
0.00125659
0.0012288
0.00113232
0.000835299
0.000901727
0.00142346
0.00163611
0.00170018
0.00167063
0.00154368
0.00126942
0.000752265
0.000752219
0.00127096
0.00155033
0.00169126
0.00175554
0.00177293
0.00175151
0.00167889
0.00151927
0.00121694
0.000875491
0.00107139
0.00121473
0.00126923
0.00128578
0.00129128
0.0012922
0.00129217
0.00129216
0.00129219
0.00129127
0.00128576
0.00126921
0.00121473
0.0010713
0.000875217
0.00121542
0.00151364
0.00166216
0.00170844
0.00167336
0.00154454
0.00126958
0.000752267
0.000752201
0.00127097
0.00155054
0.00169197
0.00175762
0.00177876
0.00176725
0.00172018
0.00162531
0.00147673
0.00132479
0.00131247
0.00131506
0.00131866
0.0013202
0.00132061
0.00132024
0.00131994
0.00131994
0.00132022
0.00132057
0.00132015
0.00131858
0.00131494
0.00131222
0.00132415
0.00147489
0.00161943
0.00170327
0.001724
0.001679
0.00154639
0.00127003
0.000752279
0.000752179
0.00127098
0.00155075
0.00169268
0.00175968
0.00178428
0.0017811
0.00175243
0.00169417
0.00160609
0.00150695
0.00143383
0.0013775
0.00135195
0.00134286
0.00133977
0.00133859
0.00133815
0.00133814
0.00133856
0.00133973
0.0013428
0.00135185
0.00137734
0.00143357
0.00150628
0.00160413
0.00168814
0.00173535
0.00173766
0.0016843
0.00154821
0.00127047
0.00075228
0.000752154
0.00127099
0.0015509
0.00169321
0.00176116
0.00178806
0.00179
0.00177141
0.00173005
0.00166368
0.00157754
0.00148656
0.00140782
0.0013691
0.00135452
0.0013496
0.00134795
0.0013474
0.00134739
0.00134791
0.00134955
0.00135444
0.00136899
0.00140766
0.00148625
0.00157686
0.00166167
0.00172392
0.00175419
0.00174639
0.0016879
0.00154948
0.00127078
0.000752263
0.000752126
0.00127098
0.001551
0.00169354
0.00176203
0.00179019
0.00179472
0.0017808
0.00174635
0.00168738
0.0016043
0.00150747
0.00142033
0.00137639
0.00135948
0.00135376
0.00135186
0.00135121
0.00135119
0.00135181
0.0013537
0.0013594
0.00137628
0.00142016
0.00150714
0.00160362
0.00168535
0.00174016
0.00176348
0.00175098
0.00168988
0.0015502
0.00127094
0.000752231
0.000752098
0.00127097
0.00155105
0.00169371
0.00176248
0.00179121
0.00179686
0.00178484
0.00175292
0.00169631
0.00161383
0.00151494
0.00142484
0.00137905
0.00136129
0.00135525
0.00135321
0.00135247
0.00135245
0.00135315
0.00135518
0.0013612
0.00137894
0.00142467
0.00151461
0.00161314
0.00169426
0.0017467
0.00176747
0.00175307
0.00169082
0.00155055
0.00127101
0.000752192
0.000752071
0.00127096
0.00155108
0.00169379
0.00176267
0.00179161
0.00179767
0.00178628
0.00175516
0.00169919
0.00161678
0.00151725
0.00142622
0.00137988
0.00136184
0.00135568
0.00135357
0.00135276
0.00135273
0.00135351
0.0013556
0.00136175
0.00137975
0.00142606
0.00151692
0.0016161
0.00169714
0.00174892
0.00176889
0.00175385
0.00169119
0.0015507
0.00127103
0.000752152
0.000752048
0.00127096
0.00155109
0.00169381
0.00176269
0.00179165
0.00179772
0.00178634
0.00175523
0.00169928
0.00161688
0.00151734
0.00142629
0.00137991
0.00136185
0.00135567
0.00135354
0.00135268
0.00135264
0.00135347
0.00135559
0.00136176
0.00137979
0.00142612
0.00151702
0.0016162
0.00169724
0.00174901
0.00176896
0.0017539
0.00169123
0.00155072
0.00127103
0.000752118
0.000752046
0.00127096
0.00155108
0.00169376
0.00176255
0.00179132
0.00179701
0.00178502
0.00175316
0.00169658
0.00161413
0.00151524
0.00142504
0.00137918
0.00136135
0.00135524
0.00135312
0.00135227
0.00135223
0.00135305
0.00135516
0.00136125
0.00137906
0.00142488
0.00151493
0.00161347
0.00169456
0.00174696
0.00176767
0.00175322
0.00169093
0.00155061
0.00127101
0.000752115
0.000752069
0.00127097
0.00155104
0.00169362
0.00176216
0.00179037
0.00179496
0.00178112
0.00174676
0.00168789
0.00160488
0.00150805
0.00142071
0.00137664
0.00135961
0.00135378
0.00135175
0.00135097
0.00135093
0.00135168
0.0013537
0.00135952
0.00137653
0.00142056
0.00150776
0.00160425
0.00168591
0.00174062
0.00176384
0.00175125
0.00169006
0.0015503
0.00127095
0.000752149
0.000752097
0.00127098
0.00155096
0.00169333
0.00176134
0.00178832
0.00179035
0.00177189
0.00173068
0.00166448
0.0015785
0.00148755
0.00140847
0.00136952
0.00135476
0.0013497
0.0013479
0.00134722
0.00134719
0.00134783
0.00134962
0.00135468
0.00136943
0.00140835
0.00148731
0.00157793
0.00166258
0.00172463
0.00175472
0.00174677
0.00168816
0.00154963
0.0012708
0.000752182
0.000752124
0.00127098
0.00155083
0.00169283
0.00175991
0.00178461
0.00178156
0.00175307
0.00169506
0.00160731
0.0015085
0.00143515
0.00137844
0.00135254
0.0013432
0.00133992
0.00133859
0.00133805
0.00133803
0.00133854
0.00133986
0.00134313
0.00135247
0.00137836
0.00143503
0.00150803
0.00160554
0.00168915
0.00173606
0.00173816
0.00168464
0.0015484
0.00127051
0.000752203
0.000752149
0.00127098
0.00155063
0.00169214
0.00175788
0.00177913
0.00176778
0.00172093
0.00162644
0.00147842
0.00132712
0.00131439
0.00131596
0.00131896
0.00132015
0.00132034
0.00131984
0.00131948
0.00131946
0.00131981
0.00132028
0.00132008
0.00131886
0.00131591
0.00131442
0.00132684
0.00147686
0.0016207
0.00170409
0.00172457
0.00167938
0.00154661
0.00127009
0.000752206
0.000752168
0.00127095
0.0015504
0.00169139
0.00175575
0.00177325
0.00175199
0.00167961
0.00152044
0.00121891
0.000876761
0.00107226
0.00121351
0.00126694
0.00128281
0.00128799
0.00128877
0.00128868
0.00128867
0.00128872
0.00128787
0.00128256
0.00126651
0.00121305
0.00107228
0.000876572
0.00121771
0.00151478
0.00166279
0.00170887
0.00167368
0.00154474
0.00126963
0.000752196
0.000752176
0.00127089
0.00155011
0.00169074
0.00175437
0.00176997
0.00174311
0.00165267
0.00142875
0.000902318
0.000831362
0.00112222
0.00121508
0.00124048
0.00124725
0.00124876
0.00124899
0.00124895
0.00124858
0.00124678
0.00123937
0.00121287
0.00111897
0.000829377
0.000901065
0.00142248
0.00163543
0.00169989
0.00167056
0.00154368
0.00126939
0.000752191
0.000752155
0.00127061
0.00154947
0.00168993
0.00175396
0.00177152
0.00175099
0.00168044
0.0015246
0.0012281
0.000884488
0.00110157
0.00124574
0.00129402
0.00130667
0.0013102
0.00131116
0.00131134
0.00131125
0.00131074
0.00130892
0.00130316
0.00128611
0.00123216
0.00108883
0.000879696
0.00122152
0.00151529
0.00166183
0.00170741
0.00167234
0.00154386
0.00126935
0.000752193
0.00075204
0.00126955
0.00154737
0.00168727
0.00175201
0.00177326
0.00176353
0.00172093
0.00163465
0.00149993
0.0013652
0.00137524
0.00138648
0.00137729
0.00136928
0.00136589
0.00136482
0.0013645
0.00136435
0.0013641
0.00136345
0.00136195
0.00135891
0.00135165
0.00133962
0.00133864
0.00148139
0.00161963
0.00170005
0.00171955
0.00167483
0.00154349
0.00126877
0.000752122
0.000751605
0.00126607
0.00154087
0.0016787
0.00174315
0.00176727
0.00176654
0.00174479
0.00170002
0.00163341
0.00156176
0.00151537
0.00146642
0.00141577
0.00139087
0.00138177
0.00137897
0.0013782
0.00137801
0.00137801
0.00137834
0.00138004
0.00138669
0.0014072
0.00145507
0.00151604
0.00160363
0.00167964
0.00172212
0.00172302
0.00167113
0.00153867
0.00126576
0.000751723
0.000750155
0.0012559
0.00152303
0.00165548
0.00171728
0.00174205
0.00174655
0.00173704
0.00171406
0.00167716
0.00162905
0.00157439
0.00150958
0.0014467
0.00141586
0.00140447
0.00140093
0.00139997
0.00139976
0.00139988
0.00140066
0.00140379
0.00141437
0.00144418
0.00150742
0.00157794
0.00164416
0.0016925
0.00171501
0.00170572
0.00165143
0.00152206
0.00125592
0.000750294
0.000745737
0.00122891
0.00147892
0.00160004
0.00165552
0.00167817
0.00168451
0.00168134
0.00166993
0.00164912
0.00161746
0.00157451
0.00152217
0.00147239
0.00144573
0.00143511
0.00143165
0.00143072
0.00143053
0.00143067
0.00143152
0.00143487
0.00144518
0.00147163
0.0015219
0.00157635
0.00162228
0.00165232
0.00166306
0.00164955
0.00159826
0.00147873
0.00122912
0.000745882
0.00073347
0.00116328
0.00137873
0.00147909
0.00152334
0.00154106
0.00154673
0.00154635
0.00154134
0.0015308
0.001513
0.00148692
0.00145462
0.00142417
0.00140661
0.00139907
0.00139647
0.00139573
0.00139558
0.00139571
0.00139643
0.00139898
0.00140644
0.00142397
0.00145462
0.00148754
0.00151414
0.00153025
0.00153395
0.00152093
0.00147867
0.00137895
0.00116357
0.000733609
0.000703327
0.00101352
0.0011634
0.00122918
0.00125632
0.0012666
0.00126998
0.00127039
0.00126883
0.00126489
0.00125754
0.00124607
0.00123147
0.00121749
0.00120899
0.00120514
0.00120374
0.00120331
0.00120322
0.00120331
0.00120374
0.00120514
0.00120897
0.00121746
0.0012315
0.00124624
0.00125769
0.00126406
0.00126445
0.0012559
0.00122939
0.00116375
0.00101379
0.000703445
0.000648105
0.000703367
0.000733592
0.000745953
0.00075047
0.000752028
0.00075257
0.000752754
0.000752729
0.000752444
0.000751791
0.000750576
0.000748854
0.000747071
0.000745946
0.000745391
0.000745136
0.000745002
0.000744952
0.00074501
0.000745144
0.000745393
0.000745937
0.00074705
0.000748822
0.000750541
0.000751744
0.000752295
0.000752147
0.000750727
0.000746218
0.000733807
0.00070351
0.000648185
0.000922297
0.00114154
0.00126283
0.00131715
0.00133924
0.00134744
0.00135021
0.00135106
0.00135128
0.0013513
0.00135126
0.00135121
0.00135117
0.00135114
0.00135112
0.0013511
0.00135108
0.00135107
0.00135107
0.00135108
0.00135109
0.00135111
0.00135113
0.00135115
0.00135118
0.00135116
0.00135097
0.00135016
0.00134741
0.00133923
0.00131716
0.00126285
0.00114156
0.00092232
0.00114155
0.00211159
0.00250548
0.00268943
0.00277138
0.00280501
0.00281753
0.00282164
0.00282265
0.0028226
0.00282223
0.00282183
0.00282152
0.00282131
0.00282118
0.00282109
0.00282103
0.00282099
0.002821
0.00282103
0.0028211
0.00282119
0.00282131
0.00282149
0.0028217
0.00282173
0.00282084
0.00281696
0.00280466
0.00277119
0.00268933
0.00250543
0.00211157
0.00114157
0.00126288
0.00250559
0.0030245
0.0032794
0.00339951
0.0034518
0.00347236
0.0034793
0.00348078
0.00348022
0.00347908
0.00347804
0.00347733
0.00347695
0.00347676
0.00347665
0.00347656
0.00347651
0.00347651
0.00347656
0.00347666
0.00347678
0.00347695
0.00347728
0.00347778
0.0034781
0.00347691
0.00347062
0.00345075
0.003399
0.0032792
0.00302447
0.00250563
0.00126294
0.00131724
0.00268963
0.0032795
0.00357918
0.00372551
0.00379141
0.00381782
0.00382615
0.00382655
0.00382373
0.00382016
0.00381724
0.0038154
0.00381452
0.00381416
0.0038139
0.00381369
0.00381358
0.00381358
0.00381371
0.00381392
0.00381418
0.00381453
0.00381533
0.00381685
0.00381871
0.00381899
0.00381252
0.00378815
0.00372386
0.00357852
0.00327933
0.00268966
0.00131733
0.00133936
0.00277163
0.00339969
0.0037256
0.00388808
0.00396226
0.00399118
0.00399778
0.00399336
0.00398395
0.00397399
0.00396659
0.00396229
0.00396043
0.00395977
0.00395919
0.00395866
0.00395835
0.00395836
0.00395868
0.00395922
0.0039598
0.00396045
0.0039622
0.0039661
0.00397219
0.00397815
0.0039765
0.00395315
0.00388334
0.00372355
0.00339902
0.00277154
0.00133946
0.00134758
0.00280529
0.00345202
0.00379159
0.00396239
0.00403968
0.00406652
0.00406562
0.00404837
0.00402284
0.00399814
0.00398189
0.00397359
0.00397073
0.00397006
0.00396897
0.00396776
0.00396707
0.00396707
0.00396778
0.003969
0.00397011
0.00397075
0.0039735
0.00398136
0.00399615
0.00401641
0.0040298
0.00401698
0.00395049
0.00378628
0.00345009
0.0028048
0.00134765
0.00135037
0.00281781
0.00347264
0.00381817
0.00399169
0.00406713
0.00408559
0.00406709
0.00402142
0.00396003
0.00390407
0.0038746
0.00386346
0.00386202
0.0038632
0.00386164
0.00385941
0.00385812
0.00385813
0.00385943
0.00386169
0.00386325
0.00386206
0.0038634
0.0038741
0.00390205
0.00395336
0.00400203
0.0040164
0.00396535
0.00380635
0.00346814
0.00281648
0.00135032
0.00135122
0.00282192
0.00347971
0.00382692
0.00399931
0.00406818
0.00407005
0.00401818
0.00391597
0.00377829
0.00365693
0.00362052
0.00362099
0.00363102
0.00363926
0.00363841
0.00363538
0.00363362
0.00363363
0.00363541
0.00363846
0.00363933
0.00363108
0.00362097
0.0036201
0.00365503
0.00377168
0.00389634
0.0039666
0.00394788
0.00380406
0.00347087
0.00281913
0.00135095
0.00135143
0.00282299
0.0034815
0.00382828
0.00399724
0.00405578
0.00403271
0.00392754
0.00372342
0.00342226
0.00314189
0.00316511
0.00323716
0.00328561
0.00330989
0.00331406
0.0033126
0.00331133
0.00331134
0.00331263
0.00331412
0.00330997
0.00328571
0.00323723
0.00316489
0.00314029
0.00341592
0.00370377
0.00387554
0.00390961
0.00379016
0.00346677
0.00281818
0.00135083
0.00135145
0.00282307
0.00348154
0.00382729
0.0039924
0.00404008
0.00398945
0.00381809
0.00345802
0.00278976
0.00179058
0.00242413
0.002754
0.00288748
0.00293332
0.0029512
0.00295551
0.00295609
0.00295609
0.00295554
0.00295125
0.00293341
0.00288761
0.00275419
0.0024243
0.00178968
0.00278389
0.00343829
0.00376566
0.00386569
0.00377361
0.00346096
0.00281623
0.00135049
0.00135143
0.00282294
0.00348136
0.00382661
0.00398983
0.00403191
0.00396597
0.00375193
0.0032557
0.00185833
0.00155651
0.00236862
0.00258262
0.00264921
0.00266756
0.00267161
0.00267225
0.00267225
0.00267163
0.00266759
0.00264927
0.00258275
0.00236885
0.00155667
0.00185422
0.00323578
0.00369907
0.00384173
0.00376491
0.00345782
0.002815
0.00135027
0.0013514
0.00282285
0.00348154
0.00382737
0.00399205
0.00403809
0.00398343
0.00380384
0.00342908
0.00273625
0.0017273
0.00226412
0.00257188
0.00269631
0.00274404
0.00274914
0.00274795
0.00274705
0.00274704
0.00274792
0.0027491
0.00274398
0.00269625
0.00257181
0.00226384
0.00172605
0.00272995
0.00340905
0.00375108
0.00385918
0.00377092
0.00345972
0.00281534
0.00135033
0.00135137
0.00282286
0.00348204
0.0038292
0.0039974
0.00405254
0.00402067
0.00389675
0.00365714
0.00329423
0.00291847
0.0028201
0.00278951
0.00278658
0.00278974
0.0027877
0.00278552
0.00278448
0.00278447
0.00278549
0.00278765
0.00278965
0.00278644
0.00278924
0.00281945
0.0029165
0.00328754
0.00363711
0.00384414
0.00389654
0.00378534
0.00346486
0.0028168
0.00135057
0.00135135
0.0028229
0.00348261
0.00383117
0.00400301
0.00406702
0.00405531
0.0039737
0.00381466
0.00358019
0.00331507
0.00310232
0.00293622
0.00285892
0.00283194
0.00282277
0.00281957
0.00281855
0.00281854
0.00281955
0.00282273
0.00283186
0.00285876
0.00293591
0.00310164
0.00331297
0.00357334
0.00379454
0.00392107
0.00393114
0.0037997
0.00347022
0.00281842
0.00135082
0.00135132
0.00282294
0.00348305
0.0038327
0.00400721
0.0040774
0.0040787
0.00402145
0.00390158
0.00371587
0.00347973
0.00323195
0.00301331
0.00290167
0.00285945
0.00284583
0.00284182
0.00284077
0.00284077
0.0028418
0.00284579
0.00285937
0.00290151
0.00301301
0.00323132
0.0034776
0.00370892
0.00388134
0.00396869
0.00395439
0.00380989
0.00347416
0.00281962
0.00135098
0.00135129
0.00282295
0.00348333
0.00383365
0.00400975
0.00408345
0.00409165
0.00404624
0.00394321
0.00377513
0.00354652
0.00328585
0.00304725
0.00292156
0.00287277
0.00285705
0.00285261
0.00285153
0.00285153
0.00285259
0.00285702
0.0028727
0.0029214
0.00304696
0.00328522
0.00354437
0.00376811
0.00392287
0.00399335
0.00396717
0.00381573
0.00347647
0.00282032
0.00135104
0.00135126
0.00282294
0.00348348
0.00383414
0.00401104
0.00408642
0.00409776
0.00405737
0.00396083
0.00379863
0.00357164
0.00330604
0.00306018
0.00292929
0.00287803
0.00286147
0.00285684
0.00285575
0.00285574
0.00285683
0.00286144
0.00287796
0.00292914
0.0030599
0.00330542
0.00356948
0.00379159
0.00394042
0.00400438
0.00397316
0.00381856
0.0034776
0.00282065
0.00135105
0.00135123
0.00282294
0.00348354
0.00383435
0.00401157
0.00408759
0.00410008
0.00406143
0.00396698
0.00380648
0.0035797
0.00331243
0.00306428
0.00293174
0.00287969
0.00286286
0.00285816
0.00285706
0.00285705
0.00285815
0.00286283
0.00287962
0.00293159
0.003064
0.00331181
0.00357754
0.00379942
0.00394654
0.0040084
0.00397542
0.00381966
0.00347805
0.00282077
0.00135103
0.00135122
0.00282293
0.00348354
0.00383437
0.0040116
0.00408764
0.00410014
0.0040615
0.00396708
0.00380659
0.00357981
0.00331254
0.0030644
0.00293182
0.00287973
0.00286288
0.00285818
0.00285707
0.00285706
0.00285816
0.00286286
0.00287967
0.00293167
0.00306412
0.00331192
0.00357766
0.00379954
0.00394665
0.00400848
0.00397548
0.0038197
0.00347807
0.00282077
0.00135102
0.00135122
0.00282294
0.0034835
0.0038342
0.00401114
0.00408656
0.00409794
0.00405761
0.00396112
0.00379898
0.00357201
0.00330642
0.00306056
0.00292954
0.00287819
0.00286158
0.00285693
0.00285582
0.00285581
0.00285692
0.00286156
0.00287813
0.0029294
0.00306029
0.00330581
0.00356988
0.00379196
0.00394074
0.00400464
0.00397335
0.00381868
0.00347766
0.00282065
0.001351
0.00135124
0.00282294
0.00348337
0.00383374
0.00400991
0.00408368
0.00409197
0.00404666
0.00394375
0.00377578
0.00354725
0.0032866
0.003048
0.00292211
0.00287317
0.00285737
0.0028529
0.00285181
0.00285181
0.00285289
0.00285736
0.00287312
0.00292199
0.00304777
0.00328603
0.00354517
0.00376884
0.00392347
0.00399381
0.0039675
0.00381594
0.00347657
0.00282032
0.00135098
0.00135127
0.00282292
0.00348311
0.00383283
0.00400743
0.00407773
0.00407916
0.00402208
0.00390243
0.00371697
0.00348104
0.00323327
0.00301462
0.00290268
0.00286024
0.00284654
0.00284251
0.00284147
0.00284147
0.00284252
0.00284655
0.00286023
0.00290261
0.00301445
0.00323278
0.00347906
0.00371016
0.00388229
0.00396938
0.00395486
0.00381018
0.00347431
0.00281964
0.0013509
0.00135129
0.00282288
0.00348267
0.00383133
0.00400327
0.00406741
0.00405588
0.00397453
0.00381588
0.00358192
0.00331731
0.0031047
0.00293818
0.00286034
0.00283307
0.00282383
0.00282064
0.00281964
0.00281966
0.00282067
0.00282388
0.00283311
0.00286034
0.0029381
0.00310434
0.0033155
0.00357529
0.00379587
0.00392194
0.00393171
0.00380005
0.00347039
0.00281843
0.00135074
0.00135131
0.00282281
0.00348206
0.0038293
0.00399761
0.0040529
0.00402124
0.00389764
0.00365862
0.00329666
0.00292199
0.00282343
0.00279116
0.00278707
0.00278968
0.00278752
0.00278538
0.00278439
0.00278441
0.00278543
0.00278757
0.00278968
0.00278696
0.002791
0.00282324
0.0029205
0.00329026
0.00363856
0.0038449
0.00389699
0.00378561
0.00346498
0.00281678
0.00135049
0.00135132
0.00282269
0.00348136
0.00382719
0.00399191
0.00403802
0.00398351
0.0038042
0.00343009
0.00273891
0.0017301
0.00226501
0.00256754
0.00268896
0.00273501
0.00273956
0.00273831
0.00273746
0.00273747
0.0027383
0.00273941
0.00273446
0.00268773
0.00256587
0.00226444
0.00172909
0.00273266
0.00340921
0.00375064
0.0038588
0.00377068
0.00345955
0.00281516
0.00135022
0.00135128
0.0028224
0.00348046
0.00382538
0.00398835
0.00403027
0.00396416
0.00374985
0.00325336
0.00185615
0.00154038
0.00233514
0.00253831
0.00259764
0.00261369
0.00261736
0.00261798
0.0026179
0.00261697
0.00261246
0.00259438
0.00253135
0.00232413
0.00153195
0.0018485
0.00322922
0.00369421
0.00383863
0.00376303
0.00345669
0.00281434
0.00135009
0.00135108
0.00282126
0.00347831
0.00382277
0.00398687
0.00403374
0.00398216
0.00380908
0.00344575
0.00277181
0.00176563
0.00234846
0.00264272
0.00274001
0.00276238
0.00277407
0.0027779
0.00277871
0.00277848
0.0027768
0.00277048
0.00275231
0.00271676
0.00260169
0.00230347
0.00174126
0.00274454
0.00341232
0.00374942
0.00385564
0.0037673
0.00345709
0.00281412
0.00135005
0.00135026
0.00281723
0.0034714
0.00381443
0.00398053
0.00403686
0.00401127
0.00390145
0.00368725
0.00336448
0.00304076
0.00299376
0.00298076
0.00294076
0.00291263
0.00290312
0.00290042
0.00289963
0.00289921
0.00289835
0.00289599
0.00289147
0.0028885
0.00288378
0.00288891
0.00295642
0.00330516
0.00363826
0.00383571
0.00388401
0.00377293
0.00345549
0.00281193
0.00134957
0.00134752
0.00280486
0.00345121
0.00378908
0.00395471
0.00401876
0.00401588
0.00395595
0.00383643
0.00366224
0.00347179
0.00332556
0.00318131
0.00304068
0.00296833
0.00294155
0.00293329
0.00293103
0.00293046
0.00293043
0.00293133
0.00293656
0.00295783
0.00302115
0.00316195
0.00334327
0.00357524
0.00377356
0.0038857
0.00389033
0.00376145
0.00344074
0.00280143
0.00134715
0.00133934
0.00277135
0.00339931
0.00372434
0.00388384
0.00395017
0.00396132
0.00393249
0.00386593
0.0037616
0.00362632
0.00347123
0.00329456
0.003125
0.00303694
0.00300319
0.00299238
0.00298935
0.0029887
0.00298911
0.00299162
0.00300133
0.00303319
0.0031195
0.00329288
0.0034862
0.00366699
0.00380019
0.00386424
0.00384328
0.00370739
0.00339309
0.00276937
0.0013392
0.00131726
0.00268946
0.00327944
0.00357883
0.00372375
0.00378559
0.00380239
0.00379077
0.00375436
0.00369073
0.00359706
0.00347367
0.00332845
0.00319316
0.00311765
0.00308631
0.00307548
0.00307221
0.00307152
0.00307215
0.00307527
0.00308576
0.00311665
0.00319209
0.00332959
0.00348107
0.00361128
0.0036989
0.00373281
0.00369989
0.00356932
0.00327612
0.00268844
0.00131725
0.00126292
0.00250551
0.00302463
0.00327957
0.0033992
0.00344972
0.00346571
0.00346251
0.00344398
0.00340795
0.00335032
0.00326967
0.00317351
0.00308475
0.00303199
0.00300839
0.00299967
0.00299689
0.0029963
0.00299692
0.00299969
0.00300836
0.00303188
0.00308479
0.00317449
0.00327267
0.00335435
0.00340602
0.0034207
0.00338678
0.00327493
0.00302314
0.00250504
0.00126298
0.00114161
0.00211158
0.0025057
0.00268981
0.00277173
0.00280481
0.00281561
0.00281551
0.00280758
0.00279053
0.0027615
0.00271906
0.00266751
0.00261953
0.00258985
0.00257592
0.00257053
0.00256873
0.00256835
0.0025688
0.00257065
0.00257609
0.00259004
0.00261984
0.00266815
0.00272028
0.00276247
0.00278769
0.00279199
0.00276663
0.0026881
0.00250521
0.0021114
0.00114168
0.000922354
0.00114161
0.001263
0.00131745
0.00133964
0.00134787
0.00135049
0.00135076
0.0013495
0.00134638
0.00134061
0.00133158
0.00132006
0.00130904
0.00130227
0.00129913
0.00129791
0.00129749
0.00129739
0.00129751
0.00129794
0.00129916
0.00130229
0.00130907
0.00132013
0.00133173
0.00134071
0.0013457
0.00134599
0.00133911
0.00131742
0.00126309
0.00114167
0.000922433
0.0010008
0.00132497
0.00150913
0.00159562
0.00163293
0.00164768
0.00165298
0.00165468
0.00165511
0.00165511
0.00165498
0.00165483
0.00165472
0.00165464
0.00165458
0.00165454
0.00165452
0.0016545
0.0016545
0.00165451
0.00165454
0.00165458
0.00165463
0.0016547
0.00165477
0.00165477
0.0016544
0.00165278
0.00164756
0.00163287
0.00159559
0.00150912
0.00132497
0.00100083
0.00132497
0.00259357
0.00311083
0.00336257
0.00348029
0.00353116
0.00355109
0.00355793
0.00355964
0.00355948
0.00355871
0.00355789
0.00355724
0.0035568
0.00355651
0.00355632
0.00355618
0.00355611
0.00355611
0.00355618
0.00355631
0.00355651
0.00355677
0.00355716
0.00355761
0.00355774
0.00355627
0.00354985
0.00353033
0.00347979
0.00336226
0.00311064
0.00259345
0.00132497
0.00150917
0.00311097
0.00377528
0.00411277
0.00427875
0.00435436
0.00438546
0.00439634
0.00439862
0.00439749
0.00439531
0.00439322
0.00439169
0.00439078
0.00439029
0.00438997
0.00438975
0.00438963
0.00438963
0.00438975
0.00438998
0.00439029
0.00439076
0.00439155
0.00439269
0.0043935
0.00439178
0.00438206
0.00435219
0.00427755
0.00411219
0.00377503
0.00311088
0.00150919
0.00159573
0.00336281
0.0041129
0.00450523
0.00470442
0.00479794
0.00483692
0.00484953
0.00484994
0.00484511
0.00483882
0.00483336
0.00482962
0.00482757
0.00482657
0.00482591
0.00482542
0.00482517
0.00482517
0.00482543
0.00482592
0.00482658
0.00482754
0.00482942
0.00483259
0.00483623
0.00483714
0.00482759
0.00479198
0.00470116
0.00450371
0.00411231
0.00336265
0.00159577
0.00163308
0.00348062
0.00427899
0.00470455
0.00492465
0.00502907
0.00507119
0.00508095
0.00507395
0.00505903
0.00504262
0.00502939
0.00502087
0.0050166
0.0050147
0.0050133
0.0050122
0.0050116
0.00501161
0.00501221
0.00501333
0.00501472
0.00501657
0.00502063
0.00502844
0.00503942
0.00504936
0.0050473
0.00501378
0.00491625
0.00470058
0.0042774
0.00348013
0.0016331
0.00164786
0.00353153
0.00435469
0.00479823
0.00502932
0.00513765
0.00517641
0.00517508
0.00514953
0.00511122
0.0050725
0.00504383
0.0050268
0.00501932
0.00501657
0.00501389
0.00501153
0.00501026
0.00501027
0.00501155
0.00501392
0.0050166
0.0050193
0.00502656
0.00504279
0.00506895
0.00510049
0.00512016
0.00510188
0.00500971
0.00478888
0.00435085
0.00353025
0.00164775
0.00165317
0.0035515
0.00438594
0.00483757
0.00507217
0.00517755
0.00520415
0.00517809
0.00511334
0.00502563
0.00494156
0.00488741
0.00485948
0.00485015
0.00484848
0.00484402
0.00483955
0.00483719
0.0048372
0.00483957
0.00484406
0.00484852
0.00485015
0.00485926
0.00488638
0.00493792
0.00501441
0.00508251
0.00510155
0.00503101
0.00481798
0.00437776
0.00354864
0.00165278
0.00165488
0.00355841
0.00439712
0.00485103
0.00508381
0.00517969
0.00518323
0.00511219
0.00497302
0.00478556
0.00461128
0.00452934
0.0045009
0.00449951
0.00450522
0.00449954
0.00449275
0.0044893
0.00448931
0.00449278
0.00449958
0.00450528
0.00449953
0.00450075
0.00452845
0.00460777
0.00477427
0.0049415
0.00503388
0.00500674
0.00481479
0.00438194
0.00355294
0.00165396
0.00165533
0.0035603
0.00440007
0.00485328
0.00508102
0.00516246
0.00513252
0.0049924
0.0047248
0.00433366
0.00395125
0.00390423
0.00394135
0.00397845
0.00400023
0.00400103
0.00399616
0.00399331
0.00399332
0.00399618
0.00400107
0.00400029
0.00397851
0.00394131
0.00390362
0.00394815
0.00432253
0.00469284
0.00491291
0.00495407
0.0047948
0.0043757
0.00355137
0.00165367
0.00165537
0.00356049
0.00440016
0.00485179
0.00507401
0.0051406
0.00507472
0.0048518
0.00439445
0.00355403
0.00222667
0.00290319
0.00325456
0.00338647
0.00340956
0.00345029
0.0034598
0.00346077
0.00346078
0.00345983
0.00345034
0.00340963
0.00338659
0.00325471
0.0029032
0.00222475
0.00354324
0.00436181
0.00477111
0.00489477
0.00477123
0.00436688
0.00354816
0.00165297
0.00165532
0.00356029
0.00439985
0.00485065
0.00507006
0.0051289
0.00504311
0.00476783
0.00414586
0.00235985
0.00174472