/*--------------------------------*- C++ -*----------------------------------*\
| =========                 |                                                 |
| \\      /  F ield         | OpenFOAM: The Open Source CFD Toolbox           |
|  \\    /   O peration     | Version:  2112                                  |
|   \\  /    A nd           | Website:  www.openfoam.com                      |
|    \\/     M anipulation  |                                                 |
\*---------------------------------------------------------------------------*/
FoamFile
{
    version     2.0;
    format      ascii;
    arch        "LSB;label=32;scalar=64";
    class       volScalarField;
    location    "2.4";
    object      nut;
}
// * * * * * * * * * * * * * * * * * * * * * * * * * * * * * * * * * * * * * //

dimensions      [0 2 -1 0 0 0 0];

internalField   nonuniform List<scalar> 
64906
(
6.24739e-05
6.52157e-05
6.66948e-05
6.73046e-05
6.75306e-05
6.76078e-05
6.76323e-05
6.76398e-05
6.76422e-05
6.7643e-05
6.76434e-05
6.76436e-05
6.76435e-05
6.76434e-05
6.7643e-05
6.76425e-05
6.76419e-05
6.76413e-05
6.76409e-05
6.76413e-05
6.76419e-05
6.76424e-05
6.76427e-05
6.76429e-05
6.76428e-05
6.76422e-05
6.76401e-05
6.76328e-05
6.76084e-05
6.75315e-05
6.73057e-05
6.66961e-05
6.52171e-05
6.24751e-05
6.52168e-05
7.85866e-05
8.43858e-05
8.68704e-05
8.79061e-05
8.83095e-05
8.84539e-05
8.85009e-05
8.8514e-05
8.85161e-05
8.8515e-05
8.85137e-05
8.85131e-05
8.85131e-05
8.85135e-05
8.85138e-05
8.8514e-05
8.8514e-05
8.8514e-05
8.8514e-05
8.85139e-05
8.85136e-05
8.85133e-05
8.8513e-05
8.85127e-05
8.85104e-05
8.84983e-05
8.84532e-05
8.83107e-05
8.79085e-05
8.68735e-05
8.43891e-05
7.85898e-05
6.52194e-05
6.66979e-05
8.43879e-05
9.20882e-05
9.55421e-05
9.7072e-05
9.77089e-05
9.79516e-05
9.80331e-05
9.80529e-05
9.80509e-05
9.80432e-05
9.80369e-05
9.8034e-05
9.80341e-05
9.80355e-05
9.80367e-05
9.80375e-05
9.80378e-05
9.80379e-05
9.80377e-05
9.80372e-05
9.80361e-05
9.80347e-05
9.80342e-05
9.8035e-05
9.80337e-05
9.80162e-05
9.79408e-05
9.77048e-05
9.70729e-05
9.55459e-05
9.20934e-05
8.43931e-05
6.6702e-05
6.73093e-05
8.68742e-05
9.55442e-05
9.95626e-05
0.000101411
0.000102211
0.000102523
0.000102622
0.000102631
0.000102605
0.000102572
0.000102547
0.000102534
0.000102531
0.000102532
0.000102533
0.000102533
0.000102533
0.000102534
0.000102534
0.000102534
0.000102533
0.000102532
0.000102535
0.000102544
0.000102558
0.000102555
0.000102475
0.000102185
0.000101402
9.95629e-05
9.55492e-05
8.68808e-05
6.73147e-05
6.75362e-05
8.7911e-05
9.70754e-05
0.000101413
0.000103454
0.000104351
0.000104693
0.000104774
0.000104728
0.000104628
0.000104523
0.000104451
0.000104414
0.000104404
0.000104404
0.000104403
0.0001044
0.000104398
0.000104398
0.0001044
0.000104404
0.000104405
0.000104405
0.000104414
0.000104447
0.000104505
0.000104566
0.000104542
0.000104262
0.000103412
0.0001014
9.70766e-05
8.79174e-05
6.75425e-05
6.76137e-05
8.83149e-05
9.7713e-05
0.000102214
0.000104353
0.000105287
0.000105606
0.0001056
0.000105403
0.00010511
0.00010483
0.000104663
0.000104587
0.000104571
0.000104577
0.000104571
0.000104561
0.000104555
0.000104555
0.000104562
0.000104572
0.000104578
0.000104573
0.000104587
0.000104658
0.000104811
0.000105042
0.000105198
0.000105043
0.000104232
0.000102167
9.77022e-05
8.83185e-05
6.76206e-05
6.76383e-05
8.84593e-05
9.7956e-05
0.000102527
0.000104698
0.000105612
0.000105834
0.000105616
0.00010507
0.000104326
0.000103652
0.000103349
0.00010326
0.000103276
0.000103313
0.000103304
0.000103281
0.000103268
0.000103269
0.000103282
0.000103305
0.000103315
0.000103278
0.000103261
0.000103345
0.000103632
0.000104256
0.000104856
0.000105037
0.000104413
0.000102408
9.79188e-05
8.84556e-05
6.76453e-05
6.76455e-05
8.8506e-05
9.80381e-05
0.000102629
0.000104788
0.000105625
0.000105647
0.000105015
0.000103739
0.000101968
0.000100381
0.000100101
0.000100231
0.000100427
0.00010057
0.000100568
0.000100536
0.000100517
0.000100517
0.000100536
0.00010057
0.000100572
0.000100429
0.000100232
0.000100098
0.000100363
0.000101898
0.000103524
0.000104427
0.000104205
0.000102385
9.7954e-05
8.84882e-05
6.76515e-05
6.76472e-05
8.85188e-05
9.80599e-05
0.000102647
0.000104767
0.00010548
0.000105193
0.000103868
0.000101191
9.69921e-05
9.28437e-05
9.38897e-05
9.52271e-05
9.60127e-05
9.63976e-05
9.64551e-05
9.64395e-05
9.6427e-05
9.64273e-05
9.64405e-05
9.64567e-05
9.64e-05
9.60156e-05
9.52301e-05
9.38902e-05
9.28289e-05
9.69268e-05
0.000100976
0.000103276
0.000103741
0.000102223
9.79101e-05
8.84808e-05
6.76512e-05
6.76472e-05
8.8521e-05
9.80625e-05
0.000102639
0.000104714
0.000105295
0.000104653
0.00010242
9.74009e-05
8.72112e-05
7.37722e-05
8.29047e-05
8.85573e-05
9.06966e-05
9.14361e-05
9.16482e-05
9.16983e-05
9.17075e-05
9.17079e-05
9.16993e-05
9.16499e-05
9.14386e-05
9.07002e-05
8.85624e-05
8.2911e-05
7.37653e-05
8.71544e-05
9.71862e-05
0.000101824
0.000103194
0.000102028
9.78462e-05
8.84622e-05
6.76484e-05
6.76469e-05
8.85208e-05
9.80629e-05
0.000102635
0.000104688
0.000105201
0.000104356
0.000101487
9.41567e-05
7.44467e-05
7.13392e-05
8.31131e-05
8.66224e-05
8.76207e-05
8.79042e-05
8.7973e-05
8.79865e-05
8.79867e-05
8.79736e-05
8.79052e-05
8.76224e-05
8.66254e-05
8.31186e-05
7.13438e-05
7.44147e-05
9.39434e-05
0.000100886
0.000102891
0.000101929
9.78144e-05
8.84516e-05
6.76468e-05
6.76463e-05
8.85208e-05
9.80673e-05
0.000102648
0.000104722
0.000105291
0.000104613
0.000102294
9.71098e-05
8.66304e-05
7.31813e-05
8.08002e-05
8.60254e-05
8.79436e-05
8.85177e-05
8.87256e-05
8.87646e-05
8.87653e-05
8.87652e-05
8.87643e-05
8.87251e-05
8.85171e-05
8.79431e-05
8.60251e-05
8.07965e-05
7.31676e-05
8.6563e-05
9.68893e-05
0.000101693
0.000103147
0.000102016
9.7844e-05
8.84583e-05
6.76469e-05
6.76454e-05
8.85216e-05
9.80751e-05
0.000102672
0.000104791
0.000105478
0.000105105
0.00010358
0.000100496
9.55502e-05
9.02409e-05
8.95799e-05
8.95293e-05
8.96001e-05
8.96358e-05
8.96513e-05
8.96405e-05
8.96306e-05
8.96304e-05
8.96398e-05
8.96501e-05
8.96339e-05
8.95972e-05
8.95245e-05
8.957e-05
9.02148e-05
9.5476e-05
0.000100274
0.00010298
0.000103642
0.000102203
9.79104e-05
8.84768e-05
6.76478e-05
6.76443e-05
8.85223e-05
9.8083e-05
0.000102698
0.000104862
0.00010566
0.000105547
0.000104594
0.000102668
9.97349e-05
9.63502e-05
9.37312e-05
9.16815e-05
9.07338e-05
9.03921e-05
9.02773e-05
9.02342e-05
9.02185e-05
9.02181e-05
9.02333e-05
9.02757e-05
9.03896e-05
9.07299e-05
9.16757e-05
9.37213e-05
9.63236e-05
9.96588e-05
0.000102445
0.000103994
0.000104083
0.000102383
9.79769e-05
8.84957e-05
6.76481e-05
6.76431e-05
8.85227e-05
9.80891e-05
0.000102717
0.000104913
0.000105787
0.000105838
0.000105201
0.000103806
0.000101574
9.86534e-05
9.55068e-05
9.27309e-05
9.13295e-05
9.07925e-05
9.06102e-05
9.05489e-05
9.05288e-05
9.05284e-05
9.05477e-05
9.06082e-05
9.07896e-05
9.13253e-05
9.27249e-05
9.54959e-05
9.86269e-05
0.000101497
0.000103581
0.000104599
0.000104372
0.000102508
9.80245e-05
8.85092e-05
6.76475e-05
6.76418e-05
8.85227e-05
9.80929e-05
0.000102729
0.000104944
0.00010586
0.000105995
0.000105508
0.000104332
0.00010234
9.95332e-05
9.6218e-05
9.31708e-05
9.1589e-05
9.09683e-05
9.07559e-05
9.06851e-05
9.06612e-05
9.06605e-05
9.06834e-05
9.07536e-05
9.09653e-05
9.15848e-05
9.31647e-05
9.62055e-05
9.95067e-05
0.000102263
0.000104106
0.000104904
0.000104528
0.000102578
9.80522e-05
8.85165e-05
6.7646e-05
6.76405e-05
8.85224e-05
9.80951e-05
0.000102736
0.00010496
0.000105896
0.000106069
0.000105643
0.000104549
0.000102635
9.98528e-05
9.64775e-05
9.33332e-05
9.16863e-05
9.10341e-05
9.08095e-05
9.07336e-05
9.07065e-05
9.07056e-05
9.07317e-05
9.0807e-05
9.10308e-05
9.16819e-05
9.3327e-05
9.64651e-05
9.98263e-05
0.000102557
0.000104323
0.000105039
0.0001046
0.000102612
9.80659e-05
8.85198e-05
6.76442e-05
6.76392e-05
8.8522e-05
9.80961e-05
0.000102738
0.000104967
0.00010591
0.000106097
0.000105692
0.000104624
0.000102732
9.99542e-05
9.65591e-05
9.33842e-05
9.17169e-05
9.10544e-05
9.08254e-05
9.0747e-05
9.07172e-05
9.0716e-05
9.07447e-05
9.08227e-05
9.1051e-05
9.17124e-05
9.3378e-05
9.65468e-05
9.99278e-05
0.000102655
0.000104398
0.000105087
0.000104627
0.000102626
9.80715e-05
8.85208e-05
6.76423e-05
6.76381e-05
8.85218e-05
9.80964e-05
0.000102739
0.000104968
0.000105911
0.000106099
0.000105694
0.000104627
0.000102735
9.99574e-05
9.65624e-05
9.33865e-05
9.17183e-05
9.1055e-05
9.08252e-05
9.07458e-05
9.07144e-05
9.0713e-05
9.07433e-05
9.08223e-05
9.10515e-05
9.17138e-05
9.33803e-05
9.65503e-05
9.99312e-05
0.000102658
0.000104401
0.00010509
0.000104629
0.000102627
9.80722e-05
8.85207e-05
6.76406e-05
6.76379e-05
8.85219e-05
9.80959e-05
0.000102737
0.000104963
0.000105899
0.000106074
0.000105649
0.000104556
0.000102644
9.98631e-05
9.6488e-05
9.33406e-05
9.16909e-05
9.10362e-05
9.08093e-05
9.07305e-05
9.06993e-05
9.06977e-05
9.07279e-05
9.08063e-05
9.10327e-05
9.16865e-05
9.33346e-05
9.64763e-05
9.98374e-05
0.000102567
0.000104331
0.000105045
0.000104605
0.000102616
9.80679e-05
8.85196e-05
6.76404e-05
6.7639e-05
8.85222e-05
9.80944e-05
0.000102732
0.000104948
0.000105866
0.000106003
0.000105518
0.000104345
0.000102357
9.95525e-05
9.62382e-05
9.31849e-05
9.15982e-05
9.09731e-05
9.07567e-05
9.06814e-05
9.06524e-05
9.0651e-05
9.06788e-05
9.07538e-05
9.09697e-05
9.1594e-05
9.31794e-05
9.62274e-05
9.95279e-05
0.000102281
0.000104121
0.000104916
0.000104536
0.000102584
9.80557e-05
8.85167e-05
6.7642e-05
6.76403e-05
8.85224e-05
9.80912e-05
0.000102721
0.000104919
0.000105795
0.000105849
0.000105216
0.000103826
0.000101601
9.86861e-05
9.55414e-05
9.27544e-05
9.1345e-05
9.08014e-05
9.06137e-05
9.0547e-05
9.0522e-05
9.0521e-05
9.05446e-05
9.06109e-05
9.07984e-05
9.13414e-05
9.27499e-05
9.55323e-05
9.86633e-05
0.000101528
0.000103604
0.000104616
0.000104384
0.000102516
9.80296e-05
8.851e-05
6.76435e-05
6.76416e-05
8.85223e-05
9.80857e-05
0.000102703
0.000104869
0.00010567
0.000105562
0.000104615
0.000102697
9.9776e-05
9.64037e-05
9.37781e-05
9.17157e-05
9.07549e-05
9.04039e-05
9.02821e-05
9.02336e-05
9.02142e-05
9.02135e-05
9.02318e-05
9.02798e-05
9.04013e-05
9.07521e-05
9.17128e-05
9.37734e-05
9.63842e-05
9.97059e-05
0.000102478
0.000104017
0.000104099
0.000102394
9.79834e-05
8.84973e-05
6.76443e-05
6.76428e-05
8.85217e-05
9.8078e-05
0.000102678
0.0001048
0.00010549
0.000105122
0.000103605
0.000100533
9.56091e-05
9.03269e-05
8.96514e-05
8.95618e-05
8.96091e-05
8.96311e-05
8.96382e-05
8.96224e-05
8.961e-05
8.96095e-05
8.9621e-05
8.9636e-05
8.9628e-05
8.96054e-05
8.95592e-05
8.96518e-05
9.03135e-05
9.55444e-05
0.000100316
0.000103006
0.000103659
0.000102215
9.79178e-05
8.8479e-05
6.76441e-05
6.76437e-05
8.85205e-05
9.80689e-05
0.000102651
0.000104728
0.0001053
0.000104626
0.000102317
9.71491e-05
8.67057e-05
7.3239e-05
8.08347e-05
8.59724e-05
8.78486e-05
8.83962e-05
8.85911e-05
8.86249e-05
8.86234e-05
8.86228e-05
8.86228e-05
8.85863e-05
8.83859e-05
8.78312e-05
8.5953e-05
8.08345e-05
7.32291e-05
8.665e-05
9.69259e-05
0.000101711
0.000103159
0.000102025
9.785e-05
8.846e-05
6.76433e-05
6.7644e-05
8.85172e-05
9.80576e-05
0.000102628
0.000104681
0.000105195
0.000104351
0.000101481
9.41524e-05
7.44437e-05
7.11483e-05
8.26907e-05
8.60689e-05
8.69767e-05
8.72248e-05
8.72824e-05
8.72917e-05
8.72899e-05
8.72752e-05
8.7206e-05
8.69321e-05
8.59801e-05
8.25548e-05
7.10506e-05
7.43791e-05
9.38976e-05
0.000100853
0.000102875
0.000101922
9.7812e-05
8.84497e-05
6.76429e-05
6.76428e-05
8.85047e-05
9.80326e-05
0.000102597
0.000104664
0.00010524
0.000104592
0.000102348
9.73039e-05
8.70761e-05
7.36047e-05
8.20436e-05
8.72201e-05
8.88784e-05
8.93048e-05
8.94251e-05
8.94587e-05
8.94654e-05
8.94618e-05
8.94426e-05
8.93755e-05
8.91702e-05
8.85767e-05
8.66922e-05
8.15086e-05
7.33724e-05
8.67965e-05
9.69428e-05
0.000101676
0.000103107
0.000101977
9.78164e-05
8.84469e-05
6.7643e-05
6.76363e-05
8.846e-05
9.79533e-05
0.000102501
0.000104592
0.000105286
0.000104976
0.000103608
0.000100825
9.63889e-05
9.17509e-05
9.18895e-05
9.21262e-05
9.17287e-05
9.14164e-05
9.12885e-05
9.12476e-05
9.12351e-05
9.12293e-05
9.12203e-05
9.11975e-05
9.11476e-05
9.10584e-05
9.08585e-05
9.05711e-05
9.07461e-05
9.57013e-05
0.000100275
0.000102865
0.000103483
0.000102052
9.77993e-05
8.84223e-05
6.7639e-05
6.76125e-05
8.8318e-05
9.77157e-05
0.000102202
0.000104288
0.000105077
0.000105053
0.000104338
0.000102872
0.000100677
9.82568e-05
9.65841e-05
9.48263e-05
9.3027e-05
9.21286e-05
9.17961e-05
9.16927e-05
9.16639e-05
9.16567e-05
9.16567e-05
9.16694e-05
9.17339e-05
9.19834e-05
9.27412e-05
9.44749e-05
9.66579e-05
9.9635e-05
0.000102151
0.000103541
0.000103579
0.000101919
9.76241e-05
8.83003e-05
6.76174e-05
6.75359e-05
8.79164e-05
9.70835e-05
0.000101416
0.00010343
0.000104246
0.000104393
0.000104068
0.000103291
0.000102044
0.000100407
9.85207e-05
9.62824e-05
9.40933e-05
9.29963e-05
9.25841e-05
9.2454e-05
9.24182e-05
9.24104e-05
9.24147e-05
9.2444e-05
9.25596e-05
9.29448e-05
9.4011e-05
9.6223e-05
9.86584e-05
0.000100907
0.000102533
0.000103293
0.000103006
0.000101257
9.70391e-05
8.79134e-05
6.75421e-05
6.731e-05
8.68815e-05
9.55564e-05
9.95763e-05
0.000101416
0.000102178
0.000102392
0.000102275
0.000101869
0.000101138
0.000100034
9.85416e-05
9.67281e-05
9.49935e-05
9.40475e-05
9.36646e-05
9.35373e-05
9.35024e-05
9.34953e-05
9.35006e-05
9.3533e-05
9.36561e-05
9.40289e-05
9.49692e-05
9.67244e-05
9.86111e-05
0.000100197
0.000101238
0.00010162
0.000101185
9.95001e-05
9.55429e-05
8.68873e-05
6.73168e-05
6.66999e-05
8.43964e-05
9.21032e-05
9.55622e-05
9.70927e-05
9.77181e-05
9.79202e-05
9.79007e-05
9.77081e-05
9.7312e-05
9.66548e-05
9.57045e-05
9.4538e-05
9.34381e-05
9.27955e-05
9.25157e-05
9.24175e-05
9.23888e-05
9.2383e-05
9.23882e-05
9.24159e-05
9.25124e-05
9.27897e-05
9.34317e-05
9.454e-05
9.57293e-05
9.66955e-05
9.72876e-05
9.74344e-05
9.69896e-05
9.55385e-05
9.21079e-05
8.44067e-05
6.67065e-05
6.522e-05
7.85953e-05
8.44009e-05
8.68915e-05
8.7932e-05
8.83363e-05
8.84714e-05
8.84849e-05
8.84153e-05
8.82465e-05
8.79396e-05
8.74703e-05
8.68815e-05
8.63207e-05
8.59773e-05
8.58195e-05
8.57612e-05
8.57432e-05
8.57395e-05
8.57434e-05
8.57615e-05
8.58195e-05
8.59766e-05
8.632e-05
8.68832e-05
8.74779e-05
8.79455e-05
8.8211e-05
8.8235e-05
8.79068e-05
8.6896e-05
8.44132e-05
7.86061e-05
6.52258e-05
6.24769e-05
6.52221e-05
6.67061e-05
6.7321e-05
6.75517e-05
6.76336e-05
6.76624e-05
6.76714e-05
6.76684e-05
6.76505e-05
6.76128e-05
6.75454e-05
6.74522e-05
6.73572e-05
6.72971e-05
6.72675e-05
6.7254e-05
6.7247e-05
6.72445e-05
6.72475e-05
6.72543e-05
6.72676e-05
6.72967e-05
6.73562e-05
6.74508e-05
6.75439e-05
6.76106e-05
6.76428e-05
6.76367e-05
6.75633e-05
6.73337e-05
6.67167e-05
6.52293e-05
6.2481e-05
9.64539e-05
0.000107672
0.000113501
0.000116083
0.00011715
0.000117558
0.000117701
0.000117747
0.000117758
0.000117759
0.000117757
0.000117754
0.000117752
0.00011775
0.000117749
0.000117748
0.000117747
0.000117746
0.000117746
0.000117747
0.000117747
0.000117748
0.000117749
0.000117751
0.000117752
0.000117751
0.000117741
0.000117698
0.000117557
0.00011715
0.000116083
0.000113502
0.000107673
9.64551e-05
0.000107672
0.000308428
0.000376355
0.000405561
0.000418639
0.00042421
0.000426376
0.000427111
0.000427292
0.000427271
0.000427188
0.000427098
0.000427027
0.000426978
0.000426946
0.000426923
0.000426908
0.0004269
0.0004269
0.000426908
0.000426924
0.000426946
0.000426977
0.00042702
0.00042707
0.000427088
0.000426934
0.000426244
0.000424123
0.000418585
0.000405526
0.000376331
0.000308414
0.000107673
0.000113503
0.000376377
0.000471742
0.000514661
0.000534814
0.000543866
0.000547573
0.000548866
0.00054914
0.000549014
0.000548768
0.000548534
0.000548368
0.000548273
0.000548223
0.00054819
0.000548167
0.000548154
0.000548155
0.000548168
0.000548192
0.000548225
0.000548272
0.000548355
0.000548477
0.000548562
0.000548351
0.00054719
0.000543624
0.000534683
0.000514598
0.000471714
0.000376369
0.000113506
0.000116087
0.000405596
0.000514677
0.000565393
0.000589994
0.000601393
0.000606134
0.000607669
0.000607727
0.000607154
0.000606413
0.000605776
0.000605349
0.000605125
0.00060502
0.000604948
0.000604893
0.000604863
0.000604863
0.000604895
0.000604951
0.000605023
0.000605123
0.000605329
0.00060569
0.000606109
0.000606205
0.000605033
0.000600696
0.000589618
0.000565219
0.000514611
0.000405581
0.000116091
0.000117156
0.000418682
0.000534842
0.000590007
0.000617301
0.000630094
0.000635248
0.000636443
0.000635591
0.000633774
0.000631788
0.000630212
0.000629207
0.000628724
0.000628524
0.000628359
0.000628221
0.000628146
0.000628147
0.000628223
0.000628362
0.000628527
0.000628722
0.000629183
0.000630104
0.000631411
0.000632613
0.000632357
0.000628255
0.000616301
0.000589541
0.000534659
0.000418632
0.00011716
0.000117565
0.000424256
0.000543902
0.000601423
0.000630121
0.000643418
0.000648165
0.000647986
0.000644823
0.000640082
0.000635312
0.000631901
0.000629884
0.000629044
0.000628778
0.000628438
0.000628126
0.00062796
0.000627961
0.000628129
0.000628443
0.000628783
0.000629044
0.000629859
0.000631784
0.000634895
0.000638793
0.000641255
0.000639047
0.000627744
0.000600304
0.000543454
0.000424121
0.000117567
0.000117709
0.000426423
0.000547622
0.000606202
0.000635356
0.000648295
0.000651529
0.00064825
0.000640121
0.000629011
0.000618378
0.000612312
0.000609201
0.000608282
0.000608275
0.000607654
0.000607038
0.000606726
0.000606727
0.000607042
0.00060766
0.000608281
0.000608284
0.00060918
0.000612199
0.000617956
0.000627674
0.000636386
0.000638908
0.000630313
0.000603832
0.000546659
0.000426118
0.000117704
0.000117754
0.000427163
0.000548946
0.000607832
0.000636768
0.000648524
0.000648854
0.000639826
0.000621881
0.000596901
0.000573095
0.000566811
0.000565074
0.000565692
0.000566967
0.000566008
0.000565023
0.000564564
0.000564566
0.000565026
0.000566014
0.000566975
0.000565697
0.00056506
0.000566716
0.000572704
0.000595579
0.000618091
0.000630292
0.000627244
0.000603411
0.000547143
0.000426572
0.000117737
0.000117766
0.000427358
0.000549291
0.000608099
0.00063641
0.000646345
0.000642374
0.000624114
0.000587674
0.000529605
0.000464917
0.000483131
0.000495955
0.000503022
0.000507409
0.000506467
0.000505451
0.000505026
0.000505027
0.000505453
0.000506472
0.000507417
0.00050303
0.000495955
0.000483081
0.000464618
0.000528366
0.000583886
0.000614477
0.000620553
0.000600914
0.000546375
0.000426385
0.00011773
0.000117767
0.00042737
0.000549301
0.000607915
0.000635533
0.000643563
0.000634771
0.000604365
0.000535732
0.000388067
0.000135933
0.00033272
0.000408081
0.000431169
0.000439582
0.000440205
0.000440047
0.000439949
0.00043995
0.000440049
0.00044021
0.000439591
0.000431183
0.000408107
0.000332765
0.000135889
0.000387077
0.000531983
0.000594643
0.000612801
0.000597947
0.000545298
0.000426016
0.000117712
0.000117766
0.000427341
0.000549264
0.00060778
0.000635046
0.000642055
0.00063036
0.000590576
0.000482788
0.000138677
0.000126085
0.000333072
0.000375076
0.000384433
0.000387875
0.000388863
0.000389061
0.000389062
0.000388865
0.00038788
0.000384441
0.000375092
0.000333112
0.000126091
0.000138486
0.000479168
0.000580799
0.000608298
0.000596337
0.000544702
0.00042578
0.000117701
0.000117765
0.000427321
0.000549295
0.00060791
0.000635411
0.000643071
0.000633431
0.000601395
0.000530119
0.000379251
0.000133192
0.000303917
0.000366122
0.000382038
0.000381978
0.000388754
0.000390959
0.000391346
0.000391345
0.000390956
0.00038875
0.00038197
0.000382027
0.000366111
0.000303896
0.000133133
0.00037819
0.000526327
0.000591627
0.000611388
0.000597345
0.000545025
0.000425826
0.000117704
0.000117764
0.000427321
0.00054939
0.000608241
0.000636342
0.000645514
0.000639694
0.000617659
0.000574372
0.000505108
0.000424682
0.000416709
0.000405306
0.000401153
0.000398815
0.00040024
0.00040082
0.000400905
0.000400904
0.000400817
0.000400233
0.000398801
0.000401128
0.000405259
0.000416601
0.000424342
0.000503831
0.000570538
0.000607933
0.000617708
0.00059982
0.000545941
0.000426083
0.000117717
0.000117763
0.000427329
0.000549501
0.000608609
0.000637343
0.000648
0.000645474
0.000630411
0.000601231
0.000557542
0.000506322
0.000464971
0.000428349
0.000413397
0.000408327
0.000407207
0.000406947
0.00040687
0.00040687
0.000406945
0.000407202
0.000408315
0.000413371
0.000428298
0.000464854
0.000505932
0.000556211
0.00059738
0.000620705
0.000623519
0.000602321
0.000546921
0.000426376
0.000117731
0.000117762
0.000427337
0.000549591
0.000608901
0.000638113
0.00064983
0.00064944
0.000638272
0.000615375
0.000579902
0.000534212
0.0004851
0.000439595
0.000419702
0.000412782
0.000410742
0.0004102
0.000410076
0.000410076
0.0004102
0.000410739
0.000412773
0.000419679
0.000439549
0.000485
0.000533814
0.000578551
0.000611508
0.000628559
0.000627483
0.00060414
0.000547659
0.0004266
0.00011774
0.00011776
0.00042734
0.000549648
0.000609085
0.000638591
0.000650925
0.000651696
0.00064243
0.00062215
0.000589377
0.000544776
0.000493211
0.000444503
0.000422568
0.00041476
0.000412378
0.000411748
0.000411613
0.000411614
0.000411748
0.000412377
0.000414753
0.000422547
0.000444459
0.000493116
0.000544373
0.000588014
0.000618267
0.000632701
0.000629722
0.000605213
0.000548102
0.000426733
0.000117744
0.000117759
0.00042734
0.000549677
0.000609183
0.00063884
0.000651479
0.000652794
0.000644352
0.000625083
0.000593175
0.000548734
0.000496276
0.000446416
0.000423708
0.000415546
0.000413039
0.000412381
0.000412246
0.000412246
0.000412382
0.000413039
0.000415539
0.000423688
0.000446373
0.000496181
0.000548329
0.000591805
0.000621189
0.000634609
0.000630802
0.000605746
0.000548325
0.000426799
0.000117745
0.000117757
0.000427339
0.00054969
0.000609224
0.000638942
0.000651701
0.000653219
0.000645071
0.000626134
0.00059447
0.000550025
0.000497264
0.00044704
0.00042408
0.000415801
0.000413255
0.000412588
0.000412455
0.000412455
0.000412589
0.000413254
0.000415795
0.000424061
0.000446997
0.000497169
0.000549618
0.000593097
0.000622235
0.000635321
0.000631218
0.000605956
0.000548414
0.000426823
0.000117745
0.000117757
0.000427339
0.000549691
0.000609227
0.000638947
0.000651707
0.000653228
0.000645081
0.000626146
0.000594483
0.000550037
0.000497276
0.000447057
0.000424091
0.000415807
0.000413259
0.000412593
0.00041246
0.000412461
0.000412594
0.000413259
0.000415801
0.000424072
0.000447014
0.000497182
0.000549632
0.000593111
0.000622248
0.000635332
0.000631227
0.000605961
0.000548416
0.000426823
0.000117744
0.000117757
0.000427339
0.000549681
0.000609191
0.000638853
0.000651498
0.000652819
0.000644384
0.000625121
0.000593217
0.000548776
0.000496317
0.000446472
0.000423746
0.00041557
0.00041306
0.000412401
0.000412269
0.00041227
0.000412403
0.00041306
0.000415566
0.000423728
0.000446432
0.000496225
0.000548374
0.00059185
0.000621231
0.000634643
0.000630828
0.000605763
0.000548334
0.000426798
0.000117743
0.000117758
0.000427337
0.000549653
0.000609099
0.000638613
0.000650957
0.000651739
0.000642486
0.000622219
0.000589458
0.000544862
0.000493297
0.000444618
0.000422653
0.000414825
0.000412436
0.000411808
0.000411678
0.000411679
0.000411811
0.000412439
0.000414823
0.00042264
0.000444583
0.000493208
0.000544466
0.000588103
0.000618344
0.000632762
0.000629766
0.000605242
0.000548117
0.000426733
0.000117741
0.000117759
0.000427333
0.000549598
0.000608919
0.000638144
0.000649874
0.000649502
0.000638354
0.000615484
0.000580041
0.000534374
0.000485262
0.000439799
0.000419864
0.000412919
0.000410873
0.000410336
0.000410218
0.000410221
0.000410342
0.00041088
0.000412924
0.000419859
0.000439774
0.000485182
0.000533993
0.000578707
0.000611629
0.000628648
0.000627546
0.000604181
0.000547679
0.000426599
0.000117737
0.00011776
0.000427323
0.000549508
0.000608629
0.000637376
0.000648051
0.000645548
0.000630518
0.000601387
0.000557771
0.000506632
0.000465327
0.000428666
0.000413642
0.000408545
0.000407418
0.000407167
0.0004071
0.000407104
0.000407177
0.000407432
0.000408559
0.000413647
0.000428654
0.000465264
0.000506284
0.000556472
0.00059755
0.000620813
0.000623589
0.000602365
0.000546942
0.000426371
0.000117727
0.000117761
0.000427307
0.000549387
0.000608247
0.000636358
0.000645547
0.000639753
0.000617762
0.000574563
0.000505466
0.00042524
0.000417256
0.000405595
0.000401281
0.000398894
0.00040029
0.000400881
0.000400981
0.000400986
0.000400895
0.000400307
0.000398902
0.000401272
0.000405577
0.000417244
0.000424984
0.000504245
0.000570717
0.000608002
0.00061774
0.000599838
0.000545947
0.000426068
0.000117713
0.000117761
0.000427284
0.000549248
0.000607852
0.000635346
0.000643008
0.000633379
0.000601381
0.000530231
0.000379713
0.000133308
0.000304224
0.000365461
0.000380891
0.000380566
0.000387265
0.000389488
0.000389894
0.000389896
0.00038949
0.000387247
0.000380477
0.000380704
0.000365237
0.000304309
0.000133258
0.000378753
0.000526295
0.00059145
0.00061124
0.000597251
0.000544966
0.000425776
0.000117699
0.000117758
0.000427228
0.000549068
0.000607505
0.000634705
0.000641665
0.000629919
0.000590082
0.000482321
0.000138574
0.00012533
0.000327892
0.000368113
0.00037636
0.000379518
0.00038049
0.000380704
0.000380692
0.000380435
0.000379336
0.000375862
0.000367055
0.00032632
0.000124943
0.000138227
0.00047801
0.000579763
0.000607594
0.000595901
0.000544444
0.000425632
0.000117691
0.000117747
0.000427015
0.000548645
0.00060699
0.00063439
0.000642236
0.000633228
0.000602474
0.000533314
0.000385305
0.000134818
0.000320373
0.000389192
0.000406055
0.000410411
0.000410487
0.000410458
0.000410461
0.000410424
0.000410285
0.000409917
0.000408796
0.00040222
0.000382195
0.000313466
0.000133764
0.000381136
0.000527035
0.000591319
0.00061069
0.000596618
0.000544488
0.000425589
0.000117689
0.000117703
0.000426288
0.000547345
0.00060542
0.000633164
0.000642637
0.000638126
0.000618907
0.000580521
0.000518612
0.000446893
0.000451661
0.000448901
0.000438794
0.000433515
0.000431213
0.000430482
0.000430286
0.000430219
0.000430154
0.000430067
0.00043001
0.000429573
0.00043
0.000431924
0.000431953
0.000507396
0.000570973
0.000606497
0.000615423
0.000597493
0.000544158
0.000425201
0.000117663
0.000117562
0.000424148
0.000543703
0.000600865
0.00062854
0.000639346
0.000638689
0.000627991
0.000606569
0.000574475
0.000537456
0.000509749
0.000478925
0.000447053
0.000433626
0.000429052
0.000427689
0.000427325
0.000427238
0.000427246
0.000427446
0.00042841
0.000432051
0.000444291
0.000476149
0.000511847
0.000557117
0.000594074
0.000614625
0.000616276
0.000595401
0.000541533
0.000423412
0.000117539
0.000117155
0.000418601
0.000534727
0.000589688
0.000616359
0.000627601
0.000629368
0.000623953
0.000611571
0.000591881
0.000565535
0.000534381
0.000497261
0.000459974
0.000443876
0.000438289
0.000436577
0.000436105
0.000436005
0.000436069
0.000436467
0.000438024
0.000443332
0.000459259
0.000497298
0.000537079
0.000572784
0.000598423
0.000610922
0.000608299
0.000586197
0.000533379
0.000418146
0.000117145
0.000116088
0.000405536
0.000514625
0.000565253
0.000589533
0.000600084
0.000602897
0.000600525
0.00059344
0.000581042
0.000562569
0.000537909
0.000508457
0.000480654
0.000466831
0.000461486
0.000459693
0.000459152
0.000459036
0.000459145
0.000459664
0.000461405
0.000466702
0.000480561
0.000508792
0.000539302
0.000565085
0.000582357
0.000589454
0.000584605
0.000563209
0.000513867
0.000405276
0.000116085
0.000113505
0.000376333
0.000471729
0.00051463
0.000534653
0.000543309
0.000546054
0.000545281
0.000541551
0.000534388
0.000522985
0.000507066
0.000488095
0.000470619
0.000460881
0.000456707
0.000455187
0.0004547
0.000454595
0.000454706
0.000455194
0.000456709
0.00046088
0.000470662
0.000488322
0.000507646
0.000523713
0.000533989
0.000537318
0.000532003
0.000513589
0.00047136
0.000376197
0.000113507
0.000107675
0.000308405
0.000376368
0.000405587
0.000418634
0.00042407
0.000425868
0.000425753
0.000424179
0.000420898
0.00041541
0.000407503
0.000398004
0.000389234
0.000383967
0.000381536
0.000380593
0.000380276
0.000380207
0.000380289
0.000380619
0.000381572
0.000384013
0.000389307
0.000398145
0.000407748
0.000415599
0.000420398
0.000421476
0.000417548
0.000405186
0.00037623
0.000308341
0.000107679
9.64571e-05
0.000107675
0.000113509
0.000116097
0.000117168
0.000117577
0.00011771
0.000117721
0.000117651
0.000117483
0.00011718
0.000116715
0.00011613
0.000115574
0.000115231
0.000115071
0.000115008
0.000114986
0.000114981
0.000114987
0.000115009
0.000115072
0.000115233
0.000115576
0.000116134
0.000116723
0.000117185
0.000117446
0.000117469
0.000117135
0.000116092
0.000113512
0.000107678
9.64615e-05
0.000100584
0.000116213
0.000124335
0.000128058
0.00012968
0.000130338
0.000130582
0.000130663
0.000130684
0.000130684
0.000130677
0.00013067
0.000130664
0.00013066
0.000130657
0.000130656
0.000130654
0.000130654
0.000130654
0.000130654
0.000130655
0.000130657
0.00013066
0.000130663
0.000130667
0.000130667
0.000130649
0.000130572
0.000130332
0.000129677
0.000128057
0.000124334
0.000116213
0.000100586
0.000116213
0.000399898
0.000504504
0.000551094
0.000572685
0.000582261
0.000586151
0.000587525
0.000587867
0.000587811
0.000587624
0.000587421
0.000587257
0.000587144
0.00058707
0.000587018
0.000586983
0.000586965
0.000586965
0.000586983
0.000587017
0.000587067
0.000587137
0.000587237
0.000587355
0.000587405
0.000587122
0.000585843
0.00058205
0.000572549
0.000551004
0.000504442
0.000399861
0.000116213
0.000124337
0.00050454
0.000659581
0.000732003
0.000766947
0.000783115
0.000789954
0.000792404
0.000792911
0.000792614
0.000792054
0.000791506
0.000791096
0.000790848
0.000790711
0.000790621
0.000790558
0.000790526
0.000790526
0.000790559
0.000790621
0.00079071
0.00079084
0.000791059
0.00079137
0.000791606
0.000791249
0.000789083
0.000782547
0.000766619
0.000731828
0.00065949
0.0005045
0.000124337
0.000128063
0.000551153
0.000732033
0.000819348
0.000862744
0.000883356
0.000892152
0.000895046
0.0008951
0.000893876
0.000892261
0.000890804
0.000889767
0.000889186
0.000888897
0.000888697
0.000888553
0.000888478
0.000888479
0.000888555
0.0008887
0.000888897
0.000889175
0.000889713
0.000890602
0.000891603
0.000891924
0.000889794
0.000881828
0.000861882
0.000818918
0.000731842
0.000551085
0.000128064
0.000129687
0.000572758
0.000767
0.000862772
0.000911258
0.000934489
0.000944042
0.000946253