/*--------------------------------*- C++ -*----------------------------------*\
| =========                 |                                                 |
| \\      /  F ield         | OpenFOAM: The Open Source CFD Toolbox           |
|  \\    /   O peration     | Version:  2112                                  |
|   \\  /    A nd           | Website:  www.openfoam.com                      |
|    \\/     M anipulation  |                                                 |
\*---------------------------------------------------------------------------*/
FoamFile
{
    version     2.0;
    format      ascii;
    arch        "LSB;label=32;scalar=64";
    class       volScalarField;
    location    "2.4";
    object      p;
}
// * * * * * * * * * * * * * * * * * * * * * * * * * * * * * * * * * * * * * //

dimensions      [0 2 -2 0 0 0 0];

internalField   nonuniform List<scalar> 
64906
(
-7.01509e-06
-6.99501e-06
-6.98724e-06
-6.9883e-06
-7.01987e-06
-7.07927e-06
-7.16938e-06
-7.29902e-06
-7.45316e-06
-7.61289e-06
-7.78481e-06
-7.96347e-06
-8.13676e-06
-8.29712e-06
-8.43596e-06
-8.54918e-06
-8.63343e-06
-8.68735e-06
-8.71031e-06
-8.70246e-06
-8.66488e-06
-8.59921e-06
-8.5092e-06
-8.39921e-06
-8.27821e-06
-8.1539e-06
-8.03892e-06
-7.93922e-06
-7.85077e-06
-7.79298e-06
-7.76438e-06
-7.75374e-06
-7.7626e-06
-7.78315e-06
-6.9537e-06
-6.8672e-06
-6.80208e-06
-6.76891e-06
-6.76351e-06
-6.78732e-06
-6.83561e-06
-6.89793e-06
-6.98045e-06
-7.09115e-06
-7.20935e-06
-7.33008e-06
-7.44252e-06
-7.54547e-06
-7.63326e-06
-7.70567e-06
-7.76103e-06
-7.7995e-06
-7.8209e-06
-7.82541e-06
-7.81354e-06
-7.78545e-06
-7.74313e-06
-7.68695e-06
-7.62289e-06
-7.55219e-06
-7.48629e-06
-7.43038e-06
-7.40454e-06
-7.40062e-06
-7.42746e-06
-7.4955e-06
-7.58815e-06
-7.69806e-06
-6.93552e-06
-6.80392e-06
-6.69115e-06
-6.60741e-06
-6.56435e-06
-6.55817e-06
-6.58278e-06
-6.63323e-06
-6.70754e-06
-6.80633e-06
-6.91603e-06
-7.03253e-06
-7.13447e-06
-7.22397e-06
-7.29464e-06
-7.35142e-06
-7.39432e-06
-7.4256e-06
-7.44571e-06
-7.45482e-06
-7.45283e-06
-7.43777e-06
-7.41e-06
-7.36479e-06
-7.30906e-06
-7.24095e-06
-7.18337e-06
-7.14156e-06
-7.13224e-06
-7.15933e-06
-7.23237e-06
-7.35707e-06
-7.51375e-06
-7.68414e-06
-6.96076e-06
-6.79031e-06
-6.63278e-06
-6.50684e-06
-6.43299e-06
-6.40788e-06
-6.42607e-06
-6.48561e-06
-6.58476e-06
-6.72658e-06
-6.89283e-06
-7.07871e-06
-7.23194e-06
-7.35851e-06
-7.44843e-06
-7.51602e-06
-7.56327e-06
-7.59581e-06
-7.6148e-06
-7.62038e-06
-7.61179e-06
-7.58366e-06
-7.5345e-06
-7.45025e-06
-7.34198e-06
-7.20405e-06
-7.09192e-06
-7.01209e-06
-6.98854e-06
-7.02487e-06
-7.12986e-06
-7.30491e-06
-7.51956e-06
-7.74176e-06
-7.04224e-06
-6.83948e-06
-6.64811e-06
-6.49253e-06
-6.40196e-06
-6.37585e-06
-6.41205e-06
-6.51484e-06
-6.68861e-06
-6.94759e-06
-7.26525e-06
-7.63758e-06
-7.93219e-06
-8.16524e-06
-8.32161e-06
-8.43444e-06
-8.50796e-06
-8.55298e-06
-8.57127e-06
-8.56297e-06
-8.52667e-06
-8.45177e-06
-8.33479e-06
-8.14284e-06
-7.89293e-06
-7.56905e-06
-7.30972e-06
-7.11953e-06
-7.03324e-06
-7.04492e-06
-7.15771e-06
-7.36514e-06
-7.62414e-06
-7.88971e-06
-7.18069e-06
-6.94682e-06
-6.72895e-06
-6.55417e-06
-6.46068e-06
-6.45173e-06
-6.53059e-06
-6.71204e-06
-7.01352e-06
-7.47358e-06
-8.06231e-06
-8.80012e-06
-9.35023e-06
-9.77061e-06
-1.00439e-05
-1.02395e-05
-1.0363e-05
-1.04329e-05
-1.0451e-05
-1.04175e-05
-1.03306e-05
-1.01721e-05
-9.93732e-06
-9.55708e-06
-9.0519e-06
-8.36279e-06
-7.83931e-06
-7.45572e-06
-7.25403e-06
-7.20589e-06
-7.30286e-06
-7.52624e-06
-7.82219e-06
-8.13009e-06
-7.37265e-06
-7.10468e-06
-6.86323e-06
-6.67683e-06
-6.59229e-06
-6.61666e-06
-6.75957e-06
-7.04924e-06
-7.52331e-06
-8.26827e-06
-9.24767e-06
-1.06599e-05
-1.15923e-05
-1.22784e-05
-1.2711e-05
-1.30219e-05
-1.32153e-05
-1.33209e-05
-1.33395e-05
-1.32709e-05
-1.31145e-05
-1.28406e-05
-1.24458e-05
-1.17985e-05
-1.09116e-05
-9.54517e-06
-8.64406e-06
-7.98303e-06
-7.62048e-06
-7.48307e-06
-7.54545e-06
-7.77626e-06
-8.09948e-06
-8.45837e-06
-7.61242e-06
-7.30401e-06
-7.03986e-06
-6.84849e-06
-6.78523e-06
-6.85983e-06
-7.0867e-06
-7.503e-06
-8.1702e-06
-9.22023e-06
-1.06404e-05
-1.33253e-05
-1.47185e-05
-1.57446e-05
-1.63823e-05
-1.68484e-05
-1.71377e-05
-1.7293e-05
-1.73126e-05
-1.71964e-05
-1.69458e-05
-1.65172e-05
-1.59168e-05
-1.49266e-05
-1.35794e-05
-1.09272e-05
-9.61622e-06
-8.65273e-06
-8.10629e-06
-7.8604e-06
-7.87073e-06
-8.09825e-06
-8.44949e-06
-8.86928e-06
-7.89331e-06
-7.53298e-06
-7.24626e-06
-7.05547e-06
-7.02523e-06
-7.16612e-06
-7.49255e-06
-8.0411e-06
-8.85268e-06
-1.01716e-05
-1.19691e-05
-1.70531e-05
-1.8636e-05
-2.00033e-05
-2.08596e-05
-2.14835e-05
-2.18721e-05
-2.20799e-05
-2.21012e-05
-2.19358e-05
-2.15887e-05
-2.10038e-05
-2.01845e-05
-1.88464e-05
-1.73128e-05
-1.22364e-05
-1.06272e-05
-9.36592e-06
-8.67834e-06
-8.31544e-06
-8.25941e-06
-8.47446e-06
-8.85592e-06
-9.35255e-06
-8.21505e-06
-7.77574e-06
-7.47495e-06
-7.29603e-06
-7.32157e-06
-7.56529e-06
-8.04241e-06
-8.75293e-06
-9.78139e-06
-1.22423e-05
-1.0161e-05
-2.11105e-05
-2.27992e-05
-2.47669e-05
-2.59497e-05
-2.68241e-05
-2.73716e-05
-2.7658e-05
-2.76815e-05
-2.74415e-05
-2.69396e-05
-2.61078e-05
-2.49636e-05
-2.30197e-05
-2.14112e-05
-1.03087e-05
-1.26955e-05
-1.02866e-05
-9.41423e-06
-8.90426e-06
-8.73208e-06
-8.90551e-06
-9.30957e-06
-9.89771e-06
-8.54262e-06
-8.03523e-06
-7.71248e-06
-7.54825e-06
-7.64328e-06
-8.01824e-06
-8.6615e-06
-9.43297e-06
-1.0193e-05
-7.90194e-06
-3.12551e-05
-2.84353e-05
-2.9671e-05
-3.08569e-05
-3.18673e-05
-3.25374e-05
-3.28783e-05
-3.29036e-05
-3.2613e-05
-3.19925e-05
-3.10288e-05
-2.98824e-05
-2.8663e-05
-3.13935e-05
-8.71629e-06
-1.08628e-05
-1.01532e-05
-9.55985e-06
-9.24757e-06
-9.35321e-06
-9.76308e-06
-1.05007e-05
-8.86343e-06
-8.30274e-06
-7.95711e-06
-7.81895e-06
-8.0215e-06
-8.63905e-06
-9.80157e-06
-1.17045e-05
-1.48685e-05
-1.90284e-05
-2.85325e-05
-2.77425e-05
-3.10951e-05
-3.37299e-05
-3.58008e-05
-3.73352e-05
-3.8285e-05
-3.87397e-05
-3.87664e-05
-3.83655e-05
-3.74715e-05
-3.59956e-05
-3.39884e-05
-3.14268e-05
-2.8152e-05
-2.9139e-05
-1.95436e-05
-1.54381e-05
-1.23746e-05
-1.06864e-05
-9.90446e-06
-9.84689e-06
-1.02501e-05
-1.10918e-05
-9.17341e-06
-8.5562e-06
-8.18185e-06
-8.05292e-06
-8.32192e-06
-9.07945e-06
-1.04712e-05
-1.26518e-05
-1.58308e-05
-1.97091e-05
-2.60795e-05
-2.9755e-05
-3.33393e-05
-3.64691e-05
-3.89957e-05
-4.07737e-05
-4.18662e-05
-4.23858e-05
-4.24128e-05
-4.19479e-05
-4.09125e-05
-3.91953e-05
-3.67354e-05
-3.36714e-05
-3.01437e-05
-2.65744e-05
-2.02407e-05
-1.6386e-05
-1.33051e-05
-1.13583e-05
-1.03903e-05
-1.02666e-05
-1.06967e-05
-1.16435e-05
-9.47903e-06
-8.79237e-06
-8.3868e-06
-8.25791e-06
-8.56907e-06
-9.41633e-06
-1.09473e-05
-1.331e-05
-1.66892e-05
-2.09474e-05
-2.63309e-05
-3.07174e-05
-3.49278e-05
-3.84493e-05
-4.12411e-05
-4.31376e-05
-4.42878e-05
-4.48264e-05
-4.48529e-05
-4.43681e-05
-4.32745e-05
-4.1439e-05
-3.87153e-05
-3.52613e-05
-3.11224e-05
-2.67951e-05
-2.14367e-05
-1.72145e-05
-1.39491e-05
-1.18442e-05
-1.07792e-05
-1.06325e-05
-1.11005e-05
-1.21389e-05
-9.75676e-06
-8.99941e-06
-8.56062e-06
-8.41961e-06
-8.74329e-06
-9.62546e-06
-1.12063e-05
-1.36266e-05
-1.70429e-05
-2.13476e-05
-2.64425e-05
-3.12409e-05
-3.58342e-05
-3.95306e-05
-4.24163e-05
-4.4334e-05
-4.54845e-05
-4.60166e-05
-4.60421e-05
-4.55619e-05
-4.44661e-05
-4.26074e-05
-3.97881e-05
-3.61564e-05
-3.1629e-05
-2.68801e-05
-2.18147e-05
-1.75528e-05
-1.42632e-05
-1.21234e-05
-1.10465e-05
-1.09211e-05
-1.14402e-05
-1.25573e-05
-9.9712e-06
-9.16926e-06
-8.70384e-06
-8.54799e-06
-8.87178e-06
-9.76601e-06
-1.13643e-05
-1.38044e-05
-1.72295e-05
-2.15556e-05
-2.66159e-05
-3.16151e-05
-3.63963e-05
-4.01801e-05
-4.30988e-05
-4.50039e-05
-4.61345e-05
-4.66515e-05
-4.66763e-05
-4.62096e-05
-4.51321e-05
-4.3284e-05
-4.04299e-05
-3.67101e-05
-3.20028e-05
-2.7039e-05
-2.20096e-05
-1.77321e-05
-1.44458e-05
-1.23062e-05
-1.12434e-05
-1.11508e-05
-1.17197e-05
-1.29117e-05
-1.0134e-05
-9.30094e-06
-8.81483e-06
-8.64484e-06
-8.96319e-06
-9.85851e-06
-1.14605e-05
-1.39076e-05
-1.73398e-05
-2.16943e-05
-2.67855e-05
-3.18931e-05
-3.67784e-05
-4.06072e-05
-4.35368e-05
-4.5428e-05
-4.65421e-05
-4.70481e-05
-4.70727e-05
-4.66168e-05
-4.5555e-05
-4.37197e-05
-4.08529e-05
-3.70858e-05
-3.22718e-05
-2.71994e-05
-2.2142e-05
-1.78414e-05
-1.45577e-05
-1.24268e-05
-1.13841e-05
-1.13232e-05
-1.19331e-05
-1.31838e-05
-1.02468e-05
-9.3944e-06
-8.89502e-06
-8.71569e-06
-9.03036e-06
-9.92699e-06
-1.15341e-05
-1.3992e-05
-1.74414e-05
-2.18301e-05
-2.69657e-05
-3.21449e-05
-3.70957e-05
-4.09596e-05
-4.39037e-05
-4.57949e-05
-4.6905e-05
-4.74079e-05
-4.74332e-05
-4.69819e-05
-4.59251e-05
-4.40902e-05
-4.12084e-05
-3.74047e-05
-3.25234e-05
-2.7379e-05
-2.22787e-05
-1.79468e-05
-1.46521e-05
-1.25203e-05
-1.14875e-05
-1.14458e-05
-1.20805e-05
-1.33637e-05
-1.03093e-05
-9.44931e-06
-8.94465e-06
-8.76217e-06
-9.07717e-06
-9.97852e-06
-1.15958e-05
-1.4071e-05
-1.75476e-05
-2.1974e-05
-2.71548e-05
-3.23821e-05
-3.73748e-05
-4.12704e-05
-4.42368e-05
-4.61436e-05
-4.72637e-05
-4.77724e-05
-4.77995e-05
-4.73461e-05
-4.62825e-05
-4.44343e-05
-4.15312e-05
-3.76957e-05
-3.27713e-05
-2.75769e-05
-2.24306e-05
-1.80611e-05
-1.47413e-05
-1.25957e-05
-1.15589e-05
-1.15209e-05
-1.21634e-05
-1.34572e-05
-1.03218e-05
-9.46593e-06
-8.964e-06
-8.7845e-06
-9.10392e-06
-1.00131e-05
-1.16453e-05
-1.41449e-05
-1.76558e-05
-2.21229e-05
-2.7351e-05
-3.26068e-05
-3.76179e-05
-4.15406e-05
-4.45355e-05
-4.64715e-05
-4.76143e-05
-4.81371e-05
-4.81681e-05
-4.77067e-05
-4.66254e-05
-4.47517e-05
-4.1823e-05
-3.79619e-05
-3.30181e-05
-2.77919e-05
-2.25946e-05
-1.81812e-05
-1.48237e-05
-1.26525e-05
-1.15986e-05
-1.15494e-05
-1.21826e-05
-1.34606e-05
-1.02815e-05
-9.44485e-06
-8.95366e-06
-8.78173e-06
-9.10642e-06
-1.00221e-05
-1.16678e-05
-1.41909e-05
-1.77444e-05
-2.22583e-05
-2.75537e-05
-3.28164e-05
-3.78085e-05
-4.17446e-05
-4.47669e-05
-4.67432e-05
-4.79193e-05
-4.84637e-05
-4.84989e-05
-4.80248e-05
-4.69181e-05
-4.50114e-05
-4.20604e-05
-3.81893e-05
-3.32632e-05
-2.8024e-05
-2.27544e-05
-1.82892e-05
-1.4884e-05
-1.26812e-05
-1.16027e-05
-1.1532e-05
-1.21432e-05
-1.3393e-05
-1.01781e-05
-9.38623e-06
-8.91331e-06
-8.7496e-06
-9.07339e-06
-9.98272e-06
-1.16241e-05
-1.41515e-05
-1.77382e-05
-2.23059e-05
-2.77463e-05
-3.2973e-05
-3.78689e-05
-4.17691e-05
-4.47885e-05
-4.67984e-05
-4.80087e-05
-4.85777e-05
-4.86188e-05
-4.8132e-05
-4.70028e-05
-4.50735e-05
-4.21338e-05
-3.83043e-05
-3.34725e-05
-2.8257e-05
-2.28377e-05
-1.83136e-05
-1.48681e-05
-1.26485e-05
-1.15551e-05
-1.14639e-05
-1.20479e-05
-1.3267e-05
-1.00493e-05
-9.2999e-06
-8.84772e-06
-8.68965e-06
-9.00108e-06
-9.88153e-06
-1.14841e-05
-1.39705e-05
-1.75527e-05
-2.21472e-05
-2.79793e-05
-3.3094e-05
-3.77014e-05
-4.14791e-05
-4.44365e-05
-4.64489e-05
-4.76765e-05
-4.8265e-05
-4.83151e-05
-4.78271e-05
-4.66986e-05
-4.4785e-05
-4.19211e-05
-3.82235e-05
-3.36676e-05
-2.85439e-05
-2.27381e-05
-1.81809e-05
-1.473e-05
-1.2534e-05
-1.14514e-05
-1.13495e-05
-1.19024e-05
-1.30737e-05
-9.89238e-06
-9.18893e-06
-8.75696e-06
-8.59418e-06
-8.86647e-06
-9.66623e-06
-1.11409e-05
-1.34497e-05
-1.68013e-05
-2.09784e-05
-2.80405e-05
-3.32938e-05
-3.71307e-05
-4.05428e-05
-4.32734e-05
-4.5201e-05
-4.63991e-05
-4.69899e-05
-4.70535e-05
-4.65912e-05
-4.55204e-05
-4.37214e-05
-4.11072e-05
-3.77976e-05
-3.40191e-05
-2.86677e-05
-2.16416e-05
-1.75099e-05
-1.42845e-05
-1.22427e-05
-1.12498e-05
-1.11755e-05
-1.17076e-05
-1.28195e-05
-9.73533e-06
-9.0676e-06
-8.65581e-06
-8.48457e-06
-8.70307e-06
-9.38779e-06
-1.06756e-05
-1.27768e-05
-1.62771e-05
-2.11196e-05
-2.98191e-05
-3.16085e-05
-3.58829e-05
-3.91689e-05
-4.1588e-05
-4.33736e-05
-4.45013e-05
-4.50728e-05
-4.51575e-05
-4.47593e-05
-4.38057e-05
-4.21995e-05
-3.99309e-05
-3.67664e-05
-3.24935e-05
-3.04224e-05
-2.20299e-05
-1.71761e-05
-1.37504e-05
-1.18672e-05
-1.10064e-05
-1.09799e-05
-1.14923e-05
-1.25346e-05
-9.5732e-06
-8.93813e-06
-8.54342e-06
-8.35171e-06
-8.48195e-06
-8.95103e-06
-9.71786e-06
-1.05386e-05
-1.12116e-05
-7.6434e-06
-3.98933e-05
-3.56848e-05
-3.71236e-05
-3.86474e-05
-3.99949e-05
-4.09297e-05
-4.14471e-05
-4.15587e-05
-4.12721e-05
-4.05749e-05
-3.94821e-05
-3.81687e-05
-3.69417e-05
-4.11195e-05
-8.54002e-06
-1.22554e-05
-1.16547e-05
-1.10251e-05
-1.06242e-05
-1.07347e-05
-1.12529e-05
-1.22361e-05
-9.42056e-06
-8.81995e-06
-8.45146e-06
-8.26276e-06
-8.36988e-06
-8.81283e-06
-9.66568e-06
-1.10485e-05
-1.33745e-05
-1.72182e-05
-1.87157e-05
-2.81325e-05
-3.12493e-05
-3.41639e-05
-3.61896e-05
-3.77604e-05
-3.88061e-05
-3.9393e-05
-3.954e-05
-3.92646e-05
-3.85509e-05
-3.73294e-05
-3.56004e-05
-3.30188e-05
-2.99057e-05
-2.1159e-05
-1.9174e-05
-1.50389e-05
-1.24963e-05
-1.11295e-05
-1.05371e-05
-1.05891e-05
-1.10538e-05
-1.19704e-05
-9.27819e-06
-8.72709e-06
-8.3804e-06
-8.19762e-06
-8.28423e-06
-8.6804e-06
-9.45023e-06
-1.06831e-05
-1.24664e-05
-1.49001e-05
-1.94626e-05
-2.5544e-05
-2.85538e-05
-3.13247e-05
-3.34569e-05
-3.50462e-05
-3.61126e-05
-3.67239e-05
-3.68955e-05
-3.66516e-05
-3.59774e-05
-3.48064e-05
-3.30835e-05
-3.07203e-05
-2.77407e-05
-2.18339e-05
-1.68393e-05
-1.42063e-05
-1.22514e-05
-1.10001e-05
-1.04284e-05
-1.04583e-05
-1.08796e-05
-1.17399e-05
-9.16958e-06
-8.66991e-06
-8.3533e-06
-8.19127e-06
-8.27807e-06
-8.65222e-06
-9.37807e-06
-1.05555e-05
-1.23391e-05
-1.48792e-05
-1.83308e-05
-2.26007e-05
-2.58082e-05
-2.86606e-05
-3.08361e-05
-3.25352e-05
-3.36427e-05
-3.42711e-05
-3.44535e-05
-3.42212e-05
-3.35499e-05
-3.2374e-05
-3.06148e-05
-2.82208e-05
-2.50918e-05
-2.08923e-05
-1.71478e-05
-1.42789e-05
-1.22401e-05
-1.09859e-05
-1.04039e-05
-1.03981e-05
-1.07699e-05
-1.1564e-05
-9.10694e-06
-8.6558e-06
-8.38162e-06
-8.25365e-06
-8.35189e-06
-8.70749e-06
-9.37374e-06
-1.04356e-05
-1.2007e-05
-1.42034e-05
-1.70212e-05
-2.03139e-05
-2.32548e-05
-2.59551e-05
-2.80521e-05
-2.96874e-05
-3.07507e-05
-3.13495e-05
-3.15288e-05
-3.13216e-05
-3.06987e-05
-2.96027e-05
-2.7941e-05
-2.57141e-05
-2.28629e-05
-1.9573e-05
-1.64789e-05
-1.39683e-05
-1.21466e-05
-1.09949e-05
-1.04425e-05
-1.04107e-05
-1.07319e-05
-1.14481e-05
-9.09569e-06
-8.69731e-06
-8.48712e-06
-8.41506e-06
-8.54663e-06
-8.90363e-06
-9.52495e-06
-1.04691e-05
-1.18117e-05
-1.36196e-05
-1.58748e-05
-1.84661e-05
-2.09733e-05
-2.33491e-05
-2.52363e-05
-2.67059e-05
-2.76832e-05
-2.82173e-05
-2.83829e-05
-2.82058e-05
-2.76447e-05
-2.66759e-05
-2.52049e-05
-2.32654e-05
-2.08474e-05
-1.82365e-05
-1.5757e-05
-1.36934e-05
-1.21475e-05
-1.11333e-05
-1.06143e-05
-1.05422e-05
-1.07922e-05
-1.14012e-05
-9.11586e-06
-8.81484e-06
-8.68354e-06
-8.69008e-06
-8.88086e-06
-9.26812e-06
-9.88555e-06
-1.07616e-05
-1.19415e-05
-1.34587e-05
-1.52957e-05
-1.73738e-05
-1.94582e-05
-2.14534e-05
-2.30764e-05
-2.43408e-05
-2.51908e-05
-2.56783e-05
-2.5834e-05
-2.56781e-05
-2.51914e-05
-2.4347e-05
-2.3095e-05
-2.14673e-05
-1.94859e-05
-1.74029e-05
-1.54186e-05
-1.37244e-05
-1.24054e-05
-1.14904e-05
-1.09697e-05
-1.08207e-05
-1.0962e-05
-1.14246e-05
-9.16551e-06
-8.97608e-06
-8.93867e-06
-9.03893e-06
-9.30842e-06
-9.76337e-06
-1.04142e-05
-1.1294e-05
-1.2418e-05
-1.37822e-05
-1.54233e-05
-1.72294e-05
-1.90487e-05
-2.07832e-05
-2.22311e-05
-2.33704e-05
-2.41574e-05
-2.46187e-05
-2.47685e-05
-2.46187e-05
-2.41598e-05
-2.33778e-05
-2.22518e-05
-2.08174e-05
-1.91174e-05
-1.734e-05
-1.56286e-05
-1.41443e-05
-1.29386e-05
-1.20458e-05
-1.14723e-05
-1.1211e-05
-1.12136e-05
-1.14991e-05
-9.23302e-06
-9.16926e-06
-9.22609e-06
-9.41207e-06
-9.76251e-06
-1.03013e-05
-1.10517e-05
-1.20416e-05
-1.32927e-05
-1.48174e-05
-1.6509e-05
-1.83427e-05
-2.0188e-05
-2.19411e-05
-2.3437e-05
-2.46302e-05
-2.54739e-05
-2.59729e-05
-2.61317e-05
-2.59563e-05
-2.54429e-05
-2.4588e-05
-2.33925e-05
-2.19012e-05
-2.0177e-05
-1.83817e-05
-1.6645e-05
-1.50704e-05
-1.37693e-05
-1.27721e-05
-1.20831e-05
-1.16859e-05
-1.15325e-05
-1.16083e-05
-7.08185e-06
-7.08792e-06
-7.10579e-06
-7.13716e-06
-7.1928e-06
-7.27533e-06
-7.38818e-06
-7.53428e-06
-7.70997e-06
-7.90846e-06
-8.12251e-06
-8.34492e-06
-8.55999e-06
-8.7593e-06
-8.9312e-06
-9.07062e-06
-9.1729e-06
-9.23639e-06
-9.26018e-06
-9.24444e-06
-9.1905e-06
-9.10037e-06
-8.97911e-06
-8.83203e-06
-8.67115e-06
-8.50488e-06
-8.34914e-06
-8.21074e-06
-8.09625e-06
-8.01089e-06
-7.95262e-06
-7.91382e-06
-7.88804e-06
-7.87089e-06
-7.0375e-06
-7.00399e-06
-6.99108e-06
-6.99283e-06
-7.01878e-06
-7.07222e-06
-7.15358e-06
-7.26095e-06
-7.39227e-06
-7.54685e-06
-7.70962e-06
-7.87712e-06
-8.0343e-06
-8.18093e-06
-8.30595e-06
-8.40866e-06
-8.48495e-06
-8.53486e-06
-8.55766e-06
-8.55354e-06
-8.52357e-06
-8.46802e-06
-8.39138e-06
-8.29448e-06
-8.1888e-06
-8.07452e-06
-7.96725e-06
-7.87036e-06
-7.79899e-06
-7.75355e-06
-7.73717e-06
-7.74797e-06
-7.76979e-06
-7.80533e-06
-7.03864e-06
-6.99167e-06
-6.96333e-06
-6.94046e-06
-6.94726e-06
-6.98878e-06
-7.06633e-06
-7.18029e-06
-7.32667e-06
-7.50781e-06
-7.70142e-06
-7.91145e-06
-8.09755e-06
-8.26944e-06
-8.40761e-06
-8.51913e-06
-8.59899e-06
-8.65031e-06
-8.67247e-06
-8.66563e-06
-8.63077e-06
-8.56505e-06
-8.47393e-06
-8.35049e-06
-8.21503e-06
-8.0578e-06
-7.9209e-06
-7.80058e-06
-7.72131e-06
-7.68201e-06
-7.68618e-06
-7.72639e-06
-7.76753e-06
-7.81691e-06
-7.08248e-06
-7.01648e-06
-6.96896e-06
-6.92431e-06
-6.91839e-06
-6.95981e-06
-7.05283e-06
-7.20278e-06
-7.40638e-06
-7.67533e-06
-7.97163e-06
-8.31351e-06
-8.60012e-06
-8.8602e-06
-9.05625e-06
-9.20986e-06
-9.31398e-06
-9.37713e-06
-9.39871e-06
-9.37884e-06
-9.31852e-06
-9.20943e-06
-9.05929e-06
-8.84656e-06
-8.61039e-06
-8.32173e-06
-8.08535e-06
-7.88282e-06
-7.75678e-06
-7.69755e-06
-7.70673e-06
-7.76831e-06
-7.83011e-06
-7.8999e-06
-7.18283e-06
-7.09448e-06
-7.03164e-06
-6.97487e-06
-6.96952e-06
-7.029e-06
-7.1626e-06
-7.38462e-06
-7.69587e-06
-8.1299e-06
-8.62132e-06
-9.22453e-06
-9.70105e-06
-1.01261e-05
-1.043e-05
-1.06632e-05
-1.08142e-05
-1.09009e-05
-1.09223e-05
-1.08783e-05
-1.07705e-05
-1.0581e-05
-1.03224e-05
-9.9439e-06
-9.51829e-06
-8.9692e-06
-8.54292e-06
-8.18212e-06
-7.96021e-06
-7.84592e-06
-7.83623e-06
-7.90323e-06
-7.97955e-06
-8.0744e-06
-7.34138e-06
-7.22569e-06
-7.15103e-06
-7.09146e-06
-7.10053e-06
-7.19664e-06
-7.39537e-06
-7.72348e-06
-8.18942e-06
-8.86887e-06
-9.66234e-06
-1.07193e-05
-1.14882e-05
-1.21663e-05
-1.26303e-05
-1.29834e-05
-1.32052e-05
-1.33285e-05
-1.33501e-05
-1.32699e-05
-1.30914e-05
-1.27817e-05
-1.23625e-05
-1.173e-05
-1.10126e-05
-1.001e-05
-9.28964e-06
-8.69059e-06
-8.32653e-06
-8.12393e-06
-8.07277e-06
-8.13067e-06
-8.2166e-06
-8.34362e-06
-7.55628e-06
-7.40689e-06
-7.32284e-06
-7.26836e-06
-7.30412e-06
-7.45243e-06
-7.73454e-06
-8.19079e-06
-8.83876e-06
-9.83878e-06
-1.10397e-05
-1.28654e-05
-1.40115e-05
-1.50054e-05
-1.56534e-05
-1.61469e-05
-1.64492e-05
-1.66156e-05
-1.66379e-05
-1.65159e-05
-1.62578e-05
-1.58079e-05
-1.52043e-05
-1.4254e-05
-1.31602e-05
-1.13866e-05
-1.0273e-05
-9.36005e-06
-8.82656e-06
-8.51397e-06
-8.40558e-06
-8.44466e-06
-8.53627e-06
-8.70598e-06
-7.82291e-06
-7.63151e-06
-7.54056e-06
-7.50048e-06
-7.57843e-06
-7.79787e-06
-8.18191e-06
-8.77229e-06
-9.59088e-06
-1.08547e-05
-1.25416e-05
-1.56907e-05
-1.72055e-05
-1.85617e-05
-1.94233e-05
-2.00924e-05
-2.04983e-05
-2.0721e-05
-2.07446e-05
-2.05686e-05
-2.02089e-05
-1.95839e-05
-1.87661e-05
-1.74498e-05
-1.59856e-05
-1.28779e-05
-1.13081e-05
-1.01333e-05
-9.44139e-06
-9.01296e-06
-8.83156e-06
-8.83954e-06
-8.93327e-06
-9.1585e-06
-8.13346e-06
-7.8881e-06
-7.79027e-06
-7.77061e-06
-7.90124e-06
-8.20145e-06
-8.68617e-06
-9.37769e-06
-1.02138e-05
-1.16077e-05
-1.35576e-05
-1.96266e-05
-2.09512e-05
-2.24263e-05
-2.33941e-05
-2.41569e-05
-2.46188e-05
-2.4878e-05
-2.4903e-05
-2.46931e-05
-2.42794e-05
-2.35614e-05
-2.26362e-05
-2.11921e-05
-1.99177e-05
-1.38595e-05
-1.21156e-05
-1.07868e-05
-1.00839e-05
-9.56921e-06
-9.31631e-06
-9.28938e-06
-9.38831e-06
-9.69108e-06
-8.47984e-06
-8.16845e-06
-8.07085e-06
-8.0909e-06
-8.31125e-06
-8.75017e-06
-9.42321e-06
-1.0238e-05
-1.11456e-05
-1.33384e-05
-9.51905e-06
-2.27053e-05
-2.39719e-05
-2.59167e-05
-2.71276e-05
-2.81288e-05
-2.87253e-05
-2.90499e-05
-2.90759e-05
-2.88027e-05
-2.82569e-05
-2.73024e-05
-2.61344e-05
-2.42141e-05
-2.30285e-05
-9.63814e-06
-1.382e-05
-1.16988e-05
-1.09585e-05
-1.03382e-05
-9.92905e-06
-9.81596e-06
-9.89799e-06
-1.02963e-05
-8.84496e-06
-8.45756e-06
-8.35587e-06
-8.41579e-06
-8.72942e-06
-9.31466e-06
-1.01655e-05
-1.10776e-05
-1.14769e-05
-6.85312e-06
-3.29405e-05
-2.79511e-05
-2.86921e-05
-2.97486e-05
-3.06263e-05
-3.1214e-05
-3.15288e-05
-3.15547e-05
-3.12913e-05
-3.0754e-05
-2.99234e-05
-2.89082e-05
-2.81771e-05
-3.30282e-05
-7.76561e-06
-1.21815e-05
-1.18442e-05
-1.11111e-05
-1.05463e-05
-1.03397e-05
-1.04103e-05
-1.09472e-05
-9.21519e-06
-8.75183e-06
-8.65738e-06
-8.78833e-06
-9.27177e-06
-1.01887e-05
-1.1687e-05
-1.38654e-05
-1.73788e-05
-2.09904e-05
-3.02627e-05
-2.64959e-05
-2.86355e-05
-3.07379e-05
-3.23932e-05
-3.35849e-05
-3.4359e-05
-3.47434e-05
-3.47692e-05
-3.44368e-05
-3.37159e-05
-3.25792e-05
-3.09842e-05
-2.89523e-05
-2.68875e-05
-3.08805e-05
-2.14811e-05
-1.79511e-05
-1.4561e-05
-1.25938e-05
-1.14253e-05
-1.09516e-05
-1.09455e-05
-1.16167e-05
-9.56798e-06
-9.02975e-06
-8.93006e-06
-9.10186e-06
-9.68671e-06
-1.07797e-05
-1.25401e-05
-1.50097e-05
-1.84526e-05
-2.18138e-05
-2.72877e-05
-2.86099e-05
-3.02679e-05
-3.19688e-05
-3.35794e-05
-3.47919e-05
-3.56144e-05
-3.60258e-05
-3.6051e-05
-3.56901e-05
-3.49193e-05
-3.37583e-05
-3.22018e-05
-3.05485e-05
-2.89323e-05
-2.77338e-05
-2.2312e-05
-1.90033e-05
-1.5682e-05
-1.34416e-05
-1.20466e-05
-1.14569e-05
-1.14375e-05
-1.22481e-05
-9.87932e-06
-9.28767e-06
-9.18542e-06
-9.39381e-06
-1.0068e-05
-1.13154e-05
-1.32989e-05
-1.60524e-05
-1.97109e-05
-2.35498e-05
-2.7904e-05
-3.01116e-05
-3.19534e-05
-3.36933e-05
-3.54098e-05
-3.66716e-05
-3.75329e-05
-3.79574e-05
-3.79821e-05
-3.7607e-05
-3.67964e-05
-3.55849e-05
-3.39217e-05
-3.22268e-05
-3.04395e-05
-2.83012e-05
-2.40023e-05
-2.02292e-05
-1.67066e-05
-1.42038e-05
-1.26212e-05
-1.19332e-05
-1.19009e-05
-1.28258e-05
-1.01417e-05
-9.51167e-06
-9.40037e-06
-9.62303e-06
-1.03407e-05
-1.16617e-05
-1.37385e-05
-1.66017e-05
-2.03039e-05
-2.42829e-05
-2.83985e-05
-3.10188e-05
-3.30917e-05
-3.48661e-05
-3.66217e-05
-3.7892e-05
-3.87626e-05
-3.91868e-05
-3.92107e-05
-3.88342e-05
-3.80124e-05
-3.67894e-05
-3.50842e-05
-3.33493e-05
-3.1332e-05
-2.87649e-05
-2.4712e-05
-2.08084e-05
-1.72556e-05
-1.46645e-05
-1.30213e-05
-1.23079e-05
-1.22932e-05
-1.33152e-05
-1.03699e-05
-9.70091e-06
-9.57983e-06
-9.80909e-06
-1.0553e-05
-1.19196e-05
-1.40538e-05
-1.69879e-05
-2.07292e-05
-2.47917e-05
-2.88684e-05
-3.17169e-05
-3.39128e-05
-3.57405e-05
-3.75328e-05
-3.8806e-05
-3.96758e-05
-4.00953e-05
-4.01187e-05
-3.97459e-05
-3.89235e-05
-3.76956e-05
-3.59515e-05
-3.41616e-05
-3.20363e-05
-2.92196e-05
-2.52095e-05
-2.12291e-05
-1.76497e-05
-1.50068e-05
-1.33339e-05
-1.26135e-05
-1.26162e-05
-1.36977e-05
-1.05459e-05
-9.84837e-06
-9.71776e-06
-9.94689e-06
-1.07018e-05
-1.20899e-05
-1.42511e-05
-1.72217e-05
-2.09894e-05
-2.51155e-05
-2.92182e-05
-3.2187e-05
-3.44712e-05
-3.63334e-05
-3.8144e-05
-3.9416e-05
-4.02834e-05
-4.06991e-05
-4.07225e-05
-4.03534e-05
-3.9533e-05
-3.83053e-05
-3.6541e-05
-3.47127e-05
-3.24851e-05
-2.95601e-05
-2.55299e-05
-2.14922e-05
-1.78965e-05
-1.52321e-05
-1.35532e-05
-1.28394e-05
-1.28603e-05
-1.39803e-05
-1.06671e-05
-9.95293e-06
-9.81632e-06
-1.00448e-05
-1.08059e-05
-1.22074e-05
-1.43876e-05
-1.73862e-05
-2.11835e-05
-2.53613e-05
-2.95071e-05
-3.25508e-05
-3.48913e-05
-3.67827e-05
-3.86108e-05
-3.9889e-05
-4.07593e-05
-4.11755e-05
-4.11996e-05
-4.08316e-05
-4.00098e-05
-3.87767e-05
-3.69947e-05
-3.51356e-05
-3.28489e-05
-2.98509e-05
-2.57806e-05
-2.16945e-05
-1.80755e-05
-1.53926e-05
-1.37079e-05
-1.29979e-05
-1.30298e-05
-1.41748e-05
-1.07334e-05
-1.00137e-05
-9.87508e-06
-1.01037e-05
-1.08685e-05
-1.22783e-05
-1.44728e-05
-1.74936e-05
-2.13221e-05
-2.55419e-05
-2.97337e-05
-3.2824e-05
-3.51983e-05
-3.71147e-05
-3.8961e-05
-4.02535e-05
-4.1133e-05
-4.15551e-05
-4.15808e-05
-4.12111e-05
-4.03836e-05
-3.91394e-05
-3.7341e-05
-3.54577e-05
-3.31369e-05
-3.00912e-05
-2.59747e-05
-2.18467e-05
-1.81982e-05
-1.54961e-05
-1.38021e-05
-1.30902e-05
-1.31248e-05
-1.42802e-05
-1.0745e-05
-1.00312e-05
-9.8945e-06
-1.01238e-05
-1.08896e-05
-1.23023e-05
-1.45057e-05
-1.75425e-05
-2.14025e-05
-2.56552e-05
-2.98981e-05
-3.30127e-05
-3.53992e-05
-3.73357e-05
-3.9199e-05
-4.05104e-05
-4.14051e-05
-4.18381e-05
-4.18694e-05
-4.14961e-05
-4.06591e-05
-3.93994e-05
-3.75875e-05
-3.56874e-05
-3.33551e-05
-3.02819e-05
-2.6111e-05
-2.19463e-05
-1.82633e-05
-1.55425e-05
-1.38364e-05
-1.31173e-05
-1.31472e-05
-1.43033e-05
-1.07063e-05
-1.0008e-05
-9.87639e-06
-1.01058e-05
-1.08673e-05
-1.22737e-05
-1.44755e-05
-1.75157e-05
-2.14067e-05
-2.56819e-05
-2.99995e-05
-3.31146e-05
-3.54823e-05
-3.74323e-05
-3.93098e-05
-4.06485e-05
-4.1563e-05
-4.20114e-05
-4.2047e-05
-4.16684e-05
-4.08204e-05
-3.95425e-05
-3.7723e-05
-3.58153e-05
-3.35045e-05
-3.0423e-05
-2.61721e-05
-2.19789e-05
-1.82587e-05
-1.55257e-05
-1.38098e-05
-1.30819e-05
-1.30994e-05
-1.42336e-05
-1.06307e-05
-9.94706e-06
-9.81978e-06
-1.00425e-05
-1.0784e-05
-1.21578e-05
-1.43232e-05
-1.73254e-05
-2.12253e-05
-2.55071e-05
-2.99841e-05
-3.307e-05
-3.53699e-05
-3.73066e-05
-3.91712e-05
-4.05286e-05
-4.14595e-05
-4.1924e-05
-4.19659e-05
-4.15847e-05
-4.0733e-05
-3.94494e-05
-3.76523e-05
-3.57676e-05
-3.35367e-05
-3.04602e-05
-2.60446e-05
-2.18385e-05
-1.81021e-05
-1.53943e-05
-1.36962e-05
-1.29746e-05
-1.29803e-05
-1.40636e-05
-1.05014e-05
-9.85384e-06
-9.73329e-06
-9.94343e-06
-1.06498e-05
-1.19645e-05
-1.40564e-05
-1.69726e-05
-2.08594e-05
-2.50613e-05
-2.99108e-05
-3.2916e-05
-3.50333e-05
-3.69802e-05
-3.88332e-05
-4.02088e-05
-4.11504e-05
-4.16303e-05
-4.16818e-05
-4.13048e-05
-4.0461e-05
-3.91794e-05
-3.7408e-05
-3.5526e-05
-3.34585e-05
-3.04532e-05
-2.56675e-05
-2.15372e-05
-1.7806e-05
-1.51668e-05
-1.35156e-05
-1.28155e-05
-1.28084e-05
-1.38164e-05
-1.03363e-05
-9.73273e-06
-9.61262e-06
-9.78959e-06
-1.0417e-05
-1.15922e-05
-1.34749e-05
-1.61099e-05
-1.97348e-05
-2.34019e-05
-2.95852e-05
-3.26777e-05
-3.44058e-05
-3.62924e-05
-3.80408e-05
-3.93841e-05
-4.03056e-05
-4.07899e-05
-4.08543e-05
-4.04998e-05
-3.9701e-05
-3.84798e-05
-3.68325e-05
-3.50385e-05
-3.33715e-05
-3.01847e-05
-2.40849e-05
-2.05037e-05
-1.70355e-05
-1.46574e-05
-1.31811e-05
-1.25723e-05
-1.25816e-05
-1.35014e-05
-1.01408e-05
-9.60009e-06
-9.48644e-06
-9.63396e-06
-1.01846e-05
-1.12213e-05
-1.28943e-05
-1.52832e-05
-1.90667e-05
-2.33317e-05
-3.13652e-05
-3.0677e-05
-3.35823e-05
-3.61793e-05
-3.80845e-05
-3.94888e-05
-4.04222e-05
-4.0918e-05
-4.10018e-05
-4.06768e-05
-3.99051e-05
-3.86668e-05
-3.68883e-05
-3.44231e-05
-3.15468e-05
-3.19227e-05
-2.42335e-05
-2.0014e-05
-1.63609e-05
-1.41899e-05
-1.28727e-05
-1.23413e-05
-1.23517e-05
-1.31591e-05
-9.93821e-06
-9.45749e-06
-9.3387e-06
-9.4292e-06
-9.83717e-06
-1.05772e-05
-1.16217e-05
-1.26528e-05
-1.28188e-05
-6.12331e-06
-4.21393e-05
-3.49407e-05
-3.56241e-05
-3.68353e-05
-3.79206e-05
-3.86929e-05
-3.915e-05
-3.9254e-05
-3.90114e-05
-3.84398e-05
-3.75744e-05
-3.65104e-05
-3.60214e-05
-4.31695e-05
-7.03322e-06
-1.39699e-05
-1.3926e-05
-1.30749e-05
-1.23235e-05
-1.2018e-05
-1.20907e-05
-1.28e-05
-9.75018e-06
-9.32831e-06
-9.22404e-06
-9.30539e-06
-9.68404e-06
-1.04042e-05
-1.15372e-05
-1.30656e-05
-1.52962e-05
-1.88999e-05
-1.87234e-05
-2.93322e-05
-3.16014e-05
-3.41022e-05
-3.57896e-05
-3.72599e-05
-3.82089e-05
-3.87775e-05
-3.89119e-05
-3.86217e-05
-3.79259e-05
-3.67486e-05
-3.51783e-05
-3.29269e-05
-3.07821e-05
-2.11491e-05
-2.08115e-05
-1.70549e-05
-1.46554e-05
-1.31539e-05
-1.22166e-05
-1.18507e-05
-1.18757e-05
-1.24851e-05
-9.58287e-06
-9.21478e-06
-9.1206e-06
-9.18733e-06
-9.51913e-06
-1.01643e-05
-1.11905e-05
-1.26489e-05
-1.45702e-05
-1.69801e-05
-2.14237e-05
-2.76999e-05
-2.96025e-05
-3.15258e-05
-3.29538e-05
-3.43454e-05
-3.52643e-05
-3.58345e-05
-3.59883e-05
-3.57425e-05
-3.5112e-05
-3.40574e-05
-3.26359e-05
-3.08443e-05
-2.9121e-05
-2.34509e-05
-1.88122e-05
-1.63829e-05
-1.43565e-05
-1.28982e-05
-1.20114e-05
-1.16573e-05
-1.16675e-05
-1.22084e-05
-9.45382e-06
-9.1364e-06
-9.06426e-06
-9.13992e-06
-9.46221e-06
-1.00854e-05
-1.10853e-05
-1.2536e-05
-1.45368e-05
-1.71415e-05
-2.052e-05
-2.449e-05
-2.66393e-05
-2.84562e-05
-2.98974e-05
-3.12884e-05
-3.22245e-05
-3.28019e-05
-3.29628e-05
-3.27283e-05
-3.20934e-05
-3.10415e-05
-2.96044e-05
-2.78492e-05
-2.59377e-05
-2.24938e-05
-1.91343e-05
-1.64682e-05
-1.43405e-05
-1.28508e-05
-1.19425e-05
-1.15565e-05
-1.15268e-05
-1.19985e-05
-9.36719e-06
-9.09689e-06
-9.05232e-06
-9.14367e-06
-9.45747e-06
-1.00432e-05
-1.09674e-05
-1.23005e-05
-1.41079e-05
-1.64496e-05
-1.91618e-05
-2.21227e-05
-2.41198e-05
-2.58308e-05
-2.72661e-05
-2.86001e-05
-2.95043e-05
-3.00636e-05
-3.02265e-05
-3.00156e-05
-2.94203e-05
-2.84424e-05
-2.70688e-05
-2.5436e-05
-2.36213e-05
-2.10973e-05
-1.84434e-05
-1.60554e-05
-1.41312e-05
-1.27486e-05
-1.189e-05
-1.15023e-05
-1.14441e-05
-1.18499e-05
-9.32453e-06
-9.10343e-06
-9.09775e-06
-9.22022e-06
-9.54199e-06
-1.01039e-05
-1.09583e-05
-1.21573e-05
-1.37382e-05
-1.57139e-05
-1.79365e-05
-2.02996e-05
-2.21815e-05
-2.38913e-05
-2.53436e-05
-2.66035e-05
-2.74749e-05
-2.80372e-05
-2.8207e-05
-2.80054e-05
-2.74346e-05
-2.65097e-05
-2.52132e-05
-2.36732e-05
-2.19319e-05
-1.98672e-05
-1.76783e-05
-1.56554e-05
-1.39737e-05
-1.27309e-05
-1.19302e-05
-1.15363e-05
-1.14394e-05
-1.17669e-05
-9.31611e-06
-9.15505e-06
-9.19509e-06
-9.35964e-06
-9.70281e-06
-1.02562e-05
-1.10595e-05
-1.21462e-05
-1.35347e-05
-1.52218e-05
-1.70986e-05
-1.90818e-05
-2.08494e-05
-2.24948e-05
-2.38815e-05
-2.50686e-05
-2.5902e-05
-2.64141e-05
-2.65755e-05
-2.6401e-05
-2.58817e-05
-2.50306e-05
-2.38402e-05
-2.24214e-05
-2.07915e-05
-1.89944e-05
-1.71305e-05
-1.53979e-05
-1.39327e-05
-1.28176e-05
-1.20645e-05
-1.16529e-05
-1.15061e-05
-1.17416e-05
-9.32661e-06
-9.22155e-06
-9.29274e-06
-9.49321e-06
-9.8609e-06
-1.04215e-05
-1.12012e-05
-1.22258e-05
-1.35025e-05
-1.50179e-05
-1.67073e-05
-1.8489e-05
-2.01873e-05
-2.17802e-05
-2.31361e-05
-2.42624e-05
-2.50642e-05
-2.55513e-05
-2.57083e-05
-2.55438e-05