/*--------------------------------*- C++ -*----------------------------------*\
| =========                 |                                                 |
| \\      /  F ield         | OpenFOAM: The Open Source CFD Toolbox           |
|  \\    /   O peration     | Version:  2112                                  |
|   \\  /    A nd           | Website:  www.openfoam.com                      |
|    \\/     M anipulation  |                                                 |
\*---------------------------------------------------------------------------*/
FoamFile
{
    version     2.0;
    format      ascii;
    arch        "LSB;label=32;scalar=64";
    class       surfaceScalarField;
    location    "2.4";
    object      phi;
}
// * * * * * * * * * * * * * * * * * * * * * * * * * * * * * * * * * * * * * //

dimensions      [0 3 -1 0 0 0 0];

oriented        oriented;

internalField   nonuniform List<scalar> 
188215
(
8.98067e-10
2.04673e-09
-2.94479e-09
3.03617e-09
1.1996e-09
-3.3377e-09
5.64686e-09
3.59485e-10
-2.97018e-09
8.37482e-09
-3.05831e-10
-2.42212e-09
1.11421e-08
-7.32531e-10
-2.03476e-09
1.38464e-08
-8.2868e-10
-1.87562e-09
1.64346e-08
-6.9569e-10
-1.89249e-09
1.87525e-08
-2.82327e-10
-2.03563e-09
2.07369e-08
2.21786e-10
-2.20618e-09
2.21446e-08
9.58336e-10
-2.36597e-09
2.27248e-08
1.97144e-09
-2.55165e-09
2.2106e-08
3.36059e-09
-2.74178e-09
2.0454e-08
4.54399e-09
-2.89204e-09
1.78399e-08
5.59632e-09
-2.98222e-09
1.45179e-08
6.35751e-09
-3.0355e-09
1.06546e-08
6.92819e-09
-3.06485e-09
6.45279e-09
7.2848e-09
-3.08301e-09
2.08768e-09
7.46012e-09
-3.09501e-09
-2.26147e-09
7.45226e-09
-3.10311e-09
-6.41598e-09
7.26139e-09
-3.10688e-09
-1.02018e-08
6.88975e-09
-3.10396e-09
-1.34176e-08
6.30496e-09
-3.08913e-09
-1.59009e-08
5.53292e-09
-3.04962e-09
-1.74012e-08
4.47385e-09
-2.97354e-09
-1.78563e-08
3.29496e-09
-2.8399e-09
-1.71036e-08
1.92233e-09
-2.67497e-09
-1.55244e-08
9.54151e-10
-2.53334e-09
-1.33501e-08
2.83887e-10
-2.45824e-09
-1.08411e-08
-4.40942e-11
-2.46487e-09
-8.14971e-09
-4.30507e-11
-2.64836e-09
-5.39889e-09
3.40887e-10
-3.0917e-09
-2.77908e-09
1.18047e-09
-3.80028e-09
-7.17449e-10
2.32102e-09
-4.38266e-09
3.2853e-09
-4.00275e-09
-7.95441e-10
6.90332e-09
-4.06115e-09
1.60015e-09
6.92395e-09
-8.11993e-09
4.91735e-09
6.41462e-09
-9.37234e-09
8.22295e-09
6.10384e-09
-9.71527e-09
1.12816e-08
6.29789e-09
-1.00891e-08
1.41548e-08
7.03248e-09
-1.07343e-08
1.68802e-08
8.2973e-09
-1.17185e-08
1.94679e-08
1.01745e-08
-1.30445e-08
2.17336e-08
1.27231e-08
-1.47669e-08
2.33321e-08
1.62493e-08
-1.68894e-08
2.40271e-08
2.0586e-08
-1.93096e-08
2.33404e-08
2.59595e-08
-2.19123e-08
2.15396e-08
3.07183e-08
-2.43735e-08
1.87304e-08
3.49482e-08
-2.65427e-08
1.52072e-08
3.82036e-08
-2.83229e-08
1.114e-08
4.06881e-08
-2.96927e-08
6.73255e-09
4.2319e-08
-3.06268e-08
2.1618e-09
4.31516e-08
-3.11208e-08
-2.39151e-09
4.31726e-08
-3.11671e-08
-6.74679e-09
4.23823e-08
-3.07657e-08
-1.07286e-08
4.07959e-08
-2.99243e-08
-1.41348e-08
3.8359e-08
-2.86479e-08
-1.68e-08
3.51615e-08
-2.69634e-08
-1.8433e-08
3.10023e-08
-2.48955e-08
-1.8937e-08
2.63465e-08
-2.25475e-08
-1.80411e-08
2.11067e-08
-2.00802e-08
-1.62296e-08
1.69779e-08
-1.78353e-08
-1.37196e-08
1.37222e-08
-1.59482e-08
-1.08129e-08
1.15861e-08
-1.45369e-08
-7.58501e-09
1.03379e-08
-1.36088e-08
-4.10395e-09
9.95242e-09
-1.30926e-08
-6.1664e-10
1.032e-08
-1.26268e-08
1.74788e-09
1.09515e-08
-1.0995e-08
1.07157e-08
-5.68249e-09
-1.98476e-09
1.29751e-08
-4.08705e-09
5.99312e-10
1.40035e-08
-9.66359e-09
4.43985e-09
1.41864e-08
-1.16123e-08
8.25344e-09
1.46538e-08
-1.23636e-08
1.17909e-08
1.58189e-08
-1.30585e-08
1.51164e-08
1.77758e-08
-1.40688e-08
1.83407e-08
2.06061e-08
-1.55332e-08
2.14957e-08
2.45309e-08
-1.75113e-08
2.44544e-08
2.98064e-08
-2.00421e-08
2.67532e-08
3.70979e-08
-2.31475e-08
2.79306e-08
4.61358e-08
-2.67271e-08
2.70483e-08
5.74503e-08
-3.06085e-08
2.47522e-08
6.73114e-08
-3.4297e-08
2.1285e-08
7.59675e-08
-3.7552e-08
1.71151e-08
8.25991e-08
-4.02256e-08
1.24061e-08
8.76737e-08
-4.22766e-08
7.37073e-09
9.10236e-08
-4.36692e-08
2.17655e-09
9.27474e-08
-4.44016e-08
-2.99919e-09
9.28116e-08
-4.44632e-08
-7.97916e-09
9.12162e-08
-4.38539e-08
-1.25965e-08
8.79975e-08
-4.25843e-08
-1.66385e-08
8.30582e-08
-4.06572e-08
-1.99446e-08
7.65775e-08
-3.81099e-08
-2.20467e-08
6.80928e-08
-3.49884e-08
-2.27103e-08
5.84587e-08
-3.14486e-08
-2.12794e-08
4.74206e-08
-2.77447e-08
-1.87001e-08
3.87896e-08
-2.4391e-08
-1.53725e-08
3.19739e-08
-2.15793e-08
-1.16906e-08
2.73328e-08
-1.94286e-08
-7.6996e-09
2.42533e-08
-1.79063e-08
-3.42246e-09
2.25227e-08
-1.68474e-08
8.13053e-10
2.18401e-08
-1.57556e-08
3.39436e-09
2.15554e-08
-1.31852e-08
1.99751e-08
-5.86503e-09
-2.647e-09
1.92945e-08
-3.67232e-09
2.27152e-10
2.10769e-08
-9.94758e-09
4.68738e-09
2.19038e-08
-1.21776e-08
9.20376e-09
2.31997e-08
-1.30623e-08
1.34748e-08
2.54307e-08
-1.38829e-08
1.76034e-08
2.87269e-08
-1.50797e-08
2.18023e-08
3.32458e-08
-1.68387e-08
2.62092e-08
3.93861e-08
-1.92621e-08
3.07292e-08
4.76892e-08
-2.24028e-08
3.46238e-08
5.95162e-08
-2.63128e-08
3.69124e-08
7.47026e-08
-3.08554e-08
3.55217e-08
9.47222e-08
-3.58812e-08
3.20367e-08
1.11426e-07
-4.06297e-08
2.70748e-08
1.25735e-07
-4.48054e-08
2.14576e-08
1.36434e-07
-4.82174e-08
1.5308e-08
1.44629e-07
-5.08058e-08
8.8462e-09
1.5003e-07
-5.25445e-08
2.22586e-09
1.5282e-07
-5.34519e-08
-4.37523e-09
1.52932e-07
-5.35193e-08
-1.07786e-08
1.50366e-07
-5.27465e-08
-1.68296e-08
1.4519e-07
-5.11413e-08
-2.23044e-08
1.37219e-07
-4.86857e-08
-2.70799e-08
1.2676e-07
-4.54069e-08
-3.0328e-08
1.12711e-07
-4.13701e-08
-3.14402e-08
9.63465e-08
-3.67756e-08
-2.88117e-08
7.6728e-08
-3.19359e-08
-2.45477e-08
6.21614e-08
-2.76358e-08
-1.95219e-08
5.09925e-08
-2.40445e-08
-1.43845e-08
4.35127e-08
-2.13172e-08
-9.15361e-09
3.84063e-08
-1.93839e-08
-3.79199e-09
3.51961e-08
-1.80351e-08
1.32971e-09
3.34099e-08
-1.66915e-08
4.30312e-09
3.23092e-08
-1.37272e-08
2.97276e-08
-5.44943e-09
-2.85905e-09
2.5391e-08
-3.23745e-09
5.57155e-10
2.77568e-08
-1.00961e-08
5.86761e-09
2.91451e-08
-1.25517e-08
1.13331e-08
3.12573e-08
-1.35231e-08
1.66291e-08
3.46e-08
-1.44652e-08
2.19486e-08
3.92992e-08
-1.58917e-08
2.76845e-08
4.55473e-08
-1.80374e-08
3.4219e-08
5.3907e-08
-2.10553e-08
4.15751e-08
6.53377e-08
-2.50046e-08
4.86174e-08
8.24564e-08
-2.99825e-08
5.32338e-08
1.05849e-07
-3.5763e-08
5.06465e-08
1.39732e-07
-4.24228e-08
4.47402e-08
1.65968e-07
-4.86356e-08
3.70266e-08
1.87583e-07
-5.4135e-08
2.89037e-08
2.03184e-07
-5.86276e-08
2.02946e-08
2.15195e-07
-6.19566e-08
1.13936e-08
2.23088e-07
-6.4157e-08
2.32645e-09
2.27181e-07
-6.52944e-08
-6.7214e-09
2.27348e-07
-6.53678e-08
-1.5563e-08
2.23584e-07
-6.43764e-08
-2.40694e-08
2.16015e-07
-6.2319e-08
-3.20363e-08
2.04315e-07
-5.913e-08
-3.95339e-08
1.89031e-07
-5.47736e-08
-4.51452e-08
1.67735e-07
-4.94128e-08
-4.7368e-08
1.41922e-07
-4.33526e-08
-4.22835e-08
1.08523e-07
-3.68796e-08
-3.47828e-08
8.60166e-08
-3.1356e-08
-2.67887e-08
6.97195e-08
-2.67211e-08
-1.93256e-08
5.92739e-08
-2.32243e-08
-1.22878e-08
5.2119e-08
-2.07505e-08
-5.44297e-09
4.74182e-08
-1.90669e-08
8.86342e-10
4.45765e-08
-1.74959e-08
4.63007e-09
4.27442e-08
-1.41788e-08
3.93778e-08
-5.02008e-09
-2.78084e-09
3.10476e-08
-2.87579e-09
1.48938e-09
3.38963e-08
-1.04098e-08
7.96632e-09
3.58144e-08
-1.31463e-08
1.46839e-08
3.87752e-08
-1.42355e-08
2.13149e-08
4.33276e-08
-1.53587e-08
2.81957e-08
4.95425e-08
-1.71241e-08
3.60098e-08
5.75542e-08
-1.98209e-08
4.56498e-08
6.79229e-08
-2.36559e-08
5.75631e-08
8.20605e-08
-2.86361e-08
7.04409e-08
1.04464e-07
-3.48851e-08
7.99489e-08
1.38138e-07
-4.17971e-08
7.47205e-08
1.95464e-07
-5.05029e-08
6.43048e-08
2.34969e-07
-5.85855e-08
5.20787e-08
2.65827e-07
-6.60177e-08
4.01622e-08
2.87263e-07
-7.21626e-08
2.78625e-08
3.03988e-07
-7.64938e-08
1.52723e-08
3.1497e-07
-7.9292e-08
2.48293e-09
3.20693e-07
-8.07224e-08
-1.02894e-08
3.20925e-07
-8.08051e-08
-2.28259e-08
3.15659e-07
-7.95383e-08
-3.50296e-08
3.05118e-07
-7.68988e-08
-4.67892e-08
2.88795e-07
-7.27199e-08
-5.87793e-08
2.67738e-07
-6.67171e-08
-6.88356e-08
2.37216e-07
-5.94246e-08
-7.35826e-08
1.98164e-07
-5.14949e-08
-6.34028e-08
1.41313e-07
-4.297e-08
-5.0004e-08
1.08952e-07
-3.6334e-08
-3.73347e-08
8.75072e-08
-3.0457e-08
-2.65527e-08
7.44746e-08
-2.59826e-08
-1.71163e-08
6.5451e-08
-2.27684e-08
-8.31945e-09
5.92388e-08
-2.06174e-08
-3.0509e-10
5.52961e-08
-1.8734e-08
4.61224e-09
5.27584e-08
-1.49315e-08
4.86953e-08
-4.70531e-09
-2.49768e-09
3.61032e-08
-2.55792e-09
2.96931e-09
3.93752e-08
-1.09458e-08
1.09905e-08
4.18573e-08
-1.4064e-08
1.93156e-08
4.57823e-08
-1.53322e-08
2.75995e-08
5.17585e-08
-1.67147e-08
3.63375e-08
5.97416e-08
-1.89371e-08
4.65953e-08
6.96361e-08
-2.23397e-08
6.01892e-08
8.15012e-08
-2.71722e-08
7.87023e-08
9.68308e-08
-3.32834e-08
1.01605e-07
1.22215e-07
-4.0654e-08
1.2184e-07
1.65659e-07
-4.77559e-08
1.10526e-07
2.65234e-07
-5.84563e-08
9.19404e-08
3.21858e-07
-6.83028e-08
7.28868e-08
3.6325e-07
-7.83691e-08
5.57751e-08
3.91332e-07
-8.69566e-08
3.84234e-08
4.13716e-07
-9.23755e-08
2.07081e-08
4.28498e-07
-9.58121e-08
2.70574e-09
4.36245e-07
-9.75502e-08
-1.52857e-08
4.36562e-07
-9.76458e-08
-3.29655e-08
4.29435e-07
-9.60962e-08
-5.02506e-08
4.15243e-07
-9.28404e-08
-6.72367e-08
3.93374e-07
-8.7593e-08
-8.60693e-08
3.65728e-07
-7.91569e-08
-1.04242e-07
3.24626e-07
-6.92369e-08
-1.14924e-07
2.68398e-07
-5.9553e-08
-9.3651e-08
1.69062e-07
-4.90213e-08
-7.02588e-08
1.27785e-07
-4.22251e-08
-5.09109e-08
1.03413e-07
-3.52534e-08
-3.59289e-08
8.9208e-08
-2.97154e-08
-2.36315e-08
7.87535e-08
-2.55999e-08
-1.24262e-08
7.08817e-08
-2.28482e-08
-2.2061e-09
6.56112e-08
-2.05352e-08
4.36447e-09
6.2243e-08
-1.60552e-08
5.75146e-08
-4.45484e-09
-2.00265e-09
4.0346e-08
-2.24016e-09
5.06203e-09
4.39982e-08
-1.16877e-08
1.51117e-08
4.71163e-08
-1.53087e-08
2.55224e-08
5.21969e-08
-1.68253e-08
3.58539e-08
5.99761e-08
-1.85491e-08
4.66248e-08
7.03137e-08
-2.1343e-08
5.9104e-08
8.27476e-08
-2.55907e-08
7.62271e-08
9.59654e-08
-3.15873e-08
1.01736e-07
1.10108e-07
-3.87862e-08
1.41034e-07
1.30215e-07
-4.7299e-08
1.85259e-07
1.71482e-07
-5.00471e-08
1.60856e-07
3.50012e-07
-6.03756e-08
1.29472e-07
4.25122e-07
-7.18802e-08
1.01405e-07
4.77377e-07
-8.60594e-08
7.77061e-08
5.13365e-07
-9.83349e-08
5.34936e-08
5.42639e-07
-1.0471e-07
2.85054e-08
5.62181e-07
-1.08695e-07
3.0189e-09
5.72423e-07
-1.10691e-07
-2.24678e-08
5.7285e-07
-1.10801e-07
-4.74564e-08
5.63444e-07
-1.09021e-07
-7.16691e-08
5.44698e-07
-1.05242e-07
-9.53389e-08
5.16107e-07
-9.9063e-08
-1.233e-07
4.80642e-07
-8.69527e-08
-1.54315e-07
4.28577e-07
-7.29363e-08
-1.77886e-07
3.53619e-07
-6.16493e-08
-1.3191e-07
1.74516e-07
-5.14311e-08
-9.24297e-08
1.37297e-07
-4.89926e-08
-6.60245e-08
1.17922e-07
-4.09145e-08
-4.71925e-08
1.04764e-07
-3.43881e-08
-3.21138e-08
9.29084e-08
-2.92336e-08
-1.8113e-08
8.2649e-08
-2.5768e-08
-5.05191e-09
7.54509e-08
-2.29008e-08
3.81414e-09
7.09112e-08
-1.75342e-08
6.55063e-08
-4.17755e-09
-1.27085e-09
4.35199e-08
-1.90305e-09
7.81645e-09
4.75239e-08
-1.26131e-08
2.0457e-08
5.13466e-08
-1.68709e-08
3.35604e-08
5.77971e-08
-1.87036e-08
4.64839e-08
6.78887e-08
-2.08361e-08
5.94752e-08
8.15932e-08
-2.42708e-08
7.34326e-08
9.82294e-08
-2.94394e-08
9.185e-08
1.14209e-07
-3.66612e-08
1.21316e-07
1.26209e-07
-4.55668e-08
1.83133e-07
1.22435e-07
-5.4037e-08
2.77165e-07
1.35206e-07
-5.77556e-08
2.24488e-07
4.57593e-07
-5.49038e-08
1.74407e-07
5.39826e-07
-6.46228e-08
1.36737e-07
5.99196e-07
-8.41483e-08
1.05626e-07
6.45452e-07
-1.00976e-07
7.2992e-08
6.82838e-07
-1.07565e-07
3.86798e-08
7.08674e-07
-1.12181e-07
3.45726e-09
7.22082e-07
-1.14437e-07
-3.17814e-08
7.22642e-07
-1.14554e-07
-6.61476e-08
7.1034e-07
-1.12529e-07
-9.88924e-08
6.85572e-07
-1.08129e-07
-1.30168e-07
6.49133e-07
-1.0175e-07
-1.68029e-07
6.03588e-07
-8.50857e-08
-2.18024e-07
5.44322e-07
-6.57502e-08
-2.69564e-07
4.61477e-07
-5.63173e-08
-1.72537e-07
1.37077e-07
-5.95881e-08
-1.11593e-07
1.32307e-07
-5.59533e-08
-8.10425e-08
1.35237e-07
-4.78661e-08
-6.04695e-08
1.23969e-07
-3.97775e-08
-4.31468e-08
1.09145e-07
-3.3559e-08
-2.58846e-08
9.47298e-08
-2.93431e-08
-9.11978e-09
8.45371e-08
-2.58511e-08
2.86342e-09
7.82931e-08
-1.93652e-08
7.22044e-08
-3.83472e-09
-7.03718e-11
4.51248e-08
-1.53453e-09
1.15318e-08
4.96226e-08
-1.37008e-08
2.76485e-08
5.39813e-08
-1.87514e-08
4.46841e-08
6.17411e-08
-2.09797e-08
6.18275e-08
7.43575e-08
-2.36122e-08
7.8659e-08
9.25509e-08
-2.77892e-08
9.44009e-08
1.16422e-07
-3.39349e-08
1.08764e-07
1.42928e-07
-4.30813e-08
1.21606e-07
1.66657e-07
-5.32902e-08
1.71206e-07
1.42574e-07
-6.97395e-08
3.92455e-07
-8.60437e-08
3.05004e-07
5.73546e-07
-2.85018e-08
2.36852e-07
6.37557e-07
-2.95789e-08
1.90833e-07
6.93934e-07
-4.87196e-08
1.5026e-07
7.52979e-07
-6.69538e-08
1.04102e-07
7.98824e-07
-6.98286e-08
5.4659e-08
8.31089e-07
-7.29713e-08
4.07582e-09
8.47307e-07
-7.4641e-08
-4.65332e-08
8.47982e-07
-7.47311e-08
-9.60717e-08
8.3312e-07
-7.32417e-08
-1.42458e-07
8.02211e-07
-7.02532e-08
-1.8345e-07
7.57697e-07
-6.75716e-08
-2.30242e-07
6.99844e-07
-4.94648e-08
-2.99613e-07
6.44193e-07
-3.05003e-08
-3.86818e-07
5.7866e-07
-2.99775e-08
-1.60865e-07
-8.88763e-08
-1.10558e-07
1.53147e-07
-7.11463e-08
-9.76131e-08
1.77715e-07
-5.54227e-08
-8.06527e-08
1.53487e-07
-4.64785e-08
-6.05721e-08
1.27699e-07
-3.86351e-08
-3.81463e-08
1.06003e-07
-3.3699e-08
-1.57082e-08
9.16118e-08
-2.95129e-08
7.0047e-10
8.34888e-08
-2.16043e-08
7.62908e-08
-3.38586e-09
9.5969e-10
4.52117e-08
-1.04664e-09
1.5807e-08
4.98303e-08
-1.5055e-08
3.61553e-08
5.45768e-08
-2.09437e-08
5.82761e-08
6.3264e-08
-2.36438e-08
8.15855e-08
7.79277e-08
-2.68796e-08
1.05236e-07
1.00624e-07
-3.17238e-08
1.25194e-07
1.34828e-07
-3.83632e-08
1.29034e-07
1.84767e-07
-4.56793e-08
1.0158e-07
2.56698e-07
-6.25868e-08
3.46824e-07
-1.0267e-07
1.82902e-07
3.15942e-07
7.47019e-08
2.47603e-07
5.36308e-07
3.65479e-08
2.44313e-07
6.68113e-07
2.91112e-08
2.00528e-07
7.65943e-07
3.0821e-08
1.39729e-07
8.31854e-07
2.77685e-08
7.32999e-08
8.73551e-07
2.39674e-08
4.89089e-09
8.93538e-07
2.21776e-08
-6.35499e-08
8.9424e-07
2.21826e-08
-1.30096e-07
8.75688e-07
2.3978e-08
-1.9119e-07
8.35512e-07
2.7793e-08
-2.3567e-07
7.7131e-07
3.08675e-08
-2.40594e-07
6.7552e-07
2.92482e-08
-1.78853e-07
5.46056e-07
3.63971e-08
3.26417e-07
7.33893e-08
-9.85433e-08
3.52018e-07
-1.00328e-07
-1.21338e-07
2.64802e-07
-6.42929e-08
-1.12233e-07
1.93883e-07
-4.95016e-08
-8.60247e-08
1.45371e-07
-4.38796e-08
-5.49443e-08
1.13693e-07
-3.87709e-08
-2.4391e-08
9.50738e-08
-3.40153e-08
-1.6328e-09
8.5239e-08
-2.45084e-08
7.74632e-08
-2.80524e-09
2.40864e-09
4.33544e-08
-5.51337e-10
2.10547e-08
4.7728e-08
-1.65438e-08
4.68537e-08
5.21219e-08
-2.33441e-08
7.66959e-08
6.00587e-08
-2.66369e-08
1.12216e-07
7.31863e-08
-3.07782e-08
1.57102e-07
9.2773e-08
-3.70356e-08
2.17236e-07
1.20205e-07
-4.55098e-08
2.9996e-07
1.55478e-07
-5.34353e-08
4.1872e-07
1.95784e-07
-5.78458e-08
5.72881e-07
2.3607e-07
-4.34074e-08
4.46903e-07
8.31076e-08
4.28699e-08
4.63787e-07
2.29826e-07
6.92325e-08
4.48246e-07
4.06238e-07
1.4561e-07
3.83681e-07
5.24333e-07
2.08346e-07
2.92948e-07
6.13169e-07
2.43508e-07
1.95584e-07
6.72608e-07
2.56609e-07
9.98039e-08
7.09905e-07
2.59426e-07
5.72647e-09
7.27839e-07
2.59776e-07
-8.83309e-08
7.28451e-07
2.59847e-07
-1.84046e-07
7.11758e-07
2.59645e-07
-2.81303e-07
6.75762e-07
2.57007e-07
-3.71902e-07
6.17707e-07
2.44202e-07
-4.3636e-07
5.30339e-07
2.09639e-07
-4.51384e-07
4.13429e-07
1.4765e-07
-4.35835e-07
2.38145e-07
7.27233e-08
-5.67538e-07
8.53572e-08
4.63458e-08
-4.13233e-07
2.40381e-07
-4.26672e-08
-2.91256e-07
2.02568e-07
-5.97427e-08
-2.03532e-07
1.63722e-07
-5.75618e-08
-1.36374e-07
1.30135e-07
-5.19228e-08
-8.25498e-08
1.05311e-07
-4.54416e-08
-3.77112e-08
8.97254e-08
-3.94902e-08
-5.62278e-09
8.12251e-08
-2.80744e-08
7.40215e-08
-2.18109e-09
3.59316e-09
3.98863e-08
-1.25046e-10
2.54716e-08
4.37814e-08
-1.79319e-08
5.57161e-08
4.74961e-08
-2.56187e-08
9.12078e-08
5.40444e-08
-2.94774e-08
1.3431e-07
6.45347e-08
-3.44502e-08
1.89699e-07
7.941e-08
-4.20262e-08
2.63611e-07
9.85152e-08
-5.22226e-08
3.61062e-07
1.20402e-07
-6.23744e-08
4.84565e-07
1.40095e-07
-6.78142e-08
6.24328e-07
1.54035e-07
-5.7728e-08
6.28965e-07
1.049e-07
-2.64286e-08
6.32595e-07
1.90362e-07
3.58325e-08
5.79412e-07
2.9762e-07
1.61801e-07
4.78664e-07
3.79529e-07
2.45552e-07
3.58968e-07
4.43305e-07
2.89559e-07
2.3718e-07
4.86052e-07
3.08345e-07
1.19988e-07
5.13272e-07
3.13824e-07
6.37153e-09
5.26421e-07
3.15034e-07
-1.07207e-07
5.26924e-07
3.15105e-07
-2.24281e-07
5.14786e-07
3.14046e-07
-3.45875e-07
4.88591e-07
3.08765e-07
-4.65354e-07
4.4687e-07
2.90316e-07
-5.66108e-07
3.84088e-07
2.47004e-07
-6.1978e-07
3.02911e-07
1.6419e-07
-6.17557e-07
1.96037e-07
3.98845e-08
-6.16737e-07
1.08284e-07
-2.37467e-08
-4.77949e-07
1.58851e-07
-5.72575e-08
-3.51802e-07
1.46278e-07
-6.98582e-08
-2.49101e-07
1.27936e-07
-6.69159e-08
-1.67266e-07
1.07732e-07
-5.94316e-08
-1.01484e-07
9.11328e-08
-5.16037e-08
-4.72107e-08
7.99296e-08
-4.44776e-08
-8.27615e-09
7.35203e-08
-3.12298e-08
6.72983e-08
-1.55296e-09
4.55787e-09
3.49831e-08
3.4537e-10
2.92137e-08
3.82694e-08
-1.91438e-08
6.31554e-08
4.11491e-08
-2.75946e-08
1.03047e-07
4.60824e-08
-3.19293e-08
1.51439e-07
5.37592e-08
-3.76172e-08
2.13104e-07
6.41889e-08
-4.64437e-08
2.9352e-07
7.67465e-08
-5.86474e-08
3.95903e-07
9.02865e-08
-7.22673e-08
5.17341e-07
1.01219e-07
-8.25619e-08
6.41798e-07
1.10268e-07
-8.06904e-08
7.00623e-07
1.02101e-07
-5.60263e-08
7.23767e-07
1.50855e-07
1.63625e-08
6.60296e-07
2.13809e-07
1.47282e-07
5.42741e-07
2.66063e-07
2.31021e-07
4.03774e-07
3.07921e-07
2.74352e-07
2.65358e-07
3.36286e-07
2.88182e-07
1.33756e-07
3.54744e-07
2.9013e-07
6.88584e-09
3.63767e-07
2.89524e-07
-1.1994e-07
3.64189e-07
2.89561e-07
-2.51405e-07
3.56005e-07
2.90246e-07
-3.8961e-07
3.38369e-07
2.88427e-07
-5.28389e-07
3.10784e-07
2.74865e-07
-6.46127e-07
2.69645e-07
2.32181e-07
-7.10507e-07
2.17909e-07
1.49383e-07
-6.89943e-07
1.55322e-07
2.01507e-08
-6.33878e-07
1.05878e-07
-5.36589e-08
-5.09806e-07
1.14915e-07
-8.01365e-08
-3.85744e-07
1.06832e-07
-8.46153e-08
-2.77829e-07
9.70713e-08
-7.70506e-08
-1.88746e-07
8.50692e-08
-6.64196e-08
-1.15473e-07
7.47463e-08
-5.68864e-08
-5.43975e-08
6.74587e-08
-4.86049e-08
-1.02238e-08
6.31073e-08
-3.37608e-08
5.80059e-08
-9.31292e-10
5.15393e-09
2.90487e-08
7.80474e-10
3.18759e-08
3.16898e-08
-2.01423e-08
6.84381e-08
3.37927e-08
-2.92058e-08
1.11137e-07
3.72918e-08
-3.39085e-08
1.62411e-07
4.26214e-08
-4.01356e-08
2.26855e-07
4.96501e-08
-4.99052e-08
3.09421e-07
5.77903e-08
-6.36101e-08
4.12865e-07
6.64209e-08
-7.9579e-08
5.33114e-07
7.36882e-08
-9.27175e-08
6.55568e-07
8.17958e-08
-9.39825e-08
7.40695e-07
8.66946e-08
-6.97203e-08
7.75766e-07
1.1658e-07
-7.95832e-10
7.07272e-07
1.54759e-07
1.27544e-07
5.80869e-07
1.87686e-07
2.0478e-07
4.31478e-07
2.14614e-07
2.42698e-07
2.83381e-07
2.33363e-07
2.5102e-07
1.42766e-07
2.45789e-07
2.49571e-07
7.30223e-09
2.51974e-07
2.47257e-07
-1.28124e-07
2.52355e-07
2.4726e-07
-2.68626e-07
2.46922e-07
2.49585e-07
-4.16556e-07
2.35211e-07
2.51089e-07
-5.65838e-07
2.17109e-07
2.42957e-07
-6.92563e-07
1.90745e-07
2.05625e-07
-7.62191e-07
1.58222e-07
1.29314e-07
-7.30167e-07
1.20338e-07
2.96028e-09
-6.4717e-07
9.0402e-08
-6.75216e-08
-5.24821e-07
8.60977e-08
-9.35316e-08
-4.01795e-07
7.86898e-08
-9.48829e-08
-2.9249e-07
7.23636e-08
-8.45976e-08
-2.00623e-07
6.50127e-08
-7.18109e-08
-1.2361e-07
5.87043e-08
-6.09711e-08
-5.8542e-08
5.41701e-08
-5.1779e-08
-1.11139e-08
5.13582e-08
-3.5679e-08
4.73853e-08
-4.93296e-10
5.53378e-09
2.24119e-08
1.10302e-09
3.375e-08
2.43946e-08
-2.09211e-08
7.2171e-08
2.5821e-08
-3.04493e-08
1.16745e-07
2.81355e-08
-3.54177e-08
1.69759e-07
3.16312e-08
-4.20243e-08
2.3566e-07
3.62017e-08
-5.24525e-08
3.19161e-07
4.14861e-08
-6.7196e-08
4.23019e-07
4.72701e-08
-8.47076e-08
5.43542e-07
5.28017e-08
-9.96368e-08
6.68154e-07
5.992e-08
-1.02736e-07
7.65917e-07
6.75308e-08
-7.85993e-08
8.07362e-07
8.66221e-08
-1.14867e-08
7.36976e-07
1.10263e-07
1.14882e-07
6.05611e-07
1.31217e-07
1.87834e-07
4.49743e-07
1.48592e-07
2.21891e-07
2.9543e-07
1.61025e-07
2.26651e-07
1.48883e-07
1.6939e-07
2.22946e-07
7.67957e-09
1.73657e-07
2.1952e-07
-1.33499e-07
1.74029e-07
2.19505e-07
-2.79971e-07
1.70489e-07
2.22905e-07
-4.34183e-07
1.62798e-07
2.26624e-07
-5.90035e-07
1.50953e-07
2.22008e-07
-7.21849e-07
1.34057e-07
1.88501e-07
-7.9354e-07
1.13437e-07
1.16477e-07
-7.5523e-07
9.00331e-08
-8.00505e-09
-6.59339e-07
7.10146e-08
-7.65038e-08
-5.34641e-07
6.37745e-08
-1.02375e-07
-4.11145e-07
5.7118e-08
-1.01925e-07
-3.01113e-07
5.22581e-08
-8.99265e-08
-2.078e-07
4.74183e-08
-7.57182e-08
-1.28613e-07
4.34794e-08
-6.39627e-08
-6.10293e-08
4.07027e-08
-5.41162e-08
-1.1513e-08
3.89445e-08
-3.71027e-08
3.60304e-08
-1.58064e-10
5.73858e-09
1.53773e-08
1.296e-09
3.49364e-08
1.66932e-08
-2.14964e-08
7.45718e-08
1.75379e-08
-3.13523e-08
1.20324e-07
1.88802e-08
-3.64969e-08
1.74374e-07
2.09246e-08
-4.33433e-08
2.41108e-07
2.36435e-08
-5.41759e-08
3.25224e-07
2.6908e-08
-6.95381e-08
4.29683e-07
3.07265e-08
-8.79153e-08
5.51365e-07
3.49241e-08
-1.03804e-07
6.78494e-07
4.05572e-08
-1.07767e-07
7.82523e-07
4.73617e-08
-8.38598e-08
8.27498e-07
5.91781e-08
-1.75315e-08
7.55983e-07
7.31519e-08
1.08626e-07
6.2159e-07
8.57653e-08
1.79844e-07
4.61764e-07
9.62958e-08
2.12122e-07
3.03514e-07
1.04062e-07
2.15212e-07
1.53081e-07
1.0937e-07
2.10453e-07
8.04445e-09
1.12185e-07
2.06508e-07
-1.36986e-07
1.12571e-07
2.06488e-07
-2.87397e-07
1.10508e-07
2.10392e-07
-4.45631e-07
1.05882e-07
2.15151e-07
-6.05553e-07
9.86875e-08
2.12188e-07
-7.40522e-07
8.85837e-08
1.80443e-07
-8.13463e-07
7.62357e-08
1.10142e-07
-7.71659e-07
6.23914e-08
-1.41625e-08
-6.69376e-07
5.0589e-08
-8.18578e-08
-5.42025e-07
4.39356e-08
-1.07511e-07
-4.17202e-07
3.85233e-08
-1.06229e-07
-3.06321e-07
3.46974e-08
-9.33208e-08
-2.12019e-07
3.14364e-08
-7.83201e-08
-1.31503e-07
2.89834e-08
-6.60195e-08
-6.23813e-08
2.7342e-08
-5.57611e-08
-1.16051e-08
2.63058e-08
-3.81375e-08
2.43966e-08
2.86698e-11
5.83635e-09
8.1641e-09
1.37686e-09
3.56055e-08
8.80827e-09
-2.18842e-08
7.59626e-08
9.12148e-09
-3.19407e-08
1.22428e-07
9.6014e-09
-3.71869e-08
1.77137e-07
1.03814e-08
-4.41659e-08
2.44473e-07
1.15242e-08
-5.52169e-08
3.29179e-07
1.31085e-08
-7.09063e-08
4.34362e-07
1.5267e-08
-8.97227e-08
5.57213e-07
1.81567e-08
-1.06084e-07
6.86166e-07
2.20354e-08
-1.10431e-07
7.9322e-07
2.69101e-08
-8.66031e-08
8.39867e-07
3.28638e-08
-2.03327e-08
7.67682e-07
3.90476e-08
1.0629e-07
6.315e-07
4.47315e-08
1.77216e-07
4.69339e-07
4.94635e-08
2.08994e-07
3.08693e-07
5.3169e-08
2.11539e-07
1.55857e-07
5.57893e-08
2.06416e-07
8.42225e-09
5.73281e-08
2.02292e-07
-1.3903e-07
5.77528e-08
2.02271e-07
-2.91912e-07
5.70359e-08
2.06354e-07
-4.5265e-07
5.51464e-08
2.11473e-07
-6.15049e-07
5.20332e-08
2.09053e-07
-7.51959e-07
4.7696e-08
1.77798e-07
-8.25703e-07
4.2203e-08
1.07777e-07
-7.82284e-07
3.59996e-08
-1.70272e-08
-6.76917e-07
2.99085e-08
-8.4687e-08
-5.47656e-07
2.49616e-08
-1.10287e-07
-4.2154e-07
2.10545e-08
-1.08647e-07
-3.09765e-07
1.822e-08
-9.52982e-08
-2.14634e-07
1.62056e-08
-7.99e-08
-1.33215e-07
1.48769e-08
-6.73127e-08
-6.31388e-08
1.4093e-08
-5.68271e-08
-1.16198e-08
1.36275e-08
-3.88407e-08
1.26995e-08
7.73993e-11
5.84923e-09
9.65187e-10
1.34969e-09
3.58182e-08
9.34628e-10
-2.20953e-08
7.64567e-08
7.14953e-10
-3.2232e-08
1.23242e-07
3.29762e-10
-3.75136e-08
1.7832e-07
-1.63178e-10
-4.45336e-08
2.46108e-07
-6.14708e-10
-5.56488e-08
3.31392e-07
-7.45327e-10
-7.14303e-08
4.37318e-07
-2.98405e-10
-9.03611e-08
5.61078e-07
1.24276e-09
-1.06846e-07
6.90975e-07
3.42972e-09
-1.11291e-07
7.98822e-07
6.56207e-09
-8.74989e-08
8.45698e-07
7.12905e-09
-2.11407e-08
7.73099e-07
5.72359e-09
1.05923e-07
6.36106e-07
4.57248e-09
1.77152e-07
4.7297e-07
3.52764e-09
2.09072e-07
3.1128e-07
3.19213e-09
2.11667e-07
1.57372e-07
3.14451e-09
2.06553e-07
8.835e-09
3.44035e-09
2.02425e-07
-1.39749e-07
3.92998e-09
2.02407e-07
-2.93791e-07
4.58757e-09
2.06489e-07
-4.55713e-07
5.47188e-09
2.11597e-07
-6.1927e-07
6.46674e-09
2.09123e-07
-7.5719e-07
7.89989e-09
1.77716e-07
-8.31527e-07
9.16656e-09
1.07373e-07
-7.87968e-07
1.03546e-08
-1.79136e-08
-6.81793e-07
9.42346e-09
-8.56895e-08
-5.51541e-07
5.98801e-09
-1.11279e-07
-4.24454e-07
3.5267e-09
-1.09559e-07
-3.11851e-07
1.71876e-09
-9.61014e-08
-2.16037e-07
9.92456e-10
-8.06014e-08
-1.34042e-07
8.16535e-10
-6.79347e-08
-6.34754e-08
9.04275e-10
-5.73775e-08
-1.16191e-08
1.01749e-09
-3.92463e-08
1.08279e-09
-2.37728e-12
5.77705e-09
-6.02226e-09
1.2104e-09
3.55732e-08
-6.72911e-09
-2.21324e-08
7.60511e-08
-7.53237e-09
-3.22306e-08
1.22757e-07
-8.89292e-09
-3.74834e-08
1.77904e-07
-1.08526e-08
-4.44575e-08
2.45983e-07
-1.3205e-08
-5.54886e-08
3.31831e-07
-1.54568e-08
-7.1137e-08
4.38531e-07
-1.7123e-08
-8.98752e-08
5.62977e-07
-1.70607e-08
-1.06142e-07
6.93065e-07
-1.62448e-08
-1.10414e-07
7.99597e-07
-1.3319e-08
-8.6651e-08
8.45178e-07
-1.8288e-08
-2.01635e-08
7.72335e-07
-2.86579e-08
1.07224e-07
6.35468e-07
-3.78003e-08
1.7924e-07
4.72702e-07
-4.55587e-08
2.11853e-07
3.11311e-07
-5.04495e-08
2.15033e-07
1.57644e-07
-5.34497e-08
2.10261e-07
9.29628e-09
-5.45147e-08
2.06302e-07
-1.3913e-07
-5.39242e-08
2.0628e-07
-2.93033e-07
-5.17114e-08
2.10202e-07
-4.54823e-07
-4.77014e-08
2.14963e-07
-6.18243e-07
-4.19993e-08
2.11886e-07
-7.56296e-07
-3.37955e-08
1.79749e-07
-8.31134e-07
-2.4576e-08
1.0858e-07
-7.89017e-07
-1.46764e-08
-1.70852e-08
-6.84171e-07
-1.04187e-08
-8.50037e-08
-5.53709e-07
-1.3894e-08
-1.1058e-07
-4.25909e-07
-1.5241e-08
-1.09033e-07
-3.12545e-07
-1.58643e-08
-9.57809e-08
-2.16208e-07
-1.48841e-08
-8.04603e-08
-1.33974e-07
-1.3508e-08
-6.79099e-08
-6.33832e-08
-1.22571e-08
-5.74292e-08
-1.15954e-08
-1.14031e-08
-3.93672e-08
-1.03032e-08
-2.09446e-10
5.5982e-09
-1.25758e-08
9.55346e-10
3.48105e-08
-1.39506e-08
-2.19908e-08
7.46306e-08
-1.5424e-08
-3.19285e-08
1.20776e-07
-1.79556e-08
-3.70829e-08
1.75581e-07
-2.17465e-08
-4.39113e-08
2.43665e-07
-2.66028e-08
-5.46863e-08
3.29992e-07
-3.18523e-08
-6.99314e-08
4.37598e-07
-3.66466e-08
-8.80815e-08
5.62913e-07
-3.86843e-08
-1.03692e-07
6.92908e-07
-3.88644e-08
-1.07375e-07
7.95322e-07
-3.21759e-08
-8.35571e-08
8.37358e-07
-4.37795e-08
-1.65443e-08
7.64436e-07
-6.72602e-08
1.11524e-07
6.28832e-07
-8.76614e-08
1.85465e-07
4.68055e-07
-1.04644e-07
2.19863e-07
3.08517e-07
-1.1555e-07
2.24638e-07
1.5659e-07
-1.22344e-07
2.20821e-07
9.86363e-09
-1.25094e-07
2.17306e-07
-1.36983e-07
-1.2434e-07
2.17262e-07
-2.89274e-07
-1.20109e-07
2.20689e-07
-4.49426e-07
-1.11991e-07
2.24442e-07
-6.11169e-07
-9.99709e-08
2.19715e-07
-7.48323e-07
-8.23838e-08
1.85742e-07
-8.23629e-07
-6.18872e-08
1.12617e-07
-7.8526e-07
-3.92866e-08
-1.37594e-08
-6.84514e-07
-2.89882e-08
-8.21765e-08
-5.54132e-07
-3.64528e-08
-1.07822e-07
-4.25508e-07
-3.70262e-08
-1.06839e-07
-3.1134e-07
-3.58335e-08
-9.41985e-08
-2.14697e-07
-3.21274e-08
-7.93999e-08
-1.32692e-07
-2.83206e-08
-6.71918e-08
-6.26794e-08
-2.53178e-08
-5.69523e-08
-1.14698e-08
-2.34164e-08
-3.91962e-08
-2.12347e-08
-5.3834e-10
5.24795e-09
-1.83512e-08
5.2747e-10
3.33666e-08
-2.04058e-08
-2.16634e-08
7.18833e-08
-2.26299e-08
-3.13109e-08
1.1675e-07
-2.65362e-08
-3.62856e-08
1.70449e-07
-3.26045e-08
-4.28417e-08
2.37811e-07
-4.0837e-08
-5.31275e-08
3.24163e-07
-5.06212e-08
-6.7583e-08
4.32802e-07
-6.07619e-08
-8.4524e-08
5.60113e-07
-6.72714e-08
-9.87244e-08
6.91228e-07
-6.90445e-08
-1.00935e-07
7.84469e-07
-4.81676e-08
-7.72496e-08
8.19063e-07
-6.9174e-08
-9.19923e-09
7.46117e-07
-1.14787e-07
1.20473e-07
6.13548e-07
-1.53301e-07
1.9821e-07
4.57301e-07
-1.84433e-07
2.36035e-07
3.01935e-07
-2.04203e-07
2.44019e-07
1.53797e-07
-2.16377e-07
2.42172e-07
1.05804e-08
-2.21462e-07
2.39585e-07
-1.328e-07
-2.20445e-07
2.39485e-07
-2.81442e-07
-2.13332e-07
2.41865e-07
-4.3767e-07
-1.99288e-07
2.43525e-07
-5.95286e-07
-1.77829e-07
2.35474e-07
-7.29912e-07
-1.45738e-07
1.9798e-07
-8.05869e-07
-1.0696e-07
1.21031e-07
-7.75268e-07
-6.29766e-08
-6.9112e-09
-6.83522e-07
-4.44357e-08
-7.62983e-08
-5.51994e-07
-6.61375e-08
-1.01844e-07
-4.21473e-07
-6.52807e-08
-1.02267e-07
-3.06472e-07
-5.9905e-08
-9.09288e-08
-2.10126e-07
-5.12718e-08
-7.72016e-08
-1.29281e-07
-4.35088e-08
-6.56571e-08
-6.08421e-08
-3.78879e-08
-5.58688e-08
-1.10222e-08
-3.45398e-08
-3.86965e-08
-3.12507e-08
-1.00612e-09
4.66946e-09
-2.30939e-08
7.31927e-11
3.11758e-08
-2.57558e-08
-2.11563e-08
6.7659e-08
-2.87463e-08
-3.03667e-08
1.10321e-07
-3.41269e-08
-3.50711e-08
1.61729e-07
-4.27955e-08
-4.12172e-08
2.2689e-07
-5.52303e-08
-5.07674e-08
3.11712e-07
-7.14084e-08
-6.40348e-08
4.20283e-07
-9.02514e-08
-7.90821e-08
5.50867e-07
-1.06846e-07
-9.10085e-08
6.88591e-07
-1.15886e-07
-9.08835e-08
7.62549e-07
-5.58245e-08
-6.63012e-08
7.81741e-07
-9.23297e-08
3.96402e-09
7.11191e-07
-1.78699e-07
1.34462e-07
5.85619e-07
-2.44753e-07
2.17023e-07
4.37862e-07
-2.95852e-07
2.59176e-07
2.90041e-07
-3.28212e-07
2.7183e-07
1.48605e-07
-3.47705e-07
2.72764e-07
1.15505e-08
-3.55926e-07
2.71518e-07
-1.257e-07
-3.54507e-07
2.71314e-07
-2.67767e-07
-3.43404e-07
2.72139e-07
-4.16709e-07
-3.21144e-07
2.70798e-07
-5.66357e-07
-2.86068e-07
2.57887e-07
-6.94712e-07
-2.33311e-07
2.15928e-07
-7.69405e-07
-1.66429e-07
1.34162e-07
-7.54759e-07
-8.30246e-08
5.40203e-09
-6.81674e-07
-5.15629e-08
-6.59577e-08
-5.4354e-07
-1.11709e-07
-9.25633e-08
-4.09943e-07
-1.03719e-07
-9.51585e-08
-2.95305e-07
-8.86623e-08
-8.58804e-08
-2.00936e-07
-7.18447e-08
-7.37965e-08
-1.2291e-07
-5.83162e-08
-6.32188e-08
-5.74802e-08
-4.92341e-08
-5.40833e-08
-1.01485e-08
-4.40899e-08
-3.77817e-08
-3.97335e-08
-1.6657e-09
3.74364e-09
-2.6412e-08
-4.25518e-10
2.79743e-08
-2.95109e-08
-2.04757e-08
6.13997e-08
-3.30586e-08
-2.91131e-08
1.00303e-07
-3.95763e-08
-3.34543e-08
1.46996e-07
-5.04543e-08
-3.90343e-08
2.06301e-07
-6.69701e-08
-4.7565e-08
2.84725e-07
-9.06617e-08
-5.91709e-08
3.88177e-07
-1.22477e-07
-7.12266e-08
5.21273e-07
-1.60938e-07
-7.90039e-08
6.83536e-07
-2.06964e-07
-7.11837e-08
7.19195e-07
-4.98187e-08
-4.16654e-08
7.04866e-07
-9.65862e-08
1.85857e-08
6.43089e-07
-2.59935e-07