/*--------------------------------*- C++ -*----------------------------------*\
| =========                 |                                                 |
| \\      /  F ield         | OpenFOAM: The Open Source CFD Toolbox           |
|  \\    /   O peration     | Version:  2112                                  |
|   \\  /    A nd           | Website:  www.openfoam.com                      |
|    \\/     M anipulation  |                                                 |
\*---------------------------------------------------------------------------*/
FoamFile
{
    version     2.0;
    format      ascii;
    arch        "LSB;label=32;scalar=64";
    class       volVectorField;
    location    "2.4";
    object      U;
}
// * * * * * * * * * * * * * * * * * * * * * * * * * * * * * * * * * * * * * //

dimensions      [0 1 -1 0 0 0 0];

internalField   nonuniform List<vector> 
64906
(
(2.63136e-07 9.15432e-07 -1.65994e-06)
(2.5655e-06 -4.22315e-07 -1.70395e-06)
(6.21715e-06 -1.70282e-06 -1.18776e-06)
(1.00741e-05 -2.70515e-06 -5.95894e-07)
(1.40403e-05 -3.29918e-06 -1.37778e-07)
(1.79735e-05 -3.6801e-06 1.55515e-07)
(2.17902e-05 -3.96135e-06 3.47261e-07)
(2.53314e-05 -4.1665e-06 5.02113e-07)
(2.84824e-05 -4.22024e-06 7.00609e-07)
(3.09692e-05 -4.03282e-06 9.72194e-07)
(3.25052e-05 -3.74653e-06 1.25651e-06)
(3.25145e-05 -3.19481e-06 1.57792e-06)
(3.08342e-05 -2.82758e-06 1.9013e-06)
(2.77423e-05 -2.50412e-06 2.24589e-06)
(2.34151e-05 -2.34204e-06 2.54846e-06)
(1.82115e-05 -2.23198e-06 2.79933e-06)
(1.23614e-05 -2.18942e-06 2.97112e-06)
(6.15844e-06 -2.17787e-06 3.06002e-06)
(-1.56318e-07 -2.19743e-06 3.06036e-06)
(-6.31422e-06 -2.24808e-06 2.97274e-06)
(-1.20746e-05 -2.32982e-06 2.80295e-06)
(-1.71456e-05 -2.47915e-06 2.55503e-06)
(-2.13025e-05 -2.67916e-06 2.25688e-06)
(-2.41898e-05 -3.03984e-06 1.91746e-06)
(-2.56432e-05 -3.43825e-06 1.59946e-06)
(-2.53897e-05 -4.01634e-06 1.27894e-06)
(-2.36048e-05 -4.30484e-06 9.85249e-07)
(-2.08595e-05 -4.4634e-06 6.76809e-07)
(-1.74327e-05 -4.31838e-06 3.72551e-07)
(-1.36777e-05 -3.88518e-06 -1.55234e-08)
(-9.73343e-06 -3.02046e-06 -5.80146e-07)
(-5.84487e-06 -1.641e-06 -1.38427e-06)
(-2.27069e-06 3.25916e-08 -2.17187e-06)
(-1.26243e-08 1.6014e-06 -2.25002e-06)
(-1.74029e-06 5.6392e-06 -2.36257e-06)
(-1.50078e-07 4.58758e-06 -6.38474e-06)
(4.72086e-06 3.22468e-06 -7.50928e-06)
(9.48145e-06 2.19284e-06 -7.69161e-06)
(1.40555e-05 1.82562e-06 -7.91206e-06)
(1.82999e-05 2.00923e-06 -8.3726e-06)
(2.23326e-05 2.65257e-06 -9.1098e-06)
(2.61578e-05 3.78868e-06 -1.01183e-05)
(2.97358e-05 5.53239e-06 -1.1434e-05)
(3.25732e-05 8.152e-06 -1.30521e-05)
(3.44076e-05 1.1418e-05 -1.49102e-05)
(3.4462e-05 1.55661e-05 -1.69156e-05)
(3.25709e-05 1.91752e-05 -1.88141e-05)
(2.9227e-05 2.23746e-05 -2.04782e-05)
(2.45807e-05 2.47766e-05 -2.18435e-05)
(1.90846e-05 2.65918e-05 -2.28932e-05)
(1.29228e-05 2.77598e-05 -2.36104e-05)
(6.41804e-06 2.83463e-05 -2.39903e-05)
(-2.03948e-07 2.83448e-05 -2.40266e-05)
(-6.65853e-06 2.77556e-05 -2.37191e-05)
(-1.27215e-05 2.65865e-05 -2.30743e-05)
(-1.80711e-05 2.47727e-05 -2.20976e-05)
(-2.25297e-05 2.23808e-05 -2.0807e-05)
(-2.56464e-05 1.92021e-05 -1.92219e-05)
(-2.72857e-05 1.56414e-05 -1.74111e-05)
(-2.69521e-05 1.15698e-05 -1.55109e-05)
(-2.48202e-05 8.45312e-06 -1.37896e-05)
(-2.16623e-05 6.05764e-06 -1.23595e-05)
(-1.76849e-05 4.69154e-06 -1.13038e-05)
(-1.32829e-05 4.1996e-06 -1.06481e-05)
(-8.44665e-06 4.6669e-06 -1.03501e-05)
(-3.4281e-06 6.05675e-06 -1.00951e-05)
(1.63487e-06 7.80255e-06 -8.63743e-06)
(2.75784e-06 8.86888e-06 -3.34991e-06)
(-3.02964e-06 1.42402e-05 -2.17544e-06)
(-1.9497e-06 1.50793e-05 -7.76422e-06)
(3.6932e-06 1.49109e-05 -9.54562e-06)
(9.17492e-06 1.50452e-05 -1.00751e-05)
(1.4454e-05 1.60207e-05 -1.05584e-05)
(1.93448e-05 1.79472e-05 -1.13209e-05)
(2.40477e-05 2.08826e-05 -1.24621e-05)
(2.86134e-05 2.50371e-05 -1.40181e-05)
(3.31378e-05 3.0615e-05 -1.60156e-05)
(3.69859e-05 3.82475e-05 -1.84754e-05)
(3.9849e-05 4.75966e-05 -2.13306e-05)
(4.01314e-05 5.90865e-05 -2.44362e-05)
(3.76057e-05 6.92656e-05 -2.73926e-05)
(3.34233e-05 7.82848e-05 -2.99899e-05)
(2.77893e-05 8.52557e-05 -3.21218e-05)
(2.13802e-05 9.05879e-05 -3.37563e-05)
(1.42916e-05 9.41072e-05 -3.48678e-05)
(6.89055e-06 9.59134e-05 -3.54534e-05)
(-6.34331e-07 9.59744e-05 -3.55031e-05)
(-7.9821e-06 9.42908e-05 -3.50167e-05)
(-1.49656e-05 9.0898e-05 -3.40042e-05)
(-2.12158e-05 8.56986e-05 -3.24695e-05)
(-2.66433e-05 7.88802e-05 -3.04394e-05)
(-3.05664e-05 7.00389e-05 -2.79497e-05)
(-3.27979e-05 6.01002e-05 -2.51126e-05)
(-3.21702e-05 4.89096e-05 -2.21497e-05)
(-2.89249e-05 4.00018e-05 -1.94765e-05)
(-2.46274e-05 3.29114e-05 -1.72581e-05)
(-1.94698e-05 2.80929e-05 -1.55836e-05)
(-1.39965e-05 2.50031e-05 -1.44373e-05)
(-8.04115e-06 2.34804e-05 -1.36942e-05)
(-1.93316e-06 2.32201e-05 -1.29152e-05)
(4.18392e-06 2.33752e-05 -1.05798e-05)
(4.53866e-06 2.19571e-05 -3.2141e-06)
(-3.81776e-06 2.32078e-05 -1.70745e-06)
(-2.87409e-06 2.52569e-05 -7.8991e-06)
(3.6072e-06 2.60014e-05 -9.88593e-06)
(1.00294e-05 2.72685e-05 -1.0478e-05)
(1.63372e-05 2.96919e-05 -1.10205e-05)
(2.23025e-05 3.34428e-05 -1.18937e-05)
(2.82603e-05 3.87008e-05 -1.32341e-05)
(3.43701e-05 4.59088e-05 -1.51127e-05)
(4.09872e-05 5.56053e-05 -1.7567e-05)
(4.71098e-05 6.91223e-05 -2.06492e-05)
(5.23471e-05 8.6044e-05 -2.42586e-05)
(5.31117e-05 0.000107511 -2.82705e-05)
(4.9023e-05 0.000125953 -3.20663e-05)
(4.28966e-05 0.000141997 -3.53816e-05)
(3.50564e-05 0.000154189 -3.8084e-05)
(2.66099e-05 0.000163517 -4.01285e-05)
(1.74357e-05 0.000169674 -4.15033e-05)
(7.99263e-06 0.000172849 -4.22223e-05)
(-1.5949e-06 0.000172975 -4.2276e-05)
(-1.0982e-05 0.000170051 -4.16637e-05)
(-2.0045e-05 0.000164149 -4.03946e-05)
(-2.83174e-05 0.00015508 -3.84554e-05)
(-3.59253e-05 0.000143172 -3.58585e-05)
(-4.17418e-05 0.000127444 -3.2653e-05)
(-4.54685e-05 0.000109414 -2.8978e-05)
(-4.42457e-05 8.8439e-05 -2.51127e-05)
(-3.84988e-05 7.22464e-05 -2.16956e-05)
(-3.17779e-05 5.95468e-05 -1.88736e-05)
(-2.42824e-05 5.09011e-05 -1.67704e-05)
(-1.69316e-05 4.50443e-05 -1.53366e-05)
(-9.3104e-06 4.15053e-05 -1.4413e-05)
(-1.80989e-06 3.97249e-05 -1.34932e-05)
(5.46084e-06 3.87044e-05 -1.08784e-05)
(5.61957e-06 3.56915e-05 -2.68379e-06)
(-4.21073e-06 3.21893e-05 -1.24329e-06)
(-2.98033e-06 3.52017e-05 -7.9416e-06)
(4.69651e-06 3.67991e-05 -1.0094e-05)
(1.23946e-05 3.92381e-05 -1.07101e-05)
(2.01104e-05 4.3218e-05 -1.13105e-05)
(2.76215e-05 4.89346e-05 -1.23373e-05)
(3.5495e-05 5.66561e-05 -1.39676e-05)
(4.4117e-05 6.70899e-05 -1.63223e-05)
(5.44018e-05 8.12761e-05 -1.94435e-05)
(6.47786e-05 0.000101868 -2.34359e-05)
(7.4932e-05 0.000128899 -2.81088e-05)
(7.66141e-05 0.000165686 -3.35408e-05)
(6.91031e-05 0.000195547 -3.86016e-05)
(5.92573e-05 0.000220778 -4.30438e-05)
(4.74966e-05 0.000239391 -4.66602e-05)
(3.55827e-05 0.000253665 -4.93193e-05)
(2.28446e-05 0.000263061 -5.10794e-05)
(9.90726e-06 0.000267923 -5.19909e-05)
(-3.22084e-06 0.000268121 -5.2049e-05)
(-1.61016e-05 0.000263653 -5.12528e-05)
(-2.87266e-05 0.000254649 -4.96055e-05)
(-4.04538e-05 0.000240759 -4.70567e-05)
(-5.19566e-05 0.000222551 -4.35469e-05)
(-6.14263e-05 0.000197745 -3.92126e-05)
(-6.84858e-05 0.000168441 -3.42687e-05)
(-6.61717e-05 0.000132299 -2.89804e-05)
(-5.53447e-05 0.000106326 -2.45081e-05)
(-4.42378e-05 8.67992e-05 -2.07942e-05)
(-3.2833e-05 7.39175e-05 -1.80569e-05)
(-2.26397e-05 6.50959e-05 -1.61992e-05)
(-1.26831e-05 5.94201e-05 -1.50461e-05)
(-3.27846e-06 5.61028e-05 -1.4001e-05)
(5.66085e-06 5.3995e-05 -1.11267e-05)
(6.1958e-06 4.97001e-05 -2.15507e-06)
(-4.40807e-06 4.06649e-05 -8.35036e-07)
(-2.48854e-06 4.4433e-05 -8.14718e-06)
(6.8861e-06 4.67944e-05 -1.0528e-05)
(1.63e-05 5.04012e-05 -1.1199e-05)
(2.58597e-05 5.60106e-05 -1.19138e-05)
(3.5387e-05 6.3781e-05 -1.32009e-05)
(4.5795e-05 7.39853e-05 -1.52889e-05)
(5.78949e-05 8.752e-05 -1.83654e-05)
(7.37632e-05 0.000106113 -2.24224e-05)
(9.13358e-05 0.000134756 -2.76118e-05)
(0.000111409 0.000175051 -3.33106e-05)
(0.000114965 0.000237194 -4.06714e-05)
(0.000100388 0.000282991 -4.75003e-05)
(8.41546e-05 0.000319937 -5.37357e-05)
(6.62452e-05 0.000346133 -5.88723e-05)
(4.91883e-05 0.000366367 -6.24295e-05)
(3.1064e-05 0.000379645 -6.47334e-05)
(1.2829e-05 0.000386547 -6.59122e-05)
(-5.69371e-06 0.000386829 -6.59785e-05)
(-2.38776e-05 0.000380484 -6.49308e-05)
(-4.19004e-05 0.000367748 -6.27534e-05)
(-5.87746e-05 0.000348023 -5.93179e-05)
(-7.64209e-05 0.000322331 -5.42932e-05)
(-9.22133e-05 0.000285869 -4.81662e-05)
(-0.000106244 0.000240726 -4.14521e-05)
(-0.000101778 0.000179295 -3.42236e-05)
(-8.08158e-05 0.000140528 -2.87371e-05)
(-6.24417e-05 0.000113169 -2.38484e-05)
(-4.52071e-05 9.60899e-05 -2.02192e-05)
(-3.11652e-05 8.43977e-05 -1.77106e-05)
(-1.81456e-05 7.6599e-05 -1.61875e-05)
(-6.21766e-06 7.17836e-05 -1.49322e-05)
(5.10239e-06 6.86862e-05 -1.16524e-05)
(6.56236e-06 6.33537e-05 -1.70094e-06)
(-4.51201e-06 4.84114e-05 -4.34754e-07)
(-1.53335e-06 5.28451e-05 -8.5442e-06)
(1.01401e-05 5.5992e-05 -1.12544e-05)
(2.18005e-05 6.08949e-05 -1.20348e-05)
(3.36924e-05 6.83832e-05 -1.29362e-05)
(4.56731e-05 7.84935e-05 -1.46022e-05)
(5.90522e-05 9.13137e-05 -1.73196e-05)
(7.52942e-05 0.000107474 -2.13566e-05)
(9.86919e-05 0.000129268 -2.65633e-05)
(0.000127133 0.000164359 -3.29656e-05)
(0.000167057 0.000220183 -3.89346e-05)
(0.000174745 0.000326204 -4.84947e-05)
(0.000145299 0.00039366 -5.717e-05)
(0.000118772 0.000445451 -6.60177e-05)
(9.21052e-05 0.000480972 -7.35415e-05)
(6.81609e-05 0.000508943 -7.81274e-05)
(4.2556e-05 0.00052733 -8.10621e-05)
(1.69345e-05 0.000536931 -8.25434e-05)
(-9.16061e-06 0.000537319 -8.26221e-05)
(-3.47476e-05 0.000528479 -8.12961e-05)
(-6.02881e-05 0.00051082 -7.85096e-05)
(-8.40916e-05 0.0004835 -7.40645e-05)
(-0.000110546 0.000448566 -6.66622e-05)
(-0.000136594 0.000397244 -5.79298e-05)
(-0.000165445 0.000330429 -4.93757e-05)
(-0.000156356 0.000224978 -3.99258e-05)
(-0.000115234 0.000171531 -3.41938e-05)
(-8.6101e-05 0.00013786 -2.81088e-05)
(-6.1079e-05 0.000117707 -2.33829e-05)
(-4.24377e-05 0.000103558 -1.99989e-05)
(-2.57294e-05 9.35022e-05 -1.79513e-05)
(-1.05896e-05 8.69744e-05 -1.63641e-05)
(3.96229e-06 8.2789e-05 -1.24928e-05)
(6.85255e-06 7.64571e-05 -1.25106e-06)
(-4.54503e-06 5.51436e-05 5.32964e-09)
(-9.57058e-08 6.01585e-05 -9.10492e-06)
(1.46219e-05 6.41491e-05 -1.22588e-05)
(2.92304e-05 7.05264e-05 -1.3207e-05)
(4.41089e-05 8.02223e-05 -1.4371e-05)
(5.90195e-05 9.30694e-05 -1.65391e-05)
(7.53699e-05 0.000108674 -2.00655e-05)
(9.52075e-05 0.00012651 -2.5349e-05)
(0.000125421 0.00014812 -3.18649e-05)
(0.000167002 0.000185622 -3.99574e-05)
(0.000246817 0.000252927 -4.10392e-05)
(0.000264896 0.000439711 -5.08784e-05)
(0.000206109 0.000531569 -6.1886e-05)
(0.000165798 0.000597958 -7.52057e-05)
(0.000128003 0.000642856 -8.66008e-05)
(9.51499e-05 0.000678858 -9.21575e-05)
(5.90207e-05 0.000702747 -9.56885e-05)
(2.28288e-05 0.000715311 -9.74417e-05)
(-1.41574e-05 0.000715835 -9.75351e-05)
(-5.03458e-05 0.000704298 -9.5966e-05)
(-8.64861e-05 0.00068138 -9.26096e-05)
(-0.000119309 0.000646214 -8.72213e-05)
(-0.000157063 0.000601984 -7.59641e-05)
(-0.000196987 0.000535934 -6.27784e-05)
(-0.000255345 0.000444609 -5.19497e-05)
(-0.000234883 0.000257855 -4.21252e-05)
(-0.000153379 0.000194753 -4.12882e-05)
(-0.000111664 0.000158474 -3.35358e-05)
(-7.94792e-05 0.000138425 -2.75801e-05)
(-5.66363e-05 0.000122604 -2.30588e-05)
(-3.59825e-05 0.000110029 -2.03298e-05)
(-1.68151e-05 0.000101387 -1.82794e-05)
(2.09456e-06 9.58708e-05 -1.36095e-05)
(7.05162e-06 8.86058e-05 -7.0582e-07)
(-4.51915e-06 6.05669e-05 5.03456e-07)
(1.8432e-06 6.6157e-05 -9.81349e-06)
(2.04446e-05 7.11676e-05 -1.35295e-05)
(3.88497e-05 7.94549e-05 -1.46957e-05)
(5.75799e-05 9.2248e-05 -1.61762e-05)
(7.60883e-05 0.000109353 -1.89104e-05)
(9.52264e-05 0.000129891 -2.33446e-05)
(0.00011643 0.0001503 -3.00276e-05)
(0.000150387 0.000170404 -3.89034e-05)
(0.000197348 0.00019727 -4.74452e-05)
(0.00035219 0.000215946 -5.10211e-05)
(0.000395967 0.000559006 -4.75841e-05)
(0.000275817 0.000684149 -5.78483e-05)
(0.000222671 0.000770558 -7.77444e-05)
(0.00017348 0.000830258 -9.41656e-05)
(0.000129889 0.000879477 -0.00010028)
(8.04502e-05 0.000912441 -0.000104676)
(3.05602e-05 0.000929594 -0.000106766)
(-2.06321e-05 0.000930294 -0.00010687)
(-7.0564e-05 0.00091452 -0.000104984)
(-0.000120128 0.000882879 -0.000100779)
(-0.000163893 0.0008348 -9.48511e-05)
(-0.000213428 0.000775958 -7.85722e-05)
(-0.000266453 0.000689807 -5.88495e-05)
(-0.000386918 0.000564801 -4.88275e-05)
(-0.000338785 0.000219104 -5.25827e-05)
(-0.000181606 0.000207837 -4.90232e-05)
(-0.000136182 0.00018214 -4.07109e-05)
(-9.95699e-05 0.000163582 -3.25163e-05)
(-7.45167e-05 0.000145088 -2.67332e-05)
(-4.97576e-05 0.00012776 -2.32613e-05)
(-2.54704e-05 0.000115465 -2.06867e-05)
(-7.1685e-07 0.00010777 -1.50003e-05)
(7.16596e-06 9.94001e-05 -4.0957e-08)
(-4.30291e-06 6.40671e-05 1.10383e-06)
(4.56681e-06 7.02768e-05 -1.06679e-05)
(2.82011e-05 7.6179e-05 -1.5063e-05)
(5.18941e-05 8.63603e-05 -1.64979e-05)
(7.65196e-05 0.000102479 -1.8358e-05)
(0.000101244 0.000124688 -2.17292e-05)
(0.000124743 0.000151705 -2.7078e-05)
(0.00014764 0.000176395 -3.59979e-05)
(0.000174037 0.000185904 -4.63838e-05)
(0.000142684 0.000116583 -6.77799e-05)
(0.00042472 0.00020496 -7.1871e-05)
(0.000578389 0.000808381 -2.36576e-05)
(0.000362471 0.00088247 -2.94083e-05)
(0.000307701 0.000947811 -5.1681e-05)
(0.000245948 0.00101594 -7.08191e-05)
(0.000185463 0.0010718 -7.34875e-05)
(0.000114407 0.00111199 -7.67862e-05)
(4.25432e-05 0.00113278 -7.84028e-05)
(-3.08391e-05 0.00113368 -7.84876e-05)
(-0.000102772 0.00111468 -7.70424e-05)
(-0.000174058 0.00107622 -7.38863e-05)
(-0.000234958 0.00102194 -7.14021e-05)
(-0.000297575 0.000954985 -5.23871e-05)
(-0.000353002 0.000889679 -3.02957e-05)
(-0.000573168 0.00081242 -2.51735e-05)
(-0.000412264 0.000208229 -7.41167e-05)
(-0.000125035 0.000134642 -6.87852e-05)
(-0.000159891 0.000201923 -4.79781e-05)
(-0.000129927 0.000191591 -3.87117e-05)
(-0.000102273 0.000167932 -3.09557e-05)
(-7.15247e-05 0.000143992 -2.68094e-05)
(-3.90707e-05 0.000127036 -2.3677e-05)
(-5.65939e-06 0.00011692 -1.67096e-05)
(6.76276e-06 0.000107294 8.49968e-07)
(-3.83144e-06 6.53921e-05 1.86231e-06)
(7.89941e-06 7.21285e-05 -1.17499e-05)
(3.72195e-05 7.88802e-05 -1.68653e-05)
(6.74763e-05 9.11069e-05 -1.86224e-05)
(0.000100084 0.000111504 -2.09356e-05)
(0.000134262 0.0001424 -2.4792e-05)
(0.000166833 0.000187026 -3.04541e-05)
(0.000191259 0.000247321 -3.66583e-05)
(0.000158233 0.000324516 -5.44539e-05)
(0.000163652 0.000371756 -8.27903e-05)
(0.000265634 0.000702711 6.72822e-05)
(0.000305301 0.000900001 2.82765e-05)
(0.000371941 0.00103099 1.55311e-05)
(0.000326648 0.00114758 1.58741e-05)
(0.000247334 0.00123027 1.16105e-05)
(0.000154146 0.00128529 7.5139e-06)
(5.6601e-05 0.00131217 5.71528e-06)
(-4.25538e-05 0.0013132 5.72077e-06)
(-0.000140187 0.00128842 7.52464e-06)
(-0.000233654 0.00123557 1.1632e-05)
(-0.000313563 0.0011552 1.59079e-05)
(-0.000360423 0.0010411 1.56398e-05)
(-0.000297469 0.000912519 2.8009e-05)
(-0.000260651 0.000715507 6.58866e-05)
(-0.000160077 0.000384548 -8.05175e-05)
(-0.000151588 0.000338956 -5.56434e-05)
(-0.000176476 0.000261749 -3.97897e-05)
(-0.000144083 0.000202876 -3.50542e-05)
(-0.000101673 0.000161614 -3.08943e-05)
(-5.71411e-05 0.000136421 -2.74118e-05)
(-1.25449e-05 0.000122798 -1.90447e-05)
(5.76564e-06 0.000111558 1.95639e-06)
(-3.07173e-06 6.41316e-05 2.70415e-06)
(1.20895e-05 7.07894e-05 -1.29292e-05)
(4.82571e-05 7.75907e-05 -1.88224e-05)
(8.75099e-05 9.00075e-05 -2.0977e-05)
(0.000133573 0.000110926 -2.39573e-05)
(0.000190328 0.000143222 -2.89218e-05)
(0.000263435 0.000191554 -3.61332e-05)
(0.000366753 0.000261433 -4.28131e-05)
(0.000493823 0.000361693 -4.71886e-05)
(0.00075117 0.000497148 -3.12404e-05)
(0.000777219 0.000142723 4.81581e-05)
(0.000608975 0.00031005 6.15107e-05)
(0.000677916 0.000670283 0.000125304)
(0.000611075 0.000878704 0.000182909)
(0.000490142 0.00102781 0.00021549)
(0.000351166 0.00112709 0.000226093)
(0.000212015 0.00118854 0.000228276)
(7.56838e-05 0.00121777 0.000228566)
(-5.92249e-05 0.00121873 0.000228635)
(-0.000195492 0.00119149 0.000228486)
(-0.000334531 0.00113216 0.000226465)
(-0.000473289 0.00103526 0.000216115)
(-0.000594055 0.000888957 0.000184069)
(-0.000660753 0.000683812 0.000127071)
(-0.000589908 0.000326477 6.44737e-05)
(-0.000765298 0.000146366 5.06378e-05)
(-0.000746066 0.00050119 -3.03333e-05)
(-0.000483769 0.000371401 -4.86372e-05)
(-0.000350993 0.0002736 -4.61424e-05)
(-0.000239283 0.000206217 -4.14903e-05)
(-0.000154644 0.00016169 -3.62268e-05)
(-8.50361e-05 0.000135294 -3.18993e-05)
(-2.3522e-05 0.000121278 -2.18837e-05)
(3.36847e-06 0.000109979 3.27914e-06)
(-2.57213e-06 6.0208e-05 3.50975e-06)
(1.55407e-05 6.62674e-05 -1.40262e-05)
(5.75716e-05 7.21584e-05 -2.06819e-05)
(0.000103848 8.26358e-05 -2.32259e-05)
(0.000159111 9.9626e-05 -2.68229e-05)
(0.000228489 0.000124174 -3.28408e-05)
(0.000318658 0.000156631 -4.1459e-05)
(0.000442034 0.000194596 -5.02524e-05)
(0.000593212 0.000227613 -5.52582e-05)
(0.000818667 0.000243564 -4.59518e-05)
(0.000924448 0.000123595 -2.08972e-05)
(0.00091363 0.000305223 2.25424e-05)
(0.000895944 0.000495309 0.00013662)
(0.000767185 0.000635468 0.00020992)
(0.000605133 0.000744179 0.00024759)
(0.000427517 0.000817386 0.000262801)
(0.000255648 0.000863735 0.000266956)
(9.03163e-05 0.000886136 0.000267862)
(-7.20006e-05 0.000886931 0.000267929)
(-0.000237217 0.000866134 0.000267156)
(-0.000408874 0.000821429 0.000263166)
(-0.000586129 0.000749897 0.000248223)
(-0.000748051 0.000642831 0.000211141)
(-0.000876928 0.000503785 0.000138614)
(-0.000895252 0.00031377 2.61274e-05)
(-0.000911164 0.000127333 -1.86029e-05)
(-0.000809739 0.000251064 -4.55004e-05)
(-0.00058242 0.000237175 -5.68799e-05)
(-0.000425526 0.000206022 -5.3956e-05)
(-0.00029284 0.000170477 -4.75155e-05)
(-0.000189466 0.000141724 -4.11963e-05)
(-0.000104918 0.00012274 -3.59958e-05)
(-3.10777e-05 0.000112054 -2.43886e-05)
(2.19972e-06 0.000102247 4.5099e-06)
(-2.20041e-06 5.412e-05 4.20728e-06)
(1.84145e-05 5.93794e-05 -1.49646e-05)
(6.54677e-05 6.41649e-05 -2.22771e-05)
(0.000117439 7.24643e-05 -2.51351e-05)
(0.000179592 8.55511e-05 -2.92403e-05)
(0.000257257 0.00010369 -3.62404e-05)
(0.000357073 0.000126167 -4.65397e-05)
(0.000489242 0.000150977 -5.86622e-05)
(0.00064767 0.000171599 -6.87996e-05)
(0.00084308 0.000187685 -6.96492e-05)
(0.000977552 0.000158241 -5.22103e-05)
(0.00104628 0.000247052 5.11768e-06)
(0.00102373 0.000359906 0.000123017)
(0.00087264 0.000453834 0.000193731)
(0.000683532 0.000528482 0.000229186)
(0.000479036 0.000578323 0.000238794)
(0.000285447 0.000610424 0.000239307)
(0.000100379 0.000626005 0.000238385)
(-8.05835e-05 0.000626659 0.000238418)
(-0.000265516 0.000612386 0.000239406)
(-0.000458865 0.000581591 0.000238987)
(-0.000662981 0.000533023 0.000229573)
(-0.00085208 0.000459578 0.000194647)
(-0.00100354 0.000366525 0.000124692)
(-0.00102864 0.000254255 8.40023e-06)
(-0.00096474 0.000163643 -5.02526e-05)
(-0.000832756 0.000194535 -6.91013e-05)
(-0.000635656 0.000180057 -7.04208e-05)
(-0.000471322 0.000161281 -6.25578e-05)
(-0.000329149 0.000138822 -5.30733e-05)
(-0.00021472 0.000119796 -4.53568e-05)
(-0.000119967 0.000106596 -3.93008e-05)
(-3.66956e-05 9.8855e-05 -2.63258e-05)
(1.41871e-06 9.0566e-05 5.76714e-06)
(-2.07483e-06 4.62242e-05 4.71927e-06)
(2.03536e-05 5.05265e-05 -1.57336e-05)
(7.11437e-05 5.40814e-05 -2.35746e-05)
(0.000126982 6.00573e-05 -2.66714e-05)
(0.000193261 6.9216e-05 -3.11499e-05)
(0.000275029 8.13936e-05 -3.88726e-05)
(0.000378729 9.56145e-05 -5.03955e-05)
(0.00051297 0.000110626 -6.46526e-05)
(0.000673057 0.000122743 -7.75774e-05)
(0.000859177 0.000135247 -8.17544e-05)
(0.00101165 0.000136777 -6.44421e-05)
(0.0011189 0.0001901 -1.00843e-05)
(0.00109818 0.000259108 0.000105081)
(0.000934587 0.000317251 0.000168732)
(0.0007312 0.000364466 0.000198537)
(0.000511641 0.000397076 0.000202768)
(0.000304832 0.000418583 0.000200086)
(0.000107069 0.000429209 0.000197566)
(-8.60766e-05 0.000429777 0.000197569)
(-0.000283723 0.000420271 0.00020009)
(-0.000490342 0.000399843 0.000202799)
(-0.000709596 0.000368228 0.000198688)
(-0.000913143 0.000321902 0.000169352)
(-0.00107727 0.000264397 0.000106436)
(-0.00110134 0.000195904 -7.11669e-06)
(-0.000998675 0.00014221 -6.26368e-05)
(-0.000847788 0.000141713 -8.13045e-05)
(-0.000659875 0.000130396 -7.92948e-05)
(-0.000493563 0.000119806 -6.87438e-05)
(-0.000348657 0.000106842 -5.72926e-05)
(-0.000229193 9.55685e-05 -4.85377e-05)
(-0.000128868 8.74583e-05 -4.18201e-05)
(-3.96466e-05 8.24901e-05 -2.77798e-05)
(1.36034e-06 7.5977e-05 6.75013e-06)
(-2.05112e-06 3.71206e-05 5.09802e-06)
(2.16623e-05 4.04735e-05 -1.63299e-05)
(7.51765e-05 4.29913e-05 -2.45713e-05)
(0.000133692 4.7114e-05 -2.78374e-05)
(0.00020262 5.3347e-05 -3.25751e-05)
(0.000286708 6.14983e-05 -4.07984e-05)
(0.000392313 7.08774e-05 -5.31633e-05)
(0.000527225 8.09462e-05 -6.87928e-05)
(0.000688279 9.00186e-05 -8.34095e-05)
(0.000873204 0.000101184 -8.94317e-05)
(0.00103706 0.000111578 -7.20863e-05)
(0.00116283 0.000145564 -1.94542e-05)
(0.00114409 0.000188003 9.417e-05)
(0.000974455 0.000225324 0.000153684)
(0.000762458 0.000256154 0.000179903)
(0.000533347 0.000277942 0.000180835)
(0.000317902 0.000292503 0.00017612)
(0.000111701 0.000299841 0.000172599)
(-8.96256e-05 0.000300376 0.000172586)
(-0.000295746 0.000294086 0.000176077)
(-0.000511075 0.000280509 0.000180783)
(-0.000739991 0.000259596 0.000179931)
(-0.000952319 0.000229506 0.000154146)
(-0.00112268 0.000192715 9.53755e-05)
(-0.00114507 0.000150676 -1.64525e-05)
(-0.00102371 0.000116768 -7.03616e-05)
(-0.00086102 0.000107062 -8.9054e-05)
(-0.000674111 9.67234e-05 -8.52261e-05)
(-0.000506473 8.88181e-05 -7.30456e-05)
(-0.00036033 8.03643e-05 -6.03284e-05)
(-0.000238071 7.32855e-05 -5.08505e-05)
(-0.000134361 6.82237e-05 -4.36601e-05)
(-4.12401e-05 6.50354e-05 -2.88434e-05)
(1.51976e-06 6.00826e-05 7.46769e-06)
(-2.09723e-06 2.7228e-05 5.34961e-06)
(2.24422e-05 2.96082e-05 -1.67716e-05)
(7.77696e-05 3.12185e-05 -2.52949e-05)
(0.000138005 3.37959e-05 -2.86716e-05)
(0.000208556 3.76882e-05 -3.35691e-05)
(0.000293982 4.27907e-05 -4.2092e-05)
(0.000400693 4.87586e-05 -5.49436e-05)
(0.000536237 5.549e-05 -7.13074e-05)
(0.000698677 6.24406e-05 -8.67785e-05)
(0.000885114 7.17344e-05 -9.36035e-05)
(0.00105575 8.26463e-05 -7.64374e-05)
(0.00119082 0.000104278 -2.45274e-05)
(0.00117334 0.000130454 8.90883e-05)
(0.00100007 0.000153888 0.000147036)
(0.000782817 0.000173414 0.000171715)
(0.000547805 0.000187621 0.000171183)
(0.000326768 0.000197264 0.000165572)
(0.000114974 0.000202272 0.000161612)
(-9.18513e-05 0.000202811 0.000161595)
(-0.000303617 0.000198851 0.000165515)
(-0.00052464 0.000190169 0.000171104)
(-0.0007596 0.000176784 0.000171702)
(-0.000977363 0.000157901 0.000147443)
(-0.00115154 0.000134898 9.0228e-05)
(-0.00117283 0.000108996 -2.16154e-05)
(-0.00104209 8.74621e-05 -7.4791e-05)
(-0.00087238 7.69252e-05 -9.33124e-05)
(-0.000683778 6.81253e-05 -8.87068e-05)
(-0.000514456 6.19309e-05 -7.57114e-05)
(-0.00036725 5.62889e-05 -6.23245e-05)
(-0.000243255 5.18799e-05 -5.24334e-05)
(-0.000137492 4.88423e-05 -4.49539e-05)
(-4.19467e-05 4.69109e-05 -2.96195e-05)
(1.79868e-06 4.34672e-05 7.88971e-06)
(-2.15275e-06 1.69386e-05 5.48872e-06)
(2.28577e-05 1.83518e-05 -1.70695e-05)
(7.92579e-05 1.91787e-05 -2.57656e-05)
(0.000140522 2.04755e-05 -2.92059e-05)
(0.000212071 2.24841e-05 -3.41916e-05)
(0.000298391 2.52302e-05 -4.28762e-05)
(0.000405971 2.8683e-05 -5.5985e-05)
(0.000542332 3.29569e-05 -7.27165e-05)
(0.000706164 3.80694e-05 -8.86e-05)
(0.000894377 4.49416e-05 -9.57709e-05)
(0.00106875 5.34481e-05 -7.8657e-05)
(0.00120816 6.59838e-05 -2.67925e-05)
(0.00119123 8.01981e-05 8.73478e-05)
(0.00101587 9.315e-05 0.000145065)
(0.00079552 0.000103979 0.000169345)
(0.000557 0.000112141 0.000168358)
(0.000332513 0.000117785 0.000162456)
(0.000117245 0.000120886 0.000158351)
(-9.30398e-05 0.000121461 0.000158335)
(-0.000308346 0.000119476 0.000162399)
(-0.000532946 0.000114832 0.00016828)
(-0.000771598 0.000107494 0.00016933)
(-0.000992684 9.72492e-05 0.000145463)
(-0.00116916 8.46263e-05 8.84675e-05)
(-0.00119007 7.05023e-05 -2.39352e-05)
(-0.00105496 5.78999e-05 -7.70803e-05)
(-0.000881391 4.94521e-05 -9.55679e-05)
(-0.000690877 4.27202e-05 -9.0638e-05)
(-0.000519953 3.7917e-05 -7.72556e-05)
(-0.000371645 3.41519e-05 -6.35386e-05)
(-0.000246386 3.14705e-05 -5.34322e-05)
(-0.000139302 2.97586e-05 -4.57944e-05)
(-4.22904e-05 2.8697e-05 -3.01505e-05)
(2.01376e-06 2.6662e-05 8.09502e-06)
(-2.20242e-06 6.52579e-06 5.51563e-06)
(2.29652e-05 6.96391e-06 -1.72327e-05)
(7.97614e-05 7.03647e-06 -2.59981e-05)
(0.000141451 7.11803e-06 -2.94608e-05)
(0.000213488 7.3498e-06 -3.44741e-05)
(0.000300385 7.88477e-06 -4.32071e-05)
(0.000408695 8.98082e-06 -5.63896e-05)
(0.000545992 1.09092e-05 -7.32167e-05)
(0.000711031 1.40982e-05 -8.92065e-05)
(0.000900591 1.83664e-05 -9.64655e-05)
(0.00107631 2.38875e-05 -7.93809e-05)
(0.00121658 2.85163e-05 -2.74458e-05)
(0.00119949 3.2099e-05 8.71134e-05)
(0.00102316 3.54927e-05 0.000145105)
(0.000801474 3.82698e-05 0.00016951)
(0.000561494 4.0759e-05 0.000168566)
(0.000335474 4.26471e-05 0.000162673)
(0.000118642 4.39611e-05 0.000158567)
(-9.32542e-05 4.45993e-05 0.000158554)
(-0.000310209 4.45221e-05 0.000162617)
(-0.000536507 4.37278e-05 0.000168487)
(-0.000776859 4.21188e-05 0.000169493)
(-0.000999565 3.99006e-05 0.000145492)
(-0.0011773 3.67377e-05 8.82083e-05)
(-0.00119858 3.30168e-05 -2.46515e-05)
(-0.00106265 2.80535e-05 -7.78884e-05)
(-0.000887667 2.22598e-05 -9.63669e-05)
(-0.00069573 1.77629e-05 -9.1363e-05)
(-0.000523493 1.44353e-05 -7.7885e-05)
(-0.000374119 1.24209e-05 -6.4084e-05)
(-0.000247965 1.12869e-05 -5.39188e-05)
(-0.000140129 1.07494e-05 -4.62321e-05)
(-4.24323e-05 1.04786e-05 -3.04634e-05)
(2.12684e-06 9.85948e-06 8.1032e-06)
(-2.24624e-06 -3.72119e-06 5.43216e-06)
(2.2764e-05 -4.25875e-06 -1.72627e-05)
(7.92778e-05 -4.97286e-06 -2.59953e-05)
(0.000140784 -6.17777e-06 -2.94408e-05)
(0.000212788 -7.84881e-06 -3.4425e-05)
(0.00029993 -9.71941e-06 -4.30985e-05)
(0.00040882 -1.12322e-05 -5.61808e-05)
(0.000547166 -1.18904e-05 -7.28491e-05)
(0.00071326 -1.065e-05 -8.86492e-05)
(0.000903843 -8.66397e-06 -9.57478e-05)
(0.00107877 -5.02327e-06 -7.86989e-05)
(0.00121646 -8.06598e-06 -2.66701e-05)
(0.0011983 -1.58327e-05 8.81167e-05)
(0.00102205 -2.25947e-05 0.00014678)
(0.000800749 -2.83893e-05 0.000171744)
(0.000561341 -3.18448e-05 0.000171281)
(0.000335686 -3.38666e-05 0.000165659)
(0.000119187 -3.43728e-05 0.00016169)
(-9.24736e-05 -3.36195e-05 0.000161676)
(-0.000309194 -3.1651e-05 0.000165613)
(-0.000535319 -2.83438e-05 0.000171214)
(-0.000775393 -2.38624e-05 0.000171727)
(-0.000998075 -1.74812e-05 0.000147137)
(-0.00117613 -1.05775e-05 8.91461e-05)
(-0.0011988 -3.25971e-06 -2.39957e-05)
(-0.00106553 -9.43617e-07 -7.73351e-05)
(-0.000891316 -5.20077e-06 -9.57893e-05)
(-0.000698324 -7.78136e-06 -9.09415e-05)
(-0.000525016 -9.60891e-06 -7.76458e-05)
(-0.000374634 -9.63674e-06 -6.39932e-05)
(-0.00024797 -8.97575e-06 -5.39133e-05)
(-0.00013996 -8.15454e-06 -4.62789e-05)
(-4.23595e-05 -7.53339e-06 -3.05665e-05)
(2.14721e-06 -6.71247e-06 7.90628e-06)
(-2.30467e-06 -1.35197e-05 5.23029e-06)
(2.21955e-05 -1.50478e-05 -1.71561e-05)
(7.7688e-05 -1.6671e-05 -2.57496e-05)
(0.000138306 -1.94223e-05 -2.91346e-05)
(0.000209617 -2.34583e-05 -3.40245e-05)
(0.000296494 -2.84643e-05 -4.25133e-05)
(0.00040564 -3.35826e-05 -5.52861e-05)
(0.000545156 -3.78924e-05 -7.14592e-05)
(0.000712433 -3.90932e-05 -8.6671e-05)
(0.000904648 -3.87384e-05 -9.32123e-05)
(0.00107657 -3.34026e-05 -7.61139e-05)
(0.00120679 -4.49303e-05 -2.36078e-05)
(0.00118615 -6.75059e-05 9.16823e-05)
(0.00101129 -8.74911e-05 0.0001521)
(0.000792454 -0.000104375 0.000178613)
(0.000556032 -0.000115206 0.000179543)
(0.000332907 -0.000121944 0.000174729)
(0.000118868 -0.000124568 0.000171136)
(-9.05272e-05 -0.000123624 0.000171105)
(-0.00030491 -0.000119159 0.000174625)
(-0.000528744 -0.000110795 0.000179374)
(-0.000766224 -9.86383e-05 0.000178451)
(-0.000986932 -8.10413e-05 0.000152269)
(-0.00116417 -6.09586e-05 9.24966e-05)
(-0.00118981 -3.92925e-05 -2.11781e-05)
(-0.00106409 -2.91228e-05 -7.49678e-05)
(-0.000892811 -3.54117e-05 -9.34845e-05)
(-0.000698217 -3.67003e-05 -8.91687e-05)
(-0.000523828 -3.65126e-05 -7.64198e-05)
(-0.000372471 -3.34767e-05 -6.32038e-05)
(-0.000245848 -3.00211e-05 -5.3378e-05)
(-0.000138441 -2.71327e-05 -4.59099e-05)
(-4.18936e-05 -2.52303e-05 -3.04513e-05)
(2.12688e-06 -2.28513e-05 7.46838e-06)
(-2.43585e-06 -2.24483e-05 4.89792e-06)
(2.11022e-05 -2.4957e-05 -1.69084e-05)
(7.46709e-05 -2.7595e-05 -2.52498e-05)
(0.000133431 -3.21502e-05 -2.85219e-05)
(0.000202969 -3.90659e-05 -3.3229e-05)
(0.000288484 -4.81224e-05 -4.13515e-05)
(0.000396907 -5.82761e-05 -5.34911e-05)
(0.000537363 -6.8028e-05 -6.85876e-05)
(0.00070635 -7.30101e-05 -8.24534e-05)
(0.000903458 -7.42927e-05 -8.7478e-05)
(0.00106989 -5.85196e-05 -7.05961e-05)
(0.00118374 -8.069e-05 -1.7202e-05)
(0.001158 -0.000127267 9.9506e-05)
(0.000986507 -0.000166596 0.000163666)
(0.000773415 -0.000199031 0.000193388)
(0.000543714 -0.000219935 0.000197306)
(0.000326184 -0.000232986 0.000194271)
(0.000117437 -0.000238395 0.000191519)
(-8.70386e-05 -0.000237155 0.000191442)
(-0.000296261 -0.000229296 0.000194024)
(-0.00051476 -0.000214024 0.000196887)
(-0.000746002 -0.000191199 0.000192877)
(-0.000961606 -0.000157707 0.000163399)
(-0.00113638 -0.000118174 9.98614e-05)
(-0.00116793 -7.32562e-05 -1.5212e-05)
(-0.00105854 -5.35897e-05 -6.98165e-05)
(-0.000892536 -7.05819e-05 -8.81477e-05)
(-0.000693138 -7.05362e-05 -8.52787e-05)
(-0.000517247 -6.69761e-05 -7.37789e-05)
(-0.000365322 -5.9081e-05 -6.15164e-05)
(-0.000239967 -5.14102e-05 -5.22081e-05)
(-0.000134562 -4.55601e-05 -4.50609e-05)
(-4.0531e-05 -4.19419e-05 -3.00907e-05)
(2.24493e-06 -3.80034e-05 6.72254e-06)
(-2.68052e-06 -3.01162e-05 4.37645e-06)
(1.93957e-05 -3.36095e-05 -1.65148e-05)