/*--------------------------------*- C++ -*----------------------------------*\
| =========                 |                                                 |
| \\      /  F ield         | OpenFOAM: The Open Source CFD Toolbox           |
|  \\    /   O peration     | Version:  2112                                  |
|   \\  /    A nd           | Website:  www.openfoam.com                      |
|    \\/     M anipulation  |                                                 |
\*---------------------------------------------------------------------------*/
FoamFile
{
    version     2.0;
    format      ascii;
    arch        "LSB;label=32;scalar=64";
    class       volScalarField;
    location    "1.3";
    object      epsilon;
}
// * * * * * * * * * * * * * * * * * * * * * * * * * * * * * * * * * * * * * //

dimensions      [0 2 -3 0 0 0 0];

internalField   nonuniform List<scalar> 
64906
(
0.00354015
0.00376992
0.00386411
0.00388963
0.00389528
0.00389641
0.00389666
0.00389676
0.00389684
0.00389692
0.00389699
0.00389705
0.0038971
0.00389712
0.00389713
0.00389713
0.00389712
0.0038971
0.00389709
0.0038971
0.0038971
0.00389711
0.0038971
0.00389707
0.00389703
0.00389697
0.00389689
0.00389679
0.00389654
0.00389541
0.00388975
0.00386424
0.00377005
0.00354025
0.00376998
0.00567217
0.00644947
0.00668743
0.00674858
0.00676222
0.00676501
0.00676566
0.00676593
0.00676615
0.00676636
0.00676655
0.00676673
0.00676688
0.006767
0.00676709
0.00676715
0.00676718
0.00676718
0.00676716
0.00676711
0.00676702
0.00676691
0.00676677
0.0067666
0.0067664
0.00676613
0.00676548
0.00676267
0.00674901
0.00668784
0.00644986
0.00567252
0.00377016
0.00386426
0.00644971
0.00761367
0.00800687
0.00811827
0.00814554
0.00815161
0.00815307
0.00815367
0.00815414
0.00815463
0.00815519
0.00815573
0.00815622
0.00815663
0.00815695
0.00815716
0.00815727
0.00815728
0.00815719
0.00815699
0.0081567
0.00815631
0.00815584
0.00815531
0.00815475
0.00815409
0.00815259
0.00814646
0.00811913
0.00800768
0.00761442
0.0064503
0.00386452
0.00388984
0.00668783
0.00800707
0.00847461
0.00861351
0.00864913
0.00865743
0.00865946
0.00866019
0.00866065
0.00866121
0.00866215
0.00866316
0.0086641
0.00866487
0.00866542
0.00866579
0.00866598
0.00866599
0.00866583
0.00866549
0.00866496
0.00866422
0.00866331
0.00866232
0.00866136
0.00866057
0.00865864
0.00865039
0.00861473
0.00847575
0.0080081
0.00668862
0.00389018
0.00389554
0.00674907
0.00811857
0.00861362
0.00876374
0.00880305
0.00881232
0.00881431
0.00881424
0.00881323
0.00881251
0.00881385
0.00881574
0.00881746
0.00881878
0.0088196
0.00882008
0.00882033
0.00882035
0.00882013
0.00881968
0.0088189
0.00881761
0.00881592
0.00881405
0.0088127
0.00881314
0.00881248
0.00880411
0.00876512
0.008615
0.00811982
0.00675002
0.00389594
0.0038967
0.00676273
0.00814587
0.00864927
0.00880307
0.00884356
0.00885265
0.00885284
0.00884805
0.0088389
0.00883079
0.00883338
0.00883847
0.00884253
0.00884517
0.00884624
0.00884671
0.00884694
0.00884696
0.00884677
0.00884635
0.00884532
0.00884272
0.00883868
0.00883361
0.008831
0.00883882
0.00884622
0.00884225
0.00880392
0.00865072
0.0081473
0.00676383
0.00389716
0.00389697
0.0067655
0.00815191
0.00865751
0.00881228
0.00885258
0.00885939
0.00885183
0.00882756
0.00878382
0.00874346
0.00875608
0.00877663
0.00878973
0.00879644
0.00879786
0.00879797
0.00879803
0.00879806
0.00879805
0.00879799
0.00879662
0.00878994
0.00877688
0.00875635
0.00874368
0.00878377
0.00882575
0.00884118
0.00881028
0.00865845
0.0081534
0.00676673
0.0038975
0.00389708
0.00676609
0.00815328
0.00865943
0.00881414
0.00885267
0.00885184
0.00881896
0.00872837
0.00855912
0.00839341
0.00847308
0.00856319
0.00860955
0.00862862
0.0086313
0.00863087
0.00863065
0.00863068
0.00863096
0.00863146
0.00862884
0.00860981
0.0085635
0.00847341
0.00839363
0.00855909
0.00872661
0.00880838
0.00880273
0.00865829
0.00815453
0.00676739
0.00389768
0.00389715
0.00676626
0.00815372
0.00865999
0.00881393
0.00884799
0.00882841
0.00873038
0.00845566
0.00789536
0.00727724
0.00770551
0.0080565
0.00820414
0.00825328
0.00826156
0.0082621
0.00826211
0.00826215
0.00826221
0.00826173
0.00825352
0.00820445
0.00805689
0.00770593
0.0072774
0.00789535
0.00845401
0.00871996
0.00877945
0.00865365
0.00815413
0.00676754
0.00389782
0.0038972
0.00676633
0.00815399
0.00866024
0.0088129
0.00883975
0.00878831
0.00857004
0.00790911
0.00636061
0.00443942
0.00608893
0.00718552
0.00756132
0.0076613
0.00768411
0.00768896
0.00769004
0.00769007
0.00768906
0.00768427
0.00766154
0.00756166
0.00718602
0.00608955
0.00443939
0.00636063
0.0079076
0.00855984
0.00873956
0.0086455
0.00815297
0.00676746
0.00389791
0.00389722
0.00676636
0.00815425
0.00866062
0.00881259
0.00883453
0.00875841
0.00843109
0.00733468
0.00446315
0.0043265
0.00638855
0.00702447
0.00717294
0.00720105
0.00720536
0.00720594
0.00720595
0.00720539
0.00720112
0.00717306
0.00702472
0.00638903
0.0043268
0.00446321
0.00733325
0.00842099
0.00870974
0.00864022
0.00815241
0.00676739
0.00389798
0.00389722
0.00676635
0.00815454
0.00866143
0.0088148
0.00884243
0.00879159
0.00857246
0.00790644
0.00634466
0.00442861
0.00599773
0.00706228
0.00742233
0.00751666
0.00752854
0.00752677
0.00752539
0.00752538
0.00752673
0.00752847
0.00751657
0.00742225
0.00706227
0.00599754
0.00442819
0.00634381
0.00790445
0.00856199
0.0087426
0.00864774
0.00815407
0.00676753
0.00389799
0.00389719
0.00676633
0.00815483
0.00866231
0.00881756
0.00885301
0.00883438
0.00873476
0.00845019
0.00786235
0.00718931
0.00749576
0.00772152
0.00780583
0.00782836
0.00782738
0.00782382
0.0078221
0.00782207
0.00782374
0.00782725
0.00782817
0.00780558
0.00772117
0.00749521
0.00718837
0.00786148
0.00844803
0.00872401
0.00878504
0.00865789
0.00815628
0.00676774
0.00389796
0.00389714
0.00676628
0.00815506
0.00866301
0.00881957
0.00886003
0.00886051
0.00882542
0.0087207
0.00850857
0.00824498
0.00814824
0.00804421
0.00799527
0.00797752
0.00796934
0.00796533
0.0079637
0.00796366
0.00796523
0.00796918
0.00797729
0.00799496
0.00804378
0.00814742
0.00824423
0.00850779
0.00871849
0.00881452
0.00881093
0.00866458
0.00815783
0.00676786
0.00389789
0.00389708
0.00676623
0.00815524
0.0086635
0.00882075
0.00886348
0.00887194
0.00886184
0.00882049
0.00872366
0.00856126
0.00836681
0.00815884
0.00806287
0.00802958
0.0080182
0.00801375
0.00801199
0.00801194
0.00801362
0.00801799
0.00802931
0.00806253
0.00815841
0.00836601
0.00856061
0.00872295
0.00881828
0.00885087
0.00882222
0.00866781
0.00815867
0.00676789
0.00389779
0.003897
0.00676618
0.00815537
0.00866384
0.00882142
0.00886501
0.00887618
0.00887391
0.00885093
0.00878435
0.00864453
0.00842796
0.00819182
0.00808247
0.00804445
0.00803186
0.00802701
0.00802493
0.00802486
0.00802683
0.00803163
0.00804416
0.00808211
0.00819138
0.00842719
0.00864394
0.00878367
0.00884872
0.00886291
0.0088264
0.00866922
0.00815911
0.00676787
0.00389767
0.00389692
0.00676614
0.00815546
0.00866407
0.0088218
0.00886571
0.0088777
0.00887755
0.00885919
0.0087996
0.00866439
0.0084432
0.00820014
0.00808753
0.00804825
0.0080352
0.00803
0.00802753
0.00802743
0.00802978
0.00803493
0.00804794
0.00808716
0.0081997
0.00844244
0.00866382
0.00879894
0.008857
0.00886656
0.0088279
0.00866986
0.00815935
0.00676785
0.00389755
0.00389685
0.00676611
0.00815552
0.0086642
0.00882202
0.00886604
0.00887827
0.00887866
0.00886133
0.00880318
0.00866882
0.00844677
0.00820212
0.00808878
0.00804916
0.00803592
0.00803048
0.00802766
0.00802753
0.00803022
0.00803562
0.00804884
0.0080884
0.00820167
0.00844602
0.00866827
0.00880254
0.00885915
0.00886767
0.00882847
0.00867017
0.00815949
0.00676783
0.00389743
0.00389679
0.0067661
0.00815555
0.00866426
0.0088221
0.00886615
0.00887841
0.00887884
0.00886156
0.00880346
0.00866912
0.00844707
0.00820228
0.00808888
0.0080492
0.00803588
0.00803032
0.00802732
0.00802716
0.00803004
0.00803557
0.00804886
0.0080885
0.00820184
0.00844634
0.0086686
0.00880285
0.00885941
0.00886788
0.00882863
0.00867028
0.00815956
0.00676782
0.00389735
0.00389679
0.00676612
0.00815555
0.00866424
0.00882206
0.00886604
0.00887812
0.00887811
0.00885989
0.00880046
0.00866534
0.00844414
0.00820066
0.00808785
0.00804838
0.0080351
0.00802957
0.00802663
0.00802647
0.00802928
0.00803478
0.00804803
0.00808748
0.00820023
0.00844345
0.00866486
0.00879989
0.00885779
0.00886719
0.00882839
0.00867021
0.00815955
0.00676785
0.00389736
0.00389685
0.00676616
0.00815552
0.00866414
0.00882184
0.00886556
0.0088769
0.00887484
0.00885214
0.00878587
0.00864628
0.00842972
0.00819278
0.0080831
0.00804474
0.00803177
0.00802641
0.00802375
0.00802361
0.00802613
0.00803145
0.0080444
0.00808273
0.00819238
0.00842911
0.00864587
0.00878538
0.0088501
0.00886399
0.00882723
0.00866981
0.00815945
0.0067679
0.00389745
0.00389692
0.00676622
0.00815547
0.00866393
0.00882135
0.00886426
0.00887297
0.00886321
0.00882232
0.00872607
0.00856419
0.0083698
0.00816047
0.00806397
0.00803018
0.00801827
0.00801323
0.00801094
0.00801083
0.00801297
0.00801796
0.00802987
0.00806365
0.00816014
0.00836934
0.00856391
0.00872569
0.00882039
0.00885245
0.00882341
0.00866866
0.00815916
0.00676795
0.00389757
0.003897
0.0067663
0.00815536
0.00866356
0.00882035
0.00886105
0.00886186
0.00882727
0.0087233
0.00851228
0.00824985
0.00815312
0.00804681
0.00799706
0.00797865
0.00796985
0.00796527
0.00796323
0.00796316
0.00796506
0.00796959
0.00797838
0.00799682
0.00804662
0.00815295
0.00824979
0.00851209
0.00872154
0.0088167
0.00881251
0.00866569
0.00815848
0.00676798
0.00389768
0.00389705
0.00676637
0.00815521
0.00866299
0.00881851
0.00885427
0.00883606
0.0087371
0.00845366
0.00786763
0.00719677
0.00750144
0.00772476
0.007808
0.00782979
0.00782824
0.00782423
0.00782225
0.0078222
0.00782409
0.00782805
0.00782959
0.00780785
0.00772481
0.00750182
0.00719704
0.00786773
0.00845216
0.00872681
0.00878703
0.00865929
0.0081571
0.00676794
0.00389777
0.00389709
0.00676643
0.00815501
0.00866224
0.00881593
0.00884393
0.00879356
0.00857518
0.00791038
0.00635043
0.00443199
0.00600109
0.00706226
0.00742136
0.00751493
0.00752626
0.00752412
0.00752253
0.00752248
0.00752398
0.00752603
0.00751457
0.00742089
0.00706196
0.00600178
0.00443188
0.00635079
0.00790913
0.00856522
0.00874494
0.00864941
0.00815506
0.00676779
0.00389782
0.00389711
0.00676647
0.00815478
0.00866153
0.00881387
0.00883619
0.00876047
0.00843343
0.00733695
0.00446369
0.0043216
0.00637515
0.00700688
0.00715223
0.00717878
0.0071823
0.00718247
0.00718236
0.00718193
0.00717799
0.00715056
0.00700368
0.00637044
0.00431923
0.0044633
0.00733545
0.0084236
0.00871214
0.00864208
0.00815354
0.00676772
0.00389784
0.0038971
0.00676642
0.00815444
0.00866105
0.00881413
0.00884147
0.00879061
0.0085729
0.00791233
0.00636379
0.00444148
0.00606804
0.00714194
0.0074895
0.00757263
0.00758999
0.00759334
0.00759386
0.0075937
0.00759266
0.00758792
0.00756659
0.00747487
0.00711581
0.00604961
0.0044376
0.0063607
0.00790936
0.00856253
0.00874216
0.00864748
0.00815415
0.0067678
0.00389781
0.00389705
0.00676596
0.00815322
0.00865947
0.00881368
0.00884824
0.00882929
0.00873172
0.00845642
0.00789212
0.00726048
0.00764522
0.00792441
0.00798236
0.0079834
0.00797941
0.00797792
0.00797752
0.00797729
0.00797675
0.007975
0.00796817
0.00793983
0.00783917
0.0075755
0.00722372
0.00787524
0.00844862
0.00871987
0.00878049
0.00865445
0.00815448
0.00676754
0.00389773
0.00389682
0.00676329
0.00814731
0.00865151
0.00880562
0.00884438
0.00884411
0.0088114
0.00871867
0.00853937
0.00834213
0.00834246
0.00829181
0.00816697
0.00810752
0.00808788
0.00808256
0.00808125
0.00808096
0.008081
0.0080816
0.0080841
0.00809363
0.00812519
0.0082017
0.00826292
0.00850473
0.00870498
0.00879796
0.00879527
0.00865178
0.00814953
0.00676496
0.00389748
0.0038957
0.00674972
0.00812012
0.00861603
0.00876686
0.00880629
0.00881336
0.00880584
0.00877896
0.00872328
0.00864608
0.00857043
0.00843567
0.0082662
0.00819071
0.00816691
0.00816082
0.00815948
0.00815922
0.00815932
0.00816036
0.00816557
0.00818666
0.00825558
0.008415
0.00855708
0.00868459
0.00876415
0.00879252
0.00876601
0.0086185
0.00812268
0.00675139
0.00389632
0.00389004
0.00668857
0.0080087
0.0084771
0.00861682
0.00865318
0.00866169
0.00866196
0.0086556
0.00863826
0.00860444
0.0085464
0.00844725
0.0083309
0.00827396
0.00825479
0.00825001
0.00824915
0.00824903
0.00824897
0.00824961
0.00825403
0.00827235
0.00832778
0.0084424
0.00854371
0.0086118
0.00864539
0.00865111
0.0086192
0.00848016
0.00801123
0.00669016
0.00389061
0.00386449
0.00645051
0.00761533
0.00800933
0.00812149
0.00814958
0.00815646
0.00815834
0.00815786
0.00815335
0.00814076
0.00811361
0.00806673
0.00801247
0.00798371
0.00797336
0.00797072
0.00797028
0.00797024
0.00797018
0.00797051
0.00797301
0.00798309
0.0080115
0.00806539
0.00811266
0.00814142
0.00815328
0.00815145
0.00812455
0.00801221
0.00761758
0.00645192
0.003865
0.00377024
0.00567296
0.00645094
0.0066895
0.00675124
0.00676552
0.00676905
0.00677046
0.00677122
0.00677089
0.00676806
0.00676035
0.00674636
0.0067296
0.00672014
0.00671641
0.00671534
0.00671509
0.00671506
0.00671509
0.00671532
0.00671636
0.00672002
0.0067294
0.00674604
0.00676005
0.00676787
0.00677029
0.00676794
0.00675371
0.00669165
0.00645261
0.00567402
0.00377067
0.00354038
0.00377033
0.00386474
0.00389048
0.00389637
0.00389778
0.00389836
0.00389886
0.00389938
0.00389986
0.00390018
0.00390008
0.00389941
0.00389826
0.0038975
0.00389704
0.00389672
0.00389647
0.00389636
0.00389649
0.00389673
0.00389702
0.00389744
0.00389815
0.00389924
0.00389987
0.00389994
0.00389959
0.00389892
0.00389736
0.0038913
0.00386539
0.00377081
0.00354068
0.00453339
0.00559391
0.00607094
0.00622003
0.00625817
0.00626656
0.00626822
0.00626855
0.00626864
0.00626869
0.00626871
0.00626872
0.00626871
0.0062687
0.00626868
0.00626865
0.00626863
0.00626862
0.00626862
0.00626862
0.00626864
0.00626866
0.00626868
0.00626869
0.00626869
0.00626868
0.00626861
0.00626829
0.00626664
0.00625825
0.00622011
0.00607102
0.00559399
0.00453347
0.00559393
0.00613721
0.00669212
0.00690065
0.00696136
0.0069761
0.00697921
0.00697981
0.00697993
0.00697995
0.00697996
0.00697996
0.00697995
0.00697995
0.00697994
0.00697994
0.00697993
0.00697993
0.00697993
0.00697993
0.00697994
0.00697995
0.00697996
0.00697996
0.00697997
0.00697996
0.00697986
0.00697928
0.00697618
0.00696144
0.00690073
0.0066922
0.00613729
0.00559402
0.00607109
0.00669221
0.00735822
0.00762942
0.00771545
0.00773822
0.00774346
0.00774456
0.0077448
0.00774487
0.00774491
0.00774499
0.00774509
0.00774518
0.00774526
0.00774532
0.00774535
0.00774537
0.00774538
0.00774536
0.00774533
0.00774528
0.00774521
0.00774512
0.00774502
0.00774492
0.00774469
0.00774363
0.00773841
0.00771564
0.00762961
0.00735842
0.00669239
0.0060713
0.00622031
0.00690083
0.00762951
0.00793654
0.00803791
0.0080659
0.00807261
0.00807404
0.00807425
0.00807413
0.00807402
0.00807416
0.00807444
0.0080747
0.00807492
0.00807506
0.00807515
0.00807519
0.0080752
0.00807516
0.00807508
0.00807495
0.00807474
0.00807448
0.00807421
0.00807403
0.0080739
0.00807269
0.00806614
0.00803822
0.00793686
0.00762983
0.00690111
0.00622063
0.00625852
0.00696158
0.00771559
0.00803796
0.00814627
0.00817672
0.00818406
0.00818531
0.0081847
0.0081832
0.00818187
0.00818196
0.00818266
0.00818332
0.00818378
0.00818402
0.00818413
0.00818418
0.00818418
0.00818414
0.00818405
0.00818382
0.00818337
0.00818272
0.00818202
0.00818189
0.00818294
0.00818294
0.00817653
0.00814651
0.00803835
0.00771599
0.00696193
0.00625894
0.00626696
0.00697633
0.00773838
0.00806597
0.00817673
0.00820797
0.00821502
0.00821463
0.0082101
0.00820233
0.0081956
0.00819569
0.00819842
0.00820056
0.00820169
0.00820211
0.0082022
0.00820221
0.00820222
0.00820222
0.00820215
0.00820174
0.00820062
0.00819849
0.00819577
0.00819563
0.00820207
0.00820827
0.00820552
0.0081763
0.00806622
0.0077388
0.00697672
0.00626745
0.00626864
0.00697943
0.0077436
0.00807266
0.00818405
0.00821501
0.00822004
0.0082134
0.00819437
0.00816316
0.00813703
0.00813949
0.00815186
0.00816008
0.00816348
0.00816465
0.00816474
0.00816467
0.00816468
0.00816477
0.00816469
0.00816354
0.00816015
0.00815195
0.00813957
0.00813706
0.0081629
0.00819252
0.00820419
0.00818096
0.00807225
0.0077439
0.00697982
0.00626919
0.00626897
0.00697999
0.00774466
0.00807405
0.00818528
0.00821465
0.00821356
0.00818825
0.00812483
0.00802049
0.00793953
0.00795328
0.00800302
0.00803258
0.00804291
0.00804709
0.00804777
0.00804769
0.0080477
0.0080478
0.00804714
0.00804298
0.00803267
0.00800313
0.00795339
0.00793956
0.00802022
0.00812299
0.00817903
0.00817439
0.00807162
0.00774453
0.00698031
0.00626955
0.00626903
0.00698006
0.00774484
0.00807421
0.0081847
0.00821044
0.00819553
0.0081269
0.00795643
0.00767303
0.00752697
0.00751267
0.00766925
0.00775817
0.00778567
0.00779859
0.00780162
0.00780197
0.00780198
0.00780165
0.00779864
0.00778575
0.00775829
0.00766941
0.00751283
0.00752698
0.00767274
0.00795458
0.00811769
0.00815635
0.00806731
0.00774374
0.00698019
0.00626958
0.00626903
0.00698002
0.00774484
0.00807408
0.00818344
0.0082038
0.00816787
0.00803101
0.00768823
0.00716829
0.00859004
0.00682498
0.00712977
0.00733289
0.00739351
0.00742037
0.00742715
0.00742831
0.00742833
0.00742718
0.00742043
0.0073936
0.00733304
0.00713
0.00682519
0.0085897
0.00716794
0.00768634
0.00802176
0.00812863
0.00806057
0.00774229
0.00697984
0.00626948
0.00626899
0.00697995
0.00774483
0.00807404
0.00818277
0.00819983
0.00815061
0.00797361
0.00759698
0.00875835
0.00789721
0.00677904
0.00702502
0.00712857
0.00714584
0.00714685
0.00714655
0.00714656
0.00714686
0.00714586
0.00712863
0.00702514
0.00677924
0.00789786
0.00875745
0.00759495
0.00796427
0.00811128
0.00805644
0.00774139
0.00697955
0.00626934
0.00626891
0.00697988
0.00774486
0.00807434
0.00818393
0.00820445
0.00816837
0.00803039
0.00768403
0.0071548
0.00851602
0.00676597
0.00709735
0.00732555
0.00743859
0.00740797
0.00739146
0.00738716
0.00738715
0.00739143
0.00740791
0.00743853
0.0073255
0.00709731
0.00676574
0.00851472
0.0071541
0.00768194
0.00802101
0.00812897
0.0080609
0.00774228
0.00697956
0.00626927
0.00626881
0.00697981
0.00774491
0.00807475
0.00818569
0.00821171
0.00819648
0.00812552
0.0079473
0.00764378
0.00745479
0.00739234
0.00752981
0.00760251
0.00763594
0.00762377
0.0076154
0.00761268
0.00761267
0.00761536
0.00762371
0.00763586
0.00760239
0.00752965
0.00739206
0.00745436
0.00764314
0.00794523
0.00811613
0.00815702
0.00806802
0.00774379
0.00697971
0.00626921
0.0062687
0.00697974
0.00774495
0.00807507
0.00818697
0.00821675
0.00821519
0.00818652
0.0081118
0.0079789
0.0078418
0.00778039
0.00777392
0.00775545
0.00774723
0.00773934
0.0077353
0.00773389
0.00773388
0.00773527
0.00773929
0.00774715
0.00775533
0.00777375
0.00778012
0.00784148
0.00797836
0.00810977
0.00817711
0.00817566
0.00807292
0.00774486
0.0069798
0.00626911
0.00626859
0.00697968
0.00774498
0.00807527
0.00818765
0.00821919
0.00822372
0.00821303
0.00818026
0.00811457
0.00802193
0.00793304
0.00786942
0.00781521
0.00779197
0.00778352
0.00778059
0.00777965
0.00777964
0.00778056
0.00778347
0.00779189
0.00781509
0.00786926
0.00793278
0.00802166
0.00811408
0.00817825
0.00820362
0.00818414
0.00807526
0.00774539
0.00697981
0.00626896
0.00626848
0.00697964
0.00774499
0.00807539
0.00818798
0.00822018
0.00822683
0.00822213
0.00820266
0.0081574
0.00807876
0.00798001
0.00789866
0.0078334
0.0078057
0.00779669
0.00779395
0.00779312
0.00779311
0.00779392
0.00779664
0.00780563
0.00783329
0.0078985
0.00797977
0.00807853
0.00815693
0.00820067
0.0082127
0.00818722
0.00807618
0.0077456
0.00697979
0.00626881
0.00626839
0.00697961
0.007745
0.00807545
0.00818814
0.00822055
0.00822783
0.0082248
0.00820887
0.00816877
0.00809351
0.00799214
0.00790617
0.00783808
0.00780925
0.00780003
0.00779729
0.00779645
0.00779643
0.00779725
0.00779998
0.00780917
0.00783797
0.00790602
0.00799191
0.00809329
0.00816832
0.00820689
0.00821538
0.00818821
0.00807652
0.00774569
0.00697977
0.00626867
0.00626832
0.00697959
0.00774501
0.00807549
0.00818822
0.0082207
0.00822814
0.00822551
0.00821038
0.00817138
0.00809679
0.00799485
0.00790785
0.00783915
0.00781006
0.00780078
0.00779801
0.00779714
0.00779712
0.00779797
0.00780072
0.00780999
0.00783904
0.0079077
0.00799462
0.00809658
0.00817094
0.0082084
0.00821609
0.00818851
0.00807664
0.00774573
0.00697976
0.00626857
0.00626828
0.00697958
0.00774502
0.00807551
0.00818824
0.00822073
0.00822818
0.00822557
0.00821045
0.00817146
0.00809689
0.00799494
0.00790792
0.0078392
0.00781009
0.00780079
0.007798
0.0077971
0.00779708
0.00779796
0.00780073
0.00781001
0.00783909
0.00790777
0.00799473
0.00809668
0.00817103
0.00820848
0.00821616
0.00818856
0.00807668
0.00774575
0.00697975
0.00626852
0.00626829
0.0069796
0.00774502
0.00807551
0.00818822
0.00822066
0.00822797
0.00822497
0.00820909
0.00816904
0.00809381
0.00799245
0.00790639
0.00783824
0.00780935
0.00780008
0.00779729
0.00779639
0.00779637
0.00779724
0.00780003
0.00780928
0.00783814
0.00790625
0.00799224
0.00809363
0.00816862
0.00820714
0.00821558
0.00818836
0.00807662
0.00774574
0.00697977
0.00626853
0.00626834
0.00697963
0.00774503
0.00807547
0.00818812
0.00822036
0.00822706
0.00822243
0.00820306
0.0081579
0.00807935
0.00798062
0.0078991
0.00783375
0.00780596
0.00779687
0.00779405
0.00779315
0.00779314
0.00779401
0.00779682
0.00780589
0.00783366
0.00789898
0.00798045
0.00807919
0.00815751
0.00820113
0.00821306
0.00818748
0.00807636
0.00774569
0.0069798
0.00626861
0.00626843
0.00697967
0.00774503
0.0080754
0.00818785
0.00821945
0.00822406
0.00821349
0.00818089
0.00811544
0.00802301
0.00793418
0.00787027
0.0078159
0.00779254
0.00778401
0.007781
0.00778001
0.00778
0.00778098
0.00778398
0.0077925
0.00781585
0.0078702
0.00793406
0.0080229
0.00811508
0.00817899
0.00820415
0.00818452
0.00807552
0.00774552
0.00697982
0.00626873
0.00626853
0.00697973
0.00774503
0.00807524
0.00818722
0.00821709
0.00821565
0.00818716
0.00811276
0.00798035
0.00784371
0.00778237
0.00777543
0.00775671
0.00774834
0.00774042
0.00773635
0.00773492
0.00773492
0.00773635
0.00774042
0.00774836
0.00775673
0.00777546
0.00778238
0.00784367
0.00798004
0.0081109
0.00817787
0.00817618
0.00807326
0.00774503
0.00697982
0.00626885
0.00626863
0.0069798
0.00774501
0.00807496
0.008186
0.00821213
0.00819706
0.00812637
0.00794864
0.00764591
0.00745774
0.00739516
0.00753179
0.00760412
0.00763739
0.00762529
0.00761695
0.00761425
0.00761426
0.00761698
0.00762534
0.00763746
0.0076042
0.00753192
0.00739532
0.00745776
0.00764564
0.0079468
0.00811713
0.00815768
0.00806845
0.00774401
0.00697974
0.00626895
0.00626873
0.00697987
0.00774497
0.00807458
0.0081843
0.00820495
0.00816904
0.00803135
0.00768549
0.00715716
0.00852509
0.00676736
0.00709714
0.0073246
0.00743739
0.00740664
0.00739006
0.00738575
0.00738576
0.00739007
0.00740664
0.00743734
0.00732432
0.00709662
0.00676678
0.00852497
0.00715667
0.00768357
0.0080221
0.00812973
0.0080614
0.00774253
0.00697959
0.006269
0.0062688
0.00697994
0.00774493
0.00807428
0.00818315
0.00820035
0.00815128
0.00797442
0.00759781
0.00875785
0.00787793
0.00676686
0.0070082
0.00710874
0.00712487
0.00712553
0.00712511
0.00712507
0.00712536
0.00712437
0.0071074
0.00700507
0.00676115
0.00786622
0.00875445
0.00759534
0.00796501
0.00811199
0.00805695
0.00774163
0.00697957
0.00626906
0.0062688
0.00697992
0.00774478
0.00807411
0.0081836
0.00820411
0.00816833
0.00803155
0.00768856
0.00716725
0.00857758
0.00680273
0.00709032
0.00727526
0.00732455
0.00734707
0.00735291
0.00735389
0.00735381
0.00735249
0.00734559
0.00731992
0.00726389
0.00707072
0.00678134
0.00854881
0.00716096
0.00768469
0.00802173
0.00812901
0.00806087
0.00774237
0.00697975
0.00626915
0.00626855
0.0069794
0.00774379
0.00807295
0.00818341
0.00820925
0.00819444
0.00812565
0.00795401
0.00766611
0.00750587
0.0074632
0.00757894
0.00762956
0.00763193
0.00763319
0.00763349
0.00763342
0.00763327
0.00763265
0.00762989
0.00762113
0.00760327
0.00753935
0.00741987
0.00747479
0.00765202
0.00794701
0.00811486
0.00815498
0.00806627
0.00774283
0.00697954
0.006269
0.00626693
0.00697636
0.00773864
0.00806646
0.00817701
0.00820622
0.00820509
0.00817931
0.00811358
0.00800139
0.0078993
0.00787103
0.00786325
0.00784895
0.00781917
0.00780595
0.00780197
0.00780096
0.00780074
0.00780073
0.00780088
0.00780214
0.0078086
0.00781895
0.00781243
0.00785624
0.00797959
0.00810332
0.00816754
0.0081657
0.00806421
0.00773866
0.00697669
0.00626744
0.00625855
0.00696165
0.00771591
0.00803859
0.00814703
0.00817698
0.0081817
0.00817444
0.00815274
0.00811278
0.00806404
0.0080219
0.00797284
0.00793304
0.00789232
0.00787488
0.00786969
0.00786844
0.00786821
0.00786836
0.00786938
0.0078738
0.00788918
0.00792498
0.00796009
0.00801888
0.00808944
0.00814185
0.0081628
0.00814345
0.00803835
0.00771636
0.00696206
0.00625905
0.00622038
0.00690094
0.00762988
0.00793723
0.00803885
0.0080669
0.00807303
0.00807202
0.00806544
0.00805097
0.00802692
0.0079922
0.00794407
0.00789789
0.00786433
0.00785017
0.00784586
0.00784481
0.00784463
0.00784478
0.00784575
0.00784986
0.00786349
0.00789598
0.00794134
0.00799194
0.00803324
0.00805709
0.00806206
0.00803818
0.00793769
0.00763043
0.00690133
0.00622084
0.00607122
0.00669236
0.00735862
0.00763013
0.00771642
0.0077394
0.00774466
0.00774522
0.00774342
0.00773818
0.00772705
0.00770702
0.00767718
0.00764654
0.00762647
0.00761789
0.00761515
0.00761445
0.00761432
0.00761445
0.00761516
0.00761786
0.00762632
0.0076462
0.00767671
0.00770708
0.00772832
0.00773863
0.00773808
0.00771668
0.00763071
0.00735911
0.00669267
0.00607159
0.0055941
0.00613737
0.00669252
0.00690132
0.00696225
0.00697719
0.00698046
0.00698107
0.00698071
0.00697901
0.00697463
0.00696568
0.00695152
0.00693612
0.00692648
0.00692231
0.0069209
0.00692048
0.00692041
0.00692052
0.00692096
0.00692239
0.00692655
0.00693617
0.00695154
0.0069658
0.00697487
0.00697869
0.00697717
0.00696274
0.00690183
0.00669288
0.00613757
0.00559436
0.00453356
0.00559412
0.00607145
0.00622088
0.00625932
0.00626802
0.00627
0.00627062
0.00627081
0.00627031
0.0062683
0.00626337
0.00625473
0.00624461
0.00623863
0.00623604
0.00623503
0.00623463
0.00623453
0.00623467
0.0062351
0.00623611
0.00623868
0.00624462
0.00625469
0.00626332
0.00626824
0.00626994
0.00626874
0.00626016
0.00622159
0.00607194
0.00559438
0.0045338
0.00496686
0.00658196
0.00736871
0.00763631
0.00771098
0.00772883
0.00773259
0.0077333
0.00773342
0.00773341
0.00773337
0.00773331
0.00773325
0.00773318
0.00773312
0.00773306
0.00773302
0.007733
0.007733
0.00773302
0.00773305
0.0077331
0.00773316
0.00773322
0.00773328
0.00773332
0.00773324
0.00773256
0.00772882
0.00771098
0.00763632
0.00736873
0.006582
0.00496694
0.00658195
0.00690288
0.00748992
0.00773647
0.00781563
0.00783667
0.00784146
0.00784242
0.00784257
0.00784255
0.0078425
0.00784245
0.0078424
0.00784235
0.00784232
0.00784228
0.00784226
0.00784225
0.00784225
0.00784226
0.00784228
0.00784232
0.00784235
0.0078424
0.00784244
0.00784247
0.00784235
0.00784142
0.00783665
0.00781562
0.00773647
0.00748995
0.00690291
0.00658198
0.00736887
0.00748998
0.00809835
0.00838075
0.00848027
0.00850922
0.00851642
0.00851798
0.00851823
0.00851819
0.00851809
0.00851803
0.00851801
0.00851802
0.00851802
0.00851802
0.00851802
0.00851801
0.00851802
0.00851802
0.00851803
0.00851803
0.00851802
0.00851802
0.00851803
0.00851804
0.00851784
0.00851637
0.00850924
0.00848033
0.00838084
0.00809848
0.00749011
0.00736902
0.00763663
0.00773661
0.00838083
0.00869059
0.00880424
0.00883874
0.00884767
0.00884958
0.00884969
0.00884925
0.00884878
0.0088486
0.00884863
0.00884872
0.0088488
0.00884885
0.00884886
0.00884887
0.00884887
0.00884887
0.00884886
0.00884881
0.00884874
0.00884865
0.00884861
0.00884872
0.0088488
0.00884728
0.00883866
0.00880433
0.00869076
0.00838105
0.00773684
0.00763692
0.0077114
0.00781583
0.0084804
0.00880429
0.00892517
0.0089625
0.00897216
0.00897373
0.00897258
0.00897018
0.00896789
0.00896709
0.00896727
0.00896759
0.00896778
0.0089679
0.00896791
0.0089679
0.0089679
0.00896792
0.00896792
0.00896781
0.00896762
0.0089673
0.00896712
0.00896783
0.00896967
0.00896988
0.00896163
0.00892503
0.00880446
0.00848067
0.0078161
0.0077118
0.00772931
0.00783688
0.00850937
0.00883881
0.00896252
0.00900078
0.00900994
0.00900918
0.00900293
0.00899283
0.00898384
0.00898132
0.00898281
0.00898419
0.00898464
0.0089851
0.00898515
0.00898508
0.00898508
0.00898516
0.00898512
0.00898467
0.00898422
0.00898285
0.00898135
0.00898378
0.0089923
0.0090001
0.00899659
0.00896124
0.00883867
0.00850959
0.00783717
0.00772977
0.00773309
0.00784166
0.00851656
0.00884773
0.00897219
0.00900997
0.00901633
0.00900766
0.00898456
0.0089494
0.00892034
0.0089139
0.00892294
0.00892902
0.00892999
0.00893253
0.00893315
0.00893306
0.00893307
0.00893317
0.00893256
0.00893003
0.00892907
0.00892299
0.00891394
0.00892028
0.00894884
0.00898168
0.0089949
0.0089671
0.00884649
0.00851652
0.00784191
0.00773357
0.00773379
0.00784259
0.00851809
0.00884964
0.00897379
0.00900938
0.00900807
0.00897814
0.00890949
0.00880795
0.00873726
0.00871286
0.00875108
0.00877367
0.00877438
0.00878613
0.00878952
0.00878975
0.00878976
0.00878954
0.00878616
0.00877442
0.00877373
0.00875116
0.00871292
0.00873718
0.00880736
0.00890657
0.00896531
0.00895866
0.00884549
0.00851732
0.00784266
0.00773421
0.00773387
0.0078427
0.00851831
0.00884976
0.00897285
0.00900388
0.00898694
0.00891334
0.00875077
0.00852506
0.00849738
0.00828317
0.00839371
0.00846208
0.00845823
0.00849835
0.00850915
0.00851046
0.00851047
0.00850918
0.0084984
0.00845829
0.00846218
0.00839384
0.00828326
0.00849726
0.0085244
0.00874777
0.00890042
0.00893741
0.00883978
0.00851607
0.00784241
0.00773409
0.00773381
0.00784264
0.00851824
0.00884944
0.00897107
0.00899597
0.00895804
0.00882674
0.00855446
0.00834113
0.0110525
0.00767116
0.007823
0.00798997
0.00798884
0.00807366
0.00809502
0.00809816
0.00809818
0.00809506
0.00807373
0.00798891
0.00799013
0.00782322
0.00767124
0.0110518
0.00834029
0.0085513
0.00881364
0.00890831
0.00883164
0.00851402
0.00784184
0.00773368
0.00773369
0.00784254
0.00851816
0.00884926
0.0089701
0.00899168
0.00894321
0.00879486
0.00863591
0.0115413
0.00902531
0.00747907
0.00773324
0.00786477
0.00786121
0.00785425
0.00785226
0.00785227
0.00785427
0.00786125
0.00786485
0.00773338
0.00747928
0.00902602
0.0115387
0.00863247