/*--------------------------------*- C++ -*----------------------------------*\
| =========                 |                                                 |
| \\      /  F ield         | OpenFOAM: The Open Source CFD Toolbox           |
|  \\    /   O peration     | Version:  2112                                  |
|   \\  /    A nd           | Website:  www.openfoam.com                      |
|    \\/     M anipulation  |                                                 |
\*---------------------------------------------------------------------------*/
FoamFile
{
    version     2.0;
    format      ascii;
    arch        "LSB;label=32;scalar=64";
    class       volScalarField;
    location    "1.3";
    object      k;
}
// * * * * * * * * * * * * * * * * * * * * * * * * * * * * * * * * * * * * * //

dimensions      [0 2 -2 0 0 0 0];

internalField   nonuniform List<scalar> 
64906
(
0.00203748
0.00212927
0.00216721
0.00217775
0.00218016
0.00218066
0.00218077
0.00218081
0.00218085
0.00218088
0.0021809
0.00218093
0.00218094
0.00218095
0.00218096
0.00218095
0.00218095
0.00218094
0.00218094
0.00218094
0.00218094
0.00218094
0.00218094
0.00218093
0.00218092
0.00218089
0.00218086
0.00218082
0.00218071
0.00218021
0.0021778
0.00216726
0.00212932
0.00203752
0.00212929
0.00281374
0.00307545
0.00315575
0.00317697
0.00318187
0.00318291
0.00318315
0.00318325
0.00318332
0.00318338
0.00318345
0.0031835
0.00318355
0.00318359
0.00318362
0.00318364
0.00318365
0.00318365
0.00318364
0.00318363
0.0031836
0.00318356
0.00318352
0.00318346
0.0031834
0.00318331
0.00318306
0.00318202
0.00317711
0.00315589
0.00307558
0.00281386
0.00212936
0.00216726
0.00307553
0.00344916
0.00357443
0.00361076
0.00361997
0.00362209
0.0036226
0.00362279
0.00362293
0.00362308
0.00362325
0.00362342
0.00362357
0.00362369
0.00362379
0.00362385
0.00362389
0.00362389
0.00362386
0.0036238
0.00362371
0.00362359
0.00362345
0.00362329
0.00362311
0.0036229
0.00362238
0.00362025
0.00361103
0.00357468
0.00344939
0.00307573
0.00216737
0.00217783
0.00315588
0.00357449
0.00372129
0.0037659
0.00377773
0.00378058
0.00378128
0.0037815
0.00378162
0.00378176
0.00378203
0.00378234
0.00378262
0.00378286
0.00378302
0.00378313
0.00378319
0.00378319
0.00378314
0.00378304
0.00378288
0.00378266
0.00378238
0.00378208
0.0037818
0.00378157
0.00378092
0.0037781
0.00376626
0.00372163
0.00357481
0.00315615
0.00217797
0.00218026
0.00317713
0.00361086
0.00376593
0.00381404
0.00382707
0.00383024
0.0038309
0.00383083
0.00383042
0.00383011
0.00383047
0.00383103
0.00383155
0.00383196
0.0038322
0.00383234
0.00383241
0.00383242
0.00383236
0.00383223
0.003832
0.0038316
0.00383108
0.00383053
0.00383016
0.00383037
0.00383017
0.00382733
0.00381443
0.00376635
0.00361124
0.00317744
0.00218042
0.00218077
0.00318204
0.00362007
0.00377778
0.00382708
0.0038405
0.00384359
0.00384361
0.00384193
0.00383882
0.00383608
0.00383669
0.00383821
0.00383946
0.00384028
0.0038406
0.00384073
0.00384079
0.0038408
0.00384075
0.00384064
0.00384033
0.00383952
0.00383827
0.00383677
0.00383613
0.00383876
0.00384124
0.0038399
0.00382726
0.00377819
0.00362051
0.0031824
0.00218096
0.00218089
0.00318307
0.00362218
0.00378061
0.00383023
0.00384357
0.00384586
0.00384325
0.00383518
0.00382105
0.00380817
0.0038115
0.00381763
0.00382169
0.00382382
0.00382424
0.00382424
0.00382424
0.00382425
0.00382426
0.00382428
0.00382387
0.00382176
0.00381771
0.00381158
0.00380823
0.00382101
0.0038345
0.00383951
0.00382938
0.00378081
0.00362262
0.00318347
0.0021811
0.00218094
0.00318329
0.00362266
0.00378127
0.00383085
0.00384357
0.00384327
0.00383241
0.00380334
0.00375028
0.00369894
0.00372173
0.00374877
0.0037631
0.00376914
0.00376997
0.00376979
0.00376969
0.0037697
0.00376981
0.00377001
0.0037692
0.00376318
0.00374887
0.00372183
0.003699
0.00375024
0.00380267
0.00382869
0.00382678
0.00378072
0.003623
0.00318371
0.00218117
0.00218096
0.00318335
0.00362281
0.00378144
0.00383075
0.00384195
0.00383553
0.00380406
0.00371791
0.00354386
0.00335073
0.00348093
0.00358831
0.00363407
0.00364964
0.00365228
0.00365243
0.00365241
0.00365242
0.00365246
0.00365233
0.00364971
0.00363417
0.00358843
0.00348107
0.00335078
0.00354383
0.00371727
0.00380038
0.00381908
0.0037791
0.00362282
0.00318375
0.00218123
0.00218098
0.00318338
0.00362289
0.0037815
0.00383036
0.0038392
0.00382271
0.00375409
0.00354861
0.00305398
0.00238935
0.00295868
0.00331198
0.00343068
0.00346263
0.00347005
0.00347163
0.00347198
0.00347199
0.00347166
0.0034701
0.0034627
0.00343079
0.00331214
0.00295889
0.00238933
0.00305397
0.00354802
0.00375046
0.0038063
0.00377636
0.00362239
0.00318371
0.00218126
0.00218099
0.00318338
0.00362297
0.00378161
0.00383024
0.00383751
0.00381342
0.00371176
0.00337062
0.00239889
0.0023449
0.00305465
0.00325957
0.00330746
0.00331674
0.0033182
0.0033184
0.0033184
0.00331821
0.00331676
0.0033075
0.00325966
0.00305482
0.00234501
0.0023989
0.00337004
0.00370815
0.00379702
0.00377464
0.00362218
0.00318368
0.00218128
0.00218099
0.00318338
0.00362306
0.00378186
0.00383094
0.00384
0.00382367
0.00375473
0.00354756
0.00304824
0.00238483
0.00292592
0.00326979
0.00338379
0.00341392
0.00341796
0.00341746
0.00341702
0.00341702
0.00341745
0.00341794
0.00341389
0.00338377
0.00326979
0.00292585
0.00238467
0.00304793
0.00354681
0.00375102
0.00380718
0.00377703
0.00362272
0.00318373
0.00218129
0.00218098
0.00318337
0.00362315
0.00378215
0.00383185
0.00384345
0.00383727
0.00380515
0.00371558
0.00353208
0.00331971
0.00340992
0.00347744
0.00350317
0.00351024
0.00351001
0.00350891
0.00350837
0.00350836
0.00350889
0.00350997
0.00351018
0.00350309
0.00347733
0.00340974
0.0033194
0.00353177
0.00371478
0.00380136
0.00382069
0.00378036
0.00362348
0.00318381
0.00218128
0.00218096
0.00318336
0.00362322
0.00378237
0.00383252
0.0038458
0.00384581
0.00383399
0.00379992
0.00373232
0.00364844
0.00361412
0.00357908
0.00356275
0.00355689
0.00355426
0.00355299
0.00355247
0.00355246
0.00355296
0.00355421
0.00355682
0.00356265
0.00357894
0.00361388
0.0036482
0.00373205
0.00379911
0.00383016
0.00382916
0.00378261
0.00362401
0.00318386
0.00218125
0.00218093
0.00318334
0.00362328
0.00378253
0.00383291
0.00384697
0.00384964
0.0038459
0.00383174
0.0037996
0.00374653
0.00368296
0.00361578
0.00358447
0.00357355
0.00356984
0.00356842
0.00356787
0.00356785
0.00356838
0.00356978
0.00357347
0.00358437
0.00361565
0.00368271
0.00374632
0.00379935
0.00383093
0.00384206
0.00383296
0.00378372
0.0036243
0.00318387
0.00218121
0.0021809
0.00318332
0.00362332
0.00378264
0.00383313
0.00384749
0.00385109
0.00384996
0.00384171
0.00381906
0.00377293
0.00370264
0.00362661
0.00359093
0.00357843
0.00357432
0.00357277
0.00357211
0.00357209
0.00357271
0.00357425
0.00357834
0.00359082
0.00362647
0.0037024
0.00377274
0.00381882
0.00384091
0.0038461
0.00383439
0.0037842
0.00362445
0.00318387
0.00218116
0.00218087
0.00318331
0.00362334
0.00378271
0.00383325
0.00384772
0.00385161
0.0038512
0.00384449
0.00382409
0.0037794
0.00370766
0.0036294
0.00359264
0.00357971
0.00357544
0.00357378
0.00357301
0.00357298
0.00357371
0.00357536
0.00357961
0.00359252
0.00362926
0.00370743
0.00377922
0.00382386
0.00384369
0.00384735
0.0038349
0.00378441
0.00362453
0.00318386
0.00218111
0.00218084
0.0031833
0.00362336
0.00378275
0.00383332
0.00384783
0.0038518
0.00385157
0.00384522
0.00382529
0.00378087
0.00370885
0.00363007
0.00359306
0.00358002
0.00357568
0.00357395
0.00357307
0.00357303
0.00357387
0.00357559
0.00357992
0.00359294
0.00362993
0.00370862
0.0037807
0.00382506
0.00384442
0.00384772
0.00383509
0.00378451
0.00362458
0.00318385
0.00218107
0.00218082
0.00318329
0.00362337
0.00378277
0.00383335
0.00384786
0.00385184
0.00385163
0.00384529
0.00382537
0.00378097
0.00370894
0.00363012
0.00359309
0.00358003
0.00357567
0.0035739
0.00357297
0.00357292
0.00357382
0.00357558
0.00357992
0.00359297
0.00362998
0.00370872
0.0037808
0.00382516
0.00384449
0.00384779
0.00383514
0.00378455
0.0036246
0.00318385
0.00218103
0.00218082
0.0031833
0.00362337
0.00378276
0.00383333
0.00384782
0.00385174
0.00385137
0.00384471
0.00382435
0.00377969
0.00370795
0.00362956
0.00359274
0.00357975
0.00357541
0.00357365
0.00357273
0.00357268
0.00357356
0.00357531
0.00357964
0.00359262
0.00362943
0.00370774
0.00377954
0.00382415
0.00384393
0.00384754
0.00383505
0.00378452
0.00362459
0.00318386
0.00218104
0.00218084
0.00318331
0.00362337
0.00378273
0.00383326
0.00384766
0.00385131
0.00385024
0.00384209
0.00381953
0.00377347
0.00370319
0.00362691
0.00359114
0.00357853
0.00357429
0.00357258
0.00357175
0.00357171
0.0035725
0.00357419
0.00357842
0.00359102
0.00362679
0.003703
0.00377334
0.00381935
0.00384133
0.00384643
0.00383464
0.00378438
0.00362456
0.00318388
0.00218107
0.00218087
0.00318334
0.00362335
0.00378266
0.0038331
0.00384721
0.00384996
0.00384632
0.0038323
0.00380034
0.00374744
0.00368389
0.00361631
0.00358483
0.00357375
0.00356988
0.00356827
0.00356755
0.00356752
0.00356819
0.00356978
0.00357365
0.00358473
0.0036162
0.00368375
0.00374735
0.00380019
0.00383158
0.00384254
0.00383332
0.00378398
0.00362446
0.00318389
0.00218112
0.0021809
0.00318336
0.00362331
0.00378254
0.00383276
0.00384611
0.00384622
0.00383456
0.00380073
0.00373348
0.00364997
0.00361566
0.00357991
0.00356333
0.00355726
0.00355444
0.00355299
0.00355235
0.00355233
0.00355293
0.00355436
0.00355718
0.00356325
0.00357986
0.00361561
0.00364994
0.00373339
0.00380006
0.00383084
0.00382965
0.00378295
0.00362421
0.0031839
0.00218117
0.00218092
0.00318339
0.00362327
0.00378235
0.00383214
0.00384384
0.00383779
0.00380587
0.00371666
0.00353377
0.00332216
0.00341177
0.00347849
0.00350386
0.0035107
0.00351029
0.00350905
0.00350842
0.00350841
0.003509
0.00351023
0.00351063
0.00350382
0.0034785
0.00341189
0.00332224
0.00353377
0.00371607
0.00380223
0.0038213
0.00378079
0.00362373
0.00318387
0.0021812
0.00218094
0.00318341
0.0036232
0.00378211
0.00383129
0.00384046
0.00382427
0.00375557
0.00354882
0.00305022
0.00238613
0.00292708
0.00326974
0.0033834
0.00341328
0.00341713
0.00341651
0.00341602
0.003416
0.00341647
0.00341706
0.00341316
0.00338324
0.00326963
0.00292731
0.00238609
0.00305032
0.0035483
0.00375202
0.0038079
0.00377754
0.00362303
0.00318381
0.00218122
0.00218095
0.00318342
0.00362313
0.00378188
0.00383062
0.00383801
0.00381405
0.00371248
0.00337136
0.0023991
0.00234293
0.00304984
0.00325337
0.00330019
0.00330894
0.00331014
0.00331021
0.00331017
0.00331002
0.00330867
0.00329961
0.00325224
0.00304814
0.00234196
0.00239892
0.00337073
0.00370894
0.00379775
0.0037752
0.00362253
0.00318379
0.00218123
0.00218094
0.0031834
0.00362301
0.00378173
0.00383071
0.0038397
0.00382338
0.00375494
0.00354958
0.00305498
0.00239001
0.00295086
0.00329659
0.00340596
0.00343229
0.00343791
0.00343902
0.00343919
0.00343914
0.00343879
0.00343721
0.00343024
0.00340097
0.00328759
0.00294404
0.00238837
0.00305374
0.00354842
0.00375121
0.00380705
0.00377694
0.00362274
0.00318382
0.00218122
0.00218092
0.00318322
0.00362258
0.00378118
0.00383055
0.0038419
0.00383566
0.00380431
0.00371789
0.00354237
0.00334433
0.00345978
0.00354361
0.00356034
0.00356021
0.00355884
0.00355834
0.0035582
0.00355812
0.00355794
0.00355736
0.00355515
0.00354629
0.00351555
0.00343616
0.00333136
0.00353639
0.00371505
0.00380007
0.00381923
0.00377922
0.00362286
0.00318372
0.00218119
0.00218082
0.00318222
0.00362051
0.00377845
0.0038278
0.00384056
0.00384041
0.00382955
0.00379965
0.00374305
0.00368093
0.00367757
0.00365915
0.00361865
0.00359922
0.00359275
0.00359098
0.00359054
0.00359045
0.00359046
0.00359065
0.00359149
0.00359472
0.00360546
0.00363164
0.00365453
0.00373126
0.00379482
0.00382477
0.00382398
0.00377831
0.00362115
0.00318276
0.00218108
0.00218033
0.00317734
0.00361134
0.00376666
0.00381497
0.00382798
0.0038303
0.00382764
0.00381857
0.00380024
0.0037749
0.00374922
0.00370518
0.00365069
0.00362608
0.00361822
0.00361617
0.00361572
0.00361563
0.00361567
0.00361602
0.00361777
0.00362475
0.00364729
0.00369883
0.00374552
0.00378714
0.00381335
0.0038229
0.00381438
0.00376732
0.00361211
0.00317789
0.00218057
0.00217791
0.00315613
0.003575
0.00372205
0.00376691
0.00377895
0.0037818
0.00378178
0.00377944
0.00377338
0.00376179
0.00374217
0.0037095
0.00367169
0.00365297
0.00364657
0.00364494
0.00364464
0.00364459
0.00364458
0.00364482
0.00364633
0.00365246
0.00367069
0.003708
0.00374145
0.00376426
0.00377576
0.00377789
0.00376749
0.00372295
0.00357578
0.00315665
0.00217813
0.00216736
0.0030758
0.00344968
0.00357519
0.00361177
0.00362122
0.00362357
0.00362416
0.00362386
0.00362212
0.00361756
0.00360805
0.00359205
0.00357382
0.00356406
0.00356049
0.00355955
0.00355938
0.00355936
0.00355935
0.00355949
0.00356038
0.00356386
0.00357351
0.00359163
0.00360778
0.00361783
0.00362212
0.00362163
0.00361267
0.00357608
0.00345039
0.00307627
0.00216756
0.00212939
0.00281401
0.00307594
0.00315644
0.00317785
0.00318297
0.00318425
0.00318473
0.00318494
0.00318473
0.00318357
0.00318061
0.00317542
0.00316931
0.00316584
0.00316446
0.00316405
0.00316396
0.00316394
0.00316396
0.00316405
0.00316444
0.0031658
0.00316925
0.00317532
0.00318052
0.00318352
0.00318452
0.00318372
0.00317865
0.00315715
0.0030765
0.00281438
0.00212956
0.00203757
0.00212943
0.00216746
0.00217809
0.0021806
0.0021812
0.00218145
0.00218164
0.00218185
0.00218203
0.00218214
0.00218206
0.00218174
0.00218122
0.00218088
0.00218069
0.00218056
0.00218045
0.00218041
0.00218046
0.00218056
0.00218068
0.00218086
0.00218118
0.00218167
0.00218198
0.00218204
0.00218192
0.00218165
0.00218099
0.00217841
0.00216771
0.00212962
0.0020377
0.00285463
0.00329889
0.00349324
0.00355465
0.00357082
0.00357451
0.00357527
0.00357542
0.00357546
0.00357548
0.00357549
0.00357549
0.00357549
0.00357548
0.00357547
0.00357546
0.00357545
0.00357545
0.00357545
0.00357545
0.00357546
0.00357547
0.00357547
0.00357548
0.00357548
0.00357548
0.00357544
0.0035753
0.00357454
0.00357085
0.00355468
0.00349327
0.00329893
0.00285466
0.0032989
0.00573244
0.00650695
0.00677096
0.00685023
0.00687084
0.00687551
0.00687643
0.00687655
0.0068765
0.00687641
0.0068763
0.00687619
0.0068761
0.00687603
0.00687596
0.00687592
0.0068759
0.0068759
0.00687592
0.00687596
0.00687603
0.0068761
0.0068762
0.00687629
0.00687637
0.0068763
0.00687542
0.00687078
0.00685019
0.00677092
0.00650692
0.00573242
0.00329894
0.0034933
0.0065071
0.00751856
0.00788994
0.00801088
0.00804507
0.00805354
0.00805539
0.00805572
0.0080557
0.00805562
0.0080556
0.00805562
0.00805566
0.0080557
0.00805572
0.00805573
0.00805573
0.00805574
0.00805574
0.00805573
0.00805572
0.00805568
0.00805565
0.00805562
0.00805558
0.00805531
0.00805355
0.00804515
0.00801099
0.00789006
0.00751867
0.0065072
0.00349338
0.00355476
0.00677121
0.00789006
0.00831728
0.0084623
0.00850508
0.00851609
0.0085185
0.00851869
0.00851823
0.00851774
0.00851764
0.00851779
0.00851801
0.0085182
0.00851829
0.00851834
0.00851836
0.00851836
0.00851835
0.00851831
0.00851823
0.00851804
0.00851783
0.00851767
0.00851769
0.00851769
0.00851574
0.00850509
0.00846249
0.00831752
0.00789029
0.00677139
0.00355489
0.00357096
0.00685052
0.00801106
0.00846237
0.00861857
0.00866549
0.00867758
0.00867959
0.00867824
0.00867531
0.00867256
0.00867188
0.00867229
0.00867293
0.00867341
0.00867354
0.00867353
0.00867351
0.00867352
0.00867354
0.00867357
0.00867345
0.00867298
0.00867235
0.00867193
0.00867251
0.00867469
0.00867487
0.00866453
0.00861848
0.0084626
0.00801135
0.00685076
0.00357113
0.00357467
0.00687113
0.00804525
0.00850515
0.00866551
0.00871377
0.00872528
0.00872436
0.00871646
0.00870344
0.00869169
0.00868974
0.00869191
0.00869427
0.00869572
0.00869581
0.00869551
0.00869533
0.00869534
0.00869553
0.00869584
0.00869577
0.00869433
0.00869198
0.00868981
0.00869164
0.00870279
0.00871294
0.00870863
0.008664
0.00850502
0.00804549
0.00687137
0.00357487
0.00357544
0.00687578
0.0080537
0.00851615
0.00867758
0.00872529
0.00873325
0.0087221
0.00869171
0.00864315
0.0086002
0.00859992
0.00861251
0.00862229
0.00862731
0.00862742
0.00862644
0.00862589
0.0086259
0.00862646
0.00862746
0.00862736
0.00862236
0.00861259
0.0086
0.00860016
0.0086425
0.00868814
0.00870616
0.00867126
0.00851465
0.00805362
0.00687596
0.00357566
0.00357559
0.00687665
0.00805551
0.00851853
0.00867961
0.00872453
0.0087225
0.00868272
0.00858664
0.00842774
0.00828492
0.00831609
0.0083769
0.00841373
0.00842981
0.0084311
0.00842934
0.00842835
0.00842836
0.00842937
0.00843114
0.00842987
0.00841382
0.00837701
0.00831619
0.00828489
0.0084271
0.00858308
0.00866675
0.00866034
0.00851337
0.00805455
0.00687665
0.00357582
0.00357562
0.00687671
0.00805578
0.00851871
0.00867845
0.00871739
0.00869413
0.00859035
0.00833441
0.00786715
0.00739467
0.00763142
0.00787609
0.00799334
0.00803579
0.00804318
0.00804258
0.0080418
0.00804181
0.0080426
0.00804323
0.00803586
0.00799345
0.00787624
0.00763159
0.00739464
0.00786653
0.00833088
0.00857439
0.00863192
0.00850606
0.00805302
0.0068763
0.00357583
0.00357562
0.0068766
0.00805571
0.00851834
0.00867616
0.0087067
0.00865199
0.00844502
0.00788795
0.00661935
0.00443359
0.00622274
0.00707108
0.00737111
0.00745726
0.00748136
0.00748622
0.00748687
0.00748688
0.00748624
0.0074814
0.00745733
0.00737124
0.00707132
0.00622309
0.00443346
0.00661876
0.00788443
0.00842904
0.0085897
0.0084952
0.00805046
0.0068756
0.00357577
0.0035756
0.00687643
0.00805562
0.00851814
0.00867489
0.00870027
0.0086245
0.00833823
0.00747948
0.00449617
0.00417634
0.00636297
0.00686934
0.00700087
0.0070275
0.00703127
0.0070315
0.0070315
0.00703128
0.00702752
0.00700092
0.00686947
0.00636327
0.00417658
0.00449576
0.00747588
0.00832214
0.00856207
0.00848856
0.00804888
0.00687501
0.00357571
0.00357557
0.00687626
0.00805562
0.00851852
0.00867654
0.0087071
0.0086518
0.00844252
0.00787902
0.00659456
0.00440431
0.00611189
0.006939
0.00723182
0.00732555
0.0073294
0.00732452
0.00732235
0.00732233
0.00732447
0.00732933
0.00732546
0.00723173
0.00693893
0.00611171
0.00440382
0.00659344
0.00787524
0.00842637
0.00858929
0.0084952
0.00805019
0.00687491
0.00357569
0.00357553
0.00687612
0.00805567
0.00851914
0.00867928
0.00871823
0.00869366
0.00858469
0.00831372
0.00780994
0.00726326
0.00737799
0.00750228
0.00756167
0.00758369
0.00758078
0.00757643
0.00757457
0.00757456
0.00757639
0.00758071
0.00758358
0.00756152
0.00750206
0.00737765
0.00726273
0.00780891
0.00830992
0.00856851
0.00863107
0.00850615
0.00805261
0.00687511
0.00357567
0.00357548
0.00687598
0.00805571
0.00851963
0.00868136
0.00872629
0.00872229
0.0086745
0.00855465
0.0083379
0.00807935
0.00793101
0.00779856
0.0077388
0.00771922
0.00771106
0.00770754
0.00770629
0.00770629
0.00770751
0.007711
0.00771914
0.00773866
0.00779836
0.00793078
0.00807898
0.00833697
0.00855088
0.00865828
0.0086596
0.00851403
0.00805441
0.00687523
0.00357563
0.00357544
0.00687588
0.00805573
0.00851991
0.00868248
0.00873035
0.00873595
0.00871486
0.00865463
0.00853368
0.00834881
0.00813328
0.00791529
0.00780959
0.00777314
0.00776211
0.00775884
0.00775793
0.00775793
0.00775882
0.00776207
0.00777307
0.00780947
0.0079151
0.0081331
0.00834852
0.00853283
0.00865088
0.00869861
0.00867319
0.00851796
0.00805532
0.00687525
0.00357558
0.00357539
0.0068758
0.00805573
0.00852006
0.00868299
0.00873201
0.00874115
0.00872938
0.00868859
0.00859592
0.00842953
0.00819602
0.0079526
0.00783237
0.00779046
0.00777838
0.00777519
0.00777442
0.00777441
0.00777518
0.00777835
0.0077904
0.00783226
0.00795243
0.00819586
0.00842929
0.0085951
0.00868486
0.00871312
0.00867835
0.00851953
0.00805568
0.00687521
0.00357552
0.00357536
0.00687574
0.00805573
0.00852014
0.00868321
0.00873262
0.00874285
0.00873384
0.00869846
0.00861309
0.00845089
0.00821278
0.00796276
0.00783865
0.00779526
0.00778289
0.00777973
0.00777899
0.00777898
0.00777971
0.00778286
0.00779521
0.00783854
0.0079626
0.00821263
0.00845066
0.00861229
0.00869473
0.00871758
0.00868003
0.00852009
0.00805581
0.00687517
0.00357546
0.00357533
0.00687571
0.00805573
0.00852018
0.0086833
0.00873282
0.00874335
0.00873502
0.00870092
0.00861717
0.00845577
0.00821662
0.00796516
0.00784017
0.00779643
0.00778399
0.00778084
0.0077801
0.00778009
0.00778082
0.00778397
0.00779638
0.00784006
0.007965
0.00821648
0.00845555
0.00861637
0.0086972
0.00871876
0.00868053
0.00852027
0.00805586
0.00687514
0.00357542
0.00357531
0.0068757
0.00805574
0.00852019
0.00868333
0.00873286
0.0087434
0.00873508
0.00870099
0.00861725
0.00845585
0.0082167
0.00796524
0.00784023
0.00779647
0.00778402
0.00778086
0.00778011
0.00778011
0.00778084
0.007784
0.00779642
0.00784013
0.0079651
0.00821657
0.00845564
0.00861646
0.00869728
0.00871883
0.00868058
0.00852031
0.00805587
0.00687513
0.0035754
0.00357532
0.00687572
0.00805575
0.00852019
0.00868329
0.00873273
0.00874299
0.00873401
0.00869868
0.00861335
0.00845116
0.00821304
0.00796305
0.00783886
0.00779541
0.00778301
0.00777983
0.00777907
0.00777907
0.00777981
0.00778299
0.00779537
0.00783877
0.00796291
0.00821292
0.00845096
0.00861258
0.00869498
0.00871778
0.00868019
0.00852019
0.00805586
0.00687515
0.00357541
0.00357534
0.00687577
0.00805577
0.00852015
0.00868313
0.0087322
0.00874139
0.00872969
0.00868899
0.00859641
0.00843009
0.00819657
0.00795319
0.00783285
0.00779084
0.00777872
0.00777551
0.00777472
0.00777472
0.00777551
0.00777871
0.00779081
0.00783278
0.00795308
0.00819648
0.00842991
0.00859566
0.00868532
0.00871349
0.00867862
0.00851971
0.00805576
0.00687519
0.00357544
0.00357537
0.00687584
0.00805578
0.00852004
0.00868268
0.00873062
0.0087363
0.00871533
0.00865529
0.00853456
0.00834989
0.00813438
0.00791642
0.00781056
0.007774
0.00776294
0.00775968
0.00775877
0.00775877
0.00775969
0.00776296
0.00777401
0.00781055
0.00791637
0.00813434
0.00834976
0.00853385
0.00865165
0.00869917
0.00867359
0.00851822
0.00805543
0.00687522
0.00357548
0.00357541
0.00687594
0.00805578
0.00851979
0.00868162
0.00872664
0.00872277
0.00867518
0.00855568
0.00833945
0.00808144
0.00793305
0.00780054
0.00774056
0.0077209
0.00771277
0.00770931
0.00770811
0.00770812
0.00770935
0.00771284
0.00772099
0.00774065
0.00780062
0.00793315
0.00808141
0.0083388
0.0085521
0.00865909
0.00866015
0.00851438
0.00805456
0.00687519
0.00357553
0.00357545
0.00687607
0.00805575
0.00851934
0.0086796
0.00871867
0.00869427
0.0085856
0.00831519
0.00781243
0.00726708
0.00738157
0.00750491
0.00756394
0.00758591
0.00758314
0.00757893
0.00757716
0.00757719
0.00757902
0.00758327
0.00758607
0.0075641
0.00750512
0.00738191
0.00726719
0.00781188
0.00831167
0.00856958
0.00863177
0.00850659
0.0080528
0.00687505
0.00357556
0.00357549
0.0068762
0.0080557
0.00851875
0.00867691
0.00870761
0.0086525
0.00844354
0.00788067
0.00659767
0.00440762
0.00611443
0.00693892
0.00723086
0.00732423
0.00732811
0.00732333
0.00732126
0.00732129
0.00732341
0.00732818
0.0073242
0.00723056
0.00693845
0.00611479
0.00440756
0.0065972
0.0078771
0.0084275
0.00859006
0.00849569
0.00805039
0.00687483
0.00357558
0.00357552
0.00687633
0.00805565
0.00851832
0.00867521
0.00870074
0.00862512
0.00833899
0.00748024
0.00449597
0.00416869
0.0063465
0.00684706
0.00697468
0.00700011
0.00700364
0.00700383
0.0070038
0.00700348
0.00699956
0.00697302
0.00684308
0.00633976
0.004164
0.00449456
0.00747599
0.00832265
0.00856265
0.00848898
0.00804902
0.00687485
0.0035756
0.00357552
0.0068763
0.0080554
0.00851806
0.00867597
0.00870663
0.00865203
0.00844501
0.00788744
0.00661739
0.00442816
0.00618734
0.00700944
0.00727929
0.00734723
0.00736683
0.0073713
0.00737202
0.00737191
0.00737077
0.00736485
0.00734072
0.00726225
0.00697774
0.00615753
0.00441675
0.00660943
0.00788039
0.00842772
0.0085894
0.00849508
0.00805023
0.0068752
0.00357564
0.0035754
0.00687549
0.00805369
0.00851605
0.00867556
0.00871448
0.00869116
0.00858676
0.00832827
0.00785279
0.00735675
0.0075409
0.00770656
0.00773349
0.007726
0.00772165
0.00772012
0.00771961
0.00771941
0.00771897
0.00771695
0.00770948
0.00768699
0.00761499
0.00745466
0.00730271
0.00782642
0.00831435
0.00856731
0.00862815
0.00850339
0.00805096
0.00687493
0.00357557
0.00357466
0.00687089
0.00804536
0.00850541
0.00866505
0.00870942
0.00870701
0.00866588
0.00856468
0.00838964
0.008204
0.00814442
0.00805904
0.00792915
0.00786254
0.00783982
0.00783364
0.00783218
0.00783189
0.00783192
0.00783246
0.00783536
0.00784821
0.00789095
0.00799222
0.00810876
0.00834331
0.00854315
0.0086442
0.00864405
0.00850006
0.00804439
0.00687071
0.00357486
0.00357097
0.00685033
0.00801123
0.00846285
0.00861898
0.00866462
0.00867166
0.00865879
0.00862239
0.00855516
0.00846384
0.00836238
0.00821225
0.00804001
0.00795598
0.00792763
0.00791997
0.00791822
0.0079179
0.00791811
0.00791956
0.00792621
0.00795164
0.00802967
0.00819681
0.00835973
0.00850417
0.00859924
0.00863726
0.00861076
0.00846112
0.00801114
0.00685034
0.00357117
0.00355479
0.00677106
0.00789028
0.00831785
0.00846307
0.00850561
0.00851512
0.00851256
0.00849997
0.00847268
0.00842452
0.0083476
0.00823185
0.00810717
0.00804224
0.0080188
0.00801206
0.00801042
0.00801012
0.0080104
0.00801197
0.00801847
0.00804119
0.00810483
0.00822879
0.00834838
0.00843493
0.00848238
0.0084944
0.00846023
0.00831759
0.0078905
0.00677111
0.00355497
0.00349335
0.006507
0.00751882
0.00789053
0.00801171
0.00804599
0.00805415
0.00805453
0.00805045
0.00803967
0.00801701
0.00797554
0.00791234
0.00784506
0.00780748
0.00779281
0.00778824
0.00778703
0.00778681
0.00778707
0.0077883
0.00779284
0.00780738
0.00784473
0.00791194
0.00797608
0.00801933
0.00804051
0.00804186
0.00801099
0.00789073
0.00751906
0.00650701
0.0034935
0.00329897
0.0057324
0.00650722
0.00677149
0.00685095
0.00687169
0.00687637
0.00687695
0.00687578
0.00687211
0.00686362
0.00684703
0.00682126
0.00679338
0.00677696
0.00677006
0.00676769
0.00676697
0.00676684
0.00676705
0.00676784
0.00677027
0.00677719
0.00679361
0.00682151
0.00684747
0.00686423
0.00687176
0.00687048
0.0068509
0.00677169
0.00650735
0.00573234
0.00329908
0.00285471
0.00329898
0.00349344
0.00355499
0.00357129
0.0035751
0.00357599
0.00357625
0.0035763
0.00357602
0.00357505
0.00357277
0.00356886
0.00356436
0.00356169
0.00356053
0.00356009
0.00355992
0.00355987
0.00355993
0.00356011
0.00356056
0.00356171
0.00356436
0.00356884
0.00357275
0.00357503
0.00357586
0.00357536
0.00357162
0.00355528
0.00349364
0.00329909
0.00285481
0.00303728
0.00368615
0.0039878
0.00409062
0.00412004
0.00412732
0.00412891
0.00412922
0.00412928
0.00412927
0.00412926
0.00412923
0.00412921
0.00412918
0.00412916
0.00412914
0.00412912
0.00412911
0.00412911
0.00412912
0.00412913
0.00412915
0.00412917
0.0041292
0.00412922
0.00412924
0.0041292
0.0041289
0.00412731
0.00412004
0.00409062
0.0039878
0.00368616
0.00303731
0.00368614
0.00682635
0.00785297
0.00822683
0.00834795
0.00838198
0.00839029
0.00839202
0.00839224
0.00839212
0.0083919
0.00839167
0.00839145
0.00839127
0.00839112
0.00839099
0.00839091
0.00839086
0.00839086
0.0083909
0.00839099
0.00839111
0.00839125
0.00839143
0.00839163
0.0083918
0.00839165
0.00839
0.00838175
0.00834776
0.00822666
0.00785282
0.00682623
0.00368616
0.00398786
0.00785316
0.00917013
0.00968241
0.00986135
0.00991575
0.00993017
0.00993347
0.00993397
0.00993377
0.00993343
0.00993316
0.009933
0.00993292
0.00993287
0.00993281
0.00993276
0.00993274
0.00993274
0.00993277
0.00993282
0.00993287
0.00993292
0.009933
0.00993314
0.00993327
0.00993291
0.00992984
0.00991559
0.00986129
0.0096824
0.00917013
0.00785316
0.00398791
0.00409074
0.00822714
0.00968256
0.0102695
0.0104828
0.0105503
0.0105689
0.010573
0.0105731
0.010572
0.0105706
0.0105698
0.0105695
0.0105695
0.0105696
0.0105696
0.0105695
0.0105694
0.0105694
0.0105695
0.0105696
0.0105696
0.0105695
0.0105696
0.0105698
0.0105704
0.0105708
0.0105676
0.0105498
0.0104827
0.0102696
0.00968268
0.00822724
0.00409085
0.0041202
0.00834832
0.00986158
0.0104829
0.0107129
0.0107871
0.0108074
0.0108107
0.0108079
0.0108023
0.0107965
0.0107936
0.0107927
0.0107928
0.0107931
0.0107929
0.0107926
0.0107925
0.0107925
0.0107926
0.0107929
0.0107931
0.0107929
0.0107928
0.0107936
0.0107963
0.0108009
0.0108016
0.0107845
0.0107122
0.0104828
0.00986172
0.00834847
0.00412035
0.0041275
0.00838236
0.009916
0.0105504
0.0107871
0.0108634
0.0108826
0.0108807
0.0108669
0.0108446
0.0108233
0.0108145
0.0108129
0.010814
0.0108152
0.0108144
0.0108133
0.0108127
0.0108127
0.0108133
0.0108145
0.0108152
0.010814
0.0108129
0.0108145
0.0108231
0.0108432
0.0108602
0.0108533
0.0107835
0.0105495
0.00991595
0.00838247
0.00412767
0.0041291
0.00839065
0.00993041
0.010569
0.0108074
0.0108827
0.0108956
0.0108769
0.0108282
0.0107525
0.0106822
0.0106631
0.0106659
0.0106731
0.0106783
0.0106763
0.0106733
0.0106718
0.0106718
0.0106733
0.0106763
0.0106784
0.0106732
0.010666
0.0106631
0.010682
0.0107511
0.0108214
0.0108491
0.0107952
0.0105654
0.00992965
0.00839059
0.00412927
0.00412941
0.00839234
0.00993367
0.0105732
0.0108109
0.0108813
0.010878
0.0108157
0.0106723
0.010444
0.0102324
0.010219
0.0102585
0.0102911
0.0103092
0.010306
0.0103002
0.0102975
0.0102975
0.0103002
0.010306
0.0103092
0.0102912
0.0102586
0.0102191
0.0102322
0.0104426
0.0106654
0.0107877
0.0107772
0.010563
0.00993116
0.00839184
0.00412955
0.00412945
0.0083925
0.00993414
0.0105734
0.0108088
0.0108694
0.0108339
0.0106805
0.0103223
0.00969622
0.00905594
0.00921284
0.0094269
0.00954052
0.00958633
0.00958942
0.00958441
0.00958181
0.00958181
0.00958442
0.00958945
0.00958638
0.0095406
0.00942701
0.00921295
0.00905573
0.00969481
0.0103154
0.0106525
0.0107329
0.0105507
0.00992833
0.00839118
0.0041295
0.00412942
0.00839231
0.00993397
0.0105726
0.0108048
0.0108525
0.0107721
0.0104811
0.0097412
0.00811691
0.00526348
0.00723197
0.0081111
0.00841656
0.00848814
0.00853117
0.00854001
0.00854087
0.00854088
0.00854002
0.0085312
0.00848818
0.00841666
0.00811131
0.00723228
0.00526321
0.00811554
0.0097343
0.0104529
0.0106709
0.0105335
0.00992387
0.00838989
0.00412932
0.00412937
0.00839205
0.00993376
0.0105721
0.0108025
0.0108428
0.0107341
0.0103439
0.00923877
0.00542613
0.0045733
0.00682588
0.00734169
0.00748128
0.00750247
0.00750351
0.00750302
0.00750303
0.00750353
0.0075025
0.00748134
0.00734183
0.00682619
0.00457355
0.00542506
0.00923171
0.0103154
0.0106325
0.0105233
0.00992116
0.00838887
0.00412916
0.00412932
0.00839179
0.00993371
0.0105726
0.0108049
0.0108523
0.0107703
0.0104741
0.00972123
0.00806752