/*--------------------------------*- C++ -*----------------------------------*\
| =========                 |                                                 |
| \\      /  F ield         | OpenFOAM: The Open Source CFD Toolbox           |
|  \\    /   O peration     | Version:  2112                                  |
|   \\  /    A nd           | Website:  www.openfoam.com                      |
|    \\/     M anipulation  |                                                 |
\*---------------------------------------------------------------------------*/
FoamFile
{
    version     2.0;
    format      ascii;
    arch        "LSB;label=32;scalar=64";
    class       volScalarField;
    location    "1.3";
    object      nut;
}
// * * * * * * * * * * * * * * * * * * * * * * * * * * * * * * * * * * * * * //

dimensions      [0 2 -1 0 0 0 0];

internalField   nonuniform List<scalar> 
64906
(
0.000105538
0.000108236
0.000109394
0.000109736
0.00010982
0.000109838
0.000109842
0.000109844
0.000109845
0.000109846
0.000109846
0.000109847
0.000109847
0.000109848
0.000109848
0.000109848
0.000109847
0.000109847
0.000109847
0.000109847
0.000109847
0.000109847
0.000109847
0.000109847
0.000109847
0.000109846
0.000109845
0.000109844
0.00010984
0.000109821
0.000109737
0.000109395
0.000108237
0.000105539
0.000108236
0.000125621
0.000131989
0.000134026
0.000134603
0.000134747
0.000134779
0.000134787
0.000134789
0.000134791
0.000134793
0.000134794
0.000134795
0.000134796
0.000134797
0.000134798
0.000134798
0.000134799
0.000134799
0.000134798
0.000134798
0.000134797
0.000134797
0.000134796
0.000134794
0.000134793
0.00013479
0.000134783
0.00013475
0.000134607
0.000134029
0.000131992
0.000125623
0.000108238
0.000109396
0.00013199
0.000140629
0.000143612
0.000144536
0.000144788
0.000144849
0.000144864
0.000144869
0.000144872
0.000144875
0.000144879
0.000144882
0.000144886
0.000144889
0.000144891
0.000144892
0.000144893
0.000144893
0.000144892
0.000144891
0.000144889
0.000144886
0.000144883
0.00014488
0.000144876
0.000144871
0.000144856
0.000144794
0.000144542
0.000143618
0.000140634
0.000131995
0.000109399
0.000109739
0.000134029
0.000143614
0.000147065
0.000148183
0.000148502
0.000148583
0.000148603
0.000148608
0.00014861
0.000148611
0.000148617
0.000148623
0.000148629
0.000148635
0.000148638
0.000148641
0.000148642
0.000148642
0.000148641
0.000148639
0.000148635
0.00014863
0.000148624
0.000148618
0.000148612
0.000148607
0.000148589
0.000148509
0.000148191
0.000147073
0.000143621
0.000134035
0.000109743
0.000109823
0.000134607
0.000144539
0.000148184
0.00014939
0.000149742
0.000149832
0.00014985
0.000149845
0.000149831
0.000149819
0.000149824
0.000149835
0.000149847
0.000149856
0.000149862
0.000149864
0.000149866
0.000149866
0.000149865
0.000149862
0.000149857
0.000149848
0.000149837
0.000149825
0.000149819
0.000149828
0.000149824
0.000149744
0.000149398
0.000148193
0.000144547
0.000134615
0.000109828
0.000109842
0.000134751
0.00014479
0.000148503
0.000149742
0.000150104
0.000150191
0.000150189
0.000150139
0.000150051
0.000149974
0.000149979
0.000150011
0.00015004
0.000150059
0.000150066
0.000150068
0.000150069
0.000150069
0.000150068
0.000150067
0.00015006
0.000150041
0.000150012
0.00014998
0.000149975
0.000150048
0.000150116
0.000150079
0.000149741
0.000148511
0.0001448
0.00013476
0.000109847
0.000109846
0.000134783
0.000144852
0.000148584
0.000149832
0.000150191
0.000150254
0.000150178
0.00014996
0.000149598
0.000149277
0.000149322
0.000149452
0.000149547
0.000149599
0.000149608
0.000149606
0.000149605
0.000149606
0.000149607
0.000149609
0.000149601
0.000149549
0.000149454
0.000149324
0.000149278
0.000149595
0.000149937
0.000150067
0.000149799
0.000148584
0.00014486
0.000134793
0.000109852
0.000109847
0.00013479
0.000144866
0.000148603
0.000149849
0.000150189
0.00015018
0.000149889
0.000149155
0.000147891
0.00014671
0.000147127
0.000147702
0.000148031
0.000148178
0.000148198
0.000148191
0.000148187
0.000148187
0.000148191
0.000148199
0.00014818
0.000148033
0.000147704
0.000147129
0.000146711
0.000147888
0.000149133
0.000149778
0.000149725
0.00014858
0.00014487
0.0001348
0.000109854
0.000109848
0.000134792
0.00014487
0.000148607
0.000149844
0.000150142
0.000149972
0.000149178
0.000147127
0.000143161
0.000138853
0.000141525
0.000143839
0.000144876
0.00014525
0.000145314
0.000145316
0.000145315
0.000145315
0.000145317
0.000145316
0.000145252
0.000144878
0.000143842
0.000141528
0.000138854
0.000143159
0.000147105
0.000149068
0.000149518
0.000148532
0.000144864
0.0001348
0.000109856
0.000109849
0.000134792
0.000144871
0.000148608
0.000149832
0.000150067
0.000149651
0.000148002
0.000143296
0.000131971
0.000115738
0.000129389
0.000137391
0.000140089
0.000140848
0.000141033
0.000141073
0.000141081
0.000141081
0.000141073
0.000141034
0.00014085
0.000140092
0.000137395
0.000129394
0.000115737
0.000131969
0.000143275
0.000147893
0.000149196
0.000148456
0.00014485
0.000134798
0.000109856
0.000109849
0.000134792
0.000144873
0.000148609
0.000149827
0.000150023
0.000149433
0.000147068
0.000139406
0.000116043
0.000114381
0.000131451
0.000136129
0.000137257
0.000137489
0.000137528
0.000137533
0.000137534
0.000137528
0.00013749
0.000137258
0.000136131
0.000131455
0.000114384
0.000116043
0.000139385
0.000146958
0.000148978
0.000148412
0.000144842
0.000134797
0.000109857
0.000109849
0.000134792
0.000144875
0.000148615
0.000149844
0.000150084
0.00014967
0.000148011
0.000143259
0.000131805
0.000115582
0.000128463
0.00013625
0.000138838
0.000139549
0.000139658
0.00013965
0.00013964
0.00013964
0.000139649
0.000139657
0.000139548
0.000138838
0.00013625
0.000128461
0.000115577
0.000131796
0.000143234
0.000147899
0.000149214
0.00014847
0.000144857
0.000134798
0.000109857
0.000109848
0.000134792
0.000144877
0.000148623
0.000149869
0.000150174
0.000150007
0.000149188
0.000147038
0.000142808
0.000137961
0.00013961
0.000140948
0.000141497
0.00014166
0.000141659
0.000141634
0.000141622
0.000141621
0.000141634
0.000141658
0.000141658
0.000141495
0.000140946
0.000139606
0.000137953
0.000142799
0.000147012
0.000149075
0.000149549
0.000148558
0.000144877
0.000134801
0.000109857
0.000109848
0.000134792
0.000144879
0.000148629
0.000149887
0.000150238
0.000150231
0.000149903
0.000149019
0.000147348
0.0001453
0.000144272
0.000143318
0.000142883
0.00014273
0.000142666
0.000142635
0.000142623
0.000142623
0.000142634
0.000142664
0.000142729
0.000142881
0.000143315
0.000144268
0.000145294
0.00014734
0.000148993
0.000149789
0.000149771
0.00014862
0.000144893
0.000134803
0.000109856
0.000109847
0.000134791
0.00014488
0.000148633
0.000149898
0.000150271
0.000150336
0.000150216
0.00014981
0.000148942
0.000147558
0.000145907
0.000144218
0.000143418
0.000143136
0.000143042
0.000143007
0.000142994
0.000142994
0.000143006
0.000143041
0.000143134
0.000143416
0.000144215
0.000145901
0.000147553
0.000148935
0.000149784
0.000150101
0.000149876
0.000148652
0.000144901
0.000134803
0.000109855
0.000109846
0.000134791
0.000144881
0.000148635
0.000149903
0.000150286
0.000150378
0.000150328
0.000150073
0.000149433
0.000148204
0.0001464
0.000144498
0.000143586
0.000143262
0.000143157
0.000143119
0.000143104
0.000143103
0.000143118
0.000143155
0.00014326
0.000143584
0.000144495
0.000146395
0.000148199
0.000149426
0.000150048
0.000150213
0.000149917
0.000148666
0.000144905
0.000134803
0.000109853
0.000109845
0.00013479
0.000144882
0.000148637
0.000149906
0.000150292
0.000150392
0.000150363
0.00015015
0.000149567
0.000148372
0.000146533
0.000144574
0.000143633
0.000143297
0.000143187
0.000143147
0.000143129
0.000143129
0.000143145
0.000143185
0.000143295
0.00014363
0.000144571
0.000146528
0.000148367
0.00014956
0.000150125
0.000150249
0.000149932
0.000148671
0.000144907
0.000134803
0.000109852
0.000109844
0.00013479
0.000144882
0.000148638
0.000149908
0.000150295
0.000150397
0.000150374
0.000150171
0.0001496
0.000148411
0.000146565
0.000144593
0.000143644
0.000143305
0.000143194
0.000143152
0.000143132
0.000143131
0.00014315
0.000143192
0.000143303
0.000143642
0.00014459
0.00014656
0.000148407
0.000149593
0.000150145
0.000150259
0.000149937
0.000148674
0.000144909
0.000134803
0.00010985
0.000109844
0.00013479
0.000144882
0.000148638
0.000149909
0.000150296
0.000150398
0.000150375
0.000150172
0.000149602
0.000148413
0.000146567
0.000144594
0.000143645
0.000143306
0.000143194
0.000143151
0.00014313
0.000143129
0.000143149
0.000143192
0.000143303
0.000143642
0.000144591
0.000146562
0.000148409
0.000149595
0.000150147
0.000150261
0.000149938
0.000148675
0.000144909
0.000134803
0.000109849
0.000109844
0.00013479
0.000144882
0.000148638
0.000149908
0.000150295
0.000150395
0.000150367
0.000150155
0.000149573
0.000148378
0.00014654
0.000144578
0.000143635
0.000143298
0.000143187
0.000143144
0.000143123
0.000143122
0.000143142
0.000143184
0.000143295
0.000143632
0.000144575
0.000146535
0.000148374
0.000149567
0.00015013
0.000150253
0.000149935
0.000148674
0.000144909
0.000134803
0.000109849
0.000109844
0.00013479
0.000144882
0.000148637
0.000149906
0.00015029
0.000150383
0.000150334
0.000150082
0.000149444
0.000148216
0.000146413
0.000144506
0.000143591
0.000143265
0.000143157
0.000143115
0.000143096
0.000143095
0.000143113
0.000143154
0.000143262
0.000143589
0.000144503
0.000146409
0.000148213
0.000149438
0.000150057
0.000150221
0.000149923
0.00014867
0.000144908
0.000134804
0.000109851
0.000109845
0.000134791
0.000144882
0.000148636
0.000149902
0.000150277
0.000150344
0.000150225
0.000149823
0.00014896
0.000147579
0.000145929
0.000144231
0.000143427
0.000143141
0.000143043
0.000143005
0.000142988
0.000142987
0.000143003
0.000143041
0.000143139
0.000143425
0.000144228
0.000145925
0.000147577
0.000148955
0.000149799
0.000150112
0.000149885
0.000148658
0.000144905
0.000134804
0.000109852
0.000109846
0.000134792
0.000144881
0.000148632
0.000149892
0.000150246
0.00015024
0.000149916
0.000149038
0.000147375
0.000145336
0.000144309
0.000143339
0.000142897
0.00014274
0.000142671
0.000142636
0.000142621
0.000142621
0.000142635
0.000142669
0.000142738
0.000142896
0.000143337
0.000144308
0.000145336
0.000147371
0.000149015
0.000149804
0.000149783
0.000148628
0.000144898
0.000134804
0.000109853
0.000109847
0.000134792
0.00014488
0.000148627
0.000149875
0.000150183
0.000150019
0.000149205
0.000147063
0.000142848
0.000138021
0.000139655
0.000140974
0.000141513
0.00014167
0.000141666
0.000141638
0.000141623
0.000141623
0.000141637
0.000141664
0.000141669
0.000141512
0.000140974
0.000139658
0.000138023
0.000142847
0.000147042
0.000149095
0.000149563
0.000148568
0.000144883
0.000134802
0.000109854
0.000109847
0.000134793
0.000144878
0.000148621
0.000149852
0.000150095
0.000149684
0.000148031
0.000143289
0.000131856
0.00011562
0.000128494
0.000136247
0.000138825
0.000139528
0.000139633
0.000139622
0.000139611
0.00013961
0.000139621
0.000139631
0.000139525
0.00013882
0.000136243
0.000128499
0.000115618
0.000131858
0.00014327
0.000147922
0.00014923
0.000148482
0.000144864
0.0001348
0.000109855
0.000109848
0.000134793
0.000144876
0.000148615
0.000149835
0.000150034
0.000149447
0.000147085
0.000139424
0.00011605
0.000114319
0.000131313
0.000135952
0.00013705
0.000137268
0.0001373
0.000137303
0.000137302
0.000137297
0.000137261
0.000137034
0.00013592
0.000131263
0.000114287
0.000116043
0.000139401
0.000146976
0.000148995
0.000148424
0.00014485
0.000134799
0.000109855
0.000109847
0.000134793
0.000144873
0.000148611
0.000149838
0.000150076
0.000149664
0.00014802
0.000143315
0.000131991
0.000115748
0.000129149
0.000136948
0.000139402
0.000140011
0.000140149
0.000140177
0.000140182
0.000140181
0.000140171
0.00014013
0.000139956
0.000139266
0.000136701
0.000128944
0.000115691
0.000131948
0.000143275
0.000147905
0.000149211
0.000148468
0.000144857
0.0001348
0.000109855
0.000109847
0.000134787
0.00014486
0.000148595
0.000149833
0.000150133
0.000149968
0.000149175
0.000147113
0.000143099
0.000138642
0.000140912
0.000142616
0.00014292
0.000142892
0.000142853
0.000142839
0.000142835
0.000142833
0.000142829
0.000142813
0.000142758
0.000142555
0.000141892
0.000140274
0.000138269
0.000142922
0.000147023
0.000149045
0.000149512
0.000148528
0.00014486
0.000134797
0.000109854
0.000109843
0.000134755
0.0001448
0.000148517
0.000149755
0.000150095
0.000150087
0.000149793
0.000149032
0.000147661
0.000146177
0.000145905
0.000145329
0.000144303
0.000143804
0.000143635
0.000143588
0.000143577
0.000143574
0.000143575
0.000143579
0.000143602
0.000143691
0.000143989
0.000144725
0.000145469
0.00014733
0.000148887
0.000149648
0.000149632
0.000148502
0.000144811
0.000134768
0.00010985
0.000109825
0.000134612
0.000144549
0.0001482
0.00014941
0.000149758
0.000149819
0.000149739
0.000149486
0.000149
0.000148332
0.000147612
0.000146467
0.000145106
0.000144476
0.000144269
0.000144214
0.000144201
0.000144199
0.0001442
0.00014421
0.000144257
0.000144442
0.000145022
0.000146324
0.000147551
0.000148634
0.00014933
0.000149595
0.000149379
0.000148209
0.000144565
0.000134625
0.000109832
0.000109741
0.000134035
0.000143626
0.000147082
0.000148206
0.000148528
0.000148606
0.0001486
0.000148525
0.000148347
0.000148016
0.000147471
0.000146608
0.000145641
0.000145151
0.00014498
0.000144934
0.000144924
0.000144923
0.000144923
0.000144931
0.000144974
0.000145139
0.000145616
0.000146574
0.000147461
0.000148084
0.000148411
0.000148481
0.000148211
0.0001471
0.000143643
0.000134048
0.000109747
0.000109398
0.000131997
0.000140641
0.00014363
0.000144559
0.000144816
0.000144882
0.000144895
0.000144881
0.000144821
0.00014468
0.000144402
0.000143956
0.000143463
0.000143195
0.000143094
0.000143066
0.00014306
0.000143059
0.000143059
0.000143064
0.000143091
0.00014319
0.000143456
0.000143947
0.000144398
0.00014469
0.000144822
0.000144816
0.000144577
0.00014365
0.000140657
0.000132008
0.000109404
0.000108239
0.000125628
0.000132001
0.000134043
0.000134625
0.000134774
0.000134812
0.000134824
0.000134827
0.000134816
0.000134774
0.000134678
0.000134516
0.000134333
0.000134228
0.000134185
0.000134172
0.000134169
0.000134168
0.000134169
0.000134172
0.000134185
0.000134227
0.000134332
0.000134514
0.000134676
0.000134774
0.00013481
0.000134789
0.000134644
0.00013406
0.000132014
0.000125637
0.000108244
0.000105541
0.00010824
0.000109401
0.000109746
0.000109833
0.000109855
0.000109863
0.000109868
0.000109874
0.000109879
0.000109881
0.000109876
0.000109862
0.000109843
0.00010983
0.000109823
0.000109819
0.000109816
0.000109815
0.000109816
0.000109819
0.000109823
0.00010983
0.000109842
0.00010986
0.000109873
0.000109878
0.000109876
0.000109867
0.000109844
0.000109756
0.000109409
0.000108246
0.000105544
0.000161778
0.000175091
0.000180902
0.000182828
0.000183371
0.000183505
0.000183534
0.00018354
0.000183541
0.000183542
0.000183542
0.000183542
0.000183542
0.000183542
0.000183541
0.000183541
0.000183541
0.00018354
0.00018354
0.000183541
0.000183541
0.000183541
0.000183541
0.000183541
0.000183542
0.000183541
0.00018354
0.000183534
0.000183505
0.000183372
0.000182829
0.000180903
0.000175092
0.000161779
0.000175091
0.000481892
0.000569421
0.000597933
0.000606679
0.000609045
0.000609602
0.000609713
0.000609724
0.000609713
0.000609695
0.000609676
0.000609658
0.000609642
0.000609629
0.000609618
0.000609611
0.000609607
0.000609607
0.000609611
0.000609618
0.000609629
0.000609642
0.000609657
0.000609674
0.000609689
0.000609684
0.00060958
0.000609027
0.000606664
0.000597919
0.000569409
0.000481883
0.000175092
0.000180904
0.00056944
0.000691416
0.000734342
0.000748587
0.000752768
0.000753843
0.000754083
0.000754121
0.000754111
0.000754092
0.00075408
0.000754074
0.000754073
0.000754072
0.000754071
0.000754069
0.000754068
0.000754068
0.000754069
0.000754072
0.000754074
0.000754074
0.000754076
0.00075408
0.000754084
0.000754054
0.000753828
0.000752764
0.000748588
0.000734345
0.000691418
0.000569441
0.000180906
0.000182831
0.000597962
0.000734355
0.000784465
0.00080182
0.000807135
0.000808555
0.000808869
0.000808884
0.000808808
0.000808726
0.000808693
0.000808693
0.000808708
0.000808723
0.000808727
0.000808726
0.000808726
0.000808726
0.000808727
0.000808729
0.000808725
0.000808711
0.000808697
0.000808694
0.000808715
0.000808729
0.00080848
0.000807113
0.000801825
0.000784479
0.000734367
0.00059797
0.000182835
0.000183376
0.000606711
0.000748605
0.000801827
0.000820643
0.000826514
0.000828078
0.000828335
0.000828138
0.000827731
0.000827341
0.000827203
0.00082721
0.000827264
0.00082731
0.000827311
0.000827297
0.00082729
0.00082729
0.000827299
0.000827313
0.000827314
0.000827269
0.000827216
0.000827206
0.000827329
0.000827639
0.000827675
0.000826348
0.000820601
0.000801832
0.000748621
0.000606723
0.000183381
0.000183509
0.000609076
0.000752787
0.000807143
0.000826515
0.000832567
0.000834051
0.000833915
0.000832865
0.000831164
0.000829602
0.000829222
0.00082936
0.000829593
0.000829756
0.00082973
0.000829664
0.00082963
0.00082963
0.000829666
0.000829733
0.000829761
0.000829598
0.000829366
0.000829227
0.00082959
0.000831067
0.000832377
0.000831832
0.000826271
0.000807092
0.000752791
0.000609086
0.000183515
0.000183539
0.00060963
0.000753859
0.000808561
0.000828079
0.000834054
0.000835065
0.000833608
0.000829732
0.000823623
0.000818075
0.000817776
0.000818927
0.000819961
0.000820574
0.000820478
0.000820281
0.000820185
0.000820186
0.000820283
0.000820482
0.000820579
0.000819968
0.000818934
0.000817782
0.000818065
0.000823526
0.000829237
0.000831495
0.000827186
0.000808317
0.000753816
0.000609629
0.000183545
0.000183545
0.000609736
0.000754095
0.000808872
0.000828342
0.000833945
0.000833669
0.000828635
0.000816722
0.00079701
0.000778081
0.00078259
0.000789142
0.000793168
0.000795178
0.000795009
0.000794611
0.000794432
0.000794432
0.000794613
0.000795013
0.000795183
0.000793175
0.000789151
0.000782598
0.000778072
0.000796917
0.000816231
0.000826519
0.000825765
0.000808136
0.000753927
0.000609707
0.000183551
0.000183546
0.000609741
0.000754128
0.00080889
0.000828178
0.000833008
0.000830075
0.000817221
0.00078573
0.000725956
0.000653823
0.000697685
0.000727966
0.000741208
0.000746454
0.00074659
0.000746188
0.00074601
0.000746011
0.000746189
0.000746593
0.00074646
0.000741216
0.000727978
0.000697701
0.000653818
0.00072587
0.000785248
0.000815112
0.000822169
0.00080718
0.000753718
0.000609657
0.000183551
0.000183546
0.000609724
0.000754115
0.000808835
0.000827869
0.000831638
0.000824832
0.000799234
0.000728357
0.00055012
0.000205949
0.000510628
0.000631159
0.000666857
0.000676941
0.000678856
0.000679118
0.00067913
0.000679131
0.000679119
0.000678858
0.000676946
0.000666867
0.000631181
0.00051067
0.000205945
0.000550049
0.000727887
0.00079713
0.000816922
0.000805795
0.000753381
0.000609562
0.000183549
0.000183545
0.000609701
0.0007541
0.0008088
0.000827694
0.000830814
0.000821335
0.000784757
0.000662741
0.000207733
0.000198774
0.00053752
0.00060454
0.000618792
0.000622002
0.000622579
0.000622647
0.000622647
0.00062258
0.000622003
0.000618795
0.000604551
0.000537554
0.000198781
0.000207716
0.000662282
0.000782648
0.000813412
0.000804948
0.000753172
0.000609483
0.000183546
0.000183544
0.000609677
0.000754097
0.000808842
0.000827893
0.000831649
0.000824746
0.000798822
0.000727106
0.000547038
0.000205004
0.000496893
0.000610576
0.000642537
0.00064928
0.00065265
0.000653236
0.000653229
0.000653228
0.000653231
0.000652643
0.00064927
0.000642525
0.000610568
0.000496882
0.000204989
0.000546905
0.000726606
0.000796699
0.000816811
0.000805761
0.000753331
0.000609466
0.000183546
0.000183543
0.000609657
0.000754101
0.000808918
0.000828237
0.000833039
0.00082989
0.000816283
0.000782733
0.000718174
0.000636898
0.00066273
0.000672736
0.000676895
0.000677861
0.000678423
0.00067839
0.000678299
0.000678297
0.000678386
0.000678415
0.00067785
0.000676878
0.000672712
0.000662694
0.000636842
0.000718044
0.000782222
0.000814148
0.00082194
0.000807127
0.000753637
0.000609487
0.000183546
0.000183541
0.000609639
0.000754105
0.000808979
0.000828504
0.000834068
0.000833461
0.000827241
0.000811952
0.000784174
0.000749168
0.00072761
0.000704095
0.000694997
0.000692218
0.000691459
0.000691188
0.000691092
0.000691091
0.000691186
0.000691454
0.00069221
0.000694982
0.000704074
0.000727592
0.00074913
0.000784054
0.00081144
0.000825098
0.000825498
0.000808132
0.000753869
0.000609501
0.000183545
0.00018354
0.000609625
0.000754106
0.000809013
0.000828649
0.000834597
0.000835207
0.000832261
0.000824086
0.000807699
0.00078201
0.000750472
0.000716527
0.000702359
0.000697891
0.000696667
0.000696344
0.000696265
0.000696265
0.000696343
0.000696665
0.000697886
0.000702347
0.000716509
0.000750463
0.000781984
0.000807586
0.000823575
0.000830112
0.000827233
0.000808644
0.000753988
0.000609503
0.000183544
0.000183539
0.000609615
0.000754105
0.00080903
0.000828714
0.000834814
0.000835886
0.000834114
0.000828298
0.000815221
0.000791598
0.000757608
0.000720622
0.000704821
0.000699772
0.00069841
0.000698083
0.000698018
0.000698018
0.000698083
0.000698409
0.000699768
0.000704812
0.000720606
0.000757602
0.000791576
0.000815111
0.000827787
0.000831963
0.000827905
0.00080885
0.000754035
0.000609497
0.000183542
0.000183538
0.000609608
0.000754104
0.000809037
0.000828739
0.000834892
0.00083611
0.000834694
0.000829552
0.000817343
0.000794164
0.000759555
0.000721778
0.00070553
0.000700316
0.000698921
0.000698599
0.000698541
0.000698541
0.000698599
0.000698921
0.000700314
0.000705521
0.000721763
0.000759551
0.000794143
0.000817235
0.000829042
0.000832542
0.000828126
0.000808922
0.000754051
0.000609492
0.00018354
0.000183537
0.000609604
0.000754103
0.000809041
0.000828749
0.000834917
0.000836174
0.000834848
0.000829869
0.000817855
0.00079476
0.000760009
0.000722059
0.000705706
0.000700454
0.000699052
0.000698733
0.000698679
0.00069868
0.000698734
0.000699052
0.000700452
0.000705698
0.000722045
0.000760004
0.00079474
0.000817748
0.00082936
0.000832697
0.00082819
0.000808944
0.000754056
0.000609488
0.000183539
0.000183536
0.000609603
0.000754104
0.000809043
0.000828752
0.00083492
0.000836179
0.000834854
0.000829875
0.000817862
0.000794766
0.000760015
0.000722069
0.000705713
0.000700459
0.000699056
0.000698737
0.000698685
0.000698685
0.000698739
0.000699057
0.000700457
0.000705705
0.000722055
0.00076001
0.000794747
0.000817755
0.000829367
0.000832703
0.000828194
0.000808947
0.000754057
0.000609487
0.000183539
0.000183536
0.000609606
0.000754105
0.000809042
0.000828747
0.000834902
0.000836123
0.00083471
0.000829571
0.000817364
0.000794185
0.000759575
0.00072181
0.000705553
0.000700334
0.000698937
0.000698616
0.000698561
0.000698562
0.000698618
0.000698938
0.000700333
0.000705547
0.000721798
0.000759572
0.000794166
0.000817259
0.000829064
0.000832561
0.000828141
0.000808931
0.000754055
0.000609489
0.000183539
0.000183537
0.000609611
0.000754107
0.000809038
0.000828726
0.000834831
0.000835908
0.000834142
0.000828334
0.000815264
0.000791644
0.000757653
0.000720688
0.000704875
0.000699817
0.000698455
0.000698131
0.000698069
0.00069807
0.000698134
0.000698458
0.000699819
0.000704872
0.00072068
0.000757652
0.000791627
0.000815161
0.000827829
0.000831997
0.00082793
0.000808866
0.000754041
0.000609493
0.00018354
0.000183538
0.00060962
0.000754109
0.000809025
0.000828667
0.000834622
0.00083524
0.000832305
0.000824147
0.00080778
0.000782107
0.000750567
0.000716655
0.00070247
0.000697995
0.000696774
0.000696457
0.000696383
0.000696385
0.000696461
0.00069678
0.000698001
0.000702473
0.000716653
0.000750571
0.000782095
0.000807681
0.000823647
0.000830165
0.00082727
0.000808667
0.000753997
0.000609496
0.000183541
0.000183539
0.000609633
0.000754109
0.000808993
0.000828528
0.000834101
0.000833507
0.000827306
0.00081205
0.000784323
0.000749374
0.000727799
0.000704316
0.0006952
0.00069242
0.00069167
0.000691412
0.000691325
0.000691328
0.00069142
0.000691682
0.000692434
0.000695213
0.000704328
0.000727816
0.000749371
0.000784232
0.000811558
0.000825176
0.00082555
0.000808164
0.000753881
0.000609492
0.000183542
0.000183541
0.000609648
0.000754107
0.000808936
0.000828267
0.000833081
0.000829948
0.00081637
0.000782877
0.000718431
0.000637316
0.00066312
0.000673032
0.000677157
0.00067813
0.00067871
0.000678699
0.000678622
0.000678627
0.000678712
0.000678729
0.000678153
0.000677179
0.000673057
0.000663167
0.000637334
0.000718356
0.000782397
0.000814252
0.000822007
0.000807167
0.000753651
0.000609475
0.000183543
0.000183542
0.000609666
0.000754101
0.000808862
0.000827926
0.000831697
0.000824811
0.000798919
0.000727272
0.000547372
0.000205093
0.000497204
0.000610581
0.000642449
0.00064915
0.000652536
0.00065315
0.00065316
0.000653165
0.000653161
0.00065255
0.000649149
0.000642419
0.000610543
0.000497306
0.000205091
0.000547332
0.000726796
0.000796805
0.000816881
0.000805804
0.000753345
0.000609448
0.000183542
0.000183543
0.000609683
0.000754096
0.00080881
0.000827717
0.000830851
0.000821386
0.00078482
0.000662805
0.000207727
0.000198531
0.000535703
0.000602067
0.000615884
0.000618978
0.000619546
0.000619616
0.000619613
0.000619532
0.000618923
0.000615706
0.000601636
0.000535016
0.00019838
0.000207677
0.000662266
0.000782671
0.000813451
0.000804977
0.000753175
0.000609453
0.000183543
0.000183542
0.000609681
0.000754063
0.000808778
0.000827816
0.000831594
0.000824793
0.000799178
0.000728232
0.000549874
0.000205743
0.000506485
0.000623654
0.000655499
0.000663298
0.000664799
0.000665076
0.000665117
0.000665106
0.000665019
0.000664574
0.000662543
0.000653455
0.000619737
0.000503198
0.000205372
0.000549034
0.000727296
0.000796883
0.000816827
0.000805742
0.00075333
0.000609499
0.000183544
0.000183537
0.000609581
0.00075384
0.000808512
0.000827757
0.000832573
0.000829618
0.000816664
0.000784813
0.000723961
0.000648954
0.000685748
0.000705271
0.000705496
0.000703912
0.000703003
0.000702695
0.00070261
0.000702587
0.000702564
0.00070245
0.000701896
0.000699446
0.000692225
0.000674065
0.000642113
0.000720431
0.000782881
0.000814049
0.000821589
0.000806777
0.000753423
0.000609469
0.000183541
0.000183509
0.000609032
0.00075278
0.000807142
0.000826399
0.000831912
0.000831567
0.000826325
0.000813676
0.000791706
0.00076684
0.000758457
0.000743374
0.000720916
0.000711553
0.000708645
0.00070789
0.000707718
0.000707685
0.000707692
0.000707774
0.000708184
0.000709923
0.000716725
0.000735853
0.000753246
0.000785124
0.000810617
0.000823381
0.000823538
0.000806353
0.000752598
0.000608971
0.000183514
0.000183376
0.000606672
0.000748607
0.000801855
0.000820645
0.000826321
0.000827187
0.000825467
0.000820719
0.000811949
0.000799511
0.000784559
0.000761298
0.000733359
0.000721813
0.000718267
0.000717352
0.000717148
0.000717112
0.000717135
0.000717306
0.000718107
0.000721314
0.000732216
0.000759651
0.000784356
0.000804615
0.000817408
0.000822537
0.00081944
0.000801551
0.000748546
0.000606637
0.000183382
0.000182832
0.000597926
0.000734362
0.000784506
0.000801871
0.000807136
0.000808328
0.000807942
0.000806213
0.000802483
0.000795763
0.000784693
0.000767705
0.000748979
0.000740176
0.000737196
0.000736361
0.000736156
0.00073612
0.000736156
0.000736354
0.000737163
0.000740063
0.000748728
0.000767398
0.000784863
0.000797103
0.000803712
0.000805493
0.000801399
0.000784411
0.00073435
0.000597902
0.000182838
0.000180905
0.00056941
0.000691426
0.000734384
0.000748647
0.000752826
0.000753841
0.000753858
0.000753268
0.000751761
0.000748606
0.000742808
0.000733922
0.000724386
0.000719351
0.000717457
0.000716874
0.000716718
0.000716689
0.000716724
0.000716884
0.000717466
0.000719347
0.000724358
0.000733895
0.000742902
0.000748917
0.000751875
0.00075218
0.000748487
0.000734365
0.000691425
0.000569386
0.00018091
0.000175093
0.000481874
0.000569435
0.000597969
0.000606729
0.0006091
0.000609645
0.000609695
0.000609518
0.000609016
0.000607894
0.000605736
0.000602411
0.000598822
0.00059676
0.000595904
0.000595609
0.000595518
0.000595501
0.000595528
0.00059563
0.000595934
0.000596794
0.000598858
0.000602451
0.000605804
0.000607981
0.000608983
0.000608888
0.000606677
0.000597961
0.000569426
0.000481848
0.000175097
0.000161781
0.000175094
0.000180908
0.000182839
0.000183386
0.000183523
0.000183555
0.000183564
0.000183564
0.00018355
0.000183509
0.000183419
0.00018327
0.000183104
0.000183006
0.000182963
0.000182947
0.000182941
0.00018294
0.000182941
0.000182948
0.000182964
0.000183006
0.000183105
0.00018327
0.000183418
0.000183509
0.000183544
0.000183528
0.000183395
0.000182847
0.000180914
0.000175097
0.000161784
0.000167159
0.000185795
0.00019423
0.000197213
0.000198123
0.000198365
0.000198421
0.000198433
0.000198435
0.000198435
0.000198435
0.000198434
0.000198433
0.000198432
0.000198431
0.000198431
0.00019843
0.00019843
0.00019843
0.00019843
0.000198431
0.000198431
0.000198432
0.000198433
0.000198433
0.000198434
0.000198432
0.000198421
0.000198365
0.000198123
0.000197213
0.00019423
0.000185795
0.00016716
0.000185794
0.00060756
0.000741026
0.000787345
0.000802488
0.000806872
0.000807979
0.000808214
0.00080824
0.000808217
0.000808181
0.000808141
0.000808105
0.000808074
0.000808049
0.000808029
0.000808014
0.000808007
0.000808007
0.000808014
0.000808027
0.000808047
0.000808072
0.000808102
0.000808135
0.000808164
0.000808149
0.000807927
0.00080683
0.000802452
0.000787312
0.000740995
0.000607537
0.000185795
0.000194232
0.000741054
0.000934537
0.00100676
0.00103206
0.00103993
0.00104207
0.00104258
0.00104265
0.00104261
0.00104255
0.00104251
0.00104247
0.00104246
0.00104244
0.00104243
0.00104242
0.00104242
0.00104242
0.00104242
0.00104243
0.00104244
0.00104246
0.00104247
0.0010425
0.00104253
0.00104248
0.00104201
0.00103989
0.00103204
0.00100675
0.000934523
0.000741043
0.000194233
0.000197217
0.000787389
0.00100678
0.00109218
0.00112332
0.0011334
0.00113624
0.00113689
0.0011369
0.0011367
0.00113648
0.00113633
0.00113626
0.00113625
0.00113625
0.00113624
0.00113622
0.00113621
0.00113621
0.00113622
0.00113624
0.00113625
0.00113625
0.00113626
0.00113633
0.00113644
0.00113651
0.00113602
0.0011333
0.00112329
0.00109218
0.00100678
0.000787386
0.00019722
0.000198128
0.000802539
0.00103209
0.00112334
0.0011573
0.00116848
0.00117161
0.00117213
0.00117168
0.00117077
0.00116983
0.0011693