/*--------------------------------*- C++ -*----------------------------------*\
| =========                 |                                                 |
| \\      /  F ield         | OpenFOAM: The Open Source CFD Toolbox           |
|  \\    /   O peration     | Version:  2112                                  |
|   \\  /    A nd           | Website:  www.openfoam.com                      |
|    \\/     M anipulation  |                                                 |
\*---------------------------------------------------------------------------*/
FoamFile
{
    version     2.0;
    format      ascii;
    arch        "LSB;label=32;scalar=64";
    class       volScalarField;
    location    "1.3";
    object      p;
}
// * * * * * * * * * * * * * * * * * * * * * * * * * * * * * * * * * * * * * //

dimensions      [0 2 -2 0 0 0 0];

internalField   nonuniform List<scalar> 
64906
(
-1.03937e-05
-1.03713e-05
-1.03753e-05
-1.04089e-05
-1.04759e-05
-1.05765e-05
-1.07099e-05
-1.08751e-05
-1.10696e-05
-1.12896e-05
-1.15257e-05
-1.17692e-05
-1.20037e-05
-1.22203e-05
-1.2408e-05
-1.25618e-05
-1.2677e-05
-1.27516e-05
-1.27847e-05
-1.27764e-05
-1.27282e-05
-1.26421e-05
-1.25233e-05
-1.23768e-05
-1.22137e-05
-1.2043e-05
-1.1881e-05
-1.17362e-05
-1.16179e-05
-1.15299e-05
-1.14747e-05
-1.14521e-05
-1.14571e-05
-1.14799e-05
-1.03388e-05
-1.0218e-05
-1.01569e-05
-1.01373e-05
-1.01631e-05
-1.02271e-05
-1.03228e-05
-1.04467e-05
-1.05943e-05
-1.07625e-05
-1.09411e-05
-1.11246e-05
-1.12973e-05
-1.14558e-05
-1.15916e-05
-1.17036e-05
-1.1789e-05
-1.18477e-05
-1.18792e-05
-1.18838e-05
-1.18623e-05
-1.18149e-05
-1.17448e-05
-1.1653e-05
-1.15484e-05
-1.1434e-05
-1.1326e-05
-1.12299e-05
-1.11577e-05
-1.11158e-05
-1.11144e-05
-1.11629e-05
-1.12584e-05
-1.14005e-05
-1.03415e-05
-1.01721e-05
-1.00583e-05
-9.99679e-06
-9.993e-06
-1.00352e-05
-1.01138e-05
-1.02244e-05
-1.03626e-05
-1.05276e-05
-1.0706e-05
-1.08942e-05
-1.10635e-05
-1.12148e-05
-1.1338e-05
-1.1438e-05
-1.15134e-05
-1.15663e-05
-1.15969e-05
-1.16054e-05
-1.1592e-05
-1.15549e-05
-1.14955e-05
-1.14094e-05
-1.13068e-05
-1.11865e-05
-1.10784e-05
-1.09863e-05
-1.09271e-05
-1.0908e-05
-1.09432e-05
-1.10461e-05
-1.12086e-05
-1.14257e-05
-1.04185e-05
-1.02043e-05
-1.0051e-05
-9.95887e-06
-9.93703e-06
-9.97221e-06
-1.00539e-05
-1.01796e-05
-1.03482e-05
-1.05657e-05
-1.0812e-05
-1.10854e-05
-1.13189e-05
-1.15189e-05
-1.16705e-05
-1.17888e-05
-1.18738e-05
-1.19311e-05
-1.19613e-05
-1.19647e-05
-1.19409e-05
-1.18847e-05
-1.17965e-05
-1.16613e-05
-1.1495e-05
-1.12904e-05
-1.11168e-05
-1.0976e-05
-1.08935e-05
-1.08718e-05
-1.09258e-05
-1.10681e-05
-1.12837e-05
-1.15576e-05
-1.05825e-05
-1.03146e-05
-1.01405e-05
-1.00328e-05
-1.0008e-05
-1.00537e-05
-1.01612e-05
-1.03347e-05
-1.05814e-05
-1.09238e-05
-1.13341e-05
-1.18173e-05
-1.22099e-05
-1.25319e-05
-1.27609e-05
-1.29341e-05
-1.30523e-05
-1.31263e-05
-1.31569e-05
-1.31442e-05
-1.30878e-05
-1.29773e-05
-1.28125e-05
-1.25565e-05
-1.2233e-05
-1.18212e-05
-1.14892e-05
-1.12297e-05
-1.10782e-05
-1.10229e-05
-1.10731e-05
-1.12361e-05
-1.14885e-05
-1.18106e-05
-1.08189e-05
-1.05004e-05
-1.03113e-05
-1.0198e-05
-1.01828e-05
-1.02546e-05
-1.04084e-05
-1.066e-05
-1.10341e-05
-1.15879e-05
-1.22927e-05
-1.319e-05
-1.38731e-05
-1.44097e-05
-1.47733e-05
-1.50449e-05
-1.52244e-05
-1.53301e-05
-1.53618e-05
-1.53196e-05
-1.52041e-05
-1.49971e-05
-1.46995e-05
-1.42306e-05
-1.36196e-05
-1.27965e-05
-1.21795e-05
-1.17168e-05
-1.14482e-05
-1.13294e-05
-1.13561e-05
-1.15257e-05
-1.18065e-05
-1.21842e-05
-1.11082e-05
-1.07588e-05
-1.05494e-05
-1.04354e-05
-1.04399e-05
-1.05515e-05
-1.07696e-05
-1.11258e-05
-1.16729e-05
-1.25348e-05
-1.36873e-05
-1.5382e-05
-1.65308e-05
-1.73911e-05
-1.79508e-05
-1.83687e-05
-1.86398e-05
-1.87941e-05
-1.88281e-05
-1.87416e-05
-1.85384e-05
-1.81884e-05
-1.76974e-05
-1.69062e-05
-1.58327e-05
-1.42122e-05
-1.31649e-05
-1.24029e-05
-1.19717e-05
-1.17632e-05
-1.175e-05
-1.19145e-05
-1.22045e-05
-1.26946e-05
-1.14543e-05
-1.10693e-05
-1.08412e-05
-1.07332e-05
-1.07702e-05
-1.09388e-05
-1.12414e-05
-1.17217e-05
-1.24676e-05
-1.36759e-05
-1.53757e-05
-1.86322e-05
-2.04199e-05
-2.17322e-05
-2.25717e-05
-2.32059e-05
-2.36153e-05
-2.38439e-05
-2.38816e-05
-2.37283e-05
-2.33936e-05
-2.28323e-05
-2.2065e-05
-2.08222e-05
-1.91117e-05
-1.59175e-05
-1.43629e-05
-1.32588e-05
-1.26369e-05
-1.23185e-05
-1.22481e-05
-1.24019e-05
-1.27236e-05
-1.32743e-05
-1.18487e-05
-1.14196e-05
-1.11742e-05
-1.10801e-05
-1.11652e-05
-1.14125e-05
-1.18233e-05
-1.24417e-05
-1.33588e-05
-1.49464e-05
-1.70623e-05
-2.34259e-05
-2.56994e-05
-2.7518e-05
-2.87016e-05
-2.9593e-05
-3.01712e-05
-3.04917e-05
-3.05352e-05
-3.03011e-05
-2.98079e-05
-2.89978e-05
-2.78912e-05
-2.61392e-05
-2.39473e-05
-1.76073e-05
-1.57364e-05
-1.42294e-05
-1.34391e-05
-1.29929e-05
-1.28425e-05
-1.29713e-05
-1.33214e-05
-1.39429e-05
-1.22804e-05
-1.18007e-05
-1.1542e-05
-1.14766e-05
-1.16402e-05
-1.20159e-05
-1.2605e-05
-1.34015e-05
-1.45467e-05
-1.70131e-05
-1.49106e-05
-2.91634e-05
-3.17966e-05
-3.44162e-05
-3.61314e-05
-3.74321e-05
-3.82788e-05
-3.87364e-05
-3.87876e-05
-3.84317e-05
-3.76849e-05
-3.64787e-05
-3.48493e-05
-3.22951e-05
-2.97726e-05
-1.53346e-05
-1.78843e-05
-1.54864e-05
-1.44869e-05
-1.38688e-05
-1.35673e-05
-1.3628e-05
-1.39891e-05
-1.46924e-05
-1.27322e-05
-1.21953e-05
-1.19241e-05
-1.18958e-05
-1.21599e-05
-1.27089e-05
-1.35351e-05
-1.45302e-05
-1.55171e-05
-1.31054e-05
-4.32538e-05
-4.03281e-05
-4.21261e-05
-4.40701e-05
-4.56972e-05
-4.68048e-05
-4.73848e-05
-4.7445e-05
-4.69847e-05
-4.59952e-05
-4.44804e-05
-4.26368e-05
-4.09025e-05
-4.37525e-05
-1.44791e-05
-1.6713e-05
-1.5749e-05
-1.48995e-05
-1.43783e-05
-1.43287e-05
-1.46897e-05
-1.54905e-05
-1.31886e-05
-1.25933e-05
-1.23154e-05
-1.23422e-05
-1.27534e-05
-1.35995e-05
-1.5032e-05
-1.7323e-05
-2.12045e-05
-2.66853e-05
-3.99131e-05
-4.02039e-05
-4.49015e-05
-4.89709e-05
-5.23808e-05
-5.49006e-05
-5.64985e-05
-5.72873e-05
-5.73563e-05
-5.67058e-05
-5.52477e-05
-5.28692e-05
-4.96043e-05
-4.56848e-05
-4.11497e-05
-4.11983e-05
-2.78344e-05
-2.24004e-05
-1.85855e-05
-1.64603e-05
-1.53674e-05
-1.50913e-05
-1.54136e-05
-1.63119e-05
-1.36257e-05
-1.29711e-05
-1.26796e-05
-1.27419e-05
-1.3253e-05
-1.42795e-05
-1.59982e-05
-1.86632e-05
-2.2721e-05
-2.80458e-05
-3.68954e-05
-4.25235e-05
-4.84622e-05
-5.36949e-05
-5.80354e-05
-6.10979e-05
-6.30089e-05
-6.394e-05
-6.40157e-05
-6.32369e-05
-6.14807e-05
-5.85758e-05
-5.4398e-05
-4.93212e-05
-4.35235e-05
-3.80848e-05
-2.92807e-05
-2.39769e-05
-1.99837e-05
-1.74953e-05
-1.61485e-05
-1.57601e-05
-1.60847e-05
-1.70893e-05
-1.40286e-05
-1.33197e-05
-1.30129e-05
-1.30996e-05
-1.36821e-05
-1.48299e-05
-1.67201e-05
-1.9597e-05
-2.38645e-05
-2.95339e-05
-3.71548e-05
-4.39694e-05
-5.09568e-05
-5.70142e-05
-6.19518e-05
-6.53473e-05
-6.74434e-05
-6.84521e-05
-6.8533e-05
-6.76868e-05
-6.57563e-05
-6.25298e-05
-5.77655e-05
-5.18652e-05
-4.49812e-05
-3.83466e-05
-3.07899e-05
-2.51569e-05
-2.09676e-05
-1.8284e-05
-1.67994e-05
-1.63523e-05
-1.66951e-05
-1.77962e-05
-1.43817e-05
-1.36249e-05
-1.32989e-05
-1.33931e-05
-1.40103e-05
-1.52136e-05
-1.71675e-05
-2.01047e-05
-2.43949e-05
-3.00946e-05
-3.73621e-05
-4.47038e-05
-5.23637e-05
-5.88202e-05
-6.40205e-05
-6.7549e-05
-6.97143e-05
-7.07493e-05
-7.08339e-05
-6.99689e-05
-6.79765e-05
-6.46239e-05
-5.96038e-05
-5.33144e-05
-4.58082e-05
-3.85806e-05
-3.13799e-05
-2.57249e-05
-2.1524e-05
-1.8797e-05
-1.72799e-05
-1.68313e-05
-1.72125e-05
-1.84e-05
-1.46772e-05
-1.38816e-05
-1.35376e-05
-1.36315e-05
-1.42657e-05
-1.54958e-05
-1.74755e-05
-2.04311e-05
-2.47155e-05
-3.04213e-05
-3.76415e-05
-4.52599e-05
-5.32209e-05
-5.9871e-05
-6.51903e-05
-6.87634e-05
-7.09458e-05
-7.19847e-05
-7.20726e-05
-7.12103e-05
-6.92068e-05
-6.58148e-05
-6.06807e-05
-5.42025e-05
-4.64045e-05
-3.88876e-05
-3.17367e-05
-2.60811e-05
-2.18954e-05
-1.91654e-05
-1.76491e-05
-1.72168e-05
-1.76371e-05
-1.88936e-05
-1.49092e-05
-1.40848e-05
-1.37256e-05
-1.38159e-05
-1.44567e-05
-1.56985e-05
-1.76882e-05
-2.06505e-05
-2.49347e-05
-3.06633e-05
-3.79169e-05
-4.56839e-05
-5.38049e-05
-6.05548e-05
-6.59317e-05
-6.95236e-05
-7.17117e-05
-7.27516e-05
-7.28429e-05
-7.1986e-05
-6.99826e-05
-6.65768e-05
-6.13887e-05
-5.48132e-05
-4.68574e-05
-3.91896e-05
-3.20075e-05
-2.63329e-05
-2.21546e-05
-1.94298e-05
-1.79239e-05
-1.75117e-05
-1.79649e-05
-1.92726e-05
-1.50755e-05
-1.42331e-05
-1.38645e-05
-1.39524e-05
-1.45977e-05
-1.58486e-05
-1.78493e-05
-2.08258e-05
-2.51281e-05
-3.08947e-05
-3.82034e-05
-4.60695e-05
-5.42929e-05
-6.11149e-05
-6.65393e-05
-7.01557e-05
-7.23572e-05
-7.3404e-05
-7.3499e-05
-7.26425e-05
-7.0632e-05
-6.72066e-05
-6.19743e-05
-5.53285e-05
-4.72709e-05
-3.95028e-05
-3.22659e-05
-2.65545e-05
-2.23628e-05
-1.96318e-05
-1.8128e-05
-1.77268e-05
-1.82002e-05
-1.95394e-05
-1.51752e-05
-1.43259e-05
-1.39542e-05
-1.40428e-05
-1.46932e-05
-1.59543e-05
-1.79711e-05
-2.09721e-05
-2.53102e-05
-3.11275e-05
-3.85003e-05
-4.64398e-05
-5.47345e-05
-6.16183e-05
-6.70921e-05
-7.07456e-05
-7.29724e-05
-7.4034e-05
-7.41333e-05
-7.32703e-05
-7.12416e-05
-6.77846e-05
-6.25061e-05
-5.58001e-05
-4.76703e-05
-3.98267e-05
-3.25241e-05
-2.67588e-05
-2.25349e-05
-1.97827e-05
-1.82683e-05
-1.78657e-05
-1.83446e-05
-1.96962e-05
-1.52086e-05
-1.43635e-05
-1.39951e-05
-1.40873e-05
-1.47433e-05
-1.6015e-05
-1.80523e-05
-2.10875e-05
-2.54789e-05
-3.13603e-05
-3.88085e-05
-4.68016e-05
-5.51387e-05
-6.20736e-05
-6.75969e-05
-7.12988e-05
-7.35622e-05
-7.46461e-05
-7.47507e-05
-7.38755e-05
-7.18192e-05
-6.83209e-05
-6.29973e-05
-5.62402e-05
-4.80651e-05
-4.01638e-05
-3.27831e-05
-2.69577e-05
-2.26726e-05
-1.98831e-05
-1.83458e-05
-1.79293e-05
-1.83994e-05
-1.97442e-05
-1.51778e-05
-1.43475e-05
-1.3988e-05
-1.40849e-05
-1.47439e-05
-1.60222e-05
-1.80787e-05
-2.1152e-05
-2.56119e-05
-3.15745e-05
-3.91308e-05
-4.71505e-05
-5.54756e-05
-6.24318e-05
-6.79902e-05
-7.17432e-05
-7.40491e-05
-7.5161e-05
-7.52721e-05
-7.43815e-05
-7.22938e-05
-6.87532e-05
-6.33992e-05
-5.66224e-05
-4.84545e-05
-4.05185e-05
-3.30229e-05
-2.71084e-05
-2.27529e-05
-1.99199e-05
-1.83542e-05
-1.79166e-05
-1.83658e-05
-1.96852e-05
-1.50857e-05
-1.42802e-05
-1.39326e-05
-1.40308e-05
-1.4682e-05
-1.59503e-05
-1.80063e-05
-2.10999e-05
-2.56271e-05
-3.16904e-05
-3.94542e-05
-4.74375e-05
-5.5626e-05
-6.25093e-05
-6.8036e-05
-7.18106e-05
-7.41462e-05
-7.5284e-05
-7.54039e-05
-7.45049e-05
-7.2403e-05
-6.88545e-05
-6.35403e-05
-5.68392e-05
-4.87986e-05
-4.08817e-05
-3.31694e-05
-2.71469e-05
-2.27182e-05
-1.98555e-05
-1.82739e-05
-1.78201e-05
-1.82433e-05
-1.95204e-05
-1.49395e-05
-1.41679e-05
-1.3834e-05
-1.39273e-05
-1.45545e-05
-1.57849e-05
-1.78007e-05
-2.08649e-05
-2.5417e-05
-3.15416e-05
-3.98279e-05
-4.76677e-05
-5.54026e-05
-6.20229e-05
-6.73811e-05
-7.1097e-05
-7.3418e-05
-7.45659e-05
-7.46988e-05
-7.38159e-05
-7.17534e-05
-6.8287e-05
-6.31568e-05
-5.67263e-05
-4.91229e-05
-4.13085e-05
-3.30658e-05
-2.69737e-05
-2.25112e-05
-1.96642e-05
-1.80992e-05
-1.76448e-05
-1.80412e-05
-1.92591e-05
-1.47479e-05
-1.40164e-05
-1.36936e-05
-1.37675e-05
-1.43377e-05
-1.54683e-05
-1.7338e-05
-2.02141e-05
-2.45623e-05
-3.03604e-05
-4.01016e-05
-4.78052e-05
-5.44913e-05
-6.04208e-05
-6.52934e-05
-6.87706e-05
-7.09793e-05
-7.20996e-05
-7.22522e-05
-7.14371e-05
-6.9527e-05
-6.63401e-05
-6.17236e-05
-5.6003e-05
-4.94368e-05
-4.1645e-05
-3.19527e-05
-2.61832e-05
-2.19127e-05
-1.92334e-05
-1.77821e-05
-1.73768e-05
-1.77627e-05
-1.89119e-05
-1.45274e-05
-1.38418e-05
-1.35312e-05
-1.35807e-05
-1.40761e-05
-1.50648e-05
-1.67008e-05
-1.92678e-05
-2.35773e-05
-2.98915e-05
-4.25141e-05
-4.64303e-05
-5.27242e-05
-5.7898e-05
-6.20574e-05
-6.51672e-05
-6.71916e-05
-6.82523e-05
-6.84339e-05
-6.77395e-05
-6.60776e-05
-6.33288e-05
-5.94742e-05
-5.45315e-05
-4.82419e-05
-4.40189e-05
-3.16764e-05
-2.53406e-05
-2.10665e-05
-1.86588e-05
-1.73955e-05
-1.70686e-05
-1.74478e-05
-1.85162e-05
-1.4292e-05
-1.36518e-05
-1.33487e-05
-1.3359e-05
-1.37407e-05
-1.44809e-05
-1.55496e-05
-1.67487e-05
-1.77626e-05
-1.40622e-05
-5.59479e-05
-5.16711e-05
-5.41075e-05
-5.68836e-05
-5.92965e-05
-6.09961e-05
-6.1958e-05
-6.21765e-05
-6.16599e-05
-6.04081e-05
-5.84606e-05
-5.6074e-05
-5.40017e-05
-5.83231e-05
-1.58781e-05
-1.9685e-05
-1.86798e-05
-1.76008e-05
-1.68468e-05
-1.6695e-05
-1.70984e-05
-1.80928e-05
-1.40653e-05
-1.34715e-05
-1.31861e-05
-1.31851e-05
-1.35242e-05
-1.42077e-05
-1.52947e-05
-1.6911e-05
-1.9566e-05
-2.40086e-05
-2.6663e-05
-4.00985e-05
-4.48387e-05
-4.92125e-05
-5.24623e-05
-5.5054e-05
-5.68094e-05
-5.78254e-05
-5.80868e-05
-5.76115e-05
-5.64146e-05
-5.44282e-05
-5.1689e-05
-4.78186e-05
-4.30706e-05
-3.0264e-05
-2.68982e-05
-2.20661e-05
-1.9133e-05
-1.74803e-05
-1.6613e-05
-1.64346e-05
-1.67959e-05
-1.77075e-05
-1.38597e-05
-1.33083e-05
-1.30418e-05
-1.30355e-05
-1.33417e-05
-1.39708e-05
-1.4984e-05
-1.65171e-05
-1.87781e-05
-2.20424e-05
-2.77039e-05
-3.59216e-05
-4.05459e-05
-4.47736e-05
-4.80395e-05
-5.06383e-05
-5.23809e-05
-5.3402e-05
-5.36935e-05
-5.32842e-05
-5.21859e-05
-5.03086e-05
-4.76217e-05
-4.39841e-05
-3.93849e-05
-3.12703e-05
-2.50385e-05
-2.1427e-05
-1.88785e-05
-1.72521e-05
-1.63939e-05
-1.62007e-05
-1.65233e-05
-1.73644e-05
-1.36914e-05
-1.3182e-05
-1.29419e-05
-1.2946e-05
-1.32438e-05
-1.38489e-05
-1.48223e-05
-1.62955e-05
-1.84892e-05
-2.16772e-05
-2.6188e-05
-3.2006e-05
-3.66411e-05
-4.09144e-05
-4.42705e-05
-4.69589e-05
-4.87413e-05
-4.9772e-05
-5.00792e-05
-4.97037e-05
-4.86302e-05
-4.67659e-05
-4.40347e-05
-4.03966e-05
-3.57904e-05
-2.99601e-05
-2.49612e-05
-2.13091e-05
-1.87588e-05
-1.71414e-05
-1.62729e-05
-1.6047e-05
-1.63199e-05
-1.70915e-05
-1.35699e-05
-1.31054e-05
-1.28993e-05
-1.29244e-05
-1.32233e-05
-1.3807e-05
-1.47254e-05
-1.60884e-05
-1.80633e-05
-2.08617e-05
-2.45472e-05
-2.90445e-05
-3.32267e-05
-3.7229e-05
-4.04428e-05
-4.30079e-05
-4.47063e-05
-4.56851e-05
-4.59861e-05
-4.56542e-05
-4.46633e-05
-4.29291e-05
-4.03544e-05
-3.69893e-05
-3.28345e-05
-2.8264e-05
-2.41294e-05
-2.08846e-05
-1.85629e-05
-1.70503e-05
-1.62137e-05
-1.59676e-05
-1.61916e-05
-1.68932e-05
-1.35035e-05
-1.30977e-05
-1.29422e-05
-1.30071e-05
-1.33259e-05
-1.39044e-05
-1.47777e-05
-1.60252e-05
-1.77598e-05
-2.01094e-05
-2.30958e-05
-2.66545e-05
-3.02205e-05
-3.37314e-05
-3.66094e-05
-3.88933e-05
-4.04227e-05
-4.13127e-05
-4.15932e-05
-4.13043e-05
-4.04257e-05
-3.88898e-05
-3.66226e-05
-3.36966e-05
-3.01695e-05
-2.65185e-05
-2.31713e-05
-2.04628e-05
-1.84496e-05
-1.70847e-05
-1.62899e-05
-1.60141e-05
-1.61709e-05
-1.67822e-05
-1.34949e-05
-1.31748e-05
-1.30961e-05
-1.3226e-05
-1.35899e-05
-1.41914e-05
-1.50527e-05
-1.62319e-05
-1.78039e-05
-1.98352e-05
-2.23227e-05
-2.52219e-05
-2.82245e-05
-3.1206e-05
-3.36999e-05
-3.56827e-05
-3.70409e-05
-3.78394e-05
-3.81e-05
-3.78486e-05
-3.70693e-05
-3.57262e-05
-3.37764e-05
-3.12959e-05
-2.83641e-05
-2.53997e-05
-2.26639e-05
-2.03814e-05
-1.86146e-05
-1.73598e-05
-1.65764e-05
-1.62358e-05
-1.62852e-05
-1.67633e-05
-1.35335e-05
-1.33254e-05
-1.33484e-05
-1.35631e-05
-1.3995e-05
-1.46517e-05
-1.55377e-05
-1.67152e-05
-1.82597e-05
-2.01708e-05
-2.24279e-05
-2.49816e-05
-2.76338e-05
-3.02461e-05
-3.24838e-05
-3.42797e-05
-3.55433e-05
-3.62962e-05
-3.65458e-05
-3.63059e-05
-3.55687e-05
-3.43237e-05
-3.25627e-05
-3.03635e-05
-2.78247e-05
-2.52581e-05
-2.28556e-05
-2.07845e-05
-1.91115e-05
-1.78858e-05
-1.70718e-05
-1.66249e-05
-1.65211e-05
-1.68223e-05
-1.36147e-05
-1.35862e-05
-1.37001e-05
-1.40028e-05
-1.45197e-05
-1.52786e-05
-1.63325e-05
-1.76901e-05
-1.93426e-05
-2.13492e-05
-2.36902e-05
-2.62974e-05
-2.89958e-05
-3.16315e-05
-3.393e-05
-3.57919e-05
-3.71268e-05
-3.79258e-05
-3.81861e-05
-3.7914e-05
-3.71086e-05
-3.57744e-05
-3.39304e-05
-3.16646e-05
-2.91003e-05
-2.65048e-05
-2.4067e-05
-2.194e-05
-2.01902e-05
-1.8802e-05
-1.77993e-05
-1.71992e-05
-1.69462e-05
-1.69554e-05
-1.04795e-05
-1.04926e-05
-1.05269e-05
-1.05859e-05
-1.06759e-05
-1.07998e-05
-1.09594e-05
-1.11553e-05
-1.13854e-05
-1.16466e-05
-1.19274e-05
-1.22186e-05
-1.24993e-05
-1.27594e-05
-1.29841e-05
-1.31675e-05
-1.33031e-05
-1.33887e-05
-1.34228e-05
-1.34056e-05
-1.33388e-05
-1.32253e-05
-1.30715e-05
-1.28839e-05
-1.26771e-05
-1.24612e-05
-1.22571e-05
-1.20736e-05
-1.19216e-05
-1.18029e-05
-1.1717e-05
-1.16593e-05
-1.16212e-05
-1.15952e-05
-1.04408e-05
-1.03961e-05
-1.039e-05
-1.04128e-05
-1.04722e-05
-1.05678e-05
-1.0698e-05
-1.08619e-05
-1.10546e-05
-1.12737e-05
-1.1504e-05
-1.17415e-05
-1.19646e-05
-1.21719e-05
-1.23489e-05
-1.24944e-05
-1.26029e-05
-1.26743e-05
-1.27074e-05
-1.27025e-05
-1.26609e-05
-1.25832e-05
-1.24752e-05
-1.23379e-05
-1.21864e-05
-1.20216e-05
-1.18656e-05
-1.1722e-05
-1.1607e-05
-1.15241e-05
-1.14788e-05
-1.1471e-05
-1.14902e-05
-1.15373e-05
-1.04706e-05
-1.04044e-05
-1.03771e-05
-1.03766e-05
-1.04213e-05
-1.05107e-05
-1.06423e-05
-1.08161e-05
-1.10269e-05
-1.1278e-05
-1.15442e-05
-1.18322e-05
-1.20898e-05
-1.2328e-05
-1.25222e-05
-1.26801e-05
-1.27946e-05
-1.28688e-05
-1.29016e-05
-1.28931e-05
-1.2845e-05
-1.27543e-05
-1.26285e-05
-1.24599e-05
-1.22739e-05
-1.20587e-05
-1.18681e-05
-1.16947e-05
-1.15668e-05
-1.14837e-05
-1.14539e-05
-1.14754e-05
-1.15206e-05
-1.15936e-05
-1.05692e-05
-1.04798e-05
-1.04348e-05
-1.04209e-05
-1.04635e-05
-1.05634e-05
-1.07193e-05
-1.09364e-05
-1.12112e-05
-1.15611e-05
-1.19429e-05
-1.23837e-05
-1.27578e-05
-1.30997e-05
-1.33635e-05
-1.35737e-05
-1.37197e-05
-1.38099e-05
-1.38428e-05
-1.38185e-05
-1.37391e-05
-1.35964e-05
-1.34014e-05
-1.31298e-05
-1.28287e-05
-1.24625e-05
-1.21602e-05
-1.1893e-05
-1.17089e-05
-1.15952e-05
-1.15597e-05
-1.15943e-05
-1.16591e-05
-1.17565e-05
-1.0747e-05
-1.06282e-05
-1.05729e-05
-1.05582e-05
-1.06137e-05
-1.07426e-05
-1.09474e-05
-1.1243e-05
-1.16329e-05
-1.21638e-05
-1.27629e-05
-1.35048e-05
-1.40976e-05
-1.46304e-05
-1.50207e-05
-1.53268e-05
-1.55312e-05
-1.56518e-05
-1.56855e-05
-1.56323e-05
-1.54958e-05
-1.52585e-05
-1.49387e-05
-1.44778e-05
-1.39609e-05
-1.32966e-05
-1.27838e-05
-1.23423e-05
-1.2053e-05
-1.1874e-05
-1.18087e-05
-1.18385e-05
-1.19144e-05
-1.20409e-05
-1.0999e-05
-1.08464e-05
-1.07851e-05
-1.07794e-05
-1.08614e-05
-1.10366e-05
-1.13126e-05
-1.17193e-05
-1.22734e-05
-1.30786e-05
-1.40254e-05
-1.53056e-05
-1.6248e-05
-1.7082e-05
-1.76646e-05
-1.81194e-05
-1.84148e-05
-1.85836e-05
-1.86188e-05
-1.85204e-05
-1.82959e-05
-1.79123e-05
-1.74027e-05
-1.66423e-05
-1.57795e-05
-1.45798e-05
-1.37304e-05
-1.30225e-05
-1.258e-05
-1.23039e-05
-1.21876e-05
-1.21986e-05
-1.22803e-05
-1.24465e-05
-1.13165e-05
-1.11293e-05
-1.10633e-05
-1.10739e-05
-1.1194e-05
-1.14303e-05
-1.17954e-05
-1.23375e-05
-1.30927e-05
-1.42763e-05
-1.57283e-05
-1.79666e-05
-1.94014e-05
-2.06424e-05
-2.14672e-05
-2.21135e-05
-2.25247e-05
-2.2757e-05
-2.27948e-05
-2.26381e-05
-2.23025e-05
-2.1731e-05
-2.09824e-05
-1.98163e-05
-1.84647e-05
-1.63073e-05
-1.4972e-05
-1.38939e-05
-1.32619e-05
-1.28647e-05
-1.26813e-05
-1.26627e-05
-1.27459e-05
-1.29737e-05
-1.16951e-05
-1.14665e-05
-1.13989e-05
-1.14358e-05
-1.16104e-05
-1.19276e-05
-1.24019e-05
-1.30876e-05
-1.40359e-05
-1.55544e-05
-1.76562e-05
-2.16122e-05
-2.3599e-05
-2.53444e-05
-2.64765e-05
-2.73788e-05
-2.79486e-05
-2.82692e-05
-2.83112e-05
-2.80739e-05
-2.75869e-05
-2.67651e-05
-2.57129e-05
-2.40417e-05
-2.21387e-05
-1.82535e-05
-1.6308e-05
-1.48994e-05
-1.40855e-05
-1.35591e-05
-1.32912e-05
-1.32312e-05
-1.3315e-05
-1.36046e-05
-1.21258e-05
-1.18455e-05
-1.17775e-05
-1.1849e-05
-1.20928e-05
-1.2507e-05
-1.3099e-05
-1.39027e-05
-1.48927e-05
-1.66398e-05
-1.90535e-05
-2.6908e-05
-2.89111e-05
-3.09192e-05
-3.22666e-05
-3.33551e-05
-3.40491e-05
-3.44473e-05
-3.44949e-05
-3.41909e-05
-3.35896e-05
-3.25892e-05
-3.1326e-05
-2.93866e-05
-2.74682e-05
-1.9638e-05
-1.74948e-05
-1.5839e-05
-1.49885e-05
-1.43537e-05
-1.39925e-05
-1.38807e-05
-1.39644e-05
-1.43338e-05
-1.25984e-05
-1.22581e-05
-1.2198e-05
-1.23273e-05
-1.26839e-05
-1.32638e-05
-1.40773e-05
-1.50203e-05
-1.60602e-05
-1.83273e-05
-1.38782e-05
-3.14812e-05
-3.3528e-05
-3.61319e-05
-3.78832e-05
-3.93257e-05
-4.02461e-05
-4.0761e-05
-4.08151e-05
-4.04074e-05
-3.95927e-05
-3.82499e-05
-3.65906e-05
-3.40527e-05
-3.21177e-05
-1.42586e-05
-1.92423e-05
-1.70622e-05
-1.61867e-05
-1.54229e-05
-1.4865e-05
-1.46377e-05
-1.46922e-05
-1.51558e-05
-1.30932e-05
-1.26822e-05
-1.26278e-05
-1.28186e-05
-1.32979e-05
-1.40644e-05
-1.51243e-05
-1.62916e-05
-1.6896e-05
-1.16576e-05
-4.60363e-05
-3.97599e-05
-4.07389e-05
-4.24193e-05
-4.37882e-05
-4.47534e-05
-4.52836e-05
-4.53447e-05
-4.49356e-05
-4.40898e-05
-4.28339e-05
-4.12571e-05
-4.03331e-05
-4.64731e-05
-1.31495e-05
-1.81482e-05
-1.75821e-05
-1.65671e-05
-1.57752e-05
-1.54115e-05
-1.54401e-05
-1.60303e-05
-1.35948e-05
-1.31117e-05
-1.30779e-05
-1.33678e-05
-1.40566e-05
-1.52132e-05
-1.70273e-05
-1.96923e-05
-2.41116e-05
-2.90719e-05
-4.25954e-05
-3.84219e-05
-4.12539e-05
-4.43996e-05
-4.70917e-05
-4.90942e-05
-5.04034e-05
-5.10641e-05
-5.11323e-05
-5.06078e-05
-4.94362e-05
-4.75725e-05
-4.50259e-05
-4.20342e-05
-3.93656e-05
-4.39265e-05
-3.02195e-05
-2.53431e-05
-2.10163e-05
-1.85178e-05
-1.69966e-05
-1.62971e-05
-1.62201e-05
-1.69364e-05
-1.40747e-05
-1.35185e-05
-1.34904e-05
-1.38442e-05
-1.46636e-05
-1.60317e-05
-1.81612e-05
-2.12041e-05
-2.56902e-05
-3.05419e-05
-3.84752e-05
-4.08806e-05
-4.39723e-05
-4.70206e-05
-4.99639e-05
-5.21424e-05
-5.35979e-05
-5.43322e-05
-5.4406e-05
-5.38193e-05
-5.25132e-05
-5.04842e-05
-4.76952e-05
-4.47934e-05
-4.1847e-05
-3.96437e-05
-3.177e-05
-2.69785e-05
-2.25843e-05
-1.97166e-05
-1.79043e-05
-1.70478e-05
-1.69402e-05
-1.77917e-05
-1.45172e-05
-1.38977e-05
-1.38758e-05
-1.42872e-05
-1.52217e-05
-1.67723e-05
-1.91574e-05
-2.25249e-05
-2.72637e-05
-3.26256e-05
-3.91716e-05
-4.30074e-05
-4.66094e-05
-4.99874e-05
-5.33033e-05
-5.56885e-05
-5.72911e-05
-5.80895e-05
-5.81685e-05
-5.75282e-05
-5.60857e-05
-5.38605e-05
-5.07092e-05
-4.74838e-05
-4.40708e-05
-4.03346e-05
-3.38768e-05
-2.85895e-05
-2.39564e-05
-2.07784e-05
-1.87373e-05
-1.77496e-05
-1.76131e-05
-1.8572e-05
-1.49036e-05
-1.42295e-05
-1.42043e-05
-1.46461e-05
-1.56424e-05
-1.72828e-05
-1.97719e-05
-2.32537e-05
-2.80322e-05
-3.35547e-05
-3.98612e-05
-4.43679e-05
-4.8336e-05
-5.18958e-05
-5.53788e-05
-5.78544e-05
-5.95235e-05
-6.03488e-05
-6.04319e-05
-5.97725e-05
-5.82711e-05
-5.59617e-05
-5.2648e-05
-4.92378e-05
-4.54282e-05
-4.10371e-05
-3.48362e-05
-2.93993e-05
-2.47385e-05
-2.1462e-05
-1.93436e-05
-1.83117e-05
-1.81833e-05
-1.92344e-05
-1.52257e-05
-1.45096e-05
-1.44801e-05
-1.49412e-05
-1.59777e-05
-1.76757e-05
-2.02283e-05
-2.37812e-05
-2.85929e-05
-3.42104e-05
-4.04904e-05
-4.53271e-05
-4.95328e-05
-5.32378e-05
-5.68356e-05
-5.93628e-05
-6.10658e-05
-6.19039e-05
-6.19907e-05
-6.13258e-05
-5.97973e-05
-5.74418e-05
-5.40181e-05
-5.04631e-05
-4.64116e-05
-4.16918e-05
-3.55258e-05
-3.00002e-05
-2.53163e-05
-2.19832e-05
-1.98244e-05
-1.87722e-05
-1.86554e-05
-1.97736e-05
-1.54768e-05
-1.47305e-05
-1.46955e-05
-1.51658e-05
-1.62237e-05
-1.79519e-05
-2.05365e-05
-2.4127e-05
-2.89631e-05
-3.46532e-05
-4.09754e-05
-4.59939e-05
-5.0348e-05
-5.41414e-05
-5.78036e-05
-6.03598e-05
-6.20822e-05
-6.29283e-05
-6.30188e-05
-6.2353e-05
-6.08115e-05
-5.84324e-05
-5.49481e-05
-5.13066e-05
-4.71077e-05
-4.22059e-05
-3.6002e-05
-3.04079e-05
-2.57073e-05
-2.23481e-05
-2.01753e-05
-1.91201e-05
-1.90182e-05
-2.01841e-05
-1.56548e-05
-1.4891e-05
-1.48529e-05
-1.53289e-05
-1.64004e-05
-1.81489e-05
-2.0758e-05
-2.43805e-05
-2.92504e-05
-3.50032e-05
-4.13862e-05
-4.65177e-05
-5.09697e-05
-5.48318e-05
-5.85465e-05
-6.11337e-05
-6.28768e-05
-6.37337e-05
-6.38282e-05
-6.31594e-05
-6.16041e-05
-5.91996e-05
-5.56668e-05
-5.19587e-05
-4.76631e-05
-4.26476e-05
-3.63845e-05
-3.07293e-05
-2.59994e-05
-2.26153e-05
-2.04294e-05
-1.93709e-05
-1.92771e-05
-2.04702e-05
-1.57589e-05
-1.49898e-05
-1.49516e-05
-1.54313e-05
-1.6511e-05
-1.82731e-05
-2.09024e-05
-2.45544e-05
-2.94655e-05
-3.52744e-05
-4.17235e-05
-4.69281e-05
-5.14443e-05
-5.53623e-05
-5.91228e-05
-6.17457e-05
-6.35138e-05
-6.43856e-05
-6.44847e-05
-6.38099e-05
-6.22375e-05
-5.98035e-05
-5.6229e-05
-5.2467e-05
-4.81076e-05
-4.30174e-05
-3.66871e-05
-3.09747e-05
-2.6205e-05
-2.27938e-05
-2.05919e-05
-1.95264e-05
-1.94327e-05
-2.06344e-05
-1.57893e-05
-1.50274e-05
-1.49919e-05
-1.54732e-05
-1.65555e-05
-1.83239e-05
-2.09685e-05
-2.46469e-05
-2.9606e-05
-3.54666e-05
-4.19909e-05
-4.72373e-05
-5.17851e-05
-5.57462e-05
-5.95442e-05
-6.22065e-05
-6.40032e-05
-6.4894e-05
-6.49986e-05
-6.43158e-05
-6.27241e-05
-6.02584e-05
-5.66513e-05
-5.28487e-05
-4.84559e-05
-4.33201e-05
-3.69118e-05
-3.11459e-05
-2.63243e-05
-2.28837e-05
-2.06636e-05
-1.95877e-05
-1.94864e-05
-2.06781e-05
-1.57482e-05
-1.50061e-05
-1.49758e-05
-1.54552e-05
-1.65321e-05
-1.82957e-05
-2.09458e-05
-2.46418e-05
-2.96551e-05
-3.55611e-05
-4.21904e-05
-4.74401e-05
-5.19712e-05
-5.59554e-05
-5.97756e-05
-6.24782e-05
-6.43044e-05
-6.52175e-05
-6.53291e-05
-6.4638e-05
-6.30289e-05
-6.05333e-05
-5.69096e-05
-5.3087e-05
-4.8708e-05
-4.35605e-05
-3.70409e-05
-3.1223e-05
-2.63423e-05
-2.28773e-05
-2.06421e-05
-1.95566e-05
-1.94412e-05
-2.06029e-05
-1.56385e-05
-1.49279e-05
-1.49019e-05
-1.53695e-05
-1.64217e-05
-1.81517e-05
-2.07717e-05
-2.44451e-05
-2.94957e-05
-3.54331e-05
-4.22635e-05
-4.74554e-05
-5.18837e-05
-5.58306e-05
-5.96148e-05
-6.23318e-05
-6.4172e-05
-6.51038e-05
-6.52249e-05
-6.4534e-05
-6.29277e-05
-6.04329e-05
-5.68536e-05
-5.3074e-05
-4.87916e-05
-4.36831e-05
-3.69533e-05
-3.10959e-05
-2.61709e-05
-2.27184e-05
-2.04976e-05
-1.94209e-05
-1.92951e-05
-2.04083e-05
-1.54683e-05
-1.48019e-05
-1.47802e-05
-1.52269e-05
-1.62352e-05
-1.79008e-05
-2.04486e-05
-2.40465e-05
-2.91075e-05
-3.49756e-05
-4.22574e-05
-4.73103e-05
-5.14276e-05
-5.5305e-05
-5.90065e-05
-6.17091e-05
-6.3539e-05
-6.44824e-05
-6.46171e-05
-6.39422e-05
-6.23712e-05
-5.99161e-05
-5.64342e-05
-5.27367e-05
-4.8754e-05
-4.37413e-05
-3.65491e-05
-3.07542e-05
-2.58104e-05
-2.24197e-05
-2.02488e-05
-1.92011e-05
-1.90658e-05
-2.01054e-05
-1.52464e-05
-1.46327e-05
-1.46071e-05
-1.50078e-05
-1.59217e-05
-1.74314e-05
-1.97513e-05
-2.30449e-05
-2.78348e-05
-3.31843e-05
-4.20539e-05
-4.68149e-05
-5.0442e-05
-5.40711e-05
-5.74678e-05
-6.0037e-05
-6.17803e-05
-6.27057e-05
-6.28596e-05
-6.22424e-05
-6.07942e-05
-5.85119e-05
-5.5358e-05
-5.19367e-05
-4.84417e-05
-4.35914e-05
-3.48201e-05
-2.95483e-05
-2.4871e-05
-2.17681e-05
-1.97971e-05
-1.88607e-05
-1.87501e-05
-1.97028e-05
-1.4993e-05
-1.44423e-05
-1.44172e-05
-1.4774e-05
-1.55924e-05
-1.694e-05
-1.90076e-05
-2.1969e-05
-2.67566e-05
-3.25033e-05
-4.49032e-05
-4.50592e-05
-4.92515e-05
-5.33529e-05
-5.66927e-05
-5.924e-05
-6.09495e-05
-6.18759e-05
-6.20567e-05
-6.14959e-05
-6.01364e-05
-5.79404e-05
-5.48806e-05
-5.10292e-05
-4.68803e-05
-4.63553e-05
-3.42984e-05
-2.86014e-05
-2.39065e-05
-2.11068e-05
-1.93464e-05
-1.8515e-05
-1.84135e-05
-1.92496e-05
-1.47221e-05
-1.4233e-05
-1.41945e-05
-1.44749e-05
-1.51228e-05
-1.61331e-05
-1.7496e-05
-1.89264e-05
-1.94213e-05
-1.20268e-05
-5.96156e-05
-5.09237e-05
-5.21983e-05
-5.4495e-05
-5.6496e-05
-5.79538e-05
-5.88267e-05
-5.90383e-05
-5.85969e-05
-5.75493e-05
-5.598e-05
-5.40057e-05
-5.3078e-05
-6.18022e-05
-1.38383e-05
-2.14668e-05
-2.10296e-05
-1.97179e-05
-1.86083e-05
-1.80506e-05
-1.80294e-05
-1.8762e-05
-1.44622e-05
-1.40353e-05
-1.40054e-05
-1.42621e-05
-1.48612e-05
-1.58235e-05
-1.7221e-05
-1.90489e-05
-2.16648e-05
-2.59353e-05
-2.64212e-05
-4.20892e-05
-4.57452e-05
-4.96745e-05
-5.25542e-05
-5.50556e-05
-5.67387e-05
-5.77572e-05
-5.80092e-05
-5.75097e-05
-5.63157e-05
-5.43307e-05
-5.17789e-05
-4.82465e-05
-4.47027e-05
-3.00436e-05
-2.88442e-05
-2.43196e-05
-2.14572e-05
-1.95944e-05
-1.83547e-05
-1.77641e-05
-1.77019e-05
-1.83225e-05
-1.42245e-05
-1.38505e-05
-1.3825e-05
-1.4054e-05
-1.45914e-05
-1.54664e-05
-1.67531e-05
-1.8558e-05
-2.102e-05
-2.44246e-05
-3.01695e-05
-3.91115e-05
-4.2491e-05
-4.5755e-05
-4.83164e-05
-5.06165e-05
-5.21879e-05
-5.31867e-05
-5.34589e-05
-5.30223e-05
-5.196e-05
-5.01684e-05
-4.7808e-05
-4.48525e-05
-4.17121e-05
-3.3428e-05
-2.73617e-05
-2.37992e-05
-2.11017e-05
-1.9213e-05
-1.80236e-05
-1.74564e-05
-1.73841e-05
-1.79262e-05
-1.40275e-05
-1.37032e-05
-1.36941e-05
-1.39198e-05
-1.44362e-05
-1.52812e-05
-1.65361e-05
-1.83253e-05
-2.08327e-05
-2.42744e-05
-2.88923e-05
-3.46572e-05
-3.81081e-05
-4.11021e-05
-4.35601e-05
-4.58765e-05
-4.74495e-05
-4.8428e-05
-4.87063e-05
-4.83134e-05
-4.72732e-05
-4.55423e-05
-4.31807e-05
-4.03188e-05
-3.72055e-05
-3.21047e-05
-2.73731e-05
-2.37342e-05
-2.09646e-05
-1.90501e-05
-1.78454e-05
-1.72541e-05
-1.71436e-05
-1.76094e-05
-1.38781e-05
-1.36005e-05
-1.36121e-05
-1.38408e-05
-1.43375e-05
-1.51387e-05
-1.63149e-05
-1.79779e-05
-2.02623e-05
-2.33537e-05
-2.70946e-05
-3.14336e-05
-3.45734e-05
-3.73233e-05
-3.96902e-05
-4.18921e-05
-4.33924e-05
-4.43195e-05
-4.45936e-05
-4.42519e-05
-4.32932e-05
-4.1701e-05
-3.94725e-05
-3.68543e-05
-3.40081e-05
-3.02406e-05
-2.6433e-05
-2.31588e-05
-2.0627e-05
-1.88351e-05
-1.76893e-05
-1.71052e-05
-1.69687e-05
-1.73675e-05
-1.37819e-05
-1.3555e-05
-1.35996e-05
-1.38468e-05
-1.43399e-05
-1.51099e-05
-1.62114e-05
-1.77282e-05
-1.97472e-05
-2.23666e-05
-2.5448e-05
-2.8925e-05
-3.18672e-05
-3.46126e-05
-3.69615e-05
-3.90485e-05
-4.04824e-05
-4.13734e-05
-4.16391e-05
-4.13275e-05
-4.04438e-05
-3.89565e-05
-3.68631e-05
-3.43951e-05
-3.16503e-05
-2.8519e-05
-2.53483e-05
-2.25618e-05
-2.03354e-05
-1.87122e-05
-1.76399e-05
-1.706e-05
-1.68865e-05
-1.72097e-05
-1.37372e-05
-1.35708e-05
-1.36613e-05
-1.39418e-05
-1.44472e-05
-1.52036e-05
-1.62515e-05
-1.7651e-05
-1.94561e-05
-2.17159e-05
-2.43291e-05
-2.72403e-05
-2.99703e-05
-3.26023e-05
-3.48411e-05
-3.67564e-05
-3.81006e-05
-3.89243e-05
-3.91861e-05
-3.89119e-05
-3.80938e-05
-3.67372e-05
-3.48394e-05
-3.2577e-05
-3.00008e-05
-2.72705e-05
-2.45649e-05
-2.21675e-05
-2.0208e-05
-1.87352e-05
-1.7722e-05
-1.71304e-05
-1.6902e-05
-1.71328e-05
-1.37295e-05
-1.363e-05
-1.37619e-05
-1.40789e-05
-1.46078e-05
-1.53726e-05
-1.64039e-05
-1.77487e-05
-1.94455e-05
-2.15091e-05
-2.38696e-05
-2.64631e-05
-2.90334e-05
-3.15243e-05
-3.36781e-05
-3.5475e-05
-3.67596e-05
-3.7542e-05
-3.77976e-05
-3.75393e-05
-3.67623e-05