/*--------------------------------*- C++ -*----------------------------------*\
| =========                 |                                                 |
| \\      /  F ield         | OpenFOAM: The Open Source CFD Toolbox           |
|  \\    /   O peration     | Version:  2112                                  |
|   \\  /    A nd           | Website:  www.openfoam.com                      |
|    \\/     M anipulation  |                                                 |
\*---------------------------------------------------------------------------*/
FoamFile
{
    version     2.0;
    format      ascii;
    arch        "LSB;label=32;scalar=64";
    class       surfaceScalarField;
    location    "1.3";
    object      phi;
}
// * * * * * * * * * * * * * * * * * * * * * * * * * * * * * * * * * * * * * //

dimensions      [0 3 -1 0 0 0 0];

oriented        oriented;

internalField   nonuniform List<scalar> 
188215
(
1.1386e-09
2.76552e-09
-3.90412e-09
3.21068e-09
2.16856e-09
-4.24064e-09
5.49995e-09
1.7576e-09
-4.04687e-09
7.77523e-09
1.58525e-09
-3.86053e-09
9.96978e-09
1.66194e-09
-3.85649e-09
1.20663e-08
1.91956e-09
-4.01605e-09
1.40449e-08
2.31959e-09
-4.29822e-09
1.58427e-08
2.873e-09
-4.67079e-09
1.73684e-08
3.58963e-09
-5.11537e-09
1.84128e-08
4.55997e-09
-5.60437e-09
1.88324e-08
5.70723e-09
-6.12679e-09
1.83128e-08
7.16815e-09
-6.64859e-09
1.69686e-08
8.48181e-09
-7.13754e-09
1.48265e-08
9.70081e-09
-7.55871e-09
1.20685e-08
1.06698e-08
-7.91182e-09
8.82279e-09
1.14299e-08
-8.18416e-09
5.26151e-09
1.19362e-08
-8.37491e-09
1.54463e-09
1.21965e-08
-8.47965e-09
-2.15956e-09
1.22018e-08
-8.49764e-09
-5.68318e-09
1.19523e-08
-8.42872e-09
-8.86695e-09
1.14576e-08
-8.27388e-09
-1.15396e-08
1.07103e-08
-8.03768e-09
-1.35758e-08
9.75728e-09
-7.72103e-09
-1.47961e-08
8.5577e-09
-7.3374e-09
-1.51802e-08
7.2718e-09
-6.88775e-09
-1.46152e-08
5.84502e-09
-6.40997e-09
-1.34243e-08
4.74904e-09
-5.94e-09
-1.17447e-08
3.84165e-09
-5.52118e-09
-9.7841e-09
3.22048e-09
-5.1811e-09
-7.63032e-09
2.82725e-09
-4.98104e-09
-5.36076e-09
2.71902e-09
-4.98857e-09
-3.06988e-09
2.96085e-09
-5.25173e-09
-1.0175e-09
3.50801e-09
-5.56039e-09
4.18708e-09
-5.20457e-09
1.90596e-10
7.36119e-09
-4.78627e-09
2.59696e-09
7.51493e-09
-7.75273e-09
5.44632e-09
7.49581e-09
-8.58756e-09
8.12334e-09
7.75874e-09
-8.85051e-09
1.05832e-08
8.44534e-09
-9.24325e-09
1.28798e-08
9.52645e-09
-9.9035e-09
1.50445e-08
1.0988e-08
-1.08331e-08
1.70425e-08
1.28914e-08
-1.20164e-08
1.87848e-08
1.52907e-08
-1.34433e-08
2.00317e-08
1.84159e-08
-1.51028e-08
2.05915e-08
2.21002e-08
-1.69528e-08
2.00295e-08
2.66523e-08
-1.89221e-08
1.85336e-08
3.07875e-08
-2.08098e-08
1.6158e-08
3.45816e-08
-2.25052e-08
1.31232e-08
3.76348e-08
-2.39303e-08
9.56765e-09
4.003e-08
-2.50445e-08
5.67595e-09
4.1644e-08
-2.58161e-08
1.61901e-09
4.24822e-08
-2.62287e-08
-2.42408e-09
4.25173e-08
-2.62724e-08
-6.2742e-09
4.17498e-08
-2.59473e-08
-9.76119e-09
4.02084e-08
-2.52638e-08
-1.27012e-08
3.78891e-08
-2.42387e-08
-1.49589e-08
3.49199e-08
-2.2905e-08
-1.63159e-08
3.12196e-08
-2.13049e-08
-1.67256e-08
2.72007e-08
-1.95191e-08
-1.60005e-08
2.27834e-08
-1.76635e-08
-1.45845e-08
1.92794e-08
-1.59463e-08
-1.26506e-08
1.63589e-08
-1.44512e-08
-1.04115e-08
1.42244e-08
-1.32429e-08
-7.90259e-09
1.26837e-08
-1.23654e-08
-5.1072e-09
1.17535e-08
-1.18299e-08
-2.09536e-09
1.14157e-08
-1.14667e-08
3.5061e-10
1.14476e-08
-1.03855e-08
1.10402e-08
-6.50249e-09
-3.36216e-10
1.25183e-08
-4.82089e-09
2.32774e-09
1.35299e-08
-8.67891e-09
5.65174e-09
1.40845e-08
-9.91273e-09
8.76324e-09
1.50109e-08
-1.03636e-08
1.15985e-08
1.65197e-08
-1.09095e-08
1.42549e-08
1.86321e-08
-1.17621e-08
1.6819e-08
2.13817e-08
-1.29577e-08
1.92969e-08
2.49134e-08
-1.44999e-08
2.16123e-08
2.93687e-08
-1.63935e-08
2.34267e-08
3.52436e-08
-1.86421e-08
2.44275e-08
4.22939e-08
-2.11944e-08
2.37497e-08
5.12721e-08
-2.39421e-08
2.18709e-08
5.92494e-08
-2.65831e-08
1.89247e-08
6.6473e-08
-2.89452e-08
1.52639e-08
7.22177e-08
-3.09221e-08
1.10295e-08
7.67218e-08
-3.24574e-08
6.43359e-09
7.97549e-08
-3.35149e-08
1.65805e-09
8.13337e-08
-3.4076e-08
-3.10281e-09
8.14062e-08
-3.4128e-08
-7.65444e-09
7.99725e-08
-3.36711e-08
-1.18151e-08
7.70872e-08
-3.27182e-08
-1.53722e-08
7.27348e-08
-3.12886e-08
-1.8187e-08
6.71539e-08
-2.94192e-08
-1.99071e-08
6.0109e-08
-2.71693e-08
-2.04079e-08
5.23494e-08
-2.46479e-08
-1.92088e-08
4.36189e-08
-2.20346e-08
-1.71919e-08
3.69023e-08
-1.96399e-08
-1.46305e-08
3.13853e-08
-1.75879e-08
-1.18152e-08
2.73629e-08
-1.59539e-08
-8.73613e-09
2.43688e-08
-1.47642e-08
-5.32256e-09
2.23239e-08
-1.3984e-08
-1.65709e-09
2.10945e-08
-1.33442e-08
1.18387e-09
2.03492e-08
-1.17426e-08
1.88471e-08
-6.62302e-09
-4.70071e-10
1.76583e-08
-4.66996e-09
2.60358e-09
1.92891e-08
-8.83286e-09
6.49933e-09
2.03787e-08
-1.01899e-08
1.01983e-08
2.19874e-08
-1.06755e-08
1.36165e-08
2.43721e-08
-1.12706e-08
1.68963e-08
2.75802e-08
-1.22278e-08
2.01997e-08
3.16853e-08
-1.36071e-08
2.36153e-08
3.6935e-08
-1.54372e-08
2.7107e-08
4.3621e-08
-1.7744e-08
3.01652e-08
5.27459e-08
-2.05606e-08
3.21658e-08
6.41163e-08
-2.3823e-08
3.11926e-08
7.96612e-08
-2.74159e-08
2.84584e-08
9.28389e-08
-3.08552e-08
2.43332e-08
1.04505e-07
-3.39067e-08
1.94318e-08
1.13559e-07
-3.64402e-08
1.38706e-08
1.20662e-07
-3.83787e-08
7.90249e-09
1.25425e-07
-3.97022e-08
1.72763e-09
1.27906e-07
-4.03978e-08
-4.43178e-09
1.28018e-07
-4.04527e-08
-1.03528e-08
1.2576e-07
-3.98668e-08
-1.58343e-08
1.21222e-07
-3.86529e-08
-2.06204e-08
1.14345e-07
-3.68242e-08
-2.45946e-08
1.05529e-07
-3.44008e-08
-2.71382e-08
9.41152e-08
-3.14626e-08
-2.78927e-08
8.12465e-08
-2.81426e-08
-2.56368e-08
6.60477e-08
-2.46847e-08
-2.23308e-08
5.51798e-08
-2.15835e-08
-1.85274e-08
4.65559e-08
-1.8974e-08
-1.467e-08
4.04531e-08
-1.69475e-08
-1.06873e-08
3.5892e-08
-1.55059e-08
-6.43416e-09
3.26563e-08
-1.45855e-08
-1.99431e-09
3.05128e-08
-1.38582e-08
1.37337e-09
2.90648e-08
-1.20833e-08
2.67422e-08
-6.52173e-09
-2.21253e-10
2.24883e-08
-4.60871e-09
3.40923e-09
2.46927e-08
-9.03412e-09
8.06016e-09
2.6238e-08
-1.05103e-08
1.25467e-08
2.85285e-08
-1.10277e-08
1.67773e-08
3.18419e-08
-1.17004e-08
2.09647e-08
3.62212e-08
-1.28284e-08
2.53965e-08
4.17564e-08
-1.45029e-08
3.03468e-08
4.8783e-08
-1.67984e-08
3.59206e-08
5.782e-08
-1.97727e-08
4.14164e-08
7.07681e-08
-2.35179e-08
4.55193e-08
8.79468e-08
-2.79334e-08
4.38149e-08
1.14363e-07
-3.29969e-08
3.93522e-08
1.35093e-07
-3.77912e-08
3.31195e-08
1.52773e-07
-4.20353e-08
2.61622e-08
1.66059e-07
-4.55425e-08
1.84481e-08
1.76529e-07
-4.8153e-08
1.02667e-08
1.83524e-07
-4.99172e-08
1.83698e-09
1.87171e-07
-5.08347e-08
-6.57702e-09
1.87327e-07
-5.08943e-08
-1.47098e-08
1.83989e-07
-5.00956e-08
-2.23399e-08
1.77301e-07
-4.84489e-08
-2.91702e-08
1.6713e-07
-4.59546e-08
-3.52285e-08
1.54148e-07
-4.25605e-08
-3.94563e-08
1.36773e-07
-3.84301e-08
-4.08786e-08
1.16421e-07
-3.37521e-08
-3.64281e-08
9.04181e-08
-2.8821e-08
-3.06372e-08
7.39578e-08
-2.45688e-08
-2.4685e-08
6.16447e-08
-2.1041e-08
-1.91845e-08
5.33233e-08
-1.83707e-08
-1.39009e-08
4.71191e-08
-1.65107e-08
-8.50918e-09
4.26287e-08
-1.53642e-08
-3.0288e-09
3.95571e-08
-1.45247e-08
1.14015e-09
3.74588e-08
-1.25629e-08
3.44416e-08
-6.55927e-09
1.46354e-10
2.69513e-08
-4.60941e-09
4.6501e-09
2.96586e-08
-9.46958e-09
1.03234e-08
3.16661e-08
-1.11014e-08
1.58443e-08
3.4695e-08
-1.16874e-08
2.1133e-08
3.90544e-08
-1.25012e-08
2.65046e-08
4.47569e-08
-1.39073e-08
3.24455e-08
5.18608e-08
-1.60452e-08
3.96247e-08
6.06687e-08
-1.90649e-08
4.85684e-08
7.19269e-08
-2.30506e-08
5.86861e-08
8.88256e-08
-2.81753e-08
6.72481e-08
1.135e-07
-3.41148e-08
6.37975e-08
1.59258e-07
-4.14444e-08
5.59977e-08
1.91239e-07
-4.83465e-08
4.62632e-08
2.17071e-07
-5.45639e-08
3.61919e-08
2.35855e-07
-5.97244e-08
2.52678e-08
2.50823e-07
-6.33699e-08
1.37859e-08
2.6081e-07
-6.58043e-08
1.98956e-09
2.66025e-07
-6.7058e-08
-9.79225e-09
2.66235e-07
-6.71267e-08
-2.12284e-08
2.61435e-07
-6.60099e-08
-3.20713e-08
2.51853e-07
-6.37092e-08
-4.2012e-08
2.37264e-07
-6.01937e-08
-5.15538e-08
2.18844e-07
-5.51545e-08
-5.90672e-08
1.9334e-07
-4.90539e-08
-6.21438e-08
1.61763e-07
-4.22653e-08
-5.30764e-08
1.16411e-07
-3.50602e-08
-4.26335e-08
9.2802e-08
-2.92871e-08
-3.32552e-08
7.66589e-08
-2.43925e-08
-2.54078e-08
6.62169e-08
-2.0741e-08
-1.8408e-08
5.83347e-08
-1.82154e-08
-1.15358e-08
5.24484e-08
-1.66919e-08
-4.67518e-09
4.83404e-08
-1.5644e-08
5.85736e-10
4.55716e-08
-1.33737e-08
4.17982e-08
-6.77088e-09
6.293e-10
3.0957e-08
-4.6349e-09
6.32202e-09
3.40918e-08
-1.0126e-08
1.33317e-08
3.6623e-08
-1.19665e-08
2.01805e-08
4.05121e-08
-1.26658e-08
2.67962e-08
4.61282e-08
-1.36896e-08
3.36074e-08
5.34359e-08
-1.54902e-08
4.13638e-08
6.23798e-08
-1.82754e-08
5.14598e-08
7.28767e-08
-2.2304e-08
6.54405e-08
8.55979e-08
-2.76517e-08
8.38607e-08
1.04885e-07
-3.44794e-08
1.02235e-07
1.36998e-07
-4.18731e-08
9.43903e-08
2.19222e-07
-5.21193e-08
8.01414e-08
2.67158e-07
-6.16697e-08
6.48604e-08
3.03156e-07
-7.0804e-08
5.03639e-08
3.28901e-07
-7.85494e-08
3.49262e-08
3.49745e-07
-8.3484e-08
1.87729e-08
3.63728e-07
-8.67643e-08
2.19424e-09
3.71045e-07
-8.84413e-08
-1.43738e-08
3.71328e-07
-8.85247e-08
-3.04925e-08
3.64567e-07
-8.70137e-08
-4.58674e-08
3.51121e-07
-8.38932e-08
-6.02518e-08
3.30761e-07
-7.9112e-08
-7.53457e-08
3.0544e-07
-7.15016e-08
-8.92629e-08
2.69749e-07
-6.24912e-08
-9.66066e-08
2.2216e-07
-5.3053e-08
-7.74273e-08
1.40147e-07
-4.29149e-08
-5.87219e-08
1.0979e-07
-3.56939e-08
-4.4288e-08
9.13305e-08
-2.91055e-08
-3.33915e-08
7.94475e-08
-2.41272e-08
-2.43083e-08
6.99133e-08
-2.06617e-08
-1.55912e-08
6.23239e-08
-1.85926e-08
-6.92929e-09
5.69059e-08
-1.72274e-08
-1.551e-10
5.33232e-08
-1.45258e-08
4.87024e-08
-7.0593e-09
1.32511e-09
3.43113e-08
-4.67948e-09
8.51459e-09
3.78453e-08
-1.09429e-08
1.72416e-08
4.09602e-08
-1.30641e-08
2.58016e-08
4.58721e-08
-1.39201e-08
3.40786e-08
5.3072e-08
-1.52207e-08
4.25159e-08
6.25308e-08
-1.75321e-08
5.19924e-08
7.40511e-08
-2.11478e-08
6.48017e-08
8.65422e-08
-2.64748e-08
8.43344e-08
9.94824e-08
-3.34172e-08
1.16741e-07
1.14807e-07
-4.23295e-08
1.56961e-07
1.44955e-07
-4.81767e-08
1.39035e-07
2.97093e-07
-5.99459e-08
1.13941e-07
3.64843e-07
-7.25909e-08
9.09202e-08
4.12188e-07
-8.60109e-08
7.0534e-08
4.46846e-07
-9.75591e-08
4.88165e-08
4.75173e-07
-1.0371e-07
2.59597e-08
4.94377e-07
-1.07793e-07
2.46955e-09
5.04408e-07
-1.09873e-07
-2.10174e-08
5.04789e-07
-1.09975e-07
-4.38631e-08
4.95509e-07
-1.08096e-07
-6.55628e-08
4.77027e-07
-1.04206e-07
-8.5903e-08
4.4934e-07
-9.82391e-08
-1.08815e-07
4.15196e-07
-8.68449e-08
-1.33605e-07
3.68102e-07
-7.35626e-08
-1.50861e-07
3.00469e-07
-6.10543e-08
-1.09218e-07
1.47846e-07
-4.93425e-08
-7.67802e-08
1.21013e-07
-4.366e-08
-5.68138e-08
1.06362e-07
-3.49984e-08
-4.3036e-08
9.41462e-08
-2.84764e-08
-3.18761e-08
8.255e-08
-2.37967e-08
-2.09785e-08
7.24463e-08
-2.10199e-08
-9.96679e-09
6.51339e-08
-1.92398e-08
-1.00488e-09
6.03869e-08
-1.60256e-08
5.49887e-08
-7.29118e-09
2.22567e-09
3.68122e-08
-4.72653e-09
1.12718e-08
4.06981e-08
-1.18989e-08
2.21625e-08
4.444e-08
-1.43706e-08
3.29243e-08
5.05333e-08
-1.54229e-08
4.33385e-08
5.9715e-08
-1.70573e-08
5.36619e-08
7.21707e-08
-1.99633e-08
6.44677e-08
8.77722e-08
-2.45268e-08
7.85156e-08
1.03779e-07
-3.12851e-08
1.01612e-07
1.16748e-07
-4.03626e-08
1.52181e-07
1.14539e-07
-5.03006e-08
2.39011e-07
1.16509e-07
-5.8383e-08
1.97617e-07
3.9908e-07
-6.0593e-08
1.56059e-07
4.7995e-07
-7.35494e-08
1.2437e-07
5.35897e-07
-9.20195e-08
9.70048e-08
5.82186e-07
-1.07976e-07
6.73198e-08
6.19412e-07
-1.14555e-07
3.56017e-08
6.45385e-07
-1.19289e-07
2.84546e-09
6.5883e-07
-1.21665e-07
-2.99187e-08
6.59333e-07
-1.2178e-07
-6.16634e-08
6.46886e-07
-1.19633e-07
-9.1411e-08
6.21885e-07
-1.15111e-07
-1.18872e-07
5.85541e-07
-1.08739e-07
-1.50673e-07
5.39943e-07
-9.29454e-08
-1.92142e-07
4.84207e-07
-7.4637e-08
-2.32691e-07
4.02866e-07
-6.18477e-08
-1.43272e-07
1.18337e-07
-5.99096e-08
-9.34379e-08
1.22975e-07
-5.17963e-08
-6.99068e-08
1.24903e-07
-4.20718e-08
-5.46501e-08
1.12383e-07
-3.34938e-08
-4.16652e-08
9.70519e-08
-2.74868e-08
-2.81364e-08
8.28317e-08
-2.39142e-08
-1.40709e-08
7.27243e-08
-2.16559e-08
-2.2989e-09
6.64093e-08
-1.77944e-08
6.02045e-08
-7.51465e-09
3.40389e-09
3.81625e-08
-4.75417e-09
1.47865e-08
4.22945e-08
-1.2979e-08
2.85166e-08
4.6577e-08
-1.58671e-08
4.24085e-08
5.3795e-08
-1.71536e-08
5.61854e-08
6.5113e-08
-1.91749e-08
6.96039e-08
8.14841e-08
-2.27319e-08
8.17391e-08
1.03847e-07
-2.821e-08
9.16613e-08
1.30553e-07
-3.6696e-08
1.00057e-07
1.55201e-07
-4.68486e-08
1.41399e-07
1.35196e-07
-6.19979e-08
3.42358e-07
-8.44509e-08
2.6482e-07
5.18613e-07
-4.19947e-08
2.10903e-07
5.8322e-07
-4.93535e-08
1.73202e-07
6.41324e-07
-6.7726e-08
1.3733e-07
7.02455e-07
-8.43962e-08
9.55169e-08
7.49418e-07
-8.81921e-08
5.01309e-08
7.82478e-07
-9.17072e-08
3.36059e-09
7.99136e-07
-9.35356e-08
-4.3425e-08
7.99752e-07
-9.36335e-08
-8.88685e-08
7.84331e-07
-9.20011e-08
-1.30832e-07
7.52507e-07
-8.86583e-08
-1.66997e-07
7.0676e-07
-8.50544e-08
-2.0529e-07
6.46753e-07
-6.85173e-08
-2.60112e-07
5.89329e-07
-5.02993e-08
-3.37465e-07
5.23555e-07
-4.33359e-08
-1.32312e-07
-8.68158e-08
-9.09105e-08
1.44788e-07
-6.32148e-08
-8.27351e-08
1.65244e-07
-4.85166e-08
-7.12675e-08
1.40016e-07
-3.91004e-08
-5.62739e-08
1.13587e-07
-3.15282e-08
-3.87066e-08
9.2507e-08
-2.72426e-08
-2.01026e-08
7.8608e-08
-2.44877e-08
-4.33753e-09
7.04877e-08
-1.98435e-08
6.35363e-08
-7.66935e-09
4.74993e-09
3.81924e-08
-4.77984e-09
1.88048e-08
4.24085e-08
-1.41688e-08
3.58953e-08
4.70272e-08
-1.75407e-08
5.37784e-08
5.50286e-08
-1.91166e-08
7.24491e-08
6.80461e-08
-2.16038e-08
9.15832e-08
8.81365e-08
-2.57866e-08
1.08354e-07
1.18986e-07
-3.19098e-08
1.1321e-07
1.65041e-07
-3.93436e-08
9.04955e-08
2.32014e-07
-5.40995e-08
3.11707e-07
-8.60155e-08
1.67477e-07
2.91753e-07
5.93824e-08
2.26876e-07
4.98366e-07
2.54555e-08
2.23687e-07
6.24622e-07
1.98918e-08
1.84269e-07
7.19388e-07
2.24847e-08
1.2913e-07
7.83771e-07
2.07852e-08
6.77988e-08
8.25005e-07
1.88038e-08
4.04933e-09
8.44916e-07
1.79686e-08
-5.97211e-08
8.45553e-07
1.79694e-08
-1.21132e-07
8.26937e-07
1.88046e-08
-1.76484e-07
7.87064e-07
2.07952e-08
-2.16407e-07
7.24184e-07
2.24986e-08
-2.20813e-07
6.31197e-07
1.99627e-08
-1.63831e-07
5.07062e-07
2.52841e-08
3.01383e-07
5.83417e-08
-8.76351e-08
3.17121e-07
-8.46978e-08
-1.06737e-07
2.39771e-07
-5.5425e-08
-9.82845e-08
1.73505e-07
-4.19408e-08
-7.73135e-08
1.28273e-07
-3.56571e-08
-5.2752e-08
9.89305e-08
-3.0985e-08
-2.7796e-08
8.14582e-08
-2.78062e-08
-6.92276e-09
7.18437e-08
-2.22293e-08
6.44529e-08
-7.83935e-09
6.3718e-09
3.66148e-08
-4.79419e-09
2.35791e-08
4.06233e-08
-1.54221e-08
4.49815e-08
4.49353e-08
-1.93104e-08
6.89235e-08
5.23101e-08
-2.12235e-08
9.7234e-08
6.40437e-08
-2.43082e-08
1.33378e-07
8.14859e-08
-2.94938e-08
1.82861e-07
1.06512e-07
-3.70086e-08
2.53051e-07
1.39911e-07
-4.50603e-08
3.57088e-07
1.78828e-07
-5.08508e-08
5.00343e-07
2.10771e-07
-4.23188e-08
3.87892e-07
8.08227e-08
3.16279e-08
4.14338e-07
2.19089e-07
4.62183e-08
4.05697e-07
3.79586e-07
1.2742e-07
3.50115e-07
4.9002e-07
1.90184e-07
2.68959e-07
5.74016e-07
2.26527e-07
1.80908e-07
6.31013e-07
2.4081e-07
9.25871e-08
6.67209e-07
2.46118e-07
4.77056e-09
6.84713e-07
2.4802e-07
-8.30306e-08
6.85262e-07
2.48093e-07
-1.71303e-07
6.68869e-07
2.46341e-07
-2.59276e-07
6.33829e-07
2.41208e-07
-3.40309e-07
5.78059e-07
2.27158e-07
-3.95759e-07
4.95384e-07
1.91263e-07
-4.03844e-07
3.86111e-07
1.29036e-07
-3.77817e-07
2.26421e-07
4.89349e-08
-4.95309e-07
8.32143e-08
3.42773e-08
-3.51786e-07
2.15466e-07
-4.18688e-08
-2.45418e-07
1.85477e-07
-5.20739e-08
-1.71903e-07
1.476e-07
-4.76103e-08
-1.17744e-07
1.15245e-07
-4.1131e-08
-7.51605e-08
9.18121e-08
-3.54649e-08
-3.90833e-08
7.69633e-08
-3.15823e-08
-1.08199e-08
6.85104e-08
-2.49301e-08
6.16288e-08
-7.9959e-09
7.75527e-09
3.36778e-08
-4.81827e-09
2.77007e-08
3.72927e-08
-1.66149e-08
5.2624e-08
4.10235e-08
-2.10115e-08
8.09448e-08
4.72558e-08
-2.32666e-08
1.15082e-07
5.68455e-08
-2.69385e-08
1.59328e-07
7.03851e-08
-3.31455e-08
2.19771e-07
8.82563e-08
-4.21875e-08
3.02718e-07
1.09728e-07
-5.27637e-08
4.12404e-07
1.30362e-07
-6.12196e-08
5.38094e-07
1.43996e-07
-5.8915e-08
5.48218e-07
1.04419e-07
-3.37201e-08
5.6809e-07
1.82834e-07
1.63831e-08
5.24284e-07
2.79963e-07
1.43429e-07
4.35774e-07
3.55301e-07
2.23229e-07
3.28767e-07
4.15317e-07
2.65707e-07
2.18755e-07
4.56775e-07
2.84251e-07
1.11021e-07
4.83655e-07
2.91287e-07
5.32651e-09
4.96771e-07
2.93637e-07
-1.00341e-07
4.97225e-07
2.93705e-07
-2.07989e-07
4.85021e-07
2.91495e-07
-3.17856e-07
4.59064e-07
2.84632e-07
-4.24663e-07
4.18531e-07
2.66335e-07
-5.13055e-07
3.59426e-07
2.24349e-07
-5.56937e-07
2.84793e-07
1.452e-07
-5.3801e-07
1.88072e-07
1.94224e-08
-5.30903e-07
1.0788e-07
-3.17731e-08
-4.05745e-07
1.48827e-07
-5.85185e-08
-2.94239e-07
1.3633e-07
-6.23593e-08
-2.07902e-07
1.16666e-07
-5.54034e-08
-1.42257e-07
9.6265e-08
-4.6665e-08
-9.06129e-08
7.99588e-08
-3.97909e-08
-4.73547e-08
6.88289e-08
-3.51238e-08
-1.36036e-08
6.21719e-08
-2.74126e-08
5.61999e-08
-8.17462e-09
8.9709e-09
2.95454e-08
-4.83854e-09
3.13052e-08
3.26317e-08
-1.76732e-08
5.92183e-08
3.56207e-08
-2.25103e-08
9.1034e-08
4.04832e-08
-2.50431e-08
1.29333e-07
4.77371e-08
-2.91904e-08
1.78435e-07
5.75478e-08
-3.62651e-08
2.43728e-07
6.97303e-08
-4.67665e-08
3.2994e-07
8.36058e-08
-6.00898e-08
4.37098e-07
9.60712e-08
-7.28669e-08
5.52755e-07
1.06282e-07
-7.79434e-08
6.1593e-07
1.01255e-07
-6.00114e-08
6.53399e-07
1.4576e-07
-3.9477e-10
6.00146e-07
2.02655e-07
1.30562e-07
4.95932e-07
2.50784e-07
2.08731e-07
3.71519e-07
2.90677e-07
2.49053e-07
2.46053e-07
3.18873e-07
2.63368e-07
1.24475e-07
3.37619e-07
2.67613e-07
5.78423e-09
3.46903e-07
2.68559e-07
-1.12875e-07
3.47287e-07
2.68598e-07
-2.34356e-07
3.38766e-07
2.67736e-07
-3.59666e-07
3.20769e-07
2.63605e-07
-4.83899e-07
2.93287e-07
2.49478e-07
-5.8813e-07
2.54059e-07
2.09598e-07
-6.4182e-07
2.06419e-07
1.32064e-07
-6.0617e-07
1.49835e-07
2.5876e-09
-5.44902e-07
1.04927e-07
-5.83142e-08
-4.29449e-07
1.10791e-07
-7.7417e-08
-3.20548e-07
1.01358e-07
-7.39294e-08
-2.30818e-07
8.97316e-08
-6.27953e-08
-1.59875e-07
7.68502e-08
-5.15277e-08
-1.02556e-07
6.6087e-08
-4.34475e-08
-5.39937e-08
5.83654e-08
-3.8099e-08
-1.5864e-08
5.35456e-08
-2.95034e-08
4.86436e-08
-8.30772e-09
9.87487e-09
2.45488e-08
-4.87828e-09
3.40401e-08
2.70366e-08
-1.85701e-08
6.41406e-08
2.9291e-08
-2.37708e-08
9.82777e-08
3.28704e-08
-2.65244e-08
1.38966e-07
3.80877e-08
-3.1039e-08
1.9035e-07
4.49351e-08
-3.87713e-08
2.57301e-07
5.31266e-08
-5.03471e-08
3.44112e-07
6.22823e-08
-6.54873e-08
4.50196e-07
7.07808e-08
-8.07938e-08
5.65722e-07
7.97437e-08
-8.8988e-08
6.53708e-07
8.53623e-08
-7.20933e-08
7.03116e-07
1.12532e-07
-1.61813e-08
6.45611e-07
1.46885e-07
1.13275e-07
5.33279e-07
1.77418e-07
1.85696e-07
3.99165e-07
2.03476e-07
2.21315e-07
2.64294e-07
2.2247e-07
2.31274e-07
1.33652e-07
2.35346e-07
2.32915e-07
6.16137e-09
2.41837e-07
2.32557e-07
-1.21304e-07
2.42181e-07
2.32571e-07
-2.51867e-07
2.36369e-07
2.32959e-07
-3.86618e-07
2.24142e-07
2.31377e-07
-5.2062e-07
2.05742e-07
2.21547e-07
-6.33088e-07
1.80206e-07
1.86321e-07
-6.91253e-07
1.50061e-07
1.14523e-07
-6.43862e-07
1.16025e-07
-1.3581e-08
-5.5729e-07
8.88622e-08
-7.05071e-08
-4.41784e-07
8.37894e-08
-8.85056e-08
-3.33903e-07
7.53807e-08
-8.19036e-08
-2.43405e-07
6.75496e-08
-6.83162e-08
-1.70414e-07
5.92253e-08
-5.53657e-08
-1.10151e-07
5.22088e-08
-4.63846e-08
-5.83192e-08
4.70377e-08
-4.05043e-08
-1.72614e-08
4.3697e-08
-3.12092e-08
3.98731e-08
-8.49098e-09
1.05399e-08
1.89358e-08
-4.92685e-09
3.60745e-08
2.07904e-08
-1.92885e-08
6.77755e-08
2.23571e-08
-2.4767e-08
1.03529e-07
2.47966e-08
-2.768e-08
1.45763e-07
2.83095e-08
-3.24555e-08
1.98484e-07
3.28618e-08
-4.06474e-08
2.66306e-07
3.82605e-08
-5.29564e-08
3.53464e-07
4.43809e-08
-6.9257e-08
4.59809e-07
5.05377e-08
-8.61017e-08
5.77762e-07
5.7893e-08
-9.61017e-08
6.77676e-07
6.52794e-08
-7.98312e-08
7.33516e-07
8.24056e-08
-2.57137e-08
6.74711e-07
1.03571e-07
1.0212e-07
5.58043e-07
1.22958e-07
1.71128e-07
4.17915e-07
1.39778e-07
2.03826e-07
2.76888e-07
1.5235e-07
2.11147e-07
1.4009e-07
1.60994e-07
2.11149e-07
6.50192e-09
1.65443e-07
2.09982e-07
-1.27071e-07
1.65772e-07
2.09982e-07
-2.63822e-07
1.61967e-07
2.11152e-07
-4.04783e-07
1.53924e-07
2.11179e-07
-5.44876e-07
1.41881e-07
2.03954e-07
-6.61786e-07
1.25498e-07
1.71617e-07
-7.21362e-07
1.06428e-07
1.03209e-07
-6.6763e-07
8.55024e-08
-2.32094e-08
-5.68893e-07
6.84775e-08
-7.83523e-08
-4.50842e-07
6.14257e-08
-9.5688e-08
-3.42598e-07
5.44325e-08
-8.72956e-08
-2.51577e-07
4.87456e-08
-7.22171e-08
-1.77392e-07
4.32352e-08
-5.81942e-08
-1.15285e-07
3.86997e-08
-4.85986e-08
-6.12607e-08
3.53574e-08
-4.23435e-08
-1.81838e-08
3.31557e-08
-3.25357e-08
3.03639e-08
-8.67462e-09
1.09739e-08
1.29493e-08
-4.98734e-09
3.7439e-08
1.41552e-08
-1.98299e-08
7.02116e-08
1.50892e-08
-2.55047e-08
1.07013e-07
1.65202e-08
-2.85249e-08
1.50212e-07
1.85811e-08
-3.34711e-08
2.03762e-07
2.12672e-08
-4.19553e-08
2.72224e-07
2.45122e-08
-5.47133e-08
3.59946e-07
2.83331e-08
-7.16741e-08
4.67283e-07
3.25473e-08
-8.93465e-08
5.87551e-07
3.78612e-08
-1.00236e-07
6.93299e-07
4.3969e-08
-8.44372e-08
7.52638e-07
5.42537e-08
-3.11875e-08
6.93188e-07
6.65155e-08
9.65051e-08
5.73997e-07
7.79066e-08
1.64243e-07
4.30229e-07
8.78299e-08
1.95717e-07
2.85303e-07
9.5416e-08
2.0186e-07
1.44476e-07
1.00698e-07
2.01123e-07
6.82495e-09
1.03507e-07
1.99587e-07
-1.30825e-07
1.0384e-07
1.99582e-07
-2.71649e-07
1.01681e-07
2.0111e-07
-4.16579e-07
9.69896e-08
2.01864e-07
-5.60405e-07
8.99047e-08
1.95803e-07
-6.79941e-07
8.03616e-08
1.64672e-07
-7.40249e-07
6.92184e-08
9.75182e-08
-6.83064e-07
5.7092e-08
-2.87743e-08
-5.78388e-07
4.68521e-08
-8.30512e-08
-4.57939e-07
4.08884e-08
-9.99115e-08
-3.48609e-07
3.57452e-08
-9.06427e-08
-2.5688e-07
3.17825e-08
-7.47654e-08
-1.81818e-07
2.83105e-08
-6.01379e-08
-1.18522e-07
2.55748e-08
-5.01707e-08
-6.30935e-08
2.3606e-08
-4.36776e-08
-1.87204e-08
2.23035e-08
-3.3521e-08
2.05071e-08
-8.86354e-09
1.12188e-08
6.78339e-09
-5.05289e-09
3.82336e-08
7.33422e-09
-2.01939e-08
7.1643e-08
7.66661e-09
-2.59868e-08
1.09073e-07
8.15883e-09
-2.90685e-08
1.52872e-07
8.89306e-09
-3.41108e-08
2.06987e-07
9.90978e-09
-4.27579e-08
2.75994e-07
1.12664e-08
-5.57615e-08
3.64336e-07
1.30596e-08
-7.30679e-08
4.72635e-07
1.54067e-08
-9.11586e-08
5.94475e-07
1.84903e-08
-1.02469e-07
7.02969e-07
2.23566e-08
-8.68817e-08
7.63975e-07
2.70705e-08
-3.38223e-08
7.04169e-07
3.20758e-08
9.42459e-08
5.83548e-07
3.67388e-08
1.61789e-07
4.37698e-07
4.07346e-08
1.92944e-07
2.90482e-07
4.39226e-08
1.9871e-07
1.47251e-07
4.62086e-08
1.97721e-07
7.15129e-09
4.75502e-08
1.96056e-07
-1.32967e-07
4.79082e-08
1.9605e-07
-2.7625e-07
4.72603e-08
1.97704e-07
-4.2356e-07
4.55935e-08
1.98705e-07
-5.69583e-07
4.29118e-08
1.93016e-07
-6.90672e-07
3.92594e-08
1.62191e-07
-7.51443e-07
3.47737e-08
9.52157e-08
-6.92644e-07
2.97751e-08
-3.14821e-08
-5.8518e-07
2.49729e-08
-8.55842e-08
-4.63109e-07
2.10568e-08
-1.0224e-07
-3.52746e-07
1.79414e-08
-9.25589e-08
-2.60299e-07
1.56152e-08
-7.62802e-08
-1.84537e-07
1.38872e-08
-6.13381e-08
-1.20456e-07
1.2663e-08
-5.11697e-08
-6.41632e-08
1.1858e-08
-4.45444e-08
-1.90186e-08
1.13397e-08
-3.41807e-08
1.05182e-08
-9.02967e-09
1.12872e-08
6.19313e-10
-5.12307e-09
3.84919e-08
5.13419e-10
-2.03839e-08
7.21341e-08
2.44474e-10
-2.62201e-08
1.09817e-07
-2.02479e-10
-2.93217e-08
1.53902e-07
-7.97513e-10
-3.43948e-08
2.08364e-07
-1.45843e-09
-4.30934e-08
2.77812e-07
-2.00699e-09
-5.6174e-08
3.66719e-07
-2.26371e-09
-7.35843e-08
4.75722e-07
-1.79813e-09
-9.17976e-08
5.98334e-07
-8.94673e-10
-1.03228e-07
7.07518e-07
8.71126e-10
-8.76988e-08
7.68799e-07
3.83043e-10
-3.45928e-08
7.08728e-07
-1.68557e-09
9.38324e-08
5.8749e-07
-3.61925e-09
1.61596e-07
4.40848e-07
-5.47521e-09
1.92851e-07
2.92746e-07
-6.62298e-09
1.98648e-07
1.48575e-07
-7.28514e-09
1.97664e-07
7.49986e-09
-7.37257e-09
1.95998e-07
-1.33618e-07
-6.96527e-09
1.95991e-07
-2.77912e-07
-6.08907e-09
1.97643e-07
-4.26221e-07
-4.73229e-09
1.98636e-07
-5.73188e-07
-3.02971e-09
1.92908e-07
-6.95058e-07
-8.41871e-10
1.61971e-07
-7.56238e-07
1.20025e-09
9.47542e-08
-6.97245e-07
3.12237e-09
-3.23412e-08
-5.89089e-07
3.32227e-09
-8.65053e-08
-4.66219e-07
1.29501e-09
-1.03108e-07
-3.55108e-07
1.3667e-10
-9.3306e-08
-2.62049e-07
-5.33266e-10
-7.69107e-08
-1.85782e-07
-5.06935e-10
-6.18728e-08
-1.21264e-07
-2.13349e-10
-5.16412e-08
-6.45791e-08
1.46211e-10
-4.49733e-08
-1.91204e-08
4.11725e-10
-3.45308e-08
5.67586e-10
-9.16981e-09
1.11805e-08
-5.36368e-09
-5.19753e-09
3.8215e-08
-6.11964e-09
-2.04014e-08
7.1685e-08
-7.01893e-09
-2.62066e-08
1.09243e-07
-8.47162e-09
-2.92885e-08
1.53296e-07
-1.05226e-08
-3.43287e-08
2.0788e-07
-1.30707e-08
-4.29713e-08
2.77661e-07
-1.58219e-08
-5.59657e-08
3.67098e-07
-1.8454e-08
-7.3247e-08
4.76599e-07
-1.99993e-08
-9.12994e-08
5.99281e-07
-2.10134e-08
-1.02564e-07
7.07208e-07
-2.00887e-08
-8.69674e-08
7.67306e-07
-2.60733e-08
-3.36414e-08
7.0699e-07
-3.64426e-08
9.50726e-08
5.85903e-07
-4.59559e-08
1.63424e-07
4.39736e-07
-5.44719e-08
1.95164e-07
2.9214e-07
-6.04027e-08
2.01376e-07
1.48484e-07
-6.4267e-08
2.00637e-07
7.89545e-09
-6.58708e-08
1.99087e-07
-1.32765e-07
-6.53791e-08
1.99074e-07
-2.76633e-07
-6.28193e-08
2.00598e-07
-4.24583e-07
-5.81142e-08
2.01331e-07
-5.71275e-07
-5.15082e-08
1.95171e-07
-6.93217e-07
-4.2623e-08
1.63723e-07
-7.54869e-07
-3.30378e-08
9.58906e-08
-6.9717e-07
-2.30469e-08
-3.15296e-08
-5.90277e-07
-1.76523e-08
-8.59185e-08
-4.67325e-07
-1.90608e-08
-1.02596e-07
-3.55721e-07
-1.85106e-08
-9.29569e-08
-2.62129e-07
-1.74281e-08
-7.6697e-08
-1.85549e-07
-1.53204e-08
-6.17664e-08
-1.20948e-07
-1.32129e-08
-5.16011e-08
-6.43431e-08
-1.1484e-08
-4.4975e-08
-1.90269e-08
-1.03258e-08
-3.45787e-08
-9.17403e-09
-9.28524e-09
1.08847e-08
-1.09672e-08
-5.2812e-09
3.73703e-08
-1.23572e-08
-2.0248e-08
7.02323e-08
-1.39346e-08
-2.59464e-08
1.07238e-07
-1.65123e-08
-2.89653e-08
1.50877e-07
-2.02578e-08
-3.39038e-08
2.05293e-07
-2.51161e-08
-4.23706e-08
2.75292e-07
-3.07287e-08
-5.50922e-08
3.65343e-07
-3.6547e-08
-7.19574e-08
4.75459e-07
-4.06398e-08
-8.94757e-08
5.9782e-07
-4.32184e-08
-1.00156e-07
7.01788e-07
-3.97696e-08
-8.42871e-08
7.58614e-07
-5.26372e-08
-3.02622e-08
6.98126e-07
-7.50023e-08
9.90478e-08
5.78168e-07
-9.48762e-08
1.68878e-07
4.33982e-07
-1.12164e-07
2.01878e-07
2.88459e-07
-1.24098e-07
2.09219e-07
1.46904e-07
-1.31863e-07
2.09151e-07
8.37084e-09
-1.35257e-07
2.07919e-07
-1.30268e-07
-1.3463e-07
2.0789e-07
-2.72144e-07
-1.30005e-07
2.09061e-07
-4.18203e-07
-1.21141e-07
2.09086e-07
-5.63184e-07
-1.08288e-07
2.0176e-07
-6.8431e-07
-9.05074e-08
1.69011e-07
-7.46474e-07
-7.05437e-08
9.96696e-08
-6.92236e-07
-4.88971e-08
-2.83879e-08
-5.89299e-07
-3.71355e-08
-8.34541e-08
-4.66645e-07
-4.13108e-08
-1.00404e-07
-3.54431e-07
-3.94112e-08
-9.13135e-08
-2.60281e-07
-3.60269e-08
-7.55505e-08
-1.83592e-07
-3.10269e-08
-6.09827e-08
-1.19329e-07
-2.64442e-08
-5.10321e-08
-6.33487e-08
-2.29234e-08
-4.45408e-08
-1.86946e-08
-2.06563e-08
-3.43236e-08
-1.84785e-08
-9.39009e-09
1.03611e-08
-1.59465e-08
-5.3818e-09
3.58641e-08
-1.79325e-08
-1.99278e-08
6.75904e-08
-2.02193e-08
-2.54416e-08
1.03465e-07
-2.40363e-08
-2.83508e-08
1.4608e-07
-2.97661e-08
-3.31064e-08
1.99767e-07
-3.75574e-08
-4.1246e-08
2.69686e-07
-4.72108e-08
-5.34368e-08
3.60569e-07
-5.79983e-08
-6.94311e-08
4.72272e-07
-6.65741e-08
-8.57686e-08
5.94929e-07
-7.08574e-08
-9.50185e-08
6.89918e-07
-5.59603e-08
-7.87979e-08
7.39812e-07
-7.90517e-08
-2.34802e-08
6.79257e-07
-1.21795e-07
1.07348e-07
5.62031e-07
-1.58042e-07
1.80392e-07
4.22128e-07
-1.88338e-07
2.16076e-07
2.80885e-07
-2.08676e-07
2.25822e-07
1.43493e-07
-2.2167e-07
2.27199e-07
8.97499e-09
-2.27389e-07
2.2665e-07
-1.25686e-07
-2.26551e-07
2.26582e-07
-2.63521e-07
-2.1916e-07
2.26991e-07
-4.0552e-07
-2.04631e-07
2.25488e-07
-5.46575e-07
-1.82908e-07
2.15676e-07
-6.65423e-07
-1.51834e-07
1.80174e-07
-7.28221e-07
-1.15337e-07
1.07592e-07
-6.81223e-07
-7.38883e-08
-2.20063e-08
-5.87143e-07
-5.2915e-08
-7.83004e-08
-4.64132e-07
-6.87058e-08
-9.56167e-08
-3.50361e-07
-6.5287e-08
-8.78948e-08
-2.55481e-07
-5.76777e-08
-7.32294e-08
-1.79066e-07
-4.80141e-08
-5.94278e-08
-1.15835e-07
-3.97784e-08
-4.98972e-08
-6.12692e-08
-3.38338e-08
-4.3655e-08
-1.79841e-08
-3.01764e-08
-3.37649e-08
-2.69456e-08
-9.51704e-09
9.61152e-09
-2.00614e-08
-5.49656e-09
3.36891e-08
-2.25668e-08
-1.94433e-08
6.37099e-08
-2.55472e-08
-2.46928e-08
9.77544e-08
-3.06422e-08
-2.74387e-08
1.38475e-07
-3.85681e-08
-3.19187e-08
1.90397e-07
-4.99211e-08
-3.95582e-08
2.59244e-07
-6.51369e-08
-5.09212e-08
3.50422e-07
-8.37062e-08
-6.54696e-08
4.64929e-07
-1.01337e-07
-7.9744e-08
5.91726e-07
-1.11156e-07
-8.64985e-08
6.67593e-07
-6.2812e-08
-6.90149e-08
7.03377e-07
-1.03036e-07
-1.17994e-08
6.44995e-07
-1.83783e-07
1.20369e-07
5.34167e-07
-2.45347e-07
1.98134e-07
4.02159e-07
-2.9414e-07
2.37811e-07
2.68307e-07
-3.26183e-07
2.51359e-07
1.37795e-07
-3.46091e-07
2.54934e-07
9.78224e-09
-3.54816e-07
2.5544e-07
-1.18403e-07
-3.53665e-07
2.553e-07
-2.49474e-07
-3.426e-07
2.5451e-07
-3.84318e-07
-3.2045e-07
2.50662e-07
-5.17949e-07
-2.86195e-07
2.36918e-07
-6.31057e-07
-2.36054e-07
1.97327e-07
-6.92682e-07
-1.73747e-07
1.20035e-07
-6.60375e-07
-9.53122e-08
-1.08827e-08
-5.84917e-07
-5.93996e-08
-6.89734e-08
-4.57656e-07
-1.08297e-07
-8.76693e-08
-3.41166e-07
-9.94545e-08
-8.23229e-08
-2.46138e-07
-8.31333e-08
-6.9572e-08
-1.71056e-07
-6.60597e-08
-5.70362e-08
-1.10009e-07
-5.26747e-08
-4.81513e-08
-5.79065e-08
-4.36552e-08
-4.2281e-08
-1.68415e-08
-3.8362e-08
-3.28794e-08
-3.41265e-08
-9.66072e-09
8.56634e-09
-2.29898e-08
-5.63797e-09
3.06873e-08
-2.58717e-08
-1.88161e-08
5.82293e-08
-2.93564e-08
-2.37328e-08
8.92913e-08
-3.54364e-08
-2.62678e-08
1.26334e-07
-4.52323e-08
-3.0378e-08
1.73809e-07
-6.00695e-08
-3.73267e-08
2.38067e-07
-8.18886e-08
-4.75066e-08
3.26171e-07
-1.12097e-07
-5.97133e-08
4.43952e-07
-1.48848e-07
-7.02709e-08
5.87051e-07
-1.84172e-07
-7.00827e-08
6.22972e-07
-5.22502e-08
-4.64835e-08
6.32315e-07
-1.15172e-07