/*--------------------------------*- C++ -*----------------------------------*\
| =========                 |                                                 |
| \\      /  F ield         | OpenFOAM: The Open Source CFD Toolbox           |
|  \\    /   O peration     | Version:  2112                                  |
|   \\  /    A nd           | Website:  www.openfoam.com                      |
|    \\/     M anipulation  |                                                 |
\*---------------------------------------------------------------------------*/
FoamFile
{
    version     2.0;
    format      ascii;
    arch        "LSB;label=32;scalar=64";
    class       volVectorField;
    location    "1.3";
    object      U;
}
// * * * * * * * * * * * * * * * * * * * * * * * * * * * * * * * * * * * * * //

dimensions      [0 1 -1 0 0 0 0];

internalField   nonuniform List<vector> 
64906
(
(5.73783e-07 1.82451e-06 -2.64677e-06)
(3.01132e-06 1.0168e-06 -2.72489e-06)
(6.26375e-06 4.23023e-07 -2.44529e-06)
(9.55076e-06 9.95888e-08 -2.2232e-06)
(1.27697e-05 2.99104e-08 -2.15121e-06)
(1.58539e-05 1.18637e-07 -2.19352e-06)
(1.87922e-05 3.10217e-07 -2.30882e-06)
(2.15162e-05 6.04406e-07 -2.46647e-06)
(2.39448e-05 9.97835e-07 -2.65533e-06)
(2.58231e-05 1.56622e-06 -2.84577e-06)
(2.69523e-05 2.2349e-06 -3.0499e-06)
(2.69154e-05 3.13813e-06 -3.22921e-06)
(2.55482e-05 3.92883e-06 -3.40127e-06)
(2.30293e-05 4.67738e-06 -3.53059e-06)
(1.94657e-05 5.26106e-06 -3.642e-06)
(1.51187e-05 5.72127e-06 -3.72265e-06)
(1.01821e-05 6.02289e-06 -3.78177e-06)
(4.91012e-06 6.17617e-06 -3.81547e-06)
(-4.68962e-07 6.17429e-06 -3.82553e-06)
(-5.70532e-06 6.01742e-06 -3.81168e-06)
(-1.05704e-05 5.71262e-06 -3.77235e-06)
(-1.48112e-05 5.24989e-06 -3.71157e-06)
(-1.82376e-05 4.66576e-06 -3.61992e-06)
(-2.05903e-05 3.91871e-06 -3.51085e-06)
(-2.17708e-05 3.13519e-06 -3.35946e-06)
(-2.16037e-05 2.24258e-06 -3.20366e-06)
(-2.02635e-05 1.59719e-06 -3.02757e-06)
(-1.81701e-05 1.06137e-06 -2.87714e-06)
(-1.55134e-05 7.3051e-07 -2.75226e-06)
(-1.2547e-05 5.65257e-07 -2.71071e-06)
(-9.35119e-06 6.48567e-07 -2.81221e-06)
(-6.06445e-06 1.07997e-06 -3.12569e-06)
(-2.84397e-06 1.85057e-06 -3.54371e-06)
(-3.66423e-07 2.82727e-06 -3.52865e-06)
(-6.26558e-07 6.8605e-06 -3.19097e-06)
(1.47784e-06 6.25112e-06 -6.19251e-06)
(5.82565e-06 5.73614e-06 -6.92831e-06)
(9.7911e-06 5.63302e-06 -7.09326e-06)
(1.34753e-05 6.03784e-06 -7.38441e-06)
(1.6882e-05 6.85809e-06 -7.90483e-06)
(2.00977e-05 8.03741e-06 -8.64158e-06)
(2.30924e-05 9.61481e-06 -9.57474e-06)
(2.58448e-05 1.16265e-05 -1.06959e-05)
(2.80265e-05 1.42789e-05 -1.19931e-05)
(2.94683e-05 1.74004e-05 -1.34421e-05)
(2.95199e-05 2.12691e-05 -1.4981e-05)
(2.79698e-05 2.47823e-05 -1.64627e-05)
(2.51742e-05 2.80199e-05 -1.77915e-05)
(2.12164e-05 3.06161e-05 -1.89124e-05)
(1.64445e-05 3.26504e-05 -1.97891e-05)
(1.10305e-05 3.40149e-05 -2.03977e-05)
(5.26767e-06 3.47201e-05 -2.07233e-05)
(-6.13496e-07 3.47434e-05 -2.0758e-05)
(-6.33664e-06 3.40851e-05 -2.05019e-05)
(-1.16716e-05 3.27696e-05 -1.99633e-05)
(-1.63256e-05 3.07874e-05 -1.91576e-05)
(-2.01308e-05 2.82509e-05 -1.81094e-05)
(-2.27399e-05 2.50823e-05 -1.68566e-05)
(-2.40808e-05 2.16586e-05 -1.5456e-05)
(-2.37978e-05 1.78963e-05 -1.40075e-05)
(-2.21146e-05 1.49232e-05 -1.26634e-05)
(-1.96778e-05 1.24472e-05 -1.1496e-05)
(-1.66173e-05 1.06824e-05 -1.05483e-05)
(-1.3213e-05 9.48194e-06 -9.86531e-06)
(-9.40119e-06 8.92532e-06 -9.47198e-06)
(-5.23729e-06 9.07542e-06 -9.24085e-06)
(-6.21795e-07 9.74225e-06 -8.28145e-06)
(1.31445e-06 1.0314e-05 -4.36482e-06)
(-1.31103e-06 1.42926e-05 -3.10824e-06)
(6.76385e-07 1.51778e-05 -6.98722e-06)
(5.81026e-06 1.55932e-05 -8.09198e-06)
(1.04099e-05 1.64501e-05 -8.39825e-06)
(1.46689e-05 1.8018e-05 -8.80528e-06)
(1.85895e-05 2.02983e-05 -9.481e-06)
(2.23451e-05 2.3307e-05 -1.04374e-05)
(2.59516e-05 2.71881e-05 -1.16675e-05)
(2.94911e-05 3.20713e-05 -1.31733e-05)
(3.24836e-05 3.84312e-05 -1.49543e-05)
(3.47928e-05 4.59601e-05 -1.69804e-05)
(3.51129e-05 5.52836e-05 -1.91546e-05)
(3.30996e-05 6.3715e-05 -2.1255e-05)
(2.96198e-05 7.14119e-05 -2.31311e-05)
(2.47631e-05 7.75915e-05 -2.47064e-05)
(1.90592e-05 8.24377e-05 -2.59299e-05)
(1.26342e-05 8.57066e-05 -2.67746e-05)
(5.84553e-06 8.74074e-05 -2.72232e-05)
(-1.07922e-06 8.74846e-05 -2.72649e-05)
(-7.82566e-06 8.59387e-05 -2.68997e-05)
(-1.41663e-05 8.28284e-05 -2.61388e-05)
(-1.97422e-05 7.81466e-05 -2.50001e-05)
(-2.44313e-05 7.21466e-05 -2.35114e-05)
(-2.76997e-05 6.46479e-05 -2.17256e-05)
(-2.94736e-05 5.64585e-05 -1.97215e-05)
(-2.8878e-05 4.74124e-05 -1.76554e-05)
(-2.62795e-05 4.0251e-05 -1.57552e-05)
(-2.29742e-05 3.42976e-05 -1.41319e-05)
(-1.90212e-05 2.99192e-05 -1.28363e-05)
(-1.48208e-05 2.66889e-05 -1.19028e-05)
(-1.01613e-05 2.45672e-05 -1.13227e-05)
(-5.11042e-06 2.34396e-05 -1.08822e-05)
(4.86674e-07 2.28868e-05 -9.44826e-06)
(2.19874e-06 2.1457e-05 -4.30086e-06)
(-1.56787e-06 2.17189e-05 -2.93269e-06)
(6.48316e-07 2.36384e-05 -7.04413e-06)
(6.62259e-06 2.48264e-05 -8.22352e-06)
(1.20477e-05 2.66389e-05 -8.52337e-06)
(1.71433e-05 2.94146e-05 -8.94294e-06)
(2.19117e-05 3.32076e-05 -9.67908e-06)
(2.6636e-05 3.80988e-05 -1.07574e-05)
(3.14026e-05 4.43705e-05 -1.21885e-05)
(3.65114e-05 5.23187e-05 -1.39892e-05)
(4.12042e-05 6.2939e-05 -1.61819e-05)
(4.54674e-05 7.5849e-05 -1.87307e-05)
(4.63706e-05 9.26432e-05 -2.15239e-05)
(4.32642e-05 0.00010732 -2.42164e-05)
(3.83302e-05 0.000120492 -2.65976e-05)
(3.16641e-05 0.000130869 -2.85811e-05)
(2.41364e-05 0.000139 -3.0096e-05)
(1.57427e-05 0.000144467 -3.11336e-05)
(6.95998e-06 0.000147314 -3.16794e-05)
(-1.99368e-06 0.000147446 -3.17226e-05)
(-1.07317e-05 0.000144862 -3.12631e-05)
(-1.90356e-05 0.000139662 -3.03115e-05)
(-2.64228e-05 0.000131802 -2.88832e-05)
(-3.2901e-05 0.000121716 -2.69867e-05)
(-3.75852e-05 0.000108857 -2.46953e-05)
(-4.04038e-05 9.45624e-05 -2.2097e-05)
(-3.91472e-05 7.81988e-05 -1.94107e-05)
(-3.4519e-05 6.5882e-05 -1.6988e-05)
(-2.94432e-05 5.588e-05 -1.49595e-05)
(-2.37986e-05 4.8664e-05 -1.33846e-05)
(-1.82499e-05 4.32754e-05 -1.22823e-05)
(-1.23434e-05 3.95114e-05 -1.16275e-05)
(-6.15256e-06 3.71032e-05 -1.11643e-05)
(5.49284e-07 3.55249e-05 -9.62722e-06)
(2.55285e-06 3.27646e-05 -4.13519e-06)
(-1.55592e-06 2.89115e-05 -2.82461e-06)
(1.20694e-06 3.16876e-05 -7.18238e-06)
(8.32364e-06 3.35765e-05 -8.43935e-06)
(1.48498e-05 3.63595e-05 -8.73602e-06)
(2.10874e-05 4.04207e-05 -9.19706e-06)
(2.70631e-05 4.58303e-05 -1.0053e-05)
(3.32283e-05 5.27133e-05 -1.13495e-05)
(3.98111e-05 6.15021e-05 -1.31342e-05)
(4.75876e-05 7.27643e-05 -1.54485e-05)
(5.53932e-05 8.84602e-05 -1.83659e-05)
(6.37138e-05 0.000108488 -2.1827e-05)
(6.57679e-05 0.000137008 -2.57753e-05)
(6.02356e-05 0.000160499 -2.9542e-05)
(5.25817e-05 0.000181019 -3.28581e-05)
(4.28124e-05 0.000196736 -3.56082e-05)
(3.23232e-05 0.000209078 -3.76434e-05)
(2.07432e-05 0.00021734 -3.90269e-05)
(8.7515e-06 0.000221647 -3.97467e-05)
(-3.47106e-06 0.000221837 -3.97931e-05)
(-1.54168e-05 0.00021791 -3.9166e-05)
(-2.69041e-05 0.000210027 -3.78739e-05)
(-3.72415e-05 0.000198062 -3.59296e-05)
(-4.68017e-05 0.000182736 -3.3268e-05)
(-5.41546e-05 0.000162623 -3.00415e-05)
(-5.93329e-05 0.000139633 -2.63653e-05)
(-5.67967e-05 0.000111665 -2.2521e-05)
(-4.8004e-05 9.24953e-05 -1.91855e-05)
(-3.97538e-05 7.76164e-05 -1.64398e-05)
(-3.1313e-05 6.72918e-05 -1.43696e-05)
(-2.37528e-05 5.95938e-05 -1.29545e-05)
(-1.61117e-05 5.40864e-05 -1.21485e-05)
(-8.38675e-06 5.03729e-05 -1.1635e-05)
(-1.37158e-07 4.78431e-05 -9.96488e-06)
(2.58889e-06 4.39986e-05 -4.07861e-06)
(-1.34567e-06 3.56115e-05 -2.75584e-06)
(2.24023e-06 3.91558e-05 -7.53481e-06)
(1.08428e-05 4.16929e-05 -8.91104e-06)
(1.88383e-05 4.54788e-05 -9.23864e-06)
(2.65707e-05 5.09336e-05 -9.79635e-06)
(3.41192e-05 5.81036e-05 -1.0864e-05)
(4.21775e-05 6.71138e-05 -1.25226e-05)
(5.12505e-05 7.84875e-05 -1.48898e-05)
(6.30984e-05 9.31669e-05 -1.80287e-05)
(7.62218e-05 0.000114781 -2.20934e-05)
(9.29034e-05 0.000144353 -2.68051e-05)
(9.72866e-05 0.000193229 -3.26329e-05)
(8.65037e-05 0.000229751 -3.81823e-05)
(7.40747e-05 0.000260241 -4.3145e-05)
(5.94054e-05 0.000282791 -4.72777e-05)
(4.45285e-05 0.000300614 -5.01594e-05)
(2.81849e-05 0.000312504 -5.21035e-05)
(1.14119e-05 0.00031871 -5.3104e-05)
(-5.6935e-06 0.000318969 -5.31577e-05)
(-2.24234e-05 0.000313277 -5.22643e-05)
(-3.868e-05 0.000301892 -5.04245e-05)
(-5.34044e-05 0.000284554 -4.76449e-05)
(-6.78564e-05 0.000262484 -4.36075e-05)
(-7.99301e-05 0.000232459 -3.87372e-05)
(-9.0285e-05 0.000196518 -3.32756e-05)
(-8.51995e-05 0.000148249 -2.75437e-05)
(-6.78919e-05 0.000119917 -2.29574e-05)
(-5.43084e-05 9.93044e-05 -1.90748e-05)
(-4.16637e-05 8.57347e-05 -1.62037e-05)
(-3.13908e-05 7.56272e-05 -1.42566e-05)
(-2.14898e-05 6.82479e-05 -1.31692e-05)
(-1.17509e-05 6.31602e-05 -1.25218e-05)
(-1.38197e-06 5.97094e-05 -1.06059e-05)
(2.46405e-06 5.48386e-05 -4.13294e-06)
(-9.88366e-07 4.1736e-05 -2.69387e-06)
(3.70157e-06 4.59617e-05 -8.06722e-06)
(1.42085e-05 4.92097e-05 -9.61704e-06)
(2.41105e-05 5.41434e-05 -1.00122e-05)
(3.37449e-05 6.12456e-05 -1.0723e-05)
(4.32426e-05 7.05018e-05 -1.2101e-05)
(5.35746e-05 8.19363e-05 -1.4284e-05)
(6.56945e-05 9.58285e-05 -1.75084e-05)
(8.32112e-05 0.000113349 -2.18453e-05)
(0.000104646 0.000139873 -2.74497e-05)
(0.000138515 0.000180857 -3.34613e-05)
(0.000147793 0.000266707 -4.19588e-05)
(0.000125303 0.000322317 -4.99252e-05)
(0.000104723 0.000366309 -5.748e-05)
(8.27824e-05 0.000397976 -6.38998e-05)
(6.18185e-05 0.000423391 -6.7893e-05)
(3.87215e-05 0.000440364 -7.06002e-05)
(1.51767e-05 0.000449233 -7.19805e-05)
(-8.87126e-06 0.000449581 -7.20467e-05)
(-3.23833e-05 0.000441399 -7.07983e-05)
(-5.54166e-05 0.000425092 -6.82177e-05)
(-7.62536e-05 0.000400289 -6.43469e-05)
(-9.80068e-05 0.000369188 -5.80344e-05)
(-0.000118195 0.000325666 -5.05793e-05)
(-0.000140211 0.000270622 -4.26988e-05)
(-0.000129823 0.000185264 -3.42795e-05)
(-9.5088e-05 0.000146209 -2.8397e-05)
(-7.33231e-05 0.000120823 -2.29811e-05)
(-5.48808e-05 0.000104519 -1.89384e-05)
(-4.129e-05 9.20094e-05 -1.61923e-05)
(-2.86228e-05 8.24404e-05 -1.46745e-05)
(-1.63047e-05 7.56937e-05 -1.3804e-05)
(-3.20989e-06 7.11861e-05 -1.15416e-05)
(2.14509e-06 6.51461e-05 -4.20453e-06)
(-5.09997e-07 4.70684e-05 -2.62687e-06)
(5.62661e-06 5.18937e-05 -8.72716e-06)
(1.8592e-05 5.59285e-05 -1.05131e-05)
(3.09551e-05 6.21867e-05 -1.10085e-05)
(4.30245e-05 7.12586e-05 -1.19273e-05)
(5.48959e-05 8.30624e-05 -1.37214e-05)
(6.75912e-05 9.73981e-05 -1.66142e-05)
(8.24849e-05 0.000113684 -2.10448e-05)
(0.000105401 0.000132374 -2.69689e-05)
(0.000137218 0.00016131 -3.48492e-05)
(0.000205919 0.000210503 -3.89938e-05)
(0.00022649 0.000368011 -4.92569e-05)
(0.000179882 0.000448345 -6.06819e-05)
(0.000147458 0.000507416 -7.24858e-05)
(0.000115784 0.00054972 -8.25641e-05)
(8.66357e-05 0.000584111 -8.76983e-05)
(5.39012e-05 0.000607294 -9.12145e-05)
(2.05902e-05 0.000619444 -9.29948e-05)
(-1.34956e-05 0.000619913 -9.30774e-05)
(-4.67942e-05 0.000608687 -9.14617e-05)
(-7.95155e-05 0.00058639 -8.81019e-05)
(-0.000108613 0.000552787 -8.31194e-05)
(-0.000140216 0.000511142 -7.31672e-05)
(-0.000172313 0.000452469 -6.14777e-05)
(-0.000218554 0.000372584 -5.01635e-05)
(-0.000196049 0.000215052 -3.99116e-05)
(-0.000126071 0.000169277 -3.58906e-05)
(-9.44126e-05 0.000141424 -2.82074e-05)
(-7.04078e-05 0.000123896 -2.26165e-05)
(-5.3687e-05 0.000108966 -1.87344e-05)
(-3.79904e-05 9.66355e-05 -1.66194e-05)
(-2.24122e-05 8.77374e-05 -1.54377e-05)
(-5.85262e-06 8.18787e-05 -1.27438e-05)
(1.52383e-06 7.46891e-05 -4.20533e-06)
(8.9403e-08 5.13477e-05 -2.54496e-06)
(8.04672e-06 5.67517e-05 -9.49796e-06)
(2.40931e-05 6.17025e-05 -1.1579e-05)
(3.95938e-05 6.96197e-05 -1.22023e-05)
(5.48138e-05 8.13631e-05 -1.33746e-05)
(6.96888e-05 9.69792e-05 -1.56619e-05)
(8.47952e-05 0.000116156 -1.94005e-05)
(0.000101159 0.000136053 -2.52691e-05)
(0.000127506 0.000155167 -3.36586e-05)
(0.000163159 0.000171961 -4.28132e-05)
(0.00029698 0.000183438 -4.99058e-05)
(0.000343991 0.000482624 -5.10105e-05)
(0.000246354 0.000596407 -6.38411e-05)
(0.00020116 0.000674955 -8.14614e-05)
(0.000158896 0.000733313 -9.60937e-05)
(0.000119512 0.000781223 -0.000101901)
(7.42363e-05 0.000813784 -0.000106242)
(2.78702e-05 0.00083068 -0.000108384)
(-1.96978e-05 0.000831307 -0.000108481)
(-6.60834e-05 0.000815649 -0.000106531)
(-0.000111428 0.000784288 -0.00010237)
(-0.000150911 0.000737447 -9.67382e-05)
(-0.000193383 0.000679932 -8.22431e-05)
(-0.000238467 0.000601743 -6.47667e-05)
(-0.000336354 0.000487986 -5.20686e-05)
(-0.000285777 0.000186604 -5.11749e-05)
(-0.000149979 0.000181524 -4.40182e-05)
(-0.000115837 0.000165753 -3.5002e-05)
(-8.80595e-05 0.000147653 -2.70076e-05)
(-6.93556e-05 0.000128965 -2.1772e-05)
(-5.0346e-05 0.000111839 -1.89499e-05)
(-3.05838e-05 9.94759e-05 -1.74024e-05)
(-9.46471e-06 9.15607e-05 -1.41599e-05)
(6.60401e-07 8.31317e-05 -4.17274e-06)
(8.78374e-07 5.41668e-05 -2.42318e-06)
(1.11395e-05 6.001e-05 -1.03638e-05)
(3.11098e-05 6.57977e-05 -1.2794e-05)
(5.08756e-05 7.53418e-05 -1.35678e-05)
(7.07836e-05 8.99154e-05 -1.50297e-05)
(9.06377e-05 0.000110065 -1.78533e-05)
(0.000109218 0.000135716 -2.24005e-05)
(0.000126606 0.000162065 -3.01348e-05)
(0.000142653 0.0001776 -3.96882e-05)
(0.00011806 0.000126674 -5.69396e-05)
(0.000360865 0.000182375 -6.57578e-05)
(0.00049823 0.000714444 -3.49601e-05)
(0.000323676 0.000797404 -4.63445e-05)
(0.000276865 0.000864725 -6.62826e-05)
(0.000224428 0.0009355 -8.27792e-05)
(0.000169669 0.000992754 -8.62371e-05)
(0.000105108 0.00103403 -8.97646e-05)
(3.87378e-05 0.00105532 -9.15205e-05)
(-2.90866e-05 0.00105614 -9.16085e-05)
(-9.54975e-05 0.00103647 -9.00299e-05)
(-0.000160205 0.000996783 -8.66555e-05)
(-0.000215249 0.000940994 -8.33727e-05)
(-0.000268297 0.000871387 -6.69963e-05)
(-0.00031569 0.000804312 -4.71995e-05)
(-0.000493484 0.000718973 -3.62265e-05)
(-0.000349834 0.000185448 -6.75361e-05)
(-0.000102888 0.000142232 -5.78481e-05)
(-0.000130958 0.000191771 -4.09812e-05)
(-0.000112808 0.000175458 -3.20411e-05)
(-9.23898e-05 0.000149597 -2.50683e-05)
(-6.87614e-05 0.000125803 -2.16158e-05)
(-4.2524e-05 0.00010911 -1.96954e-05)
(-1.48504e-05 9.88964e-05 -1.57874e-05)
(-7.36338e-07 8.93805e-05 -4.02056e-06)
(1.76028e-06 5.52386e-05 -2.29353e-06)
(1.46566e-05 6.13902e-05 -1.1321e-05)
(3.91625e-05 6.79564e-05 -1.41575e-05)
(6.41153e-05 7.92225e-05 -1.51238e-05)
(9.03116e-05 9.73607e-05 -1.69391e-05)
(0.000117856 0.000124842 -2.02376e-05)
(0.000144547 0.000165595 -2.52662e-05)
(0.000165168 0.000222533 -3.14074e-05)
(0.000141173 0.000295434 -4.56288e-05)
(0.000146394 0.00033802 -6.55288e-05)
(0.000237425 0.000636505 5.2133e-05)
(0.000285122 0.00082812 1.96365e-05)
(0.000337679 0.000960114 1.03699e-05)
(0.000299725 0.001077 1.21454e-05)
(0.000227891 0.00116007 9.56903e-06)
(0.000142756 0.00121576 7.44375e-06)
(5.20213e-05 0.00124313 6.59704e-06)
(-4.03904e-05 0.00124407 6.59819e-06)
(-0.000131184 0.00121859 7.44463e-06)
(-0.000216517 0.00116486 9.57757e-06)
(-0.000288784 0.00108387 1.21528e-05)
(-0.000327909 0.000969204 1.04275e-05)
(-0.00027815 0.000839333 1.94093e-05)
(-0.000232855 0.000648257 5.11327e-05)
(-0.000142798 0.000350011 -6.43427e-05)
(-0.000135082 0.000308711 -4.66125e-05)
(-0.000153292 0.000235664 -3.34921e-05)
(-0.000127285 0.000179429 -2.82918e-05)
(-9.37412e-05 0.000140656 -2.45868e-05)
(-5.79126e-05 0.000116847 -2.24033e-05)
(-2.16293e-05 0.000103495 -1.77046e-05)
(-2.42506e-06 9.27796e-05 -3.88344e-06)
(2.84337e-06 5.41359e-05 -2.13232e-06)
(1.882e-05 6.0206e-05 -1.23207e-05)
(4.87863e-05 6.68098e-05 -1.55819e-05)
(8.08294e-05 7.8229e-05 -1.67553e-05)
(0.000117596 9.67646e-05 -1.89806e-05)
(0.000163057 0.000125275 -2.29851e-05)
(0.000222443 0.000168716 -2.90065e-05)
(0.000308853 0.000232791 -3.53516e-05)
(0.000420225 0.000324439 -4.01212e-05)
(0.000648678 0.000434163 -3.02042e-05)
(0.000669351 0.000134387 3.65879e-05)
(0.000542309 0.00030468 3.88251e-05)
(0.0006122 0.00062685 0.000109228)
(0.000553504 0.000820629 0.000166056)
(0.00044902 0.000962039 0.00019949)
(0.000323702 0.00105696 0.000211708)
(0.000196796 0.0011165 0.000216589)
(6.99197e-05 0.00114504 0.000218434)
(-5.6209e-05 0.00114591 0.000218501)
(-0.000183036 0.00111914 0.000216793)
(-0.000309864 0.00106147 0.000212069)
(-0.000435007 0.000968634 0.000200049)
(-0.000539336 0.000829659 0.000167012)
(-0.000597684 0.000638702 0.000110595)
(-0.000525844 0.000319192 4.1076e-05)
(-0.000658292 0.000138042 3.83682e-05)
(-0.000643326 0.000439476 -2.9685e-05)
(-0.000410971 0.000334147 -4.10736e-05)
(-0.000295659 0.000244227 -3.73625e-05)
(-0.000203675 0.00018166 -3.23346e-05)
(-0.000136368 0.000140519 -2.79955e-05)
(-8.08865e-05 0.00011581 -2.54078e-05)
(-3.14869e-05 0.000102142 -1.98387e-05)
(-5.09272e-06 9.14453e-05 -3.63992e-06)
(3.73965e-06 5.08244e-05 -1.99554e-06)
(2.24115e-05 5.63995e-05 -1.32774e-05)
(5.70593e-05 6.22326e-05 -1.69642e-05)
(9.46197e-05 7.20624e-05 -1.83709e-05)
(0.000138491 8.73866e-05 -2.1037e-05)
(0.000193684 0.000109445 -2.58438e-05)
(0.000266344 0.000139433 -3.30598e-05)
(0.000369328 0.000176401 -4.16412e-05)
(0.000500758 0.000211963 -4.86005e-05)
(0.000702311 0.000229447 -4.66332e-05)
(0.000795624 0.000126246 -2.60885e-05)
(0.000808916 0.000289399 5.93694e-06)
(0.000810824 0.000464826 0.000120723)
(0.000694906 0.000594142 0.000188152)
(0.000552893 0.000695757 0.000224053)
(0.000393091 0.000765739 0.000239373)
(0.000236697 0.000810677 0.00024532)
(8.33205e-05 0.000832542 0.000247384)
(-6.80096e-05 0.000833255 0.000247443)
(-0.000221302 0.000812824 0.0002455)
(-0.000377547 0.000769354 0.000239696)
(-0.000537059 0.000700874 0.000224569)
(-0.000678888 0.00060077 0.000189074)
(-0.00079458 0.000472609 0.000122138)
(-0.000792871 0.000297511 8.55741e-06)
(-0.000783409 0.000130311 -2.45232e-05)
(-0.000693309 0.000236922 -4.63203e-05)
(-0.000490245 0.000221178 -4.95096e-05)
(-0.000355034 0.000186977 -4.3733e-05)
(-0.000245979 0.000151537 -3.66825e-05)
(-0.000164343 0.00012384 -3.14317e-05)
(-9.75043e-05 0.000105408 -2.82837e-05)
(-3.87078e-05 9.45768e-05 -2.18274e-05)
(-6.88095e-06 8.52157e-05 -3.49101e-06)
(4.53284e-06 4.56922e-05 -1.85938e-06)
(2.55597e-05 5.05921e-05 -1.41197e-05)
(6.42692e-05 5.54666e-05 -1.81731e-05)
(0.000106405 6.3491e-05 -1.97585e-05)
(0.000155731 7.56383e-05 -2.27624e-05)
(0.000217421 9.24044e-05 -2.822e-05)
(0.000297434 0.000113802 -3.65396e-05)
(0.000406666 0.000138705 -4.74348e-05)
(0.000542258 0.000161423 -5.8384e-05)
(0.000719722 0.000178434 -6.45466e-05)
(0.000846866 0.000155232 -5.20017e-05)
(0.000932977 0.000237828 -8.29933e-06)
(0.000930215 0.000340439 0.000109172)
(0.00079338 0.000426885 0.000172741)
(0.000627028 0.000497579 0.000205641)
(0.000442773 0.000546683 0.000216472)
(0.000265788 0.000578973 0.000219705)
(9.31795e-05 0.000594841 0.000220428)
(-7.65518e-05 0.000595436 0.000220462)
(-0.000249063 0.000580758 0.000219807)
(-0.000425882 0.000549655 0.000216663)
(-0.000609834 0.000501713 0.000205967)
(-0.000776101 0.000432129 0.000173422)
(-0.000912917 0.000346522 0.000110302)
(-0.000917334 0.000244452 -6.05308e-06)
(-0.000834617 0.000160553 -5.06995e-05)
(-0.000709142 0.000185228 -6.41123e-05)
(-0.000530459 0.000169501 -5.92288e-05)
(-0.000391022 0.000148103 -4.95765e-05)
(-0.000275329 0.00012471 -4.03952e-05)
(-0.000185433 0.000105488 -3.42663e-05)
(-0.000110718 9.19851e-05 -3.06584e-05)
(-4.45444e-05 8.37132e-05 -2.34721e-05)
(-8.36548e-06 7.57689e-05 -3.29434e-06)
(5.10596e-06 3.9053e-05 -1.76578e-06)
(2.79352e-05 4.30991e-05 -1.48353e-05)
(6.97297e-05 4.68571e-05 -1.9193e-05)
(0.000115081 5.28755e-05 -2.09228e-05)
(0.000167824 6.17155e-05 -2.41917e-05)
(0.000232924 7.34264e-05 -3.01474e-05)
(0.000316062 8.75741e-05 -3.92811e-05)
(0.000426727 0.000103391 -5.16405e-05)
(0.000563217 0.000117676 -6.47409e-05)
(0.000733515 0.000131778 -7.38263e-05)
(0.000879847 0.000135516 -6.22086e-05)
(0.00100202 0.000184192 -2.12266e-05)
(0.00100141 0.000246502 9.40735e-05)
(0.000853503 0.000300511 0.000151764)
(0.00067412 0.000346112 0.000180181)
(0.000475622 0.000379022 0.000187034)
(0.000285505 0.000401186 0.000187968)
(9.99927e-05 0.000412274 0.00018754)
(-8.22819e-05 0.00041279 0.000187551)
(-0.000267713 0.000402722 0.000188002)
(-0.000457703 0.000381544 0.00018711)
(-0.000655962 0.000349551 0.000180341)
(-0.00083541 0.000304778 0.000152232)
(-0.000983476 0.000251379 9.49958e-05)
(-0.000986248 0.000189545 -1.89891e-05)
(-0.000867186 0.00014071 -6.09799e-05)
(-0.000721829 0.000137939 -7.34308e-05)
(-0.00055031 0.000124788 -6.56267e-05)
(-0.000409822 0.000111594 -5.38827e-05)
(-0.000292317 9.71064e-05 -4.3348e-05)
(-0.000198542 8.48431e-05 -3.65605e-05)
(-0.000119326 7.5854e-05 -3.25874e-05)
(-4.82837e-05 7.0113e-05 -2.48217e-05)
(-9.22069e-06 6.38376e-05 -3.2124e-06)
(5.52317e-06 3.13724e-05 -1.7011e-06)
(2.96949e-05 3.45228e-05 -1.54067e-05)
(7.37899e-05 3.72628e-05 -1.99972e-05)
(0.000121446 4.15602e-05 -2.18292e-05)
(0.000176498 4.77701e-05 -2.52849e-05)
(0.000243701 5.58419e-05 -3.15886e-05)
(0.000328596 6.54114e-05 -4.12825e-05)
(0.000439914 7.61484e-05 -5.45692e-05)
(0.000577174 8.65416e-05 -6.89452e-05)
(0.000746712 9.84599e-05 -7.96459e-05)
(0.00090429 0.00010903 -6.85412e-05)
(0.00104398 0.000139749 -2.93419e-05)
(0.00104576 0.000177989 8.48389e-05)
(0.000892871 0.000212745 0.00013943)
(0.000705784 0.000242764 0.000165358)
(0.00049816 0.000264967 0.00016993)
(0.000299241 0.000280141 0.000169483)
(0.00010485 0.000287872 0.000168371)
(-8.61617e-05 0.000288351 0.000168372)
(-0.000280501 0.00028156 0.000169484)
(-0.000479356 0.000267273 0.000169948)
(-0.000686832 0.000245867 0.000165434)
(-0.000874124 0.000216529 0.000139787)
(-0.00102732 0.000182279 8.56338e-05)
(-0.00102794 0.000144446 -2.72222e-05)
(-0.000891201 0.000113858 -6.73958e-05)
(-0.000734263 0.000103911 -7.93013e-05)
(-0.000563415 9.26455e-05 -6.98968e-05)
(-0.000421959 8.30756e-05 -5.69147e-05)
(-0.000303462 7.33868e-05 -4.55271e-05)
(-0.000207335 6.5296e-05 -3.82876e-05)
(-0.000125196 5.93082e-05 -3.40583e-05)
(-5.07938e-05 5.53867e-05 -2.58665e-05)
(-9.77164e-06 5.06174e-05 -3.17088e-06)
(5.7855e-06 2.298e-05 -1.67469e-06)
(3.08631e-05 2.51914e-05 -1.58374e-05)
(7.65206e-05 2.69769e-05 -2.05926e-05)
(0.000125697 2.97284e-05 -2.24929e-05)
(0.000182218 3.36776e-05 -2.60705e-05)
(0.000250716 3.87866e-05 -3.25949e-05)
(0.000336733 4.48667e-05 -4.26301e-05)
(0.000448739 5.18665e-05 -5.64325e-05)
(0.000587205 5.92583e-05 -7.14705e-05)
(0.000758078 6.84491e-05 -8.29216e-05)
(0.000921969 7.86209e-05 -7.22313e-05)
(0.00107037 9.78087e-05 -3.38658e-05)
(0.00107373 0.000121117 8.03774e-05)
(0.000918053 0.000142667 0.00013389)
(0.000726374 0.000161438 0.000158848)
(0.000513122 0.000175653 0.000162452)
(0.000308503 0.000185496 0.000161416)
(0.000108237 0.000190636 0.000160007)
(-8.86232e-05 0.000191107 0.000160004)
(-0.00028888 0.000186884 0.000161405)
(-0.000493516 0.000177886 0.000162448)
(-0.000706738 0.000164402 0.000158891)
(-0.000898771 0.000146212 0.000134201)
(-0.00105488 0.000125068 8.11134e-05)
(-0.00105405 0.000102037 -3.18245e-05)
(-0.000908551 8.29803e-05 -7.11598e-05)
(-0.00074513 7.3151e-05 -8.26465e-05)
(-0.00057285 6.43463e-05 -7.25025e-05)
(-0.000430019 5.74783e-05 -5.88814e-05)
(-0.000310572 5.11758e-05 -4.70252e-05)
(-0.000212894 4.60903e-05 -3.95157e-05)
(-0.00012889 4.23711e-05 -3.51262e-05)
(-5.23158e-05 3.99058e-05 -2.66444e-05)
(-1.0061e-05 3.66174e-05 -3.19182e-06)
(5.92656e-06 1.42009e-05 -1.67912e-06)
(3.15349e-05 1.54687e-05 -1.6126e-05)
(7.81199e-05 1.63762e-05 -2.09804e-05)
(0.000128202 1.77509e-05 -2.29191e-05)
(0.000185613 1.97462e-05 -2.65652e-05)
(0.000254944 2.23864e-05 -3.32128e-05)
(0.000341778 2.56667e-05 -4.34364e-05)
(0.000454531 2.96756e-05 -5.75099e-05)
(0.000594153 3.4391e-05 -7.28828e-05)
(0.000766498 4.04447e-05 -8.46865e-05)
(0.0009337 4.77113e-05 -7.41783e-05)
(0.0010861 5.82923e-05 -3.60143e-05)
(0.00109027 7.04729e-05 7.86514e-05)
(0.000933061 8.18356e-05 0.000132015)
(0.000738764 9.17069e-05 0.000156743)
(0.000522268 9.93668e-05 0.000160049)
(0.000314262 0.000104752 0.000158821)
(0.000110475 0.000107706 0.000157313)
(-8.99263e-05 0.000108196 0.000157309)
(-0.000293757 0.000106194 0.000158808)
(-0.000501886 0.000101667 0.00016004)
(-0.000718503 9.47206e-05 0.000156777)
(-0.000913333 8.53632e-05 0.000132309)
(-0.00107115 7.43059e-05 7.9356e-05)
(-0.00106965 6.2235e-05 -3.40327e-05)
(-0.000920136 5.16404e-05 -7.31767e-05)
(-0.000753322 4.44438e-05 -8.4485e-05)
(-0.000579495 3.84933e-05 -7.39956e-05)
(-0.000435385 3.39768e-05 -6.0053e-05)
(-0.000315016 3.02702e-05 -4.79524e-05)
(-0.000216252 2.74557e-05 -4.02961e-05)
(-0.00013107 2.5486e-05 -3.58184e-05)
(-5.31862e-05 2.41905e-05 -2.71639e-05)
(-1.0209e-05 2.2309e-05 -3.24059e-06)
(5.95483e-06 5.28781e-06 -1.7149e-06)
(3.17415e-05 5.60595e-06 -1.62754e-05)
(7.86548e-05 5.65414e-06 -2.1166e-05)
(0.000129082 5.69395e-06 -2.31169e-05)
(0.000186876 5.80714e-06 -2.67846e-05)
(0.000256653 6.08543e-06 -3.34712e-05)
(0.000344046 6.69831e-06 -4.3754e-05)
(0.00045751 7.83598e-06 -5.79091e-05)
(0.000598052 9.86172e-06 -7.33806e-05)
(0.000771468 1.26792e-05 -8.5285e-05)
(0.000939791 1.65491e-05 -7.48274e-05)
(0.00109299 1.95705e-05 -3.66419e-05)
(0.00109715 2.17974e-05 7.83493e-05)
(0.00093924 2.38424e-05 0.000131896)
(0.000743896 2.54519e-05 0.000156706)
(0.000526183 2.69505e-05 0.000160037)
(0.000316855 2.81339e-05 0.000158815)
(0.000111688 2.90365e-05 0.000157307)
(-9.01403e-05 2.95783e-05 0.000157303)
(-0.000295421 2.97244e-05 0.0001588)
(-0.000505006 2.94695e-05 0.000160024)
(-0.000723035 2.87189e-05 0.000156732)
(-0.000919144 2.75879e-05 0.00013217)
(-0.0010779 2.57505e-05 7.90197e-05)
(-0.00107659 2.34211e-05 -3.47315e-05)
(-0.000926312 2.0151e-05 -7.39076e-05)
(-0.000758344 1.60735e-05 -8.51692e-05)
(-0.000583399 1.30677e-05 -7.45775e-05)
(-0.000438302 1.08916e-05 -6.05407e-05)
(-0.000317145 9.63569e-06 -4.83655e-05)
(-0.000217712 8.9359e-06 -4.06635e-05)
(-0.000131944 8.59466e-06 -3.61585e-05)
(-5.35094e-05 8.40193e-06 -2.74381e-05)
(-1.02431e-05 7.92383e-06 -3.3155e-06)
(5.87244e-06 -3.48862e-06 -1.7798e-06)
(3.14851e-05 -4.11598e-06 -1.62858e-05)
(7.81265e-05 -4.94414e-06 -2.11506e-05)
(0.000128334 -6.28012e-06 -2.30886e-05)
(0.000185998 -8.12637e-06 -2.67326e-05)
(0.000255828 -1.0338e-05 -3.33766e-05)
(0.000343513 -1.257e-05 -4.3594e-05)
(0.000457659 -1.44861e-05 -5.76484e-05)
(0.000598935 -1.51832e-05 -7.29916e-05)
(0.000773115 -1.53701e-05 -8.47586e-05)
(0.000940567 -1.40076e-05 -7.42417e-05)
(0.0010914 -1.84825e-05 -3.58663e-05)
(0.00109459 -2.68447e-05 7.93148e-05)
(0.000936733 -3.45927e-05 0.000133334)
(0.000741867 -4.16514e-05 0.000158512)
(0.000524941 -4.65161e-05 0.000162171)
(0.00031634 -4.96432e-05 0.000161137)
(0.000111917 -5.08125e-05 0.00015972)
(-8.92371e-05 -5.01778e-05 0.000159712)
(-0.00029386 -4.77782e-05 0.00016111)
(-0.000502885 -4.35707e-05 0.000162135)
(-0.000720381 -3.78461e-05 0.000158502)
(-0.000916322 -3.02968e-05 0.000133553)
(-0.00107537 -2.24226e-05 7.9907e-05)
(-0.0010753 -1.44285e-05 -3.40675e-05)
(-0.000927448 -1.05466e-05 -7.34359e-05)
(-0.000760328 -1.24282e-05 -8.47637e-05)
(-0.000584613 -1.27421e-05 -7.43033e-05)
(-0.000438782 -1.25448e-05 -6.0375e-05)
(-0.000316955 -1.11728e-05 -4.82827e-05)
(-0.000217273 -9.58726e-06 -4.06293e-05)
(-0.000131513 -8.18003e-06 -3.61537e-05)
(-5.32877e-05 -7.20663e-06 -2.74714e-05)
(-1.01649e-05 -6.27557e-06 -3.41468e-06)
(5.66737e-06 -1.18678e-05 -1.87879e-06)
(3.07334e-05 -1.344e-05 -1.61591e-05)
(7.64703e-05 -1.52172e-05 -2.0934e-05)
(0.000125839 -1.80912e-05 -2.28313e-05)
(0.000182777 -2.22007e-05 -2.64024e-05)
(0.000252165 -2.741e-05 -3.29142e-05)
(0.0003398 -3.32239e-05 -4.29269e-05)
(0.000454672 -3.90336e-05 -5.666e-05)
(0.000596753 -4.28924e-05 -7.15795e-05)
(0.000772133 -4.55894e-05 -8.2855e-05)
(0.000936425 -4.37532e-05 -7.20828e-05)
(0.00108032 -5.67918e-05 -3.30543e-05)
(0.00108124 -7.88342e-05 8.2516e-05)
(0.000924497 -9.89616e-05 0.000137787)
(0.000731955 -0.000116804 0.000163965)
(0.000518146 -0.000129248 0.000168548)
(0.000312524 -0.000137383 0.000168047)
(0.00011114 -0.000140891 0.000166887)
(-8.70978e-05 -0.000140104 0.000166867)
(-0.000288785 -0.000135061 0.000167982)
(-0.000495033 -0.000125569 0.000168445)
(-0.000709747 -0.000112023 0.000163858)
(-0.000903784 -9.35928e-05 0.000137875)
(-0.00106222 -7.33725e-05 8.29556e-05)
(-0.00106484 -5.20719e-05 -3.14467e-05)
(-0.000924025 -4.01785e-05 -7.14487e-05)
(-0.000760011 -4.28813e-05 -8.30307e-05)
(-0.000583089 -4.10087e-05 -7.30316e-05)
(-0.000436493 -3.79897e-05 -5.94959e-05)
(-0.000314057 -3.31433e-05 -4.76806e-05)
(-0.000214625 -2.85318e-05 -4.01811e-05)
(-0.000129576 -2.48727e-05 -3.57968e-05)
(-5.24168e-05 -2.24601e-05 -2.7263e-05)
(-9.94242e-06 -2.00434e-05 -3.54883e-06)
(5.30948e-06 -1.95283e-05 -2.01848e-06)
(2.93987e-05 -2.19944e-05 -1.58992e-05)
(7.34988e-05 -2.47647e-05 -2.05195e-05)
(0.00012124 -2.93185e-05 -2.23463e-05)
(0.000176584 -3.60154e-05 -2.57865e-05)
(0.000244663 -4.48564e-05 -3.20515e-05)
(0.000331523 -5.53362e-05 -4.16631e-05)
(0.000447074 -6.65018e-05 -5.4705e-05)
(0.000590552 -7.47123e-05 -6.86487e-05)
(0.00076974 -7.98187e-05 -7.86326e-05)
(0.000927675 -6.99908e-05 -6.75618e-05)
(0.00105614 -9.43843e-05 -2.73163e-05)
(0.00105263 -0.000138316 8.9458e-05)
(0.000898792 -0.000176192 0.000147674)
(0.000711481 -0.000208658 0.000176147)
(0.000504228 -0.000230938 0.000182818)
(0.000304601 -0.000245378 0.000183537)
(0.00010916 -0.00025174 0.000182956)
(-8.33842e-05 -0.000250711 0.000182905)
(-0.000279244 -0.000242316 0.000183376)
(-0.000479725 -0.000226039 0.000182551)
(-0.000688312 -0.000202176 0.000175812)
(-0.000877686 -0.00016885 0.000147475)
(-0.001034 -0.00013078 8.95904e-05)
(-0.00104181 -8.81894e-05 -2.60401e-05)
(-0.000916457 -6.59529e-05 -6.72036e-05)
(-0.000758592 -7.69819e-05 -7.90978e-05)
(-0.000577868 -7.30007e-05 -7.03311e-05)
(-0.000429965 -6.59887e-05 -5.77008e-05)
(-0.000307056 -5.62135e-05 -4.64884e-05)
(-0.000208753 -4.74916e-05 -3.92932e-05)
(-0.000125502 -4.09421e-05 -3.50781e-05)
(-5.05803e-05 -3.67928e-05 -2.68158e-05)