/*--------------------------------*- C++ -*----------------------------------*\
| =========                 |                                                 |
| \\      /  F ield         | OpenFOAM: The Open Source CFD Toolbox           |
|  \\    /   O peration     | Version:  2112                                  |
|   \\  /    A nd           | Website:  www.openfoam.com                      |
|    \\/     M anipulation  |                                                 |
\*---------------------------------------------------------------------------*/
FoamFile
{
    version     2.0;
    format      ascii;
    arch        "LSB;label=32;scalar=64";
    class       volScalarField;
    location    "2.2";
    object      epsilon;
}
// * * * * * * * * * * * * * * * * * * * * * * * * * * * * * * * * * * * * * //

dimensions      [0 2 -3 0 0 0 0];

internalField   nonuniform List<scalar> 
64906
(
0.000778124
0.000870169
0.000919775
0.000939085
0.000945605
0.000947602
0.000948176
0.000948345
0.000948406
0.000948437
0.000948459
0.000948473
0.00094848
0.00094848
0.000948473
0.00094846
0.000948443
0.000948424
0.000948412
0.000948425
0.000948441
0.000948454
0.000948461
0.000948461
0.000948452
0.000948431
0.000948378
0.000948216
0.000947644
0.000945649
0.000939131
0.000919823
0.000870217
0.00077816
0.000870201
0.0014744
0.00179084
0.00192852
0.00198248
0.00200154
0.00200765
0.00200946
0.00200995
0.00201007
0.00201009
0.00201011
0.00201014
0.00201019
0.00201023
0.00201026
0.00201028
0.00201029
0.00201029
0.00201028
0.00201027
0.00201024
0.0020102
0.00201015
0.0020101
0.00200997
0.00200952
0.00200777
0.00200171
0.00198267
0.00192871
0.00179103
0.00147455
0.000870282
0.00091987
0.00179095
0.00228063
0.00251066
0.00260828
0.00264558
0.00265843
0.00266238
0.00266335
0.00266339
0.00266323
0.00266316
0.00266323
0.00266339
0.00266357
0.00266371
0.00266379
0.00266383
0.00266384
0.00266381
0.00266374
0.00266361
0.00266344
0.00266327
0.00266314
0.00266293
0.00266204
0.00265832
0.00264572
0.00260857
0.00251103
0.00228099
0.00179124
0.000920003
0.000939229
0.00192873
0.0025108
0.00279749
0.00292507
0.00297609
0.00299423
0.00299957
0.00300014
0.00299903
0.00299768
0.0029969
0.0029967
0.00299691
0.00299723
0.00299743
0.00299753
0.00299757
0.00299758
0.00299756
0.00299748
0.00299729
0.00299698
0.00299676
0.00299685
0.00299719
0.0029969
0.00299253
0.0029754
0.00292508
0.00279785
0.00251126
0.00192912
0.000939406
0.000945777
0.00198276
0.0026085
0.00292517
0.00306992
0.00312906
0.00314981
0.00315438
0.00315189
0.0031464
0.00314096
0.00313788
0.00313682
0.00313702
0.00313755
0.00313775
0.00313772
0.00313768
0.0031377
0.00313776
0.00313781
0.00313763
0.00313711
0.0031369
0.00313782
0.00314033
0.00314372
0.0031425
0.00312526
0.00306856
0.00292509
0.00260892
0.0019832
0.00094599
0.000947786
0.00200184
0.00264583
0.00297623
0.00312912
0.00319149
0.00321126
0.0032106
0.00319837
0.00318005
0.00316321
0.0031551
0.00315287
0.00315364
0.00315495
0.00315501
0.00315458
0.0031543
0.00315431
0.00315463
0.00315509
0.00315505
0.00315376
0.00315296
0.00315504
0.00316252
0.00317709
0.00318805
0.00317887
0.00312375
0.00297469
0.00264587
0.00200226
0.000948028
0.000948361
0.00200795
0.00265868
0.0029944
0.00314997
0.00321148
0.00322519
0.00321039
0.00317333
0.00312194
0.00307691
0.00306259
0.00306271
0.00306747
0.00307165
0.00307164
0.00307044
0.00306973
0.00306975
0.0030705
0.00307173
0.00307177
0.00306761
0.00306283
0.00306257
0.00307624
0.00311896
0.00316275
0.00317768
0.00313509
0.0029893
0.00265767
0.00200818
0.00094862
0.000948519
0.00200972
0.0026626
0.00299981
0.00315489
0.00321165
0.00321183
0.00316691
0.0030745
0.00294436
0.00283178
0.00282742
0.00284993
0.00287024
0.00288259
0.00288339
0.00288156
0.0028805
0.00288052
0.00288162
0.0028835
0.00288274
0.00287041
0.00285009
0.00282746
0.00283121
0.00294157
0.00306413
0.00313419
0.00312112
0.00298777
0.0026595
0.00200952
0.000948774
0.000948561
0.00201017
0.00266358
0.00300066
0.00315337
0.00320188
0.00317955
0.00308153
0.00288072
0.00257105
0.00228442
0.00238565
0.00250003
0.00256352
0.00259241
0.00259725
0.00259664
0.002596
0.00259602
0.0025967
0.00259736
0.00259257
0.00256372
0.00250026
0.00238582
0.00228403
0.00256867
0.00287091
0.00304936
0.00308913
0.00297782
0.00265725
0.00200926
0.000948786
0.000948571
0.00201023
0.0026637
0.0030002
0.00315008
0.00318918
0.00313971
0.00297008
0.00259359
0.00190626
0.0011914
0.0016927
0.0020596
0.00220727
0.00225731
0.00227143
0.00227472
0.00227535
0.00227537
0.00227478
0.00227153
0.00225746
0.00220748
0.0020599
0.00169304
0.00119126
0.00190459
0.00258453
0.00293859
0.0030498
0.00296535
0.00265388
0.00200854
0.000948749
0.000948567
0.00201022
0.00266375
0.00300004
0.0031486
0.0031828
0.0031174
0.00289714
0.00235585
0.00121541
0.00110406
0.00173496
0.00195634
0.00202019
0.002037
0.00204069
0.00204134
0.00204135
0.00204072
0.00203705
0.00202028
0.00195651
0.00173524
0.00110423
0.00121473
0.00234741
0.00286599
0.00302766
0.00295896
0.00265223
0.00200812
0.000948726
0.00094855
0.00201021
0.002664
0.00300088
0.00315102
0.00318986
0.00313883
0.00296497
0.00258041
0.00188206
0.00117327
0.00160218
0.00193427
0.00206408
0.00210394
0.00211522
0.0021166
0.00211634
0.00211634
0.00211657
0.00211518
0.0021039
0.00206405
0.00193426
0.00160203
0.00117288
0.00187983
0.002571
0.0029332
0.00304857
0.00296549
0.00265408
0.00200841
0.000948727
0.000948523
0.00201021
0.00266438
0.00300231
0.00315552
0.00320331
0.00317716
0.00306875
0.00284581
0.00249717
0.00215326
0.00215207
0.002175
0.0021899
0.00219564
0.00219639
0.00219531
0.00219456
0.00219455
0.00219527
0.00219632
0.00219553
0.00218974
0.00217475
0.0021516
0.00215219
0.00249424
0.00283562
0.0030362
0.00308612
0.00297815
0.00265783
0.00200915
0.000948734
0.000948487
0.00201021
0.00266474
0.00300368
0.00315976
0.00321547
0.00320951
0.00314747
0.00301749
0.00281798
0.00259619
0.00244261
0.00232428
0.00227159
0.00225315
0.00224669
0.0022441
0.00224313
0.00224312
0.00224405
0.00224659
0.00225301
0.00227137
0.00232396
0.00244213
0.00259504
0.00281475
0.00300679
0.00311426
0.00311771
0.00298953
0.00266131
0.00200984
0.000948719
0.000948445
0.0020102
0.002665
0.00300465
0.00316267
0.00322338
0.0032293
0.00319193
0.00310458
0.00295991
0.0027694
0.00256864
0.002395
0.00231179
0.00228114
0.00227091
0.00226745
0.00226628
0.00226626
0.00226737
0.0022708
0.00228098
0.00231155
0.00239467
0.00256799
0.00276825
0.00295657
0.00309361
0.00315828
0.00313696
0.00299684
0.00266363
0.00201029
0.000948678
0.000948399
0.00201018
0.00266517
0.00300524
0.0031643
0.00322758
0.00323922
0.0032128
0.00314241
0.00301626
0.00283306
0.00261694
0.00242297
0.00232803
0.0022924
0.00228053
0.00227658
0.00227521
0.00227518
0.00227648
0.0022804
0.00229222
0.00232778
0.00242264
0.00261629
0.00283191
0.00301287
0.00313129
0.00317891
0.00314655
0.00300068
0.00266488
0.0020105
0.000948619
0.000948352
0.00201015
0.00266526
0.00300555
0.00316511
0.00322952
0.00324351
0.0032213
0.00315687
0.00303642
0.00285462
0.00263342
0.00243258
0.00233366
0.00229627
0.00228377
0.00227955
0.00227799
0.00227794
0.00227943
0.00228362
0.00229608
0.00233341
0.00243225
0.00263278
0.00285349
0.00303301
0.00314569
0.00318729
0.00315068
0.00300241
0.00266547
0.00201058
0.000948553
0.000948308
0.00201013
0.0026653
0.0030057
0.00316546
0.00323027
0.00324506
0.0032242
0.00316155
0.00304262
0.002861
0.00263828
0.00243541
0.00233532
0.0022974
0.00228467
0.00228031
0.00227858
0.00227851
0.00228017
0.0022845
0.0022972
0.00233506
0.00243507
0.00263765
0.00285988
0.00303922
0.00315036
0.00319016
0.00315217
0.00300308
0.00266571
0.0020106
0.000948488
0.000948272
0.00201012
0.00266532
0.00300574
0.00316552
0.00323035
0.00324517
0.00322434
0.00316172
0.00304283
0.00286122
0.00263849
0.00243554
0.0023354
0.00229743
0.00228465
0.00228023
0.00227841
0.00227833
0.00228008
0.00228448
0.00229722
0.00233514
0.00243521
0.00263787
0.00286011
0.00303944
0.00315056
0.00319032
0.00315229
0.00300316
0.00266576
0.0020106
0.000948432
0.000948269
0.00201012
0.00266531
0.00300567
0.00316529
0.00322977
0.00324384
0.00322173
0.0031574
0.00303705
0.00285531
0.00263408
0.002433
0.00233392
0.00229639
0.00228375
0.00227936
0.00227755
0.00227746
0.0022792
0.00228357
0.00229618
0.00233366
0.00243268
0.00263349
0.00285424
0.00303371
0.00314629
0.00318777
0.00315104
0.00300266
0.0026656
0.00201058
0.000948429
0.000948309
0.00201015
0.00266526
0.00300544
0.00316461
0.00322801
0.00323979
0.00321355
0.00314336
0.00301742
0.00283434
0.00261821
0.00242377
0.00232854
0.00229267
0.00228057
0.00227635
0.00227467
0.00227459
0.00227619
0.00228039
0.00229247
0.00232831
0.00242348
0.00261767
0.00283333
0.00301416
0.00313237
0.00317975
0.00314717
0.0030011
0.00266511
0.00201051
0.000948488
0.000948356
0.00201019
0.00266514
0.00300494
0.0031631
0.00322398
0.00323012
0.00319303
0.00310604
0.00296176
0.00277157
0.0025708
0.00239635
0.00231268
0.00228167
0.00227112
0.00226733
0.00226588
0.00226582
0.0022672
0.00227096
0.00228149
0.00231248
0.00239611
0.00257038
0.00277068
0.00295866
0.00309527
0.00315953
0.00313786
0.00299745
0.00266396
0.00201033
0.00094855
0.000948401
0.00201022
0.00266493
0.00300404
0.00316032
0.00321625
0.00321059
0.00314896
0.00301954
0.00282076
0.00259962
0.00244553
0.00232627
0.00227287
0.00225393
0.00224708
0.00224419
0.002243
0.00224296
0.00224408
0.00224695
0.00225379
0.00227272
0.00232614
0.00244535
0.00259894
0.00281796
0.00300916
0.00311596
0.0031189
0.00299032
0.00266174
0.00200992
0.000948597
0.000948441
0.00201023
0.0026646
0.00300273
0.00315618
0.00320423
0.00317845
0.00307055
0.00284841
0.00250089
0.00215818
0.00215606
0.00217701
0.00219077
0.00219583
0.00219617
0.00219483
0.00219393
0.00219391
0.00219475
0.00219606
0.00219569
0.00219061
0.00217694
0.00215621
0.00215787
0.00249861
0.00283861
0.00303822
0.00308752
0.00297909
0.00265835
0.00200927
0.000948619
0.000948472
0.00201022
0.0026642
0.00300128
0.00315166
0.00319078
0.00314013
0.00296682
0.00258315
0.00188602
0.00117545
0.00160398
0.00193236
0.00206024
0.00209885
0.00210952
0.00211064
0.00211027
0.00211024
0.00211054
0.0021093
0.00209839
0.00205947
0.00193156
0.00160412
0.00117522
0.00188449
0.00257386
0.00293503
0.00304988
0.00296641
0.00265462
0.00200855
0.000948619
0.000948488
0.00201015
0.00266373
0.00300008
0.00314877
0.00318316
0.00311796
0.00289779
0.00235652
0.00121558
0.00109841
0.00171765
0.00193159
0.00199063
0.00200555
0.00200863
0.00200905
0.00200896
0.00200829
0.00200468
0.00198855
0.00192749
0.00171181
0.00109542
0.00121399
0.00234648
0.00286558
0.00302784
0.00295933
0.00265252
0.00200818
0.00094862
0.000948468
0.00200975
0.00266267
0.00299868
0.00314833
0.00318741
0.00313796
0.00296809
0.00259086
0.00190267
0.00118755
0.00165885
0.00199688
0.00211531
0.00214701
0.00215558
0.00215779
0.00215822
0.00215804
0.002157
0.00215309
0.00214007
0.00209953
0.00197016
0.00163604
0.00118044
0.0018921
0.00257501
0.00293309
0.00304697
0.00296387
0.00265311
0.00200817
0.000948626
0.000948333
0.00200808
0.00265892
0.00299374
0.003145
0.00319274
0.00316975
0.00307005
0.0028646
0.00254412
0.00223468
0.00228374
0.00232888
0.00231714
0.00230254
0.00229589
0.0022938
0.00229319
0.0022929
0.00229237
0.00229089
0.00228711
0.00227808
0.00225472
0.00221042
0.00218268
0.00250854
0.00283673
0.00303009
0.00307755
0.00297035
0.00265274
0.00200729
0.00094854
0.000947781
0.00200209
0.00264634
0.0029764
0.00312684
0.00318106
0.00317938
0.00313091
0.00302906
0.00287591
0.00271485
0.00262232
0.00252098
0.00241077
0.00235734
0.00233817
0.00233239
0.00233084
0.00233046
0.00233047
0.00233111
0.00233443
0.00234768
0.0023896
0.00248988
0.00261695
0.0028144
0.00298924
0.00308685
0.00308779
0.00296328
0.0026433
0.00200201
0.000948023
0.000945795
0.0019831
0.00260924
0.00292603
0.00306984
0.00312513
0.00313523
0.00311566
0.00306688
0.00298711
0.00288293
0.0027655
0.00262265
0.00248225
0.00241497
0.00239076
0.00238345
0.00238153
0.00238112
0.00238134
0.0023829
0.00238931
0.00241158
0.00247594
0.00261581
0.00277112
0.00291781
0.00302431
0.0030727
0.00304925
0.00291983
0.00260833
0.00198349
0.000946052
0.000939274
0.00192914
0.00251169
0.00279877
0.0029263
0.00297599
0.00298969
0.00298408
0.00296193
0.00292007
0.00285461
0.00276343
0.00264916
0.00253923
0.00248152
0.00245911
0.00245209
0.00245026
0.00244991
0.00245016
0.00245182
0.00245856
0.00248027
0.00253729
0.00264785
0.00276659
0.00286519
0.0029281
0.00294906
0.00291685
0.00279666
0.00251198
0.00192976
0.000939528
0.000919949
0.00179139
0.00228157
0.00251209
0.00261003
0.00264721
0.00265874
0.00265864
0.00265005
0.00263084
0.00259684
0.00254486
0.00247831
0.00241454
0.00237832
0.00236315
0.0023581
0.00235671
0.00235645
0.00235668
0.002358
0.00236295
0.00237793
0.00241401
0.00247806
0.00254585
0.00259917
0.00263021
0.00263606
0.002607
0.00251214
0.00228239
0.00179206
0.000920183
0.00087031
0.0014748
0.00179163
0.00192969
0.001984
0.00200332
0.0020094
0.00201039
0.00200827
0.00200221
0.00199015
0.00197028
0.00194398
0.00191821
0.00190273
0.00189585
0.00189342
0.0018927
0.00189256
0.00189271
0.00189343
0.00189584
0.00190268
0.00191814
0.00194396
0.00197051
0.00199041
0.00200093
0.00200081
0.001984
0.00193047
0.00179243
0.00147533
0.000870502
0.000778216
0.000870367
0.000920132
0.0009396
0.000946276
0.000948435
0.000949174
0.000949468
0.000949527
0.0009493
0.000948595
0.000947118
0.000944887
0.000942488
0.000940976
0.00094023
0.000939877
0.000939681
0.000939605
0.000939694
0.000939889
0.000940231
0.000940959
0.000942449
0.000944827
0.000947048
0.00094851
0.000949087
0.000948782
0.000946746
0.000940042
0.00092048
0.000870595
0.000778342
0.00101732
0.00137605
0.0015824
0.00167313
0.00170814
0.00172026
0.00172406
0.00172514
0.0017254
0.00172543
0.0017254
0.00172535
0.0017253
0.00172527
0.00172524
0.00172522
0.0017252
0.00172518
0.00172518
0.00172519
0.00172521
0.00172523
0.00172526
0.00172529
0.00172531
0.00172529
0.00172506
0.00172402
0.00172026
0.00170816
0.00167316
0.00158243
0.00137609
0.00101735
0.00137606
0.00162754
0.00186393
0.00198221
0.00203211
0.00205062
0.00205675
0.00205856
0.00205899
0.00205901
0.00205892
0.00205883
0.00205877
0.00205873
0.00205871
0.00205869
0.00205868
0.00205867
0.00205867
0.00205868
0.0020587
0.00205871
0.00205873
0.00205877
0.0020588
0.00205877
0.00205838
0.00205665
0.00205059
0.00203211
0.00198224
0.00186397
0.00162758
0.0013761
0.00158248
0.00186397
0.00215202
0.00230638
0.00237617
0.00240392
0.00241371
0.0024167
0.00241733
0.00241719
0.00241687
0.00241661
0.00241648
0.00241643
0.00241643
0.00241643
0.00241642
0.00241642
0.00241642
0.00241643
0.00241644
0.00241644
0.00241644
0.00241648
0.00241656
0.00241658
0.00241604
0.00241327
0.00240372
0.00237613
0.00230643
0.00215212
0.00186407
0.00158257
0.00167328
0.00198231
0.00230644
0.00248653
0.00257129
0.00260634
0.00261905
0.00262274
0.00262299
0.00262198
0.00262078
0.00261996
0.00261958
0.0026195
0.00261952
0.00261953
0.00261951
0.0026195
0.0026195
0.00261952
0.00261955
0.00261954
0.00261952
0.00261958
0.00261987
0.00262035
0.00262033
0.00261736
0.00260543
0.00257094
0.0024865
0.00230655
0.00198246
0.00167344
0.00170835
0.00203225
0.00237628
0.00257134
0.00266519
0.0027047
0.00271878
0.0027218
0.00271992
0.00271599
0.00271213
0.00270979
0.00270888
0.00270876
0.00270886
0.00270887
0.00270879
0.00270872
0.00270873
0.0027088
0.00270889
0.00270889
0.00270879
0.00270889
0.00270969
0.0027116
0.00271398
0.00271319
0.00270154
0.00266379
0.00257092
0.0023763
0.00203239
0.00170855
0.0017205
0.00205078
0.00240405
0.00260643
0.00270475
0.00274598
0.00275922
0.00275869
0.00275048
0.00273852
0.00272777
0.00272225
0.00272084
0.00272113
0.0027216
0.00272169
0.00272149
0.00272132
0.00272133
0.00272151
0.00272172
0.00272164
0.00272117
0.00272085
0.00272214
0.00272719
0.00273631
0.00274314
0.0027368
0.00270047
0.00260486
0.00240369
0.00205084
0.00172068
0.00172431
0.00205691
0.00241385
0.00261918
0.00271893
0.00275939
0.00276855
0.00275891
0.00273531
0.0027039
0.00267756
0.00266697
0.00266728
0.00267018
0.00267212
0.00267281
0.00267255
0.00267224
0.00267225
0.00267257
0.00267284
0.00267216
0.00267023
0.00266731
0.00266687
0.00267697
0.00270162
0.00272771
0.00273628
0.0027081
0.00261497
0.00241258
0.0020567
0.00172438
0.00172538
0.0020587
0.00241685
0.00262296
0.00272223
0.00275949
0.00275994
0.00273171
0.00267581
0.00260237
0.00254569
0.00252872
0.00254014
0.0025524
0.00255842
0.00256144
0.0025617
0.00256139
0.00256139
0.00256172
0.00256148
0.00255847
0.00255246
0.0025402
0.00252865
0.00254513
0.00260011
0.00266816
0.00270884
0.00269886
0.0026138
0.00241388
0.00205797
0.00172521
0.00172563
0.00205912
0.00241754
0.00262346
0.00272109
0.00275301
0.0027396
0.00268066
0.00256768
0.00241631
0.00232834
0.00228322
0.0023297
0.00236656
0.0023809
0.00239039
0.00239279
0.00239297
0.00239297
0.00239281
0.00239043
0.00238097
0.00236666
0.0023298
0.00228321
0.0023278
0.00241409
0.00256005
0.00265773
0.0026783
0.00260686
0.00241202
0.0020576
0.00172507
0.00172565
0.00205914
0.00241753
0.00262299
0.00271874
0.00274482
0.00271587
0.00262043
0.00243524
0.00219759
0.00259256
0.00196119
0.00206392
0.00214569
0.00217222
0.00219278
0.00219895
0.00220009
0.0022001
0.00219898
0.00219283
0.00217229
0.00214581
0.00206406
0.00196124
0.00259139
0.00219515
0.00242749
0.00259739
0.0026544
0.00259843
0.00240934
0.00205678
0.00172463
0.00172561
0.00205909
0.00241746
0.00262272
0.00271757
0.00274079
0.00270399
0.00259129
0.00239675
0.00272123
0.00215699
0.00188655
0.00198782
0.00203788
0.00204732
0.00204821
0.00204811
0.00204812
0.00204822
0.00204734
0.00203793
0.00198791
0.00188668
0.0021573
0.00271554
0.00238857
0.00256803
0.00264234
0.00259418
0.00240793
0.00205627
0.00172433
0.00172556
0.00205905
0.00241754
0.00262312
0.00271887
0.00274455
0.00271428
0.00261567
0.00242373
0.0021706
0.00248529
0.00188809
0.00201643
0.00211852
0.00218755
0.00216186
0.00214942
0.00214624
0.00214624
0.0021494
0.00216182
0.00218752
0.00211849
0.00201639
0.00188783
0.0024835
0.00216791
0.0024158
0.00259243
0.00265254
0.00259777
0.00240899
0.00205648
0.0017244
0.00172551
0.00205905
0.00241774
0.00262397
0.00272163
0.00275269
0.00273638
0.0026703
0.00254218
0.00236132
0.00222205
0.00213091
0.00215049
0.00217048
0.00218746
0.002178
0.00217214
0.00217025
0.00217025
0.00217212
0.00217797
0.00218742
0.0021704
0.00215035
0.00213059
0.0022212
0.00235883
0.0025343
0.00264704
0.00267454
0.00260573
0.00241154
0.00205716
0.0017247
0.00172546
0.00205905
0.00241794
0.00262482
0.00272432
0.00276038
0.00275634
0.00271691
0.00263755
0.00252124
0.00239826
0.00230447
0.00225322
0.00222068
0.00220879
0.00220177
0.00219863
0.00219759
0.00219758
0.00219861
0.00220173
0.00220874
0.00222059
0.00225306
0.00230416
0.00239745
0.00251874
0.00262962
0.00269356
0.00269435
0.00261322
0.00241402
0.00205784
0.00172497
0.0017254
0.00205905
0.00241809
0.00262542
0.00272619
0.00276551
0.00276906
0.00274494
0.00269108
0.00260571
0.00249843
0.00239152
0.00230877
0.00225207
0.00222801
0.00221939
0.00221658
0.00221576
0.00221576
0.00221656
0.00221936
0.00222795
0.00225196
0.0023086
0.0023912
0.00249763
0.00260319
0.00268309
0.00272147
0.00270691
0.00261817
0.0024157
0.0020583
0.00172512
0.00172534
0.00205904
0.00241818
0.00262578
0.00272724
0.00276826
0.00277557
0.00275857
0.00271567
0.00264238
0.00254085
0.00242758
0.00233236
0.00226611
0.00223739
0.00222761
0.00222467
0.00222388
0.00222387
0.00222465
0.00222757
0.00223733
0.002266
0.0023322
0.00242724
0.00254005
0.00263985
0.00270763
0.00273502
0.0027133
0.00262078
0.00241661
0.00205853
0.00172517
0.00172529
0.00205902
0.00241822
0.00262595
0.00272774
0.00276951
0.00277839
0.00276422
0.00272536
0.00265615
0.00255622
0.00244042
0.00234077
0.00227118
0.00224085
0.00223058
0.00222754
0.00222673
0.00222672
0.00222752
0.00223054
0.00224079
0.00227108
0.00234061
0.00244009
0.00255542
0.00265361
0.00271729
0.00274062
0.00271606
0.00262195
0.00241702
0.00205863
0.00172514
0.00172525
0.00205901
0.00241824
0.00262603
0.00272794
0.00276998
0.00277939
0.00276614
0.00272852
0.00266046
0.00256087
0.00244425
0.00234326
0.00227269
0.00224187
0.00223144
0.00222836
0.00222752
0.00222751
0.00222833
0.0022314
0.00224181
0.00227258
0.00234309
0.00244392
0.00256008
0.00265792
0.00272044
0.00274252
0.00271703
0.00262237
0.00241717
0.00205867
0.0017251
0.00172523
0.00205901
0.00241824
0.00262604
0.00272796
0.00277001
0.00277943
0.00276619
0.00272858
0.00266054
0.00256096
0.00244433
0.00234332
0.00227273
0.0022419
0.00223145
0.00222836
0.00222751
0.0022275
0.00222833
0.00223141
0.00224184
0.00227263
0.00234316
0.00244401
0.00256017
0.00265801
0.00272052
0.00274257
0.00271707
0.0026224
0.00241718
0.00205867
0.00172507
0.00172523
0.00205902
0.00241824
0.00262599
0.0027278
0.0027696
0.00277851
0.00276438
0.00272557
0.0026564
0.0025565
0.0024407
0.00234099
0.00227134
0.00224094
0.00223063
0.00222757
0.00222672
0.00222671
0.00222754
0.00223059
0.00224089
0.00227124
0.00234084
0.0024404
0.00255573
0.00265389
0.00271752
0.00274079
0.00271619
0.00262203
0.00241706
0.00205864
0.00172506
0.00172526
0.00205903
0.00241821
0.00262584
0.00272735
0.00276842
0.00277578
0.00275886
0.00271604
0.00264286
0.00254141
0.00242815
0.00233281
0.00226644
0.00223761
0.00222777
0.00222479
0.00222396
0.00222395
0.00222477
0.00222774
0.00223756
0.00226635
0.00233268
0.00242787
0.00254066
0.00264038
0.00270805
0.00273533
0.00271352
0.00262092
0.00241668
0.00205854
0.00172505
0.00172531
0.00205904
0.00241813
0.00262552
0.00272635
0.00276574
0.00276937
0.00274538
0.00269168
0.0026065
0.0024994
0.00239252
0.00230956
0.00225266
0.00222844
0.00221975
0.0022169
0.00221605
0.00221604
0.00221688
0.00221974
0.00222841
0.0022526
0.00230947
0.0023923
0.00249871
0.00260409
0.00268376
0.00272195
0.00270724
0.00261837
0.0024158
0.00205832
0.001725
0.00172536
0.00205905
0.00241799
0.00262493
0.00272452
0.00276067
0.00275676
0.00271751
0.00263841
0.00252246
0.0023998
0.00230601
0.0022544
0.0022215
0.00220937
0.0022023
0.00219914
0.00219809
0.00219809
0.00219914
0.0022023
0.00220936
0.00222149
0.00225437
0.00230588
0.00239919
0.00252013
0.00263059
0.00269421
0.00269478
0.00261348
0.00241415
0.00205787
0.00172484
0.00172541
0.00205904
0.00241778
0.00262409
0.00272184
0.00275302
0.00273686
0.00267101
0.00254327
0.00236294
0.0022242
0.0021329
0.00215149
0.00217076
0.00218731
0.00217785
0.00217199
0.00217011
0.00217011
0.00217199
0.00217784
0.00218729
0.00217069
0.0021514
0.00213278
0.00222362
0.00236061
0.00253545
0.00264776
0.00267501
0.00260602
0.00241168
0.00205719
0.00172456
0.00172544
0.00205902
0.00241754
0.00262318
0.00271901
0.0027448
0.00271467
0.00261627
0.00242465
0.0021721
0.00249064
0.00188798
0.00201412
0.00211463
0.00218279
0.00215674
0.00214415
0.00214096
0.00214096
0.00214413
0.00215663
0.00218252
0.00211393
0.00201304
0.00188684
0.00248937
0.0021691
0.00241639
0.00259279
0.0026528
0.00259794
0.00240907
0.00205648
0.00172424
0.00172542
0.00205894
0.00241724
0.00262245
0.00271732
0.00274057
0.0027038
0.00259105
0.00239623
0.00271834
0.0021317
0.00186757
0.00196273
0.00200846
0.00201623
0.0020167
0.00201652
0.00201646
0.00201645
0.00201549
0.00200653
0.00195855
0.00186045
0.00211784
0.00270702
0.00238603
0.00256678
0.00264172
0.00259386
0.00240772
0.00205613
0.00172409
0.0017252
0.00205852
0.00241646
0.00262152
0.00271701
0.00274294
0.00271379
0.0026178
0.00243107
0.0021886
0.00255352
0.00192194
0.00200613
0.00206818
0.00208202
0.00209726
0.00210234
0.00210336
0.00210323
0.00210171
0.0020952
0.00207622
0.00205511
0.00198406
0.00189518
0.00251193
0.0021737
0.00241739
0.00259204
0.00265137
0.00259657
0.00240816
0.00205611
0.00172409
0.00172418
0.00205678
0.00241356
0.00261802
0.00271464
0.0027459
0.00273178
0.00267126
0.00255423
0.00239276
0.00228168
0.00220358
0.00220738
0.00220427
0.00219262
0.00219069
0.00219045
0.0021903
0.00219006
0.00218926
0.00218659
0.00218068
0.00217696
0.00216434
0.00215446
0.00223981
0.00236669
0.00253456
0.00264313
0.00266906
0.00260054
0.00240778
0.00205517
0.0017235
0.00172043
0.00205073
0.00240394
0.00260584
0.00270223
0.00273772
0.00273665
0.00270566
0.00264307
0.00255416
0.00246638
0.00240004
0.00234992
0.00230902
0.00227482
0.00226039
0.00225577
0.00225449
0.00225416
0.00225408
0.00225433
0.00225666
0.00226754
0.00229404
0.00233383
0.00241166
0.00251819
0.00261808
0.00267576
0.0026747
0.00259536
0.00240058
0.00204987
0.00172015
0.00170834
0.00203226
0.00237634
0.00257125
0.00266419
0.00270074
0.00270729
0.0026941
0.00266264
0.0026137
0.00255342
0.00248874
0.00242159
0.00236551
0.00232229
0.00230327
0.00229693
0.00229516
0.00229478
0.00229501
0.00229645
0.00230201
0.00231965
0.00236093
0.00241815
0.00249547
0.00257521
0.00263663
0.00266511
0.00264881
0.00256562
0.00237467
0.00203192
0.00170831
0.00167331
0.00198237
0.00230661
0.00248676
0.00257123
0.00260502
0.00261422
0.00260996
0.00259472
0.0025676
0.00252783
0.00247596
0.00241585
0.00236151
0.00232425
0.00230731
0.00230134
0.00229958
0.00229922
0.00229954
0.00230121
0.00230695
0.00232348
0.00236035
0.00241551
0.0024791
0.00253532
0.00257295
0.00258539
0.00256325
0.00248407
0.00230593
0.00198232
0.00167342
0.00158255
0.00186407
0.00215226
0.00230677
0.00237658
0.00240392
0.00241231
0.00241176
0.00240486
0.00239064
0.00236707
0.00233308
0.0022917
0.0022531
0.00222766
0.00221571
0.00221128
0.00220991
0.00220963
0.00220992
0.00221128
0.00221566
0.00222752
0.00225292
0.00229186
0.00233428
0.00236911
0.00239022
0.00239412
0.00237293
0.00230571
0.00215209
0.00186413
0.00158269
0.00137615
0.00162764
0.00186417
0.00198262
0.00203264
0.00205112
0.00205682
0.0020573
0.00205453
0.00204793
0.00203587
0.00201719
0.00199348
0.00197081
0.00195619
0.00194926
0.00194662
0.00194578
0.0019456
0.0019458
0.00194667
0.00194931
0.00195623
0.00197087
0.00199365
0.00201763
0.00203631
0.00204671
0.00204704
0.00203135
0.00198239
0.00186422
0.00162772
0.00137628
0.0010174
0.00137615
0.00158268
0.00167363
0.00170884
0.00172107
0.00172479
0.00172531
0.00172389
0.00172006
0.00171251
0.0017001
0.00168362
0.0016675
0.00165767
0.0016532
0.00165148
0.0016509
0.00165077
0.00165093
0.00165153
0.00165325
0.00165772
0.00166754
0.00168369
0.00170028
0.00171266
0.00171921
0.00171916
0.00170849
0.00167378
0.00158288
0.00137627
0.00101751
0.00114349
0.00170413
0.00204444
0.00220371
0.00226951
0.00229389
0.00230203
0.00230445
0.00230502
0.00230502
0.00230486
0.00230468
0.00230453
0.00230443
0.00230436
0.0023043
0.00230426
0.00230423
0.00230423
0.00230425
0.00230429
0.00230435
0.00230442
0.00230451
0.00230461
0.00230461
0.00230412
0.0023018
0.00229376
0.00226944
0.00220368
0.00204443
0.00170413
0.00114352
0.00170412
0.00188547
0.00213649
0.00227363
0.00233578
0.00236042
0.00236908
0.00237176
0.00237241
0.00237241
0.00237224
0.00237206
0.00237192
0.00237183
0.00237178
0.00237174
0.00237171
0.0023717
0.0023717
0.00237171
0.00237174
0.00237178
0.00237183
0.0023719
0.00237199
0.00237197
0.00237139
0.00236882
0.00236027
0.00233572
0.00227362
0.0021365
0.00188548
0.00170412
0.00204452
0.00213652
0.00239514
0.0025497
0.00262515
0.00265721
0.00266921
0.00267304
0.00267383
0.00267357
0.00267304
0.00267256
0.00267226
0.0026721
0.00267201
0.00267196
0.00267192
0.0026719
0.0026719
0.00267193
0.00267197
0.00267202
0.0026721
0.00267224
0.00267245
0.00267258
0.00267193
0.00266842
0.00265676
0.00262496
0.00254966
0.00239519
0.00213658
0.00204457
0.0022039
0.00227372
0.00254975
0.00272132
0.00280842
0.00284686
0.00286158
0.00286602
0.00286625
0.00286488
0.00286321
0.00286193
0.0028612
0.00286087
0.00286072
0.00286064
0.00286057
0.00286053
0.00286053
0.00286058
0.00286065
0.00286073
0.00286087
0.00286117
0.00286177
0.00286257
0.00286264
0.00285913
0.00284541
0.00280775
0.00272111
0.00254977
0.00227381
0.002204
0.00226977
0.00233591
0.00262525
0.00280847
0.00290336
0.00294585
0.00296178
0.0029653
0.00296305
0.00295837
0.00295364
0.00295043
0.00294886
0.00294824
0.00294798
0.00294788
0.00294775
0.00294766
0.00294766
0.00294776
0.00294789
0.002948
0.00294825
0.00294883
0.00295023
0.00295286
0.00295569
0.00295467
0.00294159
0.00290126
0.00280767
0.00262508
0.00233597
0.00226989
0.0022942
0.00236056
0.00265734
0.00284695
0.00294592
0.00298994
0.00300474
0.00300429
0.00299528
0.0029823
0.00297045
0.00296333
0.00296079
0.00296007
0.00295972
0.00295983
0.0029597
0.00295952
0.00295953
0.00295971
0.00295985
0.00295974
0.00296009
0.00296077
0.00296312
0.00296959
0.00297934
0.00298614
0.00297872
0.0029403
0.00284462
0.0026566
0.00236044
0.0022942
0.00230236
0.00236923
0.00266936
0.00286175
0.00296201
0.00300501
0.00301532
0.00300539
0.00298126
0.00295014
0.00292395
0.0029098
0.00290818
0.00290883
0.00290845
0.00291002
0.00291029
0.00291006
0.00291007
0.0029103
0.00291004
0.00290847
0.00290886
0.00290816
0.00290959
0.00292305
0.00294705
0.00297173
0.00297888
0.00294889
0.00285616
0.00266736
0.00236866
0.00230201
0.00230478
0.00237192
0.00267324
0.00286636
0.00296596
0.00300544
0.00300679
0.00297899
0.00292606
0.0028608
0.00281243
0.00278184
0.0027892
0.00279614
0.0027949
0.00280255
0.00280468
0.00280464
0.00280465
0.0028047
0.00280258
0.00279494
0.00279618
0.00278921
0.00278165
0.00281153
0.00285763
0.00291631
0.00295198
0.00293941
0.00285499
0.00266902
0.00237052
0.00230376
0.00230536
0.00237259
0.00267416
0.002867
0.00296477
0.00299872
0.00298684
0.00293231
0.00283546
0.00272279
0.00268664
0.00256761
0.00260452
0.00263037
0.00262272
0.00265055
0.00265842
0.00265932
0.00265933
0.00265844
0.0026506
0.00262277
0.00263045
0.00260458
0.00256746
0.00268564
0.00271945
0.00282546
0.00290491
0.00291889
0.00284747
0.00266681
0.00237001
0.00230333
0.00230539
0.00237265
0.00267416
0.00286644
0.00296219
0.00299049
0.00296516
0.00288392
0.0027498
0.00266107
0.00355696
0.00230068
0.00239245
0.00246173
0.00243057
0.00250805
0.00252902
0.00253226
0.00253227
0.00252906
0.00250812
0.00243063
0.00246186
0.00239259
0.00230056
0.00355414
0.0026568
0.00273921
0.00285602
0.0028967
0.00283869
0.00266366
0.00236887
0.00230228
0.0023053
0.00237258
0.00267405
0.00286607
0.00296087
0.00298654
0.00295553
0.00286889
0.00278846
0.00385102
0.00254525
0.00215959
0.00227237
0.00234178
0.00233584
0.00233098