/*--------------------------------*- C++ -*----------------------------------*\
| =========                 |                                                 |
| \\      /  F ield         | OpenFOAM: The Open Source CFD Toolbox           |
|  \\    /   O peration     | Version:  2112                                  |
|   \\  /    A nd           | Website:  www.openfoam.com                      |
|    \\/     M anipulation  |                                                 |
\*---------------------------------------------------------------------------*/
FoamFile
{
    version     2.0;
    format      ascii;
    arch        "LSB;label=32;scalar=64";
    class       volScalarField;
    location    "2.2";
    object      k;
}
// * * * * * * * * * * * * * * * * * * * * * * * * * * * * * * * * * * * * * //

dimensions      [0 2 -2 0 0 0 0];

internalField   nonuniform List<scalar> 
64906
(
0.000763704
0.000824031
0.000855934
0.000868348
0.000872584
0.0008739
0.000874284
0.000874398
0.000874438
0.000874458
0.000874471
0.000874479
0.000874483
0.000874482
0.000874477
0.000874469
0.000874458
0.000874446
0.000874438
0.000874446
0.000874457
0.000874465
0.00087447
0.00087447
0.000874465
0.000874452
0.000874417
0.000874308
0.000873926
0.00087261
0.000868377
0.000855964
0.000824062
0.000763728
0.000824053
0.0011746
0.00133948
0.0014089
0.00143604
0.00144572
0.00144887
0.00144981
0.00145007
0.00145013
0.00145013
0.00145014
0.00145015
0.00145017
0.00145019
0.00145021
0.00145021
0.00145022
0.00145022
0.00145022
0.00145021
0.0014502
0.00145018
0.00145016
0.00145013
0.00145007
0.00144983
0.00144892
0.00144579
0.00143613
0.001409
0.00133958
0.00117469
0.000824105
0.000855995
0.00133954
0.00157667
0.00168315
0.00172793
0.00174515
0.00175116
0.00175303
0.00175349
0.0017535
0.0017534
0.00175336
0.00175337
0.00175344
0.00175352
0.00175358
0.00175361
0.00175363
0.00175363
0.00175362
0.00175359
0.00175353
0.00175346
0.00175339
0.00175334
0.00175326
0.00175284
0.00175108
0.00174519
0.00172805
0.00168331
0.00157684
0.00133969
0.000856081
0.000868441
0.00140901
0.00168321
0.00181155
0.00186796
0.00189061
0.00189876
0.00190118
0.00190144
0.00190091
0.00190027
0.00189988
0.00189975
0.00189982
0.00189995
0.00190003
0.00190007
0.00190008
0.00190009
0.00190008
0.00190005
0.00189997
0.00189985
0.00189978
0.00189985
0.00190003
0.00189991
0.00189793
0.00189025
0.00186793
0.0018117
0.00168342
0.0014092
0.000868554
0.000872694
0.00143617
0.00172803
0.001868
0.00193108
0.00195693
0.00196609
0.00196813
0.00196701
0.00196455
0.00196209
0.00196065
0.00196011
0.00196014
0.00196035
0.00196042
0.0019604
0.00196038
0.00196038
0.00196041
0.00196044
0.00196038
0.00196018
0.00196014
0.00196062
0.00196179
0.0019633
0.00196275
0.00195516
0.0019304
0.00186792
0.0017282
0.00143639
0.000872829
0.000874019
0.00144587
0.00174527
0.00189068
0.00195696
0.00198407
0.00199273
0.00199245
0.0019871
0.00197908
0.00197166
0.00196795
0.00196681
0.00196704
0.00196755
0.00196755
0.00196735
0.00196722
0.00196723
0.00196737
0.00196758
0.00196759
0.00196708
0.00196684
0.00196791
0.00197133
0.00197771
0.00198243
0.00197838
0.00195447
0.00188991
0.00174525
0.00144606
0.000874171
0.000874403
0.00144901
0.00175127
0.00189884
0.00196617
0.00199283
0.00199883
0.00199244
0.0019764
0.00195418
0.00193455
0.00192791
0.00192758
0.00192943
0.00193116
0.00193112
0.00193057
0.00193025
0.00193026
0.0019306
0.00193115
0.00193121
0.00192949
0.00192763
0.00192789
0.00193423
0.00195279
0.0019716
0.00197791
0.00195945
0.00189644
0.00175074
0.00144911
0.000874565
0.000874509
0.00144994
0.00175314
0.0019013
0.00196837
0.00199295
0.0019931
0.00197378
0.00193399
0.00187763
0.00182821
0.00182531
0.00183442
0.00184298
0.00184829
0.00184859
0.00184776
0.00184728
0.00184729
0.00184779
0.00184864
0.00184835
0.00184305
0.00183449
0.00182532
0.00182792
0.0018763
0.00192922
0.00195917
0.00195337
0.00189576
0.0017516
0.0014498
0.000874668
0.000874537
0.00145018
0.0017536
0.00190169
0.00196771
0.00198871
0.00197921
0.00193715
0.00185022
0.00171305
0.00158147
0.00162656
0.00167762
0.00170591
0.00171886
0.001721
0.0017207
0.0017204
0.00172041
0.00172073
0.00172105
0.00171893
0.001706
0.00167772
0.00162663
0.00158126
0.00171187
0.00184561
0.00192265
0.00193947
0.00189132
0.00175054
0.00144966
0.000874673
0.000874543
0.00145021
0.00175366
0.00190148
0.00196626
0.00198322
0.00196215
0.00188925
0.0017236
0.00140071
0.00102096
0.00129042
0.00147112
0.00154103
0.00156453
0.00157116
0.00157272
0.00157301
0.00157302
0.00157274
0.00157121
0.0015646
0.00154113
0.00147127
0.0012906
0.00102087
0.00139978
0.00171919
0.00187487
0.00192246
0.00188579
0.00174896
0.00144928
0.000874645
0.00087454
0.00145021
0.00175368
0.0019014
0.00196561
0.00198047
0.00195261
0.00185776
0.00161579
0.00103527
0.00096847
0.00131002
0.0014198
0.00145085
0.00145907
0.00146089
0.00146122
0.00146123
0.00146091
0.00145909
0.00145089
0.00141988
0.00131016
0.000968574
0.00103483
0.00161155
0.00184342
0.0019129
0.00188296
0.00174819
0.00144907
0.000874628
0.000874528
0.0014502
0.0017538
0.00190177
0.00196665
0.00198347
0.00196167
0.0018868
0.00171725
0.00138805
0.00100989
0.00124176
0.00140803
0.00147058
0.00148954
0.00149507
0.0014958
0.0014957
0.0014957
0.00149579
0.00149506
0.00148952
0.00147056
0.00140802
0.00124168
0.00100965
0.00138684
0.00171267
0.00187229
0.00192181
0.0018858
0.00174903
0.00144921
0.000874629
0.000874511
0.00145021
0.00175397
0.00190241
0.00196862
0.00198924
0.00197798
0.00193118
0.00183403
0.00167796
0.0015171
0.00151381
0.00152302
0.00152944
0.00153196
0.00153233
0.00153184
0.00153149
0.00153149
0.00153182
0.0015323
0.00153191
0.00152937
0.0015229
0.00151358
0.00151656
0.00167651
0.00182924
0.0019165
0.00193795
0.00189137
0.00175077
0.0014496
0.000874635
0.000874488
0.00145021
0.00175415
0.00190304
0.00197049
0.0019945
0.00199183
0.00196481
0.00190813
0.00182018
0.0017202
0.00164863
0.00159271
0.00156747
0.00155857
0.00155547
0.00155424
0.00155378
0.00155377
0.00155421
0.00155542
0.0015585
0.00156737
0.00159256
0.0016484
0.00171965
0.00181864
0.0019032
0.00194995
0.00195161
0.00189642
0.0017524
0.00144996
0.000874628
0.000874461
0.00145021
0.00175427
0.00190348
0.00197178
0.00199797
0.00200038
0.00198388
0.00194553
0.00188183
0.00179697
0.00170582
0.00162548
0.00158623
0.00157161
0.00156671
0.00156505
0.0015645
0.00156448
0.00156501
0.00156665
0.00157153
0.00158612
0.00162533
0.00170552
0.00179642
0.00188026
0.00194051
0.00196889
0.00196
0.00189971
0.0017535
0.0014502
0.000874603
0.000874432
0.00145019
0.00175435
0.00190375
0.00197252
0.00199983
0.00200471
0.00199291
0.00196184
0.00190628
0.00182505
0.00172771
0.0016385
0.00159387
0.00157691
0.00157122
0.00156933
0.00156868
0.00156866
0.00156928
0.00157116
0.00157682
0.00159375
0.00163834
0.00172741
0.00182451
0.0019047
0.00195678
0.00197785
0.00196423
0.00190145
0.0017541
0.00145032
0.000874566
0.000874402
0.00145018
0.00175439
0.00190389
0.00197288
0.00200069
0.0020066
0.00199662
0.00196813
0.0019151
0.00183463
0.00173523
0.001643
0.00159654
0.00157875
0.00157276
0.00157074
0.00157
0.00156997
0.00157068
0.00157269
0.00157866
0.00159642
0.00164285
0.00173493
0.0018341
0.00191351
0.00196306
0.00198152
0.00196606
0.00190224
0.00175438
0.00145037
0.000874525
0.000874375
0.00145017
0.00175442
0.00190396
0.00197304
0.00200103
0.0020073
0.0019979
0.00197019
0.00191784
0.00183749
0.00173746
0.00164434
0.00159734
0.00157929
0.00157319
0.0015711
0.00157028
0.00157025
0.00157103
0.00157311
0.00157919
0.00159722
0.00164418
0.00173717
0.00183696
0.00191625
0.00196511
0.00198279
0.00196673
0.00190255
0.0017545
0.00145038
0.000874483
0.000874351
0.00145016
0.00175442
0.00190398
0.00197306
0.00200106
0.00200734
0.00199796
0.00197027
0.00191793
0.00183759
0.00173756
0.0016444
0.00159737
0.0015793
0.00157318
0.00157106
0.0015702
0.00157016
0.00157099
0.0015731
0.00157921
0.00159725
0.00164425
0.00173727
0.00183706
0.00191635
0.0019652
0.00198286
0.00196678
0.00190258
0.00175452
0.00145037
0.000874448
0.000874349
0.00145017
0.00175442
0.00190395
0.00197296
0.0020008
0.00200675
0.0019968
0.00196837
0.00191537
0.00183494
0.00173553
0.0016432
0.00159666
0.0015788
0.00157275
0.00157065
0.00156979
0.00156974
0.00157057
0.00157267
0.00157871
0.00159654
0.00164305
0.00173525
0.00183443
0.00191381
0.00196332
0.00198173
0.00196622
0.00190235
0.00175444
0.00145036
0.000874446
0.000874375
0.00145018
0.00175439
0.00190384
0.00197265
0.00200001
0.00200495
0.00199322
0.00196225
0.00190679
0.00182562
0.00172829
0.00163887
0.00159411
0.00157703
0.00157124
0.00156922
0.00156842
0.00156838
0.00156915
0.00157116
0.00157694
0.001594
0.00163873
0.00172804
0.00182514
0.00190526
0.00195725
0.00197821
0.00196449
0.00190163
0.0017542
0.00145032
0.000874483
0.000874404
0.0014502
0.00175434
0.0019036
0.00197197
0.00199822
0.00200073
0.00198435
0.00194615
0.00188264
0.00179793
0.00170682
0.00162612
0.00158665
0.00157186
0.00156681
0.001565
0.00156431
0.00156428
0.00156493
0.00156673
0.00157178
0.00158656
0.00162601
0.00170662
0.0017975
0.00188118
0.00194123
0.00196943
0.00196039
0.00189997
0.00175365
0.00145022
0.000874521
0.000874433
0.00145021
0.00175423
0.00190319
0.00197073
0.00199484
0.00199229
0.00196545
0.00190902
0.00182141
0.00172176
0.00164998
0.00159365
0.00156808
0.00155894
0.00155565
0.00155427
0.00155371
0.00155369
0.00155422
0.00155559
0.00155887
0.00156801
0.00159359
0.00164989
0.00172143
0.00182007
0.00190423
0.00195068
0.00195212
0.00189677
0.0017526
0.00145
0.00087455
0.000874459
0.00145022
0.00175407
0.0019026
0.00196889
0.00198963
0.00197853
0.00193196
0.00183518
0.00167968
0.00151948
0.00151575
0.00152398
0.00152984
0.00153202
0.00153219
0.00153158
0.00153116
0.00153115
0.00153154
0.00153214
0.00153195
0.00152976
0.00152395
0.00151582
0.0015193
0.00167853
0.00183056
0.00191736
0.00193855
0.00189178
0.001751
0.00144966
0.000874562
0.000874478
0.00145021
0.00175388
0.00190194
0.00196691
0.00198385
0.00196221
0.0018876
0.00171849
0.00139005
0.00101118
0.00124271
0.00140701
0.0014686
0.00148695
0.00149218
0.00149278
0.00149262
0.0014926
0.00149273
0.00149207
0.00148672
0.00146821
0.0014066
0.00124277
0.00101103
0.00138919
0.00171395
0.00187307
0.00192236
0.00188619
0.00174927
0.00144928
0.00087456
0.000874488
0.00145017
0.00175366
0.00190139
0.00196565
0.00198058
0.00195281
0.00185799
0.00161606
0.00103535
0.00096495
0.00130075
0.00140707
0.00143581
0.00144313
0.00144466
0.00144487
0.00144483
0.00144448
0.00144268
0.00143476
0.00140497
0.00129764
0.000963094
0.00103435
0.00161101
0.00184314
0.00191291
0.00188309
0.00174829
0.00144908
0.00087456
0.000874474
0.00144995
0.00175315
0.00190074
0.00196541
0.00198235
0.00196127
0.00188821
0.00172216
0.00139867
0.0010185
0.00127204
0.00143939
0.00149571
0.00151059
0.00151463
0.00151568
0.00151588
0.0015158
0.00151529
0.0015134
0.00150717
0.00148792
0.00142595
0.00125976
0.00101415
0.00139305
0.00171448
0.0018722
0.00192106
0.00188503
0.00174855
0.00144907
0.000874563
0.000874382
0.00144908
0.00175136
0.00189849
0.00196388
0.00198453
0.0019747
0.0019318
0.00184259
0.00170001
0.00155678
0.00157723
0.00159641
0.00159002
0.00158283
0.00157961
0.00157859
0.0015783
0.00157815
0.0015779
0.00157721
0.00157547
0.00157143
0.00156111
0.00154189
0.00153132
0.00168313
0.00182968
0.00191373
0.00193409
0.00188781
0.00174834
0.00144861
0.000874505
0.000874012
0.00144598
0.00174548
0.0018907
0.00195585
0.00197933
0.00197861
0.00195759
0.00191336
0.00184628
0.00177438
0.00173137
0.00168424
0.00163302
0.00160789
0.0015988
0.00159605
0.00159531
0.00159512
0.00159513
0.00159544
0.00159704
0.0016034
0.00162337
0.00167051
0.00172964
0.00181843
0.00189537
0.00193783
0.00193834
0.00188459
0.00174394
0.0014459
0.00087416
0.000872703
0.00143634
0.00172835
0.00186835
0.00193096
0.00195504
0.00195943
0.00195077
0.00192929
0.0018941
0.00184778
0.00179493
0.00173022
0.00166591
0.0016346
0.00162321
0.00161974
0.00161882
0.00161863
0.00161873
0.00161948
0.00162252
0.00163302
0.00166306
0.0017273
0.00179768
0.00186313
0.00191016
0.0019315
0.0019215
0.00186536
0.00172783
0.0014365
0.000872863
0.000868468
0.00140921
0.00168362
0.00181211
0.00186845
0.00189045
0.00189653
0.00189393
0.00188387
0.00186497
0.00183544
0.00179424
0.00174243
0.00169217
0.00166543
0.00165495
0.00165164
0.00165076
0.00165059
0.00165071
0.00165151
0.0016547
0.00166486
0.0016913
0.00174191
0.00179575
0.00184017
0.00186845
0.00187798
0.00186393
0.001811
0.00168369
0.00140951
0.000868627
0.000856045
0.00133977
0.00157712
0.0016838
0.00172871
0.00174584
0.00175118
0.00175107
0.00174694
0.00173782
0.0017218
0.00169743
0.00166628
0.00163633
0.00161916
0.00161192
0.00160948
0.00160881
0.00160868
0.00160879
0.00160943
0.00161182
0.00161898
0.00163609
0.00166619
0.00169793
0.00172289
0.00173748
0.00174036
0.00172712
0.00168374
0.00157748
0.0013401
0.000856193
0.000824123
0.00117482
0.00133989
0.00140949
0.00143679
0.00144659
0.00144969
0.00145017
0.00144901
0.00144581
0.00143951
0.00142923
0.0014157
0.00140246
0.00139447
0.00139089
0.00138962
0.00138924
0.00138917
0.00138925
0.00138963
0.00139089
0.00139445
0.00140243
0.0014157
0.00142936
0.00143964
0.00144513
0.00144516
0.00143671
0.00140985
0.00134029
0.00117511
0.000824247
0.000763766
0.00082416
0.000856164
0.000868678
0.000873013
0.000874432
0.000874919
0.000875107
0.000875132
0.00087496
0.000874469
0.000873468
0.000871979
0.000870389
0.000869387
0.000868892
0.00086866
0.000868532
0.000868483
0.000868541
0.000868667
0.000868893
0.000869376
0.000870365
0.000871941
0.000873426
0.000874416
0.000874821
0.000874635
0.000873306
0.000868959
0.000856387
0.000824309
0.00076385
0.00108445
0.00132969
0.00146191
0.00151882
0.00154081
0.00154851
0.00155096
0.00155167
0.00155184
0.00155186
0.00155183
0.0015518
0.00155177
0.00155175
0.00155173
0.00155171
0.0015517
0.00155169
0.00155169
0.0015517
0.00155171
0.00155172
0.00155174
0.00155176
0.00155178
0.00155176
0.00155161
0.00155093
0.0015485
0.00154082
0.00151883
0.00146193
0.00132971
0.00108448
0.0013297
0.00244097
0.00287989
0.00307777
0.00316204
0.00319483
0.00320633
0.00320989
0.00321072
0.00321068
0.00321038
0.00321007
0.00320983
0.00320967
0.00320956
0.00320948
0.00320942
0.00320939
0.00320939
0.00320942
0.00320948
0.00320956
0.00320967
0.00320981
0.00320998
0.00321002
0.00320929
0.00320591
0.00319457
0.0031619
0.00307769
0.00287985
0.00244095
0.00132972
0.00146195
0.00288
0.00345784
0.00373273
0.00385703
0.00390853
0.00392772
0.00393388
0.00393516
0.00393472
0.00393382
0.00393303
0.00393252
0.00393227
0.00393216
0.00393208
0.00393202
0.00393198
0.00393199
0.00393203
0.0039321
0.00393218
0.00393228
0.0039325
0.00393286
0.00393309
0.00393206
0.00392643
0.00390779
0.0038567
0.00373264
0.00345785
0.00288005
0.00146202
0.00151891
0.00307797
0.00373284
0.0040555
0.00420692
0.00427198
0.00429679
0.00430428
0.00430464
0.00430223
0.00429925
0.00429693
0.00429557
0.00429499
0.00429479
0.00429463
0.00429448
0.00429439
0.0042944
0.00429449
0.00429466
0.00429482
0.00429501
0.00429553
0.00429667
0.00429817
0.00429842
0.00429256
0.0042695
0.00420575
0.0040551
0.00373279
0.00307805
0.00151901
0.00154094
0.0031623
0.00385721
0.004207
0.00437472
0.0044479
0.00447517
0.00448114
0.00447706
0.00446855
0.00445972
0.0044535
0.00445016
0.00444892
0.0044486
0.0044482
0.00444776
0.0044475
0.00444751
0.00444778
0.00444823
0.00444863
0.00444895
0.00445012
0.00445318
0.00445838
0.0044639
0.0044626
0.00444042
0.00437103
0.00420554
0.00385681
0.00316231
0.00154106
0.00154866
0.0031951
0.00390874
0.00427213
0.00444801
0.00452424
0.00454963
0.00454849
0.00453201
0.00450768
0.00448451
0.00447028
0.00446377
0.00446206
0.004462
0.00446118
0.00446011
0.00445948
0.00445949
0.00446013
0.00446121
0.00446205
0.0044621
0.00446374
0.00446994
0.00448304
0.00450255
0.00451617
0.00450433
0.00443808
0.00426798
0.00390737
0.00319483
0.00154876
0.00155111
0.0032066
0.00392797
0.00429705
0.00447554
0.00455009
0.00456745
0.00454894
0.0045036
0.00444221
0.00438698
0.00436073
0.00435293
0.00435362
0.00435585
0.00435468
0.00435259
0.00435138
0.00435139
0.00435262
0.00435472
0.00435591
0.00435368
0.00435292
0.00436041
0.0043855
0.00443692
0.00448714
0.00450312
0.00445229
0.00428721
0.00392448
0.00320568
0.00155114
0.00155182
0.00321015
0.0039342
0.00430483
0.00448228
0.00455052
0.0045514
0.00449858
0.00439344
0.00424984
0.00412429
0.00409396
0.00410158
0.0041159
0.00412602
0.00412569
0.00412279
0.00412108
0.00412109
0.00412282
0.00412574
0.00412609
0.00411598
0.00410161
0.00409371
0.00412291
0.00424462
0.00437683
0.00445212
0.00443471
0.00428483
0.00392695
0.00320803
0.00155168
0.00155199
0.003211
0.00393567
0.00430591
0.00448009
0.00453814
0.00451341
0.00440392
0.00418757
0.00386264
0.00355985
0.00360158
0.00369203
0.00374977
0.00377753
0.00378255
0.00378123
0.00378
0.00378001
0.00378126
0.0037826
0.00377761
0.00374987
0.00369212
0.00360148
0.00355869
0.00385765
0.004171
0.00435717
0.00439603
0.00427126
0.00392309
0.00320716
0.00155158
0.001552
0.00321102
0.00393566
0.00430494
0.00447541
0.00452247
0.0044687
0.0042871
0.00389719
0.00315884
0.00204023
0.00278098
0.00316366
0.00331692
0.0033689
0.00338832
0.00339294
0.00339356
0.00339357
0.00339297
0.00338838
0.00336898
0.00331706
0.00316387
0.0027812
0.00203955
0.00315422
0.00388058
0.00424004
0.0043508
0.00425491
0.00391761
0.00320539
0.0015513
0.00155197
0.00321088
0.00393548
0.00430431
0.00447297
0.00451438
0.00444437
0.00421585
0.00367302
0.00210929
0.00179839
0.00274149
0.0029871
0.00306236
0.00308233
0.0030865
0.00308709
0.0030871
0.00308651
0.00308236
0.00306242
0.00298722
0.00274173
0.00179857
0.00210604
0.00365625
0.00416842
0.00432605
0.00424635
0.00391466
0.00320426
0.00155111
0.00155194
0.00321077
0.00393563
0.00430504
0.00447525
0.00452105
0.0044639
0.00427501
0.00387146
0.00310936
0.00198052
0.00262378
0.00298356
0.00312751
0.00318197
0.00318722
0.00318547
0.00318434
0.00318433
0.00318544
0.00318717
0.00318192
0.00312745
0.00298349
0.00262353
0.00197948
0.00310427
0.00385455
0.00422763
0.00434555
0.00425285
0.00391661
0.00320456
0.00155115
0.00155191
0.00321074
0.00393605
0.00430672
0.00448046
0.00453586
0.00450368
0.00437737
0.00412766
0.00374237
0.00334305
0.00325849
0.00324057
0.00324412
0.00324995
0.0032478
0.00324522
0.00324401
0.003244
0.00324519
0.00324774
0.00324986
0.00324398
0.00324031
0.00325793
0.00334147
0.00373699
0.00411071
0.00433008
0.00438539
0.00426757
0.00392157
0.00320586
0.00155135
0.00155188
0.00321074
0.00393651
0.00430847
0.00448572
0.00455016
0.00453949
0.00445988
0.00430103
0.00406225
0.00379054
0.00357645
0.00340814
0.00333041
0.00330363
0.00329433
0.00329098
0.00328989
0.00328988
0.00329096
0.00329429
0.00330354
0.00333025
0.00340786
0.00357589
0.0037889
0.00405675
0.004284
0.00441254
0.00442112
0.00428171
0.00392656
0.00320724
0.00155154
0.00155185
0.00321074
0.00393685
0.00430977
0.00448951
0.00456003
0.0045628
0.00450942
0.00439404
0.00421047
0.00397234
0.00371923
0.00349329
0.00337856
0.00333563
0.00332189
0.00331785
0.0033168
0.00331679
0.00331784
0.00332185
0.00333555
0.00337841
0.00349302
0.00371876
0.0039707
0.00420491
0.00437689
0.00446195
0.00444427
0.00429136
0.00393007
0.00320821
0.00155164
0.00155181
0.00321072
0.00393706
0.00431054
0.0044917
0.00456552
0.00457517
0.00453413
0.00443699
0.00427311
0.00404383
0.00377684
0.00352945
0.00339995
0.00335026
0.00333445
0.00333004
0.00332899
0.00332898
0.00333003
0.00333442
0.00335019
0.0033998
0.0035292
0.00377635
0.00404219
0.00426751
0.00441977
0.00448654
0.00445648
0.00429666
0.00393203
0.00320874
0.00155168
0.00155178
0.0032107
0.00393716
0.00431093
0.00449277
0.00456811
0.00458075
0.00454476
0.00445443
0.004297
0.00406971
0.00379762
0.0035427
0.00340791
0.00335576
0.00333917
0.0033346
0.00333353
0.00333353
0.00333458
0.00333914
0.00335569
0.00340777
0.00354245
0.00379715
0.00406807
0.00429138
0.00443716
0.00449708
0.00446195
0.00429912
0.00393296
0.00320898
0.00155167
0.00155175
0.00321069
0.0039372
0.00431109
0.0044932
0.0045691
0.00458279
0.00454849
0.0044603
0.00430468
0.00407772
0.00380396
0.00354676
0.00341035
0.00335744
0.0033406
0.00333597
0.00333489
0.00333489
0.00333596
0.00334057
0.00335737
0.00341021
0.00354651
0.00380349
0.00407608
0.00429906
0.00444301
0.00450078
0.00446394
0.00430004
0.00393331
0.00320906
0.00155164
0.00155174
0.00321069
0.00393721
0.00431111
0.00449323
0.00456914
0.00458285
0.00454856
0.00446039
0.00430478
0.00407783
0.00380407
0.00354687
0.00341042
0.00335748
0.00334062
0.00333599
0.0033349
0.0033349
0.00333597
0.00334059
0.00335742
0.00341028
0.00354662
0.0038036
0.0040762
0.00429917
0.00444311
0.00450086
0.004464
0.00430008
0.00393333
0.00320906
0.00155163
0.00155174
0.0032107
0.00393718
0.00431098
0.00449287
0.00456824
0.00458093
0.00454499
0.00445472
0.00429733
0.00407007
0.00379798
0.00354307
0.00340816
0.00335592
0.00333928
0.00333469
0.00333361
0.0033336
0.00333468
0.00333926
0.00335586
0.00340803
0.00354284
0.00379753
0.00406846
0.00429175
0.00443748
0.00449734
0.00446214
0.00429924
0.00393302
0.00320898
0.00155162
0.00155176
0.00321071
0.00393709
0.00431063
0.00449186
0.00456575
0.00457548
0.00453454
0.00443752
0.00427375
0.00404454
0.00377756
0.00353019
0.00340049
0.00335065
0.00333479
0.00333035
0.00332928
0.00332928
0.00333035
0.00333477
0.00335061
0.00340039
0.00352999
0.00377714
0.00404298
0.00426823
0.00442036
0.00448699
0.0044568
0.00429686
0.00393213
0.00320875
0.00155161
0.00155179
0.00321072
0.00393691
0.0043099
0.00448973
0.00456035
0.00456326
0.00451004
0.00439487
0.00421156
0.00397364
0.00372056
0.0034946
0.00337959
0.00333645
0.00332264
0.0033186
0.00331754
0.00331755
0.00331861
0.00332266
0.00333645
0.00337954
0.00349447
0.00372021
0.00397216
0.00420615
0.00437784
0.00446264
0.00444475
0.00429166
0.00393021
0.00320822
0.00155157
0.00155182
0.00321072
0.00393657
0.00430863
0.004486
0.00455057
0.00454008
0.00446073
0.00430225
0.00406399
0.00379279
0.00357884
0.00341015
0.00333193
0.00330488
0.00329554
0.00329221
0.00329115
0.00329117
0.00329225
0.00329559
0.00330493
0.00333194
0.00341011
0.00357862
0.00379146
0.00405874
0.00428537
0.00441345
0.00442173
0.00428208
0.00392674
0.00320724
0.00155146
0.00155185
0.0032107
0.00393609
0.00430687
0.00448073
0.00453628
0.00450432
0.00437833
0.0041292
0.00374487
0.00334667
0.00326193
0.00324242
0.00324493
0.00325029
0.00324806
0.00324554
0.0032444
0.00324442
0.0032456
0.00324813
0.00325032
0.00324487
0.00324233
0.00326187
0.0033456
0.00373983
0.00411232
0.00433099
0.00438596
0.00426792
0.00392173
0.00320584
0.00155126
0.00155186
0.00321065
0.00393553
0.00430499
0.00447528
0.0045212
0.00446422
0.00427562
0.00387271
0.00311216
0.00198343
0.00262497
0.00297985
0.00312105
0.00317398
0.00317875
0.00317698
0.00317591
0.00317593
0.00317699
0.00317863
0.0031735
0.00311992
0.00297832
0.00262454
0.00198267
0.00310726
0.00385518
0.00422766
0.00434554
0.00425285
0.00391658
0.00320443
0.00155105
0.00155185
0.00321046
0.00393484
0.00430346
0.00447199
0.00451335
0.00444327
0.00421458
0.00367151
0.00210762
0.00178344
0.00270996
0.00294498
0.00301319
0.00303091
0.0030347
0.00303528
0.0030352
0.00303434
0.00302976
0.00301007
0.00293823
0.00269918
0.00177531
0.00210125
0.00365114
0.00416485
0.0043239
0.0042451
0.0039139
0.00320376
0.00155095
0.0015517
0.00320958
0.00393309
0.00430136
0.0044711
0.00451761
0.00446316
0.00428019
0.00388745
0.00314392
0.00201819
0.00270973
0.0030564
0.00317263
0.00320078
0.00321391
0.00321801
0.00321885
0.00321863
0.00321696
0.00321043
0.00319083
0.00314935
0.00301511
0.00266516
0.00199505
0.00311957
0.00385858
0.00422685
0.00434291
0.00425003
0.0039146
0.00320371
0.00155095
0.00155103
0.00320611
0.00392703
0.00429406
0.0044659
0.00452223
0.00449555
0.00438214
0.00415676
0.00381155
0.00346636
0.00343711
0.00343952
0.00340499
0.00337841
0.00336937
0.00336678
0.00336601
0.00336561
0.00336478
0.00336233
0.00335713
0.00335159
0.00333984
0.00333079
0.00338318
0.00375568
0.00411295
0.00432305
0.0043745
0.0042568
0.00391358
0.00320189
0.00155056
0.00154861
0.00319474
0.00390818
0.00427027
0.00444175
0.00450597
0.004503
0.00444329
0.00432238
0.00414395
0.00394991
0.00380733
0.00366398
0.00351993
0.00344585
0.00341865
0.00341038
0.00340815
0.0034076
0.00340757
0.00340842
0.00341345
0.00343429
0.00349736
0.00363913
0.00382103
0.00406012
0.00426485
0.00437968
0.0043833
0.0042465
0.00389971
0.00319213
0.0015484
0.00154093
0.00316206
0.003857
0.00420621
0.00437156
0.00443803
0.00444926
0.00442192
0.00435762
0.00425532
0.00412158
0.00396724
0.00378726
0.00361159
0.00352083
0.00348648
0.00347567
0.00347272
0.00347209
0.00347248
0.00347493
0.00348456
0.00351674
0.00360507
0.00378375
0.00398086
0.00416383
0.00429711
0.00435991
0.00433637
0.00419231
0.00385223
0.00316063
0.00154089
0.00151893
0.00307783
0.00373287
0.00405542
0.00420584
0.00426766
0.0042843
0.00427407
0.00424051
0.0041805
0.00409013
0.00396827
0.00382128
0.00368235
0.00360526
0.00357372
0.00356302
0.00355987
0.00355921
0.00355982
0.00356283
0.00357317
0.00360417
0.00368094
0.00382178
0.00397508
0.00410461
0.00418996
0.00422155
0.00418605
0.00404801
0.00373048
0.00307713
0.00151899
0.001462
0.00287993
0.00345801
0.00373304
0.00385708
0.00390728
0.00392284
0.00392047
0.00390421
0.00387148
0.00381747
0.00373953
0.00364416
0.00355484
0.00350203
0.00347875
0.0034703
0.00346767
0.00346712
0.0034677
0.00347033
0.00347872
0.00350189
0.00355477
0.0036449
0.00374227
0.00382155
0.00387036
0.00388294
0.00384724
0.00372964
0.00345702
0.00287962
0.00146208
0.00132976
0.00244096
0.00288012
0.0030782
0.00316253
0.00319497
0.00320521
0.00320544
0.00319883
0.003184
0.00315777
0.00311809
0.00306851
0.00302163
0.00299275
0.00297938
0.00297429
0.00297262
0.00297227
0.00297269
0.00297442
0.00297955
0.00299294
0.00302191
0.00306908
0.0031192
0.00315879
0.00318169
0.00318472
0.00315872
0.00307705
0.00287984
0.00244083
0.00132984
0.00108451
0.00132976
0.00146208
0.00151913
0.00154124
0.001549
0.00155138
0.00155169
0.00155074
0.00154821
0.00154328
0.00153525
0.00152467
0.00151434
0.00150802
0.00150513
0.00150401
0.00150363
0.00150355
0.00150365
0.00150404
0.00150516
0.00150805
0.00151436
0.00152472
0.00153538
0.00154338
0.00154765
0.00154768
0.00154096
0.0015192
0.00146221
0.00132984
0.0010846
0.00117327
0.00153552
0.0017369
0.00182816
0.0018657
0.00187973
0.00188448
0.00188592
0.00188626
0.00188626
0.00188617
0.00188606
0.00188597
0.0018859
0.00188586
0.00188583
0.0018858
0.00188579
0.00188579
0.0018858
0.00188582
0.00188586
0.0018859
0.00188595
0.00188601
0.00188601
0.00188571
0.00188434
0.00187965
0.00186566
0.00182814
0.00173689
0.00153552
0.0011733
0.00153552
0.0029863
0.00356316
0.00383499
0.00395694
0.00400708
0.00402568
0.00403171
0.00403315
0.004033
0.00403238
0.00403171
0.00403119
0.00403083
0.00403059
0.00403042
0.0040303
0.00403024
0.00403024
0.0040303
0.00403042
0.00403059
0.00403081
0.00403113
0.00403151
0.00403163
0.0040304
0.00402471
0.00400645
0.00395655
0.00383474
0.00356299
0.00298619
0.00153551
0.00173695
0.00356331
0.00430415
0.00466964
0.00484269
0.00491801
0.00494749
0.00495731
0.0049593
0.00495836
0.00495657
0.00495489
0.0049537
0.00495302
0.00495265
0.00495241
0.00495223
0.00495213
0.00495213
0.00495223
0.00495241
0.00495266
0.004953
0.00495361
0.00495451
0.00495518
0.00495368
0.00494483
0.00491637
0.00484182
0.00466923
0.00430397
0.00356324
0.00173698
0.00182827
0.00383524
0.00466977
0.00509426
0.0053021
0.00539555
0.00543277
0.00544432
0.00544468
0.00544042
0.005435
0.00543041
0.00542738
0.00542582
0.00542509
0.00542459
0.00542419
0.00542397
0.00542397
0.0054242
0.0054246
0.00542511
0.00542581
0.00542726
0.00542986
0.005433
0.00543386
0.00542507
0.00539081
0.00529963
0.00509318
0.00466939
0.00383516
0.00182832
0.00186585
0.00395727
0.00484293
0.00530222
0.0055315
0.0056359
0.00567631
0.00568527
0.00567867
0.00566486
0.00564992
0.00563825
0.00563105
0.00562767
0.00562629
0.00562515
0.00562418
0.00562364
0.00562365
0.0056242
0.00562518
0.00562632
0.00562767
0.00563091
0.00563758
0.00564746
0.00565691
0.00565535
0.00562296
0.00552472
0.00529919
0.00484182
0.00395698
0.00186591
0.00187991
0.00400745
0.00491832
0.0053958
0.0056361
0.00574447
0.00578176
0.00578003
0.00575515
0.00571804
0.005681
0.00565464
0.00563978
0.00563382
0.00563193
0.00562962
0.00562741
0.0056262
0.00562621
0.00562743
0.00562965
0.00563197
0.00563383
0.00563964
0.00565391
0.00567829
0.00570927
0.00572957
0.00571241
0.00561929
0.00538821
0.0049154
0.00400656
0.00187989
0.00188467
0.00402606
0.00494789
0.00543328
0.00567705
0.00578266
0.00580808
0.00578151
0.00571631
0.00562763
0.00554354
0.00549236
0.00546795
0.00546116
0.00546089
0.00545685
0.00545249
0.00545016
0.00545017
0.00545251
0.00545689
0.00546093
0.00546118
0.00546783
0.00549165
0.00554077
0.0056185
0.00568958
0.00571111
0.00563995
0.00541651
0.0049413
0.00402391
0.00188444
0.00188611
0.00403213
0.00495792
0.00544547
0.00568752
0.00578384
0.00578595
0.00571252
0.00556785
0.00537108
0.0051896
0.00511211
0.00509038
0.00509362
0.00510168
0.00509644
0.00508962
0.00508614
0.00508615
0.00508964
0.00509648
0.00510173
0.00509367
0.0050903
0.0051115
0.00518695
0.00536193
0.00554065
0.00564075
0.00561507
0.00541309
0.00494512
0.0040278
0.00188547
0.00188646
0.00403367
0.00496039
0.00544726
0.00568443
0.00576626
0.00573354
0.00558596
0.00530024
0.00487676
0.00446342
0.00443096
0.00448496
0.00453158
0.00455748
0.00455883
0.00455381
0.00455089
0.00455089
0.00455383
0.00455887
0.00455755
0.00453164
0.00448497
0.00443057
0.00446109
0.00486778
0.00527275
0.0055133
0.0055611
0.00539324
0.00493912
0.00402632
0.00188522
0.00188648
0.00403376
0.00496038
0.00544575
0.00567751
0.00574414
0.0056732
0.00543486
0.00493708
0.00400662
0.00252296
0.00331632
0.00371986
0.00387181
0.00390177
0.0039437
0.00395337
0.00395435
0.00395435
0.00395339
0.00394375
0.00390183
0.00387193
0.00372004
0.00331642
0.00252148
0.00399793
0.00490905
0.00536122
0.00549951
0.00536969
0.00493068
0.00402336
0.0018846
0.00188643
0.00403353
0.00496007
0.00544468
0.00567372
0.00573249
0.00564041
0.00534446
0.00466192
0.00266303
0.0020098
0.002984
0.00323444
0.00331444
0.00333027
0.00333234
0.00333231
0.00333231
0.00333236