/*--------------------------------*- C++ -*----------------------------------*\
| =========                 |                                                 |
| \\      /  F ield         | OpenFOAM: The Open Source CFD Toolbox           |
|  \\    /   O peration     | Version:  2112                                  |
|   \\  /    A nd           | Website:  www.openfoam.com                      |
|    \\/     M anipulation  |                                                 |
\*---------------------------------------------------------------------------*/
FoamFile
{
    version     2.0;
    format      ascii;
    arch        "LSB;label=32;scalar=64";
    class       volScalarField;
    location    "2.2";
    object      nut;
}
// * * * * * * * * * * * * * * * * * * * * * * * * * * * * * * * * * * * * * //

dimensions      [0 2 -1 0 0 0 0];

internalField   nonuniform List<scalar> 
64906
(
6.74596e-05
7.02306e-05
7.16871e-05
7.22646e-05
7.24681e-05
7.25338e-05
7.25536e-05
7.25595e-05
7.25615e-05
7.25624e-05
7.25629e-05
7.25632e-05
7.25633e-05
7.25632e-05
7.25629e-05
7.25625e-05
7.2562e-05
7.25614e-05
7.2561e-05
7.25614e-05
7.25619e-05
7.25624e-05
7.25626e-05
7.25627e-05
7.25625e-05
7.25619e-05
7.25602e-05
7.25545e-05
7.25348e-05
7.24692e-05
7.22658e-05
7.16885e-05
7.0232e-05
6.74608e-05
7.02316e-05
8.42189e-05
9.01697e-05
9.2636e-05
9.36191e-05
9.39821e-05
9.41048e-05
9.41427e-05
9.41531e-05
9.41551e-05
9.4155e-05
9.41546e-05
9.41547e-05
9.41552e-05
9.41558e-05
9.41563e-05
9.41565e-05
9.41566e-05
9.41566e-05
9.41566e-05
9.41564e-05
9.4156e-05
9.41554e-05
9.41548e-05
9.41541e-05
9.41519e-05
9.41423e-05
9.41057e-05
9.39843e-05
9.3622e-05
9.26392e-05
9.01731e-05
8.42221e-05
7.0234e-05
7.169e-05
9.01718e-05
9.81005e-05
0.000101555
0.000103024
0.000103607
0.000103817
0.000103885
0.000103901
0.000103901
0.000103896
0.000103893
0.000103892
0.000103894
0.000103896
0.000103897
0.000103898
0.000103899
0.000103899
0.000103899
0.000103898
0.000103896
0.000103894
0.000103893
0.000103892
0.00010389
0.000103875
0.000103812
0.000103606
0.000103027
0.00010156
9.8106e-05
9.01769e-05
7.16939e-05
7.22689e-05
9.26397e-05
0.000101557
0.000105579
0.000107359
0.000108094
0.000108367
0.00010845
0.000108459
0.000108439
0.000108414
0.000108398
0.000108391
0.000108391
0.000108394
0.000108396
0.000108397
0.000108397
0.000108397
0.000108397
0.000108397
0.000108395
0.000108392
0.000108392
0.000108396
0.000108405
0.000108402
0.000108334
0.000108078
0.000107355
0.000105582
0.000101563
9.26464e-05
7.22741e-05
7.24733e-05
9.36239e-05
0.000103028
0.000107361
0.000109324
0.000110149
0.00011045
0.000110518
0.00011048
0.000110396
0.000110311
0.000110257
0.000110233
0.00011023
0.000110235
0.000110236
0.000110234
0.000110233
0.000110233
0.000110235
0.000110236
0.000110236
0.000110232
0.000110234
0.000110255
0.000110299
0.000110351
0.000110331
0.000110083
0.000109296
0.000107355
0.000103032
9.3631e-05
7.24794e-05
7.25393e-05
9.39873e-05
0.000103611
0.000108096
0.00011015
0.00011101
0.000111292
0.000111284
0.00011111
0.00011085
0.000110606
0.000110473
0.000110423
0.000110422
0.000110434
0.000110432
0.000110424
0.000110419
0.00011042
0.000110425
0.000110433
0.000110435
0.000110423
0.000110424
0.000110471
0.000110593
0.000110799
0.000110947
0.000110812
0.000110059
0.000108065
0.000103606
9.39931e-05
7.25462e-05
7.25592e-05
9.41099e-05
0.000103821
0.00010837
0.000110453
0.000111296
0.000111491
0.000111289
0.000110784
0.00011009
0.000109469
0.000109226
0.000109184
0.000109225
0.000109271
0.000109267
0.000109248
0.000109237
0.000109238
0.000109249
0.000109268
0.000109273
0.000109226
0.000109185
0.000109225
0.000109455
0.000110038
0.000110616
0.000110801
0.00011022
0.00010828
0.000103797
9.41108e-05
7.25663e-05
7.25647e-05
9.41474e-05
0.000103889
0.000108455
0.000110528
0.000111302
0.000111313
0.000110714
0.00010949
0.000107763
0.000106227
0.000106053
0.000106269
0.000106504
0.00010666
0.000106665
0.000106637
0.00010662
0.00010662
0.000106637
0.000106666
0.000106661
0.000106506
0.000106271
0.000106053
0.000106215
0.000107713
0.00010932
0.00011022
0.000110027
0.000108258
0.000103827
9.4138e-05
7.25715e-05
7.25661e-05
9.41572e-05
0.000103906
0.000108469
0.000110507
0.000111168
0.000110883
0.000109598
0.000106952
0.000102725
9.85345e-05
9.98109e-05
0.000101317
0.000102169
0.00010257
0.000102634
0.000102622
0.000102611
0.000102611
0.000102623
0.000102635
0.000102572
0.000102172
0.00010132
9.98126e-05
9.8525e-05
0.000102677
0.000106783
0.000109102
0.000109591
0.000108112
0.000103789
9.41322e-05
7.25715e-05
7.25663e-05
9.41588e-05
0.000103908
0.000108462
0.00011046
0.000110996
0.000110362
0.000108156
0.000103089
9.26306e-05
7.8742e-05
8.85368e-05
9.45707e-05
9.68299e-05
9.75935e-05
9.78109e-05
9.7862e-05
9.78716e-05
9.78719e-05
9.7863e-05
9.78125e-05
9.75959e-05
9.68334e-05
9.45757e-05
8.85433e-05
7.87372e-05
9.25898e-05
0.000102922
0.000107658
0.000109065
0.000107933
0.000103734
9.41171e-05
7.25696e-05
7.25661e-05
9.41585e-05
0.000103908
0.000108459
0.000110438
0.00011091
0.000110074
0.000107214
9.97392e-05
7.93643e-05
7.64581e-05
8.90239e-05
9.27362e-05
9.37762e-05
9.40593e-05
9.41247e-05
9.41369e-05
9.4137e-05
9.41252e-05
9.40602e-05
9.37778e-05
9.27391e-05
8.90293e-05
7.64626e-05
7.93415e-05
9.95732e-05
0.000106712
0.000108772
0.000107842
0.000103707
9.41084e-05
7.25686e-05
7.25655e-05
9.41584e-05
0.000103912
0.000108471
0.00011047
0.000110999
0.000110338
0.000108062
0.000102854
9.2133e-05
7.8233e-05
8.66175e-05
9.22462e-05
9.42956e-05
9.49109e-05
9.51073e-05
9.5138e-05
9.51361e-05
9.5136e-05
9.51377e-05
9.51068e-05
9.49103e-05
9.42951e-05
9.2246e-05
8.66142e-05
7.82218e-05
9.20818e-05
0.000102681
0.00010756
0.000109036
0.000107929
0.000103735
9.41142e-05
7.25687e-05
7.25647e-05
9.41587e-05
0.000103919
0.000108492
0.000110533
0.000111178
0.000110827
0.000109378
0.000106377
0.000101475
9.61997e-05
9.58367e-05
9.59836e-05
9.6136e-05
9.62003e-05
9.62143e-05
9.62001e-05
9.61891e-05
9.61889e-05
9.61994e-05
9.62131e-05
9.61985e-05
9.61333e-05
9.59793e-05
9.58281e-05
9.61788e-05
0.000101419
0.000106202
0.000108875
0.000109525
0.000108106
0.000103794
9.41295e-05
7.25691e-05
7.25636e-05
9.4159e-05
0.000103925
0.000108513
0.000110595
0.000111344
0.000111252
0.000110388
0.000108596
0.000105811
0.000102581
0.000100147
9.82258e-05
9.73444e-05
9.70301e-05
9.69222e-05
9.68805e-05
9.6865e-05
9.68647e-05
9.68795e-05
9.69207e-05
9.70278e-05
9.73409e-05
9.82205e-05
0.000100138
0.00010256
0.000105754
0.00010842
0.000109884
0.000109949
0.000108271
0.000103852
9.41444e-05
7.2569e-05
7.25624e-05
9.4159e-05
0.00010393
0.000108529
0.000110639
0.000111457
0.000111522
0.000110973
0.000109727
0.000107677
0.000104939
0.000101955
9.92894e-05
9.7955e-05
9.74495e-05
9.7279e-05
9.72214e-05
9.72024e-05
9.72019e-05
9.72202e-05
9.7277e-05
9.74468e-05
9.79511e-05
9.9284e-05
0.000101944
0.000104919
0.000107619
0.00010955
0.000110468
0.000110216
0.000108381
0.000103891
9.41546e-05
7.25681e-05
7.2561e-05
9.41587e-05
0.000103932
0.000108538
0.000110664
0.000111519
0.000111662
0.000111258
0.000110232
0.00010843
0.000105813
0.000102657
9.97206e-05
9.82106e-05
9.76256e-05
9.74275e-05
9.73616e-05
9.73391e-05
9.73385e-05
9.736e-05
9.74253e-05
9.76227e-05
9.82067e-05
9.97152e-05
0.000102647
0.000105793
0.000108371
0.000110054
0.000110751
0.000110355
0.00010844
0.000103914
9.41598e-05
7.25665e-05
7.25597e-05
9.41583e-05
0.000103934
0.000108544
0.000110677
0.000111549
0.000111725
0.000111379
0.000110432
0.000108708
0.000106119
0.000102905
9.98741e-05
9.83027e-05
9.76888e-05
9.74798e-05
9.74093e-05
9.73838e-05
9.73829e-05
9.74074e-05
9.74774e-05
9.76858e-05
9.82987e-05
9.98686e-05
0.000102894
0.000106099
0.00010865
0.000110254
0.000110871
0.000110416
0.000108468
0.000103924
9.41619e-05
7.25646e-05
7.25584e-05
9.41579e-05
0.000103935
0.000108546
0.000110682
0.00011156
0.000111749
0.000111421
0.0001105
0.000108797
0.000106212
0.00010298
9.99207e-05
9.83308e-05
9.77077e-05
9.74948e-05
9.7422e-05
9.73938e-05
9.73927e-05
9.74198e-05
9.74922e-05
9.77045e-05
9.83267e-05
9.99152e-05
0.00010297
0.000106193
0.000108739
0.000110321
0.000110913
0.000110439
0.000108479
0.000103929
9.41625e-05
7.25627e-05
7.25574e-05
9.41577e-05
0.000103935
0.000108546
0.000110683
0.000111561
0.00011175
0.000111423
0.000110502
0.0001088
0.000106215
0.000102983
9.99228e-05
9.83321e-05
9.77082e-05
9.74946e-05
9.74208e-05
9.73911e-05
9.73897e-05
9.74184e-05
9.74918e-05
9.7705e-05
9.83279e-05
9.99174e-05
0.000102973
0.000106196
0.000108742
0.000110323
0.000110915
0.000110441
0.00010848
0.000103929
9.41624e-05
7.25611e-05
7.25573e-05
9.41579e-05
0.000103935
0.000108545
0.000110679
0.000111552
0.000111729
0.000111384
0.000110439
0.000108717
0.000106128
0.000102915
9.98809e-05
9.8307e-05
9.76907e-05
9.74796e-05
9.74063e-05
9.73768e-05
9.73753e-05
9.74037e-05
9.74767e-05
9.76874e-05
9.83029e-05
9.98756e-05
0.000102905
0.000106109
0.00010866
0.000110262
0.000110877
0.000110421
0.000108471
0.000103926
9.41618e-05
7.2561e-05
7.25584e-05
9.41583e-05
0.000103934
0.000108541
0.000110668
0.000111525
0.00011167
0.000111268
0.000110244
0.000108445
0.000105831
0.000102676
9.97336e-05
9.82192e-05
9.76301e-05
9.74283e-05
9.7358e-05
9.73306e-05
9.73293e-05
9.73555e-05
9.74254e-05
9.76269e-05
9.82153e-05
9.97287e-05
0.000102667
0.000105813
0.000108389
0.000110068
0.000110762
0.000110363
0.000108446
0.000103917
9.416e-05
7.25627e-05
7.25598e-05
9.41588e-05
0.000103932
0.000108533
0.000110644
0.000111465
0.000111532
0.000110988
0.000109746
0.000107702
0.00010497
0.000101987
9.93112e-05
9.79696e-05
9.74581e-05
9.72824e-05
9.72197e-05
9.7196e-05
9.7195e-05
9.72174e-05
9.72797e-05
9.74552e-05
9.79663e-05
9.93073e-05
0.00010198
0.000104953
0.000107648
0.000109572
0.000110484
0.000110228
0.000108389
0.000103896
9.41553e-05
7.25643e-05
7.25611e-05
9.4159e-05
0.000103927
0.000108518
0.000110602
0.000111354
0.000111266
0.000110408
0.000108624
0.000105851
0.000102632
0.000100191
9.82581e-05
9.7365e-05
9.70422e-05
9.6928e-05
9.6881e-05
9.68621e-05
9.68614e-05
9.68793e-05
9.69258e-05
9.70398e-05
9.73625e-05
9.82557e-05
0.000100188
0.000102618
0.000105799
0.000108452
0.000109907
0.000109965
0.000108281
0.000103858
9.41459e-05
7.25654e-05
7.25623e-05
9.4159e-05
0.000103922
0.000108497
0.000110542
0.000111189
0.000110844
0.000109401
0.000106413
0.000101532
9.62821e-05
9.59044e-05
9.6016e-05
9.61477e-05
9.61999e-05
9.62064e-05
9.61878e-05
9.61744e-05
9.6174e-05
9.61865e-05
9.62045e-05
9.61973e-05
9.61446e-05
9.60143e-05
9.5906e-05
9.62736e-05
0.000101485
0.000106244
0.000108901
0.000109543
0.000108118
0.000103802
9.41316e-05
7.25657e-05
7.25632e-05
9.41584e-05
0.000103915
0.000108475
0.000110477
0.00011101
0.000110353
0.000108086
0.000102893
9.22056e-05
7.8288e-05
8.66526e-05
9.2204e-05
9.42173e-05
9.48097e-05
9.4995e-05
9.5021e-05
9.50171e-05
9.50166e-05
9.50191e-05
9.49908e-05
9.48009e-05
9.42024e-05
9.21875e-05
8.6654e-05
7.82807e-05
9.21665e-05
0.00010272
0.000107581
0.000109051
0.00010794
0.000103742
9.41163e-05
7.25654e-05
7.25636e-05
9.41564e-05
0.000103906
0.000108456
0.000110436
0.00011091
0.000110076
0.000107217
9.97436e-05
7.93655e-05
7.62936e-05
8.86539e-05
9.22485e-05
9.3207e-05
9.34579e-05
9.35129e-05
9.3521e-05
9.35194e-05
9.35064e-05
9.34412e-05
9.31673e-05
9.21688e-05
8.85313e-05
7.62075e-05
7.93163e-05
9.95455e-05
0.000106696
0.000108767
0.000107842
0.000103708
9.41082e-05
7.25653e-05
7.25628e-05
9.41472e-05
0.000103887
0.000108433
0.000110426
0.00011096
0.000110324
0.00010811
0.000103025
9.2536e-05
7.86157e-05
8.7789e-05
9.33794e-05
9.51834e-05
9.5653e-05
9.57832e-05
9.58182e-05
9.5825e-05
9.58219e-05
9.58039e-05
9.57384e-05
9.55296e-05
9.49027e-05
9.28865e-05
8.73016e-05
7.84156e-05
9.23071e-05
0.000102738
0.000107552
0.000109007
0.0001079
0.000103715
9.41071e-05
7.25654e-05
7.25578e-05
9.41116e-05
0.000103822
0.000108354
0.000110371
0.000111018
0.000110718
0.000109401
0.000106668
0.000102237
9.76067e-05
9.80364e-05
9.84885e-05
9.81963e-05
9.79273e-05
9.78114e-05
9.7775e-05
9.7764e-05
9.77589e-05
9.77504e-05
9.77276e-05
9.76729e-05
9.75582e-05
9.72784e-05
9.68003e-05
9.66911e-05
0.000101638
0.000106212
0.00010878
0.000109394
0.000107982
0.000103705
9.40879e-05
7.25624e-05
7.25387e-05
9.39911e-05
0.000103616
0.000108093
0.000110106
0.000110843
0.00011082
0.000110157
0.000108774
0.000106675
0.000104374
0.000102882
0.00010127
9.95566e-05
9.87039e-05
9.83915e-05
9.82956e-05
9.82694e-05
9.82629e-05
9.82629e-05
9.82741e-05
9.83315e-05
9.85572e-05
9.92544e-05
0.00010087
0.000102886
0.000105742
0.000108161
0.000109486
0.00010951
0.000107871
0.000103552
9.3983e-05
7.25447e-05
7.24734e-05
9.36295e-05
0.000103037
0.000107369
0.000109313
0.000110075
0.000110213
0.000109928
0.000109229
0.000108093
0.000106588
0.000104849
0.000102732
0.000100623
9.95751e-05
9.91868e-05
9.90666e-05
9.90342e-05
9.90273e-05
9.90311e-05
9.90574e-05
9.91635e-05
9.95236e-05
0.000100535
0.000102654
0.000104957
0.000107071
0.000108582
0.000109273
0.000108976
0.000107253
0.000103011
9.36324e-05
7.24802e-05
7.22699e-05
9.26469e-05
0.00010157
0.000105595
0.000107371
0.000108079
0.000108277
0.000108183
0.000107838
0.000107199
0.000106213
0.000104847
0.000103145
0.000101491
0.000100596
0.000100238
0.000100123
0.000100092
0.000100086
0.00010009
0.000100119
0.00010023
0.000100577
0.000101464
0.000103133
0.000104904
0.000106366
0.000107305
0.000107632
0.000107199
0.000105546
0.000101567
9.26558e-05
7.22769e-05
7.16921e-05
9.018e-05
9.81153e-05
0.000101576
0.000103048
0.000103624
0.000103807
0.000103798
0.000103644
0.000103313
0.000102746
0.000101898
0.000100828
9.98039e-05
9.92094e-05
9.89545e-05
9.88671e-05
9.88424e-05
9.88375e-05
9.88418e-05
9.88656e-05
9.89513e-05
9.92035e-05
9.97965e-05
0.000100827
0.000101917
0.000102783
0.000103298
0.000103411
0.000102979
0.000101566
9.8125e-05
9.01915e-05
7.16988e-05
7.02348e-05
8.42274e-05
9.01844e-05
9.26567e-05
9.36451e-05
9.40112e-05
9.41297e-05
9.41455e-05
9.40948e-05
9.39622e-05
9.37096e-05
9.33078e-05
9.27883e-05
9.22846e-05
9.19779e-05
9.1839e-05
9.17888e-05
9.17736e-05
9.17706e-05
9.17738e-05
9.1789e-05
9.1839e-05
9.19771e-05
9.22836e-05
9.27889e-05
9.33135e-05
9.3715e-05
9.39346e-05
9.39436e-05
9.36349e-05
9.26667e-05
9.01983e-05
8.42384e-05
7.02405e-05
6.74625e-05
7.02366e-05
7.16978e-05
7.22799e-05
7.2488e-05
7.25583e-05
7.25826e-05
7.25912e-05
7.2591e-05
7.25797e-05
7.25522e-05
7.24991e-05
7.24226e-05
7.23425e-05
7.22919e-05
7.2267e-05
7.22555e-05
7.22493e-05
7.2247e-05
7.22497e-05
7.22558e-05
7.22671e-05
7.22915e-05
7.23415e-05
7.2421e-05
7.24974e-05
7.25499e-05
7.2573e-05
7.25654e-05
7.25006e-05
7.22925e-05
7.1708e-05
7.02436e-05
6.74666e-05
0.000104042
0.00011564
0.000121553
0.000124086
0.000125088
0.000125451
0.000125571
0.000125607
0.000125616
0.000125617
0.000125616
0.000125614
0.000125612
0.000125611
0.00012561
0.000125609
0.000125609
0.000125608
0.000125608
0.000125608
0.000125609
0.00012561
0.000125611
0.000125612
0.000125613
0.000125612
0.000125604
0.000125569
0.000125451
0.000125088
0.000124087
0.000121554
0.000115641
0.000104043
0.000115641
0.000329484
0.000400466
0.000430095
0.000442824
0.000447972
0.000449859
0.000450463
0.000450604
0.000450586
0.000450523
0.000450454
0.000450401
0.000450363
0.000450338
0.000450319
0.000450306
0.000450299
0.000450299
0.000450306
0.000450319
0.000450338
0.000450362
0.000450396
0.000450436
0.000450452
0.000450333
0.000449764
0.000447909
0.000442784
0.000430067
0.000400444
0.000329471
0.000115642
0.000121555
0.000400487
0.00050004
0.000543709
0.00056347
0.000571937
0.000575227
0.000576318
0.000576542
0.000576446
0.000576261
0.00057609
0.000575974
0.00057591
0.000575878
0.000575856
0.000575839
0.000575829
0.00057583
0.00057584
0.000575857
0.00057588
0.00057591
0.000575967
0.000576053
0.000576115
0.000575941
0.000574953
0.000571771
0.000563384
0.000543669
0.000500021
0.000400481
0.000121558
0.000124091
0.000430129
0.000543725
0.000595303
0.00061947
0.000630186
0.000634433
0.000635751
0.000635799
0.000635333
0.000634744
0.000634257
0.000633945
0.000633794
0.000633731
0.000633682
0.000633641
0.000633618
0.000633618
0.000633642
0.000633685
0.000633734
0.000633795
0.000633935
0.0006342
0.000634527
0.000634606
0.000633594
0.000629674
0.000619209
0.00059519
0.000543684
0.000430121
0.000124095
0.000125094
0.000442865
0.000563496
0.000619482
0.000646271
0.000658315
0.000662961
0.000663992
0.000663244
0.00066168
0.000660005
0.000658733
0.000657966
0.000657631
0.00065751
0.00065739
0.000657279
0.000657218
0.000657219
0.000657282
0.000657394
0.000657514
0.000657632
0.000657954
0.000658663
0.000659737
0.000660792
0.0006606
0.000656868
0.000645523
0.000619154
0.000563376
0.000442836
0.000125099
0.000125458
0.000448015
0.000571969
0.000630209
0.000658334
0.000670866
0.000675163
0.000674953
0.000672071
0.00066778
0.000663537
0.00066067
0.000659088
0.000658512
0.00065838
0.000658115
0.000657848
0.000657704
0.000657705
0.000657851
0.00065812
0.000658386
0.000658516
0.000659076
0.000660595
0.000663242
0.000666799
0.000669168
0.000667208
0.000656437
0.000629367
0.000571653
0.000447928
0.000125462
0.000125578
0.000449902
0.000575265
0.000634481
0.000663035
0.000675257
0.000678167
0.000675032
0.000667351
0.000656826
0.000646898
0.000641715
0.000639346
0.000638857
0.000639047
0.000638538
0.000637988
0.000637706
0.000637707
0.000637991
0.000638544
0.000639054
0.000638862
0.000639336
0.000641644
0.000646602
0.000655815
0.000664328
0.000666975
0.000658787
0.000632592
0.000574545
0.000449689
0.000125578
0.000125614
0.000450506
0.000576375
0.000635862
0.000664224
0.00067536
0.000675512
0.000666745
0.000649227
0.000624624
0.000601361
0.000596527
0.000596057
0.000597343
0.000598871
0.000598069
0.000597169
0.000596746
0.000596747
0.000597172
0.000598075
0.000598879
0.000597349
0.000596052
0.000596469
0.000601089
0.00062363
0.000646174
0.000658555
0.000655834
0.000632174
0.00057496
0.000450071
0.000125604
0.000125623
0.000450653
0.000576644
0.00063606
0.000663854
0.000673271
0.000669214
0.000651147
0.000614646
0.000555724
0.000489847
0.000511306
0.00052659
0.000534727
0.000539408
0.000538695
0.000537779
0.000537389
0.00053739
0.000537782
0.0005387
0.000539416
0.000534736
0.000526595
0.000511279
0.00048964
0.000554798
0.000611608
0.000642896
0.000649389
0.000629849
0.000574272
0.000449908
0.000125599
0.000125624
0.000450654
0.000576641
0.000635886
0.000663041
0.000670624
0.000661753
0.000631243
0.000561313
0.000408649
0.000144502
0.00035491
0.000436447
0.000461472
0.000470234
0.000471214
0.000471171
0.0004711
0.0004711
0.000471173
0.000471218
0.000470243
0.000461486
0.000436472
0.000354957
0.00014447
0.000407908
0.000558314
0.000622939
0.000641821
0.000627065
0.000573306
0.00044959
0.000125585
0.000125623
0.000450624
0.000576607
0.000635767
0.000662602
0.000669211
0.000657442
0.000617302
0.000506602
0.000147146
0.000134948
0.000358549
0.000403983
0.000414168
0.000417654
0.000418601
0.000418782
0.000418783
0.000418603
0.000417657
0.000414175
0.000403998
0.000358588
0.000134955
0.000147001
0.000503703
0.000608956
0.000637438
0.000625568
0.000572779
0.000449385
0.000125576
0.000125621
0.000450602
0.00057663
0.000635886
0.000662964
0.000670271
0.000660718
0.00062883
0.000556556
0.00040087
0.000142044
0.000328152
0.000397309
0.000415536
0.00041656
0.0004229
0.000424883
0.00042521
0.000425209
0.00042488
0.000422896
0.000416551
0.000415525
0.000397298
0.000328134
0.000141998
0.000400056
0.000553515
0.000620483
0.000640723
0.000626616
0.000573098
0.000449424
0.000125578
0.00012562
0.000450596
0.000576705
0.000636176
0.000663834
0.000672674
0.000667117
0.000645816
0.000603176
0.000533804
0.000452665
0.000448445
0.000439488
0.000436397
0.000434565
0.000435874
0.000436359
0.000436412
0.000436411
0.000436355
0.000435867
0.000434551
0.000436374
0.000439447
0.000448358
0.00045241
0.000532832
0.000600093
0.00063749
0.000647156
0.000629033
0.000573942
0.00044964
0.000125588
0.000125619
0.000450595
0.000576791
0.000636487
0.000664735
0.000675037
0.000672859
0.000658891
0.000631231
0.000589062
0.000539198
0.000499545
0.000463952
0.000449523
0.000444703
0.000443615
0.000443344
0.000443261
0.00044326
0.000443342
0.00044361
0.000444692
0.000449499
0.000463909
0.000499457
0.000538915
0.000588052
0.000628128
0.000650569
0.00065291
0.000631394
0.000574812
0.000449877
0.000125598
0.000125618
0.000450595
0.000576856
0.000636723
0.0006654
0.000676709
0.000676665
0.000666731
0.000645718
0.000612318
0.000568418
0.000520565
0.000475697
0.000456169
0.000449449
0.000447485
0.000446965
0.000446845
0.000446845
0.000446964
0.000447482
0.000449441
0.000456149
0.00047566
0.000520503
0.000568133
0.000611294
0.000642599
0.000658397
0.000656704
0.000633046
0.000575439
0.00045005
0.000125605
0.000125616
0.000450593
0.000576896
0.000636866
0.000665795
0.000677667
0.000678742
0.000670728
0.000652445
0.00062192
0.000579226
0.000528842
0.000480686
0.000459098
0.0004515
0.000449214
0.000448617
0.000448492
0.000448492
0.000448618
0.000449213
0.000451493
0.00045908
0.00048065
0.00052878
0.00057894
0.000620888
0.000649312
0.000662377
0.000658761
0.000633978
0.000575799
0.000450148
0.000125607
0.000125615
0.00045059
0.000576915
0.000636938
0.000665991
0.00067813
0.000679708
0.000672499
0.000655244
0.000625633
0.000583139
0.000531866
0.000482563
0.000460221
0.000452284
0.000449885
0.000449266
0.000449142
0.000449142
0.000449267
0.000449884
0.000452279
0.000460203
0.000482528
0.000531804
0.000582852
0.000624596
0.000652103
0.000664135
0.000659711
0.000634421
0.000575972
0.000450192
0.000125607
0.000125614
0.000450588
0.000576923
0.000636968
0.00066607
0.000678308
0.000680068
0.000673136
0.00065621
0.000626854
0.000584371
0.000532807
0.000483155
0.000460575
0.000452531
0.000450097
0.000449472
0.000449349
0.00044935
0.000449473
0.000450096
0.000452526
0.000460559
0.000483121
0.000532745
0.000584083
0.000625816
0.000653065
0.000664766
0.000660063
0.000634589
0.000576038
0.000450208
0.000125606
0.000125613
0.000450588
0.000576924
0.000636971
0.000666074
0.000678314
0.000680076
0.000673145
0.000656221
0.000626866
0.000584382
0.000532818
0.00048317
0.000460585
0.000452537
0.000450101
0.000449476
0.000449355
0.000449356
0.000449477
0.000450101
0.000452532
0.000460569
0.000483137
0.000532757
0.000584095
0.000625829
0.000653078
0.000664776
0.000660071
0.000634594
0.00057604
0.000450207
0.000125605
0.000125613
0.000450589
0.000576918
0.000636946
0.000666004
0.000678147
0.000679731
0.000672528
0.000655279
0.000625672
0.000583178
0.000531904
0.000482615
0.000460257
0.000452308
0.000449905
0.000449286
0.000449165
0.000449166
0.000449288
0.000449906
0.000452304
0.000460242
0.000482584
0.000531844
0.000582893
0.000624639
0.000652142
0.000664167
0.000659735
0.000634436
0.000575979
0.000450191
0.000125605
0.000125614
0.000450591
0.0005769
0.000636878
0.000665815
0.000677696
0.000678782
0.00067078
0.000652509
0.000621995
0.000579305
0.000528922
0.000480793
0.000459179
0.000451562
0.000449271
0.000448677
0.000448556
0.000448557
0.00044868
0.000449274
0.000451561
0.000459168
0.000480766
0.000528865
0.000579027
0.000620971
0.000649385
0.000662435
0.000658803
0.000634005
0.000575812
0.000450146
0.000125604
0.000125615
0.000450591
0.000576863
0.00063674
0.000665429
0.000676751
0.000676723
0.000666809
0.000645821
0.000612449
0.00056857
0.000520719
0.000475891
0.000456325
0.000449583
0.000447615
0.000447101
0.000446988
0.00044699
0.000447107
0.000447623
0.000449589
0.000456322
0.000475874
0.00052067
0.000568303
0.000611442
0.000642716
0.000658483
0.000656765
0.000633084
0.000575457
0.000450048
0.000125601
0.000125616
0.000450589
0.000576798
0.000636507
0.000664769
0.000675088
0.000672932
0.000658995
0.000631381
0.000589281
0.000539493
0.000499878
0.000464257
0.000449766
0.000444925
0.000443833
0.000443573
0.0004435
0.000443503
0.000443583
0.000443847
0.000444939
0.000449774
0.000464254
0.000499845
0.000539252
0.000588305
0.000628297
0.00065068
0.000652983
0.00063144
0.000574833
0.000449873
0.000125595
0.000125617
0.000450584
0.000576707
0.00063619
0.000663861
0.000672719
0.000667187
0.000645928
0.000603369
0.00053415
0.000453204
0.000448973
0.000439787
0.000436557
0.000434686
0.000435977
0.000436476
0.000436545
0.00043655
0.00043649
0.000435995
0.000434697
0.000436555
0.000439779
0.000448981
0.000453033
0.000533239
0.000600289
0.000637585
0.000647211
0.000629067
0.000573955
0.000449628
0.000125585
0.000125618
0.000450575
0.000576602
0.000635857
0.000662939
0.000670254
0.000660719
0.000628868
0.000556703
0.000401318
0.000142156
0.000328469
0.000396776
0.00041458
0.000415373
0.000421655
0.000423659
0.000424006
0.000424009
0.000423664
0.000421644
0.000415299
0.000414419
0.000396581
0.000328561
0.00014212
0.000400607
0.000553561
0.000620403
0.000640655
0.000626575
0.000573068
0.000449387
0.000125573
0.000125617
0.000450541
0.00057647
0.000635579
0.000662376
0.000668958
0.000657162
0.000616987
0.000506296
0.00014707
0.000134287
0.000353907
0.000397693
0.000406849
0.000410063
0.000410992
0.000411186
0.000411176
0.000410944
0.0004099
0.000406396
0.000396716
0.000352443
0.000133935
0.000146793
0.000502834
0.00060821
0.000636953
0.000625277
0.000572604
0.000449276
0.000125568
0.000125608
0.000450384
0.000576144
0.000635186
0.000662185
0.000669642
0.000660619
0.000629842
0.000559468
0.000406461
0.000143558
0.000343838
0.000419086
0.00043802
0.000442865
0.000443259
0.000443317
0.000443334
0.000443302
0.00044316
0.000442733
0.000441344
0.000434359
0.000412377
0.000337317
0.000142608
0.000402932
0.000554308
0.000620346
0.000640226
0.000626077
0.000572705
0.000449265
0.000125567
0.000125574
0.000449792
0.000575061
0.000633877
0.000661222
0.000670292
0.00066583
0.000646992
0.000608825
0.000546446
0.000473953
0.000482505
0.000482348
0.000473379
0.000468495
0.000466399
0.000465735
0.000465556
0.000465495
0.000465433
0.000465323
0.000465143
0.000464401
0.00046384
0.000463446
0.000459917
0.000536387
0.000600684
0.000636361
0.00064527
0.000627114
0.000572498
0.000448961
0.000125547
0.000125455
0.000447927
0.00057183
0.000629803
0.000657093
0.000667466
0.000666848
0.000656717
0.000636179
0.000605097
0.000569319
0.00054358
0.000514156
0.00048293
0.000469774
0.000465338
0.000464036
0.000463694
0.000463614
0.000463622
0.000463802
0.00046469
0.000468125
0.000479869
0.000510702
0.000544862
0.000589156
0.000625268
0.000645177
0.000646504
0.000625326
0.000570152
0.000447382
0.000125442
0.000125093
0.000442797
0.000563421
0.00061927
0.000645582
0.000656357
0.000658087
0.000653205
0.000641844
0.000623523
0.000598754
0.000569168
0.000533081
0.000496266
0.000480415
0.000474977
0.00047334
0.000472899
0.000472808
0.000472866
0.000473236
0.000474714
0.000479843
0.000495434
0.000532849
0.000571536
0.000605922
0.000630298
0.000641921
0.000638917
0.000616534
0.000562424
0.000442471
0.000125089
0.000124091
0.000430076
0.000543694
0.000595225
0.000619167
0.000629232
0.000631917
0.000629927
0.000623717
0.000612591
0.00059562
0.000572402
0.000543989
0.000516776
0.000503307
0.00049817
0.000496476
0.000495977
0.000495872
0.000495971
0.000496451
0.000498094
0.000503168
0.000516634
0.000544209
0.000573642
0.000598072
0.000614088
0.000620384
0.000615262
0.000593695
0.000543158
0.000429893
0.000124092
0.000121557
0.000400446
0.000500035
0.000543706
0.000563387
0.000571574
0.000574131
0.000573568
0.000570451
0.000564264
0.000554092
0.000539446
0.000521531
0.000504779
0.000495488
0.000491559
0.000490155
0.000489715
0.000489622
0.000489721
0.000490163
0.000491562
0.000495481
0.0005048
0.000521706
0.000539956
0.000554801
0.000564037
0.000566786
0.000561379
0.000542964
0.000499786
0.000400348
0.00012156
0.000115644
0.000329462
0.00040048
0.000430128
0.000442844
0.000447905
0.000449531
0.000449491
0.00044824
0.000445525
0.000440812
0.000433782
0.000425097
0.000416947
0.000412072
0.000409851
0.000409004
0.000408723
0.000408664
0.000408736
0.000409029
0.000409886
0.000412115
0.00041701
0.000425215
0.000433997
0.000441001
0.000445144
0.000445922
0.000442058
0.000429855
0.000400389
0.000329412
0.000115647
0.000104045
0.000115644
0.000121561
0.0001241
0.000125107
0.000125472
0.000125587
0.0001256
0.000125548
0.000125417
0.00012517
0.000124776
0.000124265
0.000123772
0.000123469
0.000123328
0.000123274
0.000123256
0.000123251
0.000123256
0.000123276
0.00012333
0.00012347
0.000123774
0.000124268
0.000124782
0.000125174
0.000125389
0.000125397
0.000125088
0.000124101
0.000121566
0.000115647
0.000104049
0.000108344
0.000124523
0.000132806
0.000136495
0.000138037
0.000138632
0.000138841
0.000138906
0.000138922
0.000138922
0.000138918
0.000138912
0.000138908
0.000138905
0.000138903
0.000138902
0.000138901
0.0001389
0.0001389
0.000138901
0.000138902
0.000138903
0.000138905
0.000138907
0.00013891
0.00013891
0.000138896
0.000138834
0.000138628
0.000138035
0.000136494
0.000132806
0.000124523
0.000108346
0.000124523
0.000425686
0.000534827
0.000582169
0.000603294
0.000612224
0.000615659
0.000616808
0.000617079
0.000617033
0.000616888
0.000616733
0.000616608
0.000616521
0.000616462
0.00061642
0.000616391
0.000616375
0.000616375
0.00061639
0.000616419
0.00061646
0.000616516
0.000616594
0.000616687
0.000616731
0.000616507
0.000615432
0.000612069
0.000603191
0.000582097
0.000534772
0.000425651
0.000124523
0.000132808
0.000534862
0.000696122
0.000769699
0.000804011
0.00081921
0.000825332
0.000827425
0.000827845
0.000827613
0.000827181
0.000826765
0.000826463
0.000826285
0.000826189
0.000826122
0.000826074
0.000826049
0.000826049
0.000826075
0.000826123
0.000826189
0.00082628
0.00082644
0.000826674
0.000826856
0.000826557
0.000824691
0.000818803
0.000803781
0.000769575
0.000696054
0.000534828
0.000132809
0.000136499
0.000582226
0.000769727
0.000858272
0.000900898
0.000920342
0.000928279
0.000930789
0.000930836
0.000929825
0.000928514
0.00092736
0.000926564
0.000926138
0.000925937
0.000925789
0.000925675
0.000925615
0.000925616
0.000925677
0.000925791
0.000925939
0.000926133
0.000926531
0.000927224
0.000928036
0.000928308
0.000926445
0.000919192
0.000900275
0.000857973
0.000769594
0.000582177
0.000136501
0.000138043
0.000603363
0.000804059
0.000900923
0.00094848
0.000970416
0.000979086
0.000981015