/*--------------------------------*- C++ -*----------------------------------*\
| =========                 |                                                 |
| \\      /  F ield         | OpenFOAM: The Open Source CFD Toolbox           |
|  \\    /   O peration     | Version:  2112                                  |
|   \\  /    A nd           | Website:  www.openfoam.com                      |
|    \\/     M anipulation  |                                                 |
\*---------------------------------------------------------------------------*/
FoamFile
{
    version     2.0;
    format      ascii;
    arch        "LSB;label=32;scalar=64";
    class       volScalarField;
    location    "2.2";
    object      p;
}
// * * * * * * * * * * * * * * * * * * * * * * * * * * * * * * * * * * * * * //

dimensions      [0 2 -2 0 0 0 0];

internalField   nonuniform List<scalar> 
64906
(
-7.43285e-06
-7.41348e-06
-7.41019e-06
-7.42613e-06
-7.45677e-06
-7.52378e-06
-7.62478e-06
-7.75487e-06
-7.89915e-06
-8.06409e-06
-8.24376e-06
-8.43055e-06
-8.61148e-06
-8.77886e-06
-8.92388e-06
-9.04235e-06
-9.13078e-06
-9.18778e-06
-9.21265e-06
-9.20554e-06
-9.16752e-06
-9.10029e-06
-9.00767e-06
-8.89403e-06
-8.76845e-06
-8.63856e-06
-8.51735e-06
-8.41193e-06
-8.32855e-06
-8.26808e-06
-8.23161e-06
-8.22045e-06
-8.22969e-06
-8.2511e-06
-7.37013e-06
-7.27989e-06
-7.21251e-06
-7.1714e-06
-7.17382e-06
-7.20022e-06
-7.24957e-06
-7.32164e-06
-7.42234e-06
-7.53964e-06
-7.66394e-06
-7.79125e-06
-7.91023e-06
-8.01936e-06
-8.11261e-06
-8.18971e-06
-8.24886e-06
-8.29021e-06
-8.31355e-06
-8.31905e-06
-8.30723e-06
-8.27822e-06
-8.23408e-06
-8.17524e-06
-8.10801e-06
-8.03396e-06
-7.96528e-06
-7.90689e-06
-7.87014e-06
-7.86256e-06
-7.89127e-06
-7.95754e-06
-8.05143e-06
-8.166e-06
-7.35389e-06
-7.21673e-06
-7.10169e-06
-7.01732e-06
-6.97836e-06
-6.97674e-06
-7.00644e-06
-7.06452e-06
-7.14858e-06
-7.25521e-06
-7.37214e-06
-7.496e-06
-7.60475e-06
-7.70054e-06
-7.77664e-06
-7.8381e-06
-7.88479e-06
-7.91902e-06
-7.94118e-06
-7.95143e-06
-7.94969e-06
-7.93392e-06
-7.90457e-06
-7.85677e-06
-7.79778e-06
-7.72563e-06
-7.66401e-06
-7.61762e-06
-7.60222e-06
-7.62499e-06
-7.69601e-06
-7.81996e-06
-7.97933e-06
-8.15652e-06
-7.3843e-06
-7.20738e-06
-7.04872e-06
-6.92433e-06
-6.85511e-06
-6.836e-06
-6.86083e-06
-6.92784e-06
-7.03506e-06
-7.18508e-06
-7.35957e-06
-7.55435e-06
-7.7154e-06
-7.84908e-06
-7.94493e-06
-8.01768e-06
-8.06913e-06
-8.10494e-06
-8.12618e-06
-8.13298e-06
-8.12461e-06
-8.09566e-06
-8.04478e-06
-7.95747e-06
-7.84518e-06
-7.70181e-06
-7.58452e-06
-7.49912e-06
-7.46983e-06
-7.50089e-06
-7.60203e-06
-7.77535e-06
-7.9934e-06
-8.22333e-06
-7.47377e-06
-7.26423e-06
-7.07245e-06
-6.92e-06
-6.83536e-06
-6.81644e-06
-6.86004e-06
-6.97027e-06
-7.15176e-06
-7.41967e-06
-7.74731e-06
-8.13177e-06
-8.43644e-06
-8.67835e-06
-8.84175e-06
-8.96079e-06
-9.03934e-06
-9.08825e-06
-9.10908e-06
-9.10194e-06
-9.06558e-06
-8.98935e-06
-8.87004e-06
-8.67372e-06
-8.41792e-06
-8.08558e-06
-7.81937e-06
-7.62248e-06
-7.53003e-06
-7.53567e-06
-7.64338e-06
-7.84696e-06
-8.11182e-06
-8.38466e-06
-7.62247e-06
-7.38161e-06
-7.16372e-06
-6.99354e-06
-6.9073e-06
-6.90645e-06
-6.99302e-06
-7.18178e-06
-7.49115e-06
-7.9622e-06
-8.56527e-06
-9.32314e-06
-9.88884e-06
-1.03222e-05
-1.06051e-05
-1.08093e-05
-1.09396e-05
-1.10146e-05
-1.10356e-05
-1.10028e-05
-1.09148e-05
-1.07533e-05
-1.05142e-05
-1.0126e-05
-9.6099e-06
-8.90469e-06
-8.37015e-06
-7.97757e-06
-7.76899e-06
-7.71437e-06
-7.80602e-06
-8.02729e-06
-8.32265e-06
-8.64141e-06
-7.82643e-06
-7.55102e-06
-7.30996e-06
-7.12947e-06
-7.0534e-06
-7.08661e-06
-7.23738e-06
-7.5344e-06
-8.01743e-06
-8.77798e-06
-9.78157e-06
-1.12333e-05
-1.21937e-05
-1.29014e-05
-1.33491e-05
-1.36733e-05
-1.38769e-05
-1.39897e-05
-1.40117e-05
-1.39427e-05
-1.37828e-05
-1.3502e-05
-1.30983e-05
-1.2435e-05
-1.15251e-05
-1.01234e-05
-9.20198e-06
-8.52724e-06
-8.15621e-06
-8.01156e-06
-8.06788e-06
-8.2952e-06
-8.61956e-06
-8.9902e-06
-8.07959e-06
-7.76315e-06
-7.49997e-06
-7.31574e-06
-7.26223e-06
-7.34658e-06
-7.58178e-06
-8.00604e-06
-8.68449e-06
-9.75685e-06
-1.12179e-05
-1.39858e-05
-1.54313e-05
-1.64943e-05
-1.71573e-05
-1.76453e-05
-1.7951e-05
-1.81172e-05
-1.8141e-05
-1.80219e-05
-1.77629e-05
-1.732e-05
-1.67013e-05
-1.56805e-05
-1.42864e-05
-1.15552e-05
-1.02089e-05
-9.22465e-06
-8.66685e-06
-8.41223e-06
-8.41518e-06
-8.63785e-06
-8.99134e-06
-9.42613e-06
-8.37475e-06
-8.00682e-06
-7.72101e-06
-7.53882e-06
-7.5201e-06
-7.6724e-06
-8.00872e-06
-8.56708e-06
-9.39566e-06
-1.07549e-05
-1.25984e-05
-1.78642e-05
-1.95339e-05
-2.0959e-05
-2.18564e-05
-2.25152e-05
-2.29292e-05
-2.31534e-05
-2.31798e-05
-2.30079e-05
-2.2645e-05
-2.20343e-05
-2.11819e-05
-1.97932e-05
-1.81787e-05
-1.29212e-05
-1.12759e-05
-9.9757e-06
-9.27066e-06
-8.89609e-06
-8.82986e-06
-9.03718e-06
-9.41919e-06
-9.94259e-06
-8.71771e-06
-8.26103e-06
-7.96488e-06
-7.79719e-06
-7.8371e-06
-8.09562e-06
-8.58653e-06
-9.30907e-06
-1.03575e-05
-1.28352e-05
-1.07359e-05
-2.21456e-05
-2.39494e-05
-2.60016e-05
-2.7251e-05
-2.81803e-05
-2.87673e-05
-2.90777e-05
-2.91074e-05
-2.88558e-05
-2.83264e-05
-2.74506e-05
-2.62493e-05
-2.42287e-05
-2.25114e-05
-1.09392e-05
-1.33682e-05
-1.0943e-05
-1.00484e-05
-9.52277e-06
-9.33465e-06
-9.49324e-06
-9.87678e-06
-1.05484e-05
-9.05627e-06
-8.54048e-06
-8.2197e-06
-8.06858e-06
-8.1816e-06
-8.57697e-06
-9.24414e-06
-1.00469e-05
-1.08398e-05
-8.52081e-06
-3.28225e-05
-2.99603e-05
-3.12629e-05
-3.25403e-05
-3.36276e-05
-3.43531e-05
-3.47259e-05
-3.47591e-05
-3.44522e-05
-3.37913e-05
-3.27642e-05
-3.15382e-05
-3.02605e-05
-3.30352e-05
-9.44018e-06
-1.16076e-05
-1.08591e-05
-1.0229e-05
-9.89002e-06
-9.97886e-06
-1.03871e-05
-1.1152e-05
-9.39341e-06
-8.82246e-06
-8.48085e-06
-8.3591e-06
-8.58447e-06
-9.22979e-06
-1.04293e-05
-1.23896e-05
-1.56606e-05
-2.00035e-05
-3.0008e-05
-2.93394e-05
-3.28598e-05
-3.56743e-05
-3.7909e-05
-3.95652e-05
-4.05954e-05
-4.10935e-05
-4.11299e-05
-4.0705e-05
-3.97491e-05
-3.81687e-05
-3.60137e-05
-3.32864e-05
-2.98581e-05
-3.07491e-05
-2.06404e-05
-1.6348e-05
-1.31694e-05
-1.14152e-05
-1.05917e-05
-1.05102e-05
-1.09099e-05
-1.177e-05
-9.71332e-06
-9.08747e-06
-8.72017e-06
-8.61096e-06
-8.90668e-06
-9.69699e-06
-1.11337e-05
-1.3386e-05
-1.66929e-05
-2.07717e-05
-2.74746e-05
-3.13977e-05
-3.52753e-05
-3.8666e-05
-4.14143e-05
-4.33492e-05
-4.45418e-05
-4.51142e-05
-4.51529e-05
-4.46585e-05
-4.35455e-05
-4.16927e-05
-3.90309e-05
-3.57236e-05
-3.19181e-05
-2.81131e-05
-2.14437e-05
-1.73832e-05
-1.41649e-05
-1.21358e-05
-1.11166e-05
-1.09636e-05
-1.13878e-05
-1.23535e-05
-1.00045e-05
-9.3303e-06
-8.93733e-06
-8.83169e-06
-9.17282e-06
-1.00562e-05
-1.16357e-05
-1.40739e-05
-1.75834e-05
-2.20407e-05
-2.7725e-05
-3.24164e-05
-3.69775e-05
-4.08127e-05
-4.38657e-05
-4.59437e-05
-4.72084e-05
-4.78067e-05
-4.7847e-05
-4.73298e-05
-4.61485e-05
-4.41572e-05
-4.11967e-05
-3.74516e-05
-3.29844e-05
-2.83537e-05
-2.26914e-05
-1.82621e-05
-1.48545e-05
-1.26611e-05
-1.15396e-05
-1.13595e-05
-1.182e-05
-1.28816e-05
-1.02575e-05
-9.54166e-06
-9.12111e-06
-9.00618e-06
-9.36202e-06
-1.02818e-05
-1.19117e-05
-1.44069e-05
-1.79517e-05
-2.24545e-05
-2.78408e-05
-3.29618e-05
-3.79408e-05
-4.19771e-05
-4.51429e-05
-4.72542e-05
-4.85268e-05
-4.91229e-05
-4.91643e-05
-4.86519e-05
-4.74651e-05
-4.54429e-05
-4.23726e-05
-3.84323e-05
-3.35827e-05
-2.84711e-05
-2.31041e-05
-1.86328e-05
-1.52e-05
-1.29699e-05
-1.18339e-05
-1.16728e-05
-1.21833e-05
-1.33288e-05
-1.04844e-05
-9.72066e-06
-9.2732e-06
-9.14472e-06
-9.50192e-06
-1.04343e-05
-1.20811e-05
-1.45944e-05
-1.81447e-05
-2.26664e-05
-2.80164e-05
-3.33524e-05
-3.8529e-05
-4.26642e-05
-4.58725e-05
-4.79772e-05
-4.92339e-05
-4.98177e-05
-4.98605e-05
-4.93631e-05
-4.81948e-05
-4.61814e-05
-4.30699e-05
-3.90269e-05
-3.39467e-05
-2.86468e-05
-2.33216e-05
-1.88353e-05
-1.54062e-05
-1.31755e-05
-1.20522e-05
-1.19218e-05
-1.24792e-05
-1.36902e-05
-1.06578e-05
-9.8599e-06
-9.39102e-06
-9.24895e-06
-9.60134e-06
-1.05349e-05
-1.21846e-05
-1.47028e-05
-1.82575e-05
-2.28052e-05
-2.81855e-05
-3.36351e-05
-3.89218e-05
-4.31083e-05
-4.63329e-05
-4.84273e-05
-4.96704e-05
-5.02454e-05
-5.02903e-05
-4.98054e-05
-4.86541e-05
-4.66536e-05
-4.35275e-05
-3.94322e-05
-3.42366e-05
-2.88257e-05
-2.34721e-05
-1.89624e-05
-1.55358e-05
-1.33132e-05
-1.22089e-05
-1.21086e-05
-1.27041e-05
-1.39635e-05
-1.07754e-05
-9.95798e-06
-9.47566e-06
-9.32451e-06
-9.67344e-06
-1.06082e-05
-1.22623e-05
-1.479e-05
-1.83599e-05
-2.29403e-05
-2.83648e-05
-3.38886e-05
-3.92452e-05
-4.34716e-05
-4.67154e-05
-4.88132e-05
-5.00551e-05
-5.06292e-05
-5.06767e-05
-5.01979e-05
-4.90521e-05
-4.7052e-05
-4.39093e-05
-3.97749e-05
-3.45082e-05
-2.90219e-05
-2.36235e-05
-1.90814e-05
-1.56431e-05
-1.3419e-05
-1.23239e-05
-1.22418e-05
-1.28611e-05
-1.41511e-05
-1.08387e-05
-1.00147e-05
-9.52737e-06
-9.37315e-06
-9.72238e-06
-1.06617e-05
-1.23255e-05
-1.48702e-05
-1.84666e-05
-2.30846e-05
-2.85549e-05
-3.41289e-05
-3.95311e-05
-4.37938e-05
-4.70641e-05
-4.91811e-05
-5.04358e-05
-5.10176e-05
-5.10684e-05
-5.05884e-05
-4.94354e-05
-4.74208e-05
-4.42549e-05
-4.00859e-05
-3.47728e-05
-2.92336e-05
-2.37868e-05
-1.92054e-05
-1.57408e-05
-1.3502e-05
-1.24023e-05
-1.23237e-05
-1.29515e-05
-1.42553e-05
-1.08475e-05
-1.00305e-05
-9.54664e-06
-9.39525e-06
-9.74856e-06
-1.06955e-05
-1.23742e-05
-1.49434e-05
-1.85759e-05
-2.32362e-05
-2.87559e-05
-3.43606e-05
-3.97841e-05
-4.4078e-05
-4.73811e-05
-4.95319e-05
-5.08124e-05
-5.14102e-05
-5.14641e-05
-5.09744e-05
-4.98031e-05
-4.77611e-05
-4.45669e-05
-4.03691e-05
-3.50335e-05
-2.946e-05
-2.39593e-05
-1.93315e-05
-1.58274e-05
-1.35619e-05
-1.24446e-05
-1.23552e-05
-1.29765e-05
-1.42774e-05
-1.08e-05
-1.00068e-05
-9.53444e-06
-9.39008e-06
-9.74811e-06
-1.07014e-05
-1.23942e-05
-1.49886e-05
-1.86662e-05
-2.33769e-05
-2.89681e-05
-3.45813e-05
-3.99864e-05
-4.4295e-05
-4.76273e-05
-4.98206e-05
-5.11364e-05
-5.17568e-05
-5.18155e-05
-5.13126e-05
-5.01142e-05
-4.80371e-05
-4.48188e-05
-4.06089e-05
-3.52895e-05
-2.97018e-05
-2.41247e-05
-1.94418e-05
-1.58873e-05
-1.35888e-05
-1.24465e-05
-1.23362e-05
-1.29376e-05
-1.42185e-05
-1.07226e-05
-9.94953e-06
-9.49136e-06
-9.35351e-06
-9.70959e-06
-1.06561e-05
-1.23454e-05
-1.49463e-05
-1.86611e-05
-2.3431e-05
-2.91745e-05
-3.47505e-05
-4.00535e-05
-4.43216e-05
-4.7648e-05
-4.9874e-05
-5.12237e-05
-5.18691e-05
-5.19337e-05
-5.14177e-05
-5.01961e-05
-4.80964e-05
-4.48913e-05
-4.07264e-05
-3.55047e-05
-2.99434e-05
-2.42099e-05
-1.94632e-05
-1.58653e-05
-1.35488e-05
-1.23915e-05
-1.22612e-05
-1.28352e-05
-1.40798e-05
-1.06106e-05
-9.86284e-06
-9.42141e-06
-9.28705e-06
-9.62927e-06
-1.05461e-05
-1.21968e-05
-1.47581e-05
-1.84709e-05
-2.32695e-05
-2.94228e-05
-3.48817e-05
-3.98743e-05
-4.40025e-05
-4.72538e-05
-4.94749e-05
-5.08378e-05
-5.1501e-05
-5.15741e-05
-5.10575e-05
-4.98391e-05
-4.77611e-05
-4.46434e-05
-4.06274e-05
-3.57056e-05
-3.02376e-05
-2.40982e-05
-1.93176e-05
-1.57134e-05
-1.34205e-05
-1.22749e-05
-1.2135e-05
-1.26777e-05
-1.38689e-05
-1.04649e-05
-9.74977e-06
-9.32444e-06
-9.1829e-06
-9.48379e-06
-1.03178e-05
-1.18385e-05
-1.42208e-05
-1.77052e-05
-2.20934e-05
-2.95033e-05
-3.50679e-05
-3.92535e-05
-4.29777e-05
-4.59705e-05
-4.8087e-05
-4.94093e-05
-5.00699e-05
-5.01558e-05
-4.96679e-05
-4.85164e-05
-4.65706e-05
-4.3733e-05
-4.01431e-05
-3.60344e-05
-3.03717e-05
-2.29846e-05
-1.86223e-05
-1.52419e-05
-1.31063e-05
-1.20542e-05
-1.19446e-05
-1.24673e-05
-1.35949e-05
-1.02989e-05
-9.62229e-06
-9.2154e-06
-9.06326e-06
-9.30785e-06
-1.00234e-05
-1.13503e-05
-1.35098e-05
-1.71202e-05
-2.21572e-05
-3.13562e-05
-3.33991e-05
-3.79342e-05
-4.14598e-05
-4.409e-05
-4.60335e-05
-4.72685e-05
-4.79026e-05
-4.80085e-05
-4.75895e-05
-4.65691e-05
-4.48441e-05
-4.24014e-05
-3.903e-05
-3.45105e-05
-3.21892e-05
-2.32754e-05
-1.82102e-05
-1.4656e-05
-1.26981e-05
-1.17876e-05
-1.17304e-05
-1.22349e-05
-1.32887e-05
-1.01246e-05
-9.48549e-06
-9.0939e-06
-8.91899e-06
-9.07227e-06
-9.56791e-06
-1.03667e-05
-1.123e-05
-1.19404e-05
-8.32513e-06
-4.1917e-05
-3.76508e-05
-3.92128e-05
-4.08789e-05
-4.2342e-05
-4.33612e-05
-4.39325e-05
-4.40639e-05
-4.37621e-05
-4.30153e-05
-4.18399e-05
-4.04167e-05
-3.9107e-05
-4.33649e-05
-9.41176e-06
-1.31631e-05
-1.25084e-05
-1.1821e-05
-1.13793e-05
-1.14648e-05
-1.19779e-05
-1.29675e-05
-9.96153e-06
-9.35946e-06
-8.99242e-06
-8.81918e-06
-8.94728e-06
-9.41296e-06
-1.0289e-05
-1.16977e-05
-1.40713e-05
-1.80067e-05
-1.96423e-05
-2.95895e-05
-3.2919e-05
-3.60478e-05
-3.82025e-05
-3.98632e-05
-4.09721e-05
-4.16078e-05
-4.1773e-05
-4.14818e-05
-4.07257e-05
-3.944e-05
-3.76083e-05
-3.48658e-05
-3.15662e-05
-2.22898e-05
-2.01398e-05
-1.58991e-05
-1.32945e-05
-1.18908e-05
-1.12691e-05
-1.1301e-05
-1.17627e-05
-1.26806e-05
-9.8202e-06
-9.25051e-06
-8.91008e-06
-8.74309e-06
-8.84991e-06
-9.26833e-06
-1.00633e-05
-1.13317e-05
-1.31762e-05
-1.57171e-05
-2.04327e-05
-2.67994e-05
-3.00148e-05
-3.29799e-05
-3.51882e-05
-3.69185e-05
-3.80725e-05
-3.87335e-05
-3.89262e-05
-3.86706e-05
-3.79561e-05
-3.67145e-05
-3.48791e-05
-3.23215e-05
-2.91941e-05
-2.30054e-05
-1.78467e-05
-1.50829e-05
-1.30463e-05
-1.17458e-05
-1.11432e-05
-1.11542e-05
-1.15738e-05
-1.24308e-05
-9.71209e-06
-9.17862e-06
-8.87253e-06
-8.72666e-06
-8.83341e-06
-9.22991e-06
-9.98094e-06
-1.11914e-05
-1.3025e-05
-1.5649e-05
-1.92432e-05
-2.37164e-05
-2.71022e-05
-3.01302e-05
-3.24378e-05
-3.42578e-05
-3.54481e-05
-3.61268e-05
-3.63292e-05
-3.60873e-05
-3.53772e-05
-3.41273e-05
-3.2256e-05
-2.9709e-05
-2.64094e-05
-2.20028e-05
-1.80929e-05
-1.512e-05
-1.30143e-05
-1.17158e-05
-1.1104e-05
-1.10799e-05
-1.14496e-05
-1.22404e-05
-9.64048e-06
-9.15824e-06
-8.89343e-06
-8.78036e-06
-8.89791e-06
-9.27604e-06
-9.96788e-06
-1.10627e-05
-1.26825e-05
-1.49556e-05
-1.78853e-05
-2.13312e-05
-2.44244e-05
-2.72824e-05
-2.95123e-05
-3.12608e-05
-3.23992e-05
-3.3045e-05
-3.32434e-05
-3.30297e-05
-3.23753e-05
-3.12078e-05
-2.94429e-05
-2.70794e-05
-2.40728e-05
-2.06243e-05
-1.73975e-05
-1.47912e-05
-1.29054e-05
-1.17112e-05
-1.11298e-05
-1.108e-05
-1.13981e-05
-1.21139e-05
-9.61e-06
-9.20448e-06
-8.99541e-06
-8.93542e-06
-9.08525e-06
-9.46529e-06
-1.01124e-05
-1.10894e-05
-1.24775e-05
-1.4352e-05
-1.66991e-05
-1.94112e-05
-2.20477e-05
-2.45606e-05
-2.65668e-05
-2.8142e-05
-2.91737e-05
-2.97527e-05
-2.9937e-05
-2.97582e-05
-2.91968e-05
-2.81428e-05
-2.6592e-05
-2.4521e-05
-2.19685e-05
-1.92302e-05
-1.6642e-05
-1.44972e-05
-1.28936e-05
-1.18389e-05
-1.12917e-05
-1.12017e-05
-1.14474e-05
-1.20601e-05
-9.62556e-06
-9.31881e-06
-9.1897e-06
-9.20724e-06
-9.4153e-06
-9.82883e-06
-1.04706e-05
-1.13804e-05
-1.26055e-05
-1.4184e-05
-1.61009e-05
-1.82807e-05
-2.04777e-05
-2.25929e-05
-2.43212e-05
-2.56735e-05
-2.65832e-05
-2.71089e-05
-2.72806e-05
-2.712e-05
-2.66089e-05
-2.57077e-05
-2.43773e-05
-2.26475e-05
-2.05521e-05
-1.83619e-05
-1.62851e-05
-1.45197e-05
-1.31466e-05
-1.21921e-05
-1.1643e-05
-1.14759e-05
-1.16114e-05
-1.20795e-05
-9.67405e-06
-9.48081e-06
-9.44682e-06
-9.5578e-06
-9.84442e-06
-1.03186e-05
-1.10018e-05
-1.19192e-05
-1.30914e-05
-1.45197e-05
-1.62347e-05
-1.81338e-05
-2.00566e-05
-2.18992e-05
-2.34439e-05
-2.46634e-05
-2.55083e-05
-2.60059e-05
-2.61704e-05
-2.60142e-05
-2.55273e-05
-2.4694e-05
-2.34951e-05
-2.19702e-05
-2.0169e-05
-1.82949e-05
-1.64985e-05
-1.49473e-05
-1.36863e-05
-1.27533e-05
-1.21503e-05
-1.18696e-05
-1.1864e-05
-1.21528e-05
-9.7428e-06
-9.68077e-06
-9.74416e-06
-9.94285e-06
-1.03113e-05
-1.08731e-05
-1.16553e-05
-1.26858e-05
-1.39884e-05
-1.55795e-05
-1.73578e-05
-1.92908e-05
-2.1244e-05
-2.31075e-05
-2.47033e-05
-2.59794e-05
-2.68842e-05
-2.74212e-05
-2.75948e-05
-2.7411e-05
-2.6866e-05
-2.59563e-05
-2.46844e-05
-2.31e-05
-2.12731e-05
-1.93782e-05
-1.75514e-05
-1.58976e-05
-1.4541e-05
-1.34997e-05
-1.2778e-05
-1.23585e-05
-1.21928e-05
-1.2264e-05
-7.50249e-06
-7.50999e-06
-7.53126e-06
-7.56845e-06
-7.62685e-06
-7.71468e-06
-7.83433e-06
-7.98601e-06
-8.16472e-06
-8.3695e-06
-8.59136e-06
-8.82219e-06
-9.04539e-06
-9.25229e-06
-9.43084e-06
-9.5759e-06
-9.68264e-06
-9.74935e-06
-9.77506e-06
-9.75992e-06
-9.70532e-06
-9.61326e-06
-9.48895e-06
-9.33774e-06
-9.17194e-06
-9.00013e-06
-8.83897e-06
-8.69602e-06
-8.5799e-06
-8.49125e-06
-8.42862e-06
-8.38767e-06
-8.36074e-06
-8.34279e-06
-7.45755e-06
-7.42257e-06
-7.40957e-06
-7.41154e-06
-7.44177e-06
-7.49952e-06
-7.58563e-06
-7.70029e-06
-7.84113e-06
-8.00348e-06
-8.1739e-06
-8.34937e-06
-8.5141e-06
-8.66781e-06
-8.79895e-06
-8.90685e-06
-8.98727e-06
-9.04024e-06
-9.065e-06
-9.06171e-06
-9.03147e-06
-8.97451e-06
-8.89543e-06
-8.79502e-06
-8.68518e-06
-8.56613e-06
-8.45431e-06
-8.35288e-06
-8.27584e-06
-8.22672e-06
-8.20868e-06
-8.21814e-06
-8.24024e-06
-8.27768e-06
-7.46137e-06
-7.41148e-06
-7.38223e-06
-7.36024e-06
-7.37075e-06
-7.4171e-06
-7.50033e-06
-7.62155e-06
-7.77646e-06
-7.96598e-06
-8.16775e-06
-8.38647e-06
-8.58037e-06
-8.75959e-06
-8.90399e-06
-9.02084e-06
-9.10495e-06
-9.15946e-06
-9.18368e-06
-9.17776e-06
-9.14273e-06
-9.07568e-06
-8.98224e-06
-8.85522e-06
-8.71555e-06
-8.553e-06
-8.41114e-06
-8.28556e-06
-8.20101e-06
-8.15766e-06
-8.15959e-06
-8.19907e-06
-8.24169e-06
-8.29454e-06
-7.51103e-06
-7.44136e-06
-7.39312e-06
-7.35042e-06
-7.3489e-06
-7.39623e-06
-7.49603e-06
-7.65373e-06
-7.86586e-06
-8.14443e-06
-8.45065e-06
-8.80412e-06
-9.10056e-06
-9.36988e-06
-9.57347e-06
-9.73361e-06
-9.84285e-06
-9.90977e-06
-9.93362e-06
-9.91449e-06
-9.85351e-06
-9.74227e-06
-9.58886e-06
-9.371e-06
-9.12888e-06
-8.83218e-06
-8.58911e-06
-8.37978e-06
-8.24783e-06
-8.18355e-06
-8.18935e-06
-8.2496e-06
-8.3134e-06
-8.3875e-06
-7.61995e-06
-7.52743e-06
-7.46422e-06
-7.4106e-06
-7.41088e-06
-7.47745e-06
-7.61879e-06
-7.8493e-06
-8.1701e-06
-8.61653e-06
-9.12193e-06
-9.7434e-06
-1.02345e-05
-1.0673e-05
-1.09873e-05
-1.12296e-05
-1.13875e-05
-1.14792e-05
-1.15031e-05
-1.14592e-05
-1.13495e-05
-1.1156e-05
-1.08917e-05
-1.05043e-05
-1.00684e-05
-9.50482e-06
-9.0679e-06
-8.69724e-06
-8.46785e-06
-8.34717e-06
-8.33289e-06
-8.39755e-06
-8.4763e-06
-8.57613e-06
-7.78929e-06
-7.66901e-06
-7.59437e-06
-7.53922e-06
-7.55527e-06
-7.65969e-06
-7.86713e-06
-8.20495e-06
-8.68277e-06
-9.38032e-06
-1.01963e-05
-1.12858e-05
-1.20791e-05
-1.27789e-05
-1.32588e-05
-1.36258e-05
-1.3858e-05
-1.39883e-05
-1.40128e-05
-1.39315e-05
-1.37484e-05
-1.34304e-05
-1.30008e-05
-1.23517e-05
-1.16148e-05
-1.05837e-05
-9.84443e-06
-9.22961e-06
-8.85527e-06
-8.64448e-06
-8.58757e-06
-8.64253e-06
-8.72959e-06
-8.86299e-06
-8.01665e-06
-7.86227e-06
-7.77868e-06
-7.72989e-06
-7.77406e-06
-7.932e-06
-8.22416e-06
-8.69223e-06
-9.35633e-06
-1.03845e-05
-1.16236e-05
-1.35112e-05
-1.46988e-05
-1.57284e-05
-1.64011e-05
-1.69164e-05
-1.72345e-05
-1.74112e-05
-1.7437e-05
-1.73116e-05
-1.70446e-05
-1.65793e-05
-1.59573e-05
-1.49772e-05
-1.38472e-05
-1.2016e-05
-1.08685e-05
-9.92958e-06
-9.38104e-06
-9.05743e-06
-8.94146e-06
-8.97635e-06
-9.06934e-06
-9.24674e-06
-8.29693e-06
-8.10034e-06
-8.01038e-06
-7.97733e-06
-8.06529e-06
-8.29598e-06
-8.69188e-06
-9.29669e-06
-1.0136e-05
-1.14383e-05
-1.31868e-05
-1.64536e-05
-1.80336e-05
-1.94449e-05
-2.03441e-05
-2.10465e-05
-2.14761e-05
-2.17139e-05
-2.17417e-05
-2.15589e-05
-2.11835e-05
-2.0533e-05
-1.96849e-05
-1.83201e-05
-1.67965e-05
-1.35751e-05
-1.19496e-05
-1.07384e-05
-1.00263e-05
-9.58333e-06
-9.39183e-06
-9.39394e-06
-9.48933e-06
-9.72466e-06
-8.62191e-06
-8.37167e-06
-8.2753e-06
-8.26428e-06
-8.40706e-06
-8.72098e-06
-9.22056e-06
-9.92976e-06
-1.07903e-05
-1.22362e-05
-1.42538e-05
-2.05722e-05
-2.19809e-05
-2.35265e-05
-2.45435e-05
-2.53513e-05
-2.58456e-05
-2.61255e-05
-2.61556e-05
-2.59352e-05
-2.54989e-05
-2.4745e-05
-2.37792e-05
-2.2272e-05
-2.09199e-05
-1.46125e-05
-1.28119e-05
-1.14331e-05
-1.07057e-05
-1.01722e-05
-9.90513e-06
-9.86936e-06
-9.96934e-06
-1.02878e-05
-8.98607e-06
-8.66684e-06
-8.57198e-06
-8.60309e-06
-8.83873e-06
-9.29548e-06
-9.98868e-06
-1.08235e-05
-1.17525e-05
-1.39659e-05
-1.00487e-05
-2.38361e-05
-2.51951e-05
-2.72277e-05
-2.85047e-05
-2.95678e-05
-3.02094e-05
-3.05616e-05
-3.05939e-05
-3.03056e-05
-2.97267e-05
-2.87214e-05
-2.74972e-05
-2.5497e-05
-2.42256e-05
-1.02212e-05
-1.45302e-05
-1.23886e-05
-1.16256e-05
-1.09827e-05
-1.05526e-05
-1.04251e-05
-1.05039e-05
-1.09301e-05
-9.36526e-06
-8.97253e-06
-8.87405e-06
-8.94732e-06
-9.28004e-06
-9.88912e-06
-1.07706e-05
-1.17209e-05
-1.21493e-05
-7.42104e-06
-3.46456e-05
-2.94555e-05
-3.02193e-05
-3.13476e-05
-3.22879e-05
-3.29243e-05
-3.32685e-05
-3.33024e-05
-3.30252e-05
-3.24542e-05
-3.15746e-05
-3.04996e-05
-2.97535e-05
-3.48043e-05
-8.44058e-06
-1.29548e-05
-1.25831e-05
-1.18072e-05
-1.12099e-05
-1.09841e-05
-1.10527e-05
-1.16062e-05
-9.74916e-06
-9.28221e-06
-9.1926e-06
-9.34028e-06
-9.84826e-06
-1.07983e-05
-1.23454e-05
-1.46e-05
-1.82488e-05
-2.20407e-05
-3.18634e-05
-2.80089e-05
-3.02203e-05
-3.24418e-05
-3.42124e-05
-3.55032e-05
-3.63437e-05
-3.67643e-05
-3.68e-05
-3.64505e-05
-3.56818e-05
-3.44633e-05
-3.2769e-05
-3.06318e-05
-2.85088e-05
-3.26182e-05
-2.26552e-05
-1.89436e-05
-1.54098e-05
-1.3358e-05
-1.21365e-05
-1.16339e-05
-1.16222e-05
-1.23052e-05
-1.01168e-05
-9.57451e-06
-9.4807e-06
-9.67184e-06
-1.02849e-05
-1.14164e-05
-1.3235e-05
-1.57962e-05
-1.93945e-05
-2.29566e-05
-2.87467e-05
-3.01857e-05
-3.19941e-05
-3.38407e-05
-3.55994e-05
-3.69246e-05
-3.78228e-05
-3.82759e-05
-3.83128e-05
-3.79335e-05
-3.71096e-05
-3.58571e-05
-3.41721e-05
-3.23894e-05
-3.06368e-05
-2.93364e-05
-2.35975e-05
-2.00848e-05
-1.65985e-05
-1.42559e-05
-1.27968e-05
-1.21724e-05
-1.2145e-05
-1.29653e-05
-1.04567e-05
-9.84715e-06
-9.75012e-06
-9.98003e-06
-1.06855e-05
-1.19752e-05
-1.40224e-05
-1.68758e-05
-2.06986e-05
-2.47488e-05
-2.93838e-05
-3.17811e-05
-3.38011e-05
-3.57175e-05
-3.76134e-05
-3.90049e-05
-3.99538e-05
-4.04261e-05
-4.04646e-05
-4.00693e-05
-3.91981e-05
-3.78827e-05
-3.60642e-05
-3.42125e-05
-3.22595e-05
-2.99441e-05
-2.53658e-05
-2.13751e-05
-1.76763e-05
-1.50605e-05
-1.34065e-05
-1.2679e-05
-1.26364e-05
-1.35677e-05
-1.0753e-05
-1.00847e-05
-9.97689e-06
-1.02224e-05
-1.09731e-05
-1.23379e-05
-1.44795e-05
-1.74441e-05
-2.13118e-05
-2.55073e-05
-2.99023e-05
-3.27436e-05
-3.50094e-05
-3.69762e-05
-3.89257e-05
-4.03347e-05
-4.12996e-05
-4.17754e-05
-4.18154e-05
-4.14193e-05
-4.05347e-05
-3.92036e-05
-3.73329e-05
-3.54254e-05
-3.31914e-05
-3.04513e-05
-2.61224e-05
-2.19929e-05
-1.82597e-05
-1.55515e-05
-1.38338e-05
-1.30785e-05
-1.3052e-05
-1.40767e-05
-1.09849e-05
-1.02827e-05
-1.01657e-05
-1.04189e-05
-1.11967e-05
-1.26078e-05
-1.48066e-05
-1.78416e-05
-2.17477e-05
-2.60283e-05
-3.03837e-05
-3.34572e-05
-3.58673e-05
-3.78989e-05
-3.98946e-05
-4.13122e-05
-4.22806e-05
-4.27546e-05
-4.27964e-05
-4.24056e-05
-4.15206e-05
-4.01836e-05
-3.82695e-05
-3.63019e-05
-3.39664e-05
-3.0945e-05
-2.66539e-05
-2.2442e-05
-1.86796e-05
-1.59174e-05
-1.41681e-05
-1.34042e-05
-1.33952e-05
-1.4487e-05
-1.11648e-05
-1.04366e-05
-1.03106e-05
-1.05642e-05
-1.13534e-05
-1.2786e-05
-1.50112e-05
-1.80815e-05
-2.20123e-05
-2.63563e-05
-3.0738e-05
-3.39386e-05
-3.64438e-05
-3.85167e-05
-4.05369e-05
-4.19572e-05
-4.29264e-05
-4.33992e-05
-4.34432e-05
-4.30579e-05
-4.2176e-05
-4.08395e-05
-3.8904e-05
-3.68966e-05
-3.44674e-05
-3.13156e-05
-2.69988e-05
-2.27256e-05
-1.89452e-05
-1.61601e-05
-1.44037e-05
-1.36454e-05
-1.36551e-05
-1.47935e-05
-1.12905e-05
-1.05457e-05
-1.04137e-05
-1.06668e-05
-1.14625e-05
-1.29083e-05
-1.5152e-05
-1.82491e-05
-2.22082e-05
-2.66032e-05
-3.10279e-05
-3.43069e-05
-3.68734e-05
-3.89815e-05
-4.10247e-05
-4.2455e-05
-4.34301e-05
-4.39059e-05
-4.39527e-05
-4.35701e-05
-4.2687e-05
-4.1345e-05
-3.93901e-05
-3.735e-05
-3.48598e-05
-3.16281e-05
-2.72676e-05
-2.29432e-05
-1.91379e-05
-1.63332e-05
-1.45701e-05
-1.38148e-05
-1.38354e-05
-1.50004e-05
-1.136e-05
-1.06089e-05
-1.04747e-05
-1.07279e-05
-1.15272e-05
-1.29812e-05
-1.52388e-05
-1.83577e-05
-2.23474e-05
-2.67841e-05
-3.1255e-05
-3.45824e-05
-3.71868e-05
-3.93249e-05
-4.13907e-05
-4.28392e-05
-4.38268e-05
-4.43105e-05
-4.43609e-05
-4.39779e-05
-4.3088e-05
-4.17336e-05
-3.97603e-05
-3.76932e-05
-3.51658e-05
-3.18832e-05
-2.74739e-05
-2.31057e-05
-1.92695e-05
-1.64445e-05
-1.46713e-05
-1.39136e-05
-1.39366e-05
-1.51104e-05
-1.13747e-05
-1.06269e-05
-1.04942e-05
-1.07479e-05
-1.15479e-05
-1.30046e-05
-1.52711e-05
-1.84063e-05
-2.24285e-05
-2.68988e-05
-3.14221e-05
-3.47746e-05
-3.73936e-05
-3.95554e-05
-4.16426e-05
-4.31148e-05
-4.41204e-05
-4.46164e-05
-4.46704e-05
-4.42813e-05
-4.33835e-05
-4.20126e-05
-4.00235e-05
-3.79364e-05
-3.53948e-05
-3.20833e-05
-2.76175e-05
-2.3211e-05
-1.93387e-05
-1.6494e-05
-1.47082e-05
-1.39431e-05
-1.39603e-05
-1.51251e-05
-1.13403e-05
-1.06022e-05
-1.0474e-05
-1.07274e-05
-1.15227e-05
-1.2973e-05
-1.52385e-05
-1.83783e-05
-2.24333e-05
-2.69277e-05
-3.15284e-05
-3.48809e-05
-3.74815e-05
-3.96586e-05
-4.17611e-05
-4.32629e-05
-4.42903e-05
-4.48027e-05
-4.48619e-05
-4.44675e-05
-4.35566e-05
-4.21653e-05
-4.01669e-05
-3.80698e-05
-3.55471e-05
-3.22293e-05
-2.76809e-05
-2.32446e-05
-1.93333e-05
-1.64754e-05
-1.46794e-05
-1.39055e-05
-1.39096e-05
-1.50461e-05
-1.12421e-05
-1.05353e-05
-1.04131e-05
-1.06592e-05
-1.14339e-05
-1.28514e-05
-1.5081e-05
-1.81839e-05
-2.22499e-05
-2.67525e-05
-3.15176e-05
-3.48361e-05
-3.7366e-05
-3.95269e-05
-4.16136e-05
-4.31334e-05
-4.41767e-05
-4.47054e-05
-4.47713e-05
-4.43739e-05
-4.34587e-05
-4.2061e-05
-4.00868e-05
-3.80136e-05
-3.55627e-05
-3.22647e-05
-2.75478e-05
-2.3098e-05
-1.91692e-05
-1.63364e-05
-1.45582e-05
-1.37912e-05
-1.37842e-05
-1.48735e-05
-1.10957e-05
-1.04352e-05
-1.03206e-05
-1.05532e-05
-1.12917e-05
-1.26493e-05
-1.4805e-05
-1.78216e-05
-2.18747e-05
-2.62949e-05
-3.14438e-05
-3.46787e-05
-3.70084e-05
-3.91705e-05
-4.12365e-05
-4.27699e-05
-4.38208e-05
-4.4364e-05
-4.4439e-05
-4.40458e-05
-4.314e-05
-4.17469e-05
-3.98058e-05
-3.77443e-05
-3.54844e-05
-3.22487e-05
-2.7149e-05
-2.2779e-05
-1.88567e-05
-1.60942e-05
-1.43646e-05
-1.36203e-05
-1.36015e-05
-1.46183e-05
-1.09128e-05
-1.0306e-05
-1.01922e-05
-1.03901e-05
-1.10475e-05
-1.22629e-05
-1.42054e-05
-1.69346e-05
-2.07201e-05
-2.45999e-05
-3.11157e-05
-3.43984e-05
-3.63296e-05
-3.84117e-05
-4.03482e-05
-4.18366e-05
-4.28582e-05
-4.34019e-05
-4.34891e-05
-4.31208e-05
-4.22671e-05
-4.09452e-05
-3.91511e-05
-3.71967e-05
-3.53479e-05
-3.19673e-05
-2.55185e-05
-2.1704e-05
-1.80517e-05
-1.55586e-05
-1.40096e-05
-1.33602e-05
-1.33591e-05
-1.42892e-05
-1.07103e-05
-1.01655e-05
-1.00574e-05
-1.0224e-05
-1.08021e-05
-1.18751e-05
-1.35999e-05
-1.60676e-05
-1.9989e-05
-2.44419e-05
-3.30067e-05
-3.23907e-05
-3.54511e-05
-3.82284e-05
-4.02969e-05
-4.18365e-05
-4.28634e-05
-4.34153e-05
-4.35208e-05
-4.31834e-05
-4.23606e-05
-4.10284e-05
-3.91259e-05
-3.65166e-05
-3.35027e-05
-3.38013e-05
-2.55577e-05
-2.11343e-05
-1.73239e-05
-1.50572e-05
-1.36774e-05
-1.31102e-05
-1.31115e-05
-1.39285e-05
-1.04994e-05
-1.00142e-05
-9.89962e-06
-1.00067e-05
-1.04383e-05
-1.12078e-05
-1.22908e-05
-1.33709e-05
-1.35708e-05
-6.73497e-06
-4.4341e-05
-3.68855e-05
-3.7639e-05
-3.89718e-05
-4.01493e-05
-4.09979e-05
-4.15057e-05
-4.16305e-05
-4.13789e-05
-4.07694e-05
-3.98395e-05
-3.86903e-05
-3.8177e-05
-4.55998e-05
-7.83164e-06
-1.49048e-05
-1.48105e-05
-1.38957e-05
-1.30977e-05
-1.27645e-05
-1.28309e-05
-1.35485e-05
-1.0303e-05
-9.876e-06
-9.77502e-06
-9.87149e-06
-1.02714e-05
-1.10174e-05
-1.21819e-05
-1.37488e-05
-1.60336e-05
-1.97357e-05
-1.96288e-05
-3.08869e-05
-3.33301e-05
-3.6114e-05
-3.79292e-05
-3.9424e-05
-4.04529e-05
-4.10745e-05
-4.12296e-05
-4.09297e-05
-4.01905e-05
-3.89215e-05
-3.72499e-05
-3.48535e-05
-3.25442e-05
-2.22666e-05
-2.18368e-05
-1.79667e-05
-1.54968e-05
-1.39438e-05
-1.29679e-05
-1.25783e-05
-1.25981e-05
-1.32133e-05
-1.01298e-05
-9.75164e-06
-9.66082e-06
-9.74182e-06
-1.00933e-05
-1.07628e-05
-1.18202e-05
-1.33247e-05
-1.53197e-05
-1.7859e-05
-2.24801e-05
-2.9099e-05
-3.11703e-05
-3.32875e-05
-3.48543e-05
-3.63013e-05
-3.72844e-05
-3.79031e-05
-3.80748e-05
-3.78213e-05
-3.71556e-05
-3.60306e-05
-3.45144e-05
-3.26354e-05
-3.07166e-05
-2.47128e-05
-1.98859e-05
-1.7309e-05
-1.51872e-05
-1.36677e-05
-1.27429e-05
-1.23671e-05
-1.23729e-05
-1.29176e-05
-9.99411e-06
-9.66328e-06
-9.59476e-06
-9.68408e-06
-1.00252e-05
-1.06717e-05
-1.17017e-05
-1.31967e-05
-1.52666e-05
-1.7983e-05
-2.15246e-05
-2.57177e-05
-2.80081e-05
-2.99529e-05
-3.15049e-05
-3.29952e-05
-3.40034e-05
-3.46284e-05
-3.48076e-05
-3.45637e-05
-3.38917e-05
-3.27722e-05
-3.12389e-05
-2.93704e-05
-2.73298e-05
-2.36914e-05
-2.01597e-05
-1.73672e-05
-1.51505e-05
-1.36023e-05
-1.26577e-05
-1.22512e-05
-1.22173e-05
-1.26917e-05
-9.89902e-06
-9.61663e-06
-9.57533e-06
-9.67925e-06
-1.00109e-05
-1.06194e-05
-1.15726e-05
-1.29476e-05
-1.4819e-05
-1.7261e-05
-2.01049e-05
-2.32318e-05
-2.53493e-05
-2.7166e-05
-2.87006e-05
-3.01313e-05
-3.11064e-05
-3.17097e-05
-3.18896e-05
-3.167e-05
-3.10376e-05
-2.99989e-05
-2.85359e-05
-2.68021e-05
-2.48845e-05
-2.22227e-05
-1.94299e-05
-1.69276e-05
-1.4921e-05
-1.34839e-05
-1.25911e-05
-1.21841e-05
-1.21215e-05
-1.25301e-05
-9.84655e-06
-9.61969e-06
-9.61632e-06
-9.75002e-06
-1.00888e-05
-1.06731e-05
-1.15556e-05
-1.27937e-05
-1.44316e-05
-1.6492e-05
-1.88238e-05
-2.13213e-05
-2.33201e-05
-2.51411e-05
-2.66933e-05
-2.80381e-05
-2.89939e-05
-2.95932e-05
-2.97778e-05
-2.95668e-05
-2.89379e-05
-2.79723e-05
-2.65855e-05
-2.49564e-05
-2.31111e-05
-2.0927e-05
-1.86199e-05
-1.64994e-05
-1.47455e-05
-1.34536e-05
-1.26213e-05
-1.22089e-05
-1.21067e-05
-1.24373e-05
-9.83277e-06
-9.66828e-06
-9.71161e-06
-9.88699e-06
-1.02469e-05
-1.08233e-05
-1.16545e-05
-1.27791e-05
-1.42202e-05
-1.5981e-05
-1.79514e-05
-2.00487e-05
-2.19288e-05
-2.36872e-05
-2.51722e-05
-2.64444e-05
-2.73412e-05
-2.78916e-05
-2.80679e-05
-2.78857e-05
-2.73333e-05
-2.64294e-05
-2.51605e-05
-2.36489e-05
-2.19136e-05
-2.00082e-05
-1.80414e-05
-1.62246e-05
-1.46955e-05
-1.35354e-05
-1.27519e-05
-1.23215e-05
-1.21678e-05
-1.24056e-05
-9.84091e-06
-9.73478e-06
-9.81108e-06
-1.00233e-05
-1.04083e-05
-1.09913e-05
-1.18017e-05
-1.28659e-05
-1.41947e-05
-1.57792e-05
-1.75534e-05
-1.94365e-05
-2.12414e-05
-2.29424e-05
-2.43943e-05
-2.56018e-05
-2.64627e-05
-2.69869e-05
-2.71583e-05
-2.69862e-05
-2.64644e-05