/*--------------------------------*- C++ -*----------------------------------*\
| =========                 |                                                 |
| \\      /  F ield         | OpenFOAM: The Open Source CFD Toolbox           |
|  \\    /   O peration     | Version:  2112                                  |
|   \\  /    A nd           | Website:  www.openfoam.com                      |
|    \\/     M anipulation  |                                                 |
\*---------------------------------------------------------------------------*/
FoamFile
{
    version     2.0;
    format      ascii;
    arch        "LSB;label=32;scalar=64";
    class       surfaceScalarField;
    location    "2.2";
    object      phi;
}
// * * * * * * * * * * * * * * * * * * * * * * * * * * * * * * * * * * * * * //

dimensions      [0 3 -1 0 0 0 0];

oriented        oriented;

internalField   nonuniform List<scalar> 
188215
(
9.4042e-10
2.16846e-09
-3.10888e-09
3.07968e-09
1.35325e-09
-3.49251e-09
5.67204e-09
5.63461e-10
-3.15581e-09
8.32725e-09
4.339e-11
-2.6986e-09
1.0981e-08
-2.61857e-10
-2.3919e-09
1.35566e-08
-2.7994e-10
-2.29565e-09
1.59988e-08
-8.86184e-11
-2.35359e-09
1.82479e-08
2.41205e-10
-2.49034e-09
2.01906e-08
7.26679e-10
-2.66936e-09
2.15406e-08
1.5312e-09
-2.88115e-09
2.20928e-08
2.56872e-09
-3.12093e-09
2.14881e-08
3.96727e-09
-3.36254e-09
1.98862e-08
5.166e-09
-3.56416e-09
1.73501e-08
6.2406e-09
-3.70447e-09
1.4122e-08
7.03151e-09
-3.80346e-09
1.03615e-08
7.63059e-09
-3.87007e-09
6.26624e-09
8.01009e-09
-3.91482e-09
2.00871e-09
8.19879e-09
-3.94125e-09
-2.23359e-09
8.19347e-09
-3.95116e-09
-6.28373e-09
7.9943e-09
-3.94416e-09
-9.97024e-09
7.60489e-09
-3.91838e-09
-1.3097e-08
6.99685e-09
-3.87012e-09
-1.55084e-08
6.2002e-09
-3.7888e-09
-1.69657e-08
5.12378e-09
-3.66644e-09
-1.74148e-08
3.93389e-09
-3.4848e-09
-1.66994e-08
2.55495e-09
-3.2703e-09
-1.5191e-08
1.56445e-09
-3.0729e-09
-1.30897e-08
8.33386e-10
-2.93468e-09
-1.06711e-08
4.70942e-10
-2.88954e-09
-8.06598e-09
4.07068e-10
-3.01219e-09
-5.38933e-09
7.10518e-10
-3.38717e-09
-2.82385e-09
1.46895e-09
-4.03442e-09
-7.63554e-10
2.51968e-09
-4.57997e-09
3.4418e-09
-4.20536e-09
-6.38631e-10
6.99291e-09
-4.18582e-09
1.76325e-09
7.03752e-09
-8.08615e-09
4.99714e-09
6.60172e-09
-9.27214e-09
8.21066e-09
6.40138e-09
-9.57151e-09
1.11855e-08
6.69256e-09
-9.9293e-09
1.39765e-08
7.49436e-09
-1.05653e-08
1.66351e-08
8.79101e-09
-1.15383e-08
1.9105e-08
1.06432e-08
-1.28719e-08
2.12549e-08
1.31417e-08
-1.45649e-08
2.27941e-08
1.65903e-08
-1.65983e-08
2.34684e-08
2.08038e-08
-1.89093e-08
2.28025e-08
2.60273e-08
-2.13942e-08
2.10519e-08
3.06654e-08
-2.37488e-08
1.83142e-08
3.48084e-08
-2.58301e-08
1.48723e-08
3.80177e-08
-2.75443e-08
1.08903e-08
4.04798e-08
-2.88672e-08
6.56882e-09
4.21034e-08
-2.97718e-08
2.08355e-09
4.29354e-08
-3.02513e-08
-2.38506e-09
4.29597e-08
-3.02976e-08
-6.6567e-09
4.21765e-08
-2.99106e-08
-1.0557e-08
4.06038e-08
-2.90986e-08
-1.38869e-08
3.81959e-08
-2.78692e-08
-1.64866e-08
3.50504e-08
-2.62505e-08
-1.80764e-08
3.09836e-08
-2.427e-08
-1.85673e-08
2.64516e-08
-2.20269e-08
-1.77008e-08
2.13622e-08
-1.96738e-08
-1.59566e-08
1.73514e-08
-1.75312e-08
-1.35571e-08
1.41587e-08
-1.57248e-08
-1.07669e-08
1.2031e-08
-1.43504e-08
-7.65932e-09
1.07357e-08
-1.34362e-08
-4.28465e-09
1.02597e-08
-1.29238e-08
-8.54784e-10
1.05147e-08
-1.24756e-08
1.53918e-09
1.10549e-08
-1.09292e-08
1.08003e-08
-5.81928e-09
-1.7378e-09
1.29344e-08
-4.20365e-09
8.77675e-10
1.39591e-08
-9.53706e-09
4.64893e-09
1.42039e-08
-1.13735e-08
8.36075e-09
1.47548e-08
-1.20652e-08
1.17902e-08
1.59864e-08
-1.27232e-08
1.50074e-08
1.79747e-08
-1.36976e-08
1.81227e-08
2.07875e-08
-1.51118e-08
2.11555e-08
2.46284e-08
-1.7018e-08
2.39967e-08
2.97413e-08
-1.94408e-08
2.62131e-08
3.67702e-08
-2.23962e-08
2.73617e-08
4.54515e-08
-2.57963e-08
2.65115e-08
5.63604e-08
-2.94829e-08
2.42829e-08
6.58847e-08
-3.29907e-08
2.09015e-08
7.42812e-08
-3.60914e-08
1.68173e-08
8.07459e-08
-3.8644e-08
1.21884e-08
8.57149e-08
-4.06062e-08
7.22732e-09
8.90061e-08
-4.19416e-08
2.10372e-09
9.07042e-08
-4.26452e-08
-3.00226e-09
9.07714e-08
-4.27057e-08
-7.91036e-09
8.92076e-08
-4.2123e-08
-1.24515e-08
8.60534e-08
-4.09085e-08
-1.64132e-08
8.12255e-08
-3.90679e-08
-1.96403e-08
7.49167e-08
-3.66391e-08
-2.16832e-08
6.66951e-08
-3.36687e-08
-2.23248e-08
5.73981e-08
-3.03048e-08
-2.09354e-08
4.67612e-08
-2.67884e-08
-1.84546e-08
3.84733e-08
-2.36026e-08
-1.52644e-08
3.18954e-08
-2.09269e-08
-1.17339e-08
2.73727e-08
-1.88721e-08
-7.89417e-09
2.43134e-08
-1.74175e-08
-3.74842e-09
2.25318e-08
-1.64178e-08
4.1339e-10
2.17594e-08
-1.54065e-08
3.05422e-09
2.14029e-08
-1.29889e-08
1.98401e-08
-5.9856e-09
-2.31196e-09
1.90711e-08
-3.82473e-09
6.14945e-10
2.08287e-08
-9.79652e-09
5.00689e-09
2.17017e-08
-1.18897e-08
9.40451e-09
2.3057e-08
-1.26999e-08
1.35389e-08
2.53216e-08
-1.34696e-08
1.75217e-08
2.86062e-08
-1.46143e-08
2.1562e-08
3.30487e-08
-1.63016e-08
2.57935e-08
3.90188e-08
-1.86219e-08
3.01378e-08
4.7019e-08
-2.1622e-08
3.38979e-08
5.8362e-08
-2.53519e-08
3.61437e-08
7.28925e-08
-2.96869e-08
3.48182e-08
9.21715e-08
-3.44855e-08
3.14527e-08
1.08276e-07
-3.90255e-08
2.66273e-08
1.22128e-07
-4.30212e-08
2.11312e-08
1.32533e-07
-4.6291e-08
1.50817e-08
1.40539e-07
-4.87746e-08
8.70374e-09
1.45831e-07
-5.04466e-08
2.15854e-09
1.4857e-07
-5.13206e-08
-4.36823e-09
1.48685e-07
-5.13866e-08
-1.06902e-08
1.46174e-07
-5.06441e-08
-1.66453e-08
1.41111e-07
-4.91025e-08
-2.2005e-08
1.33334e-07
-4.67488e-08
-2.6652e-08
1.23173e-07
-4.3609e-08
-2.9791e-08
1.09582e-07
-3.97481e-08
-3.08521e-08
9.38151e-08
-3.5356e-08
-2.82855e-08
7.49288e-08
-3.07341e-08
-2.41825e-08
6.09977e-08
-2.66274e-08
-1.93694e-08
5.02813e-08
-2.31991e-08
-1.44556e-08
4.3055e-08
-2.05961e-08
-9.43447e-09
3.80511e-08
-1.87588e-08
-4.24447e-09
3.48397e-08
-1.74979e-08
7.86614e-10
3.29931e-08
-1.62647e-08
3.84451e-09
3.18366e-08
-1.34916e-08
2.92973e-08
-5.61268e-09
-2.45377e-09
2.49708e-08
-3.44594e-09
1.02959e-09
2.72964e-08
-9.95105e-09
6.26063e-09
2.87189e-08
-1.22483e-08
1.15806e-08
3.08702e-08
-1.31332e-08
1.67001e-08
3.42158e-08
-1.40137e-08
2.18187e-08
3.88634e-08
-1.53758e-08
2.73201e-08
4.49824e-08
-1.74351e-08
3.35798e-08
5.30934e-08
-2.03343e-08
4.06445e-08
6.40871e-08
-2.41328e-08
4.74533e-08
8.04833e-08
-2.89301e-08
5.20029e-08
1.0286e-07
-3.45176e-08
4.95523e-08
1.3558e-07
-4.09577e-08
4.387e-08
1.60933e-07
-4.69749e-08
3.63929e-08
1.81904e-07
-5.22992e-08
2.84652e-08
1.97113e-07
-5.66519e-08
2.00067e-08
2.08875e-07
-5.98778e-08
1.12257e-08
2.16628e-07
-6.20161e-08
2.26346e-09
2.20655e-07
-6.31227e-08
-6.68036e-09
2.20823e-07
-6.31946e-08
-1.54044e-08
2.17129e-07
-6.22309e-08
-2.37643e-08
2.09704e-07
-6.02328e-08
-3.15425e-08
1.98256e-07
-5.71439e-08
-3.88129e-08
1.83367e-07
-5.29242e-08
-4.42134e-08
1.62717e-07
-4.77342e-08
-4.63179e-08
1.37782e-07
-4.18624e-08
-4.13268e-08
1.05536e-07
-3.55984e-08
-3.4096e-08
8.40176e-08
-3.02508e-08
-2.64446e-08
6.84065e-08
-2.57766e-08
-1.93208e-08
5.83431e-08
-2.24119e-08
-1.25819e-08
5.13618e-08
-2.00496e-08
-5.96958e-09
4.67002e-08
-1.84728e-08
2.32755e-10
4.38228e-08
-1.7032e-08
4.07753e-09
4.19347e-08
-1.39428e-08
3.86278e-08
-5.25298e-09
-2.31798e-09
3.04374e-08
-3.14862e-09
2.02309e-09
3.32354e-08
-1.02801e-08
8.39589e-09
3.5182e-08
-1.28359e-08
1.49287e-08
3.81651e-08
-1.38278e-08
2.13302e-08
4.26946e-08
-1.48802e-08
2.7938e-08
4.88275e-08
-1.65719e-08
3.5416e-08
5.66794e-08
-1.9175e-08
4.46403e-08
6.67615e-08
-2.28924e-08
5.6089e-08
8.03827e-08
-2.77442e-08
6.85744e-08
1.01863e-07
-3.38654e-08
7.79711e-08
1.34149e-07
-4.06853e-08
7.30134e-08
1.89789e-07
-4.9252e-08
6.29908e-08
2.28174e-07
-5.72183e-08
5.11518e-08
2.58263e-07
-6.45205e-08
3.95393e-08
2.79281e-07
-7.05561e-08
2.74663e-08
2.95755e-07
-7.48067e-08
1.50553e-08
3.06603e-07
-7.7564e-08
2.4229e-09
3.12263e-07
-7.89755e-08
-1.01932e-08
3.12496e-07
-7.9057e-08
-2.25526e-08
3.07295e-07
-7.7807e-08
-3.45334e-08
2.96891e-07
-7.52061e-08
-4.59954e-08
2.80824e-07
-7.11057e-08
-5.76083e-08
2.6019e-07
-6.52094e-08
-6.72874e-08
2.30439e-07
-5.80427e-08
-7.17867e-08
1.92502e-07
-5.02206e-08
-6.17528e-08
1.37325e-07
-4.18224e-08
-4.87912e-08
1.06314e-07
-3.5258e-08
-3.66515e-08
8.57526e-08
-2.94858e-08
-2.63675e-08
7.31768e-08
-2.51178e-08
-1.73483e-08
6.43556e-08
-2.2013e-08
-8.8636e-09
5.81954e-08
-1.99799e-08
-1.0046e-09
5.42156e-08
-1.82519e-08
3.98874e-09
5.16365e-08
-1.46952e-08
4.76334e-08
-5.01687e-09
-1.98087e-09
3.53197e-08
-2.90144e-09
3.54553e-09
3.8537e-08
-1.0828e-08
1.14235e-08
4.10448e-08
-1.37408e-08
1.95114e-08
4.49773e-08
-1.49001e-08
2.75022e-08
5.09076e-08
-1.62038e-08
3.5887e-08
5.87902e-08
-1.83475e-08
4.56989e-08
6.85286e-08
-2.1661e-08
5.87169e-08
8.01455e-08
-2.6402e-08
7.65462e-08
9.50061e-08
-3.24528e-08
9.88437e-08
1.19388e-07
-3.98217e-08
1.18863e-07
1.61186e-07
-4.70571e-08
1.08064e-07
2.58384e-07
-5.77952e-08
9.01106e-08
3.13819e-07
-6.76918e-08
7.16301e-08
3.54452e-07
-7.77079e-08
5.49445e-08
3.82207e-07
-8.624e-08
3.79028e-08
4.04417e-07
-9.16201e-08
2.0433e-08
4.19125e-07
-9.50522e-08
2.6472e-09
4.2684e-07
-9.67908e-08
-1.5128e-08
4.27157e-07
-9.6886e-08
-3.25637e-08
4.20066e-07
-9.53355e-08
-4.95412e-08
4.05952e-07
-9.20835e-08
-6.61062e-08
3.84263e-07
-8.68741e-08
-8.43751e-08
3.5695e-07
-7.84916e-08
-1.01934e-07
3.16615e-07
-6.86172e-08
-1.12129e-07
2.61569e-07
-5.88719e-08
-9.11145e-08
1.64599e-07
-4.82881e-08
-6.83782e-08
1.24911e-07
-4.13332e-08
-4.97933e-08
1.01504e-07
-3.43364e-08
-3.5491e-08
8.77065e-08
-2.88321e-08
-2.37456e-08
7.74073e-08
-2.47971e-08
-1.29558e-08
6.95657e-08
-2.216e-08
-2.97522e-09
6.42494e-08
-2.00144e-08
3.66389e-09
6.08231e-08
-1.58257e-08
5.6154e-08
-4.8567e-09
-1.42413e-09
3.94057e-08
-2.66192e-09
5.6653e-09
4.30189e-08
-1.15713e-08
1.55118e-08
4.61567e-08
-1.49584e-08
2.56151e-08
5.12262e-08
-1.63522e-08
3.55781e-08
5.89337e-08
-1.79891e-08
4.59157e-08
6.91559e-08
-2.07033e-08
5.78587e-08
8.14623e-08
-2.48767e-08
7.42814e-08
9.45487e-08
-3.08259e-08
9.89034e-08
1.08449e-07
-3.80648e-08
1.37285e-07
1.27745e-07
-4.67389e-08
1.81031e-07
1.67474e-07
-5.00334e-08
1.5757e-07
3.4252e-07
-6.06751e-08
1.27096e-07
4.16741e-07
-7.24481e-08
9.97946e-08
4.68376e-07
-8.66226e-08
7.66357e-08
5.04248e-07
-9.88828e-08
5.28203e-08
5.33485e-07
-1.05252e-07
2.81557e-08
5.53054e-07
-1.09264e-07
2.95997e-09
5.63313e-07
-1.11278e-07
-2.22359e-08
5.63741e-07
-1.11388e-07
-4.69005e-08
5.54323e-07
-1.09593e-07
-7.0716e-08
5.35555e-07
-1.05788e-07
-9.38478e-08
5.0701e-07
-9.96155e-08
-1.21049e-07
4.71671e-07
-8.75197e-08
-1.51172e-07
4.20241e-07
-7.35028e-08
-1.73837e-07
3.46164e-07
-6.19303e-08
-1.28389e-07
1.70536e-07
-5.1385e-08
-8.98778e-08
1.34773e-07
-4.83734e-08
-6.44551e-08
1.16183e-07
-4.01015e-08
-4.64554e-08
1.03208e-07
-3.35009e-08
-3.20533e-08
9.13824e-08
-2.83772e-08
-1.85825e-08
8.11056e-08
-2.50108e-08
-5.85831e-09
7.38475e-08
-2.23223e-08
3.02829e-09
6.92337e-08
-1.72972e-08
6.38662e-08
-4.68395e-09
-5.7741e-10
4.23904e-08
-2.40728e-09
8.43231e-09
4.64933e-08
-1.24842e-08
2.07847e-08
5.02799e-08
-1.64756e-08
3.34912e-08
5.66878e-08
-1.81681e-08
4.59602e-08
6.66694e-08
-2.02047e-08
5.84497e-08
8.02281e-08
-2.35617e-08
7.18346e-08
9.67539e-08
-2.86765e-08
8.95489e-08
1.12736e-07
-3.59011e-08
1.18104e-07
1.2483e-07
-4.49362e-08
1.78306e-07
1.21291e-07
-5.37475e-08
2.71486e-07
1.32473e-07
-5.81796e-08
2.20394e-07
4.49714e-07
-5.61012e-08
1.71586e-07
5.31943e-07
-6.6394e-08
1.34859e-07
5.90984e-07
-8.58804e-08
1.0437e-07
6.37428e-07
-1.0269e-07
7.2201e-08
6.74942e-07
-1.09289e-07
3.82725e-08
7.0091e-07
-1.13927e-07
3.39612e-09
7.14388e-07
-1.16198e-07
-3.14956e-08
7.14951e-07
-1.16318e-07
-6.5476e-08
7.02585e-07
-1.14282e-07
-9.7752e-08
6.77694e-07
-1.09863e-07
-1.28403e-07
6.41137e-07
-1.03475e-07
-1.65319e-07
5.95416e-07
-8.68301e-08
-2.14054e-07
5.36505e-07
-6.75282e-08
-2.64075e-07
4.53683e-07
-5.74986e-08
-1.67945e-07
1.34376e-07
-5.99698e-08
-1.08631e-07
1.31055e-07
-5.55959e-08
-7.91208e-08
1.33808e-07
-4.71352e-08
-5.94206e-08
1.22381e-07
-3.88738e-08
-4.28553e-08
1.07445e-07
-3.26279e-08
-2.62393e-08
9.29778e-08
-2.84881e-08
-9.93674e-09
8.27301e-08
-2.51851e-08
1.96057e-09
7.64355e-08
-1.90991e-08
7.02863e-08
-4.45947e-09
4.54527e-10
4.40044e-08
-2.06849e-09
1.2082e-08
4.84703e-08
-1.36045e-08
2.78278e-08
5.28319e-08
-1.82977e-08
4.43359e-08
6.0534e-08
-2.03543e-08
6.08808e-08
7.29988e-08
-2.28744e-08
7.70834e-08
9.09927e-08
-2.69671e-08
9.21622e-08
1.14736e-07
-3.3061e-08
1.05764e-07
1.41325e-07
-4.2191e-08
1.17985e-07
1.65107e-07
-5.24993e-08
1.66575e-07
1.41585e-07
-6.88837e-08
3.85284e-07
-8.62367e-08
2.98956e-07
5.66772e-07
-3.07302e-08
2.32975e-07
6.30855e-07
-3.29319e-08
1.88294e-07
6.87749e-07
-5.20839e-08
1.48481e-07
7.47437e-07
-7.01956e-08
1.02965e-07
7.93663e-07
-7.32044e-08
5.40859e-08
8.26192e-07
-7.64034e-08
4.00914e-09
8.42549e-07
-7.80845e-08
-4.60926e-08
8.4323e-07
-7.81775e-08
-9.50637e-08
8.28239e-07
-7.66823e-08
-1.40802e-07
7.97074e-07
-7.36425e-08
-1.81026e-07
7.52188e-07
-7.08273e-08
-2.26471e-07
6.93707e-07
-5.28449e-08
-2.93649e-07
6.37548e-07
-3.38659e-08
-3.79778e-07
5.72006e-07
-3.21939e-08
-1.56387e-07
-8.90146e-08
-1.07227e-07
1.52147e-07
-7.02527e-08
-9.50078e-08
1.76137e-07
-5.45489e-08
-7.89981e-08
1.51802e-07
-4.54304e-08
-5.98091e-08
1.25814e-07
-3.75576e-08
-3.82139e-08
1.0407e-07
-3.26873e-08
-1.64294e-08
8.96556e-08
-2.87101e-08
-2.17305e-10
8.15006e-08
-2.12773e-08
7.42065e-08
-4.13754e-09
1.55601e-09
4.41008e-08
-1.65243e-09
1.63116e-08
4.86546e-08
-1.49398e-08
3.61458e-08
5.34029e-08
-2.04052e-08
5.75632e-08
6.20179e-08
-2.29012e-08
8.00808e-08
7.64865e-08
-2.60053e-08
1.02966e-07
9.88782e-08
-3.07709e-08
1.22418e-07
1.32693e-07
-3.74091e-08
1.26467e-07
1.82134e-07
-4.48584e-08
9.98323e-08
2.53324e-07
-6.1582e-08
3.41951e-07
-1.00534e-07
1.8077e-07
3.13046e-07
7.29568e-08
2.44944e-07
5.31922e-07
3.47584e-08
2.41681e-07
6.63552e-07
2.74601e-08
1.98496e-07
7.61385e-07
2.92363e-08
1.38444e-07
8.27379e-07
2.63364e-08
7.26604e-08
8.69194e-07
2.27816e-08
4.81888e-09
8.89256e-07
2.11345e-08
-6.30536e-08
8.89963e-07
2.11396e-08
-1.28951e-07
8.71342e-07
2.27934e-08
-1.89293e-07
8.31053e-07
2.63636e-08
-2.33154e-07
7.66765e-07
2.92854e-08
-2.38006e-07
6.70961e-07
2.75972e-08
-1.76743e-07
5.41671e-07
3.46139e-08
3.23574e-07
7.16891e-08
-9.68757e-08
3.47355e-07
-9.83324e-08
-1.1904e-07
2.61513e-07
-6.32114e-08
-1.09996e-07
1.91239e-07
-4.84811e-08
-8.46035e-08
1.43081e-07
-4.26591e-08
-5.4571e-08
1.11596e-07
-3.75587e-08
-2.49166e-08
9.30307e-08
-3.30295e-08
-2.42903e-09
8.31563e-08
-2.41432e-08
7.53936e-08
-3.61612e-09
3.0443e-09
4.22859e-08
-1.22941e-09
2.14868e-08
4.66011e-08
-1.6389e-08
4.65863e-08
5.1003e-08
-2.26995e-08
7.54632e-08
5.88853e-08
-2.57444e-08
1.09806e-07
7.18511e-08
-2.9707e-08
1.53328e-07
9.11923e-08
-3.58362e-08
2.11935e-07
1.18359e-07
-4.42737e-08
2.93037e-07
1.53403e-07
-5.23701e-08
4.10098e-07
1.93388e-07
-5.71252e-08
5.63285e-07
2.32236e-07
-4.34714e-08
4.39158e-07
8.26203e-08
4.15067e-08
4.57734e-07
2.28684e-07
6.57868e-08
4.43292e-07
4.03196e-07
1.43169e-07
3.79835e-07
5.20711e-07
2.06297e-07
2.90215e-07
6.09228e-07
2.41777e-07
1.93938e-07
6.68568e-07
2.55089e-07
9.90201e-08
7.05858e-07
2.58253e-07
5.65162e-09
7.23802e-07
2.58822e-07
-8.76982e-08
7.24417e-07
2.58896e-07
-1.82556e-07
7.07719e-07
2.58481e-07
-2.78736e-07
6.71732e-07
2.55501e-07
-3.68233e-07
6.13779e-07
2.42482e-07
-4.31591e-07
5.26732e-07
2.07588e-07
-4.45522e-07
4.10417e-07
1.45185e-07
-4.2815e-07
2.36989e-07
6.92134e-08
-5.58035e-07
8.49626e-08
4.49218e-08
-4.04685e-07
2.36741e-07
-4.27351e-08
-2.84565e-07
2.00272e-07
-5.88798e-08
-1.98741e-07
1.61644e-07
-5.62284e-08
-1.3347e-07
1.28143e-07
-5.03332e-08
-8.13713e-08
1.03388e-07
-4.38914e-08
-3.79161e-08
8.78061e-08
-3.82306e-08
-6.43785e-09
7.92457e-08
-2.75676e-08
7.20619e-08
-3.10618e-09
4.26184e-09
3.886e-08
-8.35899e-10
2.58577e-08
4.27457e-08
-1.77405e-08
5.5248e-08
4.64868e-08
-2.48741e-08
8.95639e-08
5.30149e-08
-2.84455e-08
1.31207e-07
6.3408e-08
-3.32005e-08
1.84877e-07
7.8138e-08
-4.06153e-08
2.56902e-07
9.71205e-08
-5.07856e-08
3.52565e-07
1.18967e-07
-6.12279e-08
4.7458e-07
1.38712e-07
-6.73389e-08
6.12811e-07
1.52455e-07
-5.84497e-08
6.18644e-07
1.04702e-07
-2.79145e-08
6.25105e-07
1.8943e-07
3.27928e-08
5.73247e-07
2.95495e-07
1.59558e-07
4.73859e-07
3.76716e-07
2.43383e-07
3.55542e-07
4.40146e-07
2.87398e-07
2.35088e-07
4.8285e-07
3.06172e-07
1.18991e-07
5.1012e-07
3.11834e-07
6.29421e-09
5.23314e-07
3.13186e-07
-1.06368e-07
5.23819e-07
3.13259e-07
-2.22353e-07
5.11642e-07
3.12062e-07
-3.42624e-07
4.85402e-07
3.06602e-07
-4.60736e-07
4.43731e-07
2.8816e-07
-5.60126e-07
3.81301e-07
2.44821e-07
-6.12433e-07
3.00821e-07
1.61902e-07
-6.07343e-07
1.95146e-07
3.67533e-08
-6.0528e-07
1.0819e-07
-2.52896e-08
-4.67985e-07
1.57381e-07
-5.79362e-08
-3.43483e-07
1.4496e-07
-6.91899e-08
-2.4288e-07
1.26479e-07
-6.54374e-08
-1.63356e-07
1.06183e-07
-5.75638e-08
-9.97352e-08
8.95278e-08
-4.97606e-08
-4.72067e-08
7.82525e-08
-4.29748e-08
-9.10762e-09
7.17529e-08
-3.06063e-08
6.55545e-08
-2.6002e-09
5.29781e-09
3.4047e-08
-4.84816e-10
2.95863e-08
3.7365e-08
-1.89079e-08
6.255e-08
4.02869e-08
-2.67637e-08
1.01109e-07
4.52336e-08
-3.07772e-08
1.47847e-07
5.28761e-08
-3.62068e-08
2.07556e-07
6.32505e-08
-4.48213e-08
2.85837e-07
7.57901e-08
-5.69505e-08
3.86236e-07
8.93927e-08
-7.0825e-08
5.06247e-07
1.005e-07
-8.17985e-08
6.30158e-07
1.09619e-07
-8.10754e-08
6.90222e-07
1.01894e-07
-5.72563e-08
7.15843e-07
1.5016e-07
1.36503e-08
6.53757e-07
2.12354e-07
1.45226e-07
5.37592e-07
2.64096e-07
2.28785e-07
4.00175e-07
3.05746e-07
2.71817e-07
2.63203e-07
3.34155e-07
2.85667e-07
1.32745e-07
3.52712e-07
2.87866e-07
6.80938e-09
3.61804e-07
2.87446e-07
-1.19085e-07
3.62228e-07
2.87485e-07
-2.49414e-07
3.53979e-07
2.87991e-07
-3.86188e-07
3.3625e-07
2.85925e-07
-5.23427e-07
3.08629e-07
2.72341e-07
-6.39768e-07
2.67706e-07
2.29936e-07
-7.02724e-07
2.16495e-07
1.47283e-07
-6.79605e-07
1.54705e-07
1.73224e-08
-6.22224e-07
1.05745e-07
-5.49375e-08
-4.98709e-07
1.14331e-07
-8.04639e-08
-3.76251e-07
1.06137e-07
-8.36362e-08
-2.70659e-07
9.61271e-08
-7.52397e-08
-1.84184e-07
8.39494e-08
-6.42416e-08
-1.13371e-07
7.34918e-08
-5.47772e-08
-5.4293e-08
6.60787e-08
-4.69041e-08
-1.10956e-08
6.16179e-08
-3.30624e-08
5.65447e-08
-2.08582e-09
5.99421e-09
2.82843e-08
-2.31533e-10
3.22735e-08
3.09478e-08
-1.98621e-08
6.77758e-08
3.30935e-08
-2.83089e-08
1.09051e-07
3.66243e-08
-3.26658e-08
1.58571e-07
4.19592e-08
-3.86031e-08
2.20953e-07
4.89864e-08
-4.8118e-08
3.01288e-07
5.71578e-08
-6.17032e-08
4.02701e-07
6.5874e-08
-7.78938e-08
5.2163e-07
7.32941e-08
-9.17231e-08
6.43948e-07
8.14709e-08
-9.41704e-08
7.3019e-07
8.64538e-08
-7.08008e-08
7.67738e-07
1.15991e-07
-3.37947e-09
7.00698e-07
1.53633e-07
1.2576e-07
5.75723e-07
1.8622e-07
2.02851e-07
4.27944e-07
2.13043e-07
2.40483e-07
2.81302e-07
2.31856e-07
2.4894e-07
1.41803e-07
2.44377e-07
2.47834e-07
7.22757e-09
2.50625e-07
2.45755e-07
-1.27313e-07
2.51007e-07
2.45762e-07
-2.66706e-07
2.45512e-07
2.4786e-07
-4.13192e-07
2.33707e-07
2.49029e-07
-5.60871e-07
2.15545e-07
2.40763e-07
-6.86154e-07
1.8929e-07
2.03699e-07
-7.5426e-07
1.57108e-07
1.27492e-07
-7.19728e-07
1.19727e-07
4.45526e-10
-6.35519e-07
9.01851e-08
-6.86484e-08
-5.13331e-07
8.57919e-08
-9.36487e-08
-3.9182e-07
7.82838e-08
-9.36578e-08
-2.84917e-07
7.17455e-08
-8.2522e-08
-1.95793e-07
6.42188e-08
-6.93929e-08
-1.21393e-07
5.7758e-08
-5.86664e-08
-5.84562e-08
5.30853e-08
-4.99432e-08
-1.20553e-08
5.01645e-08
-3.49474e-08
4.62061e-08
-1.7167e-09
6.44909e-09
2.18356e-08
-3.78075e-13
3.41849e-08
2.38266e-08
-2.06146e-08
7.14973e-08
2.52878e-08
-2.95066e-08
1.14597e-07
2.76357e-08
-3.41109e-08
1.65811e-07
3.11502e-08
-4.04048e-08
2.29608e-07
3.57353e-08
-5.0546e-08
3.10846e-07
4.10516e-08
-6.51317e-08
4.12662e-07
4.68909e-08
-8.28333e-08
5.31906e-07
5.25005e-08
-9.84503e-08
6.56502e-07
5.96243e-08
-1.0275e-07
7.55345e-07
6.71829e-08
-7.95717e-08
7.99272e-07
8.59898e-08
-1.39262e-08
7.30408e-07
1.09265e-07
1.13233e-07
6.00531e-07
1.29979e-07
1.86117e-07
4.46322e-07
1.47278e-07
2.19975e-07
2.9346e-07
1.59743e-07
2.24974e-07
1.47984e-07
1.68165e-07
2.21688e-07
7.60536e-09
1.7247e-07
2.18534e-07
-1.32751e-07
1.7284e-07
2.18524e-07
-2.78158e-07
1.69258e-07
2.21661e-07
-4.30928e-07
1.61507e-07
2.24971e-07
-5.85129e-07
1.49627e-07
2.20119e-07
-7.15444e-07
1.32807e-07
1.86797e-07
-7.85574e-07
1.12428e-07
1.14811e-07
-7.44678e-07
8.93902e-08
-1.05589e-08
-6.47648e-07
7.06599e-08
-7.75049e-08
-5.23008e-07
6.34642e-08
-1.02312e-07
-4.01004e-07
5.67808e-08
-1.00501e-07
-2.93409e-07
5.18005e-08
-8.76504e-08
-2.02903e-07
4.68401e-08
-7.3127e-08
-1.26403e-07
4.27818e-08
-6.15239e-08
-6.10152e-08
3.98914e-08
-5.21936e-08
-1.25415e-08
3.80457e-08
-3.63549e-08
3.51395e-08
-1.47489e-09
6.7063e-09
1.49904e-08
1.38929e-10
3.54084e-08
1.63013e-08
-2.11768e-08
7.3909e-08
1.71673e-08
-3.03802e-08
1.18161e-07
1.85323e-08
-3.51484e-08
1.7039e-07
2.05893e-08
-4.16679e-08
2.35005e-07
2.33135e-08
-5.21937e-08
3.16848e-07
2.65832e-08
-6.73745e-08
4.19256e-07
3.04048e-08
-8.5922e-08
5.39654e-07
3.45982e-08
-1.02495e-07
6.66782e-07
4.01708e-08
-1.07675e-07
7.71863e-07
4.68618e-08
-8.476e-08
8.19317e-07
5.84489e-08
-1.9913e-08
7.49383e-07
7.21667e-08
1.07033e-07
6.16541e-07
8.45941e-08
1.78227e-07
4.58412e-07
9.50382e-08
2.10369e-07
3.01612e-07
1.02786e-07
2.13757e-07
1.52222e-07
1.08099e-07
2.09457e-07
7.96795e-09
1.1092e-07
2.05804e-07
-1.36281e-07
1.113e-07
2.05789e-07
-2.85654e-07
1.0922e-07
2.09412e-07
-4.42447e-07
1.04578e-07
2.13721e-07
-6.00677e-07
9.73942e-08
2.10463e-07
-7.34083e-07
8.73712e-08
1.78841e-07
-8.05399e-07
7.52075e-08
1.08537e-07
-7.61015e-07
6.162e-08
-1.66134e-08
-6.57624e-07
5.0051e-08
-8.27821e-08
-5.30328e-07
4.35096e-08
-1.07341e-07
-4.07016e-07
3.81476e-08
-1.04679e-07
-2.98599e-07
3.43013e-08
-9.09182e-08
-2.07137e-07
3.09979e-08
-7.56196e-08
-1.29345e-07
2.84864e-08
-6.34968e-08
-6.24478e-08
2.67798e-08
-5.37852e-08
-1.27136e-08
2.56919e-08
-3.73804e-08
2.37945e-08
-1.36862e-09
6.83476e-09
7.96424e-09
1.91368e-10
3.61028e-08
8.59173e-09
-2.15585e-08
7.53108e-08
8.91002e-09
-3.09507e-08
1.20261e-07
9.39557e-09
-3.58131e-08
1.73135e-07
1.01727e-08
-4.24576e-08
2.3834e-07
1.12999e-08
-5.31917e-08
3.20759e-07
1.28522e-08
-6.86882e-08
4.23873e-07
1.49569e-08
-8.76656e-08
5.45419e-07
1.77629e-08
-1.04711e-07
6.74353e-07
2.15238e-08
-1.10286e-07
7.82435e-07
2.62501e-08
-8.74705e-08
8.31562e-07
3.20216e-08
-2.27e-08
7.61001e-07
3.80334e-08
1.04694e-07
6.26419e-07
4.35701e-08
1.75606e-07
4.65987e-07
4.81986e-08
2.07271e-07
3.06804e-07
5.18342e-08
2.10135e-07
1.55006e-07
5.44105e-08
2.05487e-07
8.33987e-09
5.59246e-08
2.01661e-07
-1.38343e-07
5.63391e-08
2.01645e-07
-2.90191e-07
5.56285e-08
2.05439e-07
-4.49474e-07
5.37668e-08
2.10094e-07
-6.10145e-07
5.07096e-08
2.07355e-07
-7.45439e-07
4.64658e-08
1.762e-07
-8.17512e-07
4.11152e-08
1.06165e-07
-7.71512e-07
3.50848e-08
-1.94652e-08
-6.65064e-07
2.91845e-08
-8.55816e-08
-5.35881e-07
2.43919e-08
-1.10065e-07
-4.11309e-07
2.06045e-08
-1.0703e-07
-3.02027e-07
1.7845e-08
-9.28253e-08
-2.09764e-07
1.58717e-08
-7.71369e-08
-1.31093e-07
1.45555e-08
-6.47403e-08
-6.32587e-08
1.37643e-08
-5.48184e-08
-1.27775e-08
1.3288e-08
-3.80774e-08
1.23779e-08
-1.3609e-09
6.85637e-09
9.51526e-10
1.56345e-10
3.63244e-08
8.91558e-10
-2.17679e-08
7.58071e-08
6.60818e-10
-3.12335e-08
1.21066e-07
2.64483e-10
-3.61281e-08
1.74296e-07
-2.45424e-10
-4.28116e-08
2.39936e-07
-7.3198e-10
-5.36081e-08
3.22912e-07
-9.28683e-10
-6.91953e-08
4.26742e-07
-5.84319e-10
-8.82882e-08
5.49173e-07
7.90365e-10
-1.05459e-07
6.7903e-07
2.80541e-09
-1.11139e-07
7.87894e-07
5.7488e-09
-8.83623e-08
8.37257e-07
6.16628e-09
-2.35082e-08
7.66305e-07
4.66742e-09
1.04318e-07
6.30938e-07
3.41121e-09
1.75526e-07
4.69557e-07
2.25075e-09
2.07329e-07
3.09349e-07
1.79796e-09
2.10244e-07
1.56497e-07
1.65673e-09
2.05606e-07
8.7428e-09
1.90184e-09
2.01777e-07
-1.39057e-07
2.3799e-09
2.01759e-07
-2.92044e-07
3.06439e-09
2.05551e-07
-4.52489e-07
4.01905e-09
2.10192e-07
-6.14289e-07
5.10963e-09
2.074e-07
-7.50562e-07
6.64385e-09
1.76095e-07
-8.232e-07
8.00823e-09
1.05745e-07
-7.77047e-07
9.29191e-09
-2.03598e-08
-6.69803e-07
8.52426e-09
-8.65841e-08
-5.39652e-07
5.29006e-09
-1.11049e-07
-4.1414e-07
3.0157e-09
-1.07924e-07
-3.04062e-07
1.37183e-09
-9.36046e-08
-2.11142e-07
7.65015e-10
-7.78126e-08
-1.31918e-07
6.69403e-10
-6.53383e-08
-6.36091e-08
8.05191e-10
-5.53499e-08
-1.27902e-08
9.45966e-10
-3.84769e-08
1.02932e-09
-1.44162e-09
6.77016e-09
-5.85159e-09
3.2961e-11
3.60721e-08
-6.60195e-09
-2.18084e-08
7.53954e-08
-7.42976e-09
-3.12327e-08
1.2057e-07
-8.81097e-09
-3.60994e-08
1.73857e-07
-1.07921e-08
-4.27398e-08
2.39766e-07
-1.31837e-08
-5.34582e-08
3.23279e-07
-1.55198e-08
-6.89209e-08
4.27857e-07
-1.73323e-08
-8.78302e-08
5.50935e-07
-1.74959e-08
-1.04792e-07
6.80959e-07
-1.692e-08
-1.10298e-07
7.88512e-07
-1.42683e-08
-8.75363e-08
8.36603e-07
-1.93879e-08
-2.25368e-08
7.65414e-07
-2.97573e-08
1.05614e-07
6.30179e-07
-3.89355e-08
1.77582e-07
4.69178e-07
-4.67961e-08
2.10048e-07
3.09294e-07
-5.18355e-08
2.13518e-07
1.56713e-07
-5.49658e-08
2.09203e-07
9.19103e-09
-5.61118e-08
2.05536e-07
-1.38411e-07
-5.55394e-08
2.05521e-07
-2.91226e-07
-5.32795e-08
2.09159e-07
-4.51507e-07
-4.91703e-08
2.1347e-07
-6.13153e-07
-4.33466e-08
2.10102e-07
-7.49547e-07
-3.50592e-08
1.78097e-07
-8.22671e-07
-2.58105e-08
1.06943e-07
-7.77933e-07
-1.59026e-08
-1.95427e-08
-6.72013e-07
-1.14746e-08
-8.59217e-08
-5.41677e-07
-1.4662e-08
-1.10383e-07
-4.15482e-07
-1.57517e-08
-1.07428e-07
-3.04675e-07
-1.61289e-08
-9.33064e-08
-2.1126e-07
-1.49671e-08
-7.76826e-08
-1.31815e-07
-1.34611e-08
-6.53148e-08
-6.34938e-08
-1.21209e-08
-5.53952e-08
-1.27483e-08
-1.12102e-08
-3.85892e-08
-1.01042e-08
-1.61479e-09
6.5511e-09
-1.22207e-08
-1.82029e-10
3.52902e-08
-1.36611e-08
-2.16799e-08
7.39698e-08
-1.51672e-08
-3.09422e-08
1.18591e-07
-1.7717e-08
-3.57156e-08
1.71533e-07
-2.15143e-08
-4.22198e-08
2.37435e-07
-2.63881e-08
-5.26976e-08
3.21402e-07
-3.17088e-08
-6.77773e-08
4.26846e-07
-3.66587e-08
-8.61183e-08
5.50751e-07
-3.897e-08
-1.0243e-07
6.80617e-07
-3.94449e-08
-1.07341e-07
7.8405e-07
-3.3205e-08
-8.44963e-08
8.28632e-07
-4.50274e-08
-1.89429e-08
7.57362e-07
-6.8385e-08
1.09898e-07
6.23378e-07
-8.87087e-08
1.83757e-07
4.64367e-07
-1.0574e-07
2.17955e-07
3.06367e-07
-1.16804e-07
2.22968e-07
1.55581e-07
-1.23753e-07
2.19574e-07
9.741e-09
-1.26606e-07
2.16334e-07
-1.36218e-07
-1.25876e-07
2.16295e-07
-2.87364e-07
-1.21588e-07
2.19454e-07
-4.45971e-07
-1.13356e-07
2.22794e-07
-6.05935e-07
-1.01216e-07
2.17832e-07
-7.41434e-07
-8.36039e-08
1.84044e-07
-8.15021e-07
-6.31904e-08
1.10967e-07
-7.73985e-07
-4.06952e-08
-1.62428e-08
-6.72167e-07
-3.01478e-08
-8.31447e-08
-5.41973e-07
-3.71573e-08
-1.077e-07
-4.14993e-07
-3.74188e-08
-1.05312e-07
-3.03408e-07
-3.592e-08
-9.17938e-08
-2.09701e-07
-3.20014e-08
-7.66736e-08
-1.30489e-07
-2.80451e-08
-6.46274e-08
-6.27459e-08
-2.49356e-08
-5.49285e-08
-1.25894e-08
-2.29626e-08
-3.84041e-08
-2.07929e-08
-1.90078e-09
6.12308e-09
-1.78996e-08
-4.44129e-10
3.3826e-08
-1.99815e-08
-2.13825e-08
7.12408e-08
-2.2231e-08
-3.0351e-08
1.14617e-07
-2.61381e-08
-3.49549e-08
1.66482e-07
-3.21749e-08
-4.12046e-08
2.31684e-07
-4.0369e-08
-5.12209e-08
3.15683e-07
-5.01631e-08
-6.55448e-08
4.22137e-07
-6.04061e-08
-8.27065e-08
5.47948e-07
-6.7168e-08
-9.7613e-08
6.78747e-07
-6.92036e-08
-1.01041e-07
7.72984e-07
-4.91661e-08
-7.82753e-08
8.10183e-07
-7.05576e-08
-1.16692e-08
7.38914e-07
-1.15934e-07
1.18818e-07
6.07944e-07
-1.54193e-07
1.96454e-07
4.53439e-07
-1.85259e-07
2.34025e-07
2.99629e-07
-2.05155e-07
2.42161e-07
1.5269e-07
-2.17487e-07
2.40674e-07
1.04366e-08
-2.22685e-07
2.38332e-07
-1.31978e-07
-2.217e-07
2.38238e-07
-2.79415e-07
-2.14538e-07
2.40387e-07
-4.34076e-07
-2.00396e-07
2.41701e-07
-5.89931e-07
-1.78866e-07
2.33505e-07
-7.22914e-07
-1.46873e-07
1.96252e-07
-7.97121e-07
-1.08353e-07
1.1937e-07
-7.63784e-07
-6.45548e-08
-9.47762e-09
-6.70999e-07
-4.55906e-08
-7.73421e-08
-5.39834e-07
-6.64772e-08
-1.01846e-07
-4.11033e-07
-6.53447e-08
-1.00875e-07
-2.98621e-07
-5.9675e-08
-8.86573e-08
-2.05181e-07
-5.08588e-08
-7.45828e-08
-1.27086e-07
-4.2973e-08
-6.31671e-08
-6.08789e-08
-3.72593e-08
-5.3883e-08
-1.21132e-08
-3.38384e-08
-3.789e-08
-3.05618e-08
-2.34425e-09
5.48442e-09
-2.25867e-08
-7.97372e-10
3.16322e-08
-2.52276e-08
-2.09017e-08
6.70774e-08
-2.82292e-08
-2.9447e-08
1.08322e-07
-3.35838e-08
-3.37989e-08
1.5798e-07
-4.21687e-08
-3.9664e-08
2.21077e-07
-5.44855e-08
-4.89805e-08
3.03638e-07
-7.05703e-08
-6.21537e-08
4.10058e-07
-8.93823e-08
-7.74444e-08
5.38985e-07
-1.06045e-07
-9.00494e-08
6.75942e-07
-1.15078e-07
-9.10833e-08
7.50866e-07
-5.66642e-08
-6.74256e-08
7.7276e-07
-9.39146e-08
1.46279e-09
7.03941e-07
-1.79843e-07
1.32727e-07
5.79947e-07
-2.45456e-07
2.15257e-07
4.33878e-07
-2.96384e-07
2.57194e-07
2.8761e-07
-3.2881e-07
2.69924e-07
1.47409e-07
-3.48443e-07
2.71156e-07
1.13765e-08
-3.56775e-07
2.70124e-07
-1.2485e-07
-3.55403e-07
2.6993e-07
-2.65673e-07
-3.44282e-07
2.70566e-07
-4.13048e-07
-3.21971e-07
2.6895e-07
-5.6098e-07
-2.86912e-07
2.55978e-07
-6.87703e-07
-2.34377e-07
2.14227e-07
-7.6057e-07
-1.67949e-07
1.32464e-07
-7.43108e-07
-8.48717e-08
2.85407e-09
-6.6903e-07
-5.25937e-08
-6.70746e-08
-5.31679e-07
-1.11198e-07
-9.26299e-08
-3.99936e-07
-1.0319e-07
-9.38978e-08
-2.87825e-07
-8.80074e-08
-8.37783e-08
-1.96238e-07
-7.11112e-08
-7.13343e-08
-1.20835e-07
-5.75244e-08
-6.08518e-08
-5.75332e-08
-4.83865e-08
-5.21747e-08
-1.12107e-08
-4.31813e-08
-3.69796e-08
-3.88379e-08
-2.93455e-09
4.53051e-09
-2.58693e-08
-1.24792e-09
2.8463e-08
-2.89199e-08
-2.02402e-08
6.0951e-08
-3.24693e-08
-2.82479e-08
9.85724e-08
-3.89418e-08
-3.22635e-08
1.43694e-07
-4.96949e-08
-3.75959e-08
2.01169e-07
-6.60237e-08
-4.59364e-08
2.77607e-07
-8.95199e-08
-5.74879e-08
3.79171e-07
-1.21131e-07
-6.9816e-08
5.10601e-07
-1.59218e-07
-7.82561e-08
6.7061e-07
-2.03453e-07
-7.16342e-08
7.06784e-07
-4.99681e-08
-4.28707e-08
6.96453e-07
-9.95276e-08
1.59446e-08
6.36177e-07