/*--------------------------------*- C++ -*----------------------------------*\
| =========                 |                                                 |
| \\      /  F ield         | OpenFOAM: The Open Source CFD Toolbox           |
|  \\    /   O peration     | Version:  2112                                  |
|   \\  /    A nd           | Website:  www.openfoam.com                      |
|    \\/     M anipulation  |                                                 |
\*---------------------------------------------------------------------------*/
FoamFile
{
    version     2.0;
    format      ascii;
    arch        "LSB;label=32;scalar=64";
    class       volVectorField;
    location    "2.2";
    object      U;
}
// * * * * * * * * * * * * * * * * * * * * * * * * * * * * * * * * * * * * * //

dimensions      [0 1 -1 0 0 0 0];

internalField   nonuniform List<vector> 
64906
(
(3.12754e-07 1.07338e-06 -1.82609e-06)
(2.64942e-06 -1.9488e-07 -1.87301e-06)
(6.27215e-06 -1.37112e-06 -1.39413e-06)
(1.00611e-05 -2.29946e-06 -8.82831e-07)
(1.38915e-05 -2.83932e-06 -5.11644e-07)
(1.76503e-05 -3.14974e-06 -2.84639e-07)
(2.12688e-05 -3.32943e-06 -1.36395e-07)
(2.46546e-05 -3.37823e-06 4.0922e-09)
(2.77229e-05 -3.3149e-06 1.5919e-07)
(3.01351e-05 -3.06926e-06 3.50366e-07)
(3.16047e-05 -2.72843e-06 5.50171e-07)
(3.16039e-05 -2.12396e-06 7.8721e-07)
(2.9973e-05 -1.69004e-06 1.02824e-06)
(2.69755e-05 -1.29734e-06 1.29428e-06)
(2.2775e-05 -1.06579e-06 1.52802e-06)
(1.77141e-05 -8.97364e-07 1.72373e-06)
(1.20158e-05 -8.11534e-07 1.85707e-06)
(5.9674e-06 -7.7612e-07 1.92555e-06)
(-1.92416e-07 -7.92427e-07 1.92407e-06)
(-6.19789e-06 -8.60392e-07 1.85319e-06)
(-1.18106e-05 -9.7875e-07 1.71807e-06)
(-1.67449e-05 -1.17965e-06 1.52137e-06)
(-2.0783e-05 -1.44215e-06 1.28795e-06)
(-2.35855e-05 -1.8648e-06 1.02288e-06)
(-2.50003e-05 -2.32252e-06 7.83184e-07)
(-2.47696e-05 -2.94586e-06 5.43837e-07)
(-2.30672e-05 -3.28223e-06 3.33633e-07)
(-2.04285e-05 -3.49089e-06 1.10909e-07)
(-1.71228e-05 -3.43213e-06 -1.19883e-07)
(-1.34966e-05 -3.11335e-06 -4.36569e-07)
(-9.67072e-06 -2.39806e-06 -9.28582e-07)
(-5.87811e-06 -1.19289e-06 -1.66143e-06)
(-2.36014e-06 3.3263e-07 -2.39645e-06)
(-6.54046e-08 1.8136e-06 -2.4623e-06)
(-1.57736e-06 5.85578e-06 -2.50612e-06)
(1.02851e-07 4.86068e-06 -6.38022e-06)
(4.90005e-06 3.61969e-06 -7.44872e-06)
(9.53203e-06 2.71015e-06 -7.60857e-06)
(1.39777e-05 2.45006e-06 -7.82194e-06)
(1.81035e-05 2.73569e-06 -8.28543e-06)
(2.20287e-05 3.48303e-06 -9.02767e-06)
(2.57201e-05 4.73656e-06 -1.00502e-05)
(2.91262e-05 6.54726e-06 -1.13453e-05)
(3.1833e-05 9.1591e-06 -1.28998e-05)
(3.36039e-05 1.23799e-05 -1.4678e-05)
(3.36594e-05 1.64629e-05 -1.65956e-05)
(3.18241e-05 2.00369e-05 -1.84161e-05)
(2.85708e-05 2.32272e-05 -2.00176e-05)
(2.40385e-05 2.56489e-05 -2.13376e-05)
(1.8663e-05 2.74927e-05 -2.23558e-05)
(1.26255e-05 2.86885e-05 -2.30535e-05)
(6.24413e-06 2.92929e-05 -2.3424e-05)
(-2.55056e-07 2.92964e-05 -2.34603e-05)
(-6.58852e-06 2.86993e-05 -2.31624e-05)
(-1.25315e-05 2.75125e-05 -2.25373e-05)
(-1.77668e-05 2.56804e-05 -2.15924e-05)
(-2.21194e-05 2.32788e-05 -2.03474e-05)
(-2.51551e-05 2.01188e-05 -1.88247e-05)
(-2.67491e-05 1.66016e-05 -1.70913e-05)
(-2.64261e-05 1.26013e-05 -1.52764e-05)
(-2.43696e-05 9.5314e-06 -1.36295e-05)
(-2.13437e-05 7.14083e-06 -1.22549e-05)
(-1.75336e-05 5.70876e-06 -1.12203e-05)
(-1.3303e-05 5.09043e-06 -1.05624e-05)
(-8.63321e-06 5.37683e-06 -1.02516e-05)
(-3.73626e-06 6.55523e-06 -1.00011e-05)
(1.27863e-06 8.13316e-06 -8.6173e-06)
(2.53688e-06 9.13514e-06 -3.51912e-06)
(-2.76429e-06 1.42859e-05 -2.32618e-06)
(-1.5342e-06 1.51336e-05 -7.67439e-06)
(4.04822e-06 1.50567e-05 -9.35434e-06)
(9.40458e-06 1.53269e-05 -9.83905e-06)
(1.453e-05 1.64197e-05 -1.02989e-05)
(1.92672e-05 1.84162e-05 -1.10402e-05)
(2.38147e-05 2.13598e-05 -1.21484e-05)
(2.82137e-05 2.54347e-05 -1.36515e-05)
(3.25598e-05 3.08615e-05 -1.55643e-05)
(3.62564e-05 3.82562e-05 -1.7903e-05)
(3.90291e-05 4.72726e-05 -2.06102e-05)
(3.93173e-05 5.83777e-05 -2.35526e-05)
(3.68726e-05 6.82353e-05 -2.63585e-05)
(3.28052e-05 7.70077e-05 -2.88291e-05)
(2.73003e-05 8.38236e-05 -3.08631e-05)
(2.10104e-05 8.90611e-05 -3.24262e-05)
(1.40333e-05 9.25307e-05 -3.34918e-05)
(6.73556e-06 9.43169e-05 -3.40543e-05)
(-6.8876e-07 9.43824e-05 -3.41031e-05)
(-7.93567e-06 9.27278e-05 -3.36379e-05)
(-1.48121e-05 8.93936e-05 -3.26696e-05)
(-2.09499e-05 8.42976e-05 -3.12045e-05)
(-2.62571e-05 7.76419e-05 -2.92704e-05)
(-3.00762e-05 6.90535e-05 -2.69049e-05)
(-3.22397e-05 5.94387e-05 -2.42146e-05)
(-3.16225e-05 4.86297e-05 -2.1409e-05)
(-2.84879e-05 4.00406e-05 -1.88743e-05)
(-2.43666e-05 3.31589e-05 -1.67643e-05)
(-1.94226e-05 2.84289e-05 -1.51616e-05)
(-1.41679e-05 2.53205e-05 -1.4061e-05)
(-8.42068e-06 2.36996e-05 -1.33566e-05)
(-2.46338e-06 2.32998e-05 -1.26397e-05)
(3.59878e-06 2.33464e-05 -1.0441e-05)
(4.17413e-06 2.19364e-05 -3.38789e-06)
(-3.46107e-06 2.30224e-05 -1.9003e-06)
(-2.30417e-06 2.50502e-05 -7.79221e-06)
(4.12334e-06 2.58704e-05 -9.65657e-06)
(1.04072e-05 2.72389e-05 -1.01922e-05)
(1.65281e-05 2.97336e-05 -1.07015e-05)
(2.22936e-05 3.34977e-05 -1.15413e-05)
(2.80349e-05 3.86864e-05 -1.28307e-05)
(3.39052e-05 4.57096e-05 -1.46295e-05)
(4.02599e-05 5.50723e-05 -1.69693e-05)
(4.61444e-05 6.80621e-05 -1.98992e-05)
(5.1233e-05 8.42776e-05 -2.33289e-05)
(5.20221e-05 0.000104949 -2.71398e-05)
(4.8086e-05 0.000122731 -3.07523e-05)
(4.21521e-05 0.000138265 -3.3912e-05)
(3.45063e-05 0.000150124 -3.64934e-05)
(2.62167e-05 0.000159237 -3.84494e-05)
(1.71742e-05 0.000165271 -3.97682e-05)
(7.84284e-06 0.00016839 -4.04591e-05)
(-1.63867e-06 0.000168519 -4.05114e-05)
(-1.09165e-05 0.000165659 -3.99247e-05)
(-1.98525e-05 0.000159888 -3.87091e-05)
(-2.79754e-05 0.000151041 -3.68562e-05)
(-3.53988e-05 0.000139472 -3.43775e-05)
(-4.10361e-05 0.000124257 -3.13246e-05)
(-4.46273e-05 0.000106885 -2.78282e-05)
(-4.34038e-05 8.66974e-05 -2.41567e-05)
(-3.78378e-05 7.11865e-05 -2.09076e-05)
(-3.13992e-05 5.89733e-05 -1.82229e-05)
(-2.42276e-05 5.0594e-05 -1.62181e-05)
(-1.71887e-05 4.48277e-05 -1.48546e-05)
(-9.84808e-06 4.12543e-05 -1.39936e-05)
(-2.53885e-06 3.93696e-05 -1.31599e-05)
(4.67168e-06 3.82612e-05 -1.07124e-05)
(5.13191e-06 3.52927e-05 -2.90994e-06)
(-3.78412e-06 3.17251e-05 -1.49362e-06)
(-2.29243e-06 3.46893e-05 -7.84538e-06)
(5.32708e-06 3.63428e-05 -9.8584e-06)
(1.28609e-05 3.88511e-05 -1.04102e-05)
(2.0342e-05 4.28554e-05 -1.09704e-05)
(2.75877e-05 4.85234e-05 -1.19541e-05)
(3.51536e-05 5.60913e-05 -1.35192e-05)
(4.34121e-05 6.62153e-05 -1.57754e-05)
(5.32734e-05 7.98615e-05 -1.87643e-05)
(6.32435e-05 9.95891e-05 -2.25897e-05)
(7.31371e-05 0.00012544 -2.70795e-05)
(7.48884e-05 0.00016089 -3.22953e-05)
(6.76778e-05 0.000189691 -3.71666e-05)
(5.81773e-05 0.000214125 -4.14424e-05)
(4.67413e-05 0.000232232 -4.49288e-05)
(3.50693e-05 0.00024618 -4.74933e-05)
(2.25236e-05 0.000255389 -4.91971e-05)
(9.74296e-06 0.000260163 -5.00806e-05)
(-3.23766e-06 0.000260364 -5.01373e-05)
(-1.59642e-05 0.000255989 -4.93664e-05)
(-2.84014e-05 0.000247178 -4.77728e-05)
(-3.98945e-05 0.00023362 -4.53163e-05)
(-5.10836e-05 0.000215922 -4.1934e-05)
(-6.02243e-05 0.000191915 -3.7763e-05)
(-6.70052e-05 0.000163666 -3.30034e-05)
(-6.46542e-05 0.000128848 -2.79233e-05)
(-5.41317e-05 0.000104021 -2.36203e-05)
(-4.34922e-05 8.53089e-05 -2.0056e-05)
(-3.25949e-05 7.28923e-05 -1.74329e-05)
(-2.2859e-05 6.42785e-05 -1.56638e-05)
(-1.32904e-05 5.86369e-05 -1.45908e-05)
(-4.14028e-06 5.52557e-05 -1.3649e-05)
(4.71821e-06 5.30712e-05 -1.09674e-05)
(5.61452e-06 4.88516e-05 -2.45482e-06)
(-3.92416e-06 3.99209e-05 -1.14934e-06)
(-1.71334e-06 4.36227e-05 -8.06869e-06)
(7.58521e-06 4.60287e-05 -1.02928e-05)
(1.67922e-05 4.96794e-05 -1.08928e-05)
(2.60517e-05 5.52743e-05 -1.15608e-05)
(3.52277e-05 6.29464e-05 -1.27953e-05)
(4.52082e-05 7.29358e-05 -1.4806e-05)
(5.67756e-05 8.60706e-05 -1.77734e-05)
(7.19872e-05 0.000103956 -2.17017e-05)
(8.88907e-05 0.000131401 -2.67499e-05)
(0.000108512 0.000169986 -3.23394e-05)
(0.000112223 0.000230118 -3.95267e-05)
(9.82063e-05 0.000274471 -4.62141e-05)
(8.25534e-05 0.000310388 -5.23009e-05)
(6.51612e-05 0.000335982 -5.73172e-05)
(4.84695e-05 0.000355844 -6.07892e-05)
(3.06331e-05 0.000368915 -6.30504e-05)
(1.26319e-05 0.000375721 -6.4209e-05)
(-5.66924e-06 0.000376005 -6.42741e-05)
(-2.36214e-05 0.00036976 -6.32443e-05)
(-4.13603e-05 0.000357235 -6.11075e-05)
(-5.78766e-05 0.000337889 -5.77552e-05)
(-7.50169e-05 0.000312803 -5.28487e-05)
(-9.02472e-05 0.000277373 -4.68674e-05)
(-0.000103744 0.000233666 -4.02886e-05)
(-9.91648e-05 0.00017423 -3.3225e-05)
(-7.87118e-05 0.000137127 -2.78311e-05)
(-6.10821e-05 0.000110911 -2.30638e-05)
(-4.4611e-05 9.44564e-05 -1.95423e-05)
(-3.12205e-05 8.305e-05 -1.71314e-05)
(-1.87291e-05 7.5325e-05 -1.57025e-05)
(-7.15399e-06 7.04612e-05 -1.45695e-05)
(4.03972e-06 6.72955e-05 -1.15043e-05)
(5.90227e-06 6.205e-05 -2.08304e-06)
(-3.97383e-06 4.74043e-05 -8.2042e-07)
(-6.88624e-07 5.17609e-05 -8.48001e-06)
(1.08705e-05 5.49467e-05 -1.10132e-05)
(2.22604e-05 5.98715e-05 -1.17145e-05)
(3.37695e-05 6.73103e-05 -1.25621e-05)
(4.53e-05 7.72865e-05 -1.41672e-05)
(5.81217e-05 8.98677e-05 -1.68018e-05)
(7.36491e-05 0.000105615 -2.07371e-05)
(9.6114e-05 0.000126647 -2.58573e-05)
(0.000123547 0.00016032 -3.22137e-05)
(0.00016269 0.000213914 -3.82748e-05)
(0.000170667 0.000317082 -4.77919e-05)
(0.000142224 0.000382844 -5.64652e-05)
(0.000116579 0.000433487 -6.52153e-05)
(9.06548e-05 0.000468429 -7.26485e-05)
(6.7207e-05 0.000496065 -7.71794e-05)
(4.19966e-05 0.000514282 -8.0102e-05)
(1.66965e-05 0.000523806 -8.15801e-05)
(-9.0909e-06 0.000524195 -8.16581e-05)
(-3.43579e-05 0.000515437 -8.03343e-05)
(-5.95061e-05 0.000497952 -7.75586e-05)
(-8.28187e-05 0.000470975 -7.31675e-05)
(-0.000108539 0.000436627 -6.58545e-05)
(-0.000133726 0.00038646 -5.72167e-05)
(-0.000161602 0.000321329 -4.86561e-05)
(-0.000152279 0.000218715 -3.92401e-05)
(-0.000112007 0.000167433 -3.33951e-05)
(-8.39671e-05 0.000135124 -2.73336e-05)
(-6.00114e-05 0.000115643 -2.26689e-05)
(-4.22371e-05 0.000101779 -1.93723e-05)
(-2.6224e-05 9.17952e-05 -1.74243e-05)
(-1.15484e-05 8.52119e-05 -1.59727e-05)
(2.80342e-06 8.09564e-05 -1.23573e-05)
(6.10682e-06 7.47126e-05 -1.7283e-06)
(-3.94763e-06 5.38979e-05 -4.61349e-07)
(8.08675e-07 5.88447e-05 -9.0483e-06)
(1.53464e-05 6.28692e-05 -1.19989e-05)
(2.95918e-05 6.92473e-05 -1.28569e-05)
(4.3982e-05 7.88646e-05 -1.39588e-05)
(5.83329e-05 9.15645e-05 -1.6059e-05)
(7.40085e-05 0.000106972 -1.95043e-05)
(9.29926e-05 0.000124525 -2.47086e-05)
(0.000122065 0.000145602 -3.12138e-05)
(0.000162278 0.000181735 -3.93848e-05)
(0.000240634 0.000246438 -4.10107e-05)
(0.000259166 0.000429313 -5.10467e-05)
(0.000202133 0.000519687 -6.22594e-05)
(0.00016298 0.000585094 -7.55001e-05)
(0.000126146 0.000629671 -8.68198e-05)
(9.39108e-05 0.000665544 -9.23519e-05)
(5.82987e-05 0.000689415 -9.59041e-05)
(2.25355e-05 0.000701973 -9.7673e-05)
(-1.40336e-05 0.0007025 -9.77665e-05)
(-4.97933e-05 0.000690974 -9.61823e-05)
(-8.54156e-05 0.000668082 -9.2805e-05)
(-0.000117623 0.000633055 -8.74412e-05)
(-0.000154418 0.000589159 -7.62586e-05)
(-0.000193205 0.000524108 -6.31482e-05)
(-0.000249832 0.000434252 -5.21002e-05)
(-0.000228991 0.00025138 -4.2073e-05)
(-0.000149026 0.000190777 -4.06698e-05)
(-0.000108765 0.000155832 -3.28117e-05)
(-7.78905e-05 0.00013623 -2.68355e-05)
(-5.60979e-05 0.000120552 -2.23735e-05)
(-3.63081e-05 0.00010798 -1.97412e-05)
(-1.77495e-05 9.92554e-05 -1.78416e-05)
(8.45891e-07 9.36405e-05 -1.34753e-05)
(6.21001e-06 8.64445e-05 -1.2964e-06)
(-3.84115e-06 5.9069e-05 -4.84195e-08)
(2.8101e-06 6.46996e-05 -9.76057e-06)
(2.11223e-05 6.96989e-05 -1.32368e-05)
(3.9041e-05 7.79481e-05 -1.42972e-05)
(5.71533e-05 9.06123e-05 -1.57066e-05)
(7.4987e-05 0.000107533 -1.83698e-05)
(9.33698e-05 0.0001279 -2.27314e-05)
(0.000113732 0.000148207 -2.93671e-05)
(0.000146517 0.000168049 -3.82842e-05)
(0.000191863 0.000193188 -4.7056e-05)
(0.000343826 0.000211004 -5.12365e-05)
(0.000388201 0.000548465 -4.85218e-05)
(0.000271319 0.000672249 -5.93249e-05)
(0.000219376 0.0007577 -7.90692e-05)
(0.000171307 0.000817375 -9.53857e-05)
(0.000128423 0.000866591 -0.000101488)
(7.96037e-05 0.000899631 -0.000105897)
(3.02215e-05 0.000916828 -0.000108001)
(-2.04693e-05 0.000917532 -0.000108106)
(-6.98918e-05 0.00090172 -0.000106208)
(-0.000118832 0.000870012 -0.000101992)
(-0.000161886 0.000821952 -9.6077e-05)
(-0.000210291 0.000763151 -7.99033e-05)
(-0.000262131 0.000677983 -6.03276e-05)
(-0.000379352 0.000554312 -4.97463e-05)
(-0.000330734 0.000214228 -5.27596e-05)
(-0.000176495 0.000203721 -4.85763e-05)
(-0.000132739 0.00017972 -4.00121e-05)
(-9.75276e-05 0.000161308 -3.1737e-05)
(-7.35697e-05 0.00014276 -2.5974e-05)
(-4.98228e-05 0.00012538 -2.2587e-05)
(-2.63194e-05 0.000112998 -2.01784e-05)
(-2.0565e-06 0.000105212 -1.48559e-05)
(6.19825e-06 9.68279e-05 -7.59477e-07)
(-3.44493e-06 6.24374e-05 5.15101e-07)
(5.63948e-06 6.86925e-05 -1.06556e-05)
(2.8725e-05 7.45709e-05 -1.47253e-05)
(5.17811e-05 8.46816e-05 -1.6028e-05)
(7.55884e-05 0.000100619 -1.7802e-05)
(9.94305e-05 0.000122602 -2.10924e-05)
(0.000122017 0.000149521 -2.63633e-05)
(0.000143952 0.000174529 -3.51909e-05)
(0.000168647 0.000184885 -4.55622e-05)
(0.000138407 0.000118189 -6.6469e-05)
(0.000415454 0.000202003 -7.13293e-05)
(0.000566626 0.000796152 -2.5581e-05)
(0.000356612 0.000871586 -3.24305e-05)
(0.000303166 0.000937497 -5.45493e-05)
(0.000242931 0.00100636 -7.34529e-05)
(0.000183344 0.00106267 -7.62597e-05)
(0.0001132 0.0011032 -7.96067e-05)
(4.2083e-05 0.00112416 -8.12385e-05)
(-3.05708e-05 0.00112506 -8.13254e-05)
(-0.000101755 0.0011059 -7.98689e-05)
(-0.000172121 0.00106712 -7.66683e-05)
(-0.000232116 0.00101241 -7.40449e-05)
(-0.000293194 0.000944749 -5.52651e-05)
(-0.000347314 0.000878923 -3.33218e-05)
(-0.000561498 0.00080043 -2.70698e-05)
(-0.000403185 0.000205281 -7.35183e-05)
(-0.000121084 0.000136054 -6.74562e-05)
(-0.00015493 0.000200782 -4.71019e-05)
(-0.00012694 0.000189556 -3.77779e-05)
(-0.000100533 0.000165434 -3.00654e-05)
(-7.10262e-05 0.000141353 -2.60011e-05)
(-3.96335e-05 0.000124317 -2.30598e-05)
(-7.06061e-06 0.000114133 -1.65575e-05)
(5.60869e-06 0.000104396 1.82459e-08)
(-2.89228e-06 6.37713e-05 1.16473e-06)
(9.01102e-06 7.04343e-05 -1.17239e-05)
(3.75794e-05 7.71842e-05 -1.64576e-05)
(6.69741e-05 8.93083e-05 -1.80572e-05)
(9.8495e-05 0.00010944 -2.0268e-05)
(0.00013154 0.000139947 -2.40496e-05)
(0.000163133 0.000184155 -2.96823e-05)
(0.000186995 0.000244055 -3.5988e-05)
(0.000155383 0.000320562 -5.33911e-05)
(0.000161241 0.000367232 -8.04447e-05)
(0.000261797 0.000694564 6.55698e-05)
(0.000302745 0.000891317 2.68751e-05)
(0.000367414 0.00102317 1.44558e-05)
(0.000323258 0.00114043 1.49376e-05)
(0.000244941 0.00122359 1.08577e-05)
(0.000152795 0.00127897 7.02623e-06)
(5.60905e-05 0.00130605 5.36997e-06)
(-4.22506e-05 0.00130709 5.37546e-06)
(-0.000139042 0.00128212 7.0377e-06)
(-0.000231462 0.00122892 1.08815e-05)
(-0.000310361 0.00114809 1.49735e-05)
(-0.000356044 0.00103331 1.45648e-05)
(-0.000294963 0.000903856 2.66189e-05)
(-0.000256831 0.000707466 6.42337e-05)
(-0.0001577 0.000380154 -7.83316e-05)
(-0.000148926 0.00033502 -5.45359e-05)
(-0.000172782 0.000258412 -3.8949e-05)
(-0.00014136 0.00019975 -3.40475e-05)
(-0.000100371 0.000158636 -2.99135e-05)
(-5.72402e-05 0.000133486 -2.66345e-05)
(-1.39676e-05 0.000119824 -1.88552e-05)
(4.42403e-06 0.00010853 9.99208e-07)
(-2.08583e-06 6.25479e-05 1.87102e-06)
(1.3193e-05 6.91121e-05 -1.28744e-05)
(4.83926e-05 7.59146e-05 -1.83265e-05)
(8.64762e-05 8.82271e-05 -2.02885e-05)
(0.000131004 0.000108864 -2.31229e-05)
(0.000185943 0.000140716 -2.79557e-05)
(0.000256981 0.000188472 -3.50733e-05)
(0.000358003 0.000257569 -4.18342e-05)
(0.000483214 0.000356446 -4.64043e-05)
(0.00073735 0.000487868 -3.12088e-05)
(0.00076273 0.000141413 4.6893e-05)
(0.000600847 0.000310036 5.82168e-05)
(0.000670103 0.000665565 0.000123311)
(0.000604336 0.000872711 0.000181346)
(0.000485456 0.00102136 0.000214299)
(0.000348058 0.00112045 0.00022518)
(0.000210338 0.00118188 0.000227749)
(7.50826e-05 0.00121112 0.000228267)
(-5.88396e-05 0.0012121 0.000228339)
(-0.000194035 0.00118484 0.000227965)
(-0.000331654 0.00112553 0.000225562)
(-0.000468851 0.00102881 0.000214933)
(-0.000587582 0.000882953 0.000182501)
(-0.000653189 0.000679047 0.000125052)
(-0.000582013 0.000326424 6.11149e-05)
(-0.000750902 0.000145144 4.93067e-05)
(-0.000732291 0.000492326 -3.03286e-05)
(-0.000473352 0.000366343 -4.77459e-05)
(-0.000342742 0.00026975 -4.49389e-05)
(-0.000233783 0.000202926 -4.01199e-05)
(-0.000151759 0.000158686 -3.49391e-05)
(-8.43609e-05 0.000132372 -3.08794e-05)
(-2.47707e-05 0.000118303 -2.15768e-05)
(1.97457e-06 0.000107039 2.13596e-06)
(-1.5266e-06 5.86897e-05 2.54413e-06)
(1.66626e-05 6.46976e-05 -1.39481e-05)
(5.75376e-05 7.0612e-05 -2.01051e-05)
(0.000102392 8.10333e-05 -2.24261e-05)
(0.000155777 9.7835e-05 -2.58441e-05)
(0.000222887 0.000122104 -3.16948e-05)
(0.000310456 0.000154305 -4.02139e-05)
(0.00043115 0.000192179 -4.91795e-05)
(0.000580079 0.00022545 -5.47153e-05)
(0.00080289 0.000241332 -4.65795e-05)
(0.000907368 0.000123689 -2.21198e-05)
(0.000900911 0.000303043 1.98642e-05)
(0.00088645 0.000491727 0.000134933)
(0.000759067 0.000630882 0.000208181)
(0.000599229 0.000738951 0.000245882)
(0.000423604 0.000811957 0.000261161)
(0.000253521 0.000858271 0.000265553)
(8.95711e-05 0.000880676 0.000266616)
(-7.14784e-05 0.000881474 0.000266683)
(-0.00023532 0.000860679 0.000265757)
(-0.000405206 0.000816015 0.000261532)
(-0.00058049 0.000744691 0.000246516)
(-0.000740208 0.000638278 0.000209386)
(-0.000867679 0.000500265 0.00013688)
(-0.000882753 0.000311694 2.33602e-05)
(-0.000894195 0.000127596 -1.98909e-05)
(-0.000793969 0.000249008 -4.61048e-05)
(-0.000569382 0.000235117 -5.61813e-05)
(-0.000415078 0.000203585 -5.25994e-05)
(-0.000285599 0.000167933 -4.58883e-05)
(-0.000185473 0.000139167 -3.96522e-05)
(-0.000103697 0.000120127 -3.47677e-05)
(-3.22565e-05 0.000109332 -2.39926e-05)
(7.08319e-07 9.95605e-05 3.1671e-06)
(-1.06369e-06 5.27005e-05 3.19308e-06)
(1.96079e-05 5.79739e-05 -1.48616e-05)
(6.53294e-05 6.28088e-05 -2.16335e-05)
(0.000115684 7.11039e-05 -2.42426e-05)
(0.000175707 8.40979e-05 -2.81352e-05)
(0.000250797 0.000102097 -3.49157e-05)
(0.000347644 0.000124484 -4.50477e-05)
(0.000476777 0.000149335 -5.72544e-05)
(0.000632626 0.000170169 -6.78601e-05)
(0.000826522 0.000186194 -6.97209e-05)
(0.00096086 0.000157643 -5.29733e-05)
(0.00103299 0.000245846 2.80698e-06)
(0.00101359 0.000357471 0.000121565)
(0.000863915 0.000450527 0.000191993)
(0.000677247 0.000524781 0.00022724)
(0.000474983 0.000574654 0.00023699)
(0.000283286 0.000606891 0.000237831)
(9.96328e-05 0.000622571 0.000237119)
(-8.00575e-05 0.000623229 0.000237154)
(-0.000263582 0.000608865 0.000237936)
(-0.000455057 0.000577944 0.000237194)
(-0.000656963 0.000529354 0.000227636)
(-0.000843631 0.000456314 0.000192901)
(-0.000993643 0.000364149 0.0001232)
(-0.00101552 0.000253132 6.00477e-06)
(-0.000948061 0.000163164 -5.10659e-05)
(-0.000816148 0.000193178 -6.91397e-05)
(-0.000620689 0.000178692 -6.93079e-05)
(-0.000459303 0.000159586 -6.08366e-05)
(-0.000320743 0.000136908 -5.11555e-05)
(-0.000210013 0.000117732 -4.3585e-05)
(-0.000118423 0.000104383 -3.79109e-05)
(-3.78926e-05 9.64962e-05 -2.58817e-05)
(-1.83048e-07 8.82478e-05 4.2141e-06)
(-8.20991e-07 4.49977e-05 3.73467e-06)
(2.1668e-05 4.93386e-05 -1.56063e-05)
(7.09821e-05 5.2957e-05 -2.2882e-05)
(0.000125081 5.89706e-05 -2.57119e-05)
(0.000189092 6.81179e-05 -2.9954e-05)
(0.000268139 8.02693e-05 -3.74168e-05)
(0.000368712 9.45214e-05 -4.87164e-05)
(0.000499808 0.000109666 -6.29926e-05)
(0.000657276 0.000122052 -7.63559e-05)
(0.000842378 0.000134691 -8.1554e-05)
(0.000995116 0.000136518 -6.50189e-05)
(0.00110545 0.000189272 -1.21033e-05)
(0.00108786 0.00025738 0.000103935)
(0.000925807 0.000314972 0.000167368)
(0.000724961 0.00036201 0.000197032)
(0.000507705 0.000394727 0.000201548)
(0.000302767 0.000416389 0.000199298)
(0.000106362 0.000427117 0.000197041)
(-8.55852e-05 0.000427687 0.000197047)
(-0.000281881 0.000418085 0.000199313)
(-0.000486643 0.000397508 0.000201596)
(-0.000703614 0.000365795 0.000197202)
(-0.000904624 0.000319655 0.000167992)
(-0.00106717 0.000262712 0.000105264)
(-0.00108802 0.000195119 -9.24117e-06)
(-0.000982141 0.000142019 -6.32535e-05)
(-0.000830929 0.000141213 -8.10585e-05)
(-0.00064418 0.000129709 -7.78874e-05)
(-0.000480888 0.000118755 -6.6752e-05)
(-0.000339754 0.000105511 -5.51617e-05)
(-0.00022421 9.4009e-05 -4.66072e-05)
(-0.000127252 8.56943e-05 -4.03268e-05)
(-4.09546e-05 8.05614e-05 -2.73236e-05)
(-3.64875e-07 7.40779e-05 5.00424e-06)
(-6.99815e-07 3.61549e-05 4.13122e-06)
(2.30875e-05 3.95299e-05 -1.61881e-05)
(7.50315e-05 4.21056e-05 -2.38454e-05)
(0.000131736 4.62793e-05 -2.68321e-05)
(0.000198325 5.25364e-05 -3.13167e-05)
(0.000279629 6.0706e-05 -3.9251e-05)
(0.000382049 7.01403e-05 -5.135e-05)
(0.00051379 8.03177e-05 -6.69481e-05)
(0.000672219 8.95578e-05 -8.19758e-05)
(0.000856287 0.000100779 -8.90228e-05)
(0.00102051 0.000111168 -7.25383e-05)
(0.00114928 0.000144698 -2.1409e-05)
(0.0011337 0.000186529 9.3168e-05)
(0.00096571 0.000223468 0.000152559)
(0.000756352 0.000254195 0.000178745)
(0.000529585 0.00027607 0.000180077)
(0.00031597 0.000290753 0.000175874)
(0.000111044 0.000298169 0.000172656)
(-8.91827e-05 0.000298703 0.000172648)
(-0.000294034 0.000292333 0.000175844)
(-0.000507546 0.000278634 0.000180047)
(-0.000734137 0.000257634 0.000178798)
(-0.000943831 0.000227649 0.000153033)
(-0.00111252 0.000191243 9.43518e-05)
(-0.00113162 0.000149787 -1.8509e-05)
(-0.00100713 0.000116369 -7.08525e-05)
(-0.000844043 0.000106657 -8.85963e-05)
(-0.000658161 9.62255e-05 -8.36015e-05)
(-0.000493578 8.80792e-05 -7.08599e-05)
(-0.000351273 7.94044e-05 -5.80497e-05)
(-0.00023304 7.21203e-05 -4.88156e-05)
(-0.000132797 6.6869e-05 -4.21043e-05)
(-4.26965e-05 6.35348e-05 -2.83888e-05)
(-3.24486e-07 5.85967e-05 5.5925e-06)
(-6.75041e-07 2.65353e-05 4.38571e-06)
(2.39539e-05 2.89183e-05 -1.66229e-05)
(7.7657e-05 3.05705e-05 -2.45478e-05)
(0.000136044 3.31915e-05 -2.76369e-05)
(0.000204221 3.71113e-05 -3.2272e-05)
(0.00028684 4.22342e-05 -4.04896e-05)
(0.000390346 4.82349e-05 -5.3051e-05)
(0.000522709 5.50119e-05 -6.93559e-05)
(0.000682506 6.20143e-05 -8.52233e-05)
(0.00086811 7.1265e-05 -9.30823e-05)
(0.00103912 8.20468e-05 -7.68147e-05)
(0.00117713 0.000103315 -2.64355e-05)
(0.00116283 0.000129061 8.81372e-05)
(0.000991314 0.000152205 0.000146011)
(0.000776789 0.000171625 0.000170722)
(0.000544149 0.000185846 0.000170652)
(0.000324917 0.000195537 0.000165593)
(0.000114345 0.000200576 0.000161954)
(-9.14433e-05 0.000201109 0.000161941)
(-0.000301992 0.000197107 0.000165549)
(-0.000521221 0.000188368 0.000170596)
(-0.000753824 0.000174961 0.000170736)
(-0.000968865 0.00015618 0.00014643)
(-0.00114126 0.000133467 8.92567e-05)
(-0.00115924 0.000107996 -2.36056e-05)
(-0.00102541 8.68293e-05 -7.52071e-05)
(-0.000855324 7.64152e-05 -9.27423e-05)
(-0.000667741 6.76355e-05 -8.69574e-05)
(-0.000501518 6.13411e-05 -7.34124e-05)
(-0.000358187 5.55781e-05 -5.99579e-05)
(-0.00023827 5.10354e-05 -5.03361e-05)
(-0.00013602 4.78638e-05 -4.33616e-05)
(-4.35425e-05 4.58292e-05 -2.91685e-05)
(-1.45385e-07 4.23978e-05 5.94068e-06)
(-6.89312e-07 1.6517e-05 4.51622e-06)
(2.44222e-05 1.79148e-05 -1.69181e-05)
(7.91703e-05 1.87611e-05 -2.50058e-05)
(0.000138564 2.00792e-05 -2.81534e-05)
(0.000207719 2.2096e-05 -3.28716e-05)
(0.000291213 2.48357e-05 -4.12429e-05)
(0.000395571 2.82698e-05 -5.405e-05)
(0.000528732 3.25066e-05 -7.07102e-05)
(0.00068989 3.75534e-05 -8.6984e-05)
(0.000877246 4.42955e-05 -9.51979e-05)
(0.00105195 5.26116e-05 -7.90038e-05)
(0.00119428 6.48555e-05 -2.86958e-05)
(0.00118057 7.87679e-05 8.63865e-05)
(0.00100703 9.14833e-05 0.000144037)
(0.000789472 0.000102177 0.000168371)
(0.000553358 0.000110275 0.000167866)
(0.000330679 0.000115891 0.000162529)
(0.000116618 0.000118977 0.000158752)
(-9.26504e-05 0.000119541 0.000158739)
(-0.000306753 0.000117549 0.000162485)
(-0.000529554 0.000112914 0.000167809)
(-0.000765812 0.000105625 0.00016838)
(-0.000984104 9.55042e-05 0.000144443)
(-0.00115872 8.3113e-05 8.7481e-05)
(-0.00117627 6.92914e-05 -2.5923e-05)
(-0.00103812 5.69894e-05 -7.74696e-05)
(-0.00086421 4.87351e-05 -9.49468e-05)
(-0.000674751 4.21276e-05 -8.88252e-05)
(-0.000506973 3.73663e-05 -7.48961e-05)
(-0.000362577 3.36011e-05 -6.11224e-05)
(-0.000241436 3.08863e-05 -5.12979e-05)
(-0.000137894 2.91214e-05 -4.41791e-05)
(-4.39764e-05 2.80145e-05 -2.97004e-05)
(6.34668e-09 2.60002e-05 6.10262e-06)
(-7.27385e-07 6.37315e-06 4.52594e-06)
(2.45456e-05 6.77817e-06 -1.70812e-05)
(7.9682e-05 6.84589e-06 -2.52318e-05)
(0.000139489 6.92258e-06 -2.83994e-05)
(0.000209115 7.13758e-06 -3.31438e-05)
(0.000293165 7.63375e-06 -4.15619e-05)
(0.000398226 8.65592e-06 -5.44411e-05)
(0.000532287 1.04653e-05 -7.11968e-05)
(0.000694613 1.34875e-05 -8.75768e-05)
(0.000883285 1.75462e-05 -9.58844e-05)
(0.00105932 2.28302e-05 -7.97238e-05)
(0.00120249 2.72279e-05 -2.93515e-05)
(0.00118864 3.06236e-05 8.61407e-05)
(0.00101418 3.3839e-05 0.000144057)
(0.00079532 3.64628e-05 0.000168511)
(0.000557779 3.8821e-05 0.000168049)
(0.000333594 4.0614e-05 0.000162721)
(0.000117991 4.18688e-05 0.000158943)
(-9.28681e-05 4.24901e-05 0.000158931)
(-0.000308594 4.24373e-05 0.000162676)
(-0.000533062 4.17074e-05 0.000167987)
(-0.000770983 4.02051e-05 0.000168513)
(-0.00099085 3.81246e-05 0.000144445)
(-0.00116668 3.51343e-05 8.72034e-05)
(-0.00118458 3.16054e-05 -2.66487e-05)
(-0.0010456 2.6889e-05 -7.82776e-05)
(-0.000870306 2.13451e-05 -9.57381e-05)
(-0.000679463 1.70672e-05 -8.95337e-05)
(-0.000510418 1.39127e-05 -7.5505e-05)
(-0.000364999 1.20151e-05 -6.16467e-05)
(-0.000242997 1.09486e-05 -5.17653e-05)
(-0.00013873 1.04416e-05 -4.46018e-05)
(-4.41465e-05 1.01839e-05 -3.00092e-05)
(9.62061e-08 9.5905e-06 6.08963e-06)
(-7.89984e-07 -3.60675e-06 4.4139e-06)
(2.43227e-05 -4.19702e-06 -1.71141e-05)
(7.91902e-05 -4.93835e-06 -2.52286e-05)
(0.000138812 -6.16925e-06 -2.83792e-05)
(0.000208393 -7.87397e-06 -3.30959e-05)
(0.000292665 -9.80531e-06 -4.14589e-05)
(0.000398269 -1.14354e-05 -5.42454e-05)
(0.000533339 -1.22847e-05 -7.08523e-05)
(0.000696674 -1.13162e-05 -8.70551e-05)
(0.000886318 -9.62708e-06 -9.52023e-05)
(0.00106153 -6.30109e-06 -7.90616e-05)
(0.00120216 -9.54734e-06 -2.85771e-05)
(0.00118727 -1.73869e-05 8.71401e-05)
(0.00101289 -2.42611e-05 0.000145701)
(0.000794426 -3.0219e-05 0.000170687)
(0.000557481 -3.38676e-05 0.000170682)
(0.000333703 -3.60488e-05 0.000165611)
(0.000118486 -3.66554e-05 0.000161963)
(-9.20776e-05 -3.59248e-05 0.000161952)
(-0.000307516 -3.3902e-05 0.000165573)
(-0.000531761 -3.04767e-05 0.000170629)
(-0.000769371 -2.58353e-05 0.000170686)
(-0.000989192 -1.93118e-05 0.000146059)
(-0.00116533 -1.23027e-05 8.8135e-05)
(-0.00118458 -4.9017e-06 -2.59982e-05)
(-0.00104823 -2.35836e-06 -7.77454e-05)
(-0.000873727 -6.28217e-06 -9.51935e-05)
(-0.000681874 -8.54483e-06 -8.91421e-05)
(-0.000511805 -1.00726e-05 -7.52855e-05)
(-0.000365421 -9.87692e-06 -6.15638e-05)
(-0.000242942 -9.05849e-06 -5.17584e-05)
(-0.000138522 -8.13302e-06 -4.46409e-05)
(-4.40464e-05 -7.44791e-06 -3.01014e-05)
(1.28499e-07 -6.60866e-06 5.90315e-06)
(-8.97594e-07 -1.31382e-05 4.16773e-06)
(2.36971e-05 -1.47444e-05 -1.70153e-05)
(7.75851e-05 -1.64105e-05 -2.49904e-05)
(0.000136336 -1.91934e-05 -2.80835e-05)
(0.000205228 -2.32553e-05 -3.27118e-05)
(0.000289223 -2.83108e-05 -4.09023e-05)
(0.000395058 -3.35513e-05 -5.3399e-05)
(0.00053125 -3.80889e-05 -6.95357e-05)
(0.000695714 -3.96569e-05 -8.51648e-05)
(0.000886897 -3.96958e-05 -9.27542e-05)
(0.00105904 -3.48376e-05 -7.65334e-05)
(0.00119224 -4.66e-05 -2.55368e-05)
(0.00117491 -6.91159e-05 9.06862e-05)
(0.00100191 -8.91002e-05 0.000150959)
(0.00078589 -0.000106116 0.000177433)
(0.00055195 -0.000117184 0.000178765)
(0.000330767 -0.000124137 0.000174468)
(0.000118095 -0.000126899 0.000171181)
(-9.01088e-05 -0.000125985 0.000171152)
(-0.00030312 -0.000121439 0.000174373)
(-0.000525005 -0.000112909 0.000178612)
(-0.000759994 -0.00010056 0.000177291)
(-0.000977849 -8.28595e-05 0.000151131)
(-0.00115318 -6.27862e-05 9.14693e-05)
(-0.00117534 -4.11625e-05 -2.32027e-05)
(-0.00104649 -3.07237e-05 -7.54315e-05)
(-0.00087499 -3.65193e-05 -9.2969e-05)
(-0.000681621 -3.73882e-05 -8.74485e-05)
(-0.000510512 -3.67947e-05 -7.41226e-05)
(-0.000363185 -3.34647e-05 -6.08139e-05)
(-0.000240757 -2.97985e-05 -5.12429e-05)
(-0.000136942 -2.67617e-05 -4.42748e-05)
(-4.3519e-05 -2.47633e-05 -2.99676e-05)
(1.45001e-07 -2.23884e-05 5.52916e-06)
(-1.11024e-06 -2.18628e-05 3.75639e-06)
(2.25155e-05 -2.44374e-05 -1.67838e-05)
(7.45682e-05 -2.71192e-05 -2.45086e-05)
(0.000131513 -3.16923e-05 -2.74959e-05)
(0.000198679 -3.85979e-05 -3.19541e-05)
(0.000281348 -4.76528e-05 -3.98027e-05)
(0.000386489 -5.78865e-05 -5.17037e-05)
(0.00052361 -6.78549e-05 -6.681e-05)
(0.000689726 -7.32621e-05 -8.11192e-05)
(0.000885568 -7.50134e-05 -8.71933e-05)
(0.00105199 -6.00631e-05 -7.11192e-05)
(0.0011689 -8.26169e-05 -1.91876e-05)
(0.00114661 -0.000128937 9.8463e-05)
(0.00097694 -0.00016809 0.00016243)
(0.000766616 -0.00020056 0.000192036)
(0.000539381 -0.000221695 0.000196256)
(0.000323855 -0.000234983 0.000193671)
(0.000116575 -0.00024055 0.000191193)
(-8.6592e-05 -0.000239349 0.00019112)
(-0.000294341 -0.000231407 0.000193439)
(-0.000510825 -0.00021597 0.000195864)
(-0.000739584 -0.000192977 0.000191559)
(-0.000952377 -0.000159489 0.000162185)
(-0.00112524 -0.000120138 9.88039e-05)
(-0.00115318 -7.54321e-05 -1.72984e-05)
(-0.00104059 -5.53403e-05 -7.03742e-05)
(-0.000874591 -7.15172e-05 -8.77909e-05)
(-0.000676633 -7.09762e-05 -8.37164e-05)
(-0.000504055 -6.6937e-05 -7.16163e-05)
(-0.000356141 -5.87272e-05 -5.92194e-05)
(-0.000234922 -5.08401e-05 -5.01296e-05)
(-0.000133052 -4.48339e-05 -4.34507e-05)
(-4.20978e-05 -4.11057e-05 -2.95869e-05)
(3.10376e-07 -3.71849e-05 4.91373e-06)
(-1.42271e-06 -2.94163e-05 3.23007e-06)