/*--------------------------------*- C++ -*----------------------------------*\
| =========                 |                                                 |
| \\      /  F ield         | OpenFOAM: The Open Source CFD Toolbox           |
|  \\    /   O peration     | Version:  2112                                  |
|   \\  /    A nd           | Website:  www.openfoam.com                      |
|    \\/     M anipulation  |                                                 |
\*---------------------------------------------------------------------------*/
FoamFile
{
    version     2.0;
    format      ascii;
    arch        "LSB;label=32;scalar=64";
    class       volScalarField;
    location    "1.5";
    object      epsilon;
}
// * * * * * * * * * * * * * * * * * * * * * * * * * * * * * * * * * * * * * //

dimensions      [0 2 -3 0 0 0 0];

internalField   nonuniform List<scalar> 
64906
(
0.00234835
0.00253213
0.00261424
0.00263913
0.0026454
0.00264681
0.00264713
0.00264724
0.00264731
0.00264737
0.00264743
0.00264747
0.0026475
0.00264752
0.00264752
0.00264751
0.0026475
0.00264748
0.00264747
0.00264748
0.00264749
0.0026475
0.00264749
0.00264748
0.00264745
0.0026474
0.00264734
0.00264724
0.00264691
0.00264549
0.00263922
0.00261434
0.00253222
0.00234843
0.00253218
0.00394734
0.00457326
0.00478739
0.00485012
0.00486621
0.00486995
0.00487084
0.00487114
0.00487132
0.00487148
0.00487163
0.00487177
0.00487189
0.00487199
0.00487206
0.0048721
0.00487213
0.00487213
0.00487211
0.00487207
0.00487201
0.00487192
0.0048718
0.00487167
0.0048715
0.00487122
0.00487033
0.00486658
0.00485047
0.00478773
0.00457359
0.00394762
0.00253232
0.00261437
0.00457346
0.005522
0.00587837
0.00599303
0.00602523
0.00603337
0.0060354
0.00603605
0.00603641
0.00603677
0.0060372
0.00603765
0.00603806
0.00603841
0.00603868
0.00603885
0.00603894
0.00603895
0.00603888
0.00603872
0.00603847
0.00603814
0.00603774
0.0060373
0.00603682
0.00603615
0.00603413
0.00602598
0.00599376
0.00587906
0.00552263
0.00457396
0.00261459
0.00263932
0.00478773
0.00587855
0.00630914
0.00645466
0.00649752
0.00650883
0.00651164
0.0065123
0.00651241
0.00651257
0.00651319
0.00651401
0.00651482
0.0065155
0.00651597
0.00651627
0.00651642
0.00651644
0.00651631
0.00651604
0.00651559
0.00651493
0.00651414
0.00651333
0.00651263
0.00651199
0.00650949
0.00649842
0.00645565
0.0063101
0.00587943
0.00478841
0.0026396
0.00264562
0.00485054
0.00599332
0.00645477
0.00661441
0.00666246
0.00667521
0.0066778
0.00667707
0.00667489
0.00667304
0.0066735
0.00667494
0.00667648
0.00667771
0.00667839
0.00667875
0.00667893
0.00667894
0.0066788
0.00667847
0.00667782
0.00667662
0.0066751
0.00667367
0.00667312
0.00667439
0.00667377
0.00666259
0.0066153
0.00645589
0.00599438
0.00485135
0.00264596
0.00264706
0.00486665
0.00602554
0.00649766
0.00666249
0.00671232
0.00672467
0.00672443
0.00671722
0.00670496
0.00669421
0.00669427
0.00669815
0.00670193
0.00670453
0.0067054
0.00670561
0.00670571
0.00670573
0.00670567
0.00670549
0.00670466
0.0067021
0.00669834
0.00669447
0.0066943
0.00670444
0.00671373
0.00670844
0.00666213
0.00649857
0.00602669
0.00486758
0.00264745
0.0026474
0.00487038
0.00603365
0.00650892
0.00667519
0.00672464
0.00673351
0.00672299
0.00669292
0.00664402
0.00660075
0.00660561
0.00662187
0.00663414
0.00664097
0.00664212
0.00664181
0.00664163
0.00664165
0.00664189
0.00664224
0.00664113
0.00663434
0.0066221
0.00660584
0.00660086
0.00664352
0.00668942
0.0067068
0.00667019
0.00650867
0.00603467
0.00487138
0.00264784
0.00264751
0.00487121
0.0060356
0.00651164
0.00667771
0.00672444
0.00672326
0.00668352
0.00658542
0.00641997
0.00626762
0.00631876
0.00639065
0.00643245
0.00645142
0.00645387
0.00645292
0.0064524
0.00645242
0.00645301
0.00645401
0.00645162
0.00643269
0.00639093
0.00631904
0.00626773
0.00641952
0.00658201
0.00666741
0.00665986
0.00650797
0.00603597
0.0048722
0.002648
0.00264756
0.00487142
0.00603611
0.00651218
0.00667701
0.00671777
0.0066949
0.00658872
0.00632222
0.00582891
0.00532109
0.00562939
0.00590475
0.00603101
0.00607724
0.00608525
0.00608545
0.00608522
0.00608525
0.00608555
0.0060854
0.00607746
0.00603129
0.0059051
0.00562977
0.00532118
0.00582853
0.006319
0.00657287
0.00663173
0.00650135
0.00603501
0.00487223
0.0026481
0.0026476
0.00487147
0.00603631
0.00651221
0.00667521
0.00670747
0.00665179
0.00643539
0.00584599
0.00457626
0.00309391
0.00431125
0.0051518
0.00545711
0.0055452
0.00556682
0.00557155
0.00557253
0.00557256
0.00557163
0.00556697
0.00554542
0.00545742
0.00515224
0.0043118
0.00309387
0.004576
0.00584302
0.00641987
0.00658892
0.00649121
0.00603313
0.00487197
0.00264815
0.00264761
0.00487148
0.0060365
0.00651243
0.00667451
0.00670155
0.00662298
0.00631548
0.00538633
0.003119
0.00298518
0.00451546
0.0050095
0.00513363
0.00515956
0.00516396
0.00516459
0.0051646
0.005164
0.00515963
0.00513375
0.00500972
0.00451588
0.00298544
0.00311892
0.00538355
0.00630013
0.00656022
0.00648524
0.00603219
0.0048718
0.00264819
0.0026476
0.00487146
0.00603677
0.00651324
0.00667688
0.00670974
0.00665424
0.00643621
0.0058409
0.00455829
0.00308073
0.0042172
0.00502176
0.00530917
0.00538972
0.0054025
0.00540172
0.00540061
0.0054006
0.00540168
0.00540244
0.00538965
0.00530911
0.00502175
0.00421703
0.00308034
0.00455724
0.00583748
0.00642041
0.00659109
0.00649298
0.006034
0.00487197
0.00264819
0.00264757
0.00487144
0.00603705
0.00651424
0.00668025
0.00672205
0.00669919
0.0065893
0.0063092
0.0057832
0.00521538
0.00539919
0.00555108
0.00561384
0.00563256
0.00563248
0.00562961
0.00562811
0.00562809
0.00562954
0.00563237
0.0056324
0.00561361
0.00555076
0.00539867
0.00521447
0.005782
0.00630547
0.00657309
0.00663555
0.00650473
0.00603673
0.00487231
0.00264817
0.00264753
0.00487139
0.00603728
0.00651507
0.00668286
0.00673102
0.0067297
0.00668418
0.00656476
0.00634499
0.00608243
0.0059511
0.00583157
0.00577746
0.00575852
0.00575059
0.0057469
0.00574543
0.0057454
0.00574681
0.00575044
0.00575831
0.00577718
0.00583118
0.00595052
0.00608164
0.00634383
0.00656091
0.0066677
0.00666568
0.00651324
0.00603879
0.00487253
0.00264811
0.00264747
0.00487134
0.00603745
0.00651562
0.0066844
0.00673575
0.00674448
0.00672675
0.0066697
0.00655123
0.00636716
0.0061534
0.00594109
0.00584194
0.0058071
0.00579545
0.00579118
0.00578958
0.00578954
0.00579107
0.00579527
0.00580686
0.00584163
0.00594069
0.00615267
0.00636647
0.00655012
0.00666579
0.00671012
0.00668024
0.00651767
0.00603995
0.00487263
0.00264802
0.0026474
0.0048713
0.00603756
0.00651596
0.00668522
0.00673787
0.00675039
0.0067424
0.0067055
0.00661628
0.00645082
0.00621602
0.00597594
0.00586261
0.00582245
0.00580937
0.00580468
0.00580282
0.00580276
0.00580453
0.00580917
0.0058222
0.00586229
0.00597554
0.00621531
0.00645018
0.0066152
0.00670159
0.00672572
0.00668604
0.00651962
0.00604051
0.00487265
0.00264792
0.00264734
0.00487125
0.00603764
0.00651618
0.00668565
0.00673878
0.00675253
0.00674749
0.00671624
0.0066345
0.00647308
0.00623317
0.00598557
0.0058684
0.00582671
0.0058131
0.0058081
0.00580593
0.00580584
0.00580792
0.00581287
0.00582644
0.00586807
0.00598517
0.00623247
0.00647246
0.00663343
0.00671233
0.00673079
0.00668814
0.00652044
0.00604079
0.00487263
0.00264781
0.00264727
0.00487122
0.00603769
0.00651631
0.00668587
0.00673916
0.00675328
0.00674901
0.00671914
0.00663908
0.00647844
0.00623741
0.00598797
0.00586988
0.00582777
0.00581396
0.00580876
0.00580631
0.00580619
0.00580854
0.00581371
0.00582749
0.00586954
0.00598756
0.00623673
0.00647784
0.00663803
0.00671524
0.00673232
0.00668888
0.00652079
0.00604093
0.00487261
0.00264771
0.00264722
0.00487121
0.00603772
0.00651636
0.00668594
0.00673926
0.00675341
0.00674918
0.00671935
0.00663933
0.00647872
0.00623768
0.00598813
0.00586997
0.00582781
0.00581393
0.00580863
0.00580602
0.00580588
0.00580839
0.00581366
0.00582752
0.00586963
0.00598772
0.00623702
0.00647815
0.00663831
0.00671548
0.00673251
0.00668903
0.00652089
0.00604099
0.00487261
0.00264764
0.00264722
0.00487123
0.00603772
0.00651634
0.00668588
0.00673909
0.00675293
0.00674801
0.00671689
0.00663529
0.00647395
0.00623403
0.00598607
0.00586871
0.00582684
0.00581303
0.00580776
0.00580518
0.00580504
0.00580751
0.00581276
0.00582655
0.00586837
0.00598567
0.0062334
0.00647342
0.00663431
0.00671307
0.00673138
0.00668859
0.00652076
0.00604097
0.00487263
0.00264764
0.00264727
0.00487127
0.0060377
0.00651623
0.00668561
0.00673839
0.00675107
0.00674329
0.00670666
0.00661771
0.00645245
0.00621765
0.00597688
0.00586322
0.00582276
0.00580934
0.00580422
0.00580187
0.00580174
0.00580397
0.00580906
0.00582246
0.0058629
0.00597651
0.00621709
0.00645199
0.0066168
0.0067029
0.00672674
0.00668681
0.00652016
0.00604082
0.00487266
0.00264772
0.00264734
0.00487133
0.00603765
0.006516
0.00668495
0.00673648
0.00674545
0.00672805
0.00667145
0.00655351
0.00636992
0.0061562
0.00594269
0.00584303
0.00580773
0.00579562
0.00579085
0.0057888
0.0057887
0.00579063
0.00579536
0.00580746
0.00584275
0.0059424
0.00615578
0.00636958
0.00655272
0.00666781
0.00671164
0.00668135
0.00651844
0.00604039
0.00487269
0.00264783
0.0026474
0.0048714
0.00603755
0.00651556
0.00668358
0.00673199
0.00673099
0.00668596
0.00656726
0.00634851
0.00608696
0.00595561
0.0058341
0.00577921
0.00575966
0.00575119
0.00574701
0.00574521
0.00574514
0.00574685
0.00575097
0.00575944
0.005779
0.00583395
0.00595547
0.00608683
0.00634792
0.00656383
0.00666978
0.00666717
0.00651427
0.00603938
0.00487265
0.00264793
0.00264746
0.00487147
0.00603738
0.00651486
0.00668113
0.00672324
0.0067008
0.00659155
0.00631251
0.00578812
0.0052222
0.00540446
0.0055541
0.00561577
0.00563379
0.00563321
0.00562996
0.00562825
0.00562821
0.00562985
0.00563305
0.00563363
0.00561564
0.00555414
0.00540482
0.00522238
0.00578785
0.00630939
0.00657575
0.00663742
0.00650602
0.00603747
0.00487248
0.002648
0.00264749
0.00487153
0.00603717
0.00651397
0.00667792
0.00671114
0.0066561
0.00643878
0.00584462
0.00456362
0.00308378
0.00422018
0.00502125
0.00530741
0.00538707
0.00539932
0.00539821
0.00539693
0.00539689
0.0053981
0.0053991
0.0053867
0.00530686
0.0050208
0.00422072
0.00308365
0.00456367
0.00584182
0.00642342
0.00659325
0.0064945
0.00603488
0.00487221
0.00264805
0.00264751
0.00487156
0.00603692
0.00651319
0.00667561
0.00670302
0.00662482
0.00631757
0.00538837
0.00311952
0.00298011
0.00450066
0.0049891
0.00510939
0.00513362
0.00513729
0.00513757
0.00513747
0.00513694
0.0051328
0.00510755
0.00498546
0.00449533
0.0029775
0.00311891
0.00538522
0.00630226
0.00656228
0.00648685
0.00603316
0.00487208
0.00264806
0.00264751
0.00487146
0.00603649
0.00651262
0.00667595
0.00670864
0.00665346
0.00643748
0.00584817
0.00457804
0.00309446
0.00428603
0.00510004
0.00537455
0.00544398
0.00545979
0.00546311
0.00546366
0.00546349
0.00546238
0.0054575
0.00543729
0.0053585
0.00507193
0.00426499
0.00308953
0.00457312
0.00584252
0.00642113
0.00659063
0.00649259
0.00603395
0.00487218
0.00264805
0.00264744
0.00487074
0.00603471
0.00651031
0.00667512
0.00671622
0.00669378
0.00658765
0.00631956
0.00582008
0.00529476
0.00555325
0.00575124
0.00578538
0.00578095
0.00577594
0.00577421
0.00577373
0.00577348
0.00577291
0.00577102
0.00576443
0.00574055
0.00566334
0.00547683
0.00525063
0.0057972
0.00630691
0.00656889
0.00663033
0.00650049
0.00603433
0.00487182
0.00264799
0.00264714
0.00486712
0.00602675
0.00649947
0.00666407
0.00671056
0.00670954
0.00666925
0.00656715
0.00638733
0.00619548
0.00615709
0.00608138
0.00595229
0.00589022
0.00586918
0.00586331
0.00586185
0.00586151
0.00586155
0.00586215
0.00586498
0.00587632
0.00591422
0.00600762
0.00610394
0.00634264
0.00654645
0.0066481
0.00664609
0.00649679
0.00602792
0.00486841
0.00264767
0.00264574
0.00485109
0.00599465
0.00645685
0.00661693
0.00666432
0.00667277
0.00666137
0.00662642
0.00656025
0.00647013
0.00637353
0.00622446
0.00605185
0.00597278
0.00594674
0.00593974
0.00593812
0.0059378
0.00593795
0.00593923
0.00594524
0.00596846
0.00604149
0.00620679
0.00636636
0.00650994
0.006604
0.00664046
0.00661177
0.00645767
0.00599655
0.00485247
0.00264624
0.00263946
0.00478837
0.00587997
0.00631134
0.00645757
0.00650081
0.00651142
0.00651033
0.00649964
0.00647469
0.00642943
0.00635614
0.00624338
0.00611948
0.00605723
0.00603525
0.00602933
0.0060281
0.0060279
0.00602794
0.00602897
0.00603453
0.00605561
0.00611641
0.00623915
0.00635515
0.00643849
0.00648327
0.00649327
0.00645769
0.00631347
0.00588205
0.0047897
0.00263993
0.00261455
0.00457414
0.00552344
0.00588055
0.00599591
0.00602877
0.00603737
0.00603896
0.00603665
0.00602839
0.00600936
0.00597294
0.00591602
0.00585415
0.00582046
0.0058077
0.0058041
0.00580335
0.00580324
0.00580328
0.00580394
0.00580741
0.00581991
0.00585325
0.00591488
0.00597251
0.00601066
0.00602846
0.0060281
0.00599787
0.00588288
0.00552535
0.00457533
0.00261497
0.00253239
0.003948
0.00457452
0.0047892
0.00485245
0.00486911
0.00487346
0.00487484
0.00487503
0.00487346
0.00486832
0.004857
0.00483856
0.00481794
0.00480601
0.00480114
0.00479964
0.00479926
0.0047992
0.00479927
0.00479963
0.00480112
0.00480592
0.00481777
0.00483831
0.00485684
0.0048683
0.00487277
0.00487062
0.00485444
0.00479102
0.00457595
0.0039489
0.00253273
0.00234853
0.00253246
0.00261477
0.00263987
0.00264635
0.002648
0.00264861
0.00264903
0.00264943
0.00264975
0.00264983
0.00264939
0.00264828
0.00264676
0.00264578
0.00264525
0.00264493
0.0026447
0.0026446
0.00264472
0.00264494
0.00264524
0.00264574
0.00264668
0.00264816
0.00264923
0.00264965
0.00264951
0.00264892
0.00264718
0.00264057
0.00261532
0.00253285
0.00234877
0.00302424
0.00382828
0.00421949
0.00435562
0.00439515
0.00440514
0.0044074
0.00440789
0.00440801
0.00440804
0.00440806
0.00440805
0.00440804
0.00440802
0.004408
0.00440798
0.00440796
0.00440794
0.00440794
0.00440795
0.00440796
0.00440798
0.004408
0.00440802
0.00440803
0.00440802
0.00440792
0.00440745
0.0044052
0.00439522
0.00435569
0.00421956
0.00382834
0.00302431
0.00382829
0.00430007
0.00475462
0.0049412
0.00500209
0.00501892
0.00502299
0.00502387
0.00502405
0.00502408
0.00502407
0.00502405
0.00502404
0.00502403
0.00502402
0.00502401
0.00502401
0.005024
0.005024
0.00502401
0.00502402
0.00502403
0.00502404
0.00502405
0.00502406
0.00502404
0.00502389
0.00502303
0.00501898
0.00500215
0.00494127
0.00475469
0.00430014
0.00382836
0.00421962
0.00475469
0.00530392
0.00554762
0.00563396
0.00565987
0.00566666
0.00566825
0.00566857
0.0056686
0.00566857
0.00566859
0.00566866
0.00566873
0.0056688
0.00566884
0.00566887
0.00566888
0.00566888
0.00566887
0.00566885
0.00566881
0.00566875
0.00566868
0.00566861
0.00566853
0.00566825
0.00566673
0.00566
0.00563412
0.0055478
0.00530411
0.00475487
0.00421979
0.00435586
0.00494135
0.00554771
0.00582657
0.00592952
0.00596176
0.00597054
0.00597258
0.00597278
0.00597245
0.00597211
0.00597208
0.00597226
0.00597248
0.00597267
0.00597279
0.00597286
0.00597289
0.00597289
0.00597287
0.00597281
0.0059727
0.00597252
0.00597229
0.00597211
0.00597206
0.00597196
0.00597028
0.00596181
0.00592973
0.00582685
0.00554801
0.00494162
0.00435613
0.00439546
0.00500229
0.0056341
0.00592957
0.00604081
0.00607632
0.00608598
0.00608771
0.0060867
0.00608449
0.00608251
0.00608208
0.00608254
0.00608314
0.00608357
0.00608378
0.00608385
0.00608387
0.00608388
0.00608386
0.00608381
0.00608361
0.00608319
0.00608259
0.00608212
0.00608245
0.00608393
0.00608383
0.00607554
0.00604078
0.00592985
0.00563447
0.00500263
0.00439582
0.00440548
0.00501913
0.00566003
0.00596183
0.00607634
0.00611296
0.00612217
0.0061216
0.00611565
0.0061062
0.00609808
0.00609671
0.0060987
0.00610072
0.00610186
0.00610227
0.00610228
0.00610225
0.00610225
0.0061023
0.0061023
0.00610191
0.00610077
0.00609877
0.00609677
0.00609803
0.0061056
0.00611262
0.00610882
0.00607511
0.00596179
0.00566035
0.00501949
0.0044059
0.00440776
0.00502319
0.0056668
0.0059706
0.006086
0.00612219
0.00612862
0.00612036
0.00609839
0.00606523
0.00603803
0.00603633
0.00604595
0.00605354
0.00605702
0.00605823
0.00605825
0.0060581
0.00605811
0.00605827
0.00605827
0.00605708
0.00605361
0.00604603
0.0060364
0.00603798
0.00606462
0.00609531
0.00610738
0.00608092
0.00596942
0.00566686
0.00502351
0.00440821
0.00440824
0.00502404
0.00566836
0.00597261
0.00608775
0.00612175
0.00612069
0.00609211
0.00602663
0.00592743
0.00585214
0.00585436
0.00589321
0.00591934
0.00592949
0.00593375
0.00593438
0.00593423
0.00593424
0.00593441
0.00593379
0.00592955
0.00591943
0.00589331
0.00585445
0.00585209
0.00592682
0.00602354
0.0060791
0.00607282
0.00596851
0.00566768
0.00502421
0.00440867
0.00440833
0.00502417
0.00566863
0.00597281
0.00608689
0.00611642
0.00610031
0.00602951
0.00586905
0.00562173
0.00549125
0.00546231
0.00558309
0.00565833
0.00568374
0.00569646
0.0056995
0.00569982
0.00569983
0.00569953
0.00569651
0.00568382
0.00565845
0.00558325
0.00546245
0.00549118
0.0056211
0.00586595
0.00601649
0.00605239
0.00596303
0.00566653
0.00502401
0.00440866
0.00440833
0.00502414
0.00566861
0.00597256
0.0060852
0.00610876
0.00607197
0.00594065
0.00563892
0.00520487
0.00621264
0.00488359
0.00512076
0.00528728
0.0053398
0.00536594
0.00537288
0.0053741
0.00537411
0.00537291
0.005366
0.00533989
0.00528743
0.00512098
0.00488378
0.00621221
0.00520415
0.00563576
0.00592756
0.00602398
0.00595524
0.00566463
0.00502353
0.00440847
0.00440828
0.00502407
0.00566858
0.00597244
0.00608434
0.00610455
0.0060558
0.00589164
0.00556468
0.00637601
0.005585
0.00482501
0.00502717
0.00511655
0.00513221
0.00513328
0.00513303
0.00513304
0.0051333
0.00513224
0.0051166
0.00502729
0.0048252
0.00558554
0.00637423
0.00556133
0.00587844
0.00600769
0.00595086
0.00566353
0.00502318
0.00440829
0.00440821
0.005024
0.00566861
0.00597278
0.00608562
0.00610925
0.00607208
0.00593914
0.00563292
0.00518731
0.00612435
0.004817
0.00508098
0.005272
0.00537568
0.00534572
0.00532967
0.00532546
0.00532545
0.00532963
0.00534566
0.00537563
0.00527196
0.00508095
0.00481677
0.00612304
0.00518627
0.00562957
0.00592592
0.00602389
0.00595538
0.00566454
0.00502325
0.00440826
0.00440812
0.00502394
0.00566869
0.00597331
0.00608778
0.00611741
0.00610044
0.00602609
0.00585551
0.00558403
0.00540466
0.0053242
0.00541987
0.00547686
0.00550699
0.00549535
0.00548735
0.00548474
0.00548473
0.00548731
0.00549529
0.00550691
0.00547676
0.00541972
0.00532391
0.00540417
0.00558306
0.00585218
0.00601285
0.00605217
0.00596337
0.00566646
0.00502354
0.00440828
0.00440803
0.00502389
0.00566876
0.00597376
0.00608951
0.00612366
0.0061213
0.00608733
0.00600655
0.00587247
0.00573329
0.00565322
0.00562723
0.00560219
0.00559237
0.00558442
0.00558047
0.0055791
0.00557909
0.00558044
0.00558436
0.00559229
0.00560206
0.00562705
0.00565295
0.00573288
0.00587158
0.00600325
0.00607405
0.00607294
0.00596946
0.00566796
0.00502376
0.00440826
0.00440793
0.00502384
0.0056688
0.00597403
0.00609049
0.00612699
0.00613187
0.0061169
0.00607586
0.00599981
0.00589605
0.00579331
0.00571643
0.00565712
0.00563199
0.00562297
0.00561993
0.005619
0.005619
0.00561991
0.00562293
0.00563191
0.005657
0.00571625
0.00579303
0.0058957
0.00599896
0.00607256
0.00610359
0.00608343
0.00597267
0.00566877
0.00502386
0.00440817
0.00440783
0.0050238
0.00566882
0.00597417
0.00609096
0.00612843
0.00613613
0.00612821
0.00610113
0.00604434
0.0059525
0.00584072
0.00574663
0.00567579
0.00564569
0.00563585
0.00563292
0.00563209
0.00563207
0.00563289
0.0056358
0.00564562
0.00567567
0.00574646
0.00584046
0.00595217
0.00604352
0.00609784
0.00611488
0.00608764
0.00597402
0.00566913
0.00502388
0.00440806
0.00440775
0.00502377
0.00566883
0.00597425
0.00609117
0.00612898
0.00613761
0.00613188
0.00610894
0.00605753
0.00596877
0.00585426
0.00575521
0.00568109
0.0056496
0.00563945
0.00563649
0.00563565
0.00563564
0.00563646
0.0056394
0.00564953
0.00568098
0.00575504
0.005854
0.00596846
0.00605672
0.00610566
0.00611856
0.0060891
0.00597453
0.00566926
0.00502388
0.00440794
0.00440769
0.00502375
0.00566884
0.00597429
0.00609126
0.00612918
0.00613807
0.00613292
0.006111
0.00606086
0.00597275
0.00585755
0.00575729
0.00568239
0.00565056
0.00564031
0.00563733
0.00563646
0.00563644
0.00563729
0.00564026
0.00565049
0.00568228
0.00575713
0.0058573
0.00597244
0.00606005
0.00610772
0.00611959
0.00608955
0.00597471
0.00566932
0.00502387
0.00440786
0.00440765
0.00502375
0.00566884
0.00597431
0.00609128
0.00612922
0.00613811
0.00613298
0.00611107
0.00606094
0.00597285
0.00585765
0.00575736
0.00568244
0.00565059
0.00564032
0.00563732
0.00563643
0.00563641
0.00563728
0.00564027
0.00565052
0.00568233
0.0057572
0.0058574
0.00597255
0.00606014
0.0061078
0.00611965
0.0060896
0.00597474
0.00566933
0.00502387
0.00440781
0.00440766
0.00502376
0.00566885
0.0059743
0.00609124
0.00612909
0.00613775
0.00613206
0.00610916
0.0060578
0.00596907
0.00585456
0.00575543
0.00568125
0.00564971
0.0056395
0.0056365
0.00563561
0.00563559
0.00563647
0.00563945
0.00564964
0.00568115
0.00575528
0.00585433
0.00596879
0.00605702
0.00610591
0.00611875
0.00608925
0.00597463
0.00566931
0.00502388
0.00440782
0.00440771
0.00502379
0.00566885
0.00597426
0.00609108
0.00612861
0.00613636
0.00612851
0.00610153
0.00604485
0.0059531
0.00584134
0.00574709
0.00567614
0.00564595
0.00563604
0.00563304
0.00563214
0.00563213
0.005633
0.00563599
0.00564589
0.00567605
0.00574696
0.00584114
0.00595284
0.00604409
0.0060983
0.00611523
0.0060879
0.00597419
0.00566921
0.00502389
0.00440789
0.00440779
0.00502383
0.00566885
0.00597415
0.00609067
0.00612724
0.00613221
0.00611736
0.0060765
0.00600069
0.00589715
0.00579446
0.0057173
0.00565781
0.00563255
0.00562346
0.00562036
0.00561938
0.00561937
0.00562034
0.00562343
0.00563251
0.00565776
0.00571722
0.00579432
0.00589693
0.00599997
0.00607331
0.00610413
0.00608381
0.00597291
0.00566889
0.00502387
0.00440797
0.00440788
0.00502388
0.00566883
0.00597391
0.00608975
0.00612399
0.00612176
0.00608799
0.00600753
0.00587392
0.00573517
0.00565515
0.00562871
0.00560339
0.0055934
0.00558541
0.00558145
0.00558007
0.00558007
0.00558145
0.00558542
0.00559341
0.0056034
0.00562873
0.00565513
0.00573503
0.00587325
0.00600439
0.00607482
0.00607345
0.00596979
0.00566812
0.00502378
0.00440804
0.00440797
0.00502394
0.00566878
0.0059735
0.00608808
0.00611782
0.00610102
0.00602694
0.00585685
0.00558612
0.00540748
0.00532688
0.00542167
0.00547818
0.00550807
0.00549649
0.00548853
0.00548594
0.00548595
0.00548856
0.00549653
0.00550813
0.00547824
0.00542175
0.00532699
0.0054074
0.00558547
0.00585373
0.00601383
0.00605282
0.00596378
0.00566666
0.00502357
0.00440806
0.00440805
0.005024
0.00566871
0.00597299
0.00608596
0.00610972
0.00607274
0.00594008
0.00563434
0.00518955
0.00613239
0.00481804
0.0050802
0.00527018
0.00537343
0.00534327
0.00532712
0.0053229
0.00532291
0.00532713
0.00534324
0.00537332
0.00526977
0.00507948
0.00481728
0.00613209
0.0051886
0.00563106
0.00592692
0.00602459
0.00595583
0.00566476
0.00502328
0.00440803
0.00440811
0.00502404
0.00566863
0.00597261
0.00608463
0.00610498
0.00605637
0.00589232
0.00556534
0.00637527
0.00556366
0.00481043
0.00500713
0.00509286
0.00510717
0.00510787
0.00510751
0.00510746
0.00510768
0.00510659
0.00509128
0.00500349
0.00480395
0.00555057
0.00637022
0.00556121
0.00587888
0.00600821
0.00595124
0.0056637
0.00502317
0.00440804
0.00440808
0.00502395
0.00566836
0.00597232
0.00608504
0.00610872
0.00607203
0.00594066
0.00563842
0.00520205
0.00619228
0.00485555
0.00507368
0.00522004
0.00525984
0.00528103
0.00528693
0.005288
0.00528789
0.00528643
0.00527928
0.00525453
0.0052073
0.00505193
0.00483099
0.00615767
0.00519334
0.00563227
0.00592654
0.00602377
0.00595516
0.00566448
0.00502335
0.00440814
0.00440766
0.00502315
0.0056669
0.00597059
0.00608447
0.00611398
0.00609784
0.00602659
0.00586421
0.0056106
0.00546227
0.00540123
0.00547716
0.00551009
0.00550788
0.00550814
0.00550829
0.0055082
0.00550801
0.00550729
0.00550435
0.00549588
0.0054814
0.00543318
0.00535276
0.00542568
0.00559241
0.0058539
0.00601107
0.00604937
0.00596085
0.00566487
0.00502299
0.00440791
0.00440544
0.00501914
0.00566022
0.00596213
0.00607605
0.00610958
0.00610823
0.0060787
0.0060097
0.00590001
0.00579894
0.00575325
0.00572798
0.00570177
0.00566814
0.00565354
0.00564907
0.00564792
0.00564765
0.00564761
0.00564777
0.00564937
0.0056576
0.00567471
0.00568718
0.00574898
0.00587277
0.00599525
0.00606187
0.00605995
0.00595795
0.00565961
0.0050193
0.00440581
0.00439547
0.00500235
0.00563438
0.00593008
0.00604127
0.00607574
0.00608142
0.00607191
0.00604589
0.00600095
0.00594596
0.00589285
0.00583339
0.00578349
0.00573852
0.00571917
0.00571322
0.00571172
0.00571144
0.00571162
0.00571283
0.00571792
0.00573517
0.00577574
0.00582282
0.00589331
0.00597169
0.00603059
0.00605534
0.00603489
0.00592879
0.00563449
0.00500266
0.00439588
0.00435592
0.00494145
0.00554804
0.00582719
0.00593032
0.00596239
0.00596996
0.00596813
0.00595889
0.00594008
0.00590992
0.0058673
0.00581156
0.00575874
0.00572124
0.00570504
0.00569988
0.00569855
0.00569831
0.00569852
0.00569977
0.0057047
0.00572031
0.00575681
0.00580926
0.0058681
0.00591711
0.00594678
0.00595402
0.00592818
0.00582712
0.00554842
0.00494179
0.0043563
0.00421973
0.00475483
0.0053043
0.00554829
0.00563488
0.0056609
0.00566747
0.0056679
0.00566486
0.00565713
0.00564199
0.00561652
0.00558094
0.00554544
0.00552212
0.00551185
0.00550841
0.00550747
0.00550729
0.00550748
0.00550841
0.00551181
0.00552195
0.00554508
0.00558056
0.00561689
0.00564361
0.00565755
0.00565785
0.00563446
0.00554862
0.00530469
0.0047551
0.00422004
0.00382844
0.00430021
0.00475499
0.00494182
0.00500294
0.00501994
0.00502408
0.00502476
0.00502392
0.0050211
0.00501466
0.0050026
0.00498476
0.00496614
0.00495435
0.00494912
0.00494729
0.00494675
0.00494665
0.00494678
0.00494735
0.00494919
0.00495442
0.00496618
0.0049848
0.00500279
0.00501499
0.0050206
0.0050192
0.00500315
0.00494222
0.0047553
0.00430039
0.00382865
0.00302439
0.00382845
0.00421994
0.00435637
0.00439618
0.00440644
0.00440896
0.00440959
0.00440949
0.0044083
0.00440494
0.00439786
0.0043865
0.00437397
0.00436649
0.00436325
0.00436202
0.00436158
0.00436147
0.00436161
0.00436208
0.00436331
0.00436654
0.00437398
0.00438648
0.00439787
0.00440496
0.00440785
0.00440671
0.00439682
0.00435697
0.00422035
0.00382866
0.00302459
0.00333536
0.00457004
0.00521579
0.00545883
0.00553544
0.00555638
0.00556145
0.00556255
0.00556275
0.00556275
0.00556269
0.00556262
0.00556254
0.00556247
0.00556241
0.00556236
0.00556232
0.0055623
0.0055623
0.00556231
0.00556235
0.0055624
0.00556246
0.00556252
0.00556258
0.00556262
0.00556246
0.0055614
0.00555636
0.00553543
0.00545883
0.0052158
0.00457006
0.00333542
0.00457003
0.00487841
0.00536036
0.00557988
0.0056583
0.00568186
0.005688
0.0056894
0.00568965
0.00568965
0.00568958
0.00568951
0.00568945
0.0056894
0.00568936
0.00568933
0.00568931
0.0056893
0.0056893
0.00568931
0.00568933
0.00568936
0.0056894
0.00568945
0.00568949
0.00568951
0.00568929
0.00568793
0.00568183
0.00565829
0.0055799
0.00536041
0.00487845
0.00457005
0.00521592
0.00536042
0.00586048
0.00611151
0.00620947
0.00624153
0.00625058
0.00625279
0.00625317
0.00625307
0.00625289
0.00625276
0.0062527
0.00625268
0.00625268
0.00625267
0.00625266
0.00625265
0.00625266
0.00625266
0.00625268
0.00625269
0.00625269
0.00625271
0.00625275
0.00625278
0.00625247
0.00625041
0.00624148
0.00620951
0.00611161
0.00586064
0.00536057
0.00521604
0.00545911
0.00558001
0.00611158
0.00638849
0.00650106
0.0065395
0.00655076
0.00655344
0.00655356
0.00655288
0.00655211
0.0065517
0.0065516
0.00655164
0.00655169
0.00655172
0.00655172
0.00655171
0.00655171
0.00655173
0.00655173
0.00655171
0.00655166
0.00655162
0.00655169
0.00655197
0.00655207
0.00654995
0.00653919
0.00650105
0.00638864
0.00611183
0.00558025
0.00545935
0.00553582
0.00565848
0.0062096
0.00650112
0.00662187
0.00666384
0.00667606
0.00667821
0.00667664
0.00667346
0.00667043
0.00666901
0.00666885
0.00666905
0.0066692
0.00666929
0.00666927
0.00666923
0.00666924
0.00666928
0.0066693
0.00666922
0.00666908
0.00666888
0.00666901
0.00667026
0.00667253
0.00667252
0.00666222
0.00662138
0.00650117
0.00620987
0.00565878
0.00553616
0.00555681
0.00568206
0.00624167
0.00653958
0.00666387
0.00670707
0.00671858
0.0067177
0.00671005
0.00669838
0.00668808
0.0066841
0.0066847
0.00668578
0.00668617
0.00668663
0.00668665
0.00668655
0.00668656
0.00668666
0.00668665
0.0066862
0.00668582
0.00668473
0.0066841
0.0066879
0.00669738
0.00670567
0.00670088
0.0066616
0.00653907
0.00624181
0.00568235
0.00555719
0.0055619
0.00568819
0.00625072
0.00655084
0.00667612
0.00671864
0.00672656
0.00671649
0.00669109
0.006655
0.00662552
0.00661599
0.00662226
0.00662739
0.00662832
0.00663084
0.00663144
0.00663132
0.00663133
0.00663145
0.00663086
0.00662835
0.00662744
0.0066223
0.006616
0.00662532
0.00665396
0.0066866
0.00669934
0.0066687
0.00654863
0.00625038
0.00568836
0.00556224
0.00556299
0.00568956
0.0062529
0.00655353
0.00667838
0.00671809
0.00671714
0.00668503
0.00661672
0.00652251
0.00645673
0.006428
0.00645689
0.00647592
0.00647674
0.00648789
0.00649109
0.00649126
0.00649127
0.00649111
0.00648792
0.00647679
0.00647599
0.00645696
0.00642802
0.00645651
0.00652142
0.00661216
0.00666774
0.00665895
0.00654739
0.00625144
0.00568944
0.00556317
0.00556315
0.00568978
0.00625327
0.00655374
0.00667719
0.00671158
0.00669442
0.00662147
0.00647276
0.00627903
0.00624387
0.00605697
0.00614277
0.00619953
0.00619583
0.00623323
0.00624337
0.00624458
0.00624459
0.0062434
0.00623328
0.0061959
0.00619964
0.00614291
0.00605704
0.00624361
0.00627784
0.00646807
0.00660404
0.00663601
0.00654056
0.00624979
0.0056891
0.00556296
0.0055631
0.00568974
0.0062532
0.00655331
0.00667499
0.0067029
0.00666592
0.00654375
0.00630932
0.00613254
0.00815161
0.00554987
0.00568217
0.00581977
0.00581141
0.00589528
0.00591691
0.00592014
0.00592015
0.00591695
0.00589535
0.00581149
0.00581992
0.00568238
0.00554994
0.0081506
0.00613106
0.00630438
0.00652605
0.00660724
0.00653158
0.00624727
0.00568835
0.00556239
0.00556298
0.00568964
0.0062531
0.00655305
0.00667386
0.00669851
0.00665231
0.00651728
0.00637692
0.00859115
0.00644544
0.0053722
0.005584
0.00569928
0.00569517
0.00568854
0.00568661
0.00568662
0.00568856
0.0056952
0.00569936
0.00558414
0.0053724
0.00644603
0.00858645
0.00637154
0.00649932
0.00659339
0.00652692
0.00624585