/*--------------------------------*- C++ -*----------------------------------*\
| =========                 |                                                 |
| \\      /  F ield         | OpenFOAM: The Open Source CFD Toolbox           |
|  \\    /   O peration     | Version:  2112                                  |
|   \\  /    A nd           | Website:  www.openfoam.com                      |
|    \\/     M anipulation  |                                                 |
\*---------------------------------------------------------------------------*/
FoamFile
{
    version     2.0;
    format      ascii;
    arch        "LSB;label=32;scalar=64";
    class       volScalarField;
    location    "1.5";
    object      k;
}
// * * * * * * * * * * * * * * * * * * * * * * * * * * * * * * * * * * * * * //

dimensions      [0 2 -2 0 0 0 0];

internalField   nonuniform List<scalar> 
64906
(
0.00156406
0.00164789
0.00168533
0.00169687
0.00169985
0.00170055
0.00170071
0.00170076
0.00170079
0.00170082
0.00170084
0.00170086
0.00170087
0.00170088
0.00170088
0.00170088
0.00170087
0.00170086
0.00170086
0.00170086
0.00170087
0.00170087
0.00170087
0.00170086
0.00170085
0.00170083
0.0017008
0.00170075
0.00170059
0.0016999
0.00169691
0.00168537
0.00164793
0.0015641
0.00164791
0.00222704
0.00246359
0.00254378
0.0025677
0.00257401
0.00257552
0.00257588
0.002576
0.00257606
0.00257612
0.00257617
0.00257622
0.00257627
0.0025763
0.00257633
0.00257634
0.00257635
0.00257635
0.00257635
0.00257633
0.00257631
0.00257628
0.00257623
0.00257619
0.00257612
0.00257601
0.00257565
0.00257414
0.00256783
0.00254391
0.00246371
0.00222715
0.00164797
0.00168539
0.00246366
0.0028028
0.0029277
0.00296841
0.00298013
0.00298318
0.00298395
0.00298418
0.0029843
0.00298441
0.00298455
0.0029847
0.00298485
0.00298496
0.00298505
0.00298511
0.00298514
0.00298515
0.00298512
0.00298507
0.00298498
0.00298487
0.00298473
0.00298459
0.00298443
0.00298418
0.00298342
0.00298038
0.00296865
0.00292793
0.00280302
0.00246385
0.00168549
0.00169696
0.00254391
0.00292776
0.00307569
0.00312624
0.0031415
0.00314563
0.00314667
0.0031469
0.0031469
0.00314692
0.0031471
0.00314736
0.00314763
0.00314786
0.00314801
0.00314811
0.00314816
0.00314817
0.00314812
0.00314804
0.00314789
0.00314767
0.00314741
0.00314715
0.00314693
0.00314672
0.00314581
0.00314178
0.00312656
0.00307601
0.00292806
0.00254416
0.00169709
0.00169996
0.00256786
0.00296851
0.00312628
0.00318145
0.00319847
0.00320309
0.00320403
0.00320373
0.00320289
0.00320216
0.00320223
0.00320268
0.00320318
0.00320359
0.00320381
0.00320392
0.00320398
0.00320398
0.00320394
0.00320384
0.00320362
0.00320323
0.00320273
0.00320229
0.00320217
0.00320267
0.00320246
0.00319843
0.00318171
0.00312664
0.00296887
0.00256815
0.00170011
0.00170066
0.00257417
0.00298024
0.00314155
0.00319848
0.0032161
0.00322056
0.00322045
0.00321781
0.00321341
0.00320954
0.00320934
0.00321053
0.00321177
0.00321264
0.00321292
0.00321298
0.003213
0.003213
0.00321299
0.00321295
0.00321269
0.00321183
0.00321059
0.0032094
0.00320956
0.00321319
0.00321647
0.00321455
0.00319824
0.00314181
0.00298062
0.00257451
0.00170083
0.00170082
0.00257568
0.00298327
0.00314567
0.00320309
0.00322056
0.00322374
0.00321995
0.00320933
0.00319236
0.00317739
0.00317842
0.00318356
0.00318762
0.00318994
0.00319031
0.00319017
0.00319009
0.0031901
0.00319019
0.00319035
0.00318999
0.00318769
0.00318364
0.00317849
0.00317742
0.00319214
0.00320798
0.00321397
0.00320112
0.00314547
0.00298359
0.00257603
0.00170102
0.00170088
0.00257602
0.00298401
0.00314667
0.00320401
0.00322048
0.00322007
0.00320611
0.00317228
0.00311597
0.00306422
0.00307989
0.00310328
0.00311723
0.0031237
0.00312451
0.00312415
0.00312394
0.00312395
0.00312418
0.00312456
0.00312376
0.00311731
0.00310337
0.00307999
0.00306425
0.00311577
0.00317095
0.00320015
0.0031974
0.00314519
0.00298406
0.00257636
0.00170109
0.0017009
0.0025761
0.0029842
0.00314686
0.00320373
0.00321806
0.00321011
0.00317352
0.00308281
0.00291467
0.00273877
0.00284258
0.00293545
0.00297832
0.00299426
0.00299703
0.00299708
0.00299698
0.00299699
0.00299711
0.00299708
0.00299434
0.00297841
0.00293557
0.00284271
0.00273879
0.0029145
0.00308153
0.00316762
0.00318749
0.00314276
0.00298368
0.00257636
0.00170114
0.00170092
0.00257612
0.00298427
0.00314685
0.00320306
0.00321442
0.00319529
0.00312166
0.00292102
0.00247126
0.00189465
0.00236837
0.00267129
0.00277832
0.00280934
0.00281704
0.00281873
0.00281908
0.00281909
0.00281876
0.00281709
0.00280941
0.00277843
0.00267145
0.00236858
0.00189462
0.00247113
0.00291982
0.00311583
0.00317274
0.00313914
0.00298296
0.00257625
0.00170116
0.00170092
0.00257612
0.00298433
0.00314692
0.00320279
0.00321236
0.00318559
0.00308163
0.00276329
0.00190582
0.00184672
0.00244117
0.00261932
0.00266379
0.00267324
0.00267487
0.00267511
0.00267512
0.00267489
0.00267326
0.00266384
0.00261941
0.00244133
0.00184684
0.00190577
0.00276213
0.00307584
0.00316304
0.00313704
0.0029826
0.00257618
0.00170117
0.00170092
0.00257611
0.00298442
0.0031472
0.00320361
0.00321516
0.00319606
0.00312179
0.00291899
0.00246408
0.00188856
0.00233077
0.00262216
0.00272343
0.00275183
0.00275655
0.00275635
0.00275597
0.00275596
0.00275634
0.00275653
0.0027518
0.0027234
0.00262216
0.00233071
0.00188839
0.00246364
0.00291762
0.00311587
0.0031734
0.00313971
0.00298324
0.00257624
0.00170118
0.0017009
0.0025761
0.00298452
0.00314755
0.00320481
0.00321945
0.00321142
0.00317338
0.00307763
0.00289727
0.0026983
0.00275742
0.0028074
0.00282841
0.00283481
0.00283483
0.00283385
0.00283333
0.00283332
0.00283383
0.00283479
0.00283475
0.00282833
0.00280728
0.00275723
0.00269796
0.00289681
0.00307618
0.00316735
0.00318864
0.00314385
0.00298425
0.00257638
0.00170117
0.00170088
0.00257609
0.00298461
0.00314785
0.00320575
0.00322265
0.00322206
0.00320582
0.00316409
0.00308807
0.00299669
0.00294813
0.00290466
0.00288498
0.00287811
0.00287528
0.00287398
0.00287347
0.00287346
0.00287395
0.00287523
0.00287803
0.00288488
0.00290453
0.00294793
0.00299641
0.00308763
0.00316261
0.00319972
0.00319917
0.00314692
0.00298503
0.00257648
0.00170114
0.00170086
0.00257607
0.00298467
0.00314805
0.00320631
0.00322436
0.00322732
0.00322067
0.00320004
0.00315803
0.00309324
0.00301775
0.00294295
0.0029076
0.00289508
0.0028909
0.00288938
0.00288882
0.00288881
0.00288934
0.00289084
0.002895
0.00290749
0.00294281
0.00301749
0.003093
0.0031576
0.00319855
0.00321453
0.00320437
0.00314854
0.00298546
0.00257653
0.0017011
0.00170083
0.00257605
0.00298471
0.00314817
0.0032066
0.00322514
0.00322947
0.00322625
0.00321256
0.00318045
0.00312198
0.0030396
0.00295534
0.00291499
0.00290055
0.00289585
0.00289418
0.00289353
0.00289351
0.00289413
0.00289578
0.00290047
0.00291488
0.0029552
0.00303935
0.00312175
0.00318004
0.00321107
0.00322009
0.00320648
0.00314926
0.00298568
0.00257654
0.00170105
0.0017008
0.00257604
0.00298473
0.00314824
0.00320676
0.00322547
0.00323025
0.00322809
0.0032164
0.00318687
0.00312978
0.00304569
0.00295883
0.0029171
0.0029021
0.0028972
0.00289542
0.00289467
0.00289464
0.00289536
0.00289712
0.00290201
0.00291698
0.00295869
0.00304545
0.00312956
0.00318646
0.0032149
0.00322193
0.00320726
0.00314956
0.00298578
0.00257653
0.00170101
0.00170077
0.00257602
0.00298475
0.00314829
0.00320683
0.0032256
0.00323052
0.00322865
0.00321745
0.00318851
0.0031317
0.00304722
0.00295971
0.00291764
0.00290249
0.00289752
0.00289567
0.00289482
0.00289478
0.0028956
0.00289743
0.00290239
0.00291752
0.00295957
0.00304699
0.00313148
0.00318811
0.00321596
0.00322249
0.00320752
0.00314969
0.00298583
0.00257653
0.00170096
0.00170074
0.00257602
0.00298476
0.0031483
0.00320686
0.00322564
0.00323057
0.0032287
0.00321752
0.00318859
0.00313179
0.00304732
0.00295977
0.00291767
0.0029025
0.00289751
0.00289563
0.00289472
0.00289467
0.00289555
0.00289742
0.0029024
0.00291756
0.00295963
0.00304709
0.00313159
0.0031882
0.00321604
0.00322255
0.00320757
0.00314972
0.00298585
0.00257652
0.00170093
0.00170074
0.00257603
0.00298476
0.0031483
0.00320683
0.00322557
0.00323039
0.00322827
0.00321662
0.00318713
0.00313008
0.00304599
0.00295901
0.00291721
0.00290215
0.00289718
0.00289531
0.00289441
0.00289436
0.00289522
0.00289708
0.00290204
0.00291709
0.00295887
0.00304577
0.00312989
0.00318676
0.00321515
0.00322213
0.00320741
0.00314967
0.00298584
0.00257653
0.00170093
0.00170077
0.00257604
0.00298476
0.00314826
0.00320673
0.00322531
0.00322969
0.00322655
0.00321295
0.00318093
0.00312253
0.00304016
0.00295567
0.00291521
0.00290066
0.00289584
0.00289402
0.0028932
0.00289316
0.00289394
0.00289574
0.00290056
0.00291509
0.00295554
0.00303996
0.00312236
0.00318058
0.00321151
0.00322043
0.00320674
0.00314944
0.00298578
0.00257654
0.00170097
0.0017008
0.00257606
0.00298474
0.00314817
0.00320649
0.00322461
0.00322765
0.0032211
0.00320063
0.0031588
0.00309418
0.00301871
0.00294351
0.00290798
0.0028953
0.00289097
0.00288928
0.00288856
0.00288853
0.0028892
0.00289088
0.00289521
0.00290789
0.00294341
0.00301857
0.00309406
0.00315849
0.00319923
0.00321504
0.00320475
0.0031488
0.00298562
0.00257655
0.00170101
0.00170083
0.00257609
0.0029847
0.00314802
0.00320599
0.00322297
0.00322249
0.00320642
0.00316494
0.00308927
0.00299826
0.00294969
0.00290556
0.0028856
0.00287851
0.0028755
0.00287403
0.0028734
0.00287338
0.00287397
0.00287542
0.00287843
0.00288553
0.00290551
0.00294964
0.0029982
0.00308903
0.00316361
0.00320043
0.00319967
0.00314726
0.00298523
0.00257652
0.00170106
0.00170085
0.00257612
0.00298464
0.00314776
0.0032051
0.00321985
0.00321196
0.00317413
0.00307876
0.002899
0.00270077
0.00275932
0.00280847
0.00282908
0.00283523
0.00283508
0.00283396
0.00283337
0.00283335
0.00283392
0.00283502
0.00283517
0.00282903
0.00280848
0.00275945
0.00270083
0.00289887
0.00307753
0.00316825
0.00318927
0.00314429
0.0029845
0.00257645
0.00170109
0.00170087
0.00257614
0.00298456
0.00314744
0.00320396
0.00321563
0.00319668
0.00312267
0.00292029
0.0024661
0.00188988
0.00233193
0.00262192
0.00272271
0.00275077
0.0027553
0.00275498
0.00275454
0.00275452
0.00275494
0.00275522
0.00275063
0.00272249
0.00262174
0.00233213
0.00188982
0.00246609
0.00291914
0.00311689
0.00317412
0.00314022
0.00298354
0.00257633
0.00170111
0.00170088
0.00257615
0.00298447
0.00314716
0.00320315
0.00321285
0.00318619
0.00308234
0.00276401
0.00190605
0.00184442
0.00243526
0.0026114
0.00265444
0.00266326
0.00266463
0.00266474
0.0026647
0.0026645
0.00266295
0.00265374
0.00260999
0.00243313
0.00184322
0.00190575
0.00276269
0.00307653
0.00316371
0.00313757
0.00298292
0.00257627
0.00170112
0.00170088
0.0025761
0.00298431
0.00314696
0.00320327
0.00321476
0.0031958
0.0031223
0.0029217
0.0024718
0.00189472
0.00235798
0.00265131
0.00274727
0.00277153
0.00277713
0.00277833
0.00277853
0.00277847
0.00277806
0.00277628
0.00276903
0.00274128
0.00264067
0.00234942
0.00189243
0.00246971
0.00291942
0.00311612
0.00317323
0.00313956
0.00298321
0.00257631
0.00170111
0.00170084
0.00257581
0.00298362
0.0031461
0.00320294
0.00321736
0.00320953
0.00317292
0.00308156
0.00291101
0.00272822
0.00281373
0.0028791
0.00288948
0.00288745
0.00288557
0.00288493
0.00288475
0.00288466
0.00288445
0.00288377
0.00288146
0.00287331
0.00284743
0.00278552
0.00271136
0.00290233
0.00307672
0.00316589
0.00318678
0.00314231
0.00298334
0.00257616
0.00170108
0.00170069
0.00257434
0.00298065
0.00314213
0.00319893
0.00321527
0.00321488
0.00320066
0.00316526
0.00310357
0.00303735
0.00302119
0.00299288
0.00294717
0.00292503
0.00291746
0.00291533
0.0029148
0.00291468
0.00291469
0.00291491
0.00291595
0.00292012
0.00293405
0.00296823
0.00300446
0.00308732
0.00315756
0.00319278
0.00319215
0.00314094
0.00298096
0.0025748
0.00170093
0.00170001
0.00256806
0.00296896
0.00312697
0.00318226
0.00319897
0.00320195
0.00319776
0.00318524
0.00316185
0.00312997
0.00309518
0.00304256
0.0029821
0.00295404
0.00294469
0.00294215
0.00294155
0.00294144
0.00294149
0.00294196
0.00294415
0.00295251
0.0029785
0.00303667
0.00309318
0.00314371
0.00317693
0.00318997
0.0031801
0.00312709
0.00296957
0.00256856
0.00170023
0.00169702
0.00254415
0.00292825
0.00307643
0.00312721
0.00314256
0.00314637
0.00314587
0.00314183
0.00313263
0.00311614
0.0030897
0.00304966
0.00300598
0.0029838
0.00297587
0.0029737
0.00297323
0.00297315
0.00297318
0.00297357
0.00297561
0.00298323
0.00300491
0.00304826
0.00308949
0.00311938
0.00313566
0.00313947
0.00312703
0.00307708
0.00292895
0.00254463
0.00169723
0.00168547
0.00246392
0.00280331
0.00292845
0.0029694
0.00298134
0.00298451
0.00298504
0.00298405
0.0029808
0.00297353
0.00295992
0.00293901
0.0029165
0.00290414
0.0028994
0.00289804
0.00289774
0.0028977
0.00289772
0.00289798
0.0028993
0.00290395
0.00291618
0.00293863
0.00295981
0.00297404
0.00298083
0.00298085
0.00296998
0.00292923
0.00280397
0.00246436
0.00168565
0.001648
0.0022273
0.00246406
0.00254445
0.00256856
0.00257508
0.0025768
0.00257732
0.00257733
0.00257661
0.00257444
0.0025698
0.00256241
0.00255424
0.00254949
0.00254753
0.00254692
0.00254676
0.00254674
0.00254676
0.00254692
0.00254752
0.00254945
0.00255418
0.00256232
0.00256975
0.00257444
0.00257634
0.00257555
0.00256927
0.00254512
0.00246459
0.00222765
0.00164816
0.00156415
0.00164804
0.00168557
0.00169721
0.00170029
0.00170109
0.00170137
0.00170156
0.00170174
0.00170187
0.00170188
0.00170163
0.00170107
0.00170031
0.00169983
0.00169957
0.00169942
0.00169932
0.00169927
0.00169932
0.00169943
0.00169957
0.00169981
0.00170028
0.00170101
0.00170156
0.0017018
0.00170176
0.00170149
0.00170066
0.00169752
0.00168582
0.00164821
0.00156426
0.00219931
0.0025836
0.00276338
0.00282599
0.00284454
0.00284935
0.00285048
0.00285073
0.00285078
0.0028508
0.00285081
0.0028508
0.0028508
0.00285079
0.00285078
0.00285077
0.00285076
0.00285075
0.00285075
0.00285075
0.00285076
0.00285077
0.00285078
0.00285079
0.00285079
0.00285079
0.00285074
0.0028505
0.00284938
0.00284456
0.00282601
0.00276341
0.00258364
0.00219934
0.00258361
0.00456513
0.00524031
0.00549179
0.00557601
0.00560078
0.0056072
0.00560866
0.00560891
0.00560886
0.00560874
0.00560861
0.0056085
0.00560841
0.00560833
0.00560827
0.00560822
0.0056082
0.0056082
0.00560823
0.00560827
0.00560833
0.00560841
0.0056085
0.0056086
0.00560867
0.00560848
0.00560709
0.00560071
0.00557596
0.00549175
0.00524028
0.00456511
0.00258364
0.00276344
0.00524045
0.00612506
0.00647804
0.00660557
0.00664617
0.00665757
0.00666038
0.00666089
0.0066608
0.0066606
0.00666048
0.00666045
0.00666046
0.00666049
0.0066605
0.0066605
0.0066605
0.0066605
0.0066605
0.00666051
0.00666051
0.00666048
0.00666047
0.00666048
0.00666048
0.00666005
0.00665742
0.00664616
0.00660564
0.00647814
0.00612516
0.00524054
0.00276352
0.00282609
0.00549203
0.00647816
0.00688729
0.00704138
0.00709254
0.00710744
0.00711103
0.00711124
0.0071104
0.00710946
0.00710901
0.00710897
0.00710911
0.00710928
0.00710935
0.00710936
0.00710936
0.00710936
0.00710937
0.00710937
0.00710931
0.00710915
0.007109
0.00710902
0.00710928
0.00710934
0.00710648
0.00709221
0.00704141
0.00688747
0.00647836
0.0054922
0.00282622
0.00284467
0.00557629
0.00660575
0.00704145
0.00720901
0.00726572
0.00728214
0.00728507
0.007283
0.00727873
0.00727464
0.0072729
0.00727275
0.0072732
0.00727365
0.00727372
0.00727362
0.00727355
0.00727356
0.00727364
0.00727375
0.00727369
0.00727326
0.0072728
0.00727292
0.00727443
0.00727749
0.00727747
0.00726363
0.0072084
0.00704148
0.00660597
0.00557651
0.00284484
0.00284951
0.00560107
0.00664637
0.00709264
0.00726575
0.00732437
0.00733989
0.00733868
0.00732813
0.0073117
0.00729687
0.00729206
0.00729263
0.00729456
0.00729599
0.00729596
0.00729548
0.00729519
0.00729519
0.0072955
0.007296
0.00729604
0.00729462
0.0072927
0.00729209
0.00729666
0.00731038
0.00732225
0.00731603
0.00726272
0.00709191
0.00664641
0.00560127
0.0028497
0.00285064
0.00560747
0.00665775
0.00710753
0.00728219
0.00733995
0.00735054
0.00733643
0.00730014
0.00724603
0.00719877
0.00719116
0.00719915
0.00720768
0.00721272
0.00721269
0.00721139
0.00721064
0.00721065
0.00721142
0.00721273
0.00721278
0.00720776
0.00719923
0.00719121
0.00719857
0.0072447
0.00729415
0.00731336
0.00727212
0.00710452
0.00665718
0.00560753
0.00285084
0.00285088
0.00560888
0.00666051
0.00711111
0.00728523
0.00733912
0.0073372
0.00729085
0.00718721
0.0070279
0.00688843
0.00689946
0.00694581
0.00697833
0.0069942
0.0069954
0.00699329
0.00699205
0.00699206
0.00699332
0.00699545
0.00699427
0.00697842
0.00694591
0.00689953
0.00688824
0.0070266
0.00718124
0.00726769
0.0072584
0.00710276
0.00665847
0.00560859
0.00285107
0.00285093
0.00560907
0.00666099
0.0071114
0.00728361
0.00732996
0.00730409
0.00719257
0.00693904
0.00650747
0.00608768
0.00625613
0.00645344
0.00655597
0.00659647
0.00660387
0.00660312
0.00660219
0.0066022
0.00660315
0.00660392
0.00659655
0.00655608
0.00645359
0.00625627
0.00608752
0.00650622
0.00693312
0.00716941
0.00722518
0.00709329
0.00665628
0.00560813
0.00285106
0.00285093
0.00560897
0.00666091
0.00711085
0.00728055
0.00731724
0.00725905
0.00705074
0.00653271
0.00542419
0.00359827
0.00502171
0.00571824
0.00597605
0.00605479
0.00607873
0.00608383
0.00608453
0.00608453
0.00608385
0.00607878
0.00605487
0.00597619
0.00571848
0.00502204
0.00359808
0.00542302
0.0065268
0.00702753
0.00718
0.00708034
0.00665289
0.00560717
0.00285096
0.00285091
0.00560881
0.00666079
0.00711053
0.00727893
0.00731015
0.00723189
0.00695399
0.00618386
0.00366513
0.00333909
0.0050991
0.00552374
0.00564074
0.00566641
0.00567047
0.00567081
0.00567081
0.00567048
0.00566643
0.00564079
0.00552386
0.00509938
0.00333932
0.0036643
0.00617786
0.00693061
0.00715264
0.00707298
0.00665092
0.00560646
0.00285087
0.00285087
0.00560865
0.00666081
0.00711101
0.00728087
0.00731741
0.00725814
0.00704647
0.00652025
0.00539364
0.00356026
0.00489471
0.00556803
0.00581745
0.00590243
0.005907
0.00590278
0.00590077
0.00590076
0.00590273
0.00590694
0.00590235
0.00581737
0.00556797
0.00489452
0.00355971
0.00539194
0.00651406
0.00702304
0.0071788
0.00708004
0.00665251
0.00560648
0.00285086
0.00285083
0.00560851
0.00666093
0.00711188
0.00728442
0.00733039
0.00730208
0.00718272
0.00690908
0.00643279
0.00592806
0.00596683
0.00604178
0.00608455
0.006103
0.00610037
0.00609634
0.00609457
0.00609455
0.0060963
0.0061003
0.0061029
0.0060844
0.00604156
0.00596646
0.0059274
0.00643111
0.00690285
0.00715925
0.00722267
0.00709283
0.00665573
0.00560693
0.00285088
0.00285079
0.0056084
0.00666104
0.00711264
0.00728735
0.0073407
0.007335
0.00727625
0.00714021
0.00690943
0.00663837
0.00645878
0.00630777
0.0062398
0.00621747
0.00620872
0.00620512
0.00620388
0.00620387
0.0062051
0.00620867
0.00621738
0.00623965
0.00630755
0.00645849
0.00663785
0.00690782
0.00713396
0.00725272
0.00725547
0.00710294
0.00665836
0.00560731
0.00285088
0.00285075
0.0056083
0.0066611
0.0071131
0.00728908
0.00734644
0.00735237
0.00732251
0.00724479
0.00710019
0.00689024
0.00665169
0.00642131
0.00630795
0.00626787
0.00625558
0.00625198
0.00625101
0.00625101
0.00625196
0.00625554
0.0062678
0.00630782
0.00642111
0.00665148
0.00688979
0.00709863
0.00723855
0.00729893
0.00727274
0.0071085
0.00665984
0.00560749
0.00285084
0.0028507
0.00560823
0.00666112
0.00711333
0.0072899
0.00734899
0.0073597
0.00734099
0.00728407
0.00716679
0.00697281
0.00671694
0.00646101
0.00633208
0.00628576
0.00627204
0.0062684
0.00626753
0.00626753
0.00626838
0.00627201
0.0062857
0.00633196
0.00646083
0.00671675
0.00697239
0.00716526
0.00727782
0.00731737
0.00727999
0.00711094
0.0066605
0.00560753
0.0028508
0.00285067
0.00560818
0.00666113
0.00711345
0.00729025
0.00734998
0.00736233
0.00734728
0.00729675
0.00718718
0.00699697
0.00673612
0.00647286
0.00633935
0.00629116
0.00627699
0.00627333
0.0062725
0.00627249
0.00627332
0.00627696
0.0062911
0.00633923
0.00647269
0.00673594
0.00699657
0.00718566
0.0072905
0.00732364
0.00728258
0.00711186
0.00666075
0.00560752
0.00285075
0.00285064
0.00560815
0.00666113
0.0071135
0.00729038
0.00735032
0.00736314
0.00734909
0.00730021
0.0071925
0.00700305
0.00674093
0.00647588
0.00634122
0.00629256
0.00627827
0.0062746
0.00627377
0.00627377
0.00627459
0.00627824
0.0062925
0.00634111
0.00647572
0.00674076
0.00700266
0.00719099
0.00729397
0.00732545
0.00728338
0.00711216
0.00666083
0.00560751
0.00285071
0.00285062
0.00560814
0.00666114
0.00711352
0.00729041
0.00735035
0.00736319
0.00734915
0.00730029
0.00719259
0.00700314
0.00674101
0.00647598
0.00634128
0.00629259
0.0062783
0.00627462
0.00627378
0.00627378
0.00627461
0.00627827
0.00629254
0.00634118
0.00647581
0.00674085
0.00700276
0.00719108
0.00729406
0.00732552
0.00728343
0.0071122
0.00666085
0.0056075
0.00285069
0.00285063
0.00560816
0.00666115
0.0071135
0.00729033
0.0073501
0.00736248
0.00734747
0.00729698
0.00718746
0.00699726
0.00673641
0.00647317
0.00633957
0.00629131
0.00627711
0.00627343
0.00627258
0.00627258
0.00627342
0.00627709
0.00629127
0.00633947
0.00647302
0.00673626
0.0069969
0.00718597
0.00729077
0.00732387
0.00728275
0.00711197
0.0066608
0.00560751
0.00285069
0.00285065
0.00560821
0.00666115
0.00711342
0.00729004
0.00734919
0.00735996
0.00734133
0.00728451
0.00716733
0.00697341
0.00671755
0.00646165
0.00633258
0.00628615
0.00627239
0.00626872
0.00626784
0.00626784
0.00626872
0.00627238
0.00628612
0.00633251
0.00646153
0.00671742
0.00697307
0.00716587
0.00727833
0.00731777
0.00728028
0.00711113
0.00666058
0.00560751
0.00285072
0.00285068
0.00560827
0.00666115
0.00711323
0.00728928
0.00734672
0.00735276
0.00732304
0.00724552
0.00710115
0.0068914
0.00665288
0.00642251
0.00630896
0.00626876
0.00625643
0.00625283
0.00625186
0.00625187
0.00625285
0.00625645
0.00626877
0.00630894
0.00642246
0.00665282
0.00689112
0.00709974
0.00723939
0.00729954
0.00727317
0.00710877
0.00665997
0.00560747
0.00285076
0.00285072
0.00560836
0.0066611
0.0071128
0.00728763
0.00734108
0.00733553
0.007277
0.00714132
0.00691108
0.00664055
0.00646093
0.00630981
0.00624156
0.00621911
0.00621039
0.00620684
0.00620564
0.00620566
0.00620689
0.00621046
0.00621919
0.00624164
0.00630988
0.006461
0.00664037
0.00690975
0.00713528
0.0072536
0.00725606
0.0071033
0.00665852
0.00560728
0.00285078
0.00285077
0.00560847
0.00666101
0.00711209
0.00728475
0.00733086
0.00730274
0.0071837
0.00691064
0.00643535
0.00593189
0.00597047
0.00604432
0.00608654
0.00610486
0.00610233
0.00609843
0.00609674
0.00609677
0.00609851
0.00610245
0.006105
0.00608667
0.00604446
0.00597075
0.00593186
0.00643415
0.00690467
0.00716038
0.0072234
0.00709328
0.00665592
0.00560689
0.00285078
0.0028508
0.00560858
0.00666088
0.00711122
0.00728123
0.00731792
0.00725885
0.00704751
0.00652193
0.00539675
0.00356352
0.004897
0.00556712
0.00581514
0.00589945
0.00590393
0.00589979
0.00589788
0.0058979
0.00589985
0.00590396
0.00589931
0.00581461
0.00556636
0.00489717
0.00356337
0.00539564
0.00651583
0.0070241
0.00717954
0.0070805
0.0066527
0.0056064
0.00285075
0.00285083
0.00560867
0.00666074
0.00711059
0.00727912
0.00731049
0.00723236
0.00695456
0.0061844
0.00366478
0.00332967
0.0050785
0.00549564
0.00560764
0.00563176
0.00563555
0.00563585
0.00563581
0.00563534
0.00563104
0.00560553
0.00549073
0.00507035
0.0033239
0.00366252
0.00617719
0.00693059
0.00715291
0.00707322
0.00665096
0.00560628
0.00285076
0.00285081
0.00560851
0.00666025
0.00711006
0.00727975
0.00731651
0.00725833
0.00704977
0.00653077
0.00541987
0.00358904
0.00497637
0.00564206
0.0058658
0.00592355
0.00594215
0.00594679
0.0059476
0.00594747
0.00594611
0.00593967
0.00591574
0.00584605
0.00560597
0.00494085
0.00357413
0.00540818
0.00651936
0.00702424
0.00717857
0.00707953
0.00665225
0.00560661
0.0028508
0.00285059
0.00560716
0.00665761
0.00710693
0.00727855
0.00732465
0.00729846
0.00718573
0.00692817
0.006485
0.00603513
0.00614244
0.00625324
0.00625993
0.00624624
0.0062404
0.00623854
0.00623796
0.0062377
0.00623711
0.00623479
0.00622742
0.00620896
0.00615481
0.00604577
0.00597009
0.00645014
0.00690739
0.00715704
0.00721814
0.00708844
0.00665284
0.00560605
0.00285068
0.00284949
0.00560083
0.00664639
0.0070926
0.00726428
0.00731701
0.00731416
0.0072654
0.00715405
0.00697294
0.00678078
0.00668901
0.00657939
0.00643934
0.00636743
0.00634228
0.0063352
0.00633347
0.0063331
0.0063331
0.0063337
0.00633724
0.0063529
0.00640399
0.00652419
0.00667067
0.00691443
0.00712344
0.00723366
0.00723407
0.00708352
0.00664419
0.00560034
0.00284964
0.00284468
0.00557611
0.00660589
0.00704178
0.00720893
0.0072633
0.00727204
0.00725485
0.00720943
0.00712994
0.00702282
0.00689964
0.00673258
0.00655141
0.00646113
0.00642947
0.0064205
0.00641832
0.00641791
0.00641818
0.00641996
0.00642778
0.00645646
0.00654135
0.00671988
0.00690226
0.00706551
0.0071766
0.00722345
0.00719514
0.00703798
0.00660515
0.00557596
0.00284486
0.00282612
0.00549189
0.00647837
0.00688781
0.00704195
0.00709243
0.00710456
0.00710032
0.00708233
0.00704569
0.0069839
0.00688987
0.00675856
0.00662323
0.00655113
0.00652398
0.00651575
0.00651362
0.00651322
0.00651359
0.00651563
0.00652357
0.00654993
0.00662086
0.00675616
0.00689238
0.00699614
0.00705656
0.00707389
0.00703613
0.00688652
0.00647828
0.00549188
0.00282629
0.00276349
0.00524036
0.00612531
0.00647861
0.00660635
0.00664688
0.00665747
0.00665754
0.00665088
0.00663479
0.00660339
0.00654998
0.00647416
0.00639683
0.00635275
0.00633484
0.00632899
0.00632736
0.00632706
0.0063274
0.00632904
0.00633485
0.00635261
0.00639649
0.00647395
0.00655107
0.00660639
0.00663554
0.00663911
0.00660427
0.00647837
0.00612543
0.00524035
0.00276363
0.00258368
0.0045651
0.00524058
0.00549232
0.00557673
0.0056016
0.00560789
0.00560858
0.00560647
0.00560057
0.00558793
0.00556503
0.00553175
0.00549728
0.00547665
0.00546774
0.00546461
0.00546365
0.00546346
0.00546373
0.00546476
0.00546794
0.00547687
0.0054975
0.00553203
0.00556561
0.00558869
0.00559989
0.00559905
0.00557623
0.0054924
0.00524068
0.00456505
0.00258378
0.00219938
0.00258369
0.00276359
0.00282632
0.002845
0.00284994
0.00285118
0.00285148
0.00285139
0.00285074
0.00284902
0.00284546
0.00283986
0.00283375
0.0028301
0.00282851
0.00282791
0.00282769
0.00282764
0.00282771
0.00282794
0.00282854
0.00283012
0.00283376
0.00283986
0.00284547
0.00284903
0.00285053
0.00285001
0.00284528
0.0028266
0.00276378
0.00258379
0.00219948
0.0023501
0.00291373
0.00319147
0.00329509
0.00332827
0.00333757
0.00333989
0.00334041
0.00334051
0.00334051
0.00334048
0.00334045
0.00334041
0.00334038
0.00334036
0.00334033
0.00334032
0.00334031
0.00334031
0.00334032
0.00334033
0.00334035
0.00334038
0.0033404
0.00334043
0.00334045
0.00334037
0.00333987
0.00333756
0.00332826
0.00329508
0.00319147
0.00291374
0.00235013
0.00291373
0.00547949
0.00637187
0.00672465
0.00685126
0.00689128
0.00690239
0.00690506
0.00690551
0.00690538
0.00690512
0.00690483
0.00690459
0.00690439
0.00690424
0.00690411
0.00690402
0.00690398
0.00690398
0.00690402
0.00690411
0.00690423
0.00690438
0.00690457
0.00690478
0.00690494
0.00690459
0.00690204
0.00689102
0.00685106
0.00672448
0.00637173
0.00547938
0.00291374
0.00319153
0.00637205
0.00751768
0.00799873
0.00818383
0.0082468
0.00826564
0.00827049
0.0082713
0.00827097
0.00827039
0.00826992
0.00826963
0.00826948
0.0082694
0.00826932
0.00826925
0.00826921
0.00826922
0.00826926
0.00826933
0.0082694
0.00826948
0.00826962
0.00826986
0.00827007
0.00826947
0.00826499
0.00824647
0.00818369
0.00799868
0.00751766
0.00637204
0.00319158
0.0032952
0.00672495
0.00799888
0.00855303
0.00877468
0.00885314
0.0088774
0.00888341
0.00888356
0.00888172
0.00887956
0.00887808
0.00887736
0.00887715
0.00887713
0.00887703
0.0088769
0.00887682
0.00887683
0.00887691
0.00887704
0.00887715
0.00887717
0.00887737
0.00887802
0.00887912
0.00887965
0.00887502
0.008852
0.00877429
0.00855298
0.00799895
0.00672503
0.0032953
0.00332843
0.00685163
0.00818406
0.00877478
0.00901586
0.00910272
0.00912928
0.00913402
0.00913015
0.00912235
0.00911438
0.00910952
0.00910742
0.009107
0.00910709
0.00910675
0.0091063
0.00910604
0.00910604
0.00910631
0.00910678
0.00910713
0.00910704
0.00910745
0.00910946
0.00911387
0.0091199
0.00912023
0.00909822
0.00901411
0.00877432
0.00818407
0.00685173
0.00332856
0.00333775
0.00689166
0.00824706
0.00885329
0.00910278
0.00919255
0.00921743
0.0092152
0.00919762
0.00917048
0.00914444
0.00913089
0.00912623
0.0091261
0.00912696
0.00912592
0.00912449
0.00912371
0.00912372
0.00912451
0.00912595
0.00912701
0.00912615
0.00912627
0.00913083
0.00914389
0.00916786
0.00918703
0.00917728
0.00909659
0.0088513
0.00824663
0.00689167
0.00333791
0.00334008
0.00690275
0.0082659
0.00887757
0.00912944
0.00921765
0.00923438
0.00921187
0.00915557
0.00907313
0.00899706
0.00896763
0.00896304
0.00896742
0.00897197
0.00896955
0.00896603
0.00896422
0.00896423
0.00896605
0.00896958
0.00897202
0.00896748
0.0089631
0.00896758
0.00899652
0.00907046
0.00914473
0.00917311
0.00911128
0.00887142
0.00826422
0.00690243
0.00334021
0.0033406
0.00690538
0.00827073
0.00888367
0.00913455
0.00921636
0.00921362
0.00914366
0.00899288
0.00876739
0.00856151
0.00852453
0.00854523
0.00857097
0.00858766
0.00858409
0.00857778
0.00857471
0.00857472
0.0085778
0.00858413
0.00858771
0.00857104
0.0085453
0.00852451
0.00856099
0.00876475
0.00898199
0.00910461
0.00908973
0.0088684
0.00826631
0.00690433
0.00334064
0.00334068
0.00690578
0.00827157
0.00888413
0.00913179
0.00920183
0.00916398
0.00900382
0.00865548
0.00808248
0.0075114
0.00759697
0.00775865
0.00785437
0.00789674
0.00789974
0.00789452
0.00789169
0.0078917
0.00789454
0.00789977
0.00789679
0.00785445
0.00775876
0.00759703
0.00751093
0.00807989
0.00864458
0.00896461
0.00903968
0.00885316
0.00826249
0.00690345
0.00334055
0.00334066
0.00690563
0.00827139
0.00888308
0.00912673
0.00918244
0.00909972
0.00881298
0.00813346
0.00672133
0.00432486
0.00587813
0.00659924
0.00685962
0.00692151
0.00696541
0.00697473
0.00697565
0.00697565
0.00697475
0.00696544
0.00692156
0.00685974
0.00659945
0.00587842
0.00432444
0.00671883
0.00812242
0.00877346
0.00897497
0.00883321
0.00825679
0.00690174
0.00334028
0.0033406
0.00690537
0.00827114
0.00888243
0.00912402
0.00917188
0.00906257
0.00868954
0.00770541
0.00448554
0.00367894
0.00549184
0.00592402
0.00604804
0.00606851
0.00606989
0.00606949
0.0060695
0.00606991
0.00606854
0.00604811
0.00592416
0.00549213
0.00367917
0.00448358
0.00769412
0.00864962