/*--------------------------------*- C++ -*----------------------------------*\
| =========                 |                                                 |
| \\      /  F ield         | OpenFOAM: The Open Source CFD Toolbox           |
|  \\    /   O peration     | Version:  2112                                  |
|   \\  /    A nd           | Website:  www.openfoam.com                      |
|    \\/     M anipulation  |                                                 |
\*---------------------------------------------------------------------------*/
FoamFile
{
    version     2.0;
    format      ascii;
    arch        "LSB;label=32;scalar=64";
    class       volScalarField;
    location    "1.5";
    object      nut;
}
// * * * * * * * * * * * * * * * * * * * * * * * * * * * * * * * * * * * * * //

dimensions      [0 2 -1 0 0 0 0];

internalField   nonuniform List<scalar> 
64906
(
9.37538e-05
9.65186e-05
9.77838e-05
9.81929e-05
9.83049e-05
9.83324e-05
9.83389e-05
9.83409e-05
9.83419e-05
9.83428e-05
9.83435e-05
9.83441e-05
9.83445e-05
9.83447e-05
9.83447e-05
9.83445e-05
9.83442e-05
9.83439e-05
9.83437e-05
9.83439e-05
9.83441e-05
9.83443e-05
9.83443e-05
9.83441e-05
9.83437e-05
9.83431e-05
9.83422e-05
9.83403e-05
9.83337e-05
9.83063e-05
9.81943e-05
9.77852e-05
9.65199e-05
9.37549e-05
9.65193e-05
0.000113082
0.000119441
0.000121648
0.000122343
0.000122538
0.000122588
0.0001226
0.000122603
0.000122605
0.000122607
0.000122608
0.000122609
0.00012261
0.000122611
0.000122612
0.000122612
0.000122612
0.000122612
0.000122612
0.000122612
0.000122611
0.00012261
0.000122609
0.000122608
0.000122606
0.000122603
0.000122591
0.000122542
0.000122346
0.000121651
0.000119444
0.000113085
9.65214e-05
9.77858e-05
0.000119443
0.000128035
0.000131231
0.000132325
0.00013266
0.000132752
0.000132776
0.000132782
0.000132785
0.000132787
0.00013279
0.000132794
0.000132797
0.0001328
0.000132802
0.000132803
0.000132804
0.000132804
0.000132804
0.000132802
0.0001328
0.000132798
0.000132794
0.000132791
0.000132787
0.00013278
0.000132757
0.000132665
0.000132331
0.000131237
0.000128041
0.000119448
9.77891e-05
9.81959e-05
0.000121651
0.000131233
0.000134945
0.000136274
0.0001367
0.000136822
0.000136853
0.000136859
0.000136857
0.000136855
0.000136858
0.000136864
0.00013687
0.000136875
0.000136879
0.000136881
0.000136882
0.000136882
0.000136881
0.000136879
0.000136876
0.000136871
0.000136865
0.000136859
0.000136855
0.00013685
0.000136823
0.000136705
0.000136282
0.000134953
0.00013124
0.000121658
9.82001e-05
9.83084e-05
0.000122347
0.000132328
0.000136275
0.000137722
0.000138195
0.00013833
0.000138358
0.000138346
0.000138319
0.000138294
0.000138291
0.0001383
0.000138311
0.000138321
0.000138326
0.000138328
0.000138329
0.000138329
0.000138329
0.000138327
0.000138322
0.000138312
0.000138301
0.000138292
0.000138294
0.000138311
0.000138305
0.000138188
0.000137725
0.000136283
0.000132336
0.000122355
9.83135e-05
9.83361e-05
0.000122543
0.000132662
0.000136701
0.000138195
0.000138685
0.000138815
0.00013881
0.000138731
0.000138605
0.000138494
0.000138475
0.000138497
0.000138526
0.000138548
0.000138554
0.000138554
0.000138554
0.000138554
0.000138554
0.000138555
0.000138549
0.000138528
0.000138499
0.000138476
0.000138493
0.000138597
0.000138688
0.000138632
0.000138182
0.000136705
0.000132671
0.000122551
9.8342e-05
9.83428e-05
0.000122592
0.000132754
0.000136823
0.00013833
0.000138815
0.000138906
0.000138797
0.000138502
0.000138049
0.000137655
0.000137642
0.000137749
0.000137845
0.000137904
0.000137911
0.000137906
0.000137903
0.000137903
0.000137907
0.000137912
0.000137905
0.000137847
0.000137751
0.000137644
0.000137654
0.000138041
0.000138457
0.000138615
0.000138264
0.000136811
0.00013276
0.000122601
9.83493e-05
9.83448e-05
0.000122603
0.000132777
0.000136853
0.000138358
0.000138812
0.000138801
0.000138419
0.000137531
0.000136112
0.000134828
0.000135108
0.000135624
0.000135957
0.000136121
0.00013614
0.000136128
0.000136122
0.000136122
0.000136129
0.000136141
0.000136122
0.000135959
0.000135627
0.000135111
0.000134828
0.000136104
0.000137487
0.000138237
0.000138157
0.000136801
0.000132773
0.000122611
9.83518e-05
9.83456e-05
0.000122606
0.000132783
0.000136859
0.000138348
0.000138742
0.000138528
0.00013757
0.00013529
0.00013117
0.000126868
0.000129183
0.000131338
0.000132371
0.000132775
0.000132845
0.000132845
0.000132841
0.000132841
0.000132846
0.000132847
0.000132777
0.000132374
0.000131341
0.000129186
0.000126868
0.000131163
0.000135247
0.000137389
0.000137884
0.00013673
0.00013276
0.000122611
9.83531e-05
9.8346e-05
0.000122607
0.000132784
0.000136857
0.000138327
0.00013864
0.000138142
0.000136282
0.000131358
0.000120107
0.000104422
0.000117095
0.00012466
0.000127305
0.000128095
0.000128298
0.000128344
0.000128353
0.000128353
0.000128344
0.0001283
0.000128097
0.000127308
0.000124664
0.000117101
0.000104421
0.000120101
0.000131316
0.000136102
0.000137498
0.000136627
0.000132737
0.000122606
9.83536e-05
9.83462e-05
0.000122607
0.000132786
0.000136858
0.000138319
0.000138585
0.000137901
0.000135331
0.000127586
0.000104808
0.000102819
0.000118778
0.000123261
0.0001244
0.000124653
0.0001247
0.000124707
0.000124707
0.0001247
0.000124654
0.000124401
0.000123263
0.000118782
0.000102823
0.000104805
0.000127544
0.000135151
0.000137256
0.000136571
0.000132726
0.000122604
9.83539e-05
9.83459e-05
0.000122606
0.000132788
0.000136865
0.00013834
0.000138657
0.000138157
0.000136276
0.000131289
0.00011988
0.000104196
0.000115936
0.000123227
0.000125732
0.00012645
0.000126585
0.000126584
0.000126575
0.000126575
0.000126584
0.000126584
0.00012645
0.000125732
0.000123227
0.000115934
0.00010419
0.000119866
0.000131243
0.000136094
0.00013751
0.00013664
0.000132744
0.000122606
9.83539e-05
9.83455e-05
0.000122606
0.000132791
0.000136875
0.000138374
0.000138773
0.000138552
0.000137545
0.000135114
0.000130633
0.000125642
0.000126742
0.000127783
0.000128253
0.000128406
0.00012841
0.000128386
0.000128373
0.000128373
0.000128386
0.000128409
0.000128404
0.000128251
0.00012778
0.000126737
0.000125633
0.000130618
0.000135067
0.000137361
0.000137904
0.000136753
0.000132773
0.000122611
9.83536e-05
9.83447e-05
0.000122606
0.000132793
0.000136884
0.000138401
0.000138863
0.000138839
0.00013838
0.000137253
0.000135265
0.000132877
0.000131443
0.000130211
0.000129656
0.000129463
0.000129387
0.000129353
0.00012934
0.00012934
0.000129352
0.000129386
0.000129461
0.000129653
0.000130208
0.000131439
0.000132869
0.000135251
0.000137205
0.000138195
0.000138189
0.000136841
0.000132797
0.000122614
9.83527e-05
9.83438e-05
0.000122605
0.000132795
0.000136889
0.000138417
0.000138913
0.000138988
0.000138781
0.000138181
0.00013701
0.000135246
0.000133197
0.000131202
0.000130243
0.000129898
0.000129784
0.000129744
0.000129729
0.000129729
0.000129743
0.000129782
0.000129896
0.00013024
0.000131199
0.00013319
0.000135239
0.000136996
0.000138133
0.000138595
0.000138336
0.000136889
0.000132811
0.000122616
9.83514e-05
9.83428e-05
0.000122605
0.000132796
0.000136893
0.000138426
0.000138937
0.000139051
0.000138939
0.000138521
0.000137596
0.000135984
0.000133771
0.000131538
0.000130444
0.000130046
0.000129917
0.000129872
0.000129855
0.000129855
0.000129871
0.000129915
0.000130044
0.000130441
0.000131534
0.000133765
0.000135977
0.000137583
0.000138473
0.000138752
0.000138399
0.000136911
0.000132817
0.000122617
9.83499e-05
9.83418e-05
0.000122604
0.000132796
0.000136895
0.00013843
0.000138946
0.000139075
0.000138993
0.00013863
0.000137772
0.000136195
0.000133939
0.000131637
0.000130504
0.00013009
0.000129955
0.000129907
0.000129888
0.000129887
0.000129905
0.000129953
0.000130088
0.000130501
0.000131633
0.000133933
0.000136188
0.000137759
0.000138582
0.000138806
0.000138422
0.00013692
0.00013282
0.000122617
9.83483e-05
9.83408e-05
0.000122604
0.000132797
0.000136896
0.000138432
0.00013895
0.000139083
0.000139009
0.00013866
0.000137819
0.000136248
0.000133982
0.000131662
0.00013052
0.000130101
0.000129964
0.000129915
0.000129893
0.000129892
0.000129913
0.000129962
0.000130099
0.000130517
0.000131659
0.000133976
0.000136242
0.000137806
0.000138612
0.000138823
0.00013843
0.000136923
0.000132822
0.000122617
9.83467e-05
9.834e-05
0.000122604
0.000132797
0.000136896
0.000138433
0.000138951
0.000139084
0.000139011
0.000138662
0.000137821
0.000136251
0.000133984
0.000131664
0.000130521
0.000130102
0.000129964
0.000129913
0.00012989
0.000129889
0.000129911
0.000129961
0.000130099
0.000130518
0.00013166
0.000133979
0.000136245
0.000137809
0.000138614
0.000138824
0.000138431
0.000136924
0.000132822
0.000122617
9.83455e-05
9.83399e-05
0.000122604
0.000132797
0.000136896
0.000138432
0.000138949
0.000139078
0.000138997
0.000138635
0.000137779
0.000136202
0.000133946
0.000131641
0.000130507
0.000130091
0.000129954
0.000129904
0.000129881
0.00012988
0.000129902
0.000129952
0.000130089
0.000130504
0.000131638
0.000133941
0.000136197
0.000137767
0.000138588
0.000138811
0.000138425
0.000136922
0.000132822
0.000122617
9.83456e-05
9.83408e-05
0.000122604
0.000132797
0.000136895
0.000138429
0.000138941
0.000139057
0.000138946
0.00013853
0.000137608
0.000135998
0.000133785
0.000131547
0.00013045
0.000130049
0.000129917
0.000129868
0.000129847
0.000129846
0.000129866
0.000129914
0.000130047
0.000130447
0.000131544
0.00013378
0.000135993
0.000137596
0.000138483
0.000138761
0.000138405
0.000136915
0.00013282
0.000122617
9.83469e-05
9.83418e-05
0.000122605
0.000132796
0.000136892
0.000138422
0.000138919
0.000138996
0.000138792
0.000138196
0.000137029
0.00013527
0.000133221
0.000131217
0.000130253
0.000129905
0.000129786
0.000129741
0.000129723
0.000129722
0.000129739
0.000129784
0.000129902
0.000130251
0.000131215
0.000133218
0.000135266
0.000137018
0.00013815
0.000138607
0.000138346
0.000136895
0.000132814
0.000122617
9.83485e-05
9.83428e-05
0.000122606
0.000132795
0.000136888
0.000138407
0.000138871
0.00013885
0.000138395
0.000137274
0.000135296
0.000132917
0.000131483
0.000130235
0.000129672
0.000129474
0.000129393
0.000129355
0.000129339
0.000129338
0.000129354
0.000129391
0.000129472
0.00012967
0.000130234
0.000131481
0.000132915
0.000135287
0.00013723
0.000138212
0.000138201
0.000136849
0.000132802
0.000122616
9.835e-05
9.83437e-05
0.000122606
0.000132794
0.00013688
0.000138381
0.000138783
0.000138566
0.000137564
0.000135143
0.000130678
0.000125709
0.000126793
0.000127811
0.00012827
0.000128416
0.000128415
0.000128388
0.000128373
0.000128373
0.000128387
0.000128414
0.000128414
0.000128268
0.000127811
0.000126796
0.00012571
0.000130672
0.000135101
0.000137384
0.000137919
0.000136764
0.00013278
0.000122613
9.83511e-05
9.83443e-05
0.000122607
0.000132791
0.000136871
0.000138349
0.000138668
0.000138172
0.000136298
0.000131322
0.000119938
0.000104238
0.000115969
0.000123217
0.000125707
0.000126415
0.000126544
0.00012654
0.00012653
0.000126529
0.000126539
0.000126542
0.000126411
0.000125701
0.000123211
0.000115974
0.000104236
0.000119935
0.000131282
0.000136119
0.000137528
0.000136652
0.000132751
0.000122608
9.83516e-05
9.83447e-05
0.000122607
0.000132789
0.000136864
0.000138327
0.000138596
0.000137915
0.000135348
0.000127604
0.000104815
0.000102738
0.000118593
0.000123018
0.000124114
0.00012435
0.000124389
0.000124393
0.000124392
0.000124385
0.000124341
0.000124093
0.000122975
0.000118526
0.000102695
0.000104803
0.000127556
0.000135166
0.000137271
0.000136583
0.000132734
0.000122606
9.83519e-05
9.83445e-05
0.000122606
0.000132784
0.000136857
0.00013833
0.000138646
0.000138151
0.000136294
0.000131369
0.000120113
0.000104412
0.000116753
0.000124048
0.000126388
0.000126988
0.000127133
0.000127166
0.000127172
0.00012717
0.000127158
0.000127109
0.000126916
0.000126214
0.000123736
0.000116479
0.000104326
0.000120039
0.000131291
0.000136101
0.000137505
0.000136635
0.000132742
0.000122607
9.83519e-05
9.83433e-05
0.000122595
0.000132762
0.000136831
0.000138319
0.000138713
0.000138502
0.00013754
0.000135237
0.000131039
0.000126519
0.00012831
0.000129716
0.000129883
0.000129799
0.000129743
0.000129724
0.000129719
0.000129716
0.00012971
0.000129692
0.000129631
0.000129436
0.000128847
0.000127505
0.00012601
0.000130773
0.000135084
0.000137322
0.000137851
0.000136708
0.000132745
0.000122602
9.83508e-05
9.83371e-05
0.000122547
0.000132672
0.000136714
0.000138201
0.00013865
0.000138637
0.000138243
0.000137304
0.000135721
0.000134016
0.000133421
0.000132562
0.000131331
0.000130729
0.00013052
0.00013046
0.000130445
0.000130441
0.000130441
0.000130447
0.000130477
0.000130599
0.000131003
0.000131988
0.000133096
0.00013525
0.000137069
0.000138001
0.000137989
0.000136667
0.000132674
0.000122558
9.83446e-05
9.83098e-05
0.000122353
0.000132339
0.000136292
0.000137739
0.0001382
0.000138282
0.000138156
0.000137799
0.000137153
0.000136273
0.00013528
0.00013385
0.000132251
0.000131492
0.000131233
0.000131161
0.000131143
0.00013114
0.000131142
0.000131156
0.000131218
0.000131451
0.000132158
0.000133712
0.000135257
0.000136631
0.000137547
0.000137917
0.00013766
0.000136285
0.000132351
0.000122365
9.8317e-05
9.81978e-05
0.000121658
0.000131245
0.000134963
0.000136297
0.000136723
0.000136831
0.000136811
0.000136684
0.000136408
0.000135926
0.00013517
0.000134069
0.000132892
0.000132284
0.000132061
0.000131998
0.000131983
0.000131981
0.000131982
0.000131995
0.000132054
0.000132269
0.000132865
0.000134036
0.000135174
0.000136017
0.000136492
0.000136612
0.000136279
0.000134975
0.000131261
0.00012167
9.82045e-05
9.77883e-05
0.00011945
0.000128048
0.00013125
0.00013235
0.000132689
0.000132782
0.000132794
0.000132758
0.00013265
0.000132422
0.000132012
0.000131406
0.000130768
0.000130413
0.000130273
0.000130231
0.000130222
0.00013022
0.000130221
0.00013023
0.000130271
0.000130408
0.00013076
0.000131397
0.000132012
0.000132438
0.000132651
0.000132661
0.000132359
0.000131268
0.000128065
0.000119462
9.77944e-05
9.65224e-05
0.000113089
0.000119454
0.000121666
0.000122366
0.000122567
0.000122622
0.000122636
0.000122633
0.000122604
0.000122526
0.00012237
0.00012213
0.000121872
0.00012172
0.000121657
0.000121636
0.000121631
0.00012163
0.000121631
0.000121636
0.000121657
0.000121719
0.00012187
0.000122128
0.000122369
0.000122527
0.000122595
0.000122574
0.000122384
0.000121684
0.000119468
0.000113099
9.65275e-05
9.37565e-05
9.65235e-05
9.77919e-05
9.82042e-05
9.83195e-05
9.83506e-05
9.83613e-05
9.83677e-05
9.8373e-05
9.83763e-05
9.83744e-05
9.83623e-05
9.83379e-05
9.83073e-05
9.82879e-05
9.82778e-05
9.82724e-05
9.82687e-05
9.82672e-05
9.82689e-05
9.82725e-05
9.82777e-05
9.82873e-05
9.83062e-05
9.83361e-05
9.836e-05
9.83719e-05
9.83726e-05
9.83635e-05
9.83318e-05
9.82148e-05
9.78002e-05
9.65294e-05
9.37602e-05
0.000143945
0.000156925
0.000162879
0.000165018
0.000165688
0.000165873
0.000165919
0.000165929
0.000165932
0.000165932
0.000165932
0.000165932
0.000165932
0.000165931
0.000165931
0.000165931
0.00016593
0.00016593
0.00016593
0.00016593
0.00016593
0.000165931
0.000165931
0.000165931
0.000165932
0.000165931
0.000165929
0.000165919
0.000165874
0.000165689
0.000165019
0.00016288
0.000156926
0.000143946
0.000156925
0.000436187
0.000519806
0.000549336
0.00055942
0.000562509
0.000563343
0.000563536
0.000563566
0.000563554
0.000563531
0.000563507
0.000563486
0.000563468
0.000563453
0.000563442
0.000563434
0.00056343
0.00056343
0.000563434
0.000563442
0.000563453
0.000563467
0.000563485
0.000563504
0.00056352
0.000563498
0.000563315
0.000562488
0.000559403
0.000549321
0.000519791
0.000436177
0.000156926
0.000162881
0.000519825
0.000636599
0.000680806
0.000697027
0.000702391
0.000703958
0.000704354
0.000704422
0.000704401
0.000704362
0.000704333
0.000704318
0.000704312
0.00070431
0.000704307
0.000704303
0.000704301
0.000704301
0.000704304
0.000704308
0.000704312
0.000704314
0.00070432
0.000704331
0.00070434
0.000704286
0.000703918
0.000702373
0.000697022
0.000680805
0.000636596
0.000519824
0.000162883
0.000165022
0.000549366
0.000680819
0.000732702
0.000752556
0.000759403
0.000761475
0.000761983
0.000762003
0.000761864
0.000761707
0.000761614
0.000761582
0.000761585
0.000761596
0.000761596
0.00076159
0.000761586
0.000761587
0.000761591
0.000761598
0.000761599
0.000761589
0.000761586
0.000761612
0.000761675
0.0007617
0.000761301
0.000759325
0.000752535
0.000732704
0.000680825
0.000549371
0.000165026
0.000165693
0.000559454
0.000697047
0.000752563
0.000774281
0.000781915
0.000784205
0.000784615
0.000784299
0.000783662
0.000783037
0.000782719
0.000782626
0.000782648
0.000782688
0.000782675
0.000782646
0.000782629
0.000782629
0.000782648
0.000782678
0.000782692
0.000782653
0.000782631
0.000782717
0.000783001
0.000783468
0.000783477
0.000781564
0.000774154
0.000752535
0.000697049
0.000559461
0.000165698
0.000165878
0.000562544
0.000702413
0.000759413
0.000781918
0.000789826
0.000791983
0.000791796
0.00079029
0.000787969
0.000785819
0.000784959
0.000784827
0.000784982
0.000785143
0.000785084
0.000784978
0.00078492
0.000784921
0.00078498
0.000785088
0.000785148
0.000784988
0.000784833
0.000784958
0.000785781
0.000787761
0.000789414
0.000788562
0.000781424
0.000759263
0.000702382
0.000562544
0.000165884
0.000165924
0.000563374
0.000703978
0.000761485
0.000784213
0.000791995
0.000793448
0.000791471
0.000786484
0.000779105
0.000772439
0.000771024
0.000771507
0.000772369
0.000773004
0.000772843
0.000772562
0.000772421
0.000772422
0.000772565
0.000772847
0.00077301
0.000772376
0.000771514
0.000771025
0.000772402
0.000778897
0.000785591
0.000788172
0.000782698
0.000760992
0.00070385
0.000563351
0.00016593
0.000165934
0.000563563
0.00070437
0.000761996
0.000784644
0.000791872
0.000791594
0.000785291
0.000771417
0.000749941
0.000729739
0.000731802
0.000736778
0.000740411
0.000742509
0.00074223
0.000741703
0.000741459
0.00074146
0.000741706
0.000742234
0.000742515
0.000740419
0.000736786
0.000731806
0.000729707
0.00074974
0.000770529
0.00078198
0.000780789
0.00076073
0.000704022
0.000563486
0.00016594
0.000165936
0.000563586
0.000704436
0.000762034
0.000784405
0.000790585
0.000787088
0.000772199
0.000738369
0.000677948
0.0006074
0.000644879
0.000671351
0.00068364
0.00068902
0.000689024
0.0006885
0.000688267
0.000688268
0.000688502
0.000689028
0.000689026
0.000683649
0.000671363
0.000644891
0.000607377
0.000677765
0.000737498
0.000768895
0.00077627
0.000759401
0.000703703
0.000563414
0.000165939
0.000165936
0.000563569
0.000704421
0.000761946
0.000783963
0.000788831
0.000781038
0.000753145
0.000681136
0.000508747
0.000187566
0.000464736
0.000574689
0.000607908
0.000617896
0.000619758
0.000619996
0.000619997
0.000619998
0.000619998
0.000619761
0.000617902
0.000607919
0.000574712
0.00046478
0.000187559
0.000508599
0.000680285
0.000749844
0.000770208
0.00075762
0.00070322
0.000563276
0.000165934
0.000165935
0.000563544
0.0007044
0.000761893
0.000783725
0.000787846
0.000777274
0.000738709
0.000618474
0.000189615
0.00017967
0.000484988
0.000546242
0.000559677
0.000563059
0.000563748
0.000563844
0.000563844
0.000563749
0.000563061
0.000559682
0.000546254
0.000485023
0.000179677
0.000189582
0.000617647
0.0007354
0.000766422
0.000756603
0.00070294
0.000563173
0.000165931
0.000165934
0.000563519
0.000704401
0.000761953
0.00078398
0.000788805
0.000780828
0.000752422
0.000679262
0.000504736
0.000186272
0.000447631
0.000549159
0.00057774
0.000583271
0.00058745
0.000588376
0.000588441
0.000588439
0.000588372
0.000587443
0.000583261
0.000577728
0.000549151
0.000447617
0.000186253
0.00050452
0.000678376
0.000749095
0.000769963
0.000757537
0.000703151
0.000563168
0.000165931
0.000165933
0.000563499
0.000704416
0.000762073
0.000784464
0.000790549
0.000786637
0.000770522
0.0007337
0.000666951
0.000585193
0.000601833
0.000606155
0.00060837
0.000608718
0.00060948
0.000609563
0.000609498
0.000609497
0.000609559
0.000609473
0.000608706
0.000608352
0.000606127
0.00060179
0.000585117
0.000666718
0.000732793
0.000767181
0.000775758
0.000759258
0.000703593
0.000563226
0.000165932
0.000165932
0.000563483
0.00070443
0.000762177
0.000784875
0.000791966
0.000791042
0.000782764
0.000763904
0.000731656
0.00069177
0.000664122
0.000636355
0.000625499
0.000622119
0.000621254
0.000620973
0.000620876
0.000620875
0.000620971
0.000621249
0.00062211
0.000625483
0.00063633
0.000664093
0.00069171
0.000731426
0.000762989
0.000779409
0.000780145
0.000760648
0.000703964
0.000563277
0.000165933
0.00016593
0.000563469
0.000704438
0.000762242
0.000785119
0.000792773
0.000793423
0.000788917
0.000777476
0.000756214
0.000724685
0.000687353
0.000649179
0.000633029
0.0006278
0.000626343
0.00062596
0.00062587
0.000625869
0.00062596
0.00062634
0.000627794
0.000633016
0.000649159
0.000687342
0.000724635
0.000755989
0.000776557
0.000785552
0.00078251
0.000761431
0.000704176
0.000563302
0.000165932
0.000165929
0.000563459
0.00070444
0.000762274
0.000785235
0.000793139
0.000794452
0.000791441
0.000782672
0.000764791
0.00073512
0.000695214
0.000653778
0.000635784
0.000629854
0.000628203
0.000627801
0.000627721
0.000627721
0.000627801
0.000628203
0.000629851
0.000635773
0.000653761
0.000695207
0.000735074
0.000764568
0.000781751
0.00078807
0.000783528
0.00076178
0.000704271
0.000563309
0.000165931
0.000165927
0.000563452
0.000704441
0.000762288
0.000785284
0.00079328
0.000794829
0.000792322
0.000784396
0.000767474
0.000738206
0.000697574
0.000655201
0.000636649
0.000630501
0.000628795
0.000628391
0.000628318
0.000628318
0.000628392
0.000628795
0.000630498
0.000636639
0.000655185
0.000697568
0.000738161
0.000767252
0.000783474
0.000788947
0.000783899
0.000761912
0.000704307
0.000563308
0.00016593
0.000165926
0.000563448
0.000704441
0.000762294
0.000785301
0.000793326
0.000794944
0.000792578
0.000784876
0.00076819
0.000738996
0.000698177
0.000655575
0.000636879
0.000630674
0.000628955
0.000628553
0.000628483
0.000628484
0.000628554
0.000628956
0.000630672
0.00063687
0.00065556
0.000698171
0.000738953
0.000767969
0.000783955
0.000789203
0.000784012
0.000761955
0.000704318
0.000563305
0.000165928
0.000165926
0.000563447
0.000704441
0.000762296
0.000785304
0.00079333
0.000794949
0.000792584
0.000784883
0.000768197
0.000739003
0.000698184
0.000655586
0.000636887
0.000630679
0.00062896
0.000628558
0.000628489
0.00062849
0.000628559
0.00062896
0.000630677
0.000636878
0.000655571
0.000698178
0.000738961
0.000767978
0.000783963
0.00078921
0.000784018
0.000761958
0.00070432
0.000563305
0.000165928
0.000165926
0.000563449
0.000704443
0.000762293
0.000785292
0.000793292
0.000794844
0.000792341
0.000784419
0.000767499
0.00073823
0.000697598
0.000655238
0.000636675
0.00063052
0.000628813
0.00062841
0.000628339
0.00062834
0.000628412
0.000628814
0.000630519
0.000636668
0.000655225
0.000697593
0.000738189
0.000767281
0.000783501
0.000788969
0.000783916
0.000761923
0.000704311
0.000563305
0.000165928
0.000165927
0.000563455
0.000704443
0.000762283
0.00078525
0.000793159
0.000794479
0.000791475
0.000782715
0.000764842
0.000735174
0.000695267
0.000653855
0.000635845
0.000629905
0.000628253
0.000627853
0.000627777
0.000627778
0.000627856
0.000628256
0.000629906
0.000635841
0.000653846
0.000695265
0.000735134
0.000764627
0.000781802
0.00078811
0.000783557
0.000761799
0.000704279
0.000563305
0.000165929
0.000165928
0.000563464
0.000704442
0.000762255
0.00078514
0.000792802
0.000793462
0.00078897
0.000777548
0.000756308
0.000724796
0.000687463
0.000649325
0.000633154
0.000627914
0.000626459
0.000626083
0.000625998
0.000626
0.000626088
0.000626465
0.000627921
0.000633156
0.000649323
0.000687466
0.000724762
0.000756099
0.000776643
0.000785615
0.000782553
0.000761458
0.000704187
0.000563297
0.00016593
0.000165929
0.000563476
0.000704436
0.000762194
0.000784902
0.000792005
0.000791096
0.000782841
0.000764017
0.000731824
0.000691998
0.000664338
0.0006366
0.000625718
0.000622333
0.000621476
0.000621209
0.000621121
0.000621124
0.000621217
0.00062149
0.000622349
0.000625732
0.000636612
0.000664354
0.000691975
0.000731627
0.000763125
0.0007795
0.000780206
0.000760684
0.000703978
0.000563269
0.00016593
0.000165931
0.000563491
0.000704422
0.000762092
0.000784497
0.000790597
0.000786704
0.000770623
0.000733862
0.000667231
0.000585643
0.000602263
0.000606462
0.000608622
0.000608968
0.000609744
0.000609849
0.000609799
0.000609804
0.000609862
0.000609764
0.000608989
0.000608641
0.000606483
0.000602308
0.000585646
0.00066706
0.000732986
0.000767297
0.000775833
0.000759302
0.00070361
0.000563215
0.000165929
0.000165932
0.000563506
0.000704404
0.000761971
0.000784013
0.000788854
0.000780898
0.000752527
0.00067944
0.000505101
0.000186368
0.000447953
0.000549065
0.00057748
0.000582926
0.000587108
0.000588062
0.000588146
0.000588151
0.000588074
0.000587118
0.00058291
0.000577421
0.000548991
0.000448055
0.000186362
0.000504984
0.000678565
0.000749195
0.00077003
0.000757579
0.000703164
0.000563149
0.000165927
0.000165933
0.00056352
0.000704384
0.000761885
0.000783729
0.000787863
0.000777303
0.000738746
0.000618508
0.000189601
0.000179343
0.000482536
0.000542863
0.000555701
0.000558921
0.000559596
0.000559696
0.000559693
0.000559575
0.000558841
0.000555455
0.000542288
0.000481638
0.000179143
0.000189517
0.000617526
0.00073534
0.000766413
0.000756606
0.000702929
0.000563136
0.000165927
0.000165932
0.000563498
0.000704312
0.000761809
0.000783813
0.000788679
0.000780877
0.000752935
0.000680791
0.000508214
0.000187218
0.000459017
0.00056467
0.000593229
0.000600391
0.000601744
0.00060201
0.000602054
0.000602038
0.000601929
0.00060144
0.000599414
0.000590684
0.00055987
0.000454788
0.000186709
0.00050687
0.000679154
0.000749274
0.000769928
0.000757457
0.000703104
0.000563182
0.000165928
0.000165922
0.000563318
0.000703938
0.000761359
0.000783629
0.000789756
0.000786194
0.000771104
0.000736664
0.000674611
0.000600126
0.000628683
0.000642537
0.000640063
0.000637522
0.000636301
0.000635905
0.000635797
0.000635764
0.000635728
0.000635595
0.00063507
0.000632977
0.000627505
0.000614565
0.000591221
0.000669548
0.000733542
0.000766933
0.000775147
0.000758641
0.000703179
0.000563112
0.000165923
0.000165877
0.000562495
0.000702394
0.000759366
0.000781638
0.000788675
0.000788236
0.00078154
0.000766467
0.000741689
0.000713597
0.000699928
0.000680163
0.00065451
0.00064377
0.000640345
0.00063942
0.0006392
0.000639156
0.000639162
0.000639266
0.000639797
0.000642029
0.000650429
0.000673594
0.00069661
0.000732677
0.000761754
0.000776876
0.000777211
0.000757957
0.000702006
0.000562378
0.000165881
0.000165693
0.000559411
0.000697043
0.00075257
0.000774204
0.000781467
0.000782619
0.000780143
0.000773721
0.00076242
0.000746524
0.000727059
0.000699334
0.000667915
0.000654725
0.000650519
0.00064938
0.00064911
0.00064906
0.000649092
0.000649317
0.00065032
0.000654161
0.00066676
0.000697962
0.000727556
0.000752372
0.000768634
0.00077552
0.000772061
0.000751922
0.000696873
0.000559346
0.000165698
0.000165023
0.000549328
0.000680823
0.000732734
0.000752576
0.000759297
0.000760931
0.000760257
0.000757581
0.000752138
0.000742775
0.000728159
0.000707388
0.000685575
0.000675125
0.000671443
0.000670355
0.000670074
0.000670021
0.000670072
0.000670345
0.000671399
0.000674988
0.000685314
0.000707166
0.00072859
0.000744473
0.000753609
0.000756395
0.000751604
0.000732467
0.000680758
0.000549288
0.000165028
0.000162882
0.000519792
0.000636606
0.000680844
0.000697079
0.000702414
0.000703838
0.000703798
0.000702766
0.000700328
0.000695576
0.000687472
0.000675931
0.000664105
0.000657748
0.000655264
0.000654463
0.000654238
0.000654196
0.000654245
0.000654474
0.000655272
0.000657739
0.000664076
0.000675932
0.000687655
0.000696007
0.000700434
0.000701151
0.000696691
0.000680753
0.000636583
0.000519761
0.000162887
0.000156927
0.000436168
0.000519818
0.000549372
0.00055947
0.00056256
0.000563358
0.000563422
0.000563092
0.000562222
0.000560406
0.000557162
0.000552489
0.00054767
0.000544862
0.000543664
0.000543242
0.000543111
0.000543085
0.000543122
0.000543265
0.000543696
0.000544897
0.000547709
0.000552541
0.000557257
0.000560522
0.000562142
0.000562129
0.000559346
0.000549344
0.000519804
0.000436139
0.000156931
0.000143948
0.000156928
0.000162886
0.00016503
0.000165704
0.000165893
0.000165942
0.000165953
0.000165946
0.000165916
0.000165841
0.000165694
0.00016547
0.000165231
0.000165087
0.000165024
0.000165001
0.000164992
0.000164991
0.000164993
0.000165002
0.000165025
0.000165088
0.000165231
0.00016547
0.000165695
0.000165842
0.000165907
0.00016589
0.000165712
0.000165038
0.000162892
0.000156931
0.000143952
0.00014903
0.000167195
0.000175754
0.00017901
0.000180105
0.000180431
0.000180518
0.000180538
0.000180542
0.000180542
0.000180541
0.00018054
0.000180538
0.000180537
0.000180537
0.000180536
0.000180535
0.000180535
0.000180535
0.000180535
0.000180536
0.000180536
0.000180537
0.000180538
0.000180539
0.00018054
0.000180536
0.000180517
0.000180431
0.000180105
0.00017901
0.000175754
0.000167195
0.000149031
0.000167194
0.000553917
0.000681684
0.000729386
0.000746617
0.000752232
0.000753846
0.000754243
0.000754307
0.000754281
0.000754232
0.000754179
0.000754134
0.000754097
0.000754068
0.000754045
0.000754028
0.00075402
0.000754019
0.000754027
0.000754043
0.000754066
0.000754094
0.000754129
0.00075417
0.000754201
0.000754154
0.000753777
0.000752179
0.000746574
0.000729347
0.000681646
0.000553889
0.000167195
0.000175755
0.000681714
0.000867914
0.000942186
0.000970735
0.000980668
0.000983728
0.000984535
0.000984668
0.000984605
0.000984496
0.000984403
0.000984343
0.000984311
0.000984293
0.000984275
0.000984261
0.000984253
0.000984253
0.000984261
0.000984275
0.000984293
0.000984311
0.000984341
0.000984391
0.000984437
0.000984343
0.000983601
0.000980597
0.000970697
0.000942159
0.000867887
0.000681693
0.000175757
0.000179013
0.000729433
0.000942209
0.00103059
0.00106591
0.00107868
0.00108273
0.00108376
0.00108378
0.00108344
0.00108304
0.00108275
0.00108259
0.00108253
0.00108252
0.00108249
0.00108245
0.00108244
0.00108244
0.00108246
0.00108249
0.00108252
0.00108253
0.00108259
0.00108273
0.00108296
0.00108307
0.00108229
0.00107845
0.00106582
0.00103055
0.000942187
0.000729419
0.000179016
0.00018011
0.000746672
0.000970771
0.00106592
0.00110478
0.00111908
0.00112356
0.00112436
0.00112367
0.00112229