/*--------------------------------*- C++ -*----------------------------------*\
| =========                 |                                                 |
| \\      /  F ield         | OpenFOAM: The Open Source CFD Toolbox           |
|  \\    /   O peration     | Version:  2112                                  |
|   \\  /    A nd           | Website:  www.openfoam.com                      |
|    \\/     M anipulation  |                                                 |
\*---------------------------------------------------------------------------*/
FoamFile
{
    version     2.0;
    format      ascii;
    arch        "LSB;label=32;scalar=64";
    class       volScalarField;
    location    "1.5";
    object      p;
}
// * * * * * * * * * * * * * * * * * * * * * * * * * * * * * * * * * * * * * //

dimensions      [0 2 -2 0 0 0 0];

internalField   nonuniform List<scalar> 
64906
(
-9.43592e-06
-9.41239e-06
-9.41304e-06
-9.44016e-06
-9.49795e-06
-9.58686e-06
-9.7067e-06
-9.85681e-06
-1.00348e-05
-1.02371e-05
-1.0455e-05
-1.068e-05
-1.0897e-05
-1.10974e-05
-1.12711e-05
-1.14135e-05
-1.15202e-05
-1.15897e-05
-1.16209e-05
-1.16141e-05
-1.15705e-05
-1.14921e-05
-1.13833e-05
-1.12491e-05
-1.10996e-05
-1.09433e-05
-1.07954e-05
-1.06641e-05
-1.0558e-05
-1.04806e-05
-1.04338e-05
-1.0417e-05
-1.04247e-05
-1.04483e-05
-9.3803e-06
-9.2602e-06
-9.19808e-06
-9.17084e-06
-9.18553e-06
-9.2365e-06
-9.31798e-06
-9.42618e-06
-9.55682e-06
-9.70659e-06
-9.86591e-06
-1.00298e-05
-1.01837e-05
-1.03251e-05
-1.04462e-05
-1.05462e-05
-1.06229e-05
-1.06763e-05
-1.0706e-05
-1.07122e-05
-1.06956e-05
-1.06563e-05
-1.0597e-05
-1.05184e-05
-1.04284e-05
-1.03295e-05
-1.02367e-05
-1.01553e-05
-1.00966e-05
-1.00673e-05
-1.00768e-05
-1.01327e-05
-1.02299e-05
-1.03655e-05
-9.37278e-06
-9.20967e-06
-9.09341e-06
-9.02242e-06
-9.00512e-06
-9.03191e-06
-9.09396e-06
-9.18665e-06
-9.30556e-06
-9.44956e-06
-9.60574e-06
-9.77091e-06
-9.91826e-06
-1.00495e-05
-1.01557e-05
-1.02419e-05
-1.03073e-05
-1.03542e-05
-1.03829e-05
-1.03936e-05
-1.03862e-05
-1.03588e-05
-1.03125e-05
-1.02422e-05
-1.01572e-05
-1.00557e-05
-9.96564e-06
-9.89092e-06
-9.84821e-06
-9.84469e-06
-9.89378e-06
-1.00064e-05
-1.0171e-05
-1.03783e-05
-9.43158e-06
-9.22858e-06
-9.0703e-06
-8.9648e-06
-8.92547e-06
-8.94157e-06
-9.0034e-06
-9.10833e-06
-9.25466e-06
-9.44754e-06
-9.66767e-06
-9.91273e-06
-1.01195e-05
-1.0295e-05
-1.04258e-05
-1.05273e-05
-1.06003e-05
-1.06505e-05
-1.06787e-05
-1.0685e-05
-1.06691e-05
-1.06253e-05
-1.05535e-05
-1.04383e-05
-1.02938e-05
-1.01129e-05
-9.96108e-06
-9.84131e-06
-9.77869e-06
-9.77665e-06
-9.84896e-06
-1.0005e-05
-1.0225e-05
-1.04887e-05
-9.56375e-06
-9.32671e-06
-9.139e-06
-9.0126e-06
-8.96591e-06
-8.98888e-06
-9.07371e-06
-9.22416e-06
-9.4467e-06
-9.76196e-06
-1.01426e-05
-1.05913e-05
-1.09521e-05
-1.12445e-05
-1.14489e-05
-1.1602e-05
-1.17059e-05
-1.17715e-05
-1.17999e-05
-1.17911e-05
-1.17445e-05
-1.16493e-05
-1.15044e-05
-1.12727e-05
-1.09758e-05
-1.05932e-05
-1.02859e-05
-1.00499e-05
-9.9206e-06
-9.88811e-06
-9.96077e-06
-1.01418e-05
-1.04013e-05
-1.07118e-05
-9.76798e-06
-9.49356e-06
-9.28388e-06
-9.14747e-06
-9.10664e-06
-9.15282e-06
-9.28238e-06
-9.51062e-06
-9.86063e-06
-1.03854e-05
-1.10562e-05
-1.19088e-05
-1.25521e-05
-1.30525e-05
-1.33868e-05
-1.36342e-05
-1.37964e-05
-1.3892e-05
-1.39213e-05
-1.38843e-05
-1.37811e-05
-1.35931e-05
-1.33196e-05
-1.28811e-05
-1.23039e-05
-1.15196e-05
-1.09309e-05
-1.0493e-05
-1.02468e-05
-1.01522e-05
-1.02043e-05
-1.03962e-05
-1.0687e-05
-1.10466e-05
-1.00541e-05
-9.70459e-06
-9.48791e-06
-9.35066e-06
-9.32695e-06
-9.41085e-06
-9.60431e-06
-9.93821e-06
-1.04623e-05
-1.12916e-05
-1.23995e-05
-1.40236e-05
-1.51139e-05
-1.59247e-05
-1.64462e-05
-1.68322e-05
-1.70807e-05
-1.7222e-05
-1.72532e-05
-1.71745e-05
-1.69884e-05
-1.66644e-05
-1.62056e-05
-1.54577e-05
-1.44361e-05
-1.28793e-05
-1.18698e-05
-1.11356e-05
-1.07256e-05
-1.0541e-05
-1.05552e-05
-1.07478e-05
-1.10667e-05
-1.14909e-05
-1.03724e-05
-9.98467e-06
-9.74604e-06
-9.61165e-06
-9.61704e-06
-9.75569e-06
-1.00335e-05
-1.04928e-05
-1.12164e-05
-1.23842e-05
-1.40173e-05
-1.71401e-05
-1.88261e-05
-2.00617e-05
-2.08448e-05
-2.14322e-05
-2.18084e-05
-2.20179e-05
-2.20526e-05
-2.1912e-05
-2.16042e-05
-2.10832e-05
-2.03654e-05
-1.91924e-05
-1.75767e-05
-1.45086e-05
-1.30122e-05
-1.19427e-05
-1.1341e-05
-1.10455e-05
-1.10032e-05
-1.11834e-05
-1.15127e-05
-1.20593e-05
-1.07338e-05
-1.03033e-05
-1.00435e-05
-9.91819e-06
-9.96678e-06
-1.01803e-05
-1.05638e-05
-1.11606e-05
-1.20517e-05
-1.35777e-05
-1.56182e-05
-2.16817e-05
-2.37727e-05
-2.54716e-05
-2.65667e-05
-2.73853e-05
-2.7912e-05
-2.82033e-05
-2.8243e-05
-2.80306e-05
-2.75811e-05
-2.68359e-05
-2.58099e-05
-2.41696e-05
-2.21532e-05
-1.61081e-05
-1.43003e-05
-1.28465e-05
-1.208e-05
-1.16583e-05
-1.15394e-05
-1.16985e-05
-1.20599e-05
-1.26818e-05
-1.11301e-05
-1.06498e-05
-1.03728e-05
-1.02701e-05
-1.03901e-05
-1.07247e-05
-1.12788e-05
-1.20483e-05
-1.31659e-05
-1.56504e-05
-1.35315e-05
-2.70023e-05
-2.9379e-05
-3.18292e-05
-3.34033e-05
-3.45899e-05
-3.53565e-05
-3.57698e-05
-3.58162e-05
-3.5495e-05
-3.48185e-05
-3.37166e-05
-3.22187e-05
-2.98245e-05
-2.75522e-05
-1.38999e-05
-1.64346e-05
-1.40122e-05
-1.30414e-05
-1.2455e-05
-1.21947e-05
-1.22943e-05
-1.26734e-05
-1.3376e-05
-1.15454e-05
-1.1008e-05
-1.07142e-05
-1.06413e-05
-1.08527e-05
-1.1349e-05
-1.21222e-05
-1.30562e-05
-1.39835e-05
-1.15764e-05
-4.01219e-05
-3.71695e-05
-3.88111e-05
-4.0551e-05
-4.20139e-05
-4.30047e-05
-4.3522e-05
-4.35761e-05
-4.31662e-05
-4.22811e-05
-4.0918e-05
-3.92657e-05
-3.76767e-05
-4.05475e-05
-1.28335e-05
-1.50671e-05
-1.41661e-05
-1.33844e-05
-1.2925e-05
-1.29278e-05
-1.33148e-05
-1.41148e-05
-1.1965e-05
-1.13687e-05
-1.10635e-05
-1.10371e-05
-1.13843e-05
-1.21632e-05
-1.35214e-05
-1.57142e-05
-1.94253e-05
-2.45806e-05
-3.68926e-05
-3.68846e-05
-4.12305e-05
-4.49289e-05
-4.79871e-05
-5.02485e-05
-5.16745e-05
-5.23757e-05
-5.24372e-05
-5.18593e-05
-5.05577e-05
-4.84218e-05
-4.54919e-05
-4.19262e-05
-3.77228e-05
-3.80402e-05
-2.55968e-05
-2.04873e-05
-1.68468e-05
-1.48296e-05
-1.38236e-05
-1.36176e-05
-1.39758e-05
-1.48751e-05
-1.23665e-05
-1.17104e-05
-1.1387e-05
-1.13884e-05
-1.18255e-05
-1.2773e-05
-1.44022e-05
-1.69452e-05
-2.07896e-05
-2.57575e-05
-3.39897e-05
-3.91093e-05
-4.44413e-05
-4.9131e-05
-5.29975e-05
-5.57224e-05
-5.74154e-05
-5.82378e-05
-5.8305e-05
-5.76174e-05
-5.60614e-05
-5.3476e-05
-4.97531e-05
-4.52006e-05
-3.9994e-05
-3.50402e-05
-2.68468e-05
-2.18956e-05
-1.81187e-05
-1.57638e-05
-1.45222e-05
-1.42177e-05
-1.45864e-05
-1.5594e-05
-1.27362e-05
-1.20252e-05
-1.16825e-05
-1.1701e-05
-1.22006e-05
-1.32593e-05
-1.50494e-05
-1.77949e-05
-2.18464e-05
-2.71712e-05
-3.42304e-05
-4.03784e-05
-4.66846e-05
-5.20899e-05
-5.6466e-05
-5.9465e-05
-6.13073e-05
-6.21905e-05
-6.22617e-05
-6.15217e-05
-5.98254e-05
-5.69756e-05
-5.27536e-05
-4.74944e-05
-4.13331e-05
-3.52862e-05
-2.82704e-05
-2.29747e-05
-1.90039e-05
-1.64647e-05
-1.50981e-05
-1.47466e-05
-1.51407e-05
-1.62466e-05
-1.30594e-05
-1.23001e-05
-1.19349e-05
-1.19549e-05
-1.2482e-05
-1.35888e-05
-1.54363e-05
-1.82388e-05
-2.23157e-05
-2.76768e-05
-3.44009e-05
-4.10839e-05
-4.79514e-05
-5.36896e-05
-5.82797e-05
-6.13785e-05
-6.32688e-05
-6.4168e-05
-6.42421e-05
-6.34917e-05
-6.1753e-05
-5.88089e-05
-5.43781e-05
-4.87891e-05
-4.20644e-05
-3.54685e-05
-2.87944e-05
-2.34699e-05
-1.94846e-05
-1.69066e-05
-1.55156e-05
-1.5171e-05
-1.56088e-05
-1.68024e-05
-1.3329e-05
-1.25305e-05
-1.21447e-05
-1.216e-05
-1.26984e-05
-1.38263e-05
-1.56949e-05
-1.85134e-05
-2.25861e-05
-2.79565e-05
-3.46373e-05
-4.15838e-05
-4.87149e-05
-5.46135e-05
-5.92954e-05
-6.24195e-05
-6.43138e-05
-6.52102e-05
-6.52867e-05
-6.4544e-05
-6.28057e-05
-5.98403e-05
-5.53213e-05
-4.95736e-05
-4.25859e-05
-3.57215e-05
-2.90944e-05
-2.37659e-05
-1.97944e-05
-1.72166e-05
-1.58326e-05
-1.55106e-05
-1.59914e-05
-1.72547e-05
-1.35396e-05
-1.27121e-05
-1.23092e-05
-1.23174e-05
-1.28583e-05
-1.39937e-05
-1.58687e-05
-1.86916e-05
-2.27638e-05
-2.8157e-05
-3.48698e-05
-4.19544e-05
-4.92278e-05
-5.52081e-05
-5.99313e-05
-6.30617e-05
-6.49531e-05
-6.58458e-05
-6.59247e-05
-6.51905e-05
-6.34594e-05
-6.04911e-05
-5.59333e-05
-5.01052e-05
-4.29758e-05
-3.59719e-05
-2.9315e-05
-2.39676e-05
-2.0004e-05
-1.74346e-05
-1.60655e-05
-1.57683e-05
-1.62848e-05
-1.75997e-05
-1.36894e-05
-1.28436e-05
-1.24299e-05
-1.24334e-05
-1.29759e-05
-1.41174e-05
-1.60005e-05
-1.8835e-05
-2.29232e-05
-2.83517e-05
-3.51158e-05
-4.22911e-05
-4.9655e-05
-5.56952e-05
-6.04546e-05
-6.36004e-05
-6.54985e-05
-6.63941e-05
-6.64758e-05
-6.57439e-05
-6.40107e-05
-6.10305e-05
-5.64391e-05
-5.05524e-05
-4.33323e-05
-3.62367e-05
-2.95294e-05
-2.41482e-05
-2.0173e-05
-1.76005e-05
-1.6237e-05
-1.59544e-05
-1.64931e-05
-1.78401e-05
-1.37776e-05
-1.29245e-05
-1.25069e-05
-1.25097e-05
-1.30557e-05
-1.42053e-05
-1.61021e-05
-1.89584e-05
-2.30788e-05
-2.85524e-05
-3.53753e-05
-4.26161e-05
-5.00411e-05
-5.61345e-05
-6.09347e-05
-6.41105e-05
-6.60285e-05
-6.69355e-05
-6.70203e-05
-6.6283e-05
-6.4535e-05
-6.15284e-05
-5.68996e-05
-5.0962e-05
-4.36787e-05
-3.65157e-05
-2.97496e-05
-2.43222e-05
-2.03154e-05
-1.7725e-05
-1.63532e-05
-1.60723e-05
-1.66181e-05
-1.7978e-05
-1.38046e-05
-1.29552e-05
-1.25407e-05
-1.25467e-05
-1.30978e-05
-1.42571e-05
-1.61728e-05
-1.90605e-05
-2.32298e-05
-2.8763e-05
-3.56503e-05
-4.29369e-05
-5.03997e-05
-5.65356e-05
-6.13787e-05
-6.45972e-05
-6.65473e-05
-6.74738e-05
-6.75627e-05
-6.68139e-05
-6.50409e-05
-6.1998e-05
-5.73264e-05
-5.13434e-05
-4.40229e-05
-3.68107e-05
-2.99747e-05
-2.44887e-05
-2.04347e-05
-1.78108e-05
-1.64196e-05
-1.61237e-05
-1.6661e-05
-1.8015e-05
-1.37723e-05
-1.29373e-05
-1.25318e-05
-1.25433e-05
-1.3098e-05
-1.42642e-05
-1.61982e-05
-1.91208e-05
-2.33516e-05
-2.89556e-05
-3.59403e-05
-4.32469e-05
-5.06935e-05
-5.68489e-05
-6.17251e-05
-6.49915e-05
-6.6981e-05
-6.79327e-05
-6.80264e-05
-6.72616e-05
-6.54573e-05
-6.23727e-05
-5.7673e-05
-5.16732e-05
-4.4364e-05
-3.71254e-05
-3.01882e-05
-2.46263e-05
-2.05059e-05
-1.78418e-05
-1.64224e-05
-1.61063e-05
-1.6623e-05
-1.79524e-05
-1.36835e-05
-1.28728e-05
-1.24801e-05
-1.24947e-05
-1.30439e-05
-1.42018e-05
-1.61355e-05
-1.90753e-05
-2.33647e-05
-2.90562e-05
-3.62317e-05
-4.35003e-05
-5.08181e-05
-5.69093e-05
-6.17603e-05
-6.50503e-05
-6.70695e-05
-6.80455e-05
-6.81458e-05
-6.73699e-05
-6.55478e-05
-6.245e-05
-5.77823e-05
-5.18503e-05
-4.46629e-05
-3.74483e-05
-3.03144e-05
-2.46596e-05
-2.04746e-05
-1.77837e-05
-1.63478e-05
-1.60139e-05
-1.65037e-05
-1.77916e-05
-1.3545e-05
-1.27677e-05
-1.23902e-05
-1.24029e-05
-1.29318e-05
-1.40553e-05
-1.59507e-05
-1.88592e-05
-2.31646e-05
-2.89043e-05
-3.6571e-05
-4.37061e-05
-5.06057e-05
-5.64682e-05
-6.1176e-05
-6.44203e-05
-6.64301e-05
-6.74163e-05
-6.75269e-05
-6.67616e-05
-6.49682e-05
-6.19352e-05
-5.74235e-05
-5.17287e-05
-4.49474e-05
-3.78317e-05
-3.02034e-05
-2.44945e-05
-2.02853e-05
-1.76117e-05
-1.61896e-05
-1.58514e-05
-1.63123e-05
-1.75415e-05
-1.33649e-05
-1.26275e-05
-1.22631e-05
-1.22607e-05
-1.27379e-05
-1.37677e-05
-1.55229e-05
-1.8247e-05
-2.23415e-05
-2.77253e-05
-3.67855e-05
-4.3854e-05
-4.97748e-05
-5.50307e-05
-5.93154e-05
-6.23547e-05
-6.42682e-05
-6.5231e-05
-6.5358e-05
-6.46495e-05
-6.29852e-05
-6.01905e-05
-5.6125e-05
-5.10568e-05
-4.52501e-05
-3.80981e-05
-2.90862e-05
-2.37339e-05
-1.97264e-05
-1.72165e-05
-1.5901e-05
-1.56051e-05
-1.60519e-05
-1.72123e-05
-1.3159e-05
-1.24669e-05
-1.21172e-05
-1.2095e-05
-1.25036e-05
-1.33989e-05
-1.4932e-05
-1.73706e-05
-2.14767e-05
-2.742e-05
-3.90394e-05
-4.23783e-05
-4.81388e-05
-5.28009e-05
-5.64665e-05
-5.91866e-05
-6.09369e-05
-6.18454e-05
-6.19982e-05
-6.1398e-05
-5.99524e-05
-5.75369e-05
-5.4128e-05
-4.96736e-05
-4.39256e-05
-4.0305e-05
-2.89794e-05
-2.30169e-05
-1.89544e-05
-1.6691e-05
-1.55501e-05
-1.53242e-05
-1.57598e-05
-1.68398e-05
-1.29403e-05
-1.22933e-05
-1.19537e-05
-1.18976e-05
-1.21996e-05
-1.2855e-05
-1.38315e-05
-1.49188e-05
-1.58285e-05
-1.21067e-05
-5.17022e-05
-4.73333e-05
-4.94632e-05
-5.18543e-05
-5.39308e-05
-5.53808e-05
-5.61977e-05
-5.63853e-05
-5.59511e-05
-5.48849e-05
-5.3206e-05
-5.11362e-05
-4.9333e-05
-5.37305e-05
-1.36778e-05
-1.75191e-05
-1.66339e-05
-1.56865e-05
-1.50434e-05
-1.49824e-05
-1.54371e-05
-1.64435e-05
-1.27313e-05
-1.21299e-05
-1.18103e-05
-1.17472e-05
-1.2012e-05
-1.26186e-05
-1.36302e-05
-1.51731e-05
-1.77436e-05
-2.20462e-05
-2.43788e-05
-3.68063e-05
-4.10997e-05
-4.50622e-05
-4.79292e-05
-5.02046e-05
-5.17267e-05
-5.26035e-05
-5.28359e-05
-5.24436e-05
-5.14247e-05
-4.96881e-05
-4.7235e-05
-4.37239e-05
-3.9429e-05
-2.76611e-05
-2.4682e-05
-2.00208e-05
-1.7187e-05
-1.56229e-05
-1.48473e-05
-1.47511e-05
-1.51602e-05
-1.60852e-05
-1.25435e-05
-1.19841e-05
-1.16855e-05
-1.16208e-05
-1.18566e-05
-1.24112e-05
-1.33475e-05
-1.4792e-05
-1.69229e-05
-1.99666e-05
-2.53524e-05
-3.30255e-05
-3.71979e-05
-4.10024e-05
-4.39026e-05
-4.62398e-05
-4.77955e-05
-4.86944e-05
-4.89621e-05
-4.8638e-05
-4.77124e-05
-4.60599e-05
-4.36323e-05
-4.03039e-05
-3.61439e-05
-2.8597e-05
-2.26862e-05
-1.9333e-05
-1.69421e-05
-1.54233e-05
-1.46579e-05
-1.45441e-05
-1.49128e-05
-1.57686e-05
-1.23926e-05
-1.18753e-05
-1.16055e-05
-1.15548e-05
-1.17849e-05
-1.23164e-05
-1.32111e-05
-1.45933e-05
-1.66681e-05
-1.96792e-05
-2.39172e-05
-2.93295e-05
-3.35632e-05
-3.74257e-05
-4.04298e-05
-4.28447e-05
-4.44412e-05
-4.53577e-05
-4.56371e-05
-4.53229e-05
-4.43878e-05
-4.27336e-05
-4.02754e-05
-3.69722e-05
-3.27711e-05
-2.7371e-05
-2.26985e-05
-1.92566e-05
-1.68488e-05
-1.53394e-05
-1.4564e-05
-1.44158e-05
-1.47337e-05
-1.55204e-05
-1.22871e-05
-1.18162e-05
-1.15833e-05
-1.15578e-05
-1.17928e-05
-1.23044e-05
-1.31429e-05
-1.4412e-05
-1.62677e-05
-1.8899e-05
-2.23502e-05
-2.65206e-05
-3.03513e-05
-3.39804e-05
-3.68705e-05
-3.91731e-05
-4.06966e-05
-4.15657e-05
-4.18356e-05
-4.15496e-05
-4.06735e-05
-3.91315e-05
-3.68222e-05
-3.37766e-05
-2.99861e-05
-2.57655e-05
-2.19111e-05
-1.88647e-05
-1.66833e-05
-1.52792e-05
-1.45346e-05
-1.43632e-05
-1.46298e-05
-1.53449e-05
-1.22342e-05
-1.18248e-05
-1.16459e-05
-1.16656e-05
-1.19255e-05
-1.24355e-05
-1.32305e-05
-1.43838e-05
-1.59987e-05
-1.81932e-05
-2.09766e-05
-2.42677e-05
-2.75344e-05
-3.07226e-05
-3.33166e-05
-3.53675e-05
-3.67505e-05
-3.75311e-05
-3.77792e-05
-3.75288e-05
-3.67436e-05
-3.53803e-05
-3.33552e-05
-3.07063e-05
-2.74905e-05
-2.41279e-05
-2.10182e-05
-1.84878e-05
-1.66091e-05
-1.53507e-05
-1.46437e-05
-1.4437e-05
-1.46324e-05
-1.52535e-05
-1.22353e-05
-1.1914e-05
-1.18148e-05
-1.19049e-05
-1.22157e-05
-1.27541e-05
-1.35442e-05
-1.4633e-05
-1.6078e-05
-1.79604e-05
-2.02653e-05
-2.29362e-05
-2.56814e-05
-2.83857e-05
-3.06328e-05
-3.24118e-05
-3.36288e-05
-3.43357e-05
-3.45666e-05
-3.43461e-05
-3.36535e-05
-3.24599e-05
-3.07165e-05
-2.84792e-05
-2.58147e-05
-2.30955e-05
-2.05668e-05
-1.84484e-05
-1.68151e-05
-1.56646e-05
-1.49601e-05
-1.4681e-05
-1.47647e-05
-1.52489e-05
-1.22786e-05
-1.20678e-05
-1.20715e-05
-1.22503e-05
-1.2633e-05
-1.32311e-05
-1.40657e-05
-1.5169e-05
-1.65432e-05
-1.8309e-05
-2.03949e-05
-2.2742e-05
-2.51636e-05
-2.7532e-05
-2.95484e-05
-3.11592e-05
-3.22884e-05
-3.29579e-05
-3.31797e-05
-3.29678e-05
-3.23128e-05
-3.12041e-05
-2.96274e-05
-2.76454e-05
-2.53412e-05
-2.29929e-05
-2.07794e-05
-1.88646e-05
-1.7341e-05
-1.62269e-05
-1.54702e-05
-1.50775e-05
-1.50051e-05
-1.53147e-05
-1.23579e-05
-1.23196e-05
-1.24131e-05
-1.26786e-05
-1.31437e-05
-1.38319e-05
-1.47738e-05
-1.60082e-05
-1.7609e-05
-1.94799e-05
-2.16448e-05
-2.40421e-05
-2.65084e-05
-2.89029e-05
-3.09805e-05
-3.26573e-05
-3.38557e-05
-3.45712e-05
-3.48038e-05
-3.45603e-05
-3.38388e-05
-3.26415e-05
-3.09807e-05
-2.89308e-05
-2.6598e-05
-2.42216e-05
-2.19759e-05
-2.00036e-05
-1.83525e-05
-1.70607e-05
-1.61682e-05
-1.56348e-05
-1.54179e-05
-1.54446e-05
-9.51778e-06
-9.52808e-06
-9.55763e-06
-9.60931e-06
-9.68942e-06
-9.80114e-06
-9.94658e-06
-1.01267e-05
-1.03396e-05
-1.05823e-05
-1.0844e-05
-1.11156e-05
-1.13777e-05
-1.16205e-05
-1.18304e-05
-1.20015e-05
-1.21282e-05
-1.22082e-05
-1.22404e-05
-1.22249e-05
-1.21634e-05
-1.20582e-05
-1.19154e-05
-1.17409e-05
-1.15487e-05
-1.13482e-05
-1.1159e-05
-1.09896e-05
-1.08504e-05
-1.07427e-05
-1.06658e-05
-1.06146e-05
-1.0581e-05
-1.05581e-05
-9.47678e-06
-9.43226e-06
-9.42318e-06
-9.43831e-06
-9.48683e-06
-9.56932e-06
-9.68486e-06
-9.83241e-06
-1.00073e-05
-1.02071e-05
-1.0417e-05
-1.06335e-05
-1.08369e-05
-1.10261e-05
-1.11876e-05
-1.13206e-05
-1.142e-05
-1.14858e-05
-1.15171e-05
-1.15139e-05
-1.14777e-05
-1.14086e-05
-1.1312e-05
-1.11888e-05
-1.10529e-05
-1.09048e-05
-1.07649e-05
-1.06367e-05
-1.05356e-05
-1.04652e-05
-1.04302e-05
-1.04297e-05
-1.04513e-05
-1.04968e-05
-9.49692e-06
-9.43367e-06
-9.40425e-06
-9.39507e-06
-9.427e-06
-9.50125e-06
-9.61628e-06
-9.77213e-06
-9.96341e-06
-1.01931e-05
-1.04368e-05
-1.07008e-05
-1.09361e-05
-1.11538e-05
-1.13305e-05
-1.14742e-05
-1.15785e-05
-1.16466e-05
-1.16774e-05
-1.16713e-05
-1.16294e-05
-1.15488e-05
-1.14364e-05
-1.12841e-05
-1.1116e-05
-1.09204e-05
-1.0748e-05
-1.05922e-05
-1.04804e-05
-1.04123e-05
-1.0395e-05
-1.04248e-05
-1.04712e-05
-1.05397e-05
-9.57828e-06
-9.49387e-06
-9.44584e-06
-9.4203e-06
-9.44662e-06
-9.528e-06
-9.66444e-06
-9.86074e-06
-1.01135e-05
-1.04386e-05
-1.07943e-05
-1.12055e-05
-1.15527e-05
-1.18694e-05
-1.2112e-05
-1.23048e-05
-1.24383e-05
-1.25211e-05
-1.2552e-05
-1.2531e-05
-1.24599e-05
-1.23302e-05
-1.2152e-05
-1.19009e-05
-1.1622e-05
-1.12806e-05
-1.09999e-05
-1.07535e-05
-1.05887e-05
-1.04934e-05
-1.04742e-05
-1.05203e-05
-1.05874e-05
-1.068e-05
-9.7318e-06
-9.62304e-06
-9.56216e-06
-9.53182e-06
-9.56717e-06
-9.67421e-06
-9.8568e-06
-1.01296e-05
-1.04954e-05
-1.09982e-05
-1.15669e-05
-1.22711e-05
-1.28307e-05
-1.33324e-05
-1.36969e-05
-1.39815e-05
-1.41706e-05
-1.42822e-05
-1.43137e-05
-1.42651e-05
-1.41395e-05
-1.39189e-05
-1.362e-05
-1.3185e-05
-1.2696e-05
-1.2064e-05
-1.15767e-05
-1.11591e-05
-1.08911e-05
-1.07336e-05
-1.06883e-05
-1.07332e-05
-1.0813e-05
-1.09341e-05
-9.95676e-06
-9.81714e-06
-9.74762e-06
-9.72264e-06
-9.78098e-06
-9.93152e-06
-1.01836e-05
-1.05666e-05
-1.10955e-05
-1.18681e-05
-1.27768e-05
-1.4003e-05
-1.4901e-05
-1.56946e-05
-1.62447e-05
-1.6672e-05
-1.69477e-05
-1.7105e-05
-1.71379e-05
-1.70462e-05
-1.68365e-05
-1.64753e-05
-1.59926e-05
-1.5267e-05
-1.44425e-05
-1.32907e-05
-1.24734e-05
-1.17935e-05
-1.13736e-05
-1.11207e-05
-1.10271e-05
-1.10568e-05
-1.11441e-05
-1.13022e-05
-1.02521e-05
-1.00676e-05
-9.99383e-06
-9.98287e-06
-1.00765e-05
-1.02857e-05
-1.06258e-05
-1.11436e-05
-1.18713e-05
-1.3012e-05
-1.44068e-05
-1.65516e-05
-1.79169e-05
-1.90979e-05
-1.98776e-05
-2.04849e-05
-2.08682e-05
-2.10845e-05
-2.11197e-05
-2.09736e-05
-2.06605e-05
-2.01224e-05
-1.94126e-05
-1.83001e-05
-1.70115e-05
-1.49406e-05
-1.36553e-05
-1.26148e-05
-1.20074e-05
-1.16346e-05
-1.14763e-05
-1.14803e-05
-1.15729e-05
-1.17819e-05
-1.06015e-05
-1.03734e-05
-1.02957e-05
-1.03075e-05
-1.04521e-05
-1.07398e-05
-1.11879e-05
-1.18485e-05
-1.27664e-05
-1.42267e-05
-1.62348e-05
-2.00075e-05
-2.18792e-05
-2.3531e-05
-2.45961e-05
-2.544e-05
-2.59682e-05
-2.62651e-05
-2.63041e-05
-2.60844e-05
-2.56326e-05
-2.48626e-05
-2.38706e-05
-2.22859e-05
-2.04906e-05
-1.67815e-05
-1.49204e-05
-1.35635e-05
-1.27768e-05
-1.22761e-05
-1.20352e-05
-1.19994e-05
-1.20907e-05
-1.23737e-05
-1.09988e-05
-1.07189e-05
-1.06381e-05
-1.068e-05
-1.08889e-05
-1.12692e-05
-1.18311e-05
-1.26065e-05
-1.35607e-05
-1.5227e-05
-1.75364e-05
-2.49719e-05
-2.67945e-05
-2.8668e-05
-2.99181e-05
-3.09223e-05
-3.15556e-05
-3.19191e-05
-3.19629e-05
-3.16861e-05
-3.11377e-05
-3.02137e-05
-2.90397e-05
-2.7227e-05
-2.54815e-05
-1.80656e-05
-1.60127e-05
-1.44291e-05
-1.36113e-05
-1.30064e-05
-1.26772e-05
-1.25943e-05
-1.26883e-05
-1.30539e-05
-1.14355e-05
-1.10957e-05
-1.10196e-05
-1.11135e-05
-1.14287e-05
-1.19678e-05
-1.27431e-05
-1.36526e-05
-1.46602e-05
-1.69221e-05
-1.26092e-05
-2.91527e-05
-3.09799e-05
-3.34176e-05
-3.50282e-05
-3.63565e-05
-3.71926e-05
-3.76596e-05
-3.77089e-05
-3.73395e-05
-3.65995e-05
-3.53611e-05
-3.38326e-05
-3.14513e-05
-2.97293e-05
-1.29377e-05
-1.77479e-05
-1.55669e-05
-1.47231e-05
-1.3996e-05
-1.34801e-05
-1.32899e-05
-1.33593e-05
-1.38197e-05
-1.18932e-05
-1.14823e-05
-1.14086e-05
-1.15573e-05
-1.19868e-05
-1.27024e-05
-1.37077e-05
-1.48102e-05
-1.53589e-05
-1.02297e-05
-4.26322e-05
-3.66079e-05
-3.75068e-05
-3.90128e-05
-4.02501e-05
-4.11139e-05
-4.15878e-05
-4.16428e-05
-4.12778e-05
-4.0521e-05
-3.93844e-05
-3.79691e-05
-3.71137e-05
-4.29953e-05
-1.16007e-05
-1.64947e-05
-1.59871e-05
-1.50422e-05
-1.43115e-05
-1.39969e-05
-1.40462e-05
-1.4634e-05
-1.23574e-05
-1.18735e-05
-1.18164e-05
-1.20562e-05
-1.26848e-05
-1.37769e-05
-1.5514e-05
-1.80661e-05
-2.2275e-05
-2.68939e-05
-3.93381e-05
-3.52087e-05
-3.78286e-05
-4.06816e-05
-4.30805e-05
-4.48683e-05
-4.60345e-05
-4.66223e-05
-4.6683e-05
-4.62167e-05
-4.5173e-05
-4.35082e-05
-4.1237e-05
-3.85178e-05
-3.60374e-05
-4.05227e-05
-2.79036e-05
-2.33664e-05
-1.92526e-05
-1.68753e-05
-1.54424e-05
-1.48092e-05
-1.47613e-05
-1.54774e-05
-1.28012e-05
-1.22436e-05
-1.21886e-05
-1.24853e-05
-1.32362e-05
-1.45306e-05
-1.65715e-05
-1.94842e-05
-2.37275e-05
-2.82048e-05
-3.55039e-05
-3.75903e-05
-4.02497e-05
-4.29087e-05
-4.54769e-05
-4.73916e-05
-4.86739e-05
-4.93218e-05
-4.93871e-05
-4.88698e-05
-4.77194e-05
-4.59359e-05
-4.35009e-05
-4.0963e-05
-3.84151e-05
-3.65215e-05
-2.92808e-05
-2.48583e-05
-2.07081e-05
-1.79808e-05
-1.62715e-05
-1.54928e-05
-1.54202e-05
-1.62732e-05
-1.321e-05
-1.25884e-05
-1.25363e-05
-1.28842e-05
-1.37425e-05
-1.52116e-05
-1.75001e-05
-2.07297e-05
-2.52218e-05
-3.02116e-05
-3.61906e-05
-3.95867e-05
-4.26306e-05
-4.55338e-05
-4.84024e-05
-5.04776e-05
-5.18755e-05
-5.25725e-05
-5.26419e-05
-5.20839e-05
-5.08268e-05
-4.88915e-05
-4.61652e-05
-4.33876e-05
-4.04687e-05
-3.7196e-05
-3.12974e-05
-2.63748e-05
-2.19892e-05
-1.89605e-05
-1.70327e-05
-1.61324e-05
-1.60363e-05
-1.69985e-05
-1.35662e-05
-1.28896e-05
-1.28314e-05
-1.32045e-05
-1.41186e-05
-1.56719e-05
-1.80603e-05
-2.14031e-05
-2.5938e-05
-3.10876e-05
-3.68232e-05
-4.07964e-05
-4.41905e-05
-4.72342e-05
-5.02328e-05
-5.23732e-05
-5.382e-05
-5.45354e-05
-5.4608e-05
-5.40376e-05
-5.27375e-05
-5.07418e-05
-4.78903e-05
-4.49735e-05
-4.17146e-05
-3.78391e-05
-3.21938e-05
-2.71203e-05
-2.27034e-05
-1.95785e-05
-1.75792e-05
-1.66414e-05
-1.65572e-05
-1.76123e-05
-1.38621e-05
-1.31432e-05
-1.30786e-05
-1.34667e-05
-1.44163e-05
-1.60225e-05
-1.84712e-05
-2.1884e-05
-2.64538e-05
-3.16971e-05
-3.74012e-05
-4.16693e-05
-4.52754e-05
-4.84372e-05
-5.15265e-05
-5.37021e-05
-5.51709e-05
-5.58931e-05
-5.59685e-05
-5.53969e-05
-5.40799e-05
-5.20534e-05
-4.91149e-05
-4.60809e-05
-4.26063e-05
-3.84351e-05
-3.28277e-05
-2.76659e-05
-2.32243e-05
-2.0045e-05
-1.80099e-05
-1.7057e-05
-1.69873e-05
-1.81097e-05
-1.40917e-05
-1.33424e-05
-1.32706e-05
-1.36648e-05
-1.4632e-05
-1.6265e-05
-1.87429e-05
-2.21915e-05
-2.67852e-05
-3.20987e-05
-3.78401e-05
-4.22729e-05
-4.60089e-05
-4.92415e-05
-5.23797e-05
-5.45731e-05
-5.60531e-05
-5.67788e-05
-5.6857e-05
-5.62871e-05
-5.49637e-05
-5.29234e-05
-4.9939e-05
-4.68354e-05
-4.32315e-05
-3.88948e-05
-3.32539e-05
-2.80259e-05
-2.35684e-05
-2.03656e-05
-1.83202e-05
-1.73684e-05
-1.73158e-05
-1.84858e-05
-1.42531e-05
-1.3486e-05
-1.341e-05
-1.38077e-05
-1.4786e-05
-1.64366e-05
-1.89363e-05
-2.24146e-05
-2.70398e-05
-3.24122e-05
-3.82088e-05
-4.27435e-05
-4.65643e-05
-4.98528e-05
-5.30318e-05
-5.52471e-05
-5.67412e-05
-5.7474e-05
-5.75551e-05
-5.69842e-05
-5.56518e-05
-5.35936e-05
-5.05715e-05
-4.74135e-05
-4.37257e-05
-3.92864e-05
-3.3592e-05
-2.83071e-05
-2.38227e-05
-2.0598e-05
-1.85428e-05
-1.75907e-05
-1.75477e-05
-1.87451e-05
-1.43456e-05
-1.35731e-05
-1.34962e-05
-1.38963e-05
-1.48812e-05
-1.65435e-05
-1.90613e-05
-2.25665e-05
-2.72291e-05
-3.26526e-05
-3.85088e-05
-4.31083e-05
-4.69836e-05
-5.03186e-05
-5.35346e-05
-5.57784e-05
-5.7292e-05
-5.80363e-05
-5.81209e-05
-5.75451e-05
-5.61991e-05
-5.41171e-05
-5.10612e-05
-4.78588e-05
-4.41165e-05
-3.96112e-05
-3.3857e-05
-2.85205e-05
-2.39998e-05
-2.07511e-05
-1.86825e-05
-1.77257e-05
-1.7684e-05
-1.88905e-05
-1.43697e-05
-1.3604e-05
-1.35296e-05
-1.3931e-05
-1.49179e-05
-1.65854e-05
-1.91168e-05
-2.26453e-05
-2.73514e-05
-3.28211e-05
-3.87441e-05
-4.33792e-05
-4.72805e-05
-5.06513e-05
-5.38984e-05
-5.61758e-05
-5.77135e-05
-5.84735e-05
-5.85624e-05
-5.7979e-05
-5.66162e-05
-5.45068e-05
-5.1423e-05
-4.8186e-05
-4.44175e-05
-3.98737e-05
-3.40496e-05
-2.86653e-05
-2.41001e-05
-2.08258e-05
-1.87413e-05
-1.77748e-05
-1.77262e-05
-1.89235e-05
-1.43274e-05
-1.3581e-05
-1.35119e-05
-1.39121e-05
-1.48941e-05
-1.65568e-05
-1.90921e-05
-2.26347e-05
-2.73882e-05
-3.28953e-05
-3.8914e-05
-4.355e-05
-4.7433e-05
-5.08243e-05
-5.40909e-05
-5.64043e-05
-5.79678e-05
-5.87471e-05
-5.88413e-05
-5.82494e-05
-5.68699e-05
-5.47327e-05
-5.16342e-05
-4.83804e-05
-4.46282e-05
-4.00769e-05
-3.41529e-05
-2.87261e-05
-2.41085e-05
-2.08135e-05
-1.87152e-05
-1.77393e-05
-1.76769e-05
-1.88452e-05
-1.42213e-05
-1.3506e-05
-1.34419e-05
-1.3832e-05
-1.4791e-05
-1.64209e-05
-1.89251e-05
-2.24408e-05
-2.72225e-05
-3.27512e-05
-3.8959e-05
-4.35436e-05
-4.73328e-05
-5.06929e-05
-5.39279e-05
-5.62551e-05
-5.78312e-05
-5.8627e-05
-5.87285e-05
-5.8135e-05
-5.67556e-05
-5.46168e-05
-5.1557e-05
-4.83408e-05
-4.46788e-05
-4.01635e-05
-3.40444e-05
-2.85898e-05
-2.39376e-05
-2.06591e-05
-1.85758e-05
-1.76077e-05
-1.75346e-05
-1.86552e-05
-1.40591e-05
-1.33878e-05
-1.33292e-05
-1.37011e-05
-1.4619e-05
-1.61865e-05
-1.86184e-05
-2.20547e-05
-2.68367e-05
-3.2286e-05
-3.89257e-05
-4.33957e-05
-4.69019e-05
-5.02138e-05
-5.33823e-05
-5.57e-05
-5.72677e-05
-5.80735e-05
-5.81859e-05
-5.76045e-05
-5.62532e-05
-5.41442e-05
-5.11633e-05
-4.80088e-05
-4.46247e-05
-4.01861e-05
-3.3629e-05
-2.82494e-05
-2.35896e-05
-2.03764e-05
-1.83421e-05
-1.74005e-05
-1.73167e-05
-1.83642e-05
-1.38493e-05
-1.32307e-05
-1.31698e-05
-1.34994e-05
-1.43273e-05
-1.5743e-05
-1.79506e-05
-2.10847e-05
-2.55911e-05
-3.05042e-05
-3.86661e-05
-4.29502e-05
-4.60065e-05
-4.91239e-05
-5.20346e-05
-5.42392e-05
-5.57315e-05
-5.6521e-05
-5.66491e-05
-5.61162e-05
-5.48689e-05
-5.29041e-05
-5.01983e-05
-4.72668e-05
-4.43354e-05
-3.99697e-05
-3.19055e-05
-2.70711e-05
-2.26847e-05
-1.97569e-05
-1.79176e-05
-1.70822e-05
-1.70204e-05
-1.79809e-05
-1.36111e-05
-1.30553e-05
-1.29969e-05
-1.32869e-05
-1.40243e-05
-1.52833e-05
-1.72466e-05
-2.00642e-05
-2.4606e-05
-2.99697e-05
-4.1216e-05
-4.10948e-05
-4.49153e-05
-4.85831e-05
-5.14852e-05
-5.36819e-05
-5.51434e-05
-5.59304e-05
-5.60817e-05
-5.56003e-05
-5.44287e-05
-5.25228e-05
-4.98493e-05
-4.64111e-05
-4.26427e-05
-4.24326e-05
-3.15367e-05
-2.62232e-05
-2.17817e-05
-1.91402e-05
-1.75013e-05
-1.67639e-05
-1.67084e-05
-1.75524e-05
-1.33579e-05
-1.28635e-05
-1.27942e-05
-1.3013e-05
-1.35867e-05
-1.45169e-05
-1.57899e-05
-1.7109e-05
-1.75006e-05
-1.01971e-05
-5.50301e-05
-4.65735e-05
-4.76369e-05
-4.95731e-05
-5.12576e-05
-5.24714e-05
-5.31997e-05
-5.33784e-05
-5.3014e-05
-5.21392e-05
-5.08098e-05
-4.91138e-05
-4.83759e-05
-5.68439e-05
-1.17668e-05
-1.93138e-05
-1.89967e-05
-1.78131e-05
-1.68086e-05
-1.63338e-05
-1.63537e-05
-1.70942e-05
-1.31166e-05
-1.2684e-05
-1.26251e-05
-1.28245e-05
-1.33546e-05
-1.42438e-05
-1.55649e-05
-1.73097e-05
-1.9827e-05
-2.39399e-05
-2.42246e-05
-3.8611e-05
-4.18657e-05
-4.53875e-05
-4.78521e-05
-5.00222e-05
-5.14429e-05
-5.23055e-05
-5.25264e-05
-5.21211e-05
-5.11233e-05
-4.94002e-05
-4.71226e-05
-4.3985e-05
-4.08652e-05
-2.75137e-05
-2.65826e-05
-2.22494e-05
-1.95054e-05
-1.7742e-05
-1.65926e-05
-1.60772e-05
-1.60536e-05
-1.66838e-05
-1.28978e-05
-1.25177e-05
-1.24652e-05
-1.26408e-05
-1.31132e-05
-1.3918e-05
-1.51292e-05
-1.68412e-05
-1.91651e-05
-2.23131e-05
-2.77343e-05
-3.59907e-05
-3.89232e-05
-4.17585e-05
-4.3916e-05
-4.60345e-05
-4.74474e-05
-4.8305e-05
-4.85533e-05
-4.82402e-05
-4.74084e-05
-4.5858e-05
-4.37356e-05
-4.09742e-05
-3.82425e-05
-3.06519e-05
-2.49587e-05
-2.16964e-05
-1.91693e-05
-1.7394e-05
-1.6294e-05
-1.57985e-05
-1.5763e-05
-1.63161e-05
-1.27191e-05
-1.23888e-05
-1.23547e-05
-1.25309e-05
-1.29857e-05
-1.37625e-05
-1.49424e-05
-1.66387e-05
-1.90149e-05
-2.22417e-05
-2.6541e-05
-3.18241e-05
-3.48719e-05
-3.74799e-05
-3.95972e-05
-4.16527e-05
-4.3048e-05
-4.39077e-05
-4.4158e-05
-4.38326e-05
-4.29331e-05
-4.14148e-05
-3.9324e-05
-3.67808e-05
-3.40414e-05
-2.94108e-05
-2.50496e-05
-2.16685e-05
-1.90638e-05
-1.72627e-05
-1.61458e-05
-1.56234e-05
-1.55483e-05
-1.60262e-05
-1.25866e-05
-1.23036e-05
-1.2293e-05
-1.24763e-05
-1.2915e-05
-1.36499e-05
-1.47508e-05
-1.63207e-05
-1.84781e-05
-2.13752e-05
-2.48427e-05
-2.87982e-05
-3.15792e-05
-3.3988e-05
-3.60551e-05
-3.80005e-05
-3.93354e-05
-4.01495e-05
-4.03939e-05
-4.01005e-05
-3.9252e-05
-3.78486e-05
-3.58842e-05
-3.35697e-05
-3.10569e-05
-2.76592e-05
-2.41729e-05
-2.11342e-05
-1.87608e-05
-1.70802e-05
-1.60202e-05
-1.55016e-05
-1.53985e-05
-1.5809e-05
-1.25047e-05
-1.22739e-05
-1.22987e-05
-1.25051e-05
-1.29445e-05
-1.36511e-05
-1.46789e-05
-1.61041e-05
-1.80018e-05
-2.04498e-05
-2.32999e-05
-2.64656e-05
-2.90877e-05
-3.1512e-05
-3.35865e-05
-3.54366e-05
-3.67692e-05
-3.75112e-05
-3.77463e-05
-3.74858e-05
-3.66759e-05
-3.53587e-05
-3.35384e-05
-3.13245e-05
-2.88882e-05
-2.60706e-05
-2.31727e-05
-2.05904e-05
-1.85092e-05
-1.6992e-05
-1.60009e-05
-1.54819e-05
-1.5339e-05
-1.56721e-05
-1.24706e-05
-1.23011e-05
-1.23732e-05
-1.26167e-05
-1.30723e-05
-1.37685e-05
-1.47456e-05
-1.60553e-05
-1.77399e-05
-1.98438e-05
-2.22575e-05
-2.49124e-05
-2.73652e-05
-2.97085e-05
-3.16978e-05
-3.34044e-05
-3.46104e-05
-3.53387e-05
-3.55722e-05
-3.5331e-05
-3.45977e-05
-3.33917e-05
-3.17077e-05
-2.96926e-05
-2.73949e-05
-2.49311e-05
-2.24564e-05
-2.02378e-05
-1.84139e-05
-1.70427e-05
-1.61057e-05
-1.55706e-05
-1.53714e-05
-1.56107e-05
-1.24688e-05
-1.23638e-05
-1.24757e-05
-1.27567e-05
-1.32372e-05
-1.39423e-05
-1.49045e-05
-1.61603e-05
-1.77303e-05
-1.9645e-05
-2.18236e-05
-2.4195e-05
-2.65224e-05
-2.87603e-05
-3.06881e-05
-3.22953e-05
-3.34446e-05
-3.41432e-05
-3.43717e-05
-3.4142e-05
-3.34476e-05
-3.23052e-05
-3.07231e-05