/*--------------------------------*- C++ -*----------------------------------*\
| =========                 |                                                 |
| \\      /  F ield         | OpenFOAM: The Open Source CFD Toolbox           |
|  \\    /   O peration     | Version:  2112                                  |
|   \\  /    A nd           | Website:  www.openfoam.com                      |
|    \\/     M anipulation  |                                                 |
\*---------------------------------------------------------------------------*/
FoamFile
{
    version     2.0;
    format      ascii;
    arch        "LSB;label=32;scalar=64";
    class       surfaceScalarField;
    location    "1.5";
    object      phi;
}
// * * * * * * * * * * * * * * * * * * * * * * * * * * * * * * * * * * * * * //

dimensions      [0 3 -1 0 0 0 0];

oriented        oriented;

internalField   nonuniform List<scalar> 
188215
(
1.08524e-09
2.64024e-09
-3.72548e-09
3.1863e-09
1.96477e-09
-4.06583e-09
5.55533e-09
1.46329e-09
-3.83232e-09
7.933e-09
1.19651e-09
-3.57417e-09
1.02372e-08
1.19597e-09
-3.50018e-09
1.24463e-08
1.38928e-09
-3.59835e-09
1.45381e-08
1.73182e-09
-3.82366e-09
1.64454e-08
2.23159e-09
-4.13888e-09
1.80684e-08
2.8992e-09
-4.52219e-09
1.9183e-08
3.8307e-09
-4.94531e-09
1.96324e-08
4.94881e-09
-5.39819e-09
1.90897e-08
6.39247e-09
-5.8498e-09
1.76818e-08
7.67428e-09
-6.26634e-09
1.54433e-08
8.85542e-09
-6.61696e-09
1.25711e-08
9.77877e-09
-6.90657e-09
9.20013e-09
1.04986e-08
-7.12759e-09
5.50881e-09
1.09733e-08
-7.28195e-09
1.66012e-09
1.12159e-08
-7.3672e-09
-2.17527e-09
1.12187e-08
-7.38329e-09
-5.82714e-09
1.09819e-08
-7.33e-09
-9.13335e-09
1.05138e-08
-7.20756e-09
-1.19166e-08
9.80169e-09
-7.01849e-09
-1.40449e-08
8.88927e-09
-6.76089e-09
-1.53245e-08
7.72266e-09
-6.44313e-09
-1.57275e-08
6.46416e-09
-6.06116e-09
-1.5129e-08
5.05075e-09
-5.6492e-09
-1.3865e-08
3.98182e-09
-5.24584e-09
-1.20859e-08
3.11412e-09
-4.89321e-09
-1.00145e-08
2.55019e-09
-4.62161e-09
-7.74916e-09
2.23278e-09
-4.4981e-09
-5.37801e-09
2.22558e-09
-4.59674e-09
-3.01545e-09
2.59616e-09
-4.95872e-09
-9.5782e-10
3.27331e-09
-5.33094e-09
4.01232e-09
-4.97014e-09
2.96338e-11
7.2789e-09
-4.66829e-09
2.41199e-09
7.43511e-09
-7.85269e-09
5.36633e-09
7.29991e-09
-8.79096e-09
8.17669e-09
7.44959e-09
-9.06344e-09
1.07647e-08
8.04918e-09
-9.44122e-09
1.31793e-08
9.06941e-09
-1.00948e-08
1.54558e-08
1.04927e-08
-1.10374e-08
1.75607e-08
1.2382e-08
-1.22553e-08
1.93989e-08
1.47993e-08
-1.37383e-08
2.07157e-08
1.79914e-08
-1.54775e-08
2.13028e-08
2.17882e-08
-1.74265e-08
2.07139e-08
2.64901e-08
-1.95088e-08
1.91546e-08
3.0732e-08
-2.14985e-08
1.66895e-08
3.45988e-08
-2.32784e-08
1.35549e-08
3.76803e-08
-2.47669e-08
9.89467e-09
4.00863e-08
-2.59275e-08
5.89745e-09
4.16994e-08
-2.67289e-08
1.73524e-09
4.25348e-08
-2.71567e-08
-2.41243e-09
4.25676e-08
-2.72012e-08
-6.36609e-09
4.17981e-08
-2.68625e-08
-9.95461e-09
4.0253e-08
-2.61507e-08
-1.29904e-08
3.79183e-08
-2.50808e-08
-1.53329e-08
3.49168e-08
-2.3685e-08
-1.67485e-08
3.11403e-08
-2.2002e-08
-1.71806e-08
2.70129e-08
-2.01167e-08
-1.64234e-08
2.24456e-08
-1.81521e-08
-1.49317e-08
1.88335e-08
-1.63435e-08
-1.28913e-08
1.58558e-08
-1.47821e-08
-1.05258e-08
1.37248e-08
-1.35401e-08
-7.87394e-09
1.22395e-08
-1.26586e-08
-4.92814e-09
1.14143e-08
-1.21345e-08
-1.79371e-09
1.12186e-08
-1.17569e-08
6.64214e-10
1.13759e-08
-1.05605e-08
1.10151e-08
-6.3386e-09
-7.10101e-10
1.26586e-08
-4.66957e-09
1.97868e-09
1.36777e-08
-8.93142e-09
5.43759e-09
1.41574e-08
-1.03164e-08
8.70762e-09
1.49991e-08
-1.08195e-08
1.16894e-08
1.64507e-08
-1.13833e-08
1.4477e-08
1.85408e-08
-1.22589e-08
1.71659e-08
2.13067e-08
-1.3503e-08
1.977e-08
2.49052e-08
-1.51274e-08
2.22078e-08
2.95011e-08
-1.71395e-08
2.41181e-08
3.56281e-08
-1.95471e-08
2.51547e-08
4.30426e-08
-2.22911e-08
2.44325e-08
5.24662e-08
-2.52539e-08
2.24666e-08
6.0791e-08
-2.8093e-08
1.9413e-08
6.82763e-08
-3.06239e-08
1.5649e-08
7.41766e-08
-3.27323e-08
1.13178e-08
7.87833e-08
-3.43658e-08
6.63203e-09
8.18728e-08
-3.54877e-08
1.77058e-09
8.34784e-08
-3.60821e-08
-3.07547e-09
8.35501e-08
-3.61364e-08
-7.7148e-09
8.20881e-08
-3.56507e-08
-1.19687e-08
7.91448e-08
-3.46378e-08
-1.56246e-08
7.46885e-08
-3.31143e-08
-1.85414e-08
6.89515e-08
-3.11179e-08
-2.03427e-08
6.16453e-08
-2.87038e-08
-2.08817e-08
5.3542e-08
-2.59901e-08
-1.9639e-08
4.43726e-08
-2.31696e-08
-1.75151e-08
3.73057e-08
-2.0596e-08
-1.48108e-08
3.15558e-08
-1.84043e-08
-1.18316e-08
2.74252e-08
-1.66796e-08
-8.56974e-09
2.44161e-08
-1.54385e-08
-4.96558e-09
2.24298e-08
-1.46197e-08
-1.15319e-09
2.13065e-08
-1.39003e-08
1.66026e-09
2.06543e-08
-1.20919e-08
1.91397e-08
-6.46432e-09
-9.44747e-10
1.80564e-08
-4.45304e-09
2.129e-09
1.97137e-08
-9.10975e-09
6.17693e-09
2.07562e-08
-1.06467e-08
1.00619e-08
2.23144e-08
-1.12003e-08
1.36547e-08
2.46813e-08
-1.18235e-08
1.70955e-08
2.79143e-08
-1.28142e-08
2.05636e-08
3.20972e-08
-1.42587e-08
2.41645e-08
3.7503e-08
-1.61986e-08
2.78564e-08
4.44728e-08
-1.86636e-08
3.10868e-08
5.40908e-08
-2.16931e-08
3.31512e-08
6.61866e-08
-2.52083e-08
3.20886e-08
8.26198e-08
-2.9091e-08
2.9197e-08
9.64763e-08
-3.27937e-08
2.48994e-08
1.08644e-07
-3.60704e-08
1.98543e-08
1.18e-07
-3.87784e-08
1.41739e-08
1.2531e-07
-4.08464e-08
8.10472e-09
1.30195e-07
-4.22532e-08
1.83772e-09
1.32737e-07
-4.29919e-08
-4.41307e-09
1.32851e-07
-4.30497e-08
-1.04328e-08
1.30534e-07
-4.24266e-08
-1.60299e-08
1.25877e-07
-4.11348e-08
-2.09543e-08
1.18795e-07
-3.91819e-08
-2.50943e-08
1.09681e-07
-3.65891e-08
-2.77873e-08
9.77692e-08
-3.3431e-08
-2.86217e-08
8.42304e-08
-2.98539e-08
-2.62897e-08
6.81559e-08
-2.61153e-08
-2.27944e-08
5.65864e-08
-2.2776e-08
-1.87594e-08
4.74967e-08
-1.99759e-08
-1.46611e-08
4.11495e-08
-1.78226e-08
-1.04321e-08
3.64904e-08
-1.63033e-08
-5.93811e-09
3.32581e-08
-1.53223e-08
-1.32454e-09
3.11812e-08
-1.44883e-08
1.99462e-09
2.97987e-08
-1.24635e-08
2.74219e-08
-6.28757e-09
-8.1545e-10
2.31808e-08
-4.30898e-09
2.84787e-09
2.535e-08
-9.29955e-09
7.67734e-09
2.68944e-08
-1.09677e-08
1.23827e-08
2.91675e-08
-1.15584e-08
1.68257e-08
3.25002e-08
-1.2262e-08
2.1222e-08
3.69482e-08
-1.34302e-08
2.58907e-08
4.2615e-08
-1.51865e-08
3.11408e-08
4.98752e-08
-1.76222e-08
3.70725e-08
5.93371e-08
-2.07959e-08
4.29029e-08
7.30662e-08
-2.48058e-08
4.71315e-08
9.14812e-08
-2.95232e-08
4.52385e-08
1.19462e-07
-3.49496e-08
4.04681e-08
1.41312e-07
-4.00657e-08
3.39265e-08
1.59777e-07
-4.45916e-08
2.67356e-08
1.73508e-07
-4.8317e-08
1.88401e-08
1.84291e-07
-5.10851e-08
1.05104e-08
1.91471e-07
-5.29461e-08
1.94727e-09
1.95214e-07
-5.39131e-08
-6.59945e-09
1.95373e-07
-5.3976e-08
-1.48782e-08
1.91948e-07
-5.31344e-08
-2.26858e-08
1.85081e-07
-5.1397e-08
-2.97438e-08
1.74604e-07
-4.87507e-08
-3.61029e-08
1.61183e-07
-4.51435e-08
-4.06273e-08
1.4303e-07
-4.0736e-08
-4.22243e-08
1.21569e-07
-3.5742e-08
-3.76295e-08
9.40177e-08
-3.04567e-08
-3.14814e-08
7.63571e-08
-2.59188e-08
-2.51303e-08
6.32966e-08
-2.21509e-08
-1.92588e-08
5.45947e-08
-1.93167e-08
-1.36356e-08
4.82199e-08
-1.73527e-08
-7.93639e-09
4.36879e-08
-1.6129e-08
-2.24173e-09
4.06544e-08
-1.51678e-08
1.87898e-09
3.86068e-08
-1.29289e-08
3.55215e-08
-6.22063e-09
-4.16123e-10
2.78705e-08
-4.27362e-09
4.05765e-09
3.05578e-08
-9.68158e-09
9.92554e-09
3.2574e-08
-1.15475e-08
1.57027e-08
3.56064e-08
-1.22161e-08
2.12502e-08
4.00176e-08
-1.30648e-08
2.68938e-08
4.58271e-08
-1.45225e-08
3.31743e-08
5.3101e-08
-1.67666e-08
4.08292e-08
6.21842e-08
-1.99639e-08
5.03921e-08
7.3959e-08
-2.41848e-08
6.11382e-08
9.19193e-08
-2.95993e-08
6.99488e-08
1.18485e-07
-3.58143e-08
6.61148e-08
1.66826e-07
-4.35297e-08
5.7742e-08
2.00452e-07
-5.07668e-08
4.74762e-08
2.27357e-07
-5.73133e-08
3.70315e-08
2.46688e-07
-6.2735e-08
2.58257e-08
2.62053e-07
-6.65562e-08
1.41115e-08
2.72273e-07
-6.90874e-08
2.10283e-09
2.77612e-07
-7.03895e-08
-9.8908e-09
2.77829e-07
-7.04619e-08
-2.15574e-08
2.72918e-07
-6.93041e-08
-3.26787e-08
2.63116e-07
-6.69132e-08
-4.2987e-08
2.4814e-07
-6.3228e-08
-5.30513e-08
2.2918e-07
-5.79323e-08
-6.11236e-08
2.02609e-07
-5.15067e-08
-6.45641e-08
1.69398e-07
-4.43886e-08
-5.52201e-08
1.21479e-07
-3.68052e-08
-4.41227e-08
9.60342e-08
-3.07746e-08
-3.4076e-08
7.88671e-08
-2.56172e-08
-2.56659e-08
6.79555e-08
-2.17709e-08
-1.82014e-08
5.98655e-08
-1.91102e-08
-1.09356e-08
5.39104e-08
-1.74883e-08
-3.79859e-09
4.98192e-08
-1.63018e-08
1.47161e-09
4.7068e-08
-1.37314e-08
4.33102e-08
-6.31704e-09
1.22128e-10
3.2025e-08
-4.27662e-09
5.71763e-09
3.5242e-08
-1.02797e-08
1.29485e-08
3.77588e-08
-1.24157e-08
2.01012e-08
4.16662e-08
-1.32126e-08
2.70289e-08
4.73704e-08
-1.42805e-08
3.41804e-08
5.48262e-08
-1.61506e-08
4.23913e-08
6.39613e-08
-1.90712e-08
5.31801e-08
7.47037e-08
-2.33083e-08
6.81392e-08
8.78894e-08
-2.88896e-08
8.76267e-08
1.08374e-07
-3.59418e-08
1.065e-07
1.4301e-07
-4.33981e-08
9.78919e-08
2.29336e-07
-5.39015e-08
8.26644e-08
2.79339e-07
-6.36594e-08
6.65597e-08
3.16588e-07
-7.31271e-08
5.1528e-08
3.42878e-07
-8.11584e-08
3.56928e-08
3.64136e-07
-8.62479e-08
1.9205e-08
3.78353e-07
-8.95925e-08
2.31365e-09
3.85802e-07
-9.12988e-08
-1.4567e-08
3.86096e-07
-9.13862e-08
-3.10198e-08
3.79225e-07
-8.98536e-08
-4.6791e-08
3.65563e-07
-8.66758e-08
-6.17074e-08
3.44802e-07
-8.17458e-08
-7.76179e-08
3.18944e-07
-7.38537e-08
-9.24974e-08
2.82002e-07
-6.45137e-08
-1.00579e-07
2.32355e-07
-5.48746e-08
-8.08564e-08
1.46242e-07
-4.44861e-08
-6.10601e-08
1.13462e-07
-3.7224e-08
-4.55918e-08
9.38389e-08
-3.044e-08
-3.38973e-08
8.1536e-08
-2.5275e-08
-2.42068e-08
7.18258e-08
-2.16508e-08
-1.49997e-08
6.41603e-08
-1.9457e-08
-6.00204e-09
5.8744e-08
-1.79225e-08
7.70085e-10
5.51562e-08
-1.48603e-08
5.0607e-08
-6.52671e-09
7.14624e-10
3.55453e-08
-4.2349e-09
7.88132e-09
3.91724e-08
-1.10971e-08
1.68998e-08
4.22863e-08
-1.3546e-08
2.58336e-08
4.72473e-08
-1.45148e-08
3.44863e-08
5.45912e-08
-1.58735e-08
4.33274e-08
6.42619e-08
-1.82768e-08
5.33457e-08
7.59977e-08
-2.20547e-08
6.70212e-08
8.86263e-08
-2.75981e-08
8.78692e-08
1.01746e-07
-3.47045e-08
1.21938e-07
1.17983e-07
-4.36778e-08
1.63217e-07
1.50706e-07
-4.89747e-08
1.43847e-07
3.09292e-07
-6.05867e-08
1.17317e-07
3.79016e-07
-7.31466e-08
9.31861e-08
4.27625e-07
-8.69056e-08
7.2118e-08
4.62705e-07
-9.87596e-08
4.98723e-08
4.9139e-07
-1.05009e-07
2.65446e-08
5.10777e-07
-1.09096e-07
2.59971e-09
5.20917e-07
-1.11171e-07
-2.13426e-08
5.21314e-07
-1.11276e-07
-4.46613e-08
5.11954e-07
-1.0941e-07
-6.6893e-08
4.93316e-07
-1.05522e-07
-8.79185e-08
4.6529e-07
-9.94629e-08
-1.11941e-07
4.30733e-07
-8.77663e-08
-1.38156e-07
3.82366e-07
-7.41495e-08
-1.56823e-07
3.12761e-07
-6.17389e-08
-1.14048e-07
1.53655e-07
-5.01881e-08
-7.99449e-08
1.24439e-07
-4.50801e-08
-5.85954e-08
1.08878e-07
-3.63884e-08
-4.38203e-08
9.65198e-08
-2.97589e-08
-3.19274e-08
8.48549e-08
-2.49219e-08
-2.04378e-08
7.46669e-08
-2.19962e-08
-9.03139e-09
6.73376e-08
-2e-08
-2.09729e-10
6.2629e-08
-1.62945e-08
5.71332e-08
-6.73595e-09
1.54942e-09
3.81808e-08
-4.18493e-09
1.06266e-08
4.21611e-08
-1.20659e-08
2.19003e-08
4.59221e-08
-1.49095e-08
3.31291e-08
5.21129e-08
-1.60944e-08
4.39965e-08
6.15271e-08
-1.78034e-08
5.47713e-08
7.43095e-08
-2.08223e-08
6.61297e-08
9.0205e-08
-2.55658e-08
8.10579e-08
1.06223e-07
-3.2525e-08
1.05601e-07
1.18913e-07
-4.17095e-08
1.58727e-07
1.16359e-07
-5.1503e-08
2.47484e-07
1.20687e-07
-5.87383e-08
2.03491e-07
4.13155e-07
-5.98697e-08
1.60037e-07
4.94737e-07
-7.22667e-08
1.27076e-07
5.51743e-07
-9.1158e-08
9.89489e-08
5.98313e-07
-1.0748e-07
6.86336e-08
6.35801e-07
-1.14095e-07
3.63286e-08
6.61903e-07
-1.18821e-07
2.99275e-09
6.75428e-07
-1.21174e-07
-3.03527e-08
6.75951e-07
-1.21292e-07
-6.26901e-08
6.63464e-07
-1.19173e-07
-9.30787e-08
6.38369e-07
-1.14664e-07
-1.21319e-07
6.01791e-07
-1.0826e-07
-1.5441e-07
5.55927e-07
-9.21024e-08
-1.97779e-07
4.99114e-07
-7.33789e-08
-2.40875e-07
4.17028e-07
-6.11708e-08
-1.49424e-07
1.22541e-07
-6.03371e-08
-9.7096e-08
1.25196e-07
-5.30846e-08
-7.20162e-08
1.27326e-07
-4.35285e-08
-5.57115e-08
1.15129e-07
-3.49144e-08
-4.19285e-08
9.98506e-08
-2.87788e-08
-2.76934e-08
8.54777e-08
-2.50459e-08
-1.30969e-08
7.52737e-08
-2.25326e-08
-1.32524e-09
6.89547e-08
-1.80973e-08
6.26276e-08
-6.8197e-09
2.67668e-09
3.96134e-08
-4.10924e-09
1.41691e-08
4.38392e-08
-1.31704e-08
2.84185e-08
4.8161e-08
-1.64884e-08
4.29364e-08
5.55294e-08
-1.79343e-08
5.73313e-08
6.71857e-08
-2.00535e-08
7.13398e-08
8.40521e-08
-2.37512e-08
8.40915e-08
1.06891e-07
-2.94372e-08
9.48385e-08
1.33657e-07
-3.81809e-08
1.04252e-07
1.5799e-07
-4.84913e-08
1.47711e-07
1.36993e-07
-6.40918e-08
3.53834e-07
-8.54366e-08
2.73627e-07
5.32694e-07
-3.93325e-08
2.16636e-07
5.97311e-07
-4.55825e-08
1.77225e-07
6.55466e-07
-6.43113e-08
1.40373e-07
7.16644e-07
-8.14792e-08
9.75802e-08
7.63686e-07
-8.50929e-08
5.12364e-08
7.96785e-07
-8.85382e-08
3.5358e-09
8.1345e-07
-9.03214e-08
-4.41824e-08
8.14089e-07
-9.04194e-08
-9.05921e-08
7.98706e-07
-8.88323e-08
-1.33553e-07
7.66888e-07
-8.5558e-08
-1.70729e-07
7.21106e-07
-8.21386e-08
-2.1078e-07
6.61082e-07
-6.51041e-08
-2.68755e-07
6.03625e-07
-4.65367e-08
-3.48772e-07
5.37763e-07
-4.07187e-08
-1.38308e-07
-8.79228e-08
-9.46784e-08
1.46907e-07
-6.53408e-08
-8.54805e-08
1.68369e-07
-5.02409e-08
-7.30035e-08
1.43435e-07
-4.07829e-08
-5.70837e-08
1.16985e-07
-3.30543e-08
-3.85844e-08
9.55735e-08
-2.85952e-08
-1.92033e-08
8.14349e-08
-2.55422e-08
-3.27143e-09
7.32414e-08
-2.02186e-08
6.61625e-08
-6.80633e-09
3.97828e-09
3.96641e-08
-4.02901e-09
1.8242e-08
4.39717e-08
-1.43963e-08
3.60264e-08
4.86435e-08
-1.82669e-08
5.47582e-08
5.68329e-08
-2.00353e-08
7.43181e-08
7.02751e-08
-2.26494e-08
9.43153e-08
9.10489e-08
-2.69939e-08
1.11733e-07
1.22798e-07
-3.33258e-08
1.16434e-07
1.69846e-07
-4.08903e-08
9.28122e-08
2.37928e-07
-5.63162e-08
3.19965e-07
-9.01603e-08
1.71093e-07
2.98059e-07
6.35413e-08
2.32022e-07
5.08659e-07
2.77232e-08
2.28822e-07
6.37109e-07
2.1556e-08
1.88356e-07
7.33247e-07
2.38635e-08
1.31832e-07
7.98425e-07
2.17849e-08
6.92175e-08
8.40033e-07
1.93672e-08
4.26063e-09
8.60083e-07
1.83239e-08
-6.07196e-08
8.60743e-07
1.83261e-08
-1.23422e-07
8.42037e-07
1.93719e-08
-1.80179e-07
8.01843e-07
2.18013e-08
-2.21194e-07
7.38232e-07
2.38883e-08
-2.25708e-07
6.43951e-07
2.16455e-08
-1.67334e-07
5.17695e-07
2.75566e-08
3.07996e-07
6.24331e-08
-8.99533e-08
3.25462e-07
-8.86018e-08
-1.09767e-07
2.4588e-07
-5.76968e-08
-1.01138e-07
1.78532e-07
-4.37257e-08
-7.90865e-08
1.32382e-07
-3.74483e-08
-5.3201e-08
1.02308e-07
-3.26199e-08
-2.70904e-08
8.44294e-08
-2.91051e-08
-5.8085e-09
7.46771e-08
-2.27176e-08
6.71579e-08
-6.80391e-09
5.57299e-09
3.80301e-08
-3.93903e-09
2.31201e-08
4.21221e-08
-1.56974e-08
4.54507e-08
4.64749e-08
-2.0162e-08
7.05898e-08
5.40083e-08
-2.23144e-08
1.00348e-07
6.61048e-08
-2.55879e-08
1.38317e-07
8.41146e-08
-3.10348e-08
1.90199e-07
1.09809e-07
-3.88919e-08
2.63444e-07
1.43722e-07
-4.71211e-08
3.71375e-07
1.82815e-07
-5.28173e-08
5.17934e-07
2.16289e-07
-4.28832e-08
4.02258e-07
8.11135e-08
3.4562e-08
4.26984e-07
2.22083e-07
5.12511e-08
4.16994e-07
3.86847e-07
1.31803e-07
3.59128e-07
4.99817e-07
1.95158e-07
2.75405e-07
5.85484e-07
2.31486e-07
1.84867e-07
6.43416e-07
2.45547e-07
9.45429e-08
6.80088e-07
2.5027e-07
5.01631e-09
6.97792e-07
2.51817e-07
-8.44937e-08
6.98361e-07
2.51892e-07
-1.74766e-07
6.81811e-07
2.50498e-07
-2.65219e-07
6.46341e-07
2.45955e-07
-3.48817e-07
5.89686e-07
2.32144e-07
-4.06557e-07
5.05388e-07
1.96302e-07
-4.15995e-07
3.93598e-07
1.33535e-07
-3.91869e-07
2.29702e-07
5.41681e-08
-5.1282e-07
8.35158e-08
3.74351e-08
-3.66032e-07
2.21008e-07
-4.23337e-08
-2.55618e-07
1.896e-07
-5.41352e-08
-1.7873e-07
1.51606e-07
-4.99618e-08
-1.21685e-07
1.18825e-07
-4.34875e-08
-7.67151e-08
9.4893e-08
-3.75551e-08
-3.88072e-08
7.97447e-08
-3.32232e-08
-9.7444e-09
7.1201e-08
-2.55867e-08
6.42099e-08
-6.79639e-09
6.91599e-09
3.49762e-08
-3.86208e-09
2.73045e-08
3.86635e-08
-1.693e-08
5.3342e-08
4.24127e-08
-2.19753e-08
8.3113e-08
4.87458e-08
-2.45085e-08
1.19053e-07
5.85789e-08
-2.84144e-08
1.65641e-07
7.24817e-08
-3.49548e-08
2.29161e-07
9.07162e-08
-4.44279e-08
3.15767e-07
1.12339e-07
-5.52225e-08
4.29279e-07
1.3267e-07
-6.33676e-08
5.58896e-07
1.46145e-07
-5.94716e-08
5.68417e-07
1.04372e-07
-3.27802e-08
5.85312e-07
1.8482e-07
2.03675e-08
5.39361e-07
2.84654e-07
1.48144e-07
4.47487e-07
3.61878e-07
2.29813e-07
3.36941e-07
4.23052e-07
2.72978e-07
2.23722e-07
4.65026e-07
2.91609e-07
1.13438e-07
4.92135e-07
2.98237e-07
5.59728e-09
5.05329e-07
3.00303e-07
-1.02214e-07
5.05799e-07
3.00373e-07
-2.12405e-07
4.93549e-07
2.98453e-07
-3.25467e-07
4.67396e-07
2.92007e-07
-4.35807e-07
4.2638e-07
2.73647e-07
-5.27588e-07
3.66144e-07
2.31025e-07
-5.73702e-07
2.89631e-07
1.50082e-07
-5.57841e-07
1.90157e-07
2.36841e-08
-5.51561e-07
1.07865e-07
-3.0629e-08
-4.22598e-07
1.51052e-07
-5.9007e-08
-3.07134e-07
1.38767e-07
-6.46301e-08
-2.16792e-07
1.19465e-07
-5.82014e-08
-1.47513e-07
9.90033e-08
-4.94569e-08
-9.28661e-08
8.24938e-08
-4.22481e-08
-4.73189e-08
7.12419e-08
-3.70444e-08
-1.24974e-08
6.45746e-08
-2.81951e-08
5.85191e-08
-6.8065e-09
8.087e-09
3.06791e-08
-3.78989e-09
3.09429e-08
3.38258e-08
-1.80182e-08
6.01118e-08
3.68114e-08
-2.35676e-08
9.35525e-08
4.1717e-08
-2.6412e-08
1.33866e-07
4.90999e-08
-3.0835e-08
1.85579e-07
5.90954e-08
-3.83263e-08
2.54288e-07
7.14187e-08
-4.94117e-08
3.44574e-07
8.52591e-08
-6.3206e-08
4.55838e-07
9.73369e-08
-7.5931e-08
5.74577e-07
1.07149e-07
-7.9743e-08
6.37778e-07
1.01365e-07
-6.01939e-08
6.72576e-07
1.46986e-07
3.03602e-09
6.16908e-07
2.05476e-07
1.34846e-07
5.08882e-07
2.54689e-07
2.15214e-07
3.80364e-07
2.95161e-07
2.56409e-07
2.51333e-07
3.23509e-07
2.70549e-07
1.27015e-07
3.4228e-07
2.74173e-07
6.07175e-09
3.5155e-07
2.74722e-07
-1.14837e-07
3.51946e-07
2.74762e-07
-2.39048e-07
3.43463e-07
2.74298e-07
-3.6791e-07
3.25464e-07
2.70794e-07
-4.96245e-07
2.97853e-07
2.56861e-07
-6.04326e-07
2.58066e-07
2.16158e-07
-6.60575e-07
2.09362e-07
1.36518e-07
-6.27651e-07
1.51236e-07
5.99709e-09
-5.66609e-07
1.05115e-07
-5.82931e-08
-4.48156e-07
1.11749e-07
-7.915e-08
-3.35019e-07
1.02752e-07
-7.71229e-08
-2.40846e-07
9.15667e-08
-6.62748e-08
-1.65875e-07
7.88055e-08
-5.47733e-08
-1.05203e-07
6.80434e-08
-4.62217e-08
-5.40616e-08
6.03395e-08
-4.02388e-08
-1.46908e-08
5.55732e-08
-3.03695e-08
5.06093e-08
-6.78101e-09
8.93873e-09
2.54911e-08
-3.75069e-09
3.367e-08
2.8028e-08
-1.89335e-08
6.5112e-08
3.02669e-08
-2.48974e-08
1.00963e-07
3.38523e-08
-2.79864e-08
1.43743e-07
3.91231e-08
-3.28035e-08
1.97801e-07
4.60453e-08
-4.10079e-08
2.68231e-07
5.42633e-08
-5.3274e-08
3.59218e-07
6.33286e-08
-6.90566e-08
4.69492e-07
7.15325e-08
-8.44692e-08
5.87885e-07
8.02334e-08
-9.14775e-08
6.76376e-07
8.56487e-08
-7.27751e-08
7.23191e-07
1.13492e-07
-1.33204e-08
6.63011e-07
1.48761e-07
1.16895e-07
5.46598e-07
1.79867e-07
1.91236e-07
4.08147e-07
2.06171e-07
2.2744e-07
2.69599e-07
2.25164e-07
2.36892e-07
1.3619e-07
2.37988e-07
2.37701e-07
6.46078e-09
2.44437e-07
2.36842e-07
-1.2324e-07
2.44793e-07
2.36854e-07
-2.56562e-07
2.39044e-07
2.37741e-07
-3.94978e-07
2.26888e-07
2.36992e-07
-5.33314e-07
2.08505e-07
2.27684e-07
-6.49901e-07
1.82737e-07
1.91916e-07
-7.10851e-07
1.52031e-07
1.18282e-07
-6.66242e-07
1.17089e-07
-1.04619e-08
-5.79348e-07
8.92316e-08
-7.10103e-08
-4.61033e-07
8.43752e-08
-9.09402e-08
-3.4882e-07
7.62561e-08
-8.57173e-08
-2.53751e-07
6.87645e-08
-7.22663e-08
-1.76624e-07
6.06037e-08
-5.89248e-08
-1.12884e-07
5.36775e-08
-4.93748e-08
-5.83451e-08
4.85901e-08
-4.27891e-08
-1.59816e-08
4.53285e-08
-3.21187e-08
4.14583e-08
-6.83065e-09
9.55522e-09
1.96726e-08
-3.73675e-09
3.56803e-08
2.15664e-08
-1.96635e-08
6.8775e-08
2.31161e-08
-2.59439e-08
1.0629e-07
2.55469e-08
-2.92095e-08
1.5064e-07
2.90782e-08
-3.43049e-08
2.0603e-07
3.36593e-08
-4.30049e-08
2.77309e-07
3.90579e-08
-5.60734e-08
3.68642e-07
4.51215e-08
-7.31259e-08
4.79222e-07
5.11331e-08
-9.01801e-08
6.00095e-07
5.84031e-08
-9.90429e-08
7.0078e-07
6.58119e-08
-8.08478e-08
7.54042e-07
8.33867e-08
-2.31564e-08
6.924e-07
1.05116e-07
1.05286e-07
5.71464e-07
1.24856e-07
1.75947e-07
4.26864e-07
1.41822e-07
2.0895e-07
2.82121e-07
1.54392e-07
2.15515e-07
1.42582e-07
1.63002e-07
2.14526e-07
6.81188e-09
1.67426e-07
2.12781e-07
-1.28941e-07
1.67766e-07
2.12779e-07
-2.68426e-07
1.64007e-07
2.14522e-07
-4.13093e-07
1.56017e-07
2.15538e-07
-5.57659e-07
1.43992e-07
2.0908e-07
-6.78874e-07
1.27474e-07
1.76478e-07
-7.41401e-07
1.08059e-07
1.06498e-07
-6.9046e-07
8.65741e-08
-2.04261e-08
-5.91119e-07
6.90937e-08
-7.9203e-08
-4.70191e-07
6.2029e-08
-9.85821e-08
-3.57554e-07
5.51399e-08
-9.15204e-08
-2.61942e-07
4.96323e-08
-7.648e-08
-1.83608e-07
4.42351e-08
-6.1965e-08
-1.17983e-07
3.97871e-08
-5.17355e-08
-6.11974e-08
3.65301e-08
-4.47253e-08
-1.67998e-08
3.43996e-08
-3.34687e-08
3.15705e-08
-6.91196e-09
9.94913e-09
1.34761e-08
-3.75263e-09
3.7016e-08
1.47121e-08
-2.02125e-08
7.12126e-08
1.56358e-08
-2.67163e-08
1.09799e-07
1.70602e-08
-3.01002e-08
1.55121e-07
1.91324e-08
-3.53758e-08
2.11326e-07
2.18413e-08
-4.4387e-08
2.83219e-07
2.51053e-08
-5.794e-08
3.75111e-07
2.89361e-08
-7.57071e-08
4.86737e-07
3.31463e-08
-9.36387e-08
6.10026e-07
3.85191e-08
-1.03406e-07
7.16697e-07
4.47704e-08
-8.56294e-08
7.73478e-07
5.53964e-08
-2.87902e-08
7.11072e-07
6.80438e-08
9.9478e-08
5.87484e-07
7.97097e-08
1.68734e-07
4.39157e-07
8.97834e-08
2.00365e-07
2.90495e-07
9.74282e-08
2.05626e-07
1.46943e-07
1.02734e-07
2.0382e-07
7.14555e-09
1.05553e-07
2.0167e-07
-1.3265e-07
1.05899e-07
2.01663e-07
-2.76194e-07
1.03752e-07
2.038e-07
-4.24854e-07
9.90573e-08
2.0562e-07
-5.73242e-07
9.19295e-08
2.0045e-07
-6.97217e-07
8.22464e-08
1.69202e-07
-7.606e-07
7.08349e-08
1.00607e-07
-7.0619e-07
5.83236e-08
-2.61589e-08
-6.0075e-07
4.77369e-08
-8.40838e-08
-4.77313e-07
4.16333e-08
-1.03041e-07
-3.63525e-07
3.64411e-08
-9.50897e-08
-2.67192e-07
3.25033e-08
-7.92043e-08
-1.8798e-07
2.90582e-08
-6.40349e-08
-1.21152e-07
2.63593e-08
-5.34e-08
-6.29387e-08
2.44392e-08
-4.61222e-08
-1.72499e-08
2.31791e-08
-3.44683e-08
2.13513e-08
-7.0307e-09
1.01679e-08
7.09992e-09
-3.79166e-09
3.77908e-08
7.67201e-09
-2.05829e-08
7.26433e-08
8.00474e-09
-2.72215e-08
1.11876e-07
8.50092e-09
-3.06732e-08
1.57806e-07
9.25232e-09
-3.605e-08
2.14578e-07
1.03032e-08
-4.52334e-08
2.87017e-07
1.17151e-08
-5.9049e-08
3.79546e-07
1.35928e-08
-7.71861e-08
4.92186e-07
1.60628e-08
-9.55567e-08
6.17128e-07
1.93232e-08
-1.05746e-07
7.26632e-07
2.342e-08
-8.81535e-08
7.85088e-07
2.84159e-08
-3.14752e-08
7.22255e-07
3.36917e-08
9.71855e-08
5.9715e-07
3.85955e-08
1.66218e-07
4.46679e-07
4.27705e-08
1.97484e-07
2.95695e-07
4.6088e-08
2.02325e-07
1.49729e-07
4.84592e-08
2.0024e-07
7.48351e-09
4.98494e-08
1.9795e-07
-1.3478e-07
5.0221e-08
1.97941e-07
-2.80796e-07
4.95507e-08
2.00217e-07
-4.31872e-07
4.78213e-08
2.02312e-07
-5.82526e-07
4.50264e-08
1.97557e-07
-7.08144e-07
4.12022e-08
1.66662e-07
-7.72067e-07
3.64872e-08
9.82708e-08
-7.16036e-07
3.12117e-08
-2.89191e-08
-6.07717e-07
2.61182e-08
-8.67e-08
-4.82572e-07
2.19706e-08
-1.05482e-07
-3.67689e-07
1.86782e-08
-9.712e-08
-2.70607e-07
1.6235e-08
-8.08142e-08
-1.90679e-07
1.44392e-08
-6.53089e-08
-1.23046e-07
1.3183e-08
-5.44566e-08
-6.39511e-08
1.23751e-08
-4.70307e-08
-1.74936e-08
1.18618e-08
-3.51403e-08
1.10139e-08
-7.15617e-09
1.0226e-08
7.27407e-10
-3.85345e-09
3.80433e-08
6.33776e-10
-2.07791e-08
7.31403e-08
3.75521e-10
-2.74677e-08
1.12641e-07
-5.73366e-11
-3.0942e-08
1.58874e-07
-6.30271e-10
-3.63512e-08
2.16014e-07
-1.24778e-09
-4.55888e-08
2.88923e-07
-1.70827e-09
-5.94858e-08
3.82059e-07
-1.8107e-09
-7.7732e-08
4.9545e-07
-1.09981e-09
-9.62285e-08
6.21213e-07
9.40273e-11
-1.06534e-07
7.31435e-07
2.19511e-09
-8.89972e-08
7.90158e-07
1.95437e-09
-3.22607e-08
7.27031e-07
3.6991e-11
9.67817e-08
6.01263e-07
-1.69107e-09
1.66054e-07
4.49954e-07
-3.34787e-09
1.97428e-07
2.98042e-07
-4.30263e-09
2.02302e-07
1.51101e-07
-4.82242e-09
2.00223e-07
7.84513e-09
-4.82564e-09
1.97931e-07
-1.35454e-07
-4.40265e-09
1.97922e-07
-2.8252e-07
-3.58034e-09
2.00198e-07
-4.34644e-07
-2.34005e-09
2.02285e-07
-5.86296e-07
-8.13363e-10
1.97492e-07
-7.12735e-07
1.16496e-09
1.66477e-07
-7.77113e-07
3.04934e-09
9.78159e-08
-7.20896e-07
4.78951e-09
-2.97953e-08
-6.11851e-07
4.72525e-09
-8.76518e-08
-4.85858e-07
2.36723e-09
-1.0639e-07
-3.70176e-07
9.06621e-10
-9.7911e-08
-2.72432e-07
-2.6993e-11
-8.14819e-08
-1.91963e-07
-1.51895e-10
-6.58776e-08
-1.23863e-07
4.03565e-11
-5.49575e-08
-6.43552e-08
3.52474e-10
-4.74851e-08
-1.75761e-08
5.86133e-10
-3.55034e-08
7.21367e-10
-7.28355e-09
1.01244e-08
-5.45903e-09
-3.93799e-09
3.7774e-08
-6.21286e-09
-2.0803e-08
7.27029e-08
-7.09539e-09
-2.74579e-08
1.12089e-07
-8.53278e-09
-3.09108e-08
1.58316e-07
-1.05711e-08
-3.62857e-08
2.15619e-07
-1.3087e-08
-4.54639e-08
2.88919e-07
-1.57413e-08
-5.92674e-08
3.82649e-07
-1.8168e-08
-7.73721e-08
4.96587e-07
-1.93429e-08
-9.56957e-08
6.2243e-07
-1.99126e-08
-1.05836e-07
7.31375e-07
-1.8503e-08
-8.82472e-08
7.88891e-07
-2.42564e-08
-3.13048e-08
7.25513e-07
-3.46245e-08
9.80389e-08
5.99891e-07
-4.40296e-08
1.67961e-07
4.49032e-07
-5.23673e-08
1.99878e-07
2.97579e-07
-5.80632e-08
2.05214e-07
1.51093e-07
-6.17402e-08
2.03404e-07
8.25646e-09
-6.32283e-08
2.01239e-07
-1.34653e-07
-6.27171e-08
2.01224e-07
-2.81357e-07
-6.02349e-08
2.03358e-07
-4.33171e-07
-5.56841e-08
2.05158e-07
-5.84578e-07
-4.92875e-08
1.99881e-07
-7.11134e-07
-4.05692e-08
1.6829e-07
-7.75973e-07
-3.10838e-08
9.89722e-08
-7.21082e-07
-2.11167e-08
-2.89849e-08
-6.13323e-07
-1.59816e-08
-8.70518e-08
-4.87224e-07
-1.7888e-08
-1.05843e-07
-3.70994e-07
-1.77952e-08
-9.75283e-08
-2.72664e-07
-1.70985e-08
-8.12588e-08
-1.91824e-07
-1.52188e-08
-6.57731e-08
-1.23607e-07
-1.32484e-08
-5.49283e-08
-6.41517e-08
-1.16041e-08
-4.74985e-08
-1.74976e-08
-1.05018e-08
-3.55662e-08
-9.3613e-09
-7.41491e-09
9.84759e-09
-1.12568e-08
-4.04986e-09
3.69459e-08
-1.26558e-08
-2.06553e-08
7.12589e-08
-1.42181e-08
-2.71903e-08
1.10096e-07
-1.6795e-08
-3.05748e-08
1.55932e-07
-2.0564e-08
-3.58428e-08
2.1312e-07
-2.54417e-08
-4.48335e-08
2.86717e-07
-3.09984e-08
-5.834e-08
3.81141e-07
-3.66043e-08
-7.5988e-08
4.95746e-07
-4.02103e-08
-9.3737e-08
6.21284e-07
-4.21745e-08
-1.03276e-07
7.26192e-07
-3.7947e-08
-8.54644e-08
7.80363e-07
-5.05757e-08
-2.78516e-08
7.16849e-07
-7.32437e-08
1.02134e-07
5.92393e-07
-9.32421e-08
1.73668e-07
4.43519e-07
-1.1048e-07
2.06987e-07
2.94091e-07
-1.22203e-07
2.13569e-07
1.49625e-07
-1.29775e-07
2.125e-07
8.74994e-09
-1.33038e-07
2.10685e-07
-1.32235e-07
-1.32385e-07
2.10652e-07
-2.7703e-07
-1.2784e-07
2.124e-07
-4.27011e-07
-1.19124e-07
2.1342e-07
-5.76713e-07
-1.06442e-07
2.06857e-07
-7.02416e-07
-8.86891e-08
1.73822e-07
-7.67752e-07
-6.85983e-08
1.02851e-07
-7.16397e-07
-4.66856e-08
-2.57862e-08
-6.12666e-07
-3.52147e-08
-8.44983e-08
-4.86852e-07
-4.01856e-08
-1.03517e-07
-3.69965e-07
-3.89139e-08
-9.57677e-08
-2.71e-07
-3.60356e-08
-8.00284e-08
-1.89986e-07
-3.12889e-08
-6.49435e-08
-1.22066e-07
-2.68336e-08
-5.43349e-08
-6.32201e-08
-2.33923e-08
-4.70576e-08
-1.72102e-08
-2.11858e-08
-3.53259e-08
-1.90062e-08
-7.56527e-09
9.35124e-09
-1.64109e-08
-4.19705e-09
3.54516e-08
-1.8418e-08
-2.03382e-08
6.85983e-08
-2.07001e-08
-2.66647e-08
1.06282e-07
-2.45499e-08
-2.99284e-08
1.51093e-07
-3.03745e-08
-3.50014e-08
2.07585e-07
-3.82954e-08
-4.36376e-08
2.81164e-07
-4.80196e-08
-5.6558e-08
3.76489e-07
-5.8688e-08
-7.32416e-08
4.92745e-07
-6.67476e-08
-8.97186e-08
6.18673e-07
-7.03215e-08
-9.77811e-08
7.14467e-07
-5.40078e-08
-7.97327e-08
7.61566e-07
-7.67878e-08
-2.08872e-08
6.98026e-07
-1.20389e-07
1.10686e-07
5.764e-07
-1.57262e-07
1.85645e-07
4.31882e-07
-1.87846e-07
2.21885e-07
2.86717e-07
-2.08132e-07
2.31093e-07
1.46341e-07
-2.21004e-07
2.31606e-07
9.3771e-09
-2.2661e-07
2.30536e-07
-1.27734e-07
-2.25735e-07
2.30461e-07
-2.68568e-07
-2.18382e-07
2.31376e-07
-4.1451e-07
-2.03904e-07
2.30723e-07
-5.60227e-07
-1.82169e-07
2.21444e-07
-6.83563e-07
-1.50767e-07
1.85414e-07
-7.49511e-07
-1.13637e-07
1.10987e-07
-7.05543e-07
-7.13979e-08
-1.9256e-08
-6.10793e-07
-5.08396e-08
-7.9125e-08
-4.84529e-07
-6.80515e-08
-9.83982e-08
-3.66029e-07
-6.53515e-08
-9.2062e-08
-2.66279e-07
-5.82808e-08
-7.75048e-08
-1.85502e-07
-4.87951e-08
-6.3271e-08
-1.1861e-07
-4.05936e-08
-5.31322e-08
-6.11977e-08
-3.46667e-08
-4.61379e-08
-1.656e-08
-3.10466e-08
-3.47769e-08
-2.77954e-08
-7.77082e-09
8.63353e-09
-2.06691e-08
-4.37538e-09
3.32749e-08
-2.32074e-08
-1.9852e-08
6.46542e-08
-2.62002e-08
-2.58793e-08
1.00443e-07
-3.13751e-08
-2.89631e-08
1.43304e-07
-3.94945e-08
-3.3741e-08
1.9798e-07
-5.11384e-08
-4.18334e-08
2.70437e-07
-6.66393e-08
-5.38373e-08
3.65982e-07
-8.53065e-08
-6.89262e-08
4.85042e-07
-1.02603e-07
-8.32043e-08
6.15509e-07
-1.12059e-07
-8.87295e-08
6.91986e-07
-6.09473e-08
-6.95374e-08
7.24644e-07
-1.00595e-07
-8.8512e-09
6.63396e-07
-1.83185e-07
1.24044e-07
5.4839e-07
-2.46101e-07
2.03845e-07
4.11951e-07
-2.9568e-07
2.44273e-07
2.74245e-07
-3.27976e-07
2.5755e-07
1.40734e-07
-3.47915e-07
2.60423e-07
1.02181e-08
-3.56581e-07
2.60486e-07
-1.20476e-07
-3.55373e-07
2.60332e-07
-2.54564e-07
-3.44249e-07
2.59955e-07
-3.9329e-07
-3.21954e-07
2.56777e-07
-5.3141e-07
-2.87337e-07
2.43287e-07
-6.488e-07
-2.3634e-07
2.02963e-07
-7.13483e-07
-1.72658e-07
1.23705e-07
-6.84556e-07
-9.25088e-08
-7.8165e-09
-6.08589e-07
-5.73863e-08
-6.94199e-08
-4.77686e-07
-1.0899e-07
-8.99641e-08
-3.56484e-07
-1.00516e-07
-8.6038e-08
-2.56687e-07
-8.45601e-08
-7.35177e-08
-1.77328e-07
-6.74721e-08
-6.06815e-08
-1.1271e-07
-5.39463e-08
-5.1265e-08
-5.7851e-08
-4.48331e-08
-4.46929e-08
-1.54811e-08
-3.95286e-08
-3.38879e-08
-3.52516e-08
-8.02495e-09
7.61428e-09
-2.36887e-08
-4.59466e-09
3.02351e-08
-2.66131e-08
-1.92151e-08
5.90217e-08
-3.01235e-08
-2.48633e-08
9.16796e-08
-3.63219e-08
-2.77111e-08
1.30669e-07
-4.6398e-08
-3.20858e-08
1.80632e-07
-6.16843e-08
-3.94169e-08
2.48133e-07
-8.40375e-08
-5.01029e-08
3.40124e-07
-1.1468e-07
-6.2618e-08
4.62131e-07
-1.5166e-07
-7.29509e-08
6.10329e-07
-1.89029e-07
-7.12282e-08
6.46924e-07
-5.13757e-08
-4.61659e-08
6.51783e-07
-1.11271e-07
5.81697e-09
5.98166e-07
-2.62245e-07
1.32678e-07