/*--------------------------------*- C++ -*----------------------------------*\
| =========                 |                                                 |
| \\      /  F ield         | OpenFOAM: The Open Source CFD Toolbox           |
|  \\    /   O peration     | Version:  2112                                  |
|   \\  /    A nd           | Website:  www.openfoam.com                      |
|    \\/     M anipulation  |                                                 |
\*---------------------------------------------------------------------------*/
FoamFile
{
    version     2.0;
    format      ascii;
    arch        "LSB;label=32;scalar=64";
    class       volVectorField;
    location    "1.5";
    object      U;
}
// * * * * * * * * * * * * * * * * * * * * * * * * * * * * * * * * * * * * * //

dimensions      [0 1 -1 0 0 0 0];

internalField   nonuniform List<vector> 
64906
(
(5.03011e-07 1.66385e-06 -2.45897e-06)
(2.92297e-06 7.14405e-07 -2.52213e-06)
(6.2822e-06 -1.11052e-08 -2.18852e-06)
(9.70253e-06 -4.66028e-07 -1.89135e-06)
(1.30755e-05 -6.39533e-07 -1.74911e-06)
(1.63193e-05 -6.35361e-07 -1.72768e-06)
(1.94204e-05 -5.21918e-07 -1.77933e-06)
(2.23054e-05 -3.06493e-07 -1.8677e-06)
(2.48862e-05 4.86768e-09 -1.97858e-06)
(2.68881e-05 4.93051e-07 -2.08095e-06)
(2.80955e-05 1.08093e-06 -2.19016e-06)
(2.80642e-05 1.91268e-06 -2.27041e-06)
(2.66305e-05 2.6185e-06 -2.34385e-06)
(2.39943e-05 3.2837e-06 -2.37872e-06)
(2.02755e-05 3.78493e-06 -2.40783e-06)
(1.57549e-05 4.17716e-06 -2.42246e-06)
(1.06327e-05 4.42834e-06 -2.43555e-06)
(5.17137e-06 4.55408e-06 -2.44476e-06)
(-3.98281e-07 4.54882e-06 -2.45278e-06)
(-5.82225e-06 4.41272e-06 -2.45927e-06)
(-1.08696e-05 4.15154e-06 -2.46169e-06)
(-1.52793e-05 3.74989e-06 -2.46247e-06)
(-1.88551e-05 3.24126e-06 -2.44836e-06)
(-2.13187e-05 2.57042e-06 -2.42871e-06)
(-2.25595e-05 1.86476e-06 -2.37063e-06)
(-2.23812e-05 1.03665e-06 -2.30865e-06)
(-2.09579e-05 4.66577e-07 -2.22291e-06)
(-1.87375e-05 8.46743e-09 -2.1582e-06)
(-1.59259e-05 -2.34e-07 -2.11422e-06)
(-1.27986e-05 -2.95377e-07 -2.1555e-06)
(-9.44686e-06 -7.69266e-08 -2.35074e-06)
(-6.03223e-06 5.29906e-07 -2.76912e-06)
(-2.73147e-06 1.48533e-06 -3.27026e-06)
(-2.91248e-07 2.59477e-06 -3.27743e-06)
(-8.95488e-07 6.64058e-06 -3.04887e-06)
(1.12275e-06 5.92663e-06 -6.26448e-06)
(5.63728e-06 5.23016e-06 -7.09836e-06)
(9.77403e-06 4.93944e-06 -7.26267e-06)
(1.36467e-05 5.1938e-06 -7.53209e-06)
(1.72284e-05 5.89754e-06 -8.04052e-06)
(2.06088e-05 6.98252e-06 -8.78249e-06)
(2.3761e-05 8.48281e-06 -9.73762e-06)
(2.66644e-05 1.04378e-05 -1.08966e-05)
(2.89703e-05 1.30678e-05 -1.22494e-05)
(3.04918e-05 1.61979e-05 -1.37698e-05)
(3.05431e-05 2.01062e-05 -1.53924e-05)
(2.8921e-05 2.36209e-05 -1.69492e-05)
(2.60123e-05 2.68375e-05 -1.8339e-05)
(2.19131e-05 2.93839e-05 -1.95049e-05)
(1.69932e-05 3.1368e-05 -2.04142e-05)
(1.14258e-05 3.2689e-05 -2.10437e-05)
(5.51079e-06 3.33688e-05 -2.138e-05)
(-5.22631e-07 3.33876e-05 -2.14154e-05)
(-6.39594e-06 3.27456e-05 -2.11497e-05)
(-1.18806e-05 3.14644e-05 -2.05914e-05)
(-1.66773e-05 2.95233e-05 -1.97541e-05)
(-2.06176e-05 2.70278e-05 -1.86619e-05)
(-2.33328e-05 2.38716e-05 -1.73492e-05)
(-2.4739e-05 2.04392e-05 -1.58753e-05)
(-2.44494e-05 1.66315e-05 -1.43459e-05)
(-2.2679e-05 1.36487e-05 -1.29361e-05)
(-2.01071e-05 1.12005e-05 -1.17236e-05)
(-1.6875e-05 9.51458e-06 -1.07571e-05)
(-1.32781e-05 8.44354e-06 -1.00812e-05)
(-9.25379e-06 8.07642e-06 -9.71095e-06)
(-4.89135e-06 8.47002e-06 -9.48028e-06)
(-1.5324e-07 9.36596e-06 -8.41102e-06)
(1.62452e-06 1.00608e-05 -4.16768e-06)
(-1.67987e-06 1.43265e-05 -2.9234e-06)
(1.31797e-07 1.52263e-05 -7.19893e-06)
(5.41082e-06 1.55118e-05 -8.45421e-06)
(1.02197e-05 1.62299e-05 -8.7982e-06)
(1.46988e-05 1.76959e-05 -9.21087e-06)
(1.88149e-05 1.99181e-05 -9.89913e-06)
(2.27524e-05 2.29135e-05 -1.08911e-05)
(2.65382e-05 2.68356e-05 -1.21845e-05)
(3.02634e-05 3.1834e-05 -1.37823e-05)
(3.34212e-05 3.84182e-05 -1.56888e-05)
(3.58441e-05 4.62745e-05 -1.78678e-05)
(3.61552e-05 5.60031e-05 -2.02169e-05)
(3.40325e-05 6.47489e-05 -2.24776e-05)
(3.04076e-05 7.26814e-05 -2.44894e-05)
(2.53917e-05 7.89946e-05 -2.61697e-05)
(1.95448e-05 8.39241e-05 -2.74718e-05)
(1.29836e-05 8.72346e-05 -2.83681e-05)
(6.06913e-06 8.89534e-05 -2.88436e-05)
(-9.79511e-07 8.90284e-05 -2.88873e-05)
(-7.84955e-06 8.746e-05 -2.84991e-05)
(-1.43224e-05 8.43038e-05 -2.76903e-05)
(-2.00355e-05 7.95345e-05 -2.64768e-05)
(-2.48766e-05 7.33978e-05 -2.48867e-05)
(-2.82817e-05 6.56616e-05 -2.29692e-05)
(-3.01563e-05 5.71594e-05 -2.08095e-05)
(-2.95594e-05 4.77132e-05 -1.85752e-05)
(-2.68342e-05 4.02376e-05 -1.65326e-05)
(-2.33427e-05 3.40814e-05 -1.48001e-05)
(-1.91637e-05 2.96271e-05 -1.34376e-05)
(-1.47174e-05 2.64233e-05 -1.24722e-05)
(-9.78766e-06 2.44157e-05 -1.18742e-05)
(-4.49247e-06 2.34605e-05 -1.1377e-05)
(1.25221e-06 2.30537e-05 -9.74455e-06)
(2.69395e-06 2.16373e-05 -4.0796e-06)
(-2.03561e-06 2.21051e-05 -2.68178e-06)
(-6.51213e-08 2.40513e-05 -7.26561e-06)
(6.05641e-06 2.51545e-05 -8.61966e-06)
(1.17218e-05 2.68719e-05 -8.96648e-06)
(1.70772e-05 2.95948e-05 -9.39515e-06)
(2.20804e-05 3.33909e-05 -1.01474e-05)
(2.7034e-05 3.83522e-05 -1.12703e-05)
(3.20478e-05 4.47873e-05 -1.27831e-05)
(3.74442e-05 5.30406e-05 -1.47042e-05)
(4.24214e-05 6.4184e-05 -1.70642e-05)
(4.68953e-05 7.78413e-05 -1.9814e-05)
(4.77725e-05 9.55401e-05 -2.28446e-05)
(4.44555e-05 0.000110923 -2.57506e-05)
(3.92746e-05 0.000124628 -2.83123e-05)
(3.23691e-05 0.00013533 -3.04338e-05)
(2.46573e-05 0.000143681 -3.20509e-05)
(1.61033e-05 0.000149275 -3.31543e-05)
(7.18425e-06 0.000152185 -3.37345e-05)
(-1.90169e-06 0.000152317 -3.37801e-05)
(-1.07737e-05 0.000149671 -3.3291e-05)
(-1.92337e-05 0.000144345 -3.22783e-05)
(-2.67984e-05 0.000136266 -3.07521e-05)
(-3.35075e-05 0.000125857 -2.87216e-05)
(-3.84276e-05 0.000112469 -2.6254e-05)
(-4.14446e-05 9.74774e-05 -2.34472e-05)
(-4.01978e-05 8.02233e-05 -2.05306e-05)
(-3.53384e-05 6.71859e-05 -1.79188e-05)
(-2.99461e-05 5.66945e-05 -1.57417e-05)
(-2.39531e-05 4.92251e-05 -1.40751e-05)
(-1.80608e-05 4.37519e-05 -1.29255e-05)
(-1.18032e-05 4.00287e-05 -1.22414e-05)
(-5.31521e-06 3.77404e-05 -1.17052e-05)
(1.54908e-06 3.62714e-05 -9.93605e-06)
(3.18848e-06 3.34606e-05 -3.83153e-06)
(-2.10565e-06 2.96994e-05 -2.50478e-06)
(3.67382e-07 3.24722e-05 -7.37656e-06)
(7.6543e-06 3.43286e-05 -8.82263e-06)
(1.44605e-05 3.70645e-05 -9.16656e-06)
(2.10079e-05 4.11278e-05 -9.6335e-06)
(2.72761e-05 4.66064e-05 -1.05064e-05)
(3.37518e-05 5.36443e-05 -1.18575e-05)
(4.07091e-05 6.27217e-05 -1.37481e-05)
(4.89735e-05 7.45004e-05 -1.62185e-05)
(5.73106e-05 9.10998e-05 -1.93547e-05)
(6.60511e-05 0.000112482 -2.30672e-05)
(6.80417e-05 0.000142676 -2.73351e-05)
(6.2079e-05 0.000167418 -3.13789e-05)
(5.39639e-05 0.000188848 -3.49343e-05)
(4.37864e-05 0.000205105 -3.78664e-05)
(3.30132e-05 0.000217823 -4.00313e-05)
(2.11941e-05 0.000226308 -4.14946e-05)
(9.00561e-06 0.000230727 -4.22558e-05)
(-3.4084e-06 0.000230922 -4.23049e-05)
(-1.55487e-05 0.000226889 -4.16418e-05)
(-2.72708e-05 0.00021879 -4.0275e-05)
(-3.7885e-05 0.000206455 -3.82055e-05)
(-4.78438e-05 0.000190597 -3.53659e-05)
(-5.56434e-05 0.000169581 -3.19036e-05)
(-6.12351e-05 0.000145355 -2.79547e-05)
(-5.87374e-05 0.000115735 -2.37969e-05)
(-4.94954e-05 9.52527e-05 -2.02226e-05)
(-4.06724e-05 7.9514e-05 -1.72785e-05)
(-3.1665e-05 6.87333e-05 -1.50845e-05)
(-2.36078e-05 6.0834e-05 -1.36029e-05)
(-1.55041e-05 5.52934e-05 -1.27603e-05)
(-7.41047e-06 5.1651e-05 -1.21679e-05)
(1.02797e-06 4.92012e-05 -1.02448e-05)
(3.32808e-06 4.52663e-05 -3.67692e-06)
(-2.02705e-06 3.67747e-05 -2.39953e-06)
(1.26463e-06 4.02809e-05 -7.67497e-06)
(1.01431e-05 4.28235e-05 -9.27799e-06)
(1.84551e-05 4.65984e-05 -9.65619e-06)
(2.65559e-05 5.2102e-05 -1.02186e-05)
(3.447e-05 5.93965e-05 -1.131e-05)
(4.29488e-05 6.86264e-05 -1.30446e-05)
(5.25824e-05 8.03797e-05 -1.55577e-05)
(6.52341e-05 9.5759e-05 -1.88995e-05)
(7.93179e-05 0.000118709 -2.3234e-05)
(9.68162e-05 0.000150464 -2.81993e-05)
(0.000101062 0.000202193 -3.44243e-05)
(8.94355e-05 0.000240654 -4.03086e-05)
(7.61845e-05 0.000272464 -4.55933e-05)
(6.08407e-05 0.000295733 -4.99762e-05)
(4.55273e-05 0.000314063 -5.30205e-05)
(2.88103e-05 0.000326253 -5.50559e-05)
(1.17275e-05 0.000332615 -5.61029e-05)
(-5.68384e-06 0.000332882 -5.61599e-05)
(-2.27217e-05 0.000327048 -5.52262e-05)
(-3.93485e-05 0.000315377 -5.33008e-05)
(-5.45027e-05 0.000297542 -5.03638e-05)
(-6.96197e-05 0.000274765 -4.608e-05)
(-8.24981e-05 0.000243428 -4.08908e-05)
(-9.36752e-05 0.000205566 -3.50979e-05)
(-8.86887e-05 0.000154469 -2.8973e-05)
(-7.05245e-05 0.000124017 -2.41469e-05)
(-5.59339e-05 0.00010212 -2.00162e-05)
(-4.23896e-05 8.79168e-05 -1.69788e-05)
(-3.1407e-05 7.7524e-05 -1.49315e-05)
(-2.08992e-05 7.00618e-05 -1.37912e-05)
(-1.06936e-05 6.50134e-05 -1.30542e-05)
(-7.63663e-08 6.16125e-05 -1.08584e-05)
(3.30741e-06 5.67037e-05 -3.63379e-06)
(-1.79717e-06 4.31708e-05 -2.29378e-06)
(2.5981e-06 4.74427e-05 -8.16603e-06)
(1.35125e-05 5.06862e-05 -9.98666e-06)
(2.37848e-05 5.5633e-05 -1.04395e-05)
(3.38591e-05 6.28313e-05 -1.1159e-05)
(4.38036e-05 7.22673e-05 -1.25766e-05)
(5.46747e-05 8.39663e-05 -1.48695e-05)
(6.75672e-05 9.82614e-05 -1.82909e-05)
(8.62925e-05 0.000116553 -2.28677e-05)
(0.000109303 0.000144749 -2.87388e-05)
(0.000144673 0.00018893 -3.48527e-05)
(0.000153684 0.000279406 -4.37431e-05)
(0.000129613 0.000337708 -5.20097e-05)
(0.000107709 0.000383427 -5.99739e-05)
(8.47678e-05 0.00041593 -6.67328e-05)
(6.32046e-05 0.000441964 -7.08999e-05)
(3.95702e-05 0.000459297 -7.36894e-05)
(1.55749e-05 0.000468361 -7.51098e-05)
(-8.92673e-06 0.000468722 -7.51798e-05)
(-3.28886e-05 0.000460369 -7.38987e-05)
(-5.64589e-05 0.000443724 -7.12426e-05)
(-7.78916e-05 0.000418318 -6.72038e-05)
(-0.00010064 0.000386392 -6.05562e-05)
(-0.000122134 0.000341148 -5.26945e-05)
(-0.000145708 0.000283429 -4.45181e-05)
(-0.000135529 0.000193462 -3.57077e-05)
(-9.92388e-05 0.000151314 -2.97398e-05)
(-7.5855e-05 0.000124306 -2.40794e-05)
(-5.60896e-05 0.0001073 -1.98385e-05)
(-4.15454e-05 9.44875e-05 -1.6948e-05)
(-2.8111e-05 8.48101e-05 -1.5348e-05)
(-1.52233e-05 7.80794e-05 -1.43611e-05)
(-1.71818e-06 7.35837e-05 -1.17519e-05)
(3.17243e-06 6.76053e-05 -3.63685e-06)
(-1.38223e-06 4.87306e-05 -2.13671e-06)
(4.44356e-06 5.36832e-05 -8.82618e-06)
(1.79079e-05 5.77044e-05 -1.09114e-05)
(3.07429e-05 6.40041e-05 -1.14728e-05)
(4.33498e-05 7.32296e-05 -1.24098e-05)
(5.57568e-05 8.5272e-05 -1.42681e-05)
(6.90882e-05 9.9878e-05 -1.73136e-05)
(8.49098e-05 0.000116443 -2.19916e-05)
(0.000109349 0.000135641 -2.81492e-05)
(0.000143416 0.000166303 -3.62334e-05)
(0.000214843 0.00021958 -3.98328e-05)
(0.000235012 0.000384174 -5.02075e-05)
(0.000185636 0.00046741 -6.17659e-05)
(0.000151425 0.000528257 -7.41201e-05)
(0.000118447 0.000571232 -8.46636e-05)
(8.8552e-05 0.000606134 -8.99503e-05)
(5.50674e-05 0.000629591 -9.3511e-05)
(2.11101e-05 0.000641902 -9.53073e-05)
(-1.36419e-05 0.00064239 -9.53941e-05)
(-4.75885e-05 0.000631037 -9.37704e-05)
(-8.10647e-05 0.000608498 -9.03733e-05)
(-0.000110913 0.000574406 -8.52451e-05)
(-0.000143827 0.0005321 -7.48315e-05)
(-0.0001777 0.000471643 -6.25958e-05)
(-0.000226699 0.000388873 -5.11587e-05)
(-0.000204497 0.000224252 -4.07893e-05)
(-0.000131721 0.000174585 -3.73337e-05)
(-9.77947e-05 0.00014503 -2.94685e-05)
(-7.21224e-05 0.000127055 -2.36937e-05)
(-5.42488e-05 0.000111947 -1.96257e-05)
(-3.76305e-05 9.95233e-05 -1.7391e-05)
(-2.13685e-05 9.06338e-05 -1.60519e-05)
(-4.13799e-06 8.48094e-05 -1.29074e-05)
(2.78883e-06 7.76038e-05 -3.57119e-06)
(-8.50939e-07 5.32305e-05 -1.95288e-06)
(6.79376e-06 5.87729e-05 -9.60637e-06)
(2.34612e-05 6.37366e-05 -1.20267e-05)
(3.95681e-05 7.1757e-05 -1.2728e-05)
(5.54528e-05 8.37647e-05 -1.39306e-05)
(7.09601e-05 9.97549e-05 -1.63069e-05)
(8.67499e-05 0.000119281 -2.02367e-05)
(0.000104008 0.000139276 -2.63848e-05)
(0.00013196 0.000158458 -3.50385e-05)
(0.00017019 0.000177102 -4.4257e-05)
(0.000309 0.000190443 -5.07114e-05)
(0.000355518 0.000500647 -5.08971e-05)
(0.000252806 0.000617522 -6.34195e-05)
(0.000205838 0.000698154 -8.18307e-05)
(0.000162134 0.000757086 -9.71005e-05)
(0.000121905 0.000805564 -0.000103038)
(7.56908e-05 0.000838408 -0.000107432)
(2.85111e-05 0.000855471 -0.000109582)
(-1.99161e-05 0.000856124 -0.000109682)
(-6.71201e-05 0.000840348 -0.000107733)
(-0.000113416 0.000808749 -0.000103524)
(-0.000153761 0.000761372 -9.77684e-05)
(-0.000197704 0.000703299 -8.2639e-05)
(-0.000244565 0.000623009 -6.43787e-05)
(-0.000347557 0.000506174 -5.20089e-05)
(-0.000297287 0.000193638 -5.20519e-05)
(-0.000156425 0.000186977 -4.55412e-05)
(-0.000119772 0.000169387 -3.64683e-05)
(-9.01832e-05 0.0001513 -2.82723e-05)
(-7.02965e-05 0.000132614 -2.2831e-05)
(-5.02286e-05 0.000115337 -1.98594e-05)
(-2.9596e-05 0.000102907 -1.81182e-05)
(-7.60453e-06 9.50221e-05 -1.43486e-05)
(2.05929e-06 8.64314e-05 -3.38296e-06)
(-1.32946e-07 5.62085e-05 -1.7184e-06)
(9.84058e-06 6.21911e-05 -1.04906e-05)
(3.06152e-05 6.80213e-05 -1.33127e-05)
(5.11971e-05 7.77415e-05 -1.41816e-05)
(7.20049e-05 9.27158e-05 -1.56905e-05)
(9.2728e-05 0.000113424 -1.86314e-05)
(0.000112147 0.000139531 -2.34076e-05)
(0.000130536 0.000165645 -3.15199e-05)
(0.000148592 0.000179808 -4.14032e-05)
(0.000122663 0.000124661 -5.97263e-05)
(0.000375268 0.000187924 -6.76417e-05)
(0.000516199 0.0007376 -3.28343e-05)
(0.000332207 0.000818886 -4.33605e-05)
(0.000283776 0.00088626 -6.41165e-05)
(0.000229433 0.000956981 -8.14274e-05)
(0.000173448 0.00101429 -8.4764e-05)
(0.000107364 0.00105559 -8.82733e-05)
(3.96725e-05 0.00107691 -9.00002e-05)
(-2.95185e-05 0.00107775 -9.00895e-05)
(-9.72563e-05 0.00105812 -8.85425e-05)
(-0.000163506 0.00101847 -8.51871e-05)
(-0.000219808 0.000962673 -8.203e-05)
(-0.000274822 0.00089314 -6.48416e-05)
(-0.000323863 0.000825977 -4.42372e-05)
(-0.000511356 0.000742122 -3.41733e-05)
(-0.00036387 0.000191064 -6.9538e-05)
(-0.000106885 0.000140917 -6.06532e-05)
(-0.00013641 0.00019452 -4.27486e-05)
(-0.000115996 0.00017952 -3.35884e-05)
(-9.42421e-05 0.000153945 -2.63389e-05)
(-6.92911e-05 0.000129894 -2.27158e-05)
(-4.18277e-05 0.000112992 -2.05644e-05)
(-1.2942e-05 0.000102733 -1.60297e-05)
(7.73879e-07 9.30335e-05 -3.03977e-06)
(6.70935e-07 5.73606e-05 -1.47083e-06)
(1.33248e-05 6.36534e-05 -1.14766e-05)
(3.88659e-05 7.02959e-05 -1.47671e-05)
(6.49111e-05 8.18253e-05 -1.58496e-05)
(9.23555e-05 0.00010055 -1.77303e-05)
(0.000121166 0.000128942 -2.11554e-05)
(0.000148999 0.000170781 -2.64029e-05)
(0.000170439 0.00022864 -3.2705e-05)
(0.000144533 0.000302431 -4.79087e-05)
(0.000150447 0.000346165 -6.96397e-05)
(0.000244179 0.000653469 5.62306e-05)
(0.000290193 0.000847043 2.13917e-05)
(0.000346003 0.00097992 1.10943e-05)
(0.000306478 0.0010977 1.24572e-05)
(0.000232818 0.00118129 9.4079e-06)
(0.000145689 0.00123721 6.81157e-06)
(5.32029e-05 0.00126465 5.75769e-06)
(-4.09654e-05 0.00126562 5.76018e-06)
(-0.000133517 0.00124015 6.81596e-06)
(-0.000220863 0.00118626 9.42187e-06)
(-0.000294994 0.00110483 1.2473e-05)
(-0.000335783 0.000989361 1.11659e-05)
(-0.000282982 0.000858688 2.11532e-05)
(-0.000239478 0.000665629 5.51366e-05)
(-0.000146875 0.000358525 -6.82122e-05)
(-0.000138403 0.000316134 -4.8918e-05)
(-0.000158053 0.000242169 -3.4993e-05)
(-0.000130703 0.000185088 -2.97633e-05)
(-9.53644e-05 0.000145452 -2.59183e-05)
(-5.77565e-05 0.00012112 -2.34847e-05)
(-1.97542e-05 0.000107585 -1.8038e-05)
(-7.99982e-07 9.66649e-05 -2.70243e-06)
(1.68736e-06 5.62328e-05 -1.18853e-06)
(1.74951e-05 6.24374e-05 -1.25147e-05)
(4.87889e-05 6.91201e-05 -1.62996e-05)
(8.23177e-05 8.08128e-05 -1.76212e-05)
(0.000120942 9.9963e-05 -1.99587e-05)
(0.000168699 0.000129464 -2.4177e-05)
(0.000231041 0.000174207 -3.05578e-05)
(0.000321434 0.000239721 -3.71445e-05)
(0.00043687 0.000333155 -4.20215e-05)
(0.00067317 0.000448213 -3.06051e-05)
(0.000695143 0.000136182 3.97796e-05)
(0.000559408 0.000306987 4.39122e-05)
(0.000629413 0.00063904 0.000113351)
(0.000568762 0.000837425 0.000171176)
(0.000460088 0.000981565 0.000204813)
(0.000331093 0.00107812 0.000216736)
(0.000200927 0.00113848 0.000221013)
(7.1478e-05 0.00116734 0.000222522)
(-5.70609e-05 0.00116824 0.000222592)
(-0.000186457 0.00114122 0.000221225)
(-0.000316538 0.00108282 0.000217109)
(-0.000445349 0.00098843 0.000205399)
(-0.000553866 0.000846831 0.000172195)
(-0.000614206 0.000651389 0.000114829)
(-0.000542225 0.000322086 4.63484e-05)
(-0.000683806 0.000139904 4.17426e-05)
(-0.000667879 0.000453419 -2.99736e-05)
(-0.000427459 0.000343031 -4.30421e-05)
(-0.000307765 0.000251432 -3.9397e-05)
(-0.000211242 0.000187562 -3.43059e-05)
(-0.00014021 0.000145367 -2.97149e-05)
(-8.17663e-05 0.000120066 -2.67859e-05)
(-2.98467e-05 0.000106193 -2.03101e-05)
(-3.41792e-06 9.53011e-05 -2.25067e-06)
(2.50231e-06 5.27908e-05 -9.35316e-07)
(2.10564e-05 5.84826e-05 -1.3503e-05)
(5.72765e-05 6.43608e-05 -1.77783e-05)
(9.66225e-05 7.43806e-05 -1.93571e-05)
(0.000142769 9.01436e-05 -2.21628e-05)
(0.000200856 0.000112868 -2.7235e-05)
(0.000277321 0.000143564 -3.48822e-05)
(0.000385207 0.000180877 -4.3771e-05)
(0.000521884 0.000215754 -5.06524e-05)
(0.000730002 0.000232471 -4.72358e-05)
(0.000826911 0.000125225 -2.56429e-05)
(0.000836082 0.000293169 9.1772e-06)
(0.000834148 0.000473011 0.00012519)
(0.000714615 0.000605626 0.00019514)
(0.000567081 0.000709428 0.00023186)
(0.000402386 0.000780547 0.000247239)
(0.000241823 0.000826061 0.000252764)
(8.52041e-05 0.000848164 0.000254563)
(-6.91147e-05 0.000848903 0.000254625)
(-0.000225642 0.000828289 0.000252953)
(-0.000386042 0.000784299 0.000247578)
(-0.000550429 0.000714737 0.000232412)
(-0.00069779 0.000612494 0.000196144)
(-0.000817163 0.000481034 0.000126761)
(-0.000819384 0.000301437 1.20681e-05)
(-0.000814348 0.000129284 -2.38824e-05)
(-0.00072095 0.000240092 -4.68525e-05)
(-0.000511287 0.000225181 -5.16554e-05)
(-0.000370488 0.000191735 -4.61469e-05)
(-0.000255899 0.000156076 -3.8996e-05)
(-0.000169568 0.000127908 -3.34455e-05)
(-9.90292e-05 0.000109179 -2.98977e-05)
(-3.71228e-05 9.82749e-05 -2.23983e-05)
(-5.08194e-06 8.8767e-05 -1.89946e-06)
(3.2162e-06 4.74524e-05 -6.912e-07)
(2.41561e-05 5.24512e-05 -1.43675e-05)
(6.46335e-05 5.73371e-05 -1.90662e-05)
(0.000108775 6.54646e-05 -2.0844e-05)
(0.000160647 7.78768e-05 -2.40124e-05)
(0.000225565 9.50289e-05 -2.97978e-05)
(0.000309829 0.000116771 -3.86846e-05)
(0.000424515 0.000141728 -5.01796e-05)
(0.000566185 0.000163887 -6.14534e-05)
(0.000749267 0.00018042 -6.68465e-05)
(0.000879532 0.000155732 -5.32911e-05)
(0.000963138 0.000240152 -6.02778e-06)
(0.00095631 0.0003455 0.000113083)
(0.00081529 0.000433975 0.000179376)
(0.00064256 0.000505855 0.000213077)
(0.000452702 0.000555352 0.000223595)
(0.000271192 0.000587769 0.000226144)
(9.51483e-05 0.000603654 0.00022647)
(-7.76937e-05 0.000604269 0.000226505)
(-0.000253631 0.000589611 0.000226248)
(-0.000434958 0.000558421 0.000223791)
(-0.000624495 0.000510123 0.000213424)
(-0.000797159 0.000439388 0.000180119)
(-0.000938268 0.000351768 0.000114373)
(-0.000946898 0.000246967 -3.3696e-06)
(-0.000866971 0.000161144 -5.17929e-05)
(-0.000738624 0.000187331 -6.63395e-05)
(-0.000554292 0.000172149 -6.23957e-05)
(-0.000408422 0.000151392 -5.26244e-05)
(-0.00028659 0.000128074 -4.30746e-05)
(-0.000191456 0.000108727 -3.65288e-05)
(-0.000112595 9.51587e-05 -3.24508e-05)
(-4.29082e-05 8.69214e-05 -2.41025e-05)
(-6.42947e-06 7.88677e-05 -1.51124e-06)
(3.70942e-06 4.05514e-05 -5.06382e-07)
(2.64558e-05 4.46769e-05 -1.50961e-05)
(7.01472e-05 4.84182e-05 -2.01444e-05)
(0.000117628 5.44642e-05 -2.20798e-05)
(0.00017304 6.34204e-05 -2.55261e-05)
(0.000241464 7.52921e-05 -3.18463e-05)
(0.000328948 8.95214e-05 -4.16325e-05)
(0.000445155 0.000105205 -5.47687e-05)
(0.000587952 0.000118966 -6.84148e-05)
(0.000763641 0.000132581 -7.69351e-05)
(0.000913173 0.000135758 -6.41098e-05)
(0.00103353 0.000185614 -1.94939e-05)
(0.00102874 0.000249593 9.71934e-05)
(0.000876167 0.000304643 0.000157184)
(0.00069 0.000350724 0.000185995)
(0.000485635 0.000383679 0.000192139)
(0.000290914 0.00040579 0.000192151)
(0.000101961 0.000416824 0.000191209)
(-8.33891e-05 0.000417356 0.00019122)
(-0.000272252 0.000407373 0.000192181)
(-0.000466832 0.000386277 0.000192208)
(-0.000670941 0.000354265 0.000186157)
(-0.00085719 0.000309035 0.000157691)
(-0.00101 0.000254618 9.82342e-05)
(-0.00101719 0.000191162 -1.69998e-05)
(-0.00090026 0.000141071 -6.27149e-05)
(-0.000751881 0.000138879 -7.64781e-05)
(-0.000574923 0.000126261 -6.94055e-05)
(-0.000427751 0.000113662 -5.73288e-05)
(-0.00030397 9.94231e-05 -4.62628e-05)
(-0.000204784 8.72653e-05 -3.89844e-05)
(-0.000121245 7.83752e-05 -3.44946e-05)
(-4.64834e-05 7.27427e-05 -2.54793e-05)
(-7.1283e-06 6.63928e-05 -1.27342e-06)
(4.05788e-06 3.2583e-05 -3.69319e-07)
(2.8138e-05 3.57972e-05 -1.56749e-05)
(7.42144e-05 3.85115e-05 -2.09907e-05)
(0.000124072 4.28014e-05 -2.30378e-05)
(0.000181848 4.90534e-05 -2.66792e-05)
(0.000252389 5.71851e-05 -3.33714e-05)
(0.000341613 6.67563e-05 -4.37724e-05)
(0.000458428 7.73759e-05 -5.79432e-05)
(0.000602043 8.74606e-05 -7.29946e-05)
(0.000776993 9.91465e-05 -8.3239e-05)
(0.000937996 0.000109628 -7.08141e-05)
(0.00107622 0.00014111 -2.79847e-05)
(0.00107369 0.000180328 8.74513e-05)
(0.000915829 0.000215675 0.000144024)
(0.000721703 0.000245925 0.000170032)
(0.000508077 0.000268092 0.000173624)
(0.000304557 0.000283184 0.00017209)
(0.000106788 0.000290857 0.000170384)
(-8.72089e-05 0.000291352 0.000170383)
(-0.000284919 0.000284648 0.000172083)
(-0.000488362 0.00027047 0.000173629)
(-0.000701827 0.000249122 0.0001701)
(-0.000896179 0.000219572 0.000144406)
(-0.00105442 0.000184745 8.83431e-05)
(-0.00105961 0.000145947 -2.56564e-05)
(-0.000924667 0.000114577 -6.95178e-05)
(-0.000764453 0.000104735 -8.28399e-05)
(-0.00058813 9.37343e-05 -7.40577e-05)
(-0.000439914 8.45304e-05 -6.06178e-05)
(-0.000315148 7.50532e-05 -4.85999e-05)
(-0.000213568 6.71082e-05 -4.0821e-05)
(-0.000127038 6.12564e-05 -3.60417e-05)
(-4.88126e-05 5.74508e-05 -2.65362e-05)
(-7.54267e-06 5.26237e-05 -1.11258e-06)
(4.26589e-06 2.38896e-05 -2.91703e-07)
(2.92386e-05 2.61505e-05 -1.61105e-05)
(7.6929e-05 2.79143e-05 -2.16154e-05)
(0.000128347 3.06507e-05 -2.37365e-05)
(0.000187617 3.46142e-05 -2.75034e-05)
(0.000259446 3.97505e-05 -3.44277e-05)
(0.000349761 4.58335e-05 -4.51963e-05)
(0.000467223 5.27934e-05 -5.99318e-05)
(0.000612079 6.00841e-05 -7.57009e-05)
(0.000788457 6.92695e-05 -8.67313e-05)
(0.000955973 7.95799e-05 -7.46763e-05)
(0.00110309 9.93139e-05 -3.2674e-05)
(0.00110206 0.000123268 8.27986e-05)
(0.000941204 0.000145239 0.000138155)
(0.000742319 0.000164204 0.000163046)
(0.000522984 0.00017845 0.000165546)
(0.000313768 0.000188281 0.000163349)
(0.000110164 0.00019341 0.000161313)
(-8.96274e-05 0.000193897 0.000161307)
(-0.000293218 0.000189717 0.00016333)
(-0.000502443 0.000180759 0.000165529)
(-0.00072174 0.000167265 0.00016308)
(-0.000921007 0.000148897 0.000138488)
(-0.00108239 0.000127342 8.36252e-05)
(-0.00108622 0.00010367 -3.04332e-05)
(-0.000942314 8.40597e-05 -7.34604e-05)
(-0.000775402 7.41012e-05 -8.64074e-05)
(-0.00059754 6.53221e-05 -7.68514e-05)
(-0.000447893 5.85952e-05 -6.27198e-05)
(-0.000322187 5.24003e-05 -5.01893e-05)
(-0.000219046 4.74152e-05 -4.21175e-05)
(-0.000130626 4.38016e-05 -3.71591e-05)
(-5.01771e-05 4.14234e-05 -2.73212e-05)
(-7.72391e-06 3.80885e-05 -1.05292e-06)
(4.37192e-06 1.48074e-05 -2.65799e-07)
(2.98658e-05 1.6112e-05 -1.64034e-05)
(7.85155e-05 1.70118e-05 -2.20226e-05)
(0.000130866 1.83836e-05 -2.41857e-05)
(0.000191046 2.03977e-05 -2.8023e-05)
(0.000263713 2.30769e-05 -3.50761e-05)
(0.000354846 2.64091e-05 -4.60458e-05)
(0.000473057 3.04864e-05 -6.10741e-05)
(0.00061912 3.52918e-05 -7.72006e-05)
(0.00079706 4.15197e-05 -8.85927e-05)
(0.000968022 4.90588e-05 -7.66957e-05)
(0.00111925 6.00774e-05 -3.48672e-05)
(0.00111897 7.27187e-05 8.1052e-05)
(0.000956446 8.44461e-05 0.000136237)
(0.000754827 9.45519e-05 0.000160856)
(0.000532177 0.000102347 0.000163018)
(0.000319547 0.000107809 0.000160605)
(0.000112417 0.000110806 0.00015846)
(-9.09125e-05 0.000111314 0.000158454)
(-0.000298085 0.000109304 0.000160585)
(-0.000510835 0.00010473 0.000162998)
(-0.000733604 9.76713e-05 0.000160882)
(-0.000935791 8.80921e-05 0.000136553)
(-0.00109902 7.66831e-05 8.18472e-05)
(-0.00110224 6.41482e-05 -3.26883e-05)
(-0.000954216 5.31063e-05 -7.55527e-05)
(-0.000783768 4.5639e-05 -8.83473e-05)
(-0.000604258 3.9521e-05 -7.84382e-05)
(-0.000453267 3.49339e-05 -6.39643e-05)
(-0.000326616 3.11973e-05 -5.1171e-05)
(-0.000222364 2.8388e-05 -4.29417e-05)
(-0.00013274 2.6453e-05 -3.78848e-05)
(-5.09478e-05 2.51927e-05 -2.78482e-05)
(-7.80353e-06 2.32705e-05 -1.05484e-06)
(4.38574e-06 5.59266e-06 -2.92146e-07)
(3.00555e-05 5.9345e-06 -1.65576e-05)
(7.90504e-05 5.99107e-06 -2.22192e-05)
(0.000131765 6.04492e-06 -2.4396e-05)
(0.000192349 6.18854e-06 -2.82556e-05)
(0.00026549 6.5258e-06 -3.53495e-05)
(0.000357217 7.24546e-06 -4.63821e-05)
(0.000476189 8.55753e-06 -6.14973e-05)
(0.000623237 1.08471e-05 -7.77269e-05)
(0.000802319 1.40024e-05 -8.92194e-05)
(0.000974465 1.82565e-05 -7.73707e-05)
(0.00112651 2.16503e-05 -3.55094e-05)
(0.00112619 2.41985e-05 8.07624e-05)
(0.000962908 2.6564e-05 0.00013615)
(0.000760171 2.84487e-05 0.000160859)
(0.000536243 3.01808e-05 0.00016305)
(0.000322235 3.1529e-05 0.000160642)
(0.000113674 3.25278e-05 0.000158497)
(-9.1133e-05 3.30908e-05 0.000158491)
(-0.000299809 3.31821e-05 0.000160622)
(-0.000514079 3.27988e-05 0.000163029)
(-0.000738333 3.18442e-05 0.000160883)
(-0.000941872 3.04567e-05 0.000136455)
(-0.0011061 2.82928e-05 8.15222e-05)
(-0.00110956 2.5633e-05 -3.34031e-05)
(-0.00096075 2.19729e-05 -7.63127e-05)
(-0.000789079 1.7499e-05 -8.90664e-05)
(-0.000608376 1.41541e-05 -7.90558e-05)
(-0.000456324 1.17216e-05 -6.44818e-05)
(-0.000328825 1.02985e-05 -5.1611e-05)
(-0.000223857 9.50369e-06 -4.33329e-05)
(-0.000133611 9.11531e-06 -3.82461e-05)
(-5.1239e-05 8.90203e-06 -2.81324e-05)
(-7.81095e-06 8.39037e-06 -1.11477e-06)
(4.30896e-06 -3.48091e-06 -3.68913e-07)
(2.98091e-05 -4.09805e-06 -1.65737e-05)
(7.8534e-05 -4.90465e-06 -2.22069e-05)
(0.000131039 -6.21548e-06 -2.43701e-05)
(0.000191516 -8.02933e-06 -2.82058e-05)
(0.000264756 -1.01757e-05 -3.52556e-05)
(0.000356847 -1.22616e-05 -4.62184e-05)
(0.000476596 -1.39084e-05 -6.1223e-05)
(0.000624465 -1.41634e-05 -7.73128e-05)
(0.000804362 -1.38285e-05 -8.86637e-05)
(0.000975632 -1.19193e-05 -7.67717e-05)
(0.00112526 -1.60577e-05 -3.47334e-05)
(0.00112395 -2.42683e-05 8.17424e-05)
(0.000960717 -3.1766e-05 0.000137662)
(0.000758435 -3.85312e-05 0.000162791)
(0.000535245 -4.30765e-05 0.000165351)
(0.000321884 -4.59607e-05 0.000163153)
(0.000113975 -4.69841e-05 0.000161107)
(-9.02563e-05 -4.63241e-05 0.000161098)
(-0.000298369 -4.4021e-05 0.000163119)
(-0.000512164 -4.00133e-05 0.000165304)
(-0.000735941 -3.45725e-05 0.000162771)
(-0.000939366 -2.7296e-05 0.000137896)
(-0.00110391 -1.96807e-05 8.24243e-05)
(-0.00110862 -1.18579e-05 -3.2744e-05)
(-0.000962295 -8.34242e-06 -7.58329e-05)
(-0.000791468 -1.07918e-05 -8.86337e-05)
(-0.000609931 -1.16383e-05 -7.87616e-05)
(-0.00045706 -1.18914e-05 -6.43137e-05)
(-0.000328805 -1.081e-05 -5.15338e-05)
(-0.000223522 -9.40452e-06 -4.33095e-05)
(-0.000133242 -8.11034e-06 -3.82521e-05)
(-5.10513e-05 -7.20533e-06 -2.81789e-05)
(-7.7462e-06 -6.29889e-06 -1.2314e-06)
(4.12871e-06 -1.21492e-05 -5.00252e-07)
(2.90904e-05 -1.3727e-05 -1.64524e-05)
(7.68924e-05 -1.54793e-05 -2.19843e-05)
(0.000128553 -1.83371e-05 -2.41041e-05)
(0.00018832 -2.24456e-05 -2.78656e-05)
(0.000261172 -2.76318e-05 -3.47773e-05)
(0.000353306 -3.33179e-05 -4.55195e-05)
(0.000473911 -3.88116e-05 -6.01684e-05)
(0.000622682 -4.20536e-05 -7.57917e-05)
(0.000803848 -4.39984e-05 -8.66192e-05)
(0.000971926 -4.13126e-05 -7.45123e-05)
(0.00111444 -5.4025e-05 -3.18401e-05)
(0.00111083 -7.62087e-05 8.50722e-05)
(0.000948797 -9.62801e-05 0.000142387)
(0.000748874 -0.00011391 0.000168657)
(0.000528773 -0.000126004 0.000172257)
(0.00031829 -0.000133847 0.000170658)
(0.000113295 -0.00013717 0.000168899)
(-8.81618e-05 -0.000136352 0.000168876)
(-0.000293469 -0.000131432 0.000170583)
(-0.000504596 -0.000122179 0.000172137)
(-0.000725633 -0.00010894 0.000168533)
(-0.000927128 -9.0701e-05 0.000142483)
(-0.00109099 -7.05296e-05 8.55848e-05)
(-0.00109845 -4.91267e-05 -3.00577e-05)
(-0.000959323 -3.76115e-05 -7.37574e-05)
(-0.000791629 -4.11856e-05 -8.67755e-05)
(-0.000608821 -4.00857e-05 -7.73944e-05)
(-0.000455094 -3.77087e-05 -6.33767e-05)
(-0.000326112 -3.32242e-05 -5.09052e-05)
(-0.000221005 -2.88204e-05 -4.28479e-05)
(-0.000131397 -2.52922e-05 -3.78921e-05)
(-5.02679e-05 -2.29699e-05 -2.79854e-05)
(-7.5751e-06 -2.05609e-05 -1.41602e-06)
(3.80963e-06 -2.00776e-05 -6.93465e-07)
(2.77983e-05 -2.25663e-05 -1.61963e-05)
(7.39126e-05 -2.53198e-05 -2.15521e-05)
(0.000123905 -2.989e-05 -2.35958e-05)
(0.000182059 -3.66587e-05 -2.72214e-05)
(0.000253624 -4.55828e-05 -3.38697e-05)
(0.000345045 -5.6035e-05 -4.41694e-05)
(0.000466443 -6.69136e-05 -5.80385e-05)
(0.000616693 -7.43537e-05 -7.2574e-05)
(0.000801821 -7.84741e-05 -8.20087e-05)
(0.000963573 -6.72201e-05 -6.97083e-05)
(0.00109034 -9.12278e-05 -2.58713e-05)
(0.00108218 -0.0001359 9.23348e-05)
(0.000923217 -0.000174165 0.000152861)
(0.000728667 -0.000206692 0.000181701)
(0.000515176 -0.000228723 0.00018763)
(0.00031061 -0.000242909 0.000187395)
(0.000111428 -0.000249085 0.000186283)
(-8.44946e-05 -0.000248013 0.000186226)
(-0.000284108 -0.000239716 0.000187215)
(-0.000489555 -0.000223615 0.000187329)
(-0.000704424 -0.000199931 0.000181323)
(-0.00090113 -0.000166504 0.000152638)
(-0.00106274 -0.00012804 9.25042e-05)
(-0.00107552 -8.4774e-05 -2.44526e-05)
(-0.000952163 -6.30241e-05 -6.92518e-05)
(-0.000790576 -7.55005e-05 -8.24802e-05)
(-0.000603821 -7.25245e-05 -7.4429e-05)
(-0.000448721 -6.6314e-05 -6.14216e-05)
(-0.000319181 -5.68969e-05 -4.96326e-05)
(-0.00021518 -4.83286e-05 -4.19144e-05)
(-0.000127381 -4.18718e-05 -3.71491e-05)
(-4.85381e-05 -3.78039e-05 -2.7551e-05)
(-7.17161e-06 -3.38914e-05 -1.70999e-06)