/*--------------------------------*- C++ -*----------------------------------*\
| =========                 |                                                 |
| \\      /  F ield         | OpenFOAM: The Open Source CFD Toolbox           |
|  \\    /   O peration     | Version:  2112                                  |
|   \\  /    A nd           | Website:  www.openfoam.com                      |
|    \\/     M anipulation  |                                                 |
\*---------------------------------------------------------------------------*/
FoamFile
{
    version     2.0;
    format      ascii;
    arch        "LSB;label=32;scalar=64";
    class       volScalarField;
    location    "0.8";
    object      epsilon;
}
// * * * * * * * * * * * * * * * * * * * * * * * * * * * * * * * * * * * * * //

dimensions      [0 2 -3 0 0 0 0];

internalField   nonuniform List<scalar> 
64906
(
0.0140051
0.0144008
0.0145104
0.0145281
0.0145303
0.0145306
0.0145308
0.0145309
0.0145311
0.0145313
0.0145315
0.0145316
0.0145317
0.0145318
0.0145318
0.0145319
0.0145319
0.0145319
0.0145319
0.0145319
0.0145318
0.0145318
0.0145318
0.0145317
0.0145316
0.0145314
0.0145313
0.0145311
0.0145309
0.0145306
0.0145284
0.0145106
0.0144011
0.0140054
0.0144009
0.0189073
0.020192
0.020432
0.0204666
0.0204708
0.0204714
0.0204717
0.0204721
0.0204725
0.0204729
0.0204733
0.0204737
0.020474
0.0204743
0.0204745
0.0204746
0.0204747
0.0204747
0.0204746
0.0204745
0.0204743
0.0204741
0.0204738
0.0204734
0.020473
0.0204726
0.0204723
0.0204716
0.0204674
0.0204328
0.0201927
0.018908
0.0144013
0.0145106
0.0201924
0.0219913
0.0223632
0.0224225
0.0224305
0.0224317
0.0224324
0.0224331
0.0224339
0.0224348
0.0224357
0.0224366
0.0224374
0.0224381
0.0224386
0.0224389
0.0224391
0.0224391
0.022439
0.0224387
0.0224382
0.0224375
0.0224368
0.0224359
0.022435
0.0224342
0.0224334
0.022432
0.0224239
0.0223645
0.0219925
0.0201934
0.0145111
0.0145285
0.0204326
0.0223634
0.0227759
0.022844
0.0228535
0.0228551
0.0228561
0.0228571
0.0228583
0.0228597
0.0228612
0.0228627
0.022864
0.022865
0.0228659
0.0228665
0.0228668
0.0228668
0.0228665
0.022866
0.0228652
0.0228641
0.0228629
0.0228615
0.02286
0.0228587
0.0228574
0.0228555
0.0228458
0.0227775
0.022365
0.0204339
0.0145291
0.0145308
0.0204673
0.0224229
0.0228441
0.0229144
0.0229244
0.0229263
0.0229275
0.0229289
0.0229303
0.022932
0.0229345
0.0229368
0.0229387
0.0229403
0.0229415
0.0229424
0.0229428
0.0229428
0.0229424
0.0229417
0.0229405
0.0229389
0.022937
0.0229348
0.0229323
0.0229307
0.0229292
0.022927
0.0229167
0.0228462
0.0224247
0.0204688
0.0145315
0.0145312
0.0204715
0.0224309
0.0228536
0.0229244
0.0229347
0.0229369
0.0229383
0.0229394
0.0229393
0.0229389
0.0229445
0.0229491
0.0229523
0.0229548
0.0229565
0.0229576
0.0229581
0.0229582
0.0229576
0.0229566
0.022955
0.0229526
0.0229494
0.0229448
0.0229393
0.0229398
0.0229398
0.0229378
0.0229272
0.0228561
0.022433
0.0204732
0.0145321
0.0145314
0.0204721
0.0224321
0.0228553
0.0229263
0.0229368
0.0229391
0.0229397
0.022936
0.0229204
0.0228979
0.0229222
0.0229397
0.0229477
0.022952
0.0229542
0.0229555
0.0229562
0.0229562
0.0229556
0.0229543
0.0229523
0.022948
0.02294
0.0229226
0.0228983
0.0229209
0.0229365
0.0229393
0.0229295
0.0228582
0.0224347
0.0204741
0.0145324
0.0145316
0.0204724
0.0224327
0.0228561
0.0229273
0.022938
0.0229394
0.0229334
0.0228973
0.0227796
0.0226022
0.0227577
0.0228563
0.0228887
0.0228993
0.022902
0.0229033
0.0229041
0.0229041
0.0229034
0.0229022
0.0228996
0.0228891
0.0228566
0.0227581
0.0226026
0.0227801
0.0228978
0.022933
0.0229299
0.0228594
0.0224357
0.0204747
0.0145328
0.0145317
0.0204727
0.0224332
0.0228569
0.0229283
0.0229386
0.0229352
0.0228968
0.0227059
0.0220735
0.0210358
0.021973
0.0224953
0.0226416
0.0226745
0.0226796
0.0226812
0.0226821
0.0226821
0.0226814
0.0226799
0.0226748
0.0226419
0.0224957
0.0219735
0.0210361
0.022074
0.0227064
0.0228965
0.0229257
0.0228601
0.0224366
0.0204752
0.0145331
0.0145319
0.0204729
0.0224338
0.0228577
0.0229293
0.0229379
0.022919
0.0227797
0.0220762
0.0195923
0.0153914
0.0193742
0.0214749
0.0219986
0.0220924
0.0221079
0.0221115
0.0221127
0.0221127
0.0221116
0.0221082
0.0220927
0.0219991
0.0214755
0.019375
0.0153913
0.0195927
0.0220768
0.0227794
0.0229096
0.0228594
0.0224374
0.0204757
0.0145334
0.014532
0.0204731
0.0224343
0.0228586
0.0229303
0.0229368
0.022897
0.0226084
0.0210566
0.0154046
0.0152852
0.0200495
0.0211987
0.0213846
0.0214074
0.0214098
0.0214102
0.0214103
0.0214098
0.0214075
0.0213848
0.021199
0.0200501
0.0152857
0.0154049
0.0210572
0.0226082
0.0228876
0.0228583
0.0224382
0.020476
0.0145336
0.014532
0.0204731
0.0224348
0.0228596
0.022932
0.0229417
0.0229243
0.0227859
0.0220795
0.0195814
0.0153876
0.0192965
0.0213911
0.0219092
0.022001
0.0220028
0.0219987
0.0219971
0.0219971
0.0219987
0.0220027
0.0220009
0.0219091
0.021391
0.0192963
0.015387
0.0195807
0.0220796
0.0227854
0.0229148
0.022863
0.0224395
0.0204762
0.0145337
0.014532
0.0204732
0.0224353
0.0228604
0.0229334
0.0229458
0.0229449
0.0229092
0.0227173
0.0220741
0.0210061
0.0218666
0.0223069
0.0224123
0.0224272
0.0224211
0.0224163
0.0224144
0.0224143
0.0224162
0.022421
0.022427
0.022412
0.0223064
0.0218659
0.021005
0.0220736
0.0227173
0.0229086
0.0229353
0.0228669
0.0224406
0.0204763
0.0145336
0.0145319
0.0204732
0.0224357
0.0228611
0.0229345
0.022948
0.0229531
0.022951
0.0229164
0.0227903
0.0225733
0.0226326
0.0226048
0.0225788
0.0225655
0.0225571
0.0225525
0.0225505
0.0225504
0.0225523
0.0225569
0.0225652
0.0225784
0.0226043
0.0226315
0.0225725
0.0227899
0.0229164
0.0229504
0.0229433
0.022869
0.0224414
0.0204764
0.0145335
0.0145318
0.0204732
0.022436
0.0228617
0.0229354
0.0229493
0.022956
0.0229617
0.0229608
0.0229379
0.0228736
0.0227962
0.0226719
0.0226167
0.0225961
0.0225867
0.0225815
0.022579
0.0225789
0.0225813
0.0225864
0.0225957
0.0226162
0.0226714
0.0227952
0.0228729
0.0229375
0.0229608
0.022961
0.0229462
0.0228702
0.022442
0.0204764
0.0145334
0.0145317
0.0204732
0.0224362
0.0228621
0.022936
0.0229502
0.0229573
0.0229646
0.0229695
0.0229633
0.0229216
0.0228256
0.0226845
0.0226242
0.0226019
0.0225917
0.0225858
0.0225825
0.0225824
0.0225855
0.0225914
0.0226015
0.0226237
0.022684
0.0228246
0.022921
0.0229629
0.0229695
0.0229639
0.0229475
0.022871
0.0224424
0.0204764
0.0145332
0.0145316
0.0204731
0.0224364
0.0228624
0.0229365
0.0229508
0.0229581
0.0229658
0.0229717
0.0229679
0.0229293
0.0228314
0.0226872
0.022626
0.0226032
0.0225925
0.0225858
0.0225817
0.0225815
0.0225855
0.0225921
0.0226027
0.0226254
0.0226866
0.0228304
0.0229287
0.0229675
0.0229717
0.0229651
0.0229483
0.0228716
0.0224427
0.0204764
0.014533
0.0145314
0.0204731
0.0224365
0.0228626
0.0229367
0.0229511
0.0229586
0.0229664
0.0229726
0.0229691
0.0229311
0.0228331
0.022688
0.0226266
0.0226036
0.0225926
0.0225854
0.0225806
0.0225804
0.022585
0.0225921
0.0226031
0.0226261
0.0226874
0.0228321
0.0229305
0.0229688
0.0229726
0.0229657
0.0229488
0.0228719
0.0224429
0.0204763
0.0145328
0.0145314
0.0204731
0.0224365
0.0228627
0.0229368
0.0229513
0.0229588
0.0229666
0.0229729
0.0229695
0.0229315
0.0228335
0.0226882
0.0226267
0.0226036
0.0225925
0.0225851
0.0225799
0.0225797
0.0225846
0.022592
0.0226031
0.0226262
0.0226876
0.0228325
0.0229309
0.0229692
0.0229729
0.0229659
0.022949
0.0228721
0.022443
0.0204763
0.0145327
0.0145314
0.0204731
0.0224365
0.0228627
0.0229368
0.0229512
0.0229586
0.0229664
0.0229726
0.0229689
0.0229305
0.0228326
0.0226878
0.0226263
0.0226033
0.0225922
0.022585
0.02258
0.0225797
0.0225845
0.0225917
0.0226027
0.0226258
0.0226872
0.0228317
0.02293
0.0229687
0.0229727
0.0229658
0.0229489
0.022872
0.022443
0.0204764
0.0145327
0.0145314
0.0204731
0.0224364
0.0228625
0.0229365
0.0229508
0.0229582
0.0229657
0.022971
0.0229651
0.0229237
0.0228278
0.0226855
0.0226248
0.022602
0.0225912
0.0225844
0.0225802
0.0225799
0.0225839
0.0225907
0.0226015
0.0226242
0.022685
0.022827
0.0229233
0.0229649
0.0229711
0.0229651
0.0229485
0.0228718
0.0224429
0.0204764
0.0145328
0.0145316
0.0204732
0.0224363
0.0228622
0.0229361
0.0229502
0.0229572
0.0229633
0.0229628
0.0229406
0.0228769
0.0227997
0.0226735
0.0226177
0.0225963
0.022586
0.0225798
0.0225764
0.0225762
0.0225794
0.0225855
0.0225958
0.0226171
0.022673
0.022799
0.0228766
0.0229405
0.0229631
0.0229628
0.0229476
0.0228713
0.0224426
0.0204765
0.014533
0.0145317
0.0204732
0.0224361
0.0228618
0.0229355
0.0229492
0.0229546
0.0229531
0.0229192
0.0227942
0.0225787
0.0226379
0.0226071
0.0225801
0.0225658
0.0225564
0.0225507
0.022548
0.0225478
0.0225503
0.0225559
0.0225653
0.0225796
0.0226067
0.0226375
0.0225786
0.0227944
0.0229196
0.0229528
0.0229452
0.0228704
0.0224423
0.0204765
0.0145332
0.0145317
0.0204733
0.0224358
0.0228612
0.0229346
0.0229472
0.0229468
0.0229117
0.022721
0.0220798
0.021015
0.0218738
0.0223099
0.022414
0.0224277
0.0224206
0.0224149
0.0224124
0.0224123
0.0224145
0.0224201
0.0224272
0.0224136
0.0223096
0.0218739
0.0210153
0.0220803
0.0227216
0.0229115
0.0229375
0.0228686
0.0224417
0.0204766
0.0145333
0.0145318
0.0204733
0.0224355
0.0228606
0.0229333
0.0229435
0.0229265
0.0227889
0.0220837
0.0195881
0.0153922
0.0193008
0.0213918
0.0219092
0.0220001
0.0220009
0.021996
0.021994
0.0219939
0.0219958
0.0220004
0.0219995
0.0219087
0.0213916
0.0193017
0.0153922
0.0195889
0.0220846
0.022789
0.0229174
0.022865
0.0224408
0.0204766
0.0145334
0.0145318
0.0204732
0.0224351
0.0228598
0.0229319
0.0229388
0.0228994
0.0226111
0.021059
0.0154048
0.0152803
0.0200396
0.0211891
0.0213738
0.021395
0.0213963
0.0213961
0.0213959
0.0213958
0.0213942
0.0213724
0.0211872
0.020037
0.0152786
0.0154047
0.0210598
0.0226114
0.0228905
0.0228606
0.0224397
0.0204765
0.0145333
0.0145317
0.0204732
0.0224347
0.0228591
0.0229312
0.0229403
0.0229221
0.0227835
0.0220808
0.019598
0.0153971
0.0193647
0.0214581
0.0219675
0.0220527
0.0220639
0.0220655
0.0220657
0.0220655
0.0220648
0.0220624
0.022049
0.0219598
0.0214435
0.0193565
0.0153959
0.0195982
0.0220818
0.022784
0.0229133
0.0228623
0.0224393
0.0204763
0.0145332
0.0145316
0.020473
0.0224342
0.0228584
0.0229304
0.0229414
0.0229388
0.0229015
0.0227117
0.02208
0.0210403
0.0219595
0.0224489
0.022543
0.0225506
0.022548
0.0225471
0.0225469
0.0225467
0.0225462
0.0225455
0.0225426
0.0225206
0.0223992
0.0219286
0.0210288
0.0220774
0.0227121
0.0229019
0.0229301
0.0228635
0.0224388
0.0204761
0.014533
0.0145315
0.0204725
0.0224331
0.0228569
0.0229287
0.0229401
0.0229426
0.0229377
0.0229026
0.0227845
0.0225998
0.0227248
0.0227525
0.0226753
0.022643
0.0226333
0.0226307
0.0226299
0.0226297
0.0226297
0.0226302
0.0226319
0.0226366
0.0226473
0.0226558
0.0225718
0.0227769
0.022902
0.022938
0.0229339
0.0228623
0.0224374
0.0204754
0.0145328
0.0145312
0.0204684
0.0224252
0.0228474
0.0229187
0.02293
0.0229333
0.0229352
0.0229326
0.0229163
0.022886
0.0228796
0.0228241
0.022723
0.0226853
0.0226753
0.0226731
0.0226727
0.0226725
0.0226724
0.0226726
0.0226745
0.0226835
0.0227178
0.0228077
0.0228563
0.0229085
0.022932
0.0229356
0.0229248
0.0228526
0.0224293
0.0204711
0.0145324
0.0145289
0.0204339
0.0223658
0.0227792
0.0228483
0.0228591
0.0228622
0.022865
0.0228674
0.0228677
0.0228635
0.0228527
0.022818
0.0227619
0.0227383
0.0227318
0.0227309
0.0227311
0.0227311
0.0227307
0.0227302
0.0227308
0.0227367
0.0227595
0.0228141
0.0228477
0.0228641
0.0228679
0.0228656
0.0228541
0.0227841
0.0223696
0.0204364
0.01453
0.0145111
0.0201937
0.0219938
0.0223666
0.0224268
0.0224359
0.0224385
0.0224409
0.0224436
0.022446
0.0224469
0.0224437
0.0224318
0.0224121
0.0224033
0.022401
0.022401
0.0224013
0.0224014
0.0224011
0.0224005
0.0224003
0.0224023
0.0224108
0.0224302
0.0224418
0.0224456
0.0224448
0.0224418
0.0224319
0.0223708
0.0219972
0.020196
0.0145121
0.0144015
0.0189087
0.0201943
0.0204351
0.0204704
0.0204755
0.0204772
0.0204789
0.0204808
0.0204827
0.0204841
0.0204841
0.0204817
0.0204767
0.0204743
0.0204735
0.0204733
0.0204733
0.0204733
0.0204733
0.0204732
0.0204732
0.020474
0.0204762
0.0204811
0.0204833
0.0204833
0.0204819
0.0204798
0.0204742
0.0204383
0.0201969
0.0189105
0.0144023
0.0140056
0.0144016
0.0145115
0.0145296
0.0145322
0.014533
0.0145337
0.0145346
0.0145355
0.0145366
0.0145376
0.0145383
0.0145387
0.0145384
0.0145381
0.0145377
0.0145373
0.0145369
0.0145368
0.0145369
0.0145373
0.0145376
0.014538
0.0145382
0.0145383
0.0145378
0.014537
0.014536
0.014535
0.0145339
0.0145311
0.0145127
0.0144025
0.0140063
0.0175645
0.0198918
0.0206241
0.0207662
0.0207869
0.0207894
0.0207897
0.0207898
0.0207899
0.02079
0.02079
0.0207901
0.0207901
0.0207901
0.0207901
0.0207901
0.0207901
0.0207901
0.0207901
0.0207901
0.0207901
0.0207901
0.0207901
0.0207901
0.0207901
0.02079
0.0207899
0.0207898
0.0207895
0.0207871
0.0207664
0.0206242
0.0198919
0.0175647
0.0198918
0.0196618
0.0204417
0.0206466
0.0206826
0.0206873
0.0206878
0.0206879
0.020688
0.020688
0.0206881
0.0206882
0.0206882
0.0206882
0.0206883
0.0206883
0.0206883
0.0206883
0.0206883
0.0206883
0.0206883
0.0206883
0.0206883
0.0206882
0.0206882
0.0206881
0.0206881
0.020688
0.0206875
0.0206827
0.0206467
0.0204418
0.0196619
0.019892
0.0206243
0.0204418
0.0213233
0.0215741
0.0216223
0.0216293
0.0216302
0.0216304
0.0216305
0.0216307
0.0216309
0.0216311
0.0216312
0.0216314
0.0216315
0.0216316
0.0216317
0.0216317
0.0216317
0.0216317
0.0216316
0.0216315
0.0216314
0.0216313
0.0216311
0.0216309
0.0216308
0.0216306
0.0216297
0.0216226
0.0215743
0.0213235
0.020442
0.0206247
0.0207667
0.0206468
0.0215742
0.0218435
0.0218969
0.021905
0.021906
0.0219063
0.0219066
0.0219068
0.0219071
0.0219075
0.0219078
0.0219081
0.0219084
0.0219086
0.0219087
0.0219088
0.0219088
0.0219087
0.0219086
0.0219084
0.0219081
0.0219079
0.0219075
0.0219072
0.0219069
0.0219066
0.0219054
0.0218973
0.0218439
0.0215745
0.0206471
0.0207672
0.0207875
0.0206828
0.0216224
0.0218969
0.0219517
0.0219601
0.0219613
0.0219616
0.0219619
0.0219621
0.0219622
0.0219629
0.0219635
0.021964
0.0219644
0.0219647
0.0219649
0.021965
0.021965
0.0219649
0.0219647
0.0219644
0.021964
0.0219636
0.0219629
0.0219623
0.0219622
0.0219619
0.0219607
0.0219522
0.0218974
0.0216229
0.0206832
0.0207881
0.02079
0.0206876
0.0216295
0.021905
0.0219601
0.0219686
0.0219699
0.0219702
0.0219698
0.0219683
0.0219663
0.0219683
0.0219702
0.0219713
0.0219719
0.0219723
0.0219725
0.0219726
0.0219726
0.0219725
0.0219723
0.0219719
0.0219713
0.0219703
0.0219684
0.0219664
0.0219684
0.0219699
0.0219693
0.0219608
0.0219056
0.02163
0.020688
0.0207908
0.0207904
0.0206881
0.0216303
0.0219061
0.0219613
0.0219699
0.021971
0.0219702
0.0219652
0.0219513
0.0219354
0.0219456
0.0219559
0.02196
0.0219614
0.0219619
0.0219622
0.0219623
0.0219623
0.0219622
0.021962
0.0219614
0.0219601
0.021956
0.0219457
0.0219355
0.0219514
0.0219653
0.0219693
0.0219619
0.0219068
0.0216309
0.0206886
0.0207913
0.0207905
0.0206881
0.0216305
0.0219063
0.0219616
0.0219701
0.0219701
0.0219631
0.0219331
0.0218554
0.0217782
0.0218243
0.02188
0.0219005
0.0219048
0.0219067
0.0219071
0.0219071
0.0219071
0.0219071
0.0219067
0.0219049
0.0219006
0.0218801
0.0218244
0.0217783
0.0218555
0.0219331
0.0219623
0.021961
0.021907
0.0216312
0.0206887
0.0207915
0.0207906
0.0206881
0.0216306
0.0219065
0.0219617
0.0219696
0.0219651
0.0219332
0.0218061
0.0215005
0.0213758
0.021385
0.0216067
0.0216935
0.0217096
0.0217173
0.0217189
0.021719
0.0217191
0.0217189
0.0217173
0.0217097
0.0216936
0.0216068
0.0213851
0.0213758
0.0215006
0.0218062
0.0219324
0.021956
0.0219065
0.0216312
0.0206888
0.0207917
0.0207906
0.0206881
0.0216306
0.0219066
0.0219618
0.021968
0.0219515
0.0218576
0.0215064
0.0208938
0.0255377
0.0205586
0.0209578
0.0212083
0.0212609
0.0212795
0.0212834
0.0212839
0.0212839
0.0212834
0.0212796
0.021261
0.0212084
0.020958
0.0205587
0.0255373
0.0208939
0.0215065
0.0218568
0.0219425
0.0219048
0.0216312
0.0206887
0.0207919
0.0207906
0.0206881
0.0216307
0.0219068
0.0219618
0.0219662
0.0219377
0.0217899
0.0214152
0.0256761
0.0247193
0.020455
0.0207308
0.020838
0.0208503
0.0208499
0.0208494
0.0208494
0.0208499
0.0208504
0.0208381
0.0207309
0.0204552
0.0247203
0.0256765
0.0214153
0.021789
0.0219286
0.021903
0.021631
0.0206887
0.0207919
0.0207906
0.0206881
0.0216308
0.021907
0.0219624
0.0219688
0.0219526
0.0218585
0.0215058
0.0208913
0.0255168
0.0205323
0.0209539
0.0212248
0.0213209
0.0212904
0.0212761
0.0212726
0.0212725
0.0212761
0.0212903
0.0213208
0.0212247
0.0209538
0.020532
0.0255152
0.0208911
0.0215057
0.0218576
0.0219435
0.0219055
0.0216314
0.0206886
0.0207917
0.0207904
0.020688
0.0216308
0.0219072
0.0219629
0.0219713
0.0219672
0.0219354
0.0218063
0.0214936
0.0213535
0.0213405
0.0215749
0.0216578
0.0216817
0.0216682
0.0216604
0.0216581
0.021658
0.0216604
0.0216681
0.0216817
0.0216576
0.0215747
0.0213402
0.0213532
0.0214935
0.0218063
0.0219344
0.0219581
0.0219079
0.0216318
0.0206886
0.0207915
0.0207903
0.020688
0.0216309
0.0219074
0.0219632
0.0219724
0.0219731
0.0219665
0.0219347
0.0218491
0.0217515
0.0217687
0.0218206
0.0218195
0.0218145
0.0218077
0.0218041
0.0218028
0.0218028
0.021804
0.0218076
0.0218144
0.0218193
0.0218204
0.0217684
0.0217512
0.021849
0.0219346
0.0219656
0.021964
0.021909
0.021632
0.0206885
0.0207913
0.0207901
0.0206879
0.0216309
0.0219075
0.0219634
0.0219728
0.0219748
0.0219746
0.0219681
0.0219459
0.0219074
0.0218845
0.0218829
0.0218591
0.0218469
0.0218415
0.0218392
0.0218383
0.0218383
0.0218392
0.0218415
0.0218468
0.021859
0.0218827
0.0218842
0.0219073
0.0219458
0.0219681
0.0219737
0.0219657
0.0219094
0.0216321
0.0206884
0.020791
0.02079
0.0206879
0.021631
0.0219076
0.0219636
0.0219731
0.0219753
0.0219764
0.0219747
0.0219647
0.0219397
0.0219072
0.0218948
0.0218666
0.021853
0.0218479
0.0218458
0.0218449
0.0218449
0.0218457
0.0218478
0.0218529
0.0218665
0.0218947
0.021907
0.0219395
0.0219647
0.0219746
0.0219755
0.0219662
0.0219096
0.0216322
0.0206884
0.0207908
0.0207898
0.0206879
0.021631
0.0219077
0.0219637
0.0219732
0.0219756
0.0219768
0.0219758
0.0219678
0.0219449
0.021911
0.0218968
0.021868
0.0218542
0.021849
0.0218469
0.021846
0.0218459
0.0218469
0.021849
0.0218541
0.0218679
0.0218967
0.0219107
0.0219448
0.0219678
0.0219758
0.0219759
0.0219664
0.0219097
0.0216322
0.0206884
0.0207905
0.0207897
0.0206879
0.021631
0.0219077
0.0219638
0.0219733
0.0219757
0.021977
0.0219761
0.0219684
0.0219457
0.0219117
0.0218973
0.0218683
0.0218544
0.0218493
0.0218471
0.0218461
0.0218461
0.0218471
0.0218492
0.0218544
0.0218682
0.0218971
0.0219114
0.0219456
0.0219683
0.0219761
0.0219761
0.0219665
0.0219098
0.0216323
0.0206883
0.0207904
0.0207896
0.0206879
0.021631
0.0219077
0.0219638
0.0219734
0.0219757
0.021977
0.0219762
0.0219684
0.0219458
0.0219117
0.0218973
0.0218684
0.0218545
0.0218493
0.0218471
0.021846
0.021846
0.021847
0.0218492
0.0218544
0.0218683
0.0218972
0.0219115
0.0219457
0.0219684
0.0219762
0.0219761
0.0219666
0.0219099
0.0216323
0.0206883
0.0207903
0.0207896
0.0206879
0.021631
0.0219077
0.0219638
0.0219733
0.0219757
0.021977
0.0219761
0.0219681
0.0219452
0.0219113
0.021897
0.0218682
0.0218543
0.0218491
0.0218469
0.0218458
0.0218458
0.0218468
0.021849
0.0218542
0.021868
0.0218969
0.0219111
0.0219451
0.0219681
0.0219761
0.0219761
0.0219665
0.0219099
0.0216323
0.0206884
0.0207903
0.0207897
0.0206879
0.021631
0.0219077
0.0219637
0.0219732
0.0219756
0.0219766
0.021975
0.0219652
0.0219402
0.0219077
0.0218952
0.0218669
0.0218532
0.021848
0.0218458
0.0218448
0.0218448
0.0218457
0.0218479
0.0218531
0.0218668
0.0218951
0.0219076
0.0219401
0.0219652
0.021975
0.0219758
0.0219664
0.0219098
0.0216323
0.0206884
0.0207904
0.0207898
0.0206879
0.021631
0.0219076
0.0219636
0.0219731
0.0219751
0.021975
0.0219686
0.0219466
0.0219083
0.0218854
0.0218836
0.0218597
0.0218473
0.0218418
0.0218394
0.0218384
0.0218383
0.0218393
0.0218418
0.0218472
0.0218596
0.0218835
0.0218853
0.0219083
0.0219466
0.0219687
0.0219742
0.021966
0.0219097
0.0216322
0.0206884
0.0207906
0.02079
0.020688
0.021631
0.0219076
0.0219635
0.0219727
0.0219735
0.021967
0.0219355
0.0218502
0.0217531
0.0217703
0.0218218
0.0218205
0.0218154
0.0218085
0.0218048
0.0218034
0.0218034
0.0218048
0.0218084
0.0218153
0.0218205
0.0218218
0.0217703
0.0217531
0.0218503
0.0219355
0.0219662
0.0219645
0.0219093
0.0216322
0.0206885
0.0207908
0.0207901
0.020688
0.021631
0.0219074
0.0219632
0.0219717
0.0219677
0.0219361
0.0218074
0.0214955
0.0213561
0.021343
0.0215768
0.0216595
0.0216834
0.0216699
0.0216621
0.0216597
0.0216597
0.0216621
0.0216699
0.0216834
0.0216596
0.0215769
0.0213432
0.0213562
0.0214956
0.0218076
0.0219353
0.0219587
0.0219084
0.021632
0.0206886
0.0207911
0.0207902
0.0206881
0.0216309
0.0219073
0.0219627
0.0219693
0.0219532
0.0218593
0.021507
0.0208934
0.0255286
0.020534
0.020955
0.0212258
0.021322
0.0212914
0.021277
0.0212735
0.0212735
0.0212771
0.0212914
0.021322
0.0212258
0.0209549
0.0205338
0.0255284
0.0208935
0.0215072
0.0218586
0.0219442
0.0219061
0.0216317
0.0206887
0.0207913
0.0207903
0.0206881
0.0216309
0.0219071
0.0219622
0.0219667
0.0219383
0.0217907
0.0214159
0.0256744
0.0247044
0.02045
0.0207241
0.0208304
0.0208421
0.0208413
0.0208406
0.0208406
0.0208411
0.0208418
0.0208298
0.0207228
0.0204473
0.0246981
0.0256733
0.021416
0.0217899
0.0219294
0.0219036
0.0216314
0.0206888
0.0207914
0.0207903
0.0206882
0.0216308
0.021907
0.0219623
0.0219686
0.0219524
0.0218586
0.0215076
0.0208955
0.0255445
0.0205524
0.0209441
0.0211871
0.0212351
0.0212517
0.0212549
0.0212552
0.0212552
0.0212547
0.0212511
0.0212332
0.0211823
0.0209355
0.0205443
0.0255359
0.0208944
0.0215075
0.0218579
0.0219434
0.0219055
0.0216316
0.0206888
0.0207914
0.0207903
0.0206882
0.0216307
0.0219068
0.0219622
0.0219703
0.021966
0.0219343
0.0218073
0.0215012
0.0213733
0.0213713
0.0215764
0.0216498
0.0216559
0.0216574
0.0216574
0.0216572
0.0216572
0.0216571
0.0216561
0.0216513
0.0216385
0.0215624
0.0213544
0.0213631
0.021498
0.0218066
0.0219335
0.021957
0.0219073
0.0216317
0.0206888
0.0207913
0.02079
0.0206877
0.0216299
0.0219058
0.0219612
0.0219698
0.0219701
0.0219633
0.0219332
0.0218541
0.0217712
0.0218025
0.0218395
0.0218626
0.0218518
0.0218459
0.021844
0.0218435
0.0218434
0.0218435
0.0218438
0.0218447
0.0218475
0.0218423
0.021784
0.0217569
0.0218485
0.0219317
0.0219623
0.0219612
0.0219069
0.0216309
0.0206884
0.020791
0.0207876
0.020683
0.0216229
0.0218977
0.0219527
0.0219615
0.0219628
0.0219622
0.0219572
0.0219417
0.02192
0.0219154
0.0219067
0.0219132
0.0218983
0.0218912
0.0218893
0.0218888
0.0218887
0.0218888
0.0218892
0.0218909
0.0218973
0.0219095
0.0218966
0.0219055
0.0219359
0.0219557
0.0219612
0.021954
0.0218989
0.0216238
0.0206836
0.0207884
0.0207668
0.020647
0.0215747
0.0218443
0.0218979
0.0219063
0.0219077
0.0219082
0.0219079
0.0219055
0.0218996
0.0218911
0.0218756
0.0218624
0.0218499
0.0218449
0.0218436
0.0218434
0.0218434
0.0218434
0.0218435
0.0218447
0.0218495
0.0218616
0.0218738
0.0218893
0.0219017
0.0219071
0.0219074
0.0218992
0.0218455
0.0215755
0.0206476
0.0207676
0.0206246
0.020442
0.0213238
0.0215749
0.0216233
0.0216306
0.0216318
0.0216323
0.0216327
0.0216325
0.0216309
0.0216264
0.0216174
0.0216073
0.0216006
0.0215981
0.0215975
0.0215974
0.0215974
0.0215974
0.0215974
0.021598
0.0216005
0.0216071
0.0216171
0.021626
0.0216309
0.0216325
0.0216318
0.0216244
0.0215758
0.0213245
0.0204425
0.0206252
0.0198921
0.0196621
0.0204422
0.0206474
0.0206836
0.0206885
0.0206893
0.0206897
0.02069
0.0206902
0.0206898
0.0206882
0.0206846
0.0206798
0.020677
0.0206759
0.0206755
0.0206754
0.0206753
0.0206754
0.0206755
0.0206759
0.020677
0.0206798
0.0206845
0.0206881
0.0206898
0.0206901
0.0206895
0.0206844
0.0206481
0.0204427
0.0196624
0.0198926
0.0175648
0.0198922
0.0206249
0.0207675
0.0207886
0.0207914
0.0207922
0.0207929
0.0207936
0.0207943
0.0207946
0.0207941
0.0207923
0.0207893
0.0207874
0.0207863
0.0207857
0.0207853
0.0207851
0.0207853
0.0207857
0.0207864
0.0207874
0.0207892
0.0207922
0.0207939
0.0207943
0.0207939
0.020793
0.0207899
0.0207686
0.0206257
0.0198927
0.0175653
0.0188661
0.0222807
0.0234748
0.0237327
0.0237748
0.0237803
0.0237809
0.023781
0.023781
0.0237811
0.0237811
0.0237811
0.0237811
0.023781
0.023781
0.0237809
0.0237809
0.0237809
0.0237809
0.0237809
0.0237809
0.023781
0.023781
0.023781
0.0237811
0.0237811
0.023781
0.023781
0.0237804
0.0237748
0.0237328
0.0234749
0.0222808
0.0188663
0.0222807
0.0213938
0.0221805
0.0224205
0.0224685
0.0224757
0.0224765
0.0224766
0.0224766
0.0224766
0.0224766
0.0224766
0.0224766
0.0224766
0.0224765
0.0224765
0.0224765
0.0224765
0.0224765
0.0224765
0.0224765
0.0224765
0.0224766
0.0224766
0.0224766
0.0224766
0.0224766
0.0224765
0.0224757
0.0224685
0.0224205
0.0221805
0.0213938
0.0222808
0.023475
0.0221806
0.0229403
0.0232004
0.0232581
0.0232677
0.023269
0.0232692
0.0232692
0.0232692
0.0232693
0.0232693
0.0232694
0.0232694
0.0232694
0.0232694
0.0232695
0.0232695
0.0232695
0.0232695
0.0232695
0.0232694
0.0232694
0.0232694
0.0232693
0.0232693
0.0232693
0.0232691
0.0232678
0.0232582
0.0232005
0.0229404
0.0221807
0.0234753
0.0237332
0.0224207
0.0232005
0.023474
0.0235367
0.0235475
0.023549
0.0235492
0.0235493
0.0235494
0.0235494
0.0235495
0.0235497
0.0235498
0.0235499
0.02355
0.02355
0.02355
0.02355
0.02355
0.02355
0.0235499
0.0235498
0.0235497
0.0235496
0.0235495
0.0235494
0.0235492
0.0235477
0.0235368
0.0234742
0.0232007
0.0224209
0.0237336
0.0237754
0.0224687
0.0232582
0.0235367
0.023601
0.0236123
0.0236139
0.0236141
0.0236141
0.0236139
0.0236136
0.0236138
0.023614
0.0236142
0.0236144
0.0236145
0.0236146
0.0236146
0.0236146
0.0236146
0.0236145
0.0236144
0.0236143
0.0236141
0.0236138
0.0236136
0.0236139
0.023614
0.0236125
0.0236013
0.0235369
0.0232585
0.0224689
0.0237759
0.023781
0.0224759
0.0232679
0.0235475
0.0236123
0.0236236
0.0236252
0.0236253
0.0236242
0.0236215
0.0236183
0.0236188
0.0236201
0.0236207
0.0236209
0.0236211
0.0236211
0.0236211
0.0236211
0.0236211
0.0236211
0.0236209
0.0236208
0.0236202
0.0236189
0.0236183
0.0236215
0.0236241
0.0236237
0.0236126
0.0235478
0.0232681
0.0224762
0.0237817
0.0237816
0.0224767
0.0232691
0.023549
0.0236139
0.0236252
0.0236265
0.0236248
0.0236176
0.0236004
0.0235827
0.0235852
0.0235939
0.023597
0.0235966
0.0235979
0.0235981
0.023598
0.023598
0.0235981
0.0235979
0.0235966
0.023597
0.0235939
0.0235853
0.0235828
0.0236005
0.0236175
0.0236232
0.0236138
0.0235493
0.0232694
0.022477
0.0237824
0.0237818
0.0224768
0.0232692
0.0235492
0.0236141
0.0236252
0.0236248
0.0236149
0.0235793
0.0235014
0.0234425
0.023436
0.0234806
0.023497
0.023493
0.0235018
0.0235039
0.0235039
0.0235039
0.0235039
0.0235018
0.023493
0.023497
0.0234806
0.023436
0.0234425
0.0235015
0.0235792
0.0236133
0.0236121
0.0235492
0.0232695
0.0224771
0.0237827
0.0237818
0.0224767
0.0232692
0.0235493
0.023614
0.0236242
0.0236178
0.0235801
0.0234538
0.0232193
0.0233258
0.0229763
0.0231206
0.0231868
0.0231696
0.0232079
0.0232171
0.0232179
0.0232179
0.0232171
0.023208
0.0231696
0.0231869
0.0231207
0.0229764
0.0233257
0.0232193
0.0234537
0.0235785
0.0236051
0.0235482
0.0232694
0.022477
0.0237828
0.0237818
0.0224767
0.0232692
0.0235493
0.0236138
0.0236217
0.0236022
0.0235083
0.0232365
0.023136
0.0304341
0.0222547
0.0222958
0.0224875
0.0224769
0.0225539
0.0225708
0.0225728
0.0225728
0.0225708
0.022554
0.022477
0.0224876
0.0222959
0.0222547
0.0304335
0.023136
0.0232363
0.0235067
0.0235894
0.0235456
0.023269
0.0224769
0.0237827
0.0237817
0.0224766
0.0232692
0.0235493
0.0236136
0.0236195
0.0235899
0.0234729
0.0234387
0.0309911
0.0271162
0.0218509
0.0221245
0.0222592
0.0222531
0.0222462
0.0222446
0.0222446
0.0222463
0.0222532
0.0222593
0.0221247
0.0218512
0.0271174
0.0309914
0.0234385
0.0234713
0.0235771
0.0235434
0.0232687
0.0224768
0.0237826
0.0237815
0.0224766
0.0232692
0.0235494
0.0236141
0.023622
0.0236025
0.0235083
0.0232348
0.0231319
0.0303607
0.0222642
0.0225353
0.022866
0.0232168
0.0229337
0.0228574
0.0228444
0.0228444
0.0228573
0.0229336
0.0232167
0.0228658
0.0225352
0.0222638
0.0303592
0.0231318
0.0232346
0.0235066
0.0235897
0.0235458
0.023269
0.0224767
0.0237823
0.0237813
0.0224765
0.0232692
0.0235495
0.0236145
0.0236249
0.0236185
0.0235801
0.0234504
0.0232064
0.0232984
0.0230218
0.0235098
0.0236393
0.0237199
0.0236485
0.0236209
0.0236146
0.0236146
0.0236209
0.0236484
0.0237198
0.0236392
0.0235096
0.0230215
0.0232982
0.0232062
0.0234502
0.0235784
0.0236057
0.0235486
0.0232693
0.0224766
0.023782
0.0237811
0.0224764
0.0232692
0.0235496
0.0236148
0.0236262
0.0236259
0.023615
0.0235749
0.0234859
0.0234194
0.0234993
0.0239075
0.0239393
0.0239392
0.0239221
0.0239143
0.0239121
0.0239121
0.0239143
0.0239221
0.0239391
0.0239392
0.0239074
0.0234991
0.0234193
0.0234858
0.0235748
0.0236134
0.023613
0.0235499
0.0232694
0.0224765
0.0237816
0.0237809
0.0224764
0.0232692
0.0235496
0.0236149
0.0236266
0.023628
0.0236253
0.0236131
0.0235832
0.0235573
0.0236444
0.0240116
0.0240137
0.0239968
0.0239886
0.0239857
0.0239847
0.0239847
0.0239856
0.0239886
0.0239968
0.0240136
0.0240115
0.0236442
0.0235572
0.0235831
0.0236129
0.0236237
0.0236152
0.0235503
0.0232695
0.0224764
0.0237813
0.0237807
0.0224763
0.0232692
0.0235497
0.023615
0.0236267
0.0236285
0.0236275
0.0236213
0.0236051
0.0235925
0.0236753
0.0240316
0.0240272
0.0240074
0.0240005
0.0239985
0.0239979
0.0239979
0.0239984
0.0240005
0.0240073
0.0240271
0.0240316
0.0236752
0.0235924
0.0236051
0.0236212
0.0236259
0.0236157
0.0235504
0.0232695
0.0224763
0.023781
0.0237806
0.0224763
0.0232692
0.0235497
0.023615
0.0236268
0.0236287
0.0236279
0.0236228
0.023609
0.0235988
0.0236805
0.0240347
0.0240292
0.024009
0.0240023
0.0240004
0.0239999
0.0239999
0.0240004
0.0240023
0.0240089
0.0240291
0.0240347
0.0236804
0.0235987
0.0236089
0.0236226
0.0236263
0.0236158
0.0235504
0.0232695
0.0224762
0.0237808
0.0237805
0.0224762
0.0232691
0.0235497
0.0236151
0.0236269
0.0236287
0.023628
0.023623
0.0236095
0.0235997
0.0236813
0.0240352
0.0240296
0.0240093
0.0240026
0.0240008
0.0240002
0.0240002
0.0240007
0.0240026
0.0240092
0.0240295
0.0240351
0.0236811
0.0235996
0.0236095
0.0236229
0.0236264
0.0236159
0.0235505
0.0232695
0.0224762
0.0237806
0.0237804
0.0224762
0.0232692
0.0235497
0.0236151
0.0236269
0.0236287
0.0236281
0.023623
0.0236096
0.0235997
0.0236814
0.0240352
0.0240296
0.0240093
0.0240026
0.0240008
0.0240002
0.0240002
0.0240007
0.0240026
0.0240093
0.0240295
0.0240352
0.0236812
0.0235997