/*--------------------------------*- C++ -*----------------------------------*\
| =========                 |                                                 |
| \\      /  F ield         | OpenFOAM: The Open Source CFD Toolbox           |
|  \\    /   O peration     | Version:  2112                                  |
|   \\  /    A nd           | Website:  www.openfoam.com                      |
|    \\/     M anipulation  |                                                 |
\*---------------------------------------------------------------------------*/
FoamFile
{
    version     2.0;
    format      ascii;
    arch        "LSB;label=32;scalar=64";
    class       volScalarField;
    location    "0.8";
    object      k;
}
// * * * * * * * * * * * * * * * * * * * * * * * * * * * * * * * * * * * * * //

dimensions      [0 2 -2 0 0 0 0];

internalField   nonuniform List<scalar> 
64906
(
0.00489108
0.00499493
0.00502528
0.00503062
0.00503134
0.00503145
0.00503149
0.00503153
0.00503157
0.00503161
0.00503165
0.00503169
0.00503172
0.00503174
0.00503175
0.00503175
0.00503175
0.00503175
0.00503175
0.00503175
0.00503175
0.00503174
0.00503173
0.00503171
0.00503168
0.00503164
0.0050316
0.00503156
0.00503152
0.00503141
0.00503069
0.00502535
0.004995
0.00489114
0.00499496
0.00606145
0.0063642
0.00642427
0.00643371
0.00643496
0.00643515
0.00643524
0.00643532
0.00643541
0.0064355
0.00643559
0.00643567
0.00643574
0.0064358
0.00643584
0.00643587
0.00643588
0.00643588
0.00643587
0.00643585
0.00643581
0.00643575
0.00643569
0.00643561
0.00643553
0.00643544
0.00643535
0.00643515
0.00643389
0.00642444
0.00636436
0.0060616
0.00499505
0.00502534
0.00636429
0.00678104
0.00687219
0.00688804
0.00689037
0.00689075
0.00689091
0.00689107
0.00689124
0.00689144
0.00689164
0.00689184
0.00689201
0.00689216
0.00689227
0.00689235
0.00689239
0.00689239
0.00689236
0.00689229
0.00689218
0.00689204
0.00689187
0.00689169
0.00689149
0.0068913
0.00689111
0.0068907
0.00688835
0.00687248
0.0067813
0.00636452
0.00502547
0.00503071
0.00642441
0.00687225
0.00697362
0.00699189
0.00699469
0.00699517
0.0069954
0.00699563
0.00699589
0.00699619
0.00699653
0.00699685
0.00699714
0.00699738
0.00699756
0.00699769
0.00699775
0.00699776
0.0069977
0.00699758
0.00699741
0.00699718
0.0069969
0.00699658
0.00699625
0.00699596
0.00699568
0.00699514
0.0069923
0.00697399
0.00687259
0.0064247
0.00503087
0.00503146
0.00643387
0.00688812
0.00699191
0.00701083
0.00701379
0.00701433
0.00701462
0.0070149
0.0070152
0.00701554
0.0070161
0.00701662
0.00701706
0.00701742
0.00701769
0.00701787
0.00701796
0.00701797
0.00701788
0.00701771
0.00701746
0.00701711
0.00701667
0.00701616
0.00701561
0.00701528
0.00701497
0.00701436
0.00701134
0.00699237
0.00688853
0.00643422
0.00503164
0.00503158
0.00643513
0.00689046
0.00699472
0.00701379
0.00701682
0.00701742
0.00701772
0.00701787
0.00701767
0.00701739
0.00701867
0.00701979
0.00702057
0.00702113
0.00702149
0.00702173
0.00702186
0.00702186
0.00702175
0.00702152
0.00702117
0.00702062
0.00701985
0.00701874
0.00701746
0.00701776
0.00701794
0.00701747
0.0070144
0.00699527
0.00689095
0.00643553
0.0050318
0.00503163
0.00643532
0.00689083
0.0069952
0.00701433
0.0070174
0.007018
0.00701799
0.00701666
0.00701221
0.00700637
0.00701203
0.00701644
0.00701849
0.00701955
0.00702001
0.00702029
0.00702044
0.00702045
0.00702031
0.00702005
0.0070196
0.00701855
0.00701651
0.00701211
0.00700645
0.00701231
0.00701675
0.00701776
0.00701499
0.00699584
0.0068914
0.00643578
0.00503189
0.00503168
0.00643539
0.00689097
0.00699539
0.00701457
0.00701765
0.00701793
0.0070159
0.0070058
0.00697593
0.00693411
0.00696915
0.00699308
0.00700146
0.00700421
0.00700481
0.00700507
0.00700523
0.00700524
0.0070051
0.00700486
0.00700427
0.00700153
0.00699317
0.00696924
0.00693419
0.00697604
0.0070059
0.00701567
0.00701494
0.0069961
0.00689162
0.00643591
0.00503198
0.00503172
0.00643545
0.00689109
0.00699557
0.00701478
0.0070177
0.00701649
0.00700573
0.00695714
0.00680718
0.00657345
0.00678033
0.00690131
0.00693724
0.00694575
0.00694708
0.00694742
0.0069476
0.00694761
0.00694745
0.00694713
0.00694582
0.00693733
0.00690141
0.00678045
0.00657351
0.00680728
0.00695724
0.00700552
0.00701352
0.00699616
0.00689182
0.00643602
0.00503206
0.00503175
0.00643549
0.00689121
0.00699575
0.00701496
0.00701736
0.00701196
0.00697613
0.00680807
0.00623612
0.00525487
0.0061795
0.00665837
0.0067814
0.00680473
0.00680877
0.00680965
0.00680992
0.00680993
0.00680968
0.00680882
0.0068048
0.0067815
0.00665851
0.00617969
0.00525485
0.00623622
0.00680819
0.00697594
0.007009
0.00699582
0.00689196
0.00643611
0.00503213
0.00503177
0.00643553
0.00689133
0.00699594
0.00701516
0.00701696
0.00700641
0.00693624
0.00657947
0.00525881
0.00522592
0.00633444
0.00659758
0.00664218
0.00664801
0.00664865
0.00664876
0.00664876
0.00664866
0.00664803
0.00664221
0.00659765
0.00633459
0.00522603
0.0052589
0.00657959
0.00693605
0.00700346
0.00699541
0.00689211
0.00643618
0.00503217
0.00503178
0.00643554
0.00689144
0.00699615
0.00701556
0.0070182
0.00701313
0.00697748
0.00680867
0.00623327
0.00525366
0.00616005
0.00663736
0.00675902
0.00678192
0.00678274
0.00678181
0.00678143
0.00678142
0.0067818
0.00678272
0.0067819
0.00675899
0.00663735
0.00615999
0.00525352
0.00623312
0.00680867
0.00697723
0.00701014
0.00699661
0.00689242
0.00643622
0.0050322
0.00503178
0.00643555
0.00689154
0.00699634
0.00701591
0.00701928
0.00701864
0.0070084
0.00695943
0.00680657
0.00656498
0.00675239
0.00685265
0.00687837
0.00688248
0.00688122
0.0068801
0.00687965
0.00687964
0.00688008
0.00688119
0.00688243
0.0068783
0.00685255
0.00675224
0.00656473
0.00680645
0.00695941
0.00700813
0.00701562
0.00699765
0.00689268
0.00643625
0.00503219
0.00503176
0.00643555
0.00689162
0.0069965
0.00701617
0.00701987
0.00702095
0.00701975
0.00700973
0.00697722
0.00692478
0.00693487
0.00692671
0.00692021
0.00691704
0.0069151
0.00691404
0.00691358
0.00691357
0.00691401
0.00691505
0.00691697
0.00692012
0.00692659
0.00693462
0.00692459
0.00697713
0.00700972
0.00701946
0.00701791
0.00699821
0.00689287
0.00643626
0.00503217
0.00503174
0.00643554
0.00689168
0.00699663
0.00701636
0.00702019
0.00702175
0.00702282
0.00702184
0.00701486
0.00699748
0.00697637
0.00694459
0.00693041
0.00692526
0.00692303
0.00692187
0.00692131
0.00692129
0.00692182
0.00692297
0.00692518
0.00693031
0.00694447
0.00697613
0.00699732
0.00701478
0.00702182
0.00702252
0.00701871
0.00699851
0.00689301
0.00643626
0.00503213
0.00503171
0.00643554
0.00689173
0.00699673
0.0070165
0.0070204
0.00702209
0.00702363
0.00702436
0.00702181
0.00700997
0.0069843
0.00694815
0.00693252
0.00692691
0.00692451
0.00692319
0.00692247
0.00692244
0.00692312
0.00692443
0.00692681
0.00693241
0.00694802
0.00698407
0.00700982
0.00702173
0.00702434
0.00702333
0.00701904
0.0069987
0.0068931
0.00643625
0.00503208
0.00503167
0.00643553
0.00689177
0.0069968
0.0070166
0.00702053
0.00702228
0.00702393
0.00702496
0.0070231
0.00701207
0.00698587
0.00694889
0.00693301
0.00692727
0.00692476
0.00692328
0.00692239
0.00692236
0.0069232
0.00692467
0.00692716
0.00693289
0.00694876
0.00698564
0.00701192
0.00702302
0.00702494
0.00702363
0.00701922
0.00699882
0.00689317
0.00643625
0.00503202
0.00503164
0.00643552
0.00689179
0.00699684
0.00701667
0.00702061
0.00702239
0.00702407
0.00702517
0.00702342
0.00701252
0.00698628
0.0069491
0.00693316
0.00692737
0.0069248
0.00692322
0.00692218
0.00692213
0.00692312
0.0069247
0.00692726
0.00693304
0.00694897
0.00698606
0.00701238
0.00702335
0.00702515
0.00702378
0.00701933
0.0069989
0.00689322
0.00643624
0.00503198
0.00503162
0.00643552
0.0068918
0.00699686
0.00701669
0.00702064
0.00702243
0.00702412
0.00702523
0.0070235
0.0070126
0.00698637
0.00694914
0.00693319
0.00692738
0.00692478
0.00692315
0.00692204
0.00692198
0.00692305
0.00692467
0.00692726
0.00693307
0.00694901
0.00698616
0.00701247
0.00702344
0.00702522
0.00702383
0.00701938
0.00699893
0.00689324
0.00643624
0.00503195
0.00503162
0.00643552
0.0068918
0.00699685
0.00701667
0.00702062
0.0070224
0.00702408
0.00702515
0.00702333
0.00701233
0.00698614
0.00694902
0.00693309
0.00692729
0.0069247
0.0069231
0.00692203
0.00692197
0.00692299
0.00692459
0.00692717
0.00693297
0.00694889
0.00698594
0.00701221
0.00702328
0.00702515
0.0070238
0.00701936
0.00699892
0.00689323
0.00643625
0.00503195
0.00503164
0.00643553
0.00689178
0.00699681
0.00701662
0.00702055
0.00702229
0.00702388
0.00702468
0.00702221
0.00701045
0.00698479
0.00694838
0.00693266
0.00692695
0.00692441
0.0069229
0.00692197
0.00692192
0.00692279
0.0069243
0.00692683
0.00693254
0.00694826
0.00698461
0.00701035
0.00702218
0.0070247
0.00702362
0.00701926
0.00699886
0.00689321
0.00643626
0.00503198
0.00503167
0.00643554
0.00689175
0.00699675
0.00701652
0.0070204
0.00702203
0.00702317
0.00702231
0.00701547
0.00699824
0.00697715
0.00694495
0.00693064
0.00692533
0.00692291
0.00692152
0.00692077
0.00692073
0.00692142
0.00692279
0.00692521
0.00693052
0.00694484
0.006977
0.00699817
0.00701546
0.00702235
0.00702293
0.00701902
0.00699874
0.00689315
0.00643628
0.00503203
0.0050317
0.00643556
0.00689171
0.00699666
0.00701638
0.00702015
0.0070213
0.00702022
0.00701037
0.00697813
0.00692602
0.00693609
0.00692726
0.00692055
0.00691716
0.00691499
0.0069137
0.00691308
0.00691305
0.00691362
0.00691488
0.00691704
0.00692044
0.00692717
0.006936
0.00692601
0.00697817
0.00701045
0.00702
0.00701832
0.00699852
0.00689307
0.0064363
0.00503207
0.00503172
0.00643557
0.00689165
0.00699654
0.00701617
0.00701962
0.00701908
0.00700899
0.00696028
0.00680791
0.00656708
0.00675405
0.00685337
0.0068788
0.00688267
0.00688117
0.00687986
0.00687929
0.00687927
0.0068798
0.00688108
0.00688256
0.00687871
0.00685334
0.0067541
0.00656716
0.00680803
0.00696041
0.00700881
0.00701614
0.00699803
0.00689293
0.00643631
0.00503211
0.00503173
0.00643557
0.00689158
0.00699638
0.00701586
0.0070186
0.00701363
0.00697815
0.00680966
0.0062349
0.00525485
0.00616108
0.00663752
0.00675903
0.00678174
0.00678234
0.00678125
0.00678078
0.00678076
0.00678119
0.00678225
0.00678162
0.00675892
0.00663749
0.0061613
0.00525483
0.00623509
0.00680985
0.00697804
0.00701074
0.00699707
0.00689271
0.00643631
0.00503212
0.00503173
0.00643557
0.0068915
0.00699621
0.00701552
0.00701741
0.00700696
0.00693685
0.00658005
0.0052589
0.00522462
0.00633198
0.00659515
0.00663943
0.00664491
0.0066453
0.00664526
0.00664523
0.00664519
0.00664471
0.00663911
0.00659467
0.00633131
0.00522414
0.00525887
0.00658022
0.00693677
0.00700412
0.00699594
0.00689246
0.00643629
0.00503212
0.00503171
0.00643555
0.00689141
0.00699607
0.00701539
0.00701791
0.00701267
0.00697702
0.00680914
0.00623746
0.0052563
0.00617691
0.00665379
0.00677314
0.00679426
0.0067973
0.00679773
0.00679779
0.00679775
0.00679757
0.00679693
0.00679336
0.00677115
0.00665001
0.00617464
0.00525592
0.00623748
0.00680932
0.00697696
0.00700985
0.00699647
0.00689239
0.00643626
0.00503208
0.00503169
0.00643552
0.0068913
0.00699591
0.00701524
0.00701831
0.0070173
0.00700678
0.00695843
0.00680858
0.00657413
0.00677619
0.00688842
0.00691097
0.00691293
0.00691234
0.00691212
0.00691208
0.00691203
0.00691192
0.00691172
0.00691087
0.00690513
0.00687562
0.00676783
0.00657083
0.00680771
0.00695842
0.00700671
0.0070145
0.0069969
0.0068923
0.0064362
0.00503204
0.00503166
0.00643536
0.00689096
0.00699545
0.00701475
0.007018
0.0070185
0.00701673
0.00700684
0.0069767
0.00693273
0.00695948
0.00696481
0.00694538
0.00693699
0.00693444
0.00693376
0.00693358
0.00693353
0.00693354
0.00693366
0.00693407
0.00693523
0.00693802
0.00694125
0.00692499
0.00697446
0.00700651
0.00701661
0.00701571
0.00699662
0.00689192
0.00643601
0.00503198
0.00503155
0.00643413
0.00688864
0.00699266
0.0070118
0.00701503
0.00701586
0.00701614
0.00701502
0.00701024
0.00700205
0.00699927
0.00698431
0.00695842
0.00694845
0.00694573
0.00694513
0.00694501
0.00694497
0.00694495
0.00694503
0.00694554
0.00694796
0.006957
0.00698014
0.00699383
0.00700788
0.00701469
0.00701604
0.00701311
0.00699381
0.00688955
0.00643474
0.00503185
0.00503082
0.00642469
0.00687279
0.00697438
0.00699287
0.00699594
0.00699676
0.00699735
0.00699777
0.00699753
0.00699602
0.0069926
0.00698295
0.00696811
0.00696171
0.00695989
0.00695961
0.00695962
0.00695963
0.00695955
0.00695946
0.00695966
0.00696135
0.00696755
0.00698199
0.00699144
0.00699634
0.00699776
0.00699734
0.00699415
0.00697545
0.00687363
0.00642527
0.00503109
0.00502546
0.00636459
0.00678159
0.00687295
0.00688901
0.00689159
0.00689228
0.00689282
0.00689338
0.00689384
0.00689385
0.00689268
0.00688915
0.00688368
0.00688117
0.00688046
0.00688041
0.00688047
0.00688049
0.00688042
0.00688031
0.00688031
0.00688095
0.00688339
0.00688878
0.00689225
0.00689359
0.0068936
0.0068929
0.00689015
0.00687391
0.00678235
0.00636512
0.00502571
0.00499509
0.00606176
0.00636473
0.00642497
0.00643459
0.00643605
0.00643649
0.00643689
0.00643731
0.00643772
0.006438
0.00643786
0.00643706
0.00643561
0.00643489
0.00643463
0.00643459
0.00643458
0.00643458
0.00643457
0.00643456
0.00643459
0.00643482
0.00643551
0.00643692
0.0064377
0.00643783
0.00643756
0.00643705
0.00643547
0.00642572
0.00636533
0.00606219
0.0049953
0.00489121
0.00499513
0.00502556
0.00503099
0.00503181
0.00503204
0.00503223
0.00503245
0.00503269
0.00503295
0.0050332
0.00503337
0.00503345
0.00503336
0.00503327
0.00503316
0.00503306
0.00503296
0.00503292
0.00503296
0.00503305
0.00503315
0.00503323
0.0050333
0.00503336
0.00503326
0.00503307
0.00503282
0.00503256
0.00503226
0.00503136
0.00502586
0.00499536
0.00489137
0.0067644
0.00740038
0.00760562
0.0076481
0.00765484
0.00765572
0.00765584
0.00765587
0.0076559
0.00765592
0.00765594
0.00765595
0.00765596
0.00765596
0.00765596
0.00765595
0.00765595
0.00765594
0.00765594
0.00765594
0.00765595
0.00765595
0.00765595
0.00765595
0.00765594
0.00765593
0.00765591
0.00765588
0.00765576
0.00765488
0.00764814
0.00760566
0.00740042
0.00676445
0.00740039
0.0119725
0.0130492
0.0132979
0.0133445
0.0133517
0.0133526
0.0133526
0.0133526
0.0133525
0.0133525
0.0133524
0.0133523
0.0133522
0.0133521
0.013352
0.013352
0.013352
0.013352
0.013352
0.013352
0.0133521
0.0133522
0.0133523
0.0133524
0.0133525
0.0133525
0.0133525
0.0133516
0.0133445
0.0132978
0.0130492
0.0119725
0.00740044
0.00760569
0.0130494
0.0144227
0.0147682
0.0148394
0.0148514
0.0148531
0.0148534
0.0148534
0.0148535
0.0148536
0.0148536
0.0148537
0.0148538
0.0148538
0.0148538
0.0148539
0.0148539
0.0148539
0.0148539
0.0148538
0.0148538
0.0148538
0.0148537
0.0148537
0.0148536
0.0148535
0.0148533
0.0148515
0.0148395
0.0147683
0.0144228
0.0130495
0.00760579
0.00764821
0.0132981
0.0147683
0.0151504
0.0152318
0.0152461
0.0152482
0.0152486
0.0152487
0.0152489
0.015249
0.0152492
0.0152494
0.0152496
0.0152498
0.0152499
0.01525
0.01525
0.01525
0.01525
0.0152499
0.0152498
0.0152497
0.0152495
0.0152493
0.015249
0.0152489
0.0152485
0.0152464
0.0152321
0.0151506
0.0147685
0.0132983
0.00764836
0.00765499
0.0133448
0.0148395
0.0152318
0.0153163
0.0153313
0.0153336
0.015334
0.015334
0.0153338
0.0153334
0.015334
0.0153345
0.0153349
0.0153352
0.0153354
0.0153355
0.0153356
0.0153356
0.0153355
0.0153354
0.0153353
0.015335
0.0153346
0.015334
0.0153335
0.0153338
0.0153338
0.0153317
0.0153167
0.0152321
0.0148398
0.013345
0.00765517
0.00765589
0.013352
0.0148515
0.0152461
0.0153313
0.0153465
0.0153488
0.0153488
0.0153475
0.0153439
0.0153399
0.0153421
0.0153446
0.0153458
0.0153465
0.0153467
0.0153467
0.0153468
0.0153468
0.0153467
0.0153467
0.0153465
0.0153459
0.0153446
0.0153422
0.0153399
0.0153439
0.0153473
0.0153465
0.0153317
0.0152465
0.0148518
0.0133522
0.0076561
0.00765602
0.0133528
0.0148532
0.0152482
0.0153336
0.0153488
0.0153506
0.0153483
0.0153386
0.0153151
0.0152886
0.0153034
0.0153179
0.0153241
0.0153263
0.0153264
0.0153262
0.0153262
0.0153262
0.0153262
0.0153264
0.0153264
0.0153242
0.015318
0.0153035
0.0152887
0.0153151
0.0153384
0.0153459
0.0153334
0.0152486
0.0148536
0.013353
0.00765627
0.00765606
0.0133528
0.0148534
0.0152486
0.0153339
0.0153488
0.0153483
0.0153348
0.0152853
0.015164
0.0150217
0.0151158
0.0151965
0.0152271
0.0152359
0.0152362
0.0152355
0.0152353
0.0152353
0.0152356
0.0152363
0.015236
0.0152272
0.0151966
0.0151159
0.0150217
0.015164
0.0152851
0.0153325
0.0153311
0.0152485
0.0148538
0.013353
0.00765634
0.00765608
0.0133528
0.0148535
0.0152487
0.0153339
0.0153473
0.0153386
0.0152858
0.0150888
0.0145752
0.0138962
0.0144296
0.0148032
0.0149297
0.0149606
0.0149643
0.0149638
0.0149635
0.0149635
0.0149638
0.0149643
0.0149607
0.0149297
0.0148033
0.0144298
0.0138963
0.0145753
0.0150887
0.0152834
0.0153215
0.0152471
0.0148536
0.0133529
0.00765639
0.00765609
0.0133526
0.0148535
0.0152487
0.0153335
0.0153439
0.0153161
0.0151678
0.0145823
0.012781
0.00886637
0.012469
0.0139004
0.0142987
0.0143819
0.0143985
0.014401
0.0144012
0.0144012
0.014401
0.0143985
0.014382
0.0142988
0.0139006
0.0124693
0.00886626
0.0127811
0.0145821
0.0151655
0.0152989
0.0152435
0.0148531
0.0133526
0.00765641
0.00765609
0.0133525
0.0148534
0.0152487
0.0153332
0.0153405
0.0152933
0.0150386
0.0139356
0.00890499
0.0086496
0.0128525
0.0136442
0.0137975
0.0138192
0.0138209
0.0138208
0.0138208
0.0138209
0.0138193
0.0137976
0.0136443
0.0128528
0.00864985
0.00890508
0.0139354
0.0150363
0.0152761
0.0152401
0.0148526
0.0133523
0.00765641
0.00765607
0.0133523
0.0148534
0.0152489
0.0153339
0.0153444
0.0153166
0.0151677
0.014579
0.0127662
0.00885922
0.012409
0.0138335
0.0142301
0.0143214
0.0143203
0.0143148
0.0143127
0.0143127
0.0143147
0.0143203
0.0143213
0.0142299
0.0138335
0.0124088
0.00885881
0.0127658
0.0145786
0.0151653
0.0152994
0.0152439
0.014853
0.013352
0.00765638
0.00765604
0.0133522
0.0148534
0.0152491
0.0153346
0.0153484
0.0153398
0.0152862
0.0150853
0.0145582
0.0138477
0.0143113
0.0146016
0.0146911
0.0147107
0.0147058
0.0147013
0.0146996
0.0146996
0.0147013
0.0147057
0.0147106
0.014691
0.0146014
0.014311
0.0138473
0.0145579
0.015085
0.0152838
0.0153225
0.0152478
0.0148535
0.0133518
0.00765632
0.007656
0.013352
0.0148534
0.0152492
0.015335
0.0153503
0.01535
0.015336
0.0152817
0.015143
0.0149527
0.0149473
0.014898
0.0148696
0.0148586
0.0148527
0.0148498
0.0148487
0.0148487
0.0148498
0.0148526
0.0148585
0.0148695
0.0148979
0.0149471
0.0149525
0.0151429
0.0152815
0.0153335
0.0153328
0.0152496
0.0148537
0.0133516
0.00765625
0.00765595
0.0133519
0.0148534
0.0152493
0.0153352
0.0153509
0.0153532
0.0153503
0.0153355
0.0152923
0.0152101
0.0151115
0.0149786
0.014918
0.0148984
0.0148923
0.0148902
0.0148894
0.0148894
0.0148901
0.0148923
0.0148984
0.0149179
0.0149785
0.0151114
0.01521
0.0152922
0.0153352
0.0153479
0.0153359
0.0152503
0.0148538
0.0133514
0.00765618
0.00765591
0.0133518
0.0148534
0.0152493
0.0153354
0.0153512
0.015354
0.0153535
0.015347
0.015323
0.0152608
0.0151455
0.0149959
0.0149286
0.0149072
0.0149011
0.0148992
0.0148986
0.0148986
0.0148992
0.0149011
0.0149071
0.0149285
0.0149958
0.0151454
0.0152607
0.0153229
0.0153468
0.0153511
0.0153367
0.0152505
0.0148538
0.0133513
0.00765611
0.00765587
0.0133518
0.0148534
0.0152494
0.0153355
0.0153513
0.0153543
0.0153542
0.0153492
0.0153284
0.0152694
0.0151514
0.0149992
0.0149308
0.0149091
0.0149031
0.0149012
0.0149007
0.0149007
0.0149012
0.014903
0.014909
0.0149307
0.0149991
0.0151513
0.0152693
0.0153283
0.015349
0.0153518
0.015337
0.0152506
0.0148538
0.0133512
0.00765605
0.00765583
0.0133517
0.0148534
0.0152494
0.0153355
0.0153514
0.0153544
0.0153544
0.0153496
0.0153292
0.0152707
0.0151524
0.0149999
0.0149313
0.0149095
0.0149035
0.0149017
0.0149011
0.0149011
0.0149017
0.0149035
0.0149095
0.0149312
0.0149998
0.0151523
0.0152706
0.0153292
0.0153494
0.015352
0.0153371
0.0152507
0.0148538
0.0133511
0.007656
0.00765582
0.0133517
0.0148534
0.0152494
0.0153355
0.0153514
0.0153544
0.0153545
0.0153496
0.0153293
0.0152707
0.0151524
0.0149999
0.0149313
0.0149096
0.0149036
0.0149018
0.0149012
0.0149012
0.0149017
0.0149036
0.0149095
0.0149312
0.0149998
0.0151523
0.0152707
0.0153293
0.0153494
0.0153521
0.0153371
0.0152507
0.0148539
0.0133511
0.00765598
0.00765582
0.0133517
0.0148534
0.0152494
0.0153355
0.0153514
0.0153544
0.0153544
0.0153493
0.0153285
0.0152695
0.0151516
0.0149994
0.0149309
0.0149092
0.0149032
0.0149013
0.0149007
0.0149007
0.0149013
0.0149032
0.0149092
0.0149309
0.0149993
0.0151515
0.0152695
0.0153285
0.0153491
0.015352
0.0153371
0.0152507
0.0148539
0.0133512
0.00765599
0.00765584
0.0133518
0.0148534
0.0152494
0.0153355
0.0153513
0.0153542
0.0153537
0.0153473
0.0153233
0.0152612
0.0151458
0.0149963
0.0149289
0.0149075
0.0149014
0.0148995
0.0148989
0.0148988
0.0148995
0.0149014
0.0149075
0.0149289
0.0149963
0.0151458
0.0152612
0.0153233
0.0153471
0.0153514
0.0153369
0.0152506
0.0148539
0.0133512
0.00765602
0.00765588
0.0133519
0.0148534
0.0152494
0.0153354
0.0153511
0.0153534
0.0153506
0.0153359
0.0152928
0.0152108
0.0151123
0.0149794
0.0149187
0.0148991
0.0148929
0.0148908
0.0148901
0.0148901
0.0148908
0.014893
0.0148991
0.0149187
0.0149794
0.0151122
0.0152109
0.0152929
0.0153357
0.0153482
0.0153362
0.0152505
0.0148539
0.0133513
0.00765607
0.00765591
0.013352
0.0148535
0.0152493
0.0153352
0.0153505
0.0153503
0.0153364
0.0152824
0.0151441
0.0149542
0.0149488
0.0148995
0.014871
0.01486
0.0148541
0.0148512
0.0148502
0.0148502
0.0148513
0.0148541
0.0148601
0.0148711
0.0148996
0.0149488
0.0149543
0.0151441
0.0152822
0.0153341
0.0153331
0.0152499
0.0148538
0.0133515
0.00765613
0.00765595
0.0133521
0.0148535
0.0152492
0.0153349
0.0153487
0.0153402
0.0152868
0.0150862
0.0145601
0.013851
0.014314
0.0146039
0.0146934
0.0147131
0.0147083
0.0147039
0.0147023
0.0147023
0.014704
0.0147084
0.0147132
0.0146935
0.0146041
0.0143143
0.0138513
0.0145602
0.0150861
0.0152845
0.015323
0.0152481
0.0148536
0.0133517
0.0076562
0.00765598
0.0133522
0.0148535
0.0152491
0.0153342
0.0153447
0.0153171
0.0151684
0.0145802
0.0127689
0.00886229
0.0124117
0.0138349
0.0142317
0.0143232
0.0143223
0.0143169
0.0143149
0.014315
0.014317
0.0143224
0.0143234
0.0142318
0.0138351
0.0124124
0.00886227
0.0127692
0.0145801
0.0151662
0.0153
0.0152443
0.0148532
0.0133519
0.00765625
0.007656
0.0133524
0.0148535
0.015249
0.0153336
0.015341
0.0152938
0.0150393
0.0139362
0.00890461
0.00864552
0.0128456
0.0136367
0.0137892
0.0138105
0.0138121
0.0138119
0.0138118
0.013812
0.0138103
0.0137886
0.0136354
0.0128431
0.00864368
0.0089043
0.013936
0.015037
0.0152767
0.0152406
0.0148528
0.0133521
0.00765628
0.00765601
0.0133525
0.0148535
0.0152489
0.0153339
0.0153443
0.0153167
0.0151686
0.0145832
0.012782
0.00886773
0.0124565
0.0138796
0.0142653
0.0143414
0.0143564
0.0143586
0.0143588
0.0143588
0.0143585
0.0143557
0.0143391
0.0142585
0.0138656
0.0124457
0.00886493
0.0127808
0.0145826
0.0151662
0.0152996
0.0152441
0.0148533
0.0133524
0.00765629
0.007656
0.0133525
0.0148534
0.0152487
0.015334
0.0153476
0.015339
0.0152863
0.0150892
0.0145743
0.0138894
0.0144024
0.0147381
0.0148136
0.0148194
0.0148181
0.0148171
0.0148168
0.0148167
0.0148168
0.0148164
0.0148124
0.0147904
0.0146873
0.0143632
0.0138712
0.0145681
0.0150873
0.0152837
0.0153219
0.0152474
0.0148536
0.0133525
0.00765627
0.00765589
0.0133517
0.0148517
0.0152466
0.015332
0.0153469
0.0153465
0.0153331
0.015283
0.0151585
0.0150036
0.0150601
0.015062
0.0149868
0.0149494
0.014938
0.0149352
0.0149346
0.0149345
0.0149346
0.014935
0.0149365
0.0149417
0.0149564
0.0149805
0.0149662
0.0151457
0.0152794
0.0153301
0.0153294
0.0152468
0.0148521
0.0133518
0.00765614
0.00765501
0.0133446
0.0148397
0.0152323
0.015317
0.0153322
0.0153341
0.0153318
0.0153214
0.0152943
0.0152542
0.0152289
0.0151591
0.0150532
0.0150073
0.0149942
0.0149912
0.0149907
0.0149906
0.0149906
0.0149911
0.0149937
0.0150055
0.0150472
0.0151444
0.0152142
0.0152805
0.0153175
0.0153288
0.0153172
0.015233
0.0148402
0.0133447
0.00765524
0.00764826
0.0132979
0.0147685
0.0151509
0.0152325
0.015247
0.0152493
0.0152493
0.0152476
0.0152417
0.0152291
0.0152065
0.0151577
0.0150927
0.0150628
0.0150539
0.0150518
0.0150514
0.0150513
0.0150514
0.0150517
0.0150537
0.0150624
0.0150917
0.0151554
0.0152044
0.0152331
0.0152451
0.0152468
0.0152332
0.0151516
0.0147689
0.013298
0.00764846
0.00760575
0.0130492
0.0144229
0.0147687
0.01484
0.0148522
0.0148541
0.0148545
0.0148543
0.0148529
0.0148488
0.0148386
0.0148175
0.0147901
0.0147764
0.0147719
0.0147707
0.0147705
0.0147704
0.0147705
0.0147708
0.0147719
0.0147764
0.01479
0.0148172
0.0148384
0.0148493
0.0148532
0.0148526
0.0148406
0.0147692
0.0144232
0.0130492
0.00760592
0.00740047
0.0119724
0.0130494
0.0132983
0.0133451
0.0133523
0.0133533
0.0133534
0.0133533
0.0133529
0.0133514
0.0133478
0.0133409
0.0133319
0.0133269
0.0133249
0.0133242
0.0133239
0.0133238
0.0133239
0.0133243
0.0133251
0.0133272
0.0133322
0.0133411
0.0133481
0.0133517
0.0133529
0.0133525
0.0133453
0.0132985
0.0130495
0.0119723
0.0074006
0.0067645
0.00740049
0.00760584
0.00764843
0.00765529
0.00765628
0.00765653
0.00765672
0.00765691
0.00765707
0.00765713
0.0076569
0.00765624
0.00765519
0.00765455
0.00765422
0.00765403
0.00765392
0.00765389
0.00765393
0.00765404
0.00765423
0.00765456
0.00765518
0.0076562
0.00765684
0.00765704
0.00765696
0.0076567
0.00765565
0.00764873
0.00760606
0.00740062
0.00676463
0.00710518
0.00801339
0.00833475
0.00840823
0.00842121
0.00842309
0.00842332
0.00842335
0.00842337
0.00842337
0.00842337
0.00842337
0.00842336
0.00842335
0.00842333
0.00842332
0.00842331
0.00842331
0.00842331
0.00842331
0.00842332
0.00842333
0.00842334
0.00842335
0.00842336
0.00842336
0.00842336
0.00842333
0.0084231
0.00842123
0.00840825
0.00833477
0.00801342
0.00710523
0.00801339
0.0138262
0.0152686
0.0156331
0.0157088
0.0157217
0.0157234
0.0157235
0.0157235
0.0157233
0.0157232
0.015723
0.0157228
0.0157226
0.0157224
0.0157223
0.0157222
0.0157222
0.0157222
0.0157222
0.0157223
0.0157224
0.0157226
0.0157228
0.0157229
0.0157231
0.0157232
0.0157232
0.0157214
0.0157086
0.0156329
0.0152684
0.0138261
0.00801342
0.00833482
0.0152688
0.0170981
0.0175995
0.0177134
0.0177347
0.017738
0.0177384
0.0177385
0.0177384
0.0177384
0.0177384
0.0177383
0.0177383
0.0177382
0.0177382
0.0177382
0.0177382
0.0177382
0.0177382
0.0177382
0.0177382
0.0177383
0.0177383
0.0177384
0.0177384
0.0177384
0.017738
0.0177347
0.0177134
0.0175995
0.0170981
0.0152688
0.00833489
0.00840835
0.0156334
0.0175997
0.0181563
0.0182872
0.0183125
0.0183167
0.0183173
0.0183174
0.0183173
0.0183172
0.0183172
0.0183173
0.0183174
0.0183175
0.0183176
0.0183176
0.0183176
0.0183176
0.0183176
0.0183176
0.0183175
0.0183175
0.0183174
0.0183173
0.0183172
0.0183172
0.0183168
0.0183127
0.0182873
0.0181564
0.0175998
0.0156335
0.00840847
0.00842137
0.0157092
0.0177136
0.0182872
0.0184237
0.0184504
0.0184548
0.0184554
0.018455
0.018454
0.0184529
0.018453
0.0184533
0.0184536
0.0184538
0.0184538
0.0184538
0.0184538
0.0184538
0.0184538
0.0184539
0.0184538
0.0184536
0.0184533
0.018453
0.0184529
0.018454
0.0184544
0.0184505
0.0184238
0.0182874
0.0177138
0.0157093
0.00842152
0.00842326
0.015722
0.0177349
0.0183126
0.0184504
0.0184775
0.0184818
0.0184815
0.0184783
0.0184711
0.018463
0.0184638
0.0184659
0.0184671
0.0184678
0.0184676
0.0184673
0.0184672
0.0184672
0.0184673
0.0184676
0.0184678
0.0184672
0.0184659
0.0184639
0.018463
0.0184711
0.0184777
0.0184765
0.0184504
0.0183128
0.017735
0.0157221
0.00842344
0.00842351
0.0157237
0.0177382
0.0183167
0.0184548
0.0184818
0.018485
0.0184801
0.0184619
0.0184216
0.018377
0.0183869
0.0184011
0.0184081
0.0184111
0.0184099
0.0184086
0.0184081
0.0184081
0.0184086
0.0184099
0.0184111
0.0184081
0.0184012
0.018387
0.018377
0.0184216
0.0184612
0.0184751
0.0184535
0.0183167
0.0177383
0.0157238
0.00842372
0.00842355
0.0157238
0.0177386
0.0183173
0.0184553
0.0184815
0.0184801
0.0184556
0.0183731
0.0181872
0.0179764
0.0180558
0.0181377
0.0181722
0.0181843
0.0181815
0.0181783
0.018177
0.018177
0.0181783
0.0181816
0.0181843
0.0181722
0.0181378
0.0180558
0.0179764
0.0181872
0.0183725
0.0184506
0.0184486
0.0183163
0.0177386
0.0157238
0.00842378
0.00842355
0.0157237
0.0177386
0.0183173
0.018455
0.0184784
0.0184626
0.018375
0.0180769
0.0173597
0.0164543
0.0169658
0.0173496
0.0174868
0.0175237
0.0175245
0.0175209
0.0175193
0.0175193
0.0175209
0.0175245
0.0175237
0.0174868
0.0173497
0.0169659
0.0164544
0.0173597
0.0180763
0.01837
0.0184311
0.0183132
0.017738
0.0157235
0.00842379
0.00842354
0.0157235
0.0177385
0.0183172
0.0184541
0.018472
0.0184257
0.0181992
0.0173808
0.0150275
0.0100339
0.0141126
0.0156258
0.0160447
0.0161198
0.0161522
0.0161579
0.0161583
0.0161583
0.0161579
0.0161522
0.0161198
0.0160448
0.0156259
0.014113
0.0100338
0.0150275
0.0173802
0.0181942
0.0183941
0.0183066
0.0177369
0.015723
0.00842378
0.00842352
0.0157232
0.0177384
0.0183171
0.0184533
0.0184664
0.0183919
0.0180255
0.0165691
0.0101731
0.0092351
0.01357
0.0143814
0.0145447
0.0145623
0.014562
0.0145614
0.0145614
0.014562
0.0145623
0.0145448
0.0143815
0.0135703
0.00923539
0.0101731
0.0165684
0.0180205
0.0183603
0.0183009
0.0177358
0.0157225
0.00842372
0.00842347
0.015723
0.0177383
0.0183173
0.0184543
0.0184722
0.0184258
0.0181979
0.0173743
0.0150044
0.0100116
0.0140097
0.0155343
0.0159743
0.0161348
0.0160719
0.0160479
0.0160424
0.0160423
0.0160478
0.0160718
0.0161346
0.0159741
0.0155342
0.0140095
0.0100112
0.0150038
0.0173735
0.0181928
0.0183941
0.0183066
0.0177365
0.0157221
0.00842365
0.00842342
0.0157227
0.0177382
0.0183174
0.0184554
0.018479
0.0184628
0.0183726
0.0180642
0.0173131
0.0163182
0.0166502
0.0168317
0.0168942
0.0169242
0.0169022
0.0168909
0.0168876
0.0168876
0.0168909
0.0169021
0.0169241
0.0168941
0.0168315
0.01665
0.0163178
0.0173127
0.0180635
0.0183676
0.0184311
0.0183132
0.0177373
0.0157217
0.00842357
0.00842337
0.0157225
0.0177381
0.0183175
0.018456
0.0184824
0.0184805
0.0184525
0.018355
0.0181176
0.0177683
0.0175764
0.0173262
0.0172273
0.0172036
0.0171923
0.0171876
0.0171861
0.0171861
0.0171876
0.0171923
0.0172036
0.0172272
0.0173261
0.0175763
0.0177682
0.0181174
0.0183543
0.0184474
0.0184488
0.0183165
0.0177376
0.0157214
0.00842347
0.00842331
0.0157223
0.017738
0.0183176
0.0184563
0.0184835
0.0184863
0.0184773
0.0184415
0.0183404
0.0181335
0.0178301
0.0174625
0.0173148
0.0172759
0.0172661
0.0172634
0.0172626
0.0172626
0.0172634
0.0172661
0.0172759
0.0173148