/*--------------------------------*- C++ -*----------------------------------*\
| =========                 |                                                 |
| \\      /  F ield         | OpenFOAM: The Open Source CFD Toolbox           |
|  \\    /   O peration     | Version:  2112                                  |
|   \\  /    A nd           | Website:  www.openfoam.com                      |
|    \\/     M anipulation  |                                                 |
\*---------------------------------------------------------------------------*/
FoamFile
{
    version     2.0;
    format      ascii;
    arch        "LSB;label=32;scalar=64";
    class       volScalarField;
    location    "0.8";
    object      nut;
}
// * * * * * * * * * * * * * * * * * * * * * * * * * * * * * * * * * * * * * //

dimensions      [0 2 -1 0 0 0 0];

internalField   nonuniform List<scalar> 
64906
(
0.000153732
0.000155924
0.000156633
0.000156774
0.000156796
0.000156799
0.0001568
0.000156801
0.000156802
0.000156802
0.000156803
0.000156804
0.000156804
0.000156805
0.000156805
0.000156805
0.000156805
0.000156805
0.000156805
0.000156805
0.000156805
0.000156805
0.000156804
0.000156804
0.000156804
0.000156803
0.000156802
0.000156801
0.0001568
0.000156797
0.000156776
0.000156635
0.000155925
0.000153733
0.000155925
0.00017489
0.000180531
0.000181794
0.00018202
0.000182054
0.000182059
0.000182061
0.000182062
0.000182064
0.000182065
0.000182067
0.000182068
0.000182069
0.00018207
0.000182071
0.000182071
0.000182072
0.000182072
0.000182071
0.000182071
0.00018207
0.000182069
0.000182068
0.000182067
0.000182066
0.000182064
0.000182063
0.000182057
0.000182023
0.000181796
0.000180533
0.000174893
0.000155926
0.000156635
0.000180532
0.000188184
0.000190064
0.000190436
0.000190498
0.000190508
0.000190511
0.000190514
0.000190516
0.00019052
0.000190523
0.000190526
0.000190529
0.000190532
0.000190534
0.000190535
0.000190536
0.000190536
0.000190535
0.000190534
0.000190532
0.00019053
0.000190527
0.000190524
0.000190521
0.000190517
0.000190514
0.000190503
0.000190441
0.000190069
0.000188189
0.000180536
0.000156637
0.000156776
0.000181796
0.000190065
0.000192169
0.000192602
0.000192676
0.000192688
0.000192693
0.000192697
0.000192701
0.000192706
0.000192712
0.000192717
0.000192722
0.000192726
0.000192729
0.000192732
0.000192733
0.000192733
0.000192732
0.00019273
0.000192727
0.000192723
0.000192718
0.000192713
0.000192707
0.000192702
0.000192697
0.000192683
0.000192608
0.000192176
0.000190071
0.000181801
0.000156779
0.000156798
0.000182023
0.000190438
0.000192602
0.000193052
0.00019313
0.000193144
0.000193149
0.000193154
0.000193158
0.000193162
0.000193172
0.000193182
0.00019319
0.000193196
0.0001932
0.000193203
0.000193205
0.000193205
0.000193204
0.000193201
0.000193196
0.00019319
0.000193183
0.000193173
0.000193164
0.000193159
0.000193154
0.00019314
0.00019306
0.00019261
0.000190445
0.000182029
0.000156802
0.000156802
0.000182057
0.000190499
0.000192676
0.00019313
0.00019321
0.000193225
0.00019323
0.000193229
0.000193218
0.000193206
0.00019323
0.000193253
0.000193268
0.000193278
0.000193284
0.000193288
0.00019329
0.00019329
0.000193288
0.000193285
0.000193279
0.000193269
0.000193254
0.000193231
0.000193207
0.000193219
0.000193229
0.00019322
0.00019314
0.000192686
0.000190508
0.000182064
0.000156806
0.000156803
0.000182062
0.000190509
0.000192689
0.000193144
0.000193225
0.000193238
0.000193233
0.000193191
0.000193077
0.000192945
0.000193052
0.000193147
0.000193193
0.000193214
0.000193222
0.000193226
0.000193229
0.000193229
0.000193227
0.000193223
0.000193215
0.000193194
0.000193148
0.000193053
0.000192946
0.000193078
0.000193191
0.000193223
0.000193154
0.000192699
0.000190519
0.00018207
0.000156808
0.000156804
0.000182064
0.000190512
0.000192693
0.000193149
0.000193228
0.000193231
0.000193171
0.000192919
0.000192265
0.000191458
0.000192076
0.000192564
0.000192751
0.000192814
0.000192825
0.000192828
0.00019283
0.00019283
0.000192828
0.000192826
0.000192815
0.000192753
0.000192565
0.000192078
0.000191459
0.000192267
0.00019292
0.000193161
0.000193147
0.000192703
0.000190523
0.000182073
0.000156809
0.000156804
0.000182064
0.000190514
0.000192696
0.000193152
0.000193226
0.000193188
0.000192919
0.000191852
0.000188932
0.000184871
0.000188302
0.000190552
0.000191298
0.000191489
0.000191519
0.000191524
0.000191526
0.000191526
0.000191524
0.00019152
0.00019149
0.000191299
0.000190554
0.000188304
0.000184872
0.000188934
0.000191853
0.00019291
0.000193104
0.000192701
0.000190525
0.000182074
0.000156811
0.000156805
0.000182065
0.000190516
0.000192698
0.000193153
0.000193213
0.000193075
0.000192276
0.000188958
0.000178643
0.000161469
0.000177388
0.000185801
0.000188142
0.000188634
0.000188726
0.000188745
0.00018875
0.00018875
0.000188745
0.000188727
0.000188636
0.000188144
0.000185804
0.000177392
0.000161469
0.000178645
0.00018896
0.000192267
0.000192991
0.000192688
0.000190527
0.000182076
0.000156812
0.000156805
0.000182066
0.000190518
0.000192702
0.000193156
0.000193201
0.000192955
0.000191523
0.000185027
0.000161573
0.000160803
0.000180118
0.0001848
0.000185679
0.000185807
0.000185822
0.000185824
0.000185824
0.000185822
0.000185807
0.000185679
0.000184802
0.000180121
0.000160806
0.000161574
0.000185029
0.000191514
0.000192871
0.000192675
0.000190528
0.000182076
0.000156813
0.000156805
0.000182066
0.000190519
0.000192705
0.000193164
0.000193227
0.000193095
0.000192297
0.000188963
0.00017858
0.000161434
0.000176983
0.000185353
0.000187665
0.000188151
0.00018818
0.000188164
0.000188156
0.000188156
0.000188164
0.00018818
0.00018815
0.000187664
0.000185353
0.000176982
0.000161432
0.000178576
0.000188963
0.000192287
0.00019301
0.000192701
0.000190534
0.000182077
0.000156813
0.000156805
0.000182066
0.000190521
0.000192709
0.000193171
0.000193253
0.000193224
0.000192962
0.000191881
0.000188893
0.000184657
0.000187662
0.000189461
0.000189988
0.00019009
0.000190071
0.00019005
0.000190042
0.000190041
0.00019005
0.000190071
0.000190089
0.000189987
0.00018946
0.00018766
0.000184652
0.000188891
0.00019188
0.000192952
0.00019314
0.000192726
0.000190539
0.000182077
0.000156813
0.000156805
0.000182066
0.000190522
0.000192711
0.000193176
0.000193266
0.000193283
0.000193234
0.000192974
0.000192246
0.000191187
0.000191242
0.000191028
0.000190889
0.000190827
0.00019079
0.000190771
0.000190762
0.000190762
0.00019077
0.000190789
0.000190825
0.000190887
0.000191026
0.000191238
0.000191184
0.000192245
0.000192973
0.000193223
0.000193197
0.000192739
0.000190543
0.000182077
0.000156813
0.000156805
0.000182066
0.000190523
0.000192713
0.000193179
0.000193273
0.000193303
0.000193313
0.000193267
0.000193075
0.00019266
0.000192149
0.000191446
0.000191131
0.000191021
0.000190978
0.000190957
0.000190948
0.000190947
0.000190956
0.000190977
0.000191019
0.000191129
0.000191444
0.000192145
0.000192657
0.000193074
0.000193266
0.000193302
0.000193217
0.000192745
0.000190545
0.000182077
0.000156812
0.000156804
0.000182065
0.000190524
0.000192715
0.000193182
0.000193277
0.00019331
0.000193334
0.000193332
0.000193244
0.000192943
0.000192338
0.000191536
0.000191184
0.000191063
0.000191017
0.000190994
0.000190982
0.000190982
0.000190993
0.000191015
0.000191061
0.000191182
0.000191534
0.000192334
0.000192941
0.000193243
0.000193331
0.000193323
0.000193225
0.000192749
0.000190547
0.000182077
0.000156811
0.000156803
0.000182065
0.000190525
0.000192716
0.000193183
0.000193279
0.000193314
0.00019334
0.000193346
0.000193277
0.000192994
0.000192376
0.000191555
0.000191196
0.000191072
0.000191024
0.000190999
0.000190985
0.000190984
0.000190998
0.000191022
0.00019107
0.000191194
0.000191552
0.000192372
0.000192991
0.000193275
0.000193345
0.000193329
0.000193228
0.000192751
0.000190548
0.000182077
0.00015681
0.000156803
0.000182065
0.000190525
0.000192717
0.000193185
0.000193281
0.000193315
0.000193343
0.000193351
0.000193284
0.000193004
0.000192385
0.000191559
0.000191199
0.000191074
0.000191025
0.000190999
0.000190982
0.000190981
0.000190997
0.000191024
0.000191072
0.000191197
0.000191557
0.000192381
0.000193001
0.000193283
0.00019335
0.000193332
0.00019323
0.000192752
0.000190549
0.000182077
0.000156809
0.000156802
0.000182065
0.000190525
0.000192717
0.000193185
0.000193281
0.000193316
0.000193343
0.000193352
0.000193285
0.000193005
0.000192386
0.00019156
0.0001912
0.000191074
0.000191025
0.000190998
0.00019098
0.000190979
0.000190996
0.000191023
0.000191072
0.000191198
0.000191558
0.000192382
0.000193003
0.000193284
0.000193351
0.000193333
0.000193231
0.000192753
0.000190549
0.000182077
0.000156808
0.000156802
0.000182065
0.000190525
0.000192717
0.000193185
0.000193281
0.000193316
0.000193343
0.00019335
0.000193281
0.000192998
0.000192381
0.000191557
0.000191197
0.000191072
0.000191023
0.000190996
0.000190979
0.000190978
0.000190994
0.000191021
0.00019107
0.000191195
0.000191555
0.000192377
0.000192996
0.00019328
0.000193349
0.000193332
0.00019323
0.000192753
0.000190549
0.000182077
0.000156808
0.000156803
0.000182065
0.000190525
0.000192717
0.000193184
0.000193279
0.000193313
0.000193338
0.000193338
0.000193252
0.000192952
0.000192347
0.000191541
0.000191187
0.000191064
0.000191015
0.00019099
0.000190974
0.000190974
0.000190988
0.000191014
0.000191062
0.000191185
0.000191539
0.000192344
0.00019295
0.000193251
0.000193337
0.000193328
0.000193229
0.000192752
0.000190549
0.000182077
0.000156809
0.000156803
0.000182066
0.000190525
0.000192716
0.000193182
0.000193277
0.000193308
0.000193319
0.000193275
0.000193086
0.000192674
0.000192163
0.000191453
0.000191135
0.000191023
0.000190976
0.000190952
0.00019094
0.000190939
0.000190951
0.000190975
0.000191021
0.000191134
0.000191451
0.000192161
0.000192673
0.000193086
0.000193276
0.00019331
0.000193223
0.000192749
0.000190548
0.000182078
0.00015681
0.000156804
0.000182066
0.000190524
0.000192714
0.00019318
0.000193271
0.000193289
0.000193242
0.000192986
0.000192263
0.00019121
0.000191265
0.000191038
0.000190896
0.00019083
0.00019079
0.000190767
0.000190756
0.000190756
0.000190766
0.000190788
0.000190828
0.000190894
0.000191037
0.000191263
0.00019121
0.000192264
0.000192987
0.000193233
0.000193205
0.000192744
0.000190547
0.000182078
0.000156811
0.000156804
0.000182066
0.000190523
0.000192712
0.000193175
0.000193259
0.000193232
0.000192973
0.000191897
0.000188919
0.000184696
0.000187693
0.000189476
0.000189998
0.000190095
0.000190073
0.000190049
0.000190039
0.000190038
0.000190048
0.000190072
0.000190094
0.000189997
0.000189476
0.000187694
0.000184698
0.000188921
0.000191899
0.000192964
0.000193149
0.000192733
0.000190544
0.000182079
0.000156812
0.000156804
0.000182066
0.000190522
0.000192709
0.000193169
0.000193234
0.000193104
0.000192309
0.000188982
0.000178611
0.000161459
0.000177003
0.000185356
0.000187666
0.000188148
0.000188175
0.000188156
0.000188147
0.000188146
0.000188155
0.000188173
0.000188147
0.000187664
0.000185356
0.000177008
0.000161458
0.000178615
0.000188985
0.000192302
0.000193021
0.000192709
0.000190539
0.000182079
0.000156812
0.000156804
0.000182066
0.000190521
0.000192706
0.000193162
0.000193209
0.000192965
0.000191534
0.000185039
0.000161575
0.000160775
0.000180066
0.000184747
0.000185619
0.000185741
0.000185752
0.000185751
0.000185751
0.00018575
0.000185738
0.000185613
0.000184737
0.000180051
0.000160764
0.000161575
0.000185041
0.000191527
0.000192883
0.000192685
0.000190534
0.000182079
0.000156812
0.000156804
0.000182066
0.000190519
0.000192704
0.000193161
0.000193223
0.000193088
0.000192292
0.000188978
0.000178668
0.000161497
0.000177327
0.000185691
0.00018795
0.000188394
0.000188466
0.000188477
0.000188478
0.000188477
0.000188474
0.000188459
0.000188375
0.000187905
0.000185606
0.000177272
0.000161486
0.000178667
0.00018898
0.000192285
0.000193006
0.000192699
0.000190534
0.000182078
0.000156811
0.000156804
0.000182066
0.000190517
0.000192701
0.000193159
0.000193236
0.000193202
0.000192937
0.000191873
0.000188954
0.000184871
0.000188188
0.000190234
0.000190682
0.000190725
0.000190715
0.000190711
0.000190709
0.000190709
0.000190707
0.000190702
0.00019068
0.000190549
0.000189947
0.000187988
0.000184786
0.000188928
0.00019187
0.00019293
0.000193121
0.000192713
0.000190533
0.000182077
0.000156811
0.000156803
0.000182061
0.000190508
0.000192689
0.000193147
0.000193229
0.000193237
0.00019318
0.000192931
0.000192267
0.000191402
0.000191821
0.000191881
0.000191462
0.000191272
0.000191213
0.000191198
0.000191194
0.000191193
0.000191193
0.000191196
0.000191204
0.000191228
0.000191292
0.000191398
0.000191212
0.000192207
0.000192918
0.000193171
0.000193156
0.000192708
0.000190524
0.000182072
0.000156809
0.0001568
0.000182028
0.000190447
0.000192615
0.000193069
0.000193152
0.000193169
0.000193168
0.000193129
0.000193003
0.000192807
0.000192708
0.000192352
0.000191778
0.000191546
0.000191481
0.000191466
0.000191463
0.000191463
0.000191462
0.000191464
0.000191477
0.000191535
0.000191743
0.00019226
0.000192604
0.000192939
0.000193116
0.00019316
0.000193089
0.000192635
0.000190462
0.000182038
0.000156806
0.000156778
0.000181801
0.000190074
0.000192183
0.000192619
0.000192698
0.000192716
0.000192725
0.000192728
0.000192713
0.000192664
0.000192567
0.000192328
0.000191984
0.00019183
0.000191785
0.000191776
0.000191776
0.000191776
0.000191775
0.000191774
0.000191781
0.000191823
0.000191972
0.000192308
0.000192546
0.000192677
0.000192723
0.000192719
0.000192641
0.000192201
0.000190089
0.000181811
0.000156784
0.000156637
0.000180537
0.000188194
0.000190077
0.000190453
0.000190519
0.000190535
0.000190544
0.000190553
0.000190558
0.00019055
0.000190513
0.000190419
0.000190284
0.000190219
0.0001902
0.000190197
0.000190198
0.000190198
0.000190197
0.000190196
0.000190198
0.000190216
0.000190279
0.000190412
0.000190505
0.000190547
0.000190554
0.000190541
0.000190473
0.000190094
0.000188207
0.000180547
0.000156642
0.000155927
0.000174896
0.00018054
0.000181806
0.000182036
0.000182074
0.000182083
0.000182091
0.000182098
0.000182105
0.000182107
0.0001821
0.000182076
0.000182038
0.000182019
0.000182012
0.00018201
0.00018201
0.00018201
0.00018201
0.00018201
0.000182011
0.000182017
0.000182036
0.000182074
0.000182097
0.000182105
0.000182102
0.000182092
0.000182052
0.00018182
0.000180551
0.000174903
0.000155931
0.000153735
0.000155928
0.000156639
0.000156782
0.000156805
0.000156811
0.000156815
0.000156819
0.000156824
0.000156829
0.000156834
0.000156837
0.000156837
0.000156834
0.000156832
0.00015683
0.000156828
0.000156826
0.000156825
0.000156826
0.000156827
0.000156829
0.000156831
0.000156833
0.000156836
0.000156834
0.000156831
0.000156826
0.000156821
0.000156814
0.000156789
0.000156645
0.000155932
0.000153738
0.000234458
0.000247786
0.000252428
0.000253508
0.000253702
0.000253731
0.000253735
0.000253736
0.000253736
0.000253737
0.000253737
0.000253737
0.000253737
0.000253737
0.000253737
0.000253737
0.000253737
0.000253737
0.000253737
0.000253737
0.000253737
0.000253737
0.000253737
0.000253737
0.000253737
0.000253737
0.000253737
0.000253736
0.000253732
0.000253703
0.000253509
0.000252428
0.000247787
0.000234459
0.000247786
0.00065613
0.000749713
0.000770827
0.0007749
0.000775551
0.000775634
0.000775638
0.000775632
0.000775622
0.000775611
0.000775598
0.000775585
0.000775573
0.000775563
0.000775555
0.000775549
0.000775546
0.000775546
0.000775549
0.000775555
0.000775563
0.000775573
0.000775585
0.000775597
0.00077561
0.000775619
0.000775618
0.000775537
0.000774887
0.000770816
0.000749701
0.000656122
0.000247787
0.000252429
0.000749728
0.000877968
0.00090984
0.000916582
0.000917769
0.000917946
0.000917969
0.000917973
0.000917973
0.000917974
0.000917974
0.000917975
0.000917975
0.000917975
0.000917975
0.000917975
0.000917975
0.000917975
0.000917975
0.000917976
0.000917976
0.000917976
0.000917976
0.000917976
0.000917975
0.000917973
0.00091795
0.000917774
0.000916586
0.000909843
0.00087797
0.00074973
0.000252431
0.00025351
0.00077085
0.000909849
0.000945727
0.00095359
0.000955025
0.00095525
0.000955285
0.000955293
0.000955296
0.000955299
0.000955311
0.000955325
0.000955337
0.000955346
0.000955353
0.000955357
0.000955359
0.000955359
0.000955357
0.000955354
0.000955348
0.000955339
0.000955328
0.000955314
0.000955302
0.000955297
0.000955266
0.000955043
0.000953606
0.00094574
0.000909859
0.000770856
0.000253513
0.000253706
0.000774924
0.000916593
0.000953593
0.000961795
0.00096331
0.000963551
0.000963586
0.000963576
0.000963533
0.000963486
0.000963523
0.000963567
0.000963597
0.000963617
0.000963627
0.000963632
0.000963635
0.000963636
0.000963633
0.000963629
0.000963619
0.0009636
0.00096357
0.000963527
0.000963491
0.000963535
0.000963548
0.000963328
0.000961817
0.000953612
0.000916608
0.000774931
0.000253709
0.000253735
0.000775573
0.00091778
0.000955028
0.00096331
0.000964845
0.000965082
0.000965074
0.000964915
0.000964532
0.000964114
0.000964308
0.000964532
0.000964647
0.000964702
0.000964708
0.000964706
0.000964706
0.000964707
0.000964707
0.00096471
0.000964705
0.00096465
0.000964536
0.000964313
0.000964119
0.000964534
0.000964887
0.000964813
0.000963325
0.000955049
0.000917796
0.00077558
0.000253739
0.000253739
0.000775654
0.000917954
0.000955251
0.000963549
0.000965079
0.000965262
0.000965005
0.000963997
0.000961658
0.000959031
0.000960439
0.000961815
0.000962411
0.000962629
0.000962615
0.000962581
0.000962569
0.00096257
0.000962583
0.000962617
0.000962632
0.000962415
0.000961819
0.000960444
0.000959037
0.000961661
0.00096397
0.000964744
0.000963502
0.000955264
0.00091797
0.000775659
0.000253744
0.00025374
0.000775655
0.000917974
0.000955282
0.000963579
0.000965067
0.000965003
0.000963623
0.000958717
0.000946912
0.000932515
0.000942243
0.000949911
0.00095285
0.000953764
0.000953722
0.000953618
0.00095358
0.00095358
0.000953619
0.000953724
0.000953767
0.000952855
0.000949916
0.00094225
0.000932521
0.000946916
0.000958691
0.000963363
0.000963242
0.000955247
0.000917984
0.000775656
0.000253745
0.00025374
0.000775644
0.000917974
0.000955286
0.000963565
0.000964908
0.000964012
0.000958772
0.000939671
0.000889248
0.000813046
0.000876284
0.000912773
0.000924725
0.000927873
0.000928005
0.000927875
0.000927824
0.000927824
0.000927876
0.000928007
0.000927876
0.00092473
0.000912781
0.000876296
0.000813051
0.000889251
0.000939646
0.000958513
0.000962252
0.000955085
0.000917958
0.000775637
0.000253746
0.00025374
0.00077563
0.000917969
0.000955284
0.00096352
0.000964544
0.000961777
0.000947297
0.000889872
0.000703648
0.000277046
0.000680633
0.000829757
0.000867626
0.000875576
0.000876824
0.000876971
0.000876978
0.000876979
0.000876971
0.000876825
0.000875578
0.000867631
0.000829772
0.000680665
0.000277044
0.000703649
0.000889847
0.00094704
0.000960017
0.000954717
0.0009179
0.000775607
0.000253747
0.00025374
0.000775614
0.000917964
0.000955282
0.000963481
0.000964205
0.000959522
0.000934124
0.000816152
0.000277959
0.000272394
0.000726802
0.000808209
0.000822221
0.000824323
0.000824544
0.000824548
0.000824548
0.000824545
0.000824324
0.000822223
0.000808217
0.000726828
0.000272399
0.00027796
0.000816125
0.000933867
0.000957761
0.000954372
0.000917842
0.000775572
0.000253746
0.00025374
0.000775596
0.000917959
0.000955292
0.000963541
0.000964572
0.000961797
0.000947244
0.00088949
0.000702104
0.000276827
0.000674963
0.000821947
0.000858642
0.00086578
0.000866891
0.000866803
0.0008667
0.000866698
0.0008668
0.000866884
0.000865771
0.000858633
0.000821942
0.000674954
0.000276818
0.000702062
0.000889449
0.000946982
0.000960033
0.000954729
0.000917878
0.000775539
0.000253745
0.000253739
0.000775579
0.000917956
0.000955304
0.000963607
0.000964965
0.000964066
0.000958735
0.000939218
0.000887457
0.000808219
0.000863762
0.00088939
0.000896887
0.000898288
0.000898245
0.000898022
0.000897912
0.000897911
0.000898018
0.000898239
0.00089828
0.000896875
0.000889375
0.000863739
0.000808188
0.000887434
0.000939181
0.000958472
0.000962298
0.000955113
0.000917923
0.000775514
0.000253744
0.000253738
0.000775565
0.000917952
0.000955312
0.000963643
0.000965154
0.000965093
0.000963616
0.000958199
0.000944573
0.000925112
0.000923713
0.000915448
0.000912004
0.000910866
0.000910421
0.000910219
0.000910143
0.000910142
0.000910217
0.000910418
0.000910861
0.000911995
0.000915435
0.000923703
0.000925099
0.000944563
0.000958167
0.000963353
0.000963324
0.000955297
0.000917943
0.000775492
0.000253743
0.000253737
0.000775554
0.00091795
0.000955317
0.000963659
0.00096522
0.000965414
0.000965055
0.000963481
0.000959036
0.000950423
0.000939127
0.000922745
0.000916286
0.000914393
0.000913866
0.000913701
0.000913651
0.000913651
0.0009137
0.000913865
0.000914389
0.00091628
0.000922735
0.000939121
0.000950418
0.000959031
0.000963452
0.000964794
0.000963643
0.000955358
0.000917947
0.000775474
0.000253741
0.000253736
0.000775545
0.000917948
0.000955321
0.000963668
0.000965242
0.000965496
0.000965391
0.000964648
0.000962062
0.000955362
0.000942368
0.000924373
0.000917269
0.000915212
0.000914682
0.000914538
0.000914501
0.000914501
0.000914538
0.000914681
0.00091521
0.000917263
0.000924364
0.000942365
0.000955359
0.00096206
0.000964619
0.00096513
0.000963725
0.000955378
0.000917947
0.000775462
0.00025374
0.000253735
0.00077554
0.000917947
0.000955323
0.000963673
0.000965252
0.000965518
0.00096546
0.000964868
0.000962601
0.000956203
0.000942945
0.000924694
0.00091748
0.000915397
0.000914873
0.000914738
0.000914707
0.000914707
0.000914739
0.000914872
0.000915396
0.000917475
0.000924686
0.000942942
0.000956201
0.0009626
0.00096484
0.0009652
0.000963747
0.000955385
0.000917947
0.000775454
0.000253738
0.000253734
0.000775536
0.000917946
0.000955325
0.000963676
0.000965256
0.000965525
0.000965476
0.000964907
0.000962688
0.000956331
0.000943037
0.000924758
0.000917529
0.000915443
0.000914922
0.000914791
0.000914763
0.000914763
0.000914792
0.000914922
0.000915442
0.000917525
0.000924751
0.000943034
0.00095633
0.000962687
0.00096488
0.000965216
0.000963755
0.000955389
0.000917948
0.00077545
0.000253738
0.000253734
0.000775536
0.000917947
0.000955326
0.000963678
0.000965258
0.000965527
0.000965479
0.00096491
0.000962692
0.000956335
0.000943041
0.000924764
0.000917534
0.000915447
0.000914925
0.000914795
0.000914767
0.000914768
0.000914796
0.000914926
0.000915446
0.00091753
0.000924757
0.000943038
0.000956334
0.000962691
0.000964884
0.00096522
0.000963758
0.000955391
0.000917948
0.000775449
0.000253737
0.000253734
0.000775538
0.000917948
0.000955326
0.000963677
0.000965257
0.000965524
0.000965468
0.000964877
0.000962613
0.000956215
0.000942957
0.000924713
0.000917495
0.00091541
0.000914885
0.000914752
0.000914722
0.000914723
0.000914753
0.000914886
0.00091541
0.000917493
0.000924707
0.000942955
0.000956215
0.000962613
0.000964851
0.00096521
0.000963755
0.000955391
0.000917949
0.000775451
0.000253737
0.000253735
0.000775542
0.000917949
0.000955325
0.000963675
0.000965251
0.000965507
0.000965404
0.000964665
0.000962083
0.000955385
0.000942392
0.000924411
0.000917302
0.000915242
0.000914712
0.00091457
0.000914535
0.000914536
0.000914572
0.000914714
0.000915243
0.000917301
0.000924407
0.000942391
0.000955386
0.000962085
0.00096464
0.000965147
0.000963739
0.000955387
0.000917951
0.000775457
0.000253738
0.000253735
0.000775549
0.000917952
0.000955324
0.000963669
0.000965233
0.000965429
0.000965076
0.000963509
0.000959075
0.000950473
0.000939175
0.000922817
0.000916353
0.000914457
0.000913933
0.000913772
0.000913725
0.000913726
0.000913775
0.000913937
0.000914461
0.000916355
0.000922816
0.000939177
0.000950476
0.000959078
0.000963485
0.000964819
0.000963663
0.000955372
0.000917952
0.000775467
0.000253739
0.000253736
0.000775559
0.000917955
0.000955321
0.000963656
0.000965171
0.000965115
0.000963645
0.000958244
0.000944651
0.000925234
0.000923822
0.000915578
0.000912132
0.000910997
0.00091056
0.000910365
0.000910295
0.000910297
0.00091037
0.000910567
0.000911006
0.000912141
0.000915587
0.000923833
0.000925243
0.000944657
0.000958223
0.00096339
0.00096335
0.000955315
0.000917949
0.000775482
0.00025374
0.000253737
0.000775572
0.000917959
0.000955315
0.000963623
0.000964986
0.000964094
0.000958776
0.000939292
0.000887612
0.000808507
0.000863989
0.000889592
0.000897091
0.000898508
0.000898482
0.000898273
0.000898173
0.000898176
0.000898281
0.000898495
0.000898525
0.000897111
0.000889616
0.000864025
0.000808531
0.000887626
0.000939274
0.000958524
0.000962333
0.000955136
0.000917931
0.000775502
0.000253742
0.000253738
0.000775586
0.000917963
0.000955306
0.000963561
0.000964598
0.000961832
0.000947295
0.000889588
0.000702329
0.000276891
0.000675195
0.000822067
0.000858794
0.000865956
0.00086709
0.00086702
0.000866927
0.00086693
0.000867029
0.000867104
0.000865972
0.000858809
0.00082209
0.000675281
0.000276891
0.000702355
0.000889572
0.000947046
0.000960075
0.000954757
0.000917887
0.000775523
0.000253743
0.000253738
0.000775602
0.000917968
0.000955298
0.000963504
0.000964235
0.000959559
0.00093417
0.000816201
0.000277953
0.000272302
0.000726201
0.000807582
0.00082153
0.00082361
0.000823825
0.000823827
0.000823826
0.000823822
0.000823597
0.000821488
0.000807476
0.000726018
0.000272256
0.000277946
0.000816175
0.000933921
0.000957807
0.000954404
0.000917852
0.00077555
0.000253744
0.000253739
0.000775615
0.000917972
0.000955298
0.000963544
0.000964575
0.000961817
0.000947346
0.000889927
0.0007037
0.000277058
0.000679475
0.000827814
0.000864435
0.000871708
0.000872844
0.000872989
0.000872998
0.000872995
0.000872976
0.000872793
0.000871509
0.000863807
0.000826488
0.000678565
0.000276977
0.000703603
0.000889864
0.000947086
0.000960064
0.00095475
0.000917906
0.000775578
0.000253744
0.000253738
0.000775618
0.000917955
0.000955275
0.000963562
0.000964912
0.000964025
0.000958789
0.000939666
0.000889106
0.000812335
0.000873536
0.000906037
0.000912239
0.0009127
0.000912469
0.000912355
0.00091232
0.000912315
0.000912324
0.000912316
0.00091203
0.000909863
0.000900389
0.000869469
0.000810602
0.000888488
0.000939463
0.000958496
0.000962266
0.000955091
0.000917943
0.000775592
0.000253744
0.000253735
0.00077554
0.000917782
0.000955056
0.000963348
0.000964841
0.000964784
0.000963401
0.000958427
0.000946282
0.000930572
0.000936253
0.0009349
0.000924611
0.000920459
0.000919304
0.000919041
0.000918987
0.000918978
0.000918984
0.000919023
0.00091917
0.000919683
0.00092172
0.000927171
0.000926547
0.000944924
0.000958033
0.000963066
0.000963021
0.000955039
0.000917795
0.00077552
0.00025374
0.000253706
0.000774893
0.000916598
0.000953623
0.000961841
0.000963358
0.000963544
0.000963281
0.000962196
0.000959472
0.00095539
0.000952428
0.000944081
0.000930669
0.000925629
0.00092431
0.00092403
0.000923978
0.00092397
0.000923973
0.000924017
0.000924267
0.000925446
0.000930084
0.000942689
0.000951013
0.000957997
0.000961774
0.000962945
0.000961803
0.000953654
0.000916617
0.000774877
0.000253711
0.000253511
0.000770821
0.000909855
0.000945757
0.000953636
0.000955082
0.000955307
0.000955294
0.000955085
0.000954458
0.000953131
0.000950682
0.000945254
0.000937733
0.000934558
0.000933659
0.000933456
0.000933416
0.00093341
0.000933415
0.000933454
0.000933653
0.000934527
0.000937638
0.000945039
0.000950496
0.00095355
0.000954816
0.000955007
0.000953663
0.000945793
0.000909872
0.000770807
0.000253515
0.00025243
0.000749703
0.000877974
0.000909868
0.000916622
0.000917818
0.000918002
0.000918023
0.000917984
0.000917825
0.000917381
0.000916315
0.000914088
0.000911143
0.000909737
0.000909285
0.000909166
0.000909137
0.000909133
0.00090914
0.000909171
0.000909291
0.000909742
0.000911141
0.00091407
0.000916304
0.000917446
0.000917862
0.000917813
0.000916647
0.000909892
0.000877982
0.000749686
0.000252434
0.000247788
0.000656113
0.000749721
0.000770849
0.000774927
0.000775581
0.000775665
0.000775666
0.000775642
0.000775579
0.000775424
0.00077507
0.000774401
0.000773536
0.000773065
0.000772871
0.000772798
0.00077277
0.000772765
0.000772778
0.000772813
0.000772893
0.00077309
0.000773566
0.000774431
0.000775103
0.000775456
0.000775594
0.00077556
0.000774923
0.000770847
0.000749712
0.00065609
0.000247791
0.000234461
0.000247788
0.000252432
0.000253515
0.000253712
0.000253743
0.00025375
0.000253754
0.000253758
0.000253761
0.00025376
0.000253751
0.000253729
0.000253697
0.000253678
0.000253669
0.000253664
0.000253662
0.000253661
0.000253662
0.000253665
0.000253669
0.000253678
0.000253697
0.000253728
0.00025375
0.000253758
0.000253758
0.000253752
0.00025372
0.000253521
0.000252437
0.000247791
0.000234463
0.00024083
0.000259386
0.000266334
0.000268105
0.000268457
0.000268515
0.000268523
0.000268524
0.000268524
0.000268524
0.000268524
0.000268524
0.000268523
0.000268523
0.000268522
0.000268522
0.000268522
0.000268522
0.000268522
0.000268522
0.000268522
0.000268522
0.000268523
0.000268523
0.000268523
0.000268524
0.000268523
0.000268523
0.000268515
0.000268457
0.000268105
0.000266334
0.000259387
0.000240831
0.000259386
0.000804197
0.000945951
0.000981041
0.00098845
0.00098975
0.000989935
0.000989948
0.000989937
0.00098992
0.000989899
0.000989876
0.000989853
0.000989832
0.000989814
0.000989799
0.000989789
0.000989784
0.000989783
0.000989788
0.000989798
0.000989812
0.000989829
0.00098985
0.000989872
0.000989895
0.000989911
0.000989903
0.000989721
0.000988423
0.000981015
0.000945927
0.000804179
0.000259387
0.000266335
0.000945974
0.00114694
0.00120157
0.00121415
0.00121657
0.00121695
0.00121701
0.00121701
0.001217
0.00121699
0.00121699
0.00121698
0.00121697
0.00121697
0.00121696
0.00121696
0.00121695
0.00121695
0.00121696
0.00121696
0.00121697
0.00121697
0.00121698
0.00121698
0.00121699
0.00121699
0.00121695
0.00121656
0.00121414
0.00120156
0.00114693
0.000945967
0.000266336
0.000268107
0.000981075
0.00120158
0.0012639
0.00127877
0.00128172
0.00128222
0.0012823
0.0012823
0.00128229
0.00128227
0.00128227
0.00128228
0.00128229
0.00128229
0.00128229
0.00128229
0.00128229
0.0012823
0.0012823
0.00128229
0.00128229
0.00128229
0.00128228
0.00128227
0.00128227
0.00128228
0.00128222
0.00128173
0.00127878
0.0012639
0.00120159
0.000981074
0.000268109
0.000268461
0.000988487
0.00121417
0.00127877
0.00129438
0.00129753
0.00129806
0.00129813
0.00129808
0.00129795