/*--------------------------------*- C++ -*----------------------------------*\
| =========                 |                                                 |
| \\      /  F ield         | OpenFOAM: The Open Source CFD Toolbox           |
|  \\    /   O peration     | Version:  2112                                  |
|   \\  /    A nd           | Website:  www.openfoam.com                      |
|    \\/     M anipulation  |                                                 |
\*---------------------------------------------------------------------------*/
FoamFile
{
    version     2.0;
    format      ascii;
    arch        "LSB;label=32;scalar=64";
    class       volScalarField;
    location    "0.8";
    object      p;
}
// * * * * * * * * * * * * * * * * * * * * * * * * * * * * * * * * * * * * * //

dimensions      [0 2 -2 0 0 0 0];

internalField   nonuniform List<scalar> 
64906
(
-1.43533e-05
-1.43391e-05
-1.43628e-05
-1.44302e-05
-1.45423e-05
-1.4697e-05
-1.48923e-05
-1.51263e-05
-1.53951e-05
-1.56941e-05
-1.60117e-05
-1.63374e-05
-1.66504e-05
-1.69389e-05
-1.71888e-05
-1.73931e-05
-1.75451e-05
-1.7642e-05
-1.76821e-05
-1.76656e-05
-1.75946e-05
-1.74726e-05
-1.73064e-05
-1.71033e-05
-1.68775e-05
-1.66408e-05
-1.64137e-05
-1.62065e-05
-1.60309e-05
-1.58918e-05
-1.57937e-05
-1.57391e-05
-1.5727e-05
-1.575e-05
-1.43156e-05
-1.41917e-05
-1.4151e-05
-1.4174e-05
-1.42533e-05
-1.43779e-05
-1.45408e-05
-1.47387e-05
-1.4967e-05
-1.5222e-05
-1.54911e-05
-1.57667e-05
-1.60271e-05
-1.62659e-05
-1.64705e-05
-1.66379e-05
-1.67634e-05
-1.6846e-05
-1.68847e-05
-1.68797e-05
-1.68326e-05
-1.67446e-05
-1.66209e-05
-1.64646e-05
-1.62885e-05
-1.60987e-05
-1.5917e-05
-1.57506e-05
-1.56132e-05
-1.55109e-05
-1.54549e-05
-1.54583e-05
-1.55298e-05
-1.57047e-05
-1.43676e-05
-1.41766e-05
-1.40939e-05
-1.40869e-05
-1.41483e-05
-1.42621e-05
-1.44184e-05
-1.46143e-05
-1.48458e-05
-1.51127e-05
-1.5398e-05
-1.56972e-05
-1.59721e-05
-1.62202e-05
-1.64261e-05
-1.65921e-05
-1.67147e-05
-1.67952e-05
-1.68333e-05
-1.68293e-05
-1.67839e-05
-1.66963e-05
-1.65705e-05
-1.64043e-05
-1.62134e-05
-1.6e-05
-1.58026e-05
-1.56255e-05
-1.54875e-05
-1.53936e-05
-1.53586e-05
-1.54007e-05
-1.55258e-05
-1.57982e-05
-1.451e-05
-1.42783e-05
-1.41678e-05
-1.41457e-05
-1.42049e-05
-1.43268e-05
-1.4501e-05
-1.47275e-05
-1.5006e-05
-1.53445e-05
-1.57193e-05
-1.61298e-05
-1.64937e-05
-1.68139e-05
-1.70674e-05
-1.7267e-05
-1.74095e-05
-1.74997e-05
-1.7538e-05
-1.75246e-05
-1.74598e-05
-1.73392e-05
-1.71666e-05
-1.69296e-05
-1.66518e-05
-1.63298e-05
-1.60473e-05
-1.58033e-05
-1.56249e-05
-1.55103e-05
-1.54743e-05
-1.55356e-05
-1.56983e-05
-1.60261e-05
-1.47452e-05
-1.44867e-05
-1.43602e-05
-1.43366e-05
-1.44086e-05
-1.45563e-05
-1.47706e-05
-1.50584e-05
-1.54286e-05
-1.59084e-05
-1.6466e-05
-1.71138e-05
-1.76623e-05
-1.81285e-05
-1.84791e-05
-1.87488e-05
-1.89346e-05
-1.9047e-05
-1.90862e-05
-1.90526e-05
-1.89464e-05
-1.87578e-05
-1.84905e-05
-1.81103e-05
-1.76523e-05
-1.70978e-05
-1.66405e-05
-1.62633e-05
-1.60029e-05
-1.58393e-05
-1.57815e-05
-1.5845e-05
-1.60323e-05
-1.63952e-05
-1.50673e-05
-1.47831e-05
-1.46464e-05
-1.46307e-05
-1.47277e-05
-1.49157e-05
-1.51879e-05
-1.55624e-05
-1.60665e-05
-1.67683e-05
-1.76366e-05
-1.87344e-05
-1.96034e-05
-2.0311e-05
-2.08158e-05
-2.11991e-05
-2.14562e-05
-2.16055e-05
-2.16465e-05
-2.15796e-05
-2.14056e-05
-2.11066e-05
-2.06886e-05
-2.00707e-05
-1.92975e-05
-1.8299e-05
-1.75438e-05
-1.69553e-05
-1.65728e-05
-1.63366e-05
-1.62414e-05
-1.62963e-05
-1.65022e-05
-1.69017e-05
-1.54679e-05
-1.51537e-05
-1.50093e-05
-1.50088e-05
-1.5142e-05
-1.53837e-05
-1.57294e-05
-1.62116e-05
-1.68881e-05
-1.79084e-05
-1.92539e-05
-2.12244e-05
-2.26186e-05
-2.36939e-05
-2.44228e-05
-2.49744e-05
-2.53381e-05
-2.5544e-05
-2.5588e-05
-2.54703e-05
-2.51951e-05
-2.47326e-05
-2.40947e-05
-2.31127e-05
-2.18199e-05
-1.99523e-05
-1.87417e-05
-1.78477e-05
-1.73056e-05
-1.69766e-05
-1.68309e-05
-1.68694e-05
-1.70927e-05
-1.75387e-05
-1.59381e-05
-1.55883e-05
-1.54384e-05
-1.54625e-05
-1.56472e-05
-1.59617e-05
-1.64008e-05
-1.70063e-05
-1.78756e-05
-1.92585e-05
-2.12155e-05
-2.4931e-05
-2.71036e-05
-2.87144e-05
-2.97749e-05
-3.05838e-05
-3.11148e-05
-3.14105e-05
-3.14593e-05
-3.12609e-05
-3.08271e-05
-3.01141e-05
-2.91498e-05
-2.76345e-05
-2.55669e-05
-2.19471e-05
-2.01704e-05
-1.89249e-05
-1.82013e-05
-1.77628e-05
-1.75485e-05
-1.75582e-05
-1.77958e-05
-1.82994e-05
-1.64663e-05
-1.60747e-05
-1.59224e-05
-1.59827e-05
-1.62397e-05
-1.66551e-05
-1.72191e-05
-1.7969e-05
-1.9012e-05
-2.08133e-05
-2.32212e-05
-3.05755e-05
-3.35366e-05
-3.57977e-05
-3.73015e-05
-3.84477e-05
-3.92061e-05
-3.96257e-05
-3.96818e-05
-3.93739e-05
-3.87261e-05
-3.76868e-05
-3.62859e-05
-3.41193e-05
-3.12669e-05
-2.39691e-05
-2.18517e-05
-2.0178e-05
-1.9286e-05
-1.87121e-05
-1.83966e-05
-1.83547e-05
-1.85992e-05
-1.9172e-05
-1.70395e-05
-1.66021e-05
-1.64541e-05
-1.65705e-05
-1.69379e-05
-1.75162e-05
-1.82954e-05
-1.92542e-05
-2.05325e-05
-2.29054e-05
-2.0983e-05
-3.77838e-05
-4.14063e-05
-4.46227e-05
-4.68283e-05
-4.85178e-05
-4.96418e-05
-5.02498e-05
-5.03162e-05
-4.98401e-05
-4.88462e-05
-4.72812e-05
-4.51903e-05
-4.20683e-05
-3.85753e-05
-2.16126e-05
-2.40898e-05
-2.18279e-05
-2.07095e-05
-1.99293e-05
-1.94195e-05
-1.92688e-05
-1.94956e-05
-2.01432e-05
-1.7637e-05
-1.7149e-05
-1.70086e-05
-1.71941e-05
-1.77014e-05
-1.8502e-05
-1.95912e-05
-2.08769e-05
-2.21409e-05
-1.98647e-05
-5.52743e-05
-5.26385e-05
-5.50165e-05
-5.76878e-05
-5.98927e-05
-6.14156e-05
-6.22166e-05
-6.22957e-05
-6.16522e-05
-6.02852e-05
-5.82294e-05
-5.56938e-05
-5.34092e-05
-5.59895e-05
-2.16323e-05
-2.37454e-05
-2.25202e-05
-2.13792e-05
-2.05701e-05
-2.02517e-05
-2.04419e-05
-2.11743e-05
-1.82397e-05
-1.77012e-05
-1.75766e-05
-1.78532e-05
-1.85543e-05
-1.97126e-05
-2.14934e-05
-2.42084e-05
-2.87244e-05
-3.53834e-05
-5.17548e-05
-5.32117e-05
-5.91911e-05
-6.45528e-05
-6.91995e-05
-7.26246e-05
-7.48386e-05
-7.5944e-05
-7.6036e-05
-7.5115e-05
-7.30867e-05
-6.98486e-05
-6.5393e-05
-6.02275e-05
-5.44701e-05
-5.34552e-05
-3.69776e-05
-3.03942e-05
-2.59629e-05
-2.34078e-05
-2.19315e-05
-2.13152e-05
-2.14219e-05
-2.22342e-05
-1.88175e-05
-1.82277e-05
-1.81103e-05
-1.84561e-05
-1.92993e-05
-2.06899e-05
-2.2826e-05
-2.60156e-05
-3.08825e-05
-3.74993e-05
-4.85144e-05
-5.59546e-05
-6.41034e-05
-7.12425e-05
-7.72429e-05
-8.14912e-05
-8.41876e-05
-8.55145e-05
-8.56167e-05
-8.4495e-05
-8.20065e-05
-7.79693e-05
-7.21871e-05
-6.52638e-05
-5.73316e-05
-5.01419e-05
-3.92135e-05
-3.26614e-05
-2.78847e-05
-2.48643e-05
-2.3057e-05
-2.22672e-05
-2.23369e-05
-2.32388e-05
-1.93519e-05
-1.87151e-05
-1.86013e-05
-1.90022e-05
-1.99555e-05
-2.15136e-05
-2.38754e-05
-2.73325e-05
-3.24353e-05
-3.93267e-05
-4.8871e-05
-5.78256e-05
-6.7533e-05
-7.59197e-05
-8.28322e-05
-8.76289e-05
-9.06475e-05
-9.21185e-05
-9.22289e-05
-9.09795e-05
-8.81859e-05
-8.36182e-05
-7.69425e-05
-6.87864e-05
-5.93126e-05
-5.05404e-05
-4.11076e-05
-3.42991e-05
-2.93016e-05
-2.60275e-05
-2.40212e-05
-2.31196e-05
-2.31729e-05
-2.41562e-05
-1.98229e-05
-1.91441e-05
-1.90268e-05
-1.94604e-05
-2.04795e-05
-2.21285e-05
-2.45919e-05
-2.81418e-05
-3.32767e-05
-4.01829e-05
-4.93452e-05
-5.90037e-05
-6.95623e-05
-7.85589e-05
-8.59136e-05
-9.0974e-05
-9.41486e-05
-9.56895e-05
-9.58062e-05
-9.44994e-05
-9.1562e-05
-8.67423e-05
-7.96354e-05
-7.08763e-05
-6.05518e-05
-5.10641e-05
-4.20282e-05
-3.52177e-05
-3.02002e-05
-2.68477e-05
-2.47656e-05
-2.3822e-05
-2.38873e-05
-2.49461e-05
-2.02199e-05
-1.95069e-05
-1.9384e-05
-1.98375e-05
-2.08976e-05
-2.26005e-05
-2.51175e-05
-2.871e-05
-3.38507e-05
-4.07647e-05
-4.98813e-05
-5.98909e-05
-7.08598e-05
-8.01697e-05
-8.77543e-05
-9.2945e-05
-9.61965e-05
-9.77722e-05
-9.78944e-05
-9.65637e-05
-9.35599e-05
-8.86191e-05
-8.12902e-05
-7.22233e-05
-6.14924e-05
-5.16515e-05
-4.26699e-05
-3.58597e-05
-3.08463e-05
-2.74644e-05
-2.53511e-05
-2.43938e-05
-2.44784e-05
-2.55984e-05
-2.05347e-05
-1.97963e-05
-1.96674e-05
-2.0132e-05
-2.12164e-05
-2.29503e-05
-2.54973e-05
-2.91149e-05
-3.42684e-05
-4.12153e-05
-5.0377e-05
-6.05788e-05
-7.17738e-05
-8.12569e-05
-8.89704e-05
-9.42369e-05
-9.75344e-05
-9.91325e-05
-9.92601e-05
-9.79175e-05
-9.48772e-05
-8.98689e-05
-8.24175e-05
-7.31817e-05
-6.2228e-05
-5.2196e-05
-4.3174e-05
-3.63364e-05
-3.13175e-05
-2.79208e-05
-2.57949e-05
-2.48363e-05
-2.49402e-05
-2.61058e-05
-2.07637e-05
-2.00099e-05
-1.98775e-05
-2.03494e-05
-2.145e-05
-2.32061e-05
-2.57779e-05
-2.94236e-05
-3.46081e-05
-4.16065e-05
-5.08402e-05
-6.11724e-05
-7.25132e-05
-8.21162e-05
-8.99236e-05
-9.52521e-05
-9.85899e-05
-0.000100209
-0.000100343
-9.89897e-05
-9.59189e-05
-9.08566e-05
-8.33172e-05
-7.3965e-05
-6.2867e-05
-5.27049e-05
-4.36128e-05
-3.67263e-05
-3.16807e-05
-2.82626e-05
-2.61233e-05
-2.51615e-05
-2.52764e-05
-2.64697e-05
-2.09051e-05
-2.01461e-05
-2.00139e-05
-2.04913e-05
-2.16032e-05
-2.33765e-05
-2.59729e-05
-2.96531e-05
-3.48857e-05
-4.19498e-05
-5.12669e-05
-6.16973e-05
-7.31386e-05
-8.28325e-05
-9.07156e-05
-9.61025e-05
-9.9481e-05
-0.000101124
-0.000101264
-9.98991e-05
-9.67984e-05
-9.16863e-05
-8.40766e-05
-7.46359e-05
-6.3437e-05
-5.31748e-05
-4.39981e-05
-3.70457e-05
-3.19533e-05
-2.85033e-05
-2.63442e-05
-2.53731e-05
-2.54883e-05
-2.66912e-05
-2.09585e-05
-2.02045e-05
-2.00763e-05
-2.05577e-05
-2.16757e-05
-2.34609e-05
-2.60808e-05
-2.98011e-05
-3.50981e-05
-4.22433e-05
-5.16593e-05
-6.2163e-05
-7.36623e-05
-8.34192e-05
-9.13593e-05
-9.68003e-05
-0.00010022
-0.000101888
-0.000102035
-0.000100659
-9.75301e-05
-9.23736e-05
-8.47126e-05
-7.52105e-05
-6.39503e-05
-5.36094e-05
-4.43295e-05
-3.72927e-05
-3.2134e-05
-2.86424e-05
-2.6458e-05
-2.5472e-05
-2.5577e-05
-2.67711e-05
-2.09272e-05
-2.01881e-05
-2.00661e-05
-2.05475e-05
-2.16631e-05
-2.34499e-05
-2.60857e-05
-2.98454e-05
-3.52222e-05
-4.24701e-05
-5.20247e-05
-6.25681e-05
-7.40543e-05
-8.38239e-05
-9.17853e-05
-9.72663e-05
-0.00010072
-0.000102415
-0.000102571
-0.000101187
-9.80386e-05
-9.28547e-05
-8.51793e-05
-7.56657e-05
-6.44117e-05
-5.40199e-05
-4.45924e-05
-3.74466e-05
-3.22033e-05
-2.8667e-05
-2.64583e-05
-2.54566e-05
-2.55439e-05
-2.6712e-05
-2.08146e-05
-2.00992e-05
-1.99834e-05
-2.04562e-05
-2.15521e-05
-2.33163e-05
-2.59403e-05
-2.97155e-05
-3.51718e-05
-4.25512e-05
-5.23597e-05
-6.2864e-05
-7.41754e-05
-8.38254e-05
-9.17074e-05
-9.71748e-05
-0.000100635
-0.000102345
-0.000102513
-0.000101138
-9.80048e-05
-9.28532e-05
-8.52679e-05
-7.58763e-05
-6.47836e-05
-5.44075e-05
-4.47121e-05
-3.74254e-05
-3.20951e-05
-2.85344e-05
-2.6323e-05
-2.53187e-05
-2.53882e-05
-2.65155e-05
-2.06295e-05
-1.99459e-05
-1.9835e-05
-2.02877e-05
-2.1341e-05
-2.3046e-05
-2.56079e-05
-2.93395e-05
-3.4833e-05
-4.2318e-05
-5.27377e-05
-6.30541e-05
-7.37838e-05
-8.30406e-05
-9.06444e-05
-9.59789e-05
-9.9378e-05
-0.000101078
-0.000101264
-9.99323e-05
-9.68939e-05
-9.19068e-05
-8.46197e-05
-7.56292e-05
-6.50939e-05
-5.4853e-05
-4.45293e-05
-3.71245e-05
-3.1746e-05
-2.82159e-05
-2.60454e-05
-2.50639e-05
-2.5121e-05
-2.6193e-05
-2.03829e-05
-1.97361e-05
-1.96244e-05
-2.00376e-05
-2.10079e-05
-2.25812e-05
-2.49585e-05
-2.84643e-05
-3.37544e-05
-4.10244e-05
-5.31272e-05
-6.30399e-05
-7.24532e-05
-8.0707e-05
-8.75877e-05
-9.25336e-05
-9.57303e-05
-9.73646e-05
-9.75749e-05
-9.63618e-05
-9.35785e-05
-8.90347e-05
-8.25089e-05
-7.45431e-05
-6.52919e-05
-5.53208e-05
-4.33134e-05
-3.61094e-05
-3.09166e-05
-2.75916e-05
-2.55765e-05
-2.46791e-05
-2.47472e-05
-2.57574e-05
-2.00948e-05
-1.94902e-05
-1.93772e-05
-1.97428e-05
-2.0609e-05
-2.20032e-05
-2.40925e-05
-2.71951e-05
-3.22448e-05
-3.98314e-05
-5.58988e-05
-6.19383e-05
-7.00416e-05
-7.6948e-05
-8.2761e-05
-8.71298e-05
-9.0025e-05
-9.15513e-05
-9.1797e-05
-9.07672e-05
-8.83674e-05
-8.44945e-05
-7.91066e-05
-7.25303e-05
-6.44491e-05
-5.80799e-05
-4.22956e-05
-3.47314e-05
-2.97355e-05
-2.67763e-05
-2.50069e-05
-2.42296e-05
-2.43156e-05
-2.52524e-05
-1.97823e-05
-1.92193e-05
-1.90986e-05
-1.93995e-05
-2.01188e-05
-2.12227e-05
-2.26927e-05
-2.43663e-05
-2.58481e-05
-2.24911e-05
-7.13876e-05
-6.77888e-05
-7.13168e-05
-7.53425e-05
-7.87868e-05
-8.12235e-05
-8.25932e-05
-8.28837e-05
-8.21084e-05
-8.02781e-05
-7.747e-05
-7.39886e-05
-7.09687e-05
-7.46564e-05
-2.51063e-05
-2.8536e-05
-2.70441e-05
-2.54576e-05
-2.42496e-05
-2.36936e-05
-2.38323e-05
-2.47031e-05
-1.94744e-05
-1.89545e-05
-1.88382e-05
-1.91055e-05
-1.97541e-05
-2.07632e-05
-2.21805e-05
-2.41128e-05
-2.7052e-05
-3.18566e-05
-3.56208e-05
-5.24461e-05
-5.87211e-05
-6.44424e-05
-6.88562e-05
-7.23975e-05
-7.48142e-05
-7.61993e-05
-7.65394e-05
-7.58614e-05
-7.41893e-05
-7.14714e-05
-6.77595e-05
-6.27205e-05
-5.64325e-05
-4.01651e-05
-3.55207e-05
-3.02736e-05
-2.70523e-05
-2.50635e-05
-2.382e-05
-2.32794e-05
-2.33976e-05
-2.41901e-05
-1.9186e-05
-1.87055e-05
-1.85957e-05
-1.88381e-05
-1.94322e-05
-2.03672e-05
-2.17008e-05
-2.35821e-05
-2.62928e-05
-3.03063e-05
-3.68138e-05
-4.67988e-05
-5.29415e-05
-5.85555e-05
-6.29382e-05
-6.64462e-05
-6.88117e-05
-7.0178e-05
-7.05556e-05
-6.99861e-05
-6.84752e-05
-6.59433e-05
-6.23479e-05
-5.75142e-05
-5.1346e-05
-4.1366e-05
-3.41611e-05
-2.97089e-05
-2.66638e-05
-2.4658e-05
-2.34343e-05
-2.29003e-05
-2.29947e-05
-2.37198e-05
-1.8937e-05
-1.84942e-05
-1.83984e-05
-1.86329e-05
-1.92009e-05
-2.01004e-05
-2.13928e-05
-2.32235e-05
-2.58495e-05
-2.96412e-05
-3.49963e-05
-4.21116e-05
-4.80837e-05
-5.37433e-05
-5.82128e-05
-6.18042e-05
-6.41925e-05
-6.55625e-05
-6.59625e-05
-6.54458e-05
-6.39879e-05
-6.14892e-05
-5.78574e-05
-5.30546e-05
-4.70305e-05
-3.97765e-05
-3.37569e-05
-2.94197e-05
-2.63948e-05
-2.43901e-05
-2.3161e-05
-2.26088e-05
-2.26654e-05
-2.33251e-05
-1.87394e-05
-1.83336e-05
-1.82572e-05
-1.84925e-05
-1.9043e-05
-1.99089e-05
-2.11436e-05
-2.28695e-05
-2.52762e-05
-2.86361e-05
-3.30651e-05
-3.86135e-05
-4.39638e-05
-4.9231e-05
-5.349e-05
-5.68946e-05
-5.91578e-05
-6.0457e-05
-6.08518e-05
-6.03952e-05
-5.9052e-05
-5.67321e-05
-5.33195e-05
-4.88947e-05
-4.34888e-05
-3.7748e-05
-3.27108e-05
-2.88261e-05
-2.60341e-05
-2.41325e-05
-2.29436e-05
-2.23892e-05
-2.24127e-05
-2.30123e-05
-1.86058e-05
-1.82455e-05
-1.8201e-05
-1.84518e-05
-1.89992e-05
-1.98423e-05
-2.10217e-05
-2.2627e-05
-2.47832e-05
-2.76543e-05
-3.12921e-05
-3.5707e-05
-4.02459e-05
-4.48195e-05
-4.85982e-05
-5.16048e-05
-5.36336e-05
-5.481e-05
-5.51798e-05
-5.47845e-05
-5.35946e-05
-5.15494e-05
-4.85622e-05
-4.47393e-05
-4.01766e-05
-3.55786e-05
-3.1468e-05
-2.81831e-05
-2.57197e-05
-2.39761e-05
-2.2847e-05
-2.229e-05
-2.22704e-05
-2.27991e-05
-1.8545e-05
-1.82546e-05
-1.82649e-05
-1.85529e-05
-1.9119e-05
-1.99633e-05
-2.11171e-05
-2.26434e-05
-2.46204e-05
-2.71409e-05
-3.02178e-05
-3.38442e-05
-3.76633e-05
-4.15288e-05
-4.47909e-05
-4.73986e-05
-4.91993e-05
-5.02599e-05
-5.06039e-05
-5.02583e-05
-4.9205e-05
-4.74156e-05
-4.48477e-05
-4.16111e-05
-3.78247e-05
-3.40764e-05
-3.06795e-05
-2.78697e-05
-2.56744e-05
-2.40553e-05
-2.29602e-05
-2.23733e-05
-2.22787e-05
-2.26995e-05
-1.85549e-05
-1.83741e-05
-1.84636e-05
-1.88121e-05
-1.94238e-05
-2.03054e-05
-2.14862e-05
-2.30142e-05
-2.49405e-05
-2.73144e-05
-3.01243e-05
-3.33336e-05
-3.67068e-05
-4.00796e-05
-4.29954e-05
-4.53537e-05
-4.70252e-05
-4.80245e-05
-4.83538e-05
-4.80272e-05
-4.70383e-05
-4.5386e-05
-4.30726e-05
-4.02117e-05
-3.69421e-05
-3.36902e-05
-3.06877e-05
-2.81222e-05
-2.60452e-05
-2.44573e-05
-2.33362e-05
-2.26747e-05
-2.24633e-05
-2.27127e-05
-1.86261e-05
-1.86402e-05
-1.88594e-05
-1.9301e-05
-1.99906e-05
-2.09544e-05
-2.22295e-05
-2.38625e-05
-2.58992e-05
-2.83744e-05
-3.1271e-05
-3.45278e-05
-3.79385e-05
-4.1313e-05
-4.42773e-05
-4.66913e-05
-4.84292e-05
-4.9472e-05
-4.98112e-05
-4.94535e-05
-4.84005e-05
-4.66654e-05
-4.42806e-05
-4.13688e-05
-3.80969e-05
-3.48268e-05
-3.17896e-05
-2.91589e-05
-2.69993e-05
-2.53192e-05
-2.40947e-05
-2.32958e-05
-2.28832e-05
-2.28263e-05
-1.44452e-05
-1.44707e-05
-1.45275e-05
-1.46211e-05
-1.47566e-05
-1.49357e-05
-1.51585e-05
-1.54246e-05
-1.57305e-05
-1.60724e-05
-1.64366e-05
-1.68122e-05
-1.71736e-05
-1.75079e-05
-1.7797e-05
-1.80327e-05
-1.82067e-05
-1.83153e-05
-1.83564e-05
-1.83302e-05
-1.82395e-05
-1.80881e-05
-1.78849e-05
-1.76384e-05
-1.73668e-05
-1.70828e-05
-1.6812e-05
-1.65647e-05
-1.63544e-05
-1.61842e-05
-1.60558e-05
-1.59661e-05
-1.59081e-05
-1.58721e-05
-1.44226e-05
-1.4381e-05
-1.43956e-05
-1.44587e-05
-1.45696e-05
-1.47251e-05
-1.49228e-05
-1.51614e-05
-1.54356e-05
-1.57431e-05
-1.60654e-05
-1.63975e-05
-1.67101e-05
-1.69994e-05
-1.72464e-05
-1.74484e-05
-1.75979e-05
-1.76935e-05
-1.77338e-05
-1.77188e-05
-1.76509e-05
-1.75315e-05
-1.73686e-05
-1.71652e-05
-1.69406e-05
-1.66979e-05
-1.64668e-05
-1.62518e-05
-1.60719e-05
-1.593e-05
-1.58334e-05
-1.57855e-05
-1.57859e-05
-1.58397e-05
-1.44964e-05
-1.44255e-05
-1.44195e-05
-1.44674e-05
-1.45735e-05
-1.47324e-05
-1.49405e-05
-1.51987e-05
-1.55013e-05
-1.5853e-05
-1.62246e-05
-1.66235e-05
-1.69856e-05
-1.732e-05
-1.75962e-05
-1.78199e-05
-1.79816e-05
-1.80833e-05
-1.81235e-05
-1.81024e-05
-1.80221e-05
-1.78811e-05
-1.76893e-05
-1.74413e-05
-1.7168e-05
-1.68596e-05
-1.65814e-05
-1.63246e-05
-1.61203e-05
-1.5966e-05
-1.58722e-05
-1.58429e-05
-1.58688e-05
-1.59591e-05
-1.46606e-05
-1.45708e-05
-1.4555e-05
-1.46029e-05
-1.47211e-05
-1.49046e-05
-1.51506e-05
-1.54657e-05
-1.58466e-05
-1.63138e-05
-1.68189e-05
-1.73943e-05
-1.78949e-05
-1.83537e-05
-1.87173e-05
-1.90075e-05
-1.92104e-05
-1.93334e-05
-1.93741e-05
-1.9333e-05
-1.92128e-05
-1.90067e-05
-1.87293e-05
-1.83589e-05
-1.79503e-05
-1.7469e-05
-1.70629e-05
-1.66966e-05
-1.64217e-05
-1.62207e-05
-1.61041e-05
-1.60712e-05
-1.61069e-05
-1.62178e-05
-1.49192e-05
-1.48098e-05
-1.47921e-05
-1.48528e-05
-1.49985e-05
-1.5225e-05
-1.55325e-05
-1.59381e-05
-1.64455e-05
-1.7108e-05
-1.78463e-05
-1.87498e-05
-1.9492e-05
-2.01633e-05
-2.06711e-05
-2.10715e-05
-2.13429e-05
-2.15014e-05
-2.15435e-05
-2.14694e-05
-2.12834e-05
-2.09697e-05
-2.05513e-05
-1.99717e-05
-1.93266e-05
-1.85225e-05
-1.78927e-05
-1.73396e-05
-1.69487e-05
-1.66695e-05
-1.65075e-05
-1.64534e-05
-1.64894e-05
-1.66226e-05
-1.52667e-05
-1.51326e-05
-1.51174e-05
-1.52008e-05
-1.53874e-05
-1.56732e-05
-1.60624e-05
-1.65871e-05
-1.72651e-05
-1.82148e-05
-1.93186e-05
-2.08036e-05
-2.19265e-05
-2.29256e-05
-2.36446e-05
-2.42096e-05
-2.45831e-05
-2.47956e-05
-2.48398e-05
-2.47159e-05
-2.4432e-05
-2.39575e-05
-2.33319e-05
-2.24284e-05
-2.14086e-05
-2.00291e-05
-1.90482e-05
-1.82187e-05
-1.76701e-05
-1.72856e-05
-1.70602e-05
-1.69727e-05
-1.70044e-05
-1.71688e-05
-1.56962e-05
-1.55304e-05
-1.55204e-05
-1.56354e-05
-1.58757e-05
-1.6236e-05
-1.67239e-05
-1.73897e-05
-1.82736e-05
-1.96244e-05
-2.12787e-05
-2.38263e-05
-2.55122e-05
-2.69703e-05
-2.79642e-05
-2.87493e-05
-2.92586e-05
-2.9545e-05
-2.95926e-05
-2.94012e-05
-2.89874e-05
-2.8298e-05
-2.74022e-05
-2.60431e-05
-2.44668e-05
-2.20286e-05
-2.05212e-05
-1.93032e-05
-1.85629e-05
-1.80518e-05
-1.77482e-05
-1.76174e-05
-1.76431e-05
-1.78511e-05
-1.61996e-05
-1.59946e-05
-1.59938e-05
-1.61527e-05
-1.64655e-05
-1.69218e-05
-1.75288e-05
-1.83411e-05
-1.94197e-05
-2.11433e-05
-2.35489e-05
-2.80741e-05
-3.04532e-05
-3.25084e-05
-3.38649e-05
-3.49538e-05
-3.56566e-05
-3.60501e-05
-3.61027e-05
-3.58139e-05
-3.52157e-05
-3.42297e-05
-3.29767e-05
-3.1022e-05
-2.87551e-05
-2.43339e-05
-2.21214e-05
-2.05414e-05
-1.96206e-05
-1.89771e-05
-1.85767e-05
-1.83867e-05
-1.84004e-05
-1.86653e-05
-1.67653e-05
-1.65118e-05
-1.65235e-05
-1.67386e-05
-1.71436e-05
-1.77186e-05
-1.84627e-05
-1.94056e-05
-2.0541e-05
-2.25588e-05
-2.53099e-05
-3.4491e-05
-3.71595e-05
-3.96217e-05
-4.12865e-05
-4.26438e-05
-4.35341e-05
-4.404e-05
-4.40999e-05
-4.37129e-05
-4.29403e-05
-4.16961e-05
-4.0141e-05
-3.77755e-05
-3.52208e-05
-2.6095e-05
-2.36657e-05
-2.1784e-05
-2.08138e-05
-2.00481e-05
-1.95309e-05
-1.92627e-05
-1.92592e-05
-1.95998e-05
-1.73809e-05
-1.70725e-05
-1.71073e-05
-1.74058e-05
-1.79523e-05
-1.87235e-05
-1.9723e-05
-2.08358e-05
-2.20272e-05
-2.42924e-05
-1.95002e-05
-4.0571e-05
-4.34849e-05
-4.66337e-05
-4.88382e-05
-5.06418e-05
-5.18364e-05
-5.25018e-05
-5.25707e-05
-5.20422e-05
-5.09832e-05
-4.93083e-05
-4.72237e-05
-4.41702e-05
-4.13876e-05
-2.00749e-05
-2.55255e-05
-2.33856e-05
-2.23771e-05
-2.14491e-05
-2.06953e-05
-2.02747e-05
-2.02187e-05
-2.06453e-05
-1.80229e-05
-1.76504e-05
-1.77084e-05
-1.80979e-05
-1.88018e-05
-1.98016e-05
-2.11119e-05
-2.25688e-05
-2.34458e-05
-1.80574e-05
-5.90388e-05
-5.21476e-05
-5.34617e-05
-5.57877e-05
-5.76261e-05
-5.89543e-05
-5.96812e-05
-5.9761e-05
-5.91929e-05
-5.80215e-05
-5.63325e-05
-5.41448e-05
-5.29124e-05
-5.96753e-05
-1.99541e-05
-2.51158e-05
-2.42941e-05
-2.29935e-05
-2.19341e-05
-2.13261e-05
-2.12141e-05
-2.17549e-05
-1.86725e-05
-1.82359e-05
-1.83342e-05
-1.88559e-05
-1.98101e-05
-2.12517e-05
-2.33934e-05
-2.64921e-05
-3.16443e-05
-3.78696e-05
-5.52792e-05
-5.12981e-05
-5.50864e-05
-5.9368e-05
-6.31909e-05
-6.59581e-05
-6.77936e-05
-6.87231e-05
-6.88142e-05
-6.80671e-05
-6.64154e-05
-6.38326e-05
-6.02022e-05
-5.61204e-05
-5.255e-05
-5.70408e-05
-3.9475e-05
-3.33639e-05
-2.83274e-05
-2.53963e-05
-2.35201e-05
-2.25109e-05
-2.22541e-05
-2.29022e-05
-1.92945e-05
-1.87921e-05
-1.89141e-05
-1.95297e-05
-2.06495e-05
-2.23419e-05
-2.48477e-05
-2.83851e-05
-3.37149e-05
-3.99265e-05
-5.02536e-05
-5.4162e-05
-5.91333e-05
-6.37345e-05
-6.8123e-05
-7.12831e-05
-7.33964e-05
-7.44581e-05
-7.45584e-05
-7.36969e-05
-7.17862e-05
-6.88291e-05
-6.46504e-05
-6.02504e-05
-5.54866e-05
-5.18641e-05
-4.16474e-05
-3.55454e-05
-3.03384e-05
-2.69762e-05
-2.4752e-05
-2.35363e-05
-2.32181e-05
-2.39862e-05
-1.98697e-05
-1.93105e-05
-1.9455e-05
-2.01558e-05
-2.14228e-05
-2.33332e-05
-2.6134e-05
-3.00316e-05
-3.56211e-05
-4.22745e-05
-5.09555e-05
-5.69289e-05
-6.27844e-05
-6.80579e-05
-7.30988e-05
-7.66579e-05
-7.90471e-05
-8.02346e-05
-8.03431e-05
-7.93726e-05
-7.72031e-05
-7.3864e-05
-6.90507e-05
-6.39889e-05
-5.83487e-05
-5.25915e-05
-4.40663e-05
-3.754e-05
-3.20891e-05
-2.83791e-05
-2.58805e-05
-2.44903e-05
-2.41157e-05
-2.49784e-05
-2.0375e-05
-1.9766e-05
-1.99208e-05
-2.0675e-05
-2.20301e-05
-2.40583e-05
-2.69903e-05
-3.10212e-05
-3.66463e-05
-4.34397e-05
-5.18545e-05
-5.86206e-05
-6.51318e-05
-7.07859e-05
-7.61523e-05
-7.99107e-05
-8.24413e-05
-8.3693e-05
-8.3808e-05
-8.27861e-05
-8.04877e-05
-7.69606e-05
-7.18324e-05
-6.63961e-05
-6.01132e-05
-5.35415e-05
-4.53002e-05
-3.86469e-05
-3.31735e-05
-2.93438e-05
-2.67355e-05
-2.52681e-05
-2.48808e-05
-2.58278e-05
-2.07994e-05
-2.0152e-05
-2.03132e-05
-2.11051e-05
-2.25216e-05
-2.46293e-05
-2.76464e-05
-3.17647e-05
-3.74276e-05
-4.43158e-05
-5.27081e-05
-5.98937e-05
-6.67728e-05
-7.26924e-05
-7.82796e-05
-8.21653e-05
-8.47832e-05
-8.60753e-05
-8.61962e-05
-8.51456e-05
-8.2771e-05
-7.91264e-05
-7.37861e-05
-6.80897e-05
-6.14443e-05
-5.445e-05
-4.62414e-05
-3.9501e-05
-3.40004e-05
-3.00959e-05
-2.74222e-05
-2.59089e-05
-2.55177e-05
-2.65269e-05
-2.11338e-05
-2.04589e-05
-2.06226e-05
-2.14373e-05
-2.28909e-05
-2.50454e-05
-2.81111e-05
-3.22816e-05
-3.79793e-05
-4.49503e-05
-5.33991e-05
-6.08203e-05
-6.79228e-05
-7.40052e-05
-7.97263e-05
-8.36923e-05
-8.6366e-05
-8.76853e-05
-8.78119e-05
-8.67452e-05
-8.43251e-05
-8.06089e-05
-7.51418e-05
-6.92871e-05
-6.24227e-05
-5.51933e-05
-4.69343e-05
-4.01165e-05
-3.45889e-05
-3.06424e-05
-2.79355e-05
-2.64005e-05
-2.6013e-05
-2.70669e-05
-2.13748e-05
-2.06842e-05
-2.08501e-05
-2.16795e-05
-2.31573e-05
-2.53437e-05
-2.84459e-05
-3.26605e-05
-3.84037e-05
-4.54513e-05
-5.39798e-05
-6.15508e-05
-6.87997e-05
-7.50002e-05
-8.08203e-05
-8.4853e-05
-8.75729e-05
-8.89166e-05
-8.90492e-05
-8.79696e-05
-8.55137e-05
-8.17396e-05
-7.618e-05
-7.02113e-05
-6.32031e-05
-5.58242e-05
-4.7488e-05
-4.05962e-05
-3.50274e-05
-3.1043e-05
-2.83095e-05
-2.67586e-05
-2.63716e-05
-2.74504e-05
-2.15204e-05
-2.08259e-05
-2.09944e-05
-2.18319e-05
-2.33235e-05
-2.553e-05
-2.86602e-05
-3.29136e-05
-3.87095e-05
-4.58279e-05
-5.44428e-05
-6.2113e-05
-6.94572e-05
-7.57444e-05
-8.16374e-05
-8.57273e-05
-8.84875e-05
-8.98549e-05
-8.9994e-05
-8.89036e-05
-8.64187e-05
-8.25966e-05
-7.69702e-05
-7.09183e-05
-6.38152e-05
-5.63355e-05
-4.7912e-05
-4.09488e-05
-3.53284e-05
-3.13073e-05
-2.85496e-05
-2.69848e-05
-2.65937e-05
-2.76789e-05
-2.15701e-05
-2.08839e-05
-2.10555e-05
-2.18947e-05
-2.33895e-05
-2.56038e-05
-2.87527e-05
-3.30387e-05
-3.88938e-05
-4.60798e-05
-5.47922e-05
-6.25208e-05
-6.99122e-05
-7.62559e-05
-8.21955e-05
-8.63329e-05
-8.91272e-05
-9.05175e-05
-9.06643e-05
-8.95659e-05
-8.70599e-05
-8.32012e-05
-7.75345e-05
-7.14287e-05
-6.42763e-05
-5.67327e-05
-4.82076e-05
-4.11732e-05
-3.5491e-05
-3.14352e-05
-2.86565e-05
-2.70803e-05
-2.66803e-05
-2.77534e-05
-2.15274e-05
-2.08612e-05
-2.10356e-05
-2.18684e-05
-2.33531e-05
-2.55592e-05
-2.87122e-05
-3.30195e-05
-3.89415e-05
-4.61931e-05
-5.50388e-05
-6.27744e-05
-7.01432e-05
-7.65036e-05
-8.24548e-05
-8.66268e-05
-8.94465e-05
-9.08585e-05
-9.10148e-05
-8.99136e-05
-8.73986e-05
-8.35192e-05
-7.78483e-05
-7.17287e-05
-6.45931e-05
-5.7031e-05
-4.8364e-05
-4.12567e-05
-3.55019e-05
-3.14187e-05
-2.86274e-05
-2.70462e-05
-2.66345e-05
-2.7676e-05
-2.13958e-05
-2.07604e-05
-2.0934e-05
-2.17456e-05
-2.31958e-05
-2.53593e-05
-2.84761e-05
-3.27625e-05
-3.87404e-05
-4.60545e-05
-5.51425e-05
-6.27928e-05
-7.00113e-05
-7.62926e-05
-8.21657e-05
-8.63262e-05
-8.91416e-05
-9.05651e-05
-9.0734e-05
-8.96463e-05
-8.7158e-05
-8.331e-05
-7.77276e-05
-7.16923e-05
-6.46953e-05
-5.71938e-05
-4.82709e-05
-4.10908e-05
-3.5272e-05
-3.12002e-05
-2.84314e-05
-2.687e-05
-2.64542e-05
-2.74474e-05
-2.1185e-05
-2.0592e-05
-2.07622e-05
-2.1539e-05
-2.29299e-05
-2.50138e-05
-2.80457e-05
-3.22547e-05
-3.82687e-05
-4.55672e-05
-5.51809e-05
-6.25904e-05
-6.9367e-05
-7.54719e-05
-8.11723e-05
-8.52643e-05
-8.80334e-05
-8.94542e-05
-8.96404e-05
-8.85909e-05
-8.61815e-05
-8.24346e-05
-7.70433e-05
-7.11972e-05
-6.46212e-05
-5.73053e-05
-4.78375e-05
-4.06623e-05
-3.47971e-05
-3.07898e-05
-2.80866e-05
-2.65727e-05
-2.61586e-05
-2.70809e-05
-2.09062e-05
-2.03627e-05
-2.05183e-05
-2.1231e-05
-2.25066e-05
-2.44124e-05
-2.71923e-05
-3.10793e-05
-3.68437e-05
-4.37447e-05
-5.52274e-05
-6.19172e-05
-6.79141e-05
-7.352e-05
-7.87109e-05
-8.2544e-05
-8.51453e-05
-8.65144e-05
-8.67249e-05
-8.57779e-05
-8.35846e-05
-8.01498e-05
-7.53003e-05
-6.99864e-05
-6.41658e-05
-5.74147e-05
-4.60795e-05
-3.92973e-05
-3.36713e-05
-2.99688e-05
-2.74926e-05
-2.61173e-05
-2.57447e-05
-2.65865e-05
-2.05829e-05
-2.00987e-05
-2.02427e-05
-2.08902e-05
-2.2046e-05
-2.37628e-05
-2.62549e-05
-2.97606e-05
-3.54017e-05
-4.25304e-05
-5.92441e-05
-6.04532e-05
-6.60916e-05
-7.17908e-05
-7.66837e-05
-8.0349e-05
-8.28337e-05
-8.41741e-05
-8.44167e-05
-8.35684e-05
-8.15633e-05
-7.83855e-05
-7.38917e-05
-6.85505e-05
-6.29731e-05
-6.13356e-05
-4.50041e-05
-3.79715e-05
-3.24437e-05
-2.90926e-05
-2.68674e-05
-2.5631e-05
-2.52875e-05
-2.60201e-05
-2.02322e-05
-1.98052e-05
-1.99221e-05
-2.04688e-05
-2.14248e-05
-2.27682e-05
-2.45055e-05
-2.63931e-05
-2.73656e-05
-2.0055e-05
-7.62228e-05
-6.72275e-05
-6.93521e-05
-7.28305e-05
-7.5763e-05
-7.78998e-05
-7.91508e-05
-7.94311e-05
-7.87557e-05
-7.71853e-05
-7.48649e-05
-7.18648e-05
-7.02581e-05
-7.93318e-05
-2.26617e-05
-3.01668e-05
-2.92293e-05
-2.74386e-05
-2.5917e-05
-2.4999e-05
-2.47621e-05
-2.54008e-05
-1.98884e-05
-1.95206e-05
-1.96334e-05
-2.01345e-05
-2.10151e-05
-2.22767e-05
-2.39869e-05
-2.61392e-05
-2.90858e-05
-3.37908e-05
-3.49908e-05
-5.50307e-05
-6.01262e-05
-6.54327e-05
-6.94876e-05
-7.29295e-05
-7.5266e-05
-7.66446e-05
-7.69692e-05
-7.62669e-05
-7.46055e-05
-7.19281e-05
-6.83963e-05
-6.37174e-05
-5.86991e-05
-3.96069e-05
-3.74977e-05
-3.24688e-05
-2.92576e-05
-2.7053e-05
-2.54687e-05
-2.45571e-05
-2.42987e-05
-2.48285e-05
-1.95654e-05
-1.92474e-05
-1.9353e-05
-1.98068e-05
-2.06053e-05
-2.17608e-05
-2.33462e-05
-2.54887e-05
-2.83988e-05
-3.2637e-05
-3.93615e-05
-5.05491e-05
-5.55293e-05
-6.02927e-05
-6.40027e-05
-6.72686e-05
-6.94844e-05
-7.08205e-05
-7.11715e-05
-7.05771e-05
-6.90858e-05
-6.66491e-05
-6.33454e-05
-5.91202e-05
-5.43327e-05
-4.36937e-05
-3.64716e-05
-3.19485e-05
-2.87416e-05
-2.64866e-05
-2.49671e-05
-2.4101e-05
-2.38466e-05
-2.42992e-05
-1.92852e-05
-1.90135e-05
-1.91234e-05
-1.9555e-05
-2.0314e-05
-2.14253e-05
-2.29706e-05
-2.5096e-05
-2.80306e-05
-3.21449e-05
-3.77352e-05
-4.50769e-05
-5.00068e-05
-5.44801e-05
-5.80769e-05
-6.13357e-05
-6.35212e-05
-6.48344e-05
-6.51981e-05
-6.46598e-05
-6.32215e-05
-6.08404e-05
-5.75506e-05
-5.34865e-05
-4.88723e-05
-4.20932e-05
-3.61537e-05
-3.17048e-05
-2.84351e-05
-2.61525e-05
-2.46289e-05
-2.37572e-05
-2.34772e-05
-2.38553e-05
-1.90578e-05
-1.88269e-05
-1.89439e-05
-1.93591e-05
-2.00809e-05
-2.11364e-05
-2.25985e-05
-2.45979e-05
-2.73006e-05
-3.09927e-05
-3.55723e-05
-4.11734e-05
-4.56393e-05
-4.97385e-05
-5.31629e-05
-5.62291e-05
-5.82923e-05
-5.95325e-05
-5.98938e-05
-5.94242e-05
-5.81052e-05
-5.59192e-05
-5.28336e-05
-4.9138e-05
-4.49663e-05
-3.98395e-05
-3.49588e-05
-3.09486e-05
-2.79276e-05
-2.57699e-05
-2.43148e-05
-2.34684e-05
-2.31771e-05
-2.34945e-05
-1.88933e-05
-1.8704e-05
-1.88384e-05
-1.92503e-05
-1.99485e-05
-2.09575e-05
-2.23355e-05
-2.41805e-05
-2.65989e-05
-2.97526e-05
-3.3544e-05
-3.80236e-05
-4.20828e-05
-4.60096e-05
-4.9294e-05
-5.21226e-05
-5.40558e-05
-5.52181e-05
-5.55713e-05
-5.5155e-05
-5.3948e-05
-5.19502e-05
-4.91214e-05
-4.57244e-05
-4.18351e-05
-3.76013e-05
-3.35405e-05
-3.01193e-05
-2.74409e-05
-2.54682e-05
-2.41038e-05
-2.32856e-05
-2.29767e-05
-2.3232e-05
-1.87955e-05
-1.86563e-05
-1.88225e-05
-1.92462e-05
-1.99361e-05
-2.0915e-05
-2.22288e-05
-2.39478e-05
-2.61369e-05
-2.88855e-05
-3.21152e-05
-3.58345e-05
-3.94708e-05
-4.3077e-05
-4.61203e-05
-4.86783e-05
-5.04624e-05
-5.154e-05
-5.18811e-05
-5.15133e-05
-5.04216e-05
-4.86187e-05
-4.60858e-05
-4.3031e-05
-3.95149e-05
-3.59061e-05
-3.24681e-05
-2.95173e-05
-2.71372e-05
-2.53299e-05
-2.40424e-05
-2.32375e-05
-2.28931e-05
-2.3073e-05
-1.87558e-05
-1.86861e-05
-1.88925e-05
-1.9341e-05
-2.00414e-05
-2.10181e-05
-2.23105e-05
-2.39714e-05
-2.60446e-05
-2.85746e-05
-3.15034e-05
-3.47917e-05
-3.8125e-05
-4.14195e-05
-4.42703e-05
-4.66385e-05
-4.83281e-05
-4.93522e-05
-4.96842e-05
-4.93393e-05
-4.83122e-05