/*--------------------------------*- C++ -*----------------------------------*\
| =========                 |                                                 |
| \\      /  F ield         | OpenFOAM: The Open Source CFD Toolbox           |
|  \\    /   O peration     | Version:  2112                                  |
|   \\  /    A nd           | Website:  www.openfoam.com                      |
|    \\/     M anipulation  |                                                 |
\*---------------------------------------------------------------------------*/
FoamFile
{
    version     2.0;
    format      ascii;
    arch        "LSB;label=32;scalar=64";
    class       surfaceScalarField;
    location    "0.8";
    object      phi;
}
// * * * * * * * * * * * * * * * * * * * * * * * * * * * * * * * * * * * * * //

dimensions      [0 3 -1 0 0 0 0];

oriented        oriented;

internalField   nonuniform List<scalar> 
188215
(
1.28498e-09
3.03483e-09
-4.31981e-09
3.21023e-09
2.73226e-09
-4.65752e-09
5.22848e-09
2.5756e-09
-4.59385e-09
7.19045e-09
2.65005e-09
-4.61202e-09
9.06639e-09
2.91738e-09
-4.79332e-09
1.08465e-08
3.33068e-09
-5.1108e-09
1.25132e-08
3.87345e-09
-5.54014e-09
1.40131e-08
4.56409e-09
-6.06395e-09
1.52755e-08
5.41043e-09
-6.67287e-09
1.61324e-08
6.48465e-09
-7.34159e-09
1.64748e-08
7.71492e-09
-8.05723e-09
1.60306e-08
9.21997e-09
-8.77586e-09
1.48752e-08
1.0623e-08
-9.46751e-09
1.30165e-08
1.1944e-08
-1.00853e-08
1.0594e-08
1.30369e-08
-1.06144e-08
7.71847e-09
1.39049e-08
-1.10293e-08
4.54318e-09
1.44964e-08
-1.13212e-08
1.21875e-09
1.48044e-08
-1.148e-08
-2.09487e-09
1.48163e-08
-1.15027e-08
-5.23795e-09
1.45323e-08
-1.13893e-08
-8.06013e-09
1.39655e-08
-1.11433e-08
-1.04084e-08
1.31232e-08
-1.07749e-08
-1.21738e-08
1.20588e-08
-1.02934e-08
-1.32183e-08
1.07695e-08
-9.72504e-09
-1.35385e-08
9.40527e-09
-9.08507e-09
-1.30607e-08
7.94459e-09
-8.4224e-09
-1.20643e-08
6.77238e-09
-7.7687e-09
-1.06548e-08
5.76352e-09
-7.17305e-09
-8.99933e-09
5.00055e-09
-6.65604e-09
-7.16347e-09
4.42535e-09
-6.26121e-09
-5.2013e-09
4.06881e-09
-6.03098e-09
-3.15956e-09
3.97579e-09
-6.01754e-09
-1.20437e-09
4.17552e-09
-6.1307e-09
4.55068e-09
-5.75505e-09
7.19745e-10
7.32876e-09
-5.01368e-09
3.04363e-09
7.68759e-09
-7.27921e-09
5.5066e-09
7.92364e-09
-7.81102e-09
7.77195e-09
8.451e-09
-8.0663e-09
9.86841e-09
9.32753e-09
-8.5066e-09
1.18415e-08
1.05335e-08
-9.17593e-09
1.37017e-08
1.20709e-08
-1.00577e-08
1.54083e-08
1.39965e-08
-1.11391e-08
1.68884e-08
1.63449e-08
-1.24146e-08
1.79447e-08
1.92957e-08
-1.38674e-08
1.84315e-08
2.26941e-08
-1.54659e-08
1.79573e-08
2.68386e-08
-1.71445e-08
1.66544e-08
3.06954e-08
-1.87695e-08
1.45497e-08
3.42922e-08
-2.02435e-08
1.18175e-08
3.72687e-08
-2.14998e-08
8.58322e-09
3.96276e-08
-2.24884e-08
5.01785e-09
4.12397e-08
-2.31779e-08
1.28809e-09
4.20819e-08
-2.35477e-08
-2.4299e-09
4.21222e-08
-2.35879e-08
-5.95991e-09
4.1361e-08
-2.32987e-08
-9.13542e-09
3.98314e-08
-2.26904e-08
-1.17854e-08
3.75578e-08
-2.17846e-08
-1.37863e-08
3.46729e-08
-2.06133e-08
-1.49648e-08
3.11759e-08
-1.92279e-08
-1.52997e-08
2.74367e-08
-1.76966e-08
-1.46596e-08
2.34246e-08
-1.61201e-08
-1.34459e-08
2.01944e-08
-1.46357e-08
-1.17948e-08
1.7428e-08
-1.33156e-08
-9.89224e-09
1.53011e-08
-1.22031e-08
-7.77755e-09
1.36505e-08
-1.13399e-08
-5.43404e-09
1.24845e-08
-1.07592e-08
-2.83772e-09
1.1791e-08
-1.04115e-08
-4.16715e-10
1.14629e-08
-9.7084e-09
1.09275e-08
-6.79354e-09
5.42149e-10
1.18563e-08
-5.06965e-09
3.15826e-09
1.29069e-08
-7.83545e-09
6.0261e-09
1.3621e-08
-8.56524e-09
8.65317e-09
1.47196e-08
-8.89567e-09
1.10772e-08
1.63214e-08
-9.4179e-09
1.33812e-08
1.84419e-08
-1.02124e-08
1.56115e-08
2.11134e-08
-1.12727e-08
1.77499e-08
2.44518e-08
-1.25938e-08
1.97331e-08
2.85427e-08
-1.4181e-08
2.12825e-08
3.37705e-08
-1.60242e-08
2.2181e-08
3.98893e-08
-1.80937e-08
2.16417e-08
4.76685e-08
-2.02906e-08
2.00244e-08
5.47382e-08
-2.24254e-08
1.74031e-08
6.12655e-08
-2.4352e-08
1.40589e-08
6.66002e-08
-2.59873e-08
1.01312e-08
7.08197e-08
-2.72644e-08
5.82675e-09
7.36948e-08
-2.81507e-08
1.33399e-09
7.51965e-08
-2.86219e-08
-3.14637e-09
7.52689e-08
-2.86664e-08
-7.41333e-09
7.39124e-08
-2.82844e-08
-1.12782e-08
7.11842e-08
-2.7488e-08
-1.45332e-08
6.71149e-08
-2.63021e-08
-1.70397e-08
6.19397e-08
-2.47602e-08
-1.85163e-08
5.55834e-08
-2.2931e-08
-1.88958e-08
4.87152e-08
-2.08989e-08
-1.7817e-08
4.11605e-08
-1.88147e-08
-1.60855e-08
3.53342e-08
-1.68713e-08
-1.38966e-08
3.0416e-08
-1.51769e-08
-1.15071e-08
2.66863e-08
-1.37746e-08
-8.92543e-09
2.37726e-08
-1.27038e-08
-6.08984e-09
2.16313e-08
-1.19824e-08
-2.96234e-09
2.01737e-08
-1.15103e-08
-1.89215e-10
1.92171e-08
-1.05273e-08
1.77068e-08
-6.9685e-09
6.63967e-10
1.62664e-08
-5.07412e-09
3.71251e-09
1.7842e-08
-7.9836e-09
7.09334e-09
1.89906e-08
-8.75045e-09
1.02296e-08
2.06721e-08
-9.08874e-09
1.31655e-08
2.30409e-08
-9.65528e-09
1.60218e-08
2.6132e-08
-1.05465e-08
1.88954e-08
3.00044e-08
-1.17646e-08
2.18208e-08
3.4846e-08
-1.33196e-08
2.47711e-08
4.08286e-08
-1.52362e-08
2.73426e-08
4.8721e-08
-1.75221e-08
2.91447e-08
5.82415e-08
-2.01542e-08
2.84366e-08
7.13818e-08
-2.30053e-08
2.61631e-08
8.27854e-08
-2.57737e-08
2.25482e-08
9.31308e-08
-2.82504e-08
1.80788e-08
1.01409e-07
-3.03389e-08
1.2897e-08
1.07947e-07
-3.19458e-08
7.26554e-09
1.1238e-07
-3.30536e-08
1.40621e-09
1.14692e-07
-3.36361e-08
-4.44018e-09
1.14797e-07
-3.36821e-08
-1.00321e-08
1.12696e-07
-3.31917e-08
-1.51465e-08
1.08475e-07
-3.21765e-08
-1.95177e-08
1.02149e-07
-3.0663e-08
-2.30023e-08
9.40934e-08
-2.86691e-08
-2.51096e-08
8.39811e-08
-2.62904e-08
-2.56246e-08
7.28542e-08
-2.3624e-08
-2.35958e-08
6.00176e-08
-2.08859e-08
-2.08079e-08
5.09268e-08
-1.83805e-08
-1.76059e-08
4.34624e-08
-1.62483e-08
-1.43626e-08
3.79697e-08
-1.45267e-08
-1.10336e-08
3.36886e-08
-1.32451e-08
-7.49576e-09
3.05015e-08
-1.2408e-08
-3.68268e-09
2.82524e-08
-1.18918e-08
-3.294e-10
2.67109e-08
-1.08471e-08
2.44525e-08
-7.07509e-09
9.91378e-10
2.04434e-08
-5.16837e-09
4.66799e-09
2.24613e-08
-8.29592e-09
8.74498e-09
2.40285e-08
-9.11483e-09
1.25792e-08
2.63227e-08
-9.48488e-09
1.62343e-08
2.95282e-08
-1.01425e-08
1.98861e-08
3.3684e-08
-1.12037e-08
2.37151e-08
3.88624e-08
-1.2687e-08
2.78838e-08
4.53122e-08
-1.4635e-08
3.24873e-08
5.33332e-08
-1.71081e-08
3.70108e-08
6.43557e-08
-2.01581e-08
4.06976e-08
7.8324e-08
-2.37693e-08
3.95388e-08
1.00363e-07
-2.78224e-08
3.597e-08
1.18082e-07
-3.17279e-08
3.06341e-08
1.33665e-07
-3.51983e-08
2.43542e-08
1.45799e-07
-3.8111e-08
1.71985e-08
1.55399e-07
-4.02962e-08
9.49649e-09
1.61876e-07
-4.17939e-08
1.51089e-09
1.6525e-07
-4.25728e-08
-6.46161e-09
1.65392e-07
-4.26224e-08
-1.41231e-08
1.623e-07
-4.19427e-08
-2.1208e-08
1.56104e-07
-4.05438e-08
-2.73807e-08
1.46779e-07
-3.84576e-08
-3.25681e-08
1.34924e-07
-3.56432e-08
-3.5936e-08
1.19622e-07
-3.22729e-08
-3.68517e-08
1.02239e-07
-2.84692e-08
-3.28624e-08
8.05581e-08
-2.45297e-08
-2.80847e-08
6.7196e-08
-2.10469e-08
-2.31783e-08
5.67143e-08
-1.81583e-08
-1.86139e-08
4.92996e-08
-1.58943e-08
-1.42065e-08
4.35311e-08
-1.42498e-08
-9.6951e-09
3.91928e-08
-1.32028e-08
-4.93857e-09
3.60882e-08
-1.25923e-08
-7.30202e-10
3.39548e-08
-1.14523e-08
3.10466e-08
-7.32432e-09
1.48262e-09
2.43096e-08
-5.3488e-09
6.00824e-09
2.67418e-08
-8.80611e-09
1.10092e-08
2.87528e-08
-9.72533e-09
1.57657e-08
3.17319e-08
-1.01656e-08
2.03675e-08
3.58972e-08
-1.09707e-08
2.50628e-08
4.12773e-08
-1.22887e-08
3.01617e-08
4.79314e-08
-1.41679e-08
3.61064e-08
5.60799e-08
-1.67124e-08
4.33416e-08
6.61329e-08
-2.00349e-08
5.15551e-08
8.04131e-08
-2.42709e-08
5.92478e-08
9.99486e-08
-2.93173e-08
5.69062e-08
1.38039e-07
-3.53346e-08
5.08028e-08
1.65284e-07
-4.10986e-08
4.26182e-08
1.88088e-07
-4.6238e-08
3.36045e-08
2.05367e-07
-5.0554e-08
2.35239e-08
2.19128e-07
-5.36484e-08
1.27681e-08
2.28392e-07
-5.57604e-08
1.65128e-09
2.33216e-07
-5.68484e-08
-9.4534e-09
2.33402e-07
-5.69051e-08
-2.01707e-08
2.28948e-07
-5.59303e-08
-3.01825e-08
2.20046e-07
-5.393e-08
-3.90859e-08
2.06629e-07
-5.09461e-08
-4.71075e-08
1.89682e-07
-4.67364e-08
-5.29693e-08
1.67186e-07
-4.17021e-08
-5.49949e-08
1.40305e-07
-3.604e-08
-4.68693e-08
1.02567e-07
-3.01344e-08
-3.8376e-08
8.39209e-08
-2.52182e-08
-3.07924e-08
7.02851e-08
-2.11545e-08
-2.43629e-08
6.09303e-08
-1.80602e-08
-1.85309e-08
5.35569e-08
-1.58579e-08
-1.27409e-08
4.78846e-08
-1.44818e-08
-6.72751e-09
4.37758e-08
-1.3701e-08
-1.3571e-09
4.09659e-08
-1.23815e-08
3.741e-08
-7.72052e-09
2.13771e-09
2.77593e-08
-5.58746e-09
7.75999e-09
3.05941e-08
-9.47456e-09
1.39544e-08
3.30981e-08
-1.05397e-08
1.99001e-08
3.68701e-08
-1.1084e-08
2.57077e-08
4.21784e-08
-1.20889e-08
3.17004e-08
4.90349e-08
-1.37504e-08
3.83538e-08
5.74427e-08
-1.61646e-08
4.66371e-08
6.73384e-08
-1.95419e-08
5.78273e-08
7.90105e-08
-2.40679e-08
7.28265e-08
9.53583e-08
-2.99444e-08
8.93921e-08
1.2015e-07
-3.67673e-08
8.37862e-08
1.89302e-07
-4.5657e-08
7.25598e-08
2.30565e-07
-5.40546e-08
5.97539e-08
2.62661e-07
-6.1767e-08
4.67758e-08
2.86675e-07
-6.83301e-08
3.25265e-08
3.06023e-07
-7.2646e-08
1.74177e-08
3.19108e-07
-7.56073e-08
1.83475e-09
3.25922e-07
-7.71239e-08
-1.37389e-08
3.26168e-07
-7.71923e-08
-2.88174e-08
3.19839e-07
-7.58124e-08
-4.30113e-08
3.07224e-07
-7.29843e-08
-5.58919e-08
2.88308e-07
-6.87984e-08
-6.85371e-08
2.64681e-07
-6.23543e-08
-7.94848e-08
2.32888e-07
-5.47542e-08
-8.46714e-08
1.91948e-07
-4.64569e-08
-6.74264e-08
1.22991e-07
-3.76695e-08
-5.21748e-08
9.96465e-08
-3.09773e-08
-4.06211e-08
8.40141e-08
-2.52826e-08
-3.17551e-08
7.30714e-08
-2.1007e-08
-2.417e-08
6.399e-08
-1.80182e-08
-1.67682e-08
5.66697e-08
-1.61868e-08
-9.12594e-09
5.12947e-08
-1.51612e-08
-2.22714e-09
4.76475e-08
-1.35805e-08
4.34073e-08
-8.22442e-09
2.9832e-09
3.06365e-08
-5.86042e-09
9.99454e-09
3.38531e-08
-1.02704e-08
1.77147e-08
3.68989e-08
-1.15209e-08
2.51922e-08
4.15895e-08
-1.21968e-08
3.25246e-08
4.82962e-08
-1.34501e-08
4.00321e-08
5.70707e-08
-1.55433e-08
4.82366e-08
6.78819e-08
-1.86437e-08
5.87683e-08
7.99491e-08
-2.31423e-08
7.44359e-08
9.25905e-08
-2.92475e-08
1.01364e-07
1.0584e-07
-3.74103e-08
1.37705e-07
1.28147e-07
-4.43376e-08
1.24003e-07
2.58758e-07
-5.57539e-08
1.03526e-07
3.18788e-07
-6.77463e-08
8.39567e-08
3.61573e-07
-7.93422e-08
6.55324e-08
3.94407e-07
-8.93076e-08
4.54258e-08
4.21054e-07
-9.49242e-08
2.40795e-08
4.39273e-07
-9.8818e-08
2.07509e-09
4.48741e-07
-1.00814e-07
-1.99253e-08
4.49067e-07
-1.00898e-07
-4.12584e-08
4.40242e-07
-9.90705e-08
-6.13422e-08
4.22647e-07
-9.5339e-08
-7.97164e-08
3.96563e-07
-8.98804e-08
-9.9181e-08
3.64198e-07
-8.00519e-08
-1.19396e-07
3.21682e-07
-6.85794e-08
-1.32532e-07
2.61781e-07
-5.66972e-08
-9.50042e-08
1.3081e-07
-4.53462e-08
-6.80104e-08
1.1119e-07
-3.85372e-08
-5.201e-08
9.85835e-08
-3.05698e-08
-4.07798e-08
8.65857e-08
-2.47446e-08
-3.13855e-08
7.52855e-08
-2.06898e-08
-2.20532e-08
6.56057e-08
-1.82683e-08
-1.23217e-08
5.84904e-08
-1.69271e-08
-3.42132e-09
5.37554e-08
-1.50083e-08
4.8777e-08
-8.79104e-09
4.03027e-09
3.27612e-08
-6.15492e-09
1.2749e-08
3.63118e-08
-1.11774e-08
2.23774e-08
3.99227e-08
-1.26522e-08
3.18162e-08
4.56368e-08
-1.34862e-08
4.11169e-08
5.40293e-08
-1.50338e-08
5.04503e-08
6.53713e-08
-1.7634e-08
6.00444e-08
7.98301e-08
-2.15423e-08
7.18254e-08
9.55289e-08
-2.73608e-08
9.05724e-08
1.09431e-07
-3.55871e-08
1.33194e-07
1.08469e-07
-4.52502e-08
2.12593e-07
1.03896e-07
-5.51485e-08
1.79138e-07
3.52448e-07
-6.02348e-08
1.43641e-07
4.28203e-07
-7.39186e-08
1.15844e-07
4.79446e-07
-9.00764e-08
9.06713e-08
5.23571e-07
-1.03991e-07
6.29418e-08
5.59005e-07
-1.10221e-07
3.31746e-08
5.83871e-07
-1.14831e-07
2.39533e-09
5.96709e-07
-1.1719e-07
-2.83882e-08
5.97138e-07
-1.17288e-07
-5.81699e-08
5.85149e-07
-1.15125e-07
-8.59359e-08
5.61113e-07
-1.10701e-07
-1.11163e-07
5.26444e-07
-1.04654e-07
-1.39021e-07
4.82943e-07
-9.08875e-08
-1.74423e-07
4.31953e-07
-7.48689e-08
-2.07179e-07
3.55835e-07
-6.12979e-08
-1.25567e-07
1.05623e-07
-5.64257e-08
-8.34439e-08
1.15557e-07
-4.649e-08
-6.44395e-08
1.16595e-07
-3.70154e-08
-5.17993e-08
1.03058e-07
-2.91122e-08
-4.06587e-08
8.7949e-08
-2.38041e-08
-2.89488e-08
7.45876e-08
-2.06919e-08
-1.6509e-08
6.50358e-08
-1.89851e-08
-5.00825e-09
5.89075e-08
-1.66529e-08
5.31691e-08
-9.40029e-09
5.33061e-09
3.38818e-08
-6.45119e-09
1.61526e-08
3.76654e-08
-1.21756e-08
2.82332e-08
4.17512e-08
-1.39091e-08
4.03786e-08
4.84141e-08
-1.49227e-08
5.26284e-08
5.85809e-08
-1.68014e-08
6.47458e-08
7.32066e-08
-1.99526e-08
7.56468e-08
9.35725e-08
-2.46434e-08
8.37855e-08
1.19352e-07
-3.19618e-08
8.92589e-08
1.45122e-07
-4.1165e-08
1.23392e-07
1.28811e-07
-5.4475e-08
3.05777e-07
-7.84886e-08
2.3808e-07
4.68657e-07
-4.85116e-08
1.93229e-07
5.31081e-07
-5.80267e-08
1.6034e-07
5.86655e-07
-7.43198e-08
1.27262e-07
6.45241e-07
-8.85919e-08
8.85455e-08
6.90522e-07
-9.28008e-08
4.63801e-08
7.225e-07
-9.64638e-08
2.82063e-09
7.38676e-07
-9.8407e-08
-4.07488e-08
7.39204e-07
-9.84965e-08
-8.29521e-08
7.24085e-07
-9.67327e-08
-1.21771e-07
6.93165e-07
-9.32324e-08
-1.55053e-07
6.48925e-07
-8.91996e-08
-1.88379e-07
5.91323e-07
-7.50537e-08
-2.3391e-07
5.36373e-07
-5.88883e-08
-3.0145e-07
4.7302e-07
-4.96455e-08
-1.15409e-07
-8.04176e-08
-8.14518e-08
1.37187e-07
-5.55873e-08
-7.60593e-08
1.53831e-07
-4.26292e-08
-6.67628e-08
1.27624e-07
-3.3863e-08
-5.38101e-08
1.02137e-07
-2.71411e-08
-3.86214e-08
8.27907e-08
-2.33917e-08
-2.23022e-08
7.00259e-08
-2.13095e-08
-7.24643e-09
6.23481e-08
-1.84964e-08
5.59186e-08
-9.99601e-09
6.78692e-09
3.38507e-08
-6.75589e-09
1.99871e-08
3.77167e-08
-1.32516e-08
3.49307e-08
4.20932e-08
-1.52855e-08
5.04499e-08
4.94149e-08
-1.652e-08
6.68261e-08
6.1001e-08
-1.87963e-08
8.37864e-08
7.87439e-08
-2.24976e-08
9.88498e-08
1.06274e-07
-2.77649e-08
1.04e-07
1.48524e-07
-3.43229e-08
8.37711e-08
2.11678e-07
-4.63263e-08
2.84298e-07
-7.17163e-08
1.55771e-07
2.69067e-07
4.38193e-08
2.09352e-07
4.58104e-07
1.93959e-08
2.06138e-07
5.73535e-07
1.63337e-08
1.70164e-07
6.61052e-07
2.01629e-08
1.19652e-07
7.21145e-07
1.989e-08
6.27877e-08
7.60103e-07
1.92611e-08
3.38552e-09
7.79071e-07
1.90074e-08
-5.60316e-08
7.79616e-07
1.90045e-08
-1.12953e-07
7.61754e-07
1.92517e-08
-1.63624e-07
7.23954e-07
1.98827e-08
-1.99976e-07
6.65126e-07
2.01507e-08
-2.04125e-07
5.79108e-07
1.63635e-08
-1.52501e-07
4.65501e-07
1.92476e-08
2.7744e-07
4.30795e-08
-8.08476e-08
2.89172e-07
-7.11375e-08
-9.80048e-08
2.18539e-07
-4.75511e-08
-9.00955e-08
1.56047e-07
-3.63324e-08
-7.19756e-08
1.14524e-07
-3.05063e-08
-5.10021e-08
8.81821e-08
-2.63649e-08
-2.94224e-08
7.23981e-08
-2.39519e-08
-9.94603e-09
6.34389e-08
-2.05672e-08
5.65992e-08
-1.06266e-08
8.4658e-09
3.24327e-08
-7.04774e-09
2.44253e-08
3.61153e-08
-1.4358e-08
4.29971e-08
4.02248e-08
-1.67036e-08
6.35716e-08
4.70152e-08
-1.81748e-08
8.79518e-08
5.75221e-08
-2.09013e-08
1.19002e-07
7.30137e-08
-2.53199e-08
1.61288e-07
9.55096e-08
-3.15222e-08
2.21658e-07
1.26618e-07
-3.84634e-08
3.12119e-07
1.64932e-07
-4.37153e-08
4.41986e-07
1.93874e-07
-3.94425e-08
3.40957e-07
8.07728e-08
2.02567e-08
3.70812e-07
2.07954e-07
3.12576e-08
3.64888e-07
3.51176e-07
1.12853e-07
3.17062e-07
4.50202e-07
1.71159e-07
2.45299e-07
5.26493e-07
2.06321e-07
1.66258e-07
5.78952e-07
2.21234e-07
8.53158e-08
6.12692e-07
2.28352e-07
3.98246e-09
6.29134e-07
2.3127e-07
-7.73399e-08
6.29605e-07
2.31334e-07
-1.58248e-07
6.14113e-07
2.28549e-07
-2.37235e-07
5.81356e-07
2.21585e-07
-3.08899e-07
5.29936e-07
2.06854e-07
-3.56591e-07
4.54772e-07
1.72029e-07
-3.61968e-07
3.56776e-07
1.14102e-07
-3.32064e-07
2.14178e-07
3.3358e-08
-4.37275e-07
8.29903e-08
2.222e-08
-3.07001e-07
1.98217e-07
-3.93186e-08
-2.14563e-07
1.70867e-07
-4.47659e-08
-1.51626e-07
1.33463e-07
-4.03529e-08
-1.05935e-07
1.03259e-07
-3.44258e-08
-7.01416e-08
8.20225e-08
-2.96339e-08
-3.94243e-08
6.84797e-08
-2.67988e-08
-1.37008e-08
6.05169e-08
-2.28015e-08
5.41275e-08
-1.12291e-08
9.94937e-09
2.98234e-08
-7.34012e-09
2.83388e-08
3.31505e-08
-1.54247e-08
4.99035e-08
3.67491e-08
-1.80889e-08
7.41678e-08
4.25753e-08
-1.98244e-08
1.03421e-07
5.13136e-08
-2.30444e-08
1.41151e-07
6.35811e-08
-2.82979e-08
1.92365e-07
8.00176e-08
-3.5722e-08
2.63223e-07
1.00547e-07
-4.47866e-08
3.58881e-07
1.22011e-07
-5.2737e-08
4.69831e-07
1.37057e-07
-5.4133e-08
4.79181e-07
1.04751e-07
-3.33285e-08
5.05258e-07
1.75287e-07
6.58956e-09
4.67894e-07
2.61784e-07
1.26755e-07
3.92007e-07
3.29487e-07
1.96602e-07
2.98362e-07
3.84487e-07
2.35652e-07
2.00222e-07
4.23299e-07
2.53793e-07
1.01991e-07
4.48778e-07
2.62145e-07
4.45051e-09
4.61323e-07
2.65352e-07
-9.30716e-08
4.61717e-07
2.6541e-07
-1.91242e-07
4.49961e-07
2.62323e-07
-2.89281e-07
4.2528e-07
2.54115e-07
-3.8277e-07
3.87267e-07
2.36158e-07
-4.58519e-07
3.3306e-07
1.97461e-07
-4.95781e-07
2.65994e-07
1.28044e-07
-4.70265e-07
1.79887e-07
8.77567e-09
-4.63217e-07
1.07941e-07
-3.19993e-08
-3.52442e-07
1.41431e-07
-5.3989e-08
-2.55237e-07
1.2734e-07
-5.36775e-08
-1.81792e-07
1.06713e-07
-4.66944e-08
-1.26809e-07
8.709e-08
-3.88147e-08
-8.36478e-08
7.1887e-08
-3.30257e-08
-4.70129e-08
6.1442e-08
-2.95972e-08
-1.65624e-08
5.50018e-08
-2.49354e-08
4.94254e-08
-1.18602e-08
1.12728e-08
2.61563e-08
-7.60565e-09
3.18064e-08
2.89984e-08
-1.63816e-08
5.59483e-08
3.19263e-08
-1.93191e-08
8.32274e-08
3.6562e-08
-2.12658e-08
1.16099e-07
4.33192e-08
-2.48772e-08
1.58044e-07
5.2436e-08
-3.07995e-08
2.13342e-07
6.3973e-08
-3.92544e-08
2.86416e-07
7.76445e-08
-5.01705e-08
3.78465e-07
9.11418e-08
-6.11799e-08
4.80685e-07
1.0294e-07
-6.81033e-08
5.39058e-07
1.00656e-07
-5.42772e-08
5.81798e-07
1.41162e-07
-8.6144e-09
5.36168e-07
1.91987e-07
1.15427e-07
4.46771e-07
2.36009e-07
1.82875e-07
3.38008e-07
2.73363e-07
2.19887e-07
2.25924e-07
3.00478e-07
2.34904e-07
1.14761e-07
3.18699e-07
2.41242e-07
4.8457e-09
3.278e-07
2.43438e-07
-1.05048e-07
3.28136e-07
2.43475e-07
-2.16145e-07
3.19703e-07
2.41355e-07
-3.28122e-07
3.02139e-07
2.35118e-07
-4.3675e-07
2.75652e-07
2.20243e-07
-5.26125e-07
2.38887e-07
1.83548e-07
-5.71958e-07
1.95316e-07
1.16511e-07
-5.30473e-07
1.448e-07
-6.3991e-09
-4.73404e-07
1.03995e-07
-5.31222e-08
-3.71126e-07
1.06995e-07
-6.78419e-08
-2.7758e-07
9.58517e-08
-6.20576e-08
-2.01821e-07
8.30695e-08
-5.21157e-08
-1.42433e-07
7.02244e-08
-4.2523e-08
-9.44642e-08
5.9801e-08
-3.58825e-08
-5.33145e-08
5.22742e-08
-3.1982e-08
-1.89838e-08
4.745e-08
-2.67789e-08
4.28547e-08
-1.24131e-08
1.23073e-08
2.17024e-08
-7.85336e-09
3.45227e-08
2.39896e-08
-1.72066e-08
6.05953e-08
2.62274e-08
-2.03738e-08
8.99518e-08
2.97018e-08
-2.24962e-08
1.25038e-07
3.46603e-08
-2.64274e-08
1.6919e-07
4.11703e-08
-3.28862e-08
2.26183e-07
4.91294e-08
-4.21497e-08
2.99817e-07
5.83595e-08
-5.43484e-08
3.90523e-07
6.76237e-08
-6.7188e-08
4.92524e-07
7.74958e-08
-7.65567e-08
5.73411e-07
8.39647e-08
-6.41965e-08
6.27213e-07
1.08861e-07
-2.15011e-08
5.78392e-07
1.40004e-07
1.00804e-07
4.82085e-07
1.68471e-07
1.63844e-07
3.64598e-07
1.93352e-07
1.97498e-07
2.43673e-07
2.11978e-07
2.09425e-07
1.23739e-07
2.24716e-07
2.13917e-07
5.17646e-09
2.31182e-07
2.15181e-07
-1.13369e-07
2.31484e-07
2.15198e-07
-2.33252e-07
2.25613e-07
2.13972e-07
-3.54101e-07
2.13446e-07
2.09542e-07
-4.71509e-07
1.95345e-07
1.97715e-07
-5.67896e-07
1.7093e-07
1.64344e-07
-6.17099e-07
1.42819e-07
1.017e-07
-5.64737e-07
1.11964e-07
-1.95257e-08
-4.84723e-07
8.71102e-08
-6.31299e-08
-3.8251e-07
8.11099e-08
-7.63276e-08
-2.90256e-07
7.17069e-08
-6.8109e-08
-2.13805e-07
6.30053e-08
-5.63868e-08
-1.52439e-07
5.44554e-08
-4.55965e-08
-1.01777e-07
4.74128e-08
-3.82744e-08
-5.77041e-08
4.21837e-08
-3.39823e-08
-2.06522e-08
3.87337e-08
-2.83357e-08
3.51458e-08
-1.29433e-08
1.30925e-08
1.66759e-08
-8.06607e-09
3.65846e-08
1.83708e-08
-1.78733e-08
6.40905e-08
1.9937e-08
-2.12154e-08
9.49256e-08
2.23313e-08
-2.34647e-08
1.31503e-07
2.57082e-08
-2.76254e-08
1.77052e-07
3.00852e-08
-3.44642e-08
2.35095e-07
3.53781e-08
-4.42919e-08
3.09245e-07
4.15428e-08
-5.73332e-08
4.00139e-07
4.80436e-08
-7.1314e-08
5.04103e-07
5.56688e-08
-8.2137e-08
5.95647e-07
6.30826e-08
-7.06614e-08
6.55507e-07
7.87724e-08
-2.97711e-08
6.0593e-07
9.80486e-08
9.15322e-08
5.05972e-07
1.16197e-07
1.52232e-07
3.83011e-07
1.32303e-07
1.8401e-07
2.5618e-07
1.44636e-07
1.94173e-07
1.30156e-07
1.53181e-07
1.97559e-07
5.47497e-09
1.57597e-07
1.98267e-07
-1.19198e-07
1.57883e-07
1.98274e-07
-2.45196e-07
1.54027e-07
1.97584e-07
-3.71995e-07
1.46007e-07
1.94238e-07
-4.94942e-07
1.3414e-07
1.84152e-07
-5.9507e-07
1.18423e-07
1.52635e-07
-6.45128e-07
1.00564e-07
9.23143e-08
-5.86779e-07
8.15068e-08
-2.78916e-08
-4.95916e-07
6.59265e-08
-6.96797e-08
-3.91644e-07
5.88035e-08
-8.19654e-08
-2.99117e-07
5.14864e-08
-7.23062e-08
-2.22015e-07
4.53765e-08
-5.94735e-08
-1.59364e-07
3.97023e-08
-4.78982e-08
-1.06925e-07
3.50761e-08
-4.01023e-08
-6.08284e-08
3.16224e-08
-3.55351e-08
-2.18367e-08
2.93064e-08
-2.95645e-08
2.67005e-08
-1.33914e-08
1.36256e-08
1.12927e-08
-8.24236e-09
3.79957e-08
1.23775e-08
-1.83768e-08
6.64703e-08
1.3305e-08
-2.18426e-08
9.82758e-08
1.47044e-08
-2.41786e-08
1.35804e-07
1.66741e-08
-2.84942e-08
1.82243e-07
1.92304e-08
-3.55837e-08
2.41044e-07
2.23511e-08
-4.57741e-08
3.15843e-07
2.60681e-08
-5.9324e-08
4.0761e-07
3.02322e-08
-7.39562e-08
5.13472e-07
3.53461e-08
-8.55395e-08
6.10169e-07
4.10296e-08
-7.46433e-08
6.73316e-07
5.02302e-08
-3.46054e-08
6.2344e-07
6.12103e-08
8.67152e-08
5.21382e-07
7.16473e-08
1.46607e-07
3.951e-07
8.09384e-08
1.77646e-07
2.64517e-07
8.81829e-08
1.87037e-07
1.34506e-07
9.32623e-08
1.8993e-07
5.75609e-09
9.59634e-08
1.90383e-07
-1.22997e-07
9.62503e-08
1.90386e-07
-2.53019e-07
9.41079e-08
1.89941e-07
-3.83627e-07
8.95396e-08
1.87076e-07
-5.09972e-07
8.27315e-08
1.77752e-07
-6.12286e-07
7.37762e-08
1.46961e-07
-6.62721e-07
6.35648e-08
8.7434e-08
-6.01123e-07
5.27126e-08
-3.28037e-08
-5.05024e-07
4.35687e-08
-7.37415e-08
-3.98792e-07
3.80145e-08
-8.5443e-08
-3.05318e-07
3.30453e-08
-7.50328e-08
-2.27458e-07
2.90833e-08
-6.15672e-08
-1.63873e-07
2.5637e-08
-4.95194e-08
-1.10275e-07
2.28989e-08
-4.14211e-08
-6.28587e-08
2.08807e-08
-3.66741e-08
-2.25906e-08
1.95198e-08
-3.04815e-08
1.78695e-08
-1.37596e-08
1.39327e-08
5.73491e-09
-8.37494e-09
3.88192e-08
6.20224e-09
-1.87112e-08
6.78635e-08
6.51078e-09
-2.22501e-08
1.00241e-07
6.96247e-09
-2.46353e-08
1.3834e-07
7.61354e-09
-2.90385e-08
1.85343e-07
8.49576e-09
-3.62688e-08
2.44701e-07
9.65489e-09
-4.66611e-08
3.20092e-07
1.1163e-08
-6.04859e-08
4.12677e-07
1.31068e-08
-7.54601e-08
5.19828e-07
1.56167e-08
-8.74217e-08
6.18915e-07
1.87386e-08
-7.67965e-08
6.83626e-07
2.25316e-08
-3.70115e-08
6.33586e-07
2.66131e-08
8.46365e-08
5.30365e-07
3.0448e-08
1.44421e-07
4.0223e-07
3.37935e-08
1.7528e-07
2.69499e-07
3.64914e-08
1.84422e-07
1.37173e-07
3.84432e-08
1.87145e-07
6.03724e-09
3.95919e-08
1.87507e-07
-1.25117e-07
3.98976e-08
1.87507e-07
-2.575e-07
3.93413e-08
1.87149e-07
-3.9033e-07
3.79202e-08
1.8445e-07
-5.18624e-07
3.56585e-08
1.75367e-07
-6.22206e-07
3.26138e-08
1.44744e-07
-6.72894e-07
2.89416e-08
8.53114e-08
-6.09778e-07
2.48758e-08
-3.5279e-08
-5.1126e-07
2.10235e-08
-7.59737e-08
-4.03704e-07
1.78654e-08
-8.74067e-08
-3.09361e-07
1.53255e-08
-7.66231e-08
-2.30834e-07
1.33815e-08
-6.28245e-08
-1.66581e-07
1.1905e-08
-5.05211e-08
-1.12252e-07
1.08246e-08
-4.22551e-08
-6.40432e-08
1.00803e-08
-3.74083e-08
-2.30223e-08
9.58517e-09
-3.10863e-08
8.8738e-09
-1.40265e-08
1.40212e-08
1.76952e-10
-8.46329e-09
3.90762e-08
2.42891e-11
-1.8877e-08
6.83128e-08
-2.85346e-10
-2.24405e-08
1.00897e-07
-7.8046e-10
-2.48409e-08
1.3923e-07
-1.44826e-09
-2.92714e-08
1.86515e-07
-2.24327e-09
-3.65455e-08
2.46222e-07
-3.05317e-09
-4.69999e-08
3.22056e-07
-3.76303e-09
-6.09076e-08
4.15187e-07
-4.04169e-09
-7.59826e-08
5.22947e-07
-4.09073e-09
-8.80522e-08
6.22602e-07
-3.42511e-09
-7.74919e-08
6.87578e-07
-4.74689e-09
-3.76969e-08
6.3736e-07
-7.39747e-09
8.42282e-08
5.33669e-07
-1.0026e-08
1.44166e-07
4.04896e-07
-1.25331e-08
1.75099e-07
2.7143e-07
-1.4306e-08
1.84264e-07
1.38307e-07
-1.54252e-08
1.86992e-07
6.3354e-09
-1.57887e-08
1.87352e-07
-1.25675e-07
-1.54422e-08
1.8735e-07
-2.58914e-07
-1.44077e-08
1.86988e-07
-3.92575e-07
-1.26963e-08
1.84278e-07
-5.21632e-07
-1.04493e-08
1.75165e-07
-6.25821e-07
-7.65376e-09
1.44456e-07
-6.76813e-07
-4.91973e-09
8.48534e-08
-6.13499e-07
-2.39277e-09
-3.60454e-08
-5.14415e-07
-1.2998e-09
-7.67604e-08
-4.06237e-07
-2.18151e-09
-8.81315e-08
-3.11323e-07
-2.35045e-09
-7.7238e-08
-2.3232e-07
-2.28415e-09
-6.3337e-08
-1.6767e-07
-1.79261e-09
-5.09529e-08
-1.12993e-07
-1.21811e-09
-4.26338e-08
-6.4464e-08
-6.92953e-10
-3.77559e-08
-2.31644e-08
-3.25917e-10
-3.13885e-08
-9.8929e-11
-1.41917e-08
1.38956e-08
-5.21564e-09
-8.50296e-09
3.87692e-08
-5.97552e-09
-1.88739e-08
6.78194e-08
-6.92018e-09
-2.24154e-08
1.00243e-07
-8.40609e-09
-2.47981e-08
1.38472e-07
-1.04798e-08
-2.91969e-08
1.85751e-07
-1.31029e-08
-3.64197e-08
2.45605e-07
-1.61074e-08
-4.67999e-08
3.21746e-07
-1.93005e-08
-6.06039e-08
4.15193e-07
-2.19422e-08
-7.55468e-08
5.22961e-07
-2.43911e-08
-8.74669e-08
6.21452e-07
-2.51299e-08
-7.67864e-08
6.85354e-07
-3.18919e-08
-3.67572e-08
6.34895e-07
-4.23045e-08
8.53664e-08
5.31389e-07
-5.22127e-08
1.45693e-07
4.03175e-07
-6.12503e-08
1.76932e-07
2.70366e-07
-6.78738e-08
1.86377e-07
1.37947e-07
-7.22793e-08
1.89273e-07
6.67243e-09
-7.42293e-08
1.89715e-07
-1.24666e-07
-7.38118e-08
1.89708e-07
-2.57275e-07
-7.10505e-08
1.89252e-07
-3.90402e-07
-6.59314e-08
1.86362e-07
-5.19071e-07
-5.87365e-08
1.76956e-07
-6.23262e-07
-4.93854e-08
1.45922e-07
-6.74682e-07
-3.94102e-08
8.59109e-08
-6.12545e-07
-2.93069e-08
-3.52227e-08
-5.14644e-07
-2.30256e-08
-7.61759e-08
-4.06456e-07
-2.27022e-08
-8.76665e-08
-3.11225e-07
-2.06715e-08
-7.69102e-08
-2.31921e-07
-1.8462e-08
-6.31267e-08
-1.67141e-07
-1.57422e-08
-5.08295e-08
-1.12502e-07
-1.32901e-08
-4.25671e-08
-6.41249e-08
-1.13465e-08
-3.7724e-08
-2.30192e-08
-1.00385e-08
-3.13931e-08
-8.86134e-09
-1.42568e-08
1.35423e-08
-1.02525e-08
-8.50543e-09
3.78768e-08
-1.16027e-08
-1.87073e-08
6.63429e-08
-1.32097e-08
-2.21766e-08
9.82048e-08
-1.57622e-08
-2.45058e-08
1.3594e-07
-1.94053e-08
-2.88092e-08
1.82876e-07
-2.41626e-08
-3.58768e-08
2.42666e-07
-2.98647e-08
-4.60322e-08
3.19085e-07
-3.62034e-08
-5.95169e-08
4.12912e-07
-4.17226e-08
-7.40459e-08
5.20355e-07
-4.63587e-08
-8.54762e-08
6.15258e-07
-4.56166e-08
-7.44159e-08
6.76196e-07
-5.91499e-08
-3.368e-08
6.25475e-07
-8.04089e-08
8.88251e-08
5.22986e-07
-9.98581e-08
1.50135e-07
3.9673e-07
-1.17155e-07
1.82161e-07
2.66127e-07
-1.29623e-07
1.92352e-07
1.3603e-07
-1.37881e-07
1.95699e-07
7.07778e-09
-1.41639e-07
1.96361e-07
-1.21967e-07
-1.41108e-07
1.96341e-07
-2.52347e-07
-1.3631e-07
1.9564e-07
-3.83424e-07
-1.27127e-07
1.92272e-07
-5.10363e-07
-1.13891e-07
1.82093e-07
-6.13804e-07
-9.61867e-08
1.50242e-07
-6.65777e-07
-7.66609e-08
8.92238e-08
-6.06767e-07
-5.59891e-08
-3.23281e-08
-5.12462e-07
-4.33541e-08
-7.39771e-08
-4.04592e-07
-4.47276e-08
-8.58441e-08
-3.08999e-07
-4.0715e-08
-7.55499e-08
-2.29458e-07
-3.58548e-08
-6.21482e-08
-1.64823e-07
-3.0247e-08
-5.01304e-08
-1.10655e-07
-2.54121e-08
-4.20454e-08
-6.29534e-08
-2.17392e-08
-3.73091e-08
-2.25569e-08
-1.9333e-08
-3.1102e-08
-1.71879e-08
-1.42303e-08
1.29407e-08
-1.47185e-08
-8.47463e-09
3.63415e-08
-1.66193e-08
-1.83843e-08
6.37611e-08
-1.88965e-08
-2.17329e-08
9.45487e-08
-2.25776e-08
-2.39722e-08
1.31234e-07
-2.79792e-08
-2.81114e-08
1.7729e-07
-3.53139e-08
-3.49048e-08
2.36688e-07
-4.46123e-08
-4.46507e-08
3.13539e-07
-5.55403e-08
-5.75134e-08
4.08631e-07
-6.56259e-08
-7.11886e-08
5.1628e-07
-7.25119e-08
-8.1496e-08
6.02999e-07
-6.25136e-08
-6.98217e-08
6.57681e-07
-8.61395e-08
-2.7693e-08
6.06743e-07
-1.25378e-07
9.59082e-08
5.06615e-07
-1.59236e-07
1.59506e-07
3.84366e-07
-1.88196e-07
1.93289e-07
2.58037e-07
-2.08392e-07
2.05098e-07
1.32272e-07
-2.21539e-07
2.09423e-07
7.59302e-09
-2.27517e-07
2.10557e-07
-1.17211e-07
-2.26814e-07
2.1051e-07
-2.43366e-07
-2.19438e-07
2.09283e-07
-3.70359e-07
-2.05013e-07
2.04879e-07
-4.936e-07
-1.83678e-07
1.93029e-07
-5.95067e-07
-1.54091e-07
1.59371e-07
-6.47744e-07
-1.20025e-07
9.60423e-08
-5.95255e-07
-8.18404e-08
-2.66385e-08
-5.09051e-07
-5.99136e-08
-6.96442e-08
-4.00939e-07
-7.07112e-08
-8.21283e-08
-3.04112e-07
-6.46382e-08
-7.29038e-08
-2.24216e-07
-5.54571e-08
-6.02943e-08
-1.60109e-07
-4.55285e-08
-4.88249e-08
-1.07046e-07
-3.74107e-08
-4.10648e-08
-6.07181e-08
-3.15502e-08
-3.65167e-08
-2.16765e-08
-2.78486e-08
-3.05261e-08
-2.47262e-08
-1.41381e-08
1.20998e-08
-1.84057e-08
-8.41261e-09
3.41751e-08
-2.07828e-08
-1.79118e-08
6.00633e-08
-2.36963e-08
-2.10884e-08
8.91845e-08
-2.85047e-08
-2.3194e-08
1.24084e-07
-3.57914e-08
-2.70873e-08
1.68394e-07
-4.61591e-08
-3.34651e-08
2.26627e-07
-6.02599e-08
-4.25854e-08
3.03689e-07
-7.81575e-08
-5.44446e-08
4.01547e-07
-9.68224e-08
-6.66618e-08
5.12682e-07
-1.08624e-07
-7.50226e-08
5.8166e-07
-6.96258e-08
-6.18658e-08
6.23704e-07
-1.1081e-07
-1.73738e-08
5.74398e-07
-1.8336e-07
1.07288e-07
4.79695e-07
-2.39283e-07
1.7475e-07
3.64584e-07
-2.84551e-07
2.11466e-07
2.45304e-07
-3.15128e-07
2.26016e-07
1.2636e-07
-3.34518e-07
2.31923e-07
8.27615e-09
-3.43256e-07
2.33824e-07
-1.09961e-07
-3.42304e-07
2.33727e-07
-2.294e-07
-3.31634e-07
2.31636e-07
-3.49554e-07
-3.10408e-07
2.25549e-07
-4.66069e-07
-2.78035e-07
2.10873e-07
-5.62678e-07
-2.31693e-07
1.7421e-07
-6.14584e-07
-1.75146e-07
1.07028e-07
-5.75214e-07
-1.04481e-07
-1.67296e-08
-5.06371e-07
-6.67143e-08
-6.20422e-08
-3.94686e-07
-1.06317e-07
-7.6079e-08
-2.95161e-07
-9.54622e-08
-6.87008e-08
-2.15158e-07
-7.80173e-08
-5.74427e-08
-1.52398e-07
-6.14325e-08
-4.6856e-08
-1.01383e-07
-4.88361e-08
-3.95901e-08
-5.73014e-08
-4.03053e-08
-3.53262e-08
-2.03502e-08
-3.51423e-08
-2.96574e-08
-3.1098e-08
-1.39784e-08
1.09815e-08
-2.10494e-08
-8.33792e-09
3.12865e-08
-2.37689e-08
-1.73189e-08
5.50166e-08
-2.71413e-08
-2.0285e-08
8.15494e-08
-3.28098e-08
-2.22277e-08
1.13254e-07
-4.16824e-08
-2.58136e-08
1.53743e-07
-5.4989e-08
-3.16588e-08
2.082e-07
-7.47609e-08
-3.99564e-08
2.83351e-07
-1.03027e-07
-5.02809e-08
3.85613e-07
-1.39165e-07
-5.99189e-08
5.10149e-07
-1.70077e-07
-6.30834e-08
5.40469e-07
-5.63695e-08
-4.35763e-08
5.60544e-07