/*--------------------------------*- C++ -*----------------------------------*\
| =========                 |                                                 |
| \\      /  F ield         | OpenFOAM: The Open Source CFD Toolbox           |
|  \\    /   O peration     | Version:  2112                                  |
|   \\  /    A nd           | Website:  www.openfoam.com                      |
|    \\/     M anipulation  |                                                 |
\*---------------------------------------------------------------------------*/
FoamFile
{
    version     2.0;
    format      ascii;
    arch        "LSB;label=32;scalar=64";
    class       volVectorField;
    location    "0.8";
    object      U;
}
// * * * * * * * * * * * * * * * * * * * * * * * * * * * * * * * * * * * * * //

dimensions      [0 1 -1 0 0 0 0];

internalField   nonuniform List<vector> 
64906
(
(7.6441e-07 2.19456e-06 -3.09241e-06)
(3.19554e-06 1.82175e-06 -3.22215e-06)
(6.07498e-06 1.59199e-06 -3.1123e-06)
(8.93604e-06 1.58814e-06 -3.09734e-06)
(1.16978e-05 1.75569e-06 -3.20702e-06)
(1.43266e-05 2.03951e-06 -3.41161e-06)
(1.68116e-05 2.41904e-06 -3.69024e-06)
(1.90954e-05 2.90722e-06 -4.02749e-06)
(2.11104e-05 3.50511e-06 -4.41927e-06)
(2.26569e-05 4.27097e-06 -4.84072e-06)
(2.35774e-05 5.14038e-06 -5.29516e-06)
(2.35361e-05 6.21259e-06 -5.73824e-06)
(2.23702e-05 7.21067e-06 -6.17231e-06)
(2.0196e-05 8.16055e-06 -6.55324e-06)
(1.70877e-05 8.94676e-06 -6.88354e-06)
(1.32523e-05 9.57371e-06 -7.14077e-06)
(8.86594e-06 1.00003e-05 -7.32318e-06)
(4.1577e-06 1.0222e-05 -7.42258e-06)
(-6.53222e-07 1.02288e-05 -7.43777e-06)
(-5.33123e-06 1.00208e-05 -7.36863e-06)
(-9.6562e-06 9.60824e-06 -7.21674e-06)
(-1.33999e-05 8.99616e-06 -6.99058e-06)
(-1.6388e-05 8.2268e-06 -6.692e-06)
(-1.84147e-05 7.29596e-06 -6.34407e-06)
(-1.94115e-05 6.32218e-06 -5.94428e-06)
(-1.92649e-05 5.27804e-06 -5.53853e-06)
(-1.81456e-05 4.44687e-06 -5.12504e-06)
(-1.63934e-05 3.72483e-06 -4.75229e-06)
(-1.41602e-05 3.1856e-06 -4.42202e-06)
(-1.16433e-05 2.78453e-06 -4.17293e-06)
(-8.90283e-06 2.55949e-06 -4.03677e-06)
(-6.02294e-06 2.56712e-06 -4.0674e-06)
(-3.12838e-06 2.86255e-06 -4.23671e-06)
(-6.06837e-07 3.32856e-06 -4.12342e-06)
(1.57022e-07 7.21593e-06 -3.4927e-06)
(2.46603e-06 7.1085e-06 -5.74872e-06)
(6.17909e-06 7.0645e-06 -6.19716e-06)
(9.57034e-06 7.42102e-06 -6.38044e-06)
(1.26995e-05 8.17165e-06 -6.72686e-06)
(1.56193e-05 9.2563e-06 -7.25902e-06)
(1.8384e-05 1.06576e-05 -7.95743e-06)
(2.095e-05 1.24239e-05 -8.80984e-06)
(2.32895e-05 1.45816e-05 -9.81278e-06)
(2.51341e-05 1.72923e-05 -1.09492e-05)
(2.63549e-05 2.03997e-05 -1.22011e-05)
(2.6416e-05 2.41529e-05 -1.35089e-05)
(2.50894e-05 2.76638e-05 -1.47811e-05)
(2.26345e-05 3.09501e-05 -1.59342e-05)
(1.9105e-05 3.36748e-05 -1.69203e-05)
(1.47846e-05 3.58351e-05 -1.76968e-05)
(9.84457e-06 3.73108e-05 -1.82394e-05)
(4.55479e-06 3.80808e-05 -1.85304e-05)
(-8.51528e-07 3.81154e-05 -1.85621e-05)
(-6.10786e-06 3.7415e-05 -1.83343e-05)
(-1.09804e-05 3.60105e-05 -1.78556e-05)
(-1.51994e-05 3.39243e-05 -1.71444e-05)
(-1.85956e-05 3.128e-05 -1.62252e-05)
(-2.08852e-05 2.80822e-05 -1.5142e-05)
(-2.20226e-05 2.46769e-05 -1.39438e-05)
(-2.17485e-05 2.10434e-05 -1.27168e-05)
(-2.0303e-05 1.80888e-05 -1.15546e-05)
(-1.82244e-05 1.55486e-05 -1.05223e-05)
(-1.56216e-05 1.36013e-05 -9.64654e-06)
(-1.27371e-05 1.21097e-05 -8.96515e-06)
(-9.5325e-06 1.11119e-05 -8.51107e-06)
(-5.99062e-06 1.0649e-05 -8.26141e-06)
(-2.01275e-06 1.06843e-05 -7.66937e-06)
(2.77726e-07 1.07577e-05 -4.74258e-06)
(-1.03086e-07 1.38071e-05 -3.46944e-06)
(2.28239e-06 1.48474e-05 -6.2097e-06)
(6.6491e-06 1.55413e-05 -6.81904e-06)
(1.05812e-05 1.67037e-05 -7.04813e-06)
(1.42005e-05 1.8471e-05 -7.45506e-06)
(1.7585e-05 2.08424e-05 -8.08698e-06)
(2.08519e-05 2.38426e-05 -8.92929e-06)
(2.39789e-05 2.75921e-05 -9.97444e-06)
(2.70149e-05 3.21714e-05 -1.12278e-05)
(2.95601e-05 3.79512e-05 -1.26754e-05)
(3.15429e-05 4.4643e-05 -1.43047e-05)
(3.18918e-05 5.28776e-05 -1.6021e-05)
(3.02127e-05 6.04902e-05 -1.77001e-05)
(2.71658e-05 6.75598e-05 -1.9214e-05)
(2.27938e-05 7.33867e-05 -2.05039e-05)
(1.75356e-05 7.79999e-05 -2.15114e-05)
(1.15503e-05 8.11508e-05 -2.2212e-05)
(5.17473e-06 8.27976e-05 -2.25844e-05)
(-1.33954e-06 8.28784e-05 -2.26194e-05)
(-7.67973e-06 8.13939e-05 -2.2317e-05)
(-1.35935e-05 7.8408e-05 -2.1687e-05)
(-1.87423e-05 7.39644e-05 -2.07513e-05)
(-2.2969e-05 6.83189e-05 -1.9535e-05)
(-2.58304e-05 6.14455e-05 -1.80981e-05)
(-2.72952e-05 5.40634e-05 -1.65002e-05)
(-2.66972e-05 4.60872e-05 -1.48731e-05)
(-2.44519e-05 3.97244e-05 -1.33429e-05)
(-2.16333e-05 3.43008e-05 -1.20125e-05)
(-1.82701e-05 3.01418e-05 -1.0904e-05)
(-1.47195e-05 2.68973e-05 -1.00575e-05)
(-1.08301e-05 2.45448e-05 -9.49723e-06)
(-6.56983e-06 2.30118e-05 -9.16573e-06)
(-1.71228e-06 2.20777e-05 -8.3461e-06)
(6.63513e-07 2.05786e-05 -4.78325e-06)
(-5.69383e-08 2.02387e-05 -3.45166e-06)
(2.71077e-06 2.21377e-05 -6.29979e-06)
(7.81485e-06 2.3474e-05 -6.91794e-06)
(1.24768e-05 2.54575e-05 -7.13647e-06)
(1.68263e-05 2.82863e-05 -7.56872e-06)
(2.09633e-05 3.19983e-05 -8.26894e-06)
(2.50857e-05 3.66605e-05 -9.22637e-06)
(2.92058e-05 4.24908e-05 -1.04437e-05)
(3.35436e-05 4.96676e-05 -1.19423e-05)
(3.74644e-05 5.89639e-05 -1.37168e-05)
(4.10977e-05 6.99695e-05 -1.57706e-05)
(4.20596e-05 8.43358e-05 -1.79646e-05)
(3.9582e-05 9.71779e-05 -2.01198e-05)
(3.53665e-05 0.00010895 -2.20425e-05)
(2.94143e-05 0.000118487 -2.36725e-05)
(2.24553e-05 0.000126022 -2.49251e-05)
(1.45884e-05 0.000131145 -2.57913e-05)
(6.26953e-06 0.00013382 -2.62467e-05)
(-2.22673e-06 0.000133947 -2.62823e-05)
(-1.05085e-05 0.000131527 -2.58985e-05)
(-1.82996e-05 0.00012666 -2.5104e-05)
(-2.51396e-05 0.000119386 -2.39241e-05)
(-3.09305e-05 0.000110124 -2.23679e-05)
(-3.49301e-05 9.86451e-05 -2.0522e-05)
(-3.71552e-05 8.61488e-05 -1.84466e-05)
(-3.58815e-05 7.21652e-05 -1.63414e-05)
(-3.19256e-05 6.16722e-05 -1.43857e-05)
(-2.76805e-05 5.29066e-05 -1.27314e-05)
(-2.29336e-05 4.63426e-05 -1.13843e-05)
(-1.82703e-05 4.12221e-05 -1.03834e-05)
(-1.33416e-05 3.74322e-05 -9.74521e-06)
(-8.09708e-06 3.47949e-05 -9.40174e-06)
(-2.26103e-06 3.30102e-05 -8.56156e-06)
(6.18284e-07 3.02998e-05 -4.8304e-06)
(1.87895e-07 2.64286e-05 -3.50229e-06)
(3.58863e-06 2.9022e-05 -6.54503e-06)
(9.68734e-06 3.0964e-05 -7.19757e-06)
(1.53442e-05 3.37993e-05 -7.43131e-06)
(2.07072e-05 3.77712e-05 -7.93097e-06)
(2.59138e-05 4.29344e-05 -8.76195e-06)
(3.12851e-05 4.93856e-05 -9.92393e-06)
(3.69105e-05 5.74471e-05 -1.1444e-05)
(4.33909e-05 6.74531e-05 -1.3373e-05)
(4.97363e-05 8.09075e-05 -1.57318e-05)
(5.67551e-05 9.74653e-05 -1.8553e-05)
(5.89314e-05 0.000121423 -2.16515e-05)
(5.46772e-05 0.000141627 -2.46881e-05)
(4.83475e-05 0.00015975 -2.73721e-05)
(3.97638e-05 0.000174083 -2.96406e-05)
(3.01191e-05 0.000185406 -3.13371e-05)
(1.93028e-05 0.000193066 -3.25063e-05)
(7.96132e-06 0.000197059 -3.31136e-05)
(-3.61774e-06 0.000197236 -3.31519e-05)
(-1.49212e-05 0.000193594 -3.2621e-05)
(-2.56596e-05 0.000186286 -3.15281e-05)
(-3.51767e-05 0.000175313 -2.99083e-05)
(-4.35829e-05 0.000161341 -2.77161e-05)
(-4.96563e-05 0.000143591 -2.51106e-05)
(-5.36067e-05 0.000123832 -2.21533e-05)
(-5.10152e-05 0.000100356 -1.91444e-05)
(-4.35866e-05 8.45271e-05 -1.64216e-05)
(-3.68683e-05 7.17697e-05 -1.41892e-05)
(-2.98834e-05 6.25546e-05 -1.24223e-05)
(-2.35753e-05 5.53899e-05 -1.11426e-05)
(-1.71798e-05 5.00367e-05 -1.03464e-05)
(-1.0579e-05 4.6231e-05 -9.94342e-06)
(-3.41054e-06 4.36154e-05 -9.03715e-06)
(3.06204e-07 3.99037e-05 -4.98285e-06)
(5.61381e-07 3.22292e-05 -3.61383e-06)
(4.84759e-06 3.54376e-05 -6.95564e-06)
(1.22756e-05 3.79935e-05 -7.68767e-06)
(1.92509e-05 4.17513e-05 -7.96898e-06)
(2.59513e-05 4.69984e-05 -8.58208e-06)
(3.25631e-05 5.37854e-05 -9.61398e-06)
(3.95784e-05 6.22148e-05 -1.1085e-05)
(4.72444e-05 7.26691e-05 -1.30709e-05)
(5.69509e-05 8.56886e-05 -1.56665e-05)
(6.73595e-05 0.000104003 -1.89495e-05)
(8.13987e-05 0.000127798 -2.29115e-05)
(8.60183e-05 0.000168531 -2.75053e-05)
(7.77848e-05 0.000199717 -3.20168e-05)
(6.77495e-05 0.000226617 -3.60037e-05)
(5.50235e-05 0.00024728 -3.93793e-05)
(4.14049e-05 0.00026365 -4.17832e-05)
(2.62214e-05 0.000274678 -4.34394e-05)
(1.04327e-05 0.000280424 -4.42906e-05)
(-5.686e-06 0.000280657 -4.43342e-05)
(-2.14389e-05 0.000275375 -4.35701e-05)
(-3.65486e-05 0.000264804 -4.19999e-05)
(-5.00387e-05 0.000248876 -3.96815e-05)
(-6.25803e-05 0.000228654 -3.63883e-05)
(-7.23161e-05 0.000202182 -3.24842e-05)
(-8.01891e-05 0.000171513 -2.80521e-05)
(-7.49754e-05 0.000131306 -2.3547e-05)
(-6.03987e-05 0.000108553 -1.96832e-05)
(-4.9603e-05 9.10926e-05 -1.65366e-05)
(-3.92882e-05 7.90176e-05 -1.41177e-05)
(-3.07723e-05 6.96178e-05 -1.24031e-05)
(-2.24502e-05 6.25026e-05 -1.13539e-05)
(-1.40565e-05 5.73845e-05 -1.08293e-05)
(-5.08118e-06 5.38747e-05 -9.78087e-06)
(-1.75874e-07 4.92382e-05 -5.23757e-06)
(1.05687e-06 3.75208e-05 -3.76172e-06)
(6.49685e-06 4.13277e-05 -7.4917e-06)
(1.56463e-05 4.4561e-05 -8.34148e-06)
(2.43253e-05 4.93834e-05 -8.69608e-06)
(3.27428e-05 5.61398e-05 -9.46341e-06)
(4.11289e-05 6.48575e-05 -1.07646e-05)
(5.01644e-05 7.55861e-05 -1.26542e-05)
(6.03625e-05 8.85142e-05 -1.52984e-05)
(7.4604e-05 0.000104248 -1.8864e-05)
(9.13742e-05 0.000126629 -2.34694e-05)
(0.000120181 0.000158701 -2.89075e-05)
(0.000129884 0.000230445 -3.57809e-05)
(0.000112306 0.000277956 -4.24495e-05)
(9.57395e-05 0.000316881 -4.84906e-05)
(7.67299e-05 0.000346127 -5.36752e-05)
(5.74799e-05 0.000369533 -5.70461e-05)
(3.60552e-05 0.000385298 -5.93988e-05)
(1.39337e-05 0.000393507 -6.05979e-05)
(-8.66063e-06 0.000393813 -6.06507e-05)
(-3.07539e-05 0.00038621 -5.95567e-05)
(-5.21218e-05 0.000371034 -5.73065e-05)
(-7.12615e-05 0.00034818 -5.40366e-05)
(-9.01069e-05 0.00031945 -4.89443e-05)
(-0.000106342 0.000280973 -4.29928e-05)
(-0.000123525 0.000233977 -3.64019e-05)
(-0.000112891 0.000162666 -2.96101e-05)
(-8.33456e-05 0.000132196 -2.42689e-05)
(-6.62923e-05 0.000110792 -1.98092e-05)
(-5.1342e-05 9.61062e-05 -1.64366e-05)
(-4.00923e-05 8.43393e-05 -1.41006e-05)
(-2.93768e-05 7.51111e-05 -1.26997e-05)
(-1.86844e-05 6.83777e-05 -1.19965e-05)
(-7.32905e-06 6.37845e-05 -1.07383e-05)
(-8.34029e-07 5.81747e-05 -5.56094e-06)
(1.69401e-06 4.21065e-05 -3.92738e-06)
(8.60173e-06 4.64835e-05 -8.12718e-06)
(1.99422e-05 5.04567e-05 -9.12663e-06)
(3.08128e-05 5.64924e-05 -9.57429e-06)
(4.14337e-05 6.50295e-05 -1.05336e-05)
(5.20169e-05 7.6085e-05 -1.2176e-05)
(6.32466e-05 8.96118e-05 -1.46115e-05)
(7.58722e-05 0.000105181 -1.81841e-05)
(9.46014e-05 0.000122762 -2.31251e-05)
(0.000119473 0.000147426 -2.9836e-05)
(0.000178978 0.000184523 -3.51405e-05)
(0.000199946 0.000318661 -4.42192e-05)
(0.000161961 0.000388873 -5.42755e-05)
(0.000135239 0.000442075 -6.36664e-05)
(0.000107483 0.000481978 -7.17523e-05)
(8.04851e-05 0.000514244 -7.62023e-05)
(5.01485e-05 0.000536166 -7.93794e-05)
(1.89325e-05 0.000547589 -8.09942e-05)
(-1.29704e-05 0.000547994 -8.10598e-05)
(-4.4173e-05 0.00053737 -7.95759e-05)
(-7.44892e-05 0.00051622 -7.65249e-05)
(-0.000101431 0.000484655 -7.21989e-05)
(-0.000129108 0.000445357 -6.42203e-05)
(-0.000155539 0.000392564 -5.493e-05)
(-0.000193207 0.000322772 -4.49616e-05)
(-0.000170622 0.000188629 -3.59255e-05)
(-0.00011003 0.000154334 -3.07075e-05)
(-8.52731e-05 0.000130647 -2.41559e-05)
(-6.57241e-05 0.000114087 -1.94292e-05)
(-5.1792e-05 9.96706e-05 -1.6209e-05)
(-3.83916e-05 8.77499e-05 -1.43423e-05)
(-2.48062e-05 7.89576e-05 -1.34053e-05)
(-1.03461e-05 7.30271e-05 -1.18743e-05)
(-1.73853e-06 6.64048e-05 -5.91526e-06)
(2.47808e-06 4.57592e-05 -4.10388e-06)
(1.11932e-05 5.0682e-05 -8.85009e-06)
(2.52447e-05 5.54875e-05 -1.00304e-05)
(3.88915e-05 6.29794e-05 -1.05903e-05)
(5.23546e-05 7.38224e-05 -1.17781e-05)
(6.57494e-05 8.8198e-05 -1.38248e-05)
(7.93736e-05 0.000106131 -1.69198e-05)
(9.36505e-05 0.00012558 -2.16562e-05)
(0.000115633 0.000144858 -2.87135e-05)
(0.000143299 0.000158058 -3.69163e-05)
(0.000260815 0.000163186 -4.51916e-05)
(0.00030787 0.000424154 -4.84835e-05)
(0.000225793 0.000525353 -6.0886e-05)
(0.00018648 0.00059609 -7.48415e-05)
(0.000148511 0.000651508 -8.65499e-05)
(0.000111563 0.000696543 -9.16571e-05)
(6.93738e-05 0.000727428 -9.55903e-05)
(2.57581e-05 0.000743395 -9.75737e-05)
(-1.88778e-05 0.00074393 -9.76515e-05)
(-6.25037e-05 0.00072902 -9.58235e-05)
(-0.000104734 0.000699164 -9.20376e-05)
(-0.000141737 0.000655064 -8.70775e-05)
(-0.000179833 0.000600413 -7.54874e-05)
(-0.000219022 0.000530073 -6.16508e-05)
(-0.000301262 0.000428903 -4.93331e-05)
(-0.00025124 0.000166215 -4.62141e-05)
(-0.000131998 0.000166444 -3.78856e-05)
(-0.000105527 0.00015415 -2.98281e-05)
(-8.25182e-05 0.000135722 -2.3017e-05)
(-6.6572e-05 0.00011731 -1.86853e-05)
(-5.01182e-05 0.00010101 -1.62571e-05)
(-3.28058e-05 8.91329e-05 -1.50465e-05)
(-1.43122e-05 8.13413e-05 -1.31818e-05)
(-2.92954e-06 7.35612e-05 -6.29496e-06)
(3.45057e-06 4.8135e-05 -4.27146e-06)
(1.43861e-05 5.34729e-05 -9.64159e-06)
(3.18248e-05 5.90235e-05 -1.10287e-05)
(4.91582e-05 6.79042e-05 -1.17122e-05)
(6.67003e-05 8.11171e-05 -1.31513e-05)
(8.44907e-05 9.93206e-05 -1.56335e-05)
(0.000101296 0.000123006 -1.93673e-05)
(0.000116555 0.000149218 -2.55621e-05)
(0.000128134 0.000168564 -3.36435e-05)
(0.000106903 0.000130947 -4.71788e-05)
(0.000316528 0.000163425 -5.78169e-05)
(0.000442599 0.00063582 -3.9429e-05)
(0.000296964 0.000720119 -5.16356e-05)
(0.000255155 0.000784441 -6.75352e-05)
(0.000208085 0.000852791 -8.04523e-05)
(0.000156967 0.000908228 -8.39728e-05)
(9.74494e-05 0.000948239 -8.73528e-05)
(3.56014e-05 0.000968869 -8.9096e-05)
(-2.75003e-05 0.000969565 -8.91716e-05)
(-8.93748e-05 0.000950321 -8.75803e-05)
(-0.000148992 0.000911669 -8.43368e-05)
(-0.000200306 0.0008575 -8.09675e-05)
(-0.000247813 0.000790199 -6.81554e-05)
(-0.000290088 0.000726216 -5.23645e-05)
(-0.000438165 0.000640131 -4.04073e-05)
(-0.000306833 0.000166233 -5.91947e-05)
(-9.37964e-05 0.000144044 -4.80144e-05)
(-0.000117869 0.000180765 -3.47901e-05)
(-0.000104722 0.000160889 -2.70498e-05)
(-8.72381e-05 0.000135163 -2.13209e-05)
(-6.67584e-05 0.000112955 -1.83725e-05)
(-4.39041e-05 9.73699e-05 -1.68867e-05)
(-1.98091e-05 8.75759e-05 -1.46361e-05)
(-4.61977e-06 7.87819e-05 -6.63444e-06)
(4.52819e-06 4.89797e-05 -4.44569e-06)
(1.79642e-05 5.46013e-05 -1.04958e-05)
(3.92737e-05 6.08183e-05 -1.21242e-05)
(6.10205e-05 7.11292e-05 -1.29661e-05)
(8.38884e-05 8.72786e-05 -1.47183e-05)
(0.000108186 0.000111584 -1.76388e-05)
(0.000131959 0.000148149 -2.18372e-05)
(0.000150334 0.000201185 -2.70829e-05)
(0.000131931 0.000271252 -3.76921e-05)
(0.000132812 0.000310432 -5.20714e-05)
(0.000214764 0.000576743 3.7167e-05)
(0.000267337 0.000756707 1.48909e-05)
(0.000309911 0.000880616 9.70722e-06)
(0.000276448 0.000990445 1.29325e-05)
(0.000210739 0.00106939 1.20802e-05)
(0.000132365 0.00112275 1.13973e-05)
(4.78979e-05 0.00114916 1.1136e-05)
(-3.81735e-05 0.00114996 1.1134e-05)
(-0.000122682 0.00112517 1.13899e-05)
(-0.000201204 0.00107348 1.20746e-05)
(-0.000267236 0.000996284 1.29209e-05)
(-0.000301595 0.000888349 9.73383e-06)
(-0.000261184 0.000766272 1.47305e-05)
(-0.0002107 0.000586847 3.6504e-05)
(-0.000129196 0.000320887 -5.15944e-05)
(-0.000125874 0.000282811 -3.86323e-05)
(-0.000139739 0.000212742 -2.86653e-05)
(-0.000117323 0.00016037 -2.39812e-05)
(-8.85343e-05 0.000125372 -2.07186e-05)
(-5.77299e-05 0.000103821 -1.89949e-05)
(-2.64699e-05 9.13759e-05 -1.628e-05)
(-6.60249e-06 8.15075e-05 -7.01553e-06)
(5.76752e-06 4.79466e-05 -4.598e-06)
(2.20611e-05 5.35016e-05 -1.13659e-05)
(4.79792e-05 5.97487e-05 -1.32363e-05)
(7.56824e-05 7.01822e-05 -1.42269e-05)
(0.000107367 8.66501e-05 -1.62853e-05)
(0.000146531 0.000111765 -1.96807e-05)
(0.000197434 0.00015042 -2.44521e-05)
(0.000271329 0.000209047 -2.96781e-05)
(0.00036887 0.000295115 -3.34584e-05)
(0.000568984 0.000390712 -2.82894e-05)
(0.00058622 0.000128431 2.44107e-05)
(0.000483279 0.000292785 2.34877e-05)
(0.000550816 0.000577994 9.42043e-05)
(0.000498289 0.000751697 0.000144428)
(0.000408298 0.000880313 0.000175444)
(0.000296501 0.000967483 0.000188189)
(0.000181374 0.00102293 0.000194655)
(6.41966e-05 0.00104974 0.000197334)
(-5.27515e-05 0.00105049 0.00019739)
(-0.000169892 0.00102519 0.000194826)
(-0.000284969 0.000971323 0.000188493)
(-0.000396635 0.000885896 0.000175898)
(-0.000486495 0.000759326 0.000145173)
(-0.000538633 0.000588008 9.52278e-05)
(-0.000469292 0.000305055 2.51669e-05)
(-0.000576275 0.0001317 2.56285e-05)
(-0.000563532 0.000395931 -2.81167e-05)
(-0.00036011 0.000303844 -3.42817e-05)
(-0.000259385 0.000219249 -3.11467e-05)
(-0.000181313 0.000161924 -2.67194e-05)
(-0.000124623 0.000125086 -2.31209e-05)
(-7.76532e-05 0.000102821 -2.11872e-05)
(-3.5594e-05 9.01142e-05 -1.80151e-05)
(-9.35927e-06 8.02505e-05 -7.31884e-06)
(6.86053e-06 4.50024e-05 -4.76023e-06)
(2.56985e-05 5.01202e-05 -1.22102e-05)
(5.56001e-05 5.57051e-05 -1.43361e-05)
(8.79877e-05 6.48156e-05 -1.55193e-05)
(0.000125659 7.86448e-05 -1.79648e-05)
(0.000172944 9.8413e-05 -2.20338e-05)
(0.000234724 0.000125667 -2.77871e-05)
(0.000322217 0.000160684 -3.48627e-05)
(0.000435461 0.000197942 -4.08871e-05)
(0.000612813 0.000219314 -4.22212e-05)
(0.000692353 0.000130785 -2.46837e-05)
(0.000712504 0.000276616 -1.23515e-06)
(0.000723273 0.000432993 0.000103358)
(0.000621523 0.00054848 0.000158517)
(0.000500001 0.000640765 0.000190421)
(0.000358483 0.000705399 0.000205148)
(0.000217432 0.000747423 0.000212187)
(7.63531e-05 0.000768036 0.000214928)
(-6.35609e-05 0.00076865 0.000214975)
(-0.00020458 0.000749271 0.000212332)
(-0.000345531 0.000708504 0.000205409)
(-0.000486835 0.000645157 0.000190822)
(-0.000608202 0.000554181 0.000159203)
(-0.00070964 0.000439757 0.00010435)
(-0.000698765 0.000283798 6.87349e-07)
(-0.000681417 0.000134611 -2.36636e-05)
(-0.000604182 0.000226 -4.21347e-05)
(-0.000425355 0.00020614 -4.16407e-05)
(-0.000309108 0.000170084 -3.63519e-05)
(-0.000217095 0.000136377 -3.02035e-05)
(-0.000148777 0.000110933 -2.58055e-05)
(-9.24686e-05 9.38999e-05 -2.34148e-05)
(-4.26315e-05 8.35731e-05 -1.97037e-05)
(-1.14465e-05 7.48739e-05 -7.69103e-06)
(7.84223e-06 4.04498e-05 -4.90082e-06)
(2.89337e-05 4.49542e-05 -1.29641e-05)
(6.23263e-05 4.96854e-05 -1.53068e-05)
(9.86661e-05 5.72538e-05 -1.66351e-05)
(0.000141068 6.84388e-05 -1.93708e-05)
(0.000194021 8.38178e-05 -2.39453e-05)
(0.000262119 0.000103783 -3.04618e-05)
(0.000354646 0.000127947 -3.89707e-05)
(0.000469689 0.000152127 -4.74897e-05)
(0.000624725 0.000171438 -5.40114e-05)
(0.000736448 0.000153732 -4.33863e-05)
(0.00082301 0.000229065 -1.19183e-05)
(0.000830228 0.00032099 9.39137e-05)
(0.000710499 0.000399555 0.0001454)
(0.000568156 0.000465101 0.000175193)
(0.000405033 0.000511841 0.000186937)
(0.000244989 0.000542927 0.000192209)
(8.57245e-05 0.00055834 0.00019407)
(-7.17957e-05 0.00055886 0.0001941)
(-0.000230992 0.000544485 0.0001923)
(-0.000390926 0.000514434 0.000187108)
(-0.000553831 0.000468709 0.000175467)
(-0.00069611 0.00040414 0.000145925)
(-0.000815712 0.000326338 9.47154e-05)
(-0.00080955 0.000234933 -1.02127e-05)
(-0.00072537 0.00015857 -4.25361e-05)
(-0.000614654 0.000177568 -5.38259e-05)
(-0.000458391 0.000159335 -4.81966e-05)
(-0.000340282 0.000136286 -4.04895e-05)
(-0.000242951 0.000113388 -3.30167e-05)
(-0.000167662 9.51332e-05 -2.80028e-05)
(-0.000104638 8.22303e-05 -2.5284e-05)
(-4.85401e-05 7.4103e-05 -2.11457e-05)
(-1.32498e-05 6.66816e-05 -7.98542e-06)
(8.60861e-06 3.45509e-05 -5.03938e-06)
(3.14755e-05 3.82737e-05 -1.36162e-05)
(6.75686e-05 4.19838e-05 -1.6143e-05)
(0.000106766 4.77849e-05 -1.75963e-05)
(0.000152272 5.61255e-05 -2.05768e-05)
(0.000208452 6.71757e-05 -2.55692e-05)
(0.000279617 8.08219e-05 -3.27076e-05)
(0.00037371 9.66986e-05 -4.22122e-05)
(0.000489284 0.000112371 -5.21612e-05)
(0.000637374 0.000128227 -6.06169e-05)
(0.00076659 0.000134101 -5.11866e-05)
(0.000885808 0.000178699 -2.24769e-05)
(0.000895524 0.000234949 8.20768e-05)
(0.00076679 0.000285087 0.000129514)
(0.000613078 0.000328418 0.000156494)
(0.000436869 0.000360511 0.000165684)
(0.000264241 0.000382317 0.000169474)
(9.23853e-05 0.000393308 0.000170579)
(-7.75069e-05 0.000393761 0.000170594)
(-0.000249308 0.000383666 0.000169519)
(-0.000421858 0.000362729 0.000165776)
(-0.000597903 0.000331449 0.000156657)
(-0.000751675 0.000288857 0.0001299)
(-0.000880436 0.000239283 8.27224e-05)
(-0.000872204 0.00018348 -2.08647e-05)
(-0.000755124 0.000138794 -5.04091e-05)
(-0.000626331 0.000133749 -6.04592e-05)
(-0.000477003 0.000118696 -5.29053e-05)
(-0.000358233 0.000103949 -4.38052e-05)
(-0.000259052 8.91672e-05 -3.54025e-05)
(-0.000180148 7.69951e-05 -2.98713e-05)
(-0.000113053 6.80221e-05 -2.68663e-05)
(-5.26647e-05 6.21602e-05 -2.23726e-05)
(-1.44836e-05 5.62658e-05 -8.29743e-06)
(9.19157e-06 2.76894e-05 -5.15881e-06)
(3.34078e-05 3.05781e-05 -1.41423e-05)
(7.1538e-05 3.3311e-05 -1.6809e-05)
(0.000112818 3.75137e-05 -1.83509e-05)
(0.000160481 4.34652e-05 -2.15053e-05)
(0.000218764 5.12098e-05 -2.6791e-05)
(0.000291837 6.05915e-05 -3.43621e-05)
(0.000386928 7.14594e-05 -4.45166e-05)
(0.000503351 8.26299e-05 -5.53505e-05)
(0.000650535 9.5308e-05 -6.49426e-05)
(0.000789635 0.000106348 -5.62331e-05)
(0.000924611 0.000134589 -2.90962e-05)
(0.000936987 0.000169486 7.48745e-05)
(0.000804368 0.000202113 0.000120394)
(0.000643886 0.000230938 0.000145961)
(0.00045916 0.000252807 0.00015376)
(0.000277914 0.000267876 0.000156699)
(9.72099e-05 0.000275594 0.000157371)
(-8.14753e-05 0.000276012 0.000157378)
(-0.000262148 0.000269116 0.000156721)
(-0.000443368 0.000254827 0.000153813)
(-0.000628005 0.000233662 0.000146067)
(-0.000788665 0.000205445 0.000120705)
(-0.000921432 0.000173281 7.54318e-05)
(-0.000910733 0.000138754 -2.75712e-05)
(-0.000777777 0.000110663 -5.55229e-05)
(-0.000638829 0.000100161 -6.48276e-05)
(-0.000490333 8.80386e-05 -5.61498e-05)
(-0.000370553 7.7558e-05 -4.61884e-05)
(-0.000270122 6.75404e-05 -3.71814e-05)
(-0.000188871 5.9307e-05 -3.12929e-05)
(-0.000119027 5.31556e-05 -2.8091e-05)
(-5.56014e-05 4.90523e-05 -2.33385e-05)
(-1.53648e-05 4.45817e-05 -8.55862e-06)
(9.58487e-06 2.01597e-05 -5.26196e-06)
(3.47285e-05 2.21693e-05 -1.45396e-05)
(7.42526e-05 2.39545e-05 -1.73054e-05)
(0.000116922 2.66619e-05 -1.89082e-05)
(0.000165979 3.04668e-05 -2.21805e-05)
(0.000225591 3.53848e-05 -2.76602e-05)
(0.000299908 4.13336e-05 -3.55104e-05)
(0.000395895 4.83167e-05 -4.60559e-05)
(0.000513523 5.59077e-05 -5.73919e-05)
(0.000661761 6.50988e-05 -6.75702e-05)
(0.000806285 7.49096e-05 -5.9351e-05)
(0.000949016 9.23673e-05 -3.29576e-05)
(0.000963164 0.000113528 7.11752e-05)
(0.000828439 0.000133598 0.000116062)
(0.00066393 0.000151466 0.000141099)
(0.000473932 0.000165298 0.000148309)
(0.000287101 0.000174942 0.000150882)
(0.000100548 0.000179989 0.000151361)
(-8.40076e-05 0.000180396 0.000151365)
(-0.000270564 0.000176144 0.000150893)
(-0.000457436 0.000167235 0.000148342)
(-0.000647442 0.000154044 0.000141178)
(-0.000812253 0.000136691 0.000116335)
(-0.000947244 0.000116991 7.16845e-05)
(-0.000934887 9.60849e-05 -3.14955e-05)
(-0.000794125 7.87679e-05 -5.87037e-05)
(-0.000649623 6.92584e-05 -6.75131e-05)
(-0.000499999 6.03959e-05 -5.8257e-05)
(-0.000378881 5.32356e-05 -4.78072e-05)
(-0.000277358 4.68059e-05 -3.84379e-05)
(-0.000194543 4.16177e-05 -3.23207e-05)
(-0.000122919 3.77548e-05 -2.89903e-05)
(-5.74975e-05 3.51498e-05 -2.40602e-05)
(-1.59174e-05 3.2093e-05 -8.78353e-06)
(9.80858e-06 1.22552e-05 -5.34216e-06)
(3.54962e-05 1.33755e-05 -1.48024e-05)
(7.58406e-05 1.42622e-05 -1.76268e-05)
(0.000119326 1.55877e-05 -1.92635e-05)
(0.000169209 1.74618e-05 -2.26022e-05)
(0.000229635 1.99177e-05 -2.81907e-05)
(0.000304777 2.2972e-05 -3.61964e-05)
(0.000401528 2.67023e-05 -4.69539e-05)
(0.000520201 3.10811e-05 -5.85555e-05)
(0.00066964 3.65624e-05 -6.90296e-05)
(0.000816958 4.29736e-05 -6.10377e-05)
(0.000963226 5.2149e-05 -3.48811e-05)
(0.00097828 6.27833e-05 6.95906e-05)
(0.000842418 7.28866e-05 0.000114397)
(0.000675668 8.18477e-05 0.000139319)
(0.000482701 8.89142e-05 0.000146342)
(0.000292641 9.39161e-05 0.000148792)
(0.000102677 9.66565e-05 0.000149204)
(-8.53319e-05 9.7077e-05 0.000149206)
(-0.000275345 9.51532e-05 0.000148798)
(-0.000465533 9.08901e-05 0.000146367)
(-0.000658632 8.44421e-05 0.000139383)
(-0.000825832 7.59332e-05 0.000114648)
(-0.000962105 6.61084e-05 7.0067e-05)
(-0.000948956 5.55832e-05 -3.34742e-05)
(-0.000804657 4.642e-05 -6.04517e-05)
(-0.000657303 4.00778e-05 -6.90351e-05)
(-0.000506424 3.46824e-05 -5.94871e-05)
(-0.000384172 3.0452e-05 -4.87787e-05)
(-0.000281755 2.6943e-05 -3.92127e-05)
(-0.000197916 2.42241e-05 -3.29687e-05)
(-0.000125202 2.22569e-05 -2.95679e-05)
(-5.8596e-05 2.09328e-05 -2.45343e-05)
(-1.62289e-05 1.92343e-05 -8.94932e-06)
(9.86745e-06 4.21646e-06 -5.39975e-06)
(3.57299e-05 4.44392e-06 -1.49311e-05)
(7.63449e-05 4.44525e-06 -1.7775e-05)
(0.000120114 4.41785e-06 -1.94219e-05)
(0.00017031 4.41371e-06 -2.2781e-05)
(0.000231101 4.49072e-06 -2.84029e-05)
(0.000306694 4.76353e-06 -3.64561e-05)
(0.000404007 5.36262e-06 -4.7277e-05)
(0.000523394 6.56813e-06 -5.8956e-05)
(0.000673666 8.3105e-06 -6.95154e-05)
(0.000821878 1.08982e-05 -6.15747e-05)
(0.00096883 1.26759e-05 -3.54241e-05)
(0.000983937 1.3801e-05 6.92841e-05)
(0.000847557 1.47379e-05 0.000114207)
(0.000679992 1.54013e-05 0.000139188)
(0.000486028 1.60949e-05 0.000146231)
(0.000294858 1.67079e-05 0.000148685)
(0.000103714 1.72737e-05 0.000149097)
(-8.55165e-05 1.77354e-05 0.000149097)
(-0.000276766 1.80635e-05 0.000148686)
(-0.000468175 1.82441e-05 0.000146245)
(-0.000662435 1.8192e-05 0.000139236)
(-0.000830642 1.79444e-05 0.000114433)
(-0.000967633 1.71975e-05 6.97236e-05)
(-0.000954581 1.60038e-05 -3.40812e-05)
(-0.000809636 1.40342e-05 -6.10596e-05)
(-0.000661373 1.127e-05 -6.95936e-05)
(-0.000509635 9.35332e-06 -5.99586e-05)
(-0.000386625 7.99789e-06 -4.91715e-05)
(-0.00028359 7.26703e-06 -3.95439e-05)
(-0.00019922 6.88344e-06 -3.32601e-05)
(-0.000126032 6.71296e-06 -2.9838e-05)
(-5.89761e-05 6.61459e-06 -2.47684e-05)
(-1.63219e-05 6.26962e-06 -9.05696e-06)
(9.76573e-06 -3.6961e-06 -5.42991e-06)
(3.54349e-05 -4.35728e-06 -1.4925e-05)
(7.57684e-05 -5.25141e-06 -1.77511e-05)
(0.000119286 -6.65731e-06 -1.93851e-05)
(0.00016928 -8.59166e-06 -2.27195e-05)
(0.000229984 -1.09843e-05 -2.83009e-05)
(0.000305648 -1.36262e-05 -3.62959e-05)
(0.000403329 -1.63073e-05 -4.70358e-05)
(0.000523141 -1.83262e-05 -5.861e-05)
(0.000673956 -2.01747e-05 -6.90536e-05)
(0.000821317 -2.06824e-05 -6.10051e-05)
(0.000966144 -2.63093e-05 -3.46601e-05)
(0.000980356 -3.52269e-05 7.01606e-05)
(0.000844022 -4.38501e-05 0.000115377)
(0.000677022 -5.18215e-05 0.000140574)
(0.000484004 -5.76679e-05 0.000147828)
(0.000293818 -6.15302e-05 0.000150407)
(0.000103704 -6.31522e-05 0.000150881)
(-8.45418e-05 -6.26125e-05 0.000150877)
(-0.000274834 -5.99448e-05 0.000150395)
(-0.000465401 -5.5163e-05 0.000147821)
(-0.000658929 -4.85848e-05 0.000140592)
(-0.000826832 -4.01929e-05 0.000115557)
(-0.000964063 -3.14529e-05 7.05401e-05)
(-0.000952135 -2.28289e-05 -3.34087e-05)
(-0.000809383 -1.76856e-05 -6.05833e-05)
(-0.00066197 -1.7627e-05 -6.92246e-05)
(-0.000509688 -1.62329e-05 -5.96953e-05)
(-0.000386254 -1.46751e-05 -4.90016e-05)
(-0.000282867 -1.24897e-05 -3.94417e-05)
(-0.000198461 -1.04136e-05 -3.32019e-05)
(-0.000125415 -8.70337e-06 -2.98057e-05)
(-5.86421e-05 -7.53312e-06 -2.47657e-05)
(-1.61979e-05 -6.52449e-06 -9.10675e-06)
(9.4923e-06 -1.1233e-05 -5.44231e-06)
(3.45869e-05 -1.27761e-05 -1.47886e-05)
(7.40696e-05 -1.46112e-05 -1.75565e-05)
(0.000116763 -1.75024e-05 -1.91522e-05)
(0.000165978 -2.15775e-05 -2.24129e-05)
(0.000226064 -2.68076e-05 -2.78731e-05)
(0.000301362 -3.29252e-05 -3.56939e-05)
(0.00039928 -3.95689e-05 -4.61876e-05)
(0.000519456 -4.52424e-05 -5.74415e-05)
(0.000671194 -5.0385e-05 -6.75117e-05)
(0.000815658 -5.14844e-05 -5.91278e-05)
(0.000954287 -6.55818e-05 -3.2179e-05)
(0.000966379 -8.71436e-05 7.28356e-05)
(0.000830907 -0.000107474 0.000118815)
(0.000666127 -0.00012585 0.00014458)
(0.00047628 -0.000139265 0.000152405)
(0.000289351 -0.000148196 0.000155319)
(0.000102625 -0.000152234 0.000155961)
(-8.23027e-05 -0.000151565 0.000155948)
(-0.000269296 -0.000146224 0.000155279)
(-0.000456778 -0.000136144 0.000152349)
(-0.000647419 -0.000121798 0.00014453)
(-0.000813457 -0.000102928 0.000118903)
(-0.000950253 -8.25122e-05 7.31067e-05)
(-0.000940812 -6.15598e-05 -3.10691e-05)
(-0.000804345 -4.83997e-05 -5.8838e-05)
(-0.000659803 -4.80517e-05 -6.78122e-05)
(-0.000506612 -4.36583e-05 -5.86334e-05)
(-0.000382853 -3.87652e-05 -4.82354e-05)
(-0.000279315 -3.29848e-05 -3.88902e-05)
(-0.000195422 -2.78878e-05 -3.27859e-05)
(-0.000123213 -2.39277e-05 -2.94678e-05)
(-5.75233e-05 -2.12901e-05 -2.45275e-05)
(-1.58363e-05 -1.88778e-05 -9.10303e-06)
(9.03215e-06 -1.811e-05 -5.44011e-06)
(3.31358e-05 -2.04822e-05 -1.45285e-05)
(7.11299e-05 -2.32733e-05 -1.71995e-05)
(0.000112304 -2.77297e-05 -1.87318e-05)
(0.000159964 -3.41566e-05 -2.18676e-05)
(0.000218624 -4.26727e-05 -2.71149e-05)
(0.000292844 -5.30904e-05 -3.46207e-05)
(0.000390861 -6.48983e-05 -4.4634e-05)
(0.000511906 -7.53587e-05 -5.52267e-05)
(0.000666944 -8.38234e-05 -6.44238e-05)
(0.00080548 -7.89567e-05 -5.55294e-05)
(0.000930259 -0.000104281 -2.73893e-05)
(0.000938326 -0.000145382 7.83674e-05)
(0.000805155 -0.000181799 0.000126226)
(0.000645108 -0.000213705 0.000153316)
(0.00046156 -0.000236475 0.00016242)
(0.000280791 -0.000251481 0.000166089)
(0.000100314 -0.000258329 0.000167099)
(-7.85157e-05 -0.00025746 0.000167065)
(-0.000259359 -0.0002489 0.000165987)
(-0.000440881 -0.000232353 0.000162259)
(-0.000625594 -0.000208265 0.00015312)
(-0.000787388 -0.000175656 0.000126127)
(-0.000922552 -0.000139078 7.84392e-05)
(-0.000917775 -9.90777e-05 -2.65117e-05)
(-0.00079521 -7.55009e-05 -5.54439e-05)
(-0.000656451 -8.14206e-05 -6.49312e-05)
(-0.000499981 -7.39972e-05 -5.65802e-05)
(-0.000375427 -6.46531e-05 -4.67953e-05)
(-0.000271937 -5.40843e-05 -3.78726e-05)
(-0.000189378 -4.51392e-05 -3.20143e-05)
(-0.000118978 -3.84674e-05 -2.88321e-05)