/*--------------------------------*- C++ -*----------------------------------*\
| =========                 |                                                 |
| \\      /  F ield         | OpenFOAM: The Open Source CFD Toolbox           |
|  \\    /   O peration     | Version:  2112                                  |
|   \\  /    A nd           | Website:  www.openfoam.com                      |
|    \\/     M anipulation  |                                                 |
\*---------------------------------------------------------------------------*/
FoamFile
{
    version     2.0;
    format      ascii;
    arch        "LSB;label=32;scalar=64";
    class       volScalarField;
    location    "1.4";
    object      epsilon;
}
// * * * * * * * * * * * * * * * * * * * * * * * * * * * * * * * * * * * * * //

dimensions      [0 2 -3 0 0 0 0];

internalField   nonuniform List<scalar> 
64906
(
0.00286284
0.00306808
0.00315617
0.0031815
0.0031875
0.00318878
0.00318907
0.00318917
0.00318925
0.00318931
0.00318938
0.00318943
0.00318947
0.00318949
0.00318949
0.00318949
0.00318947
0.00318946
0.00318945
0.00318945
0.00318946
0.00318947
0.00318946
0.00318944
0.0031894
0.00318935
0.00318929
0.00318918
0.0031889
0.00318762
0.00318161
0.00315628
0.00306819
0.00286292
0.00306814
0.00470318
0.00540014
0.0056265
0.00568885
0.00570383
0.00570711
0.00570787
0.00570815
0.00570835
0.00570853
0.0057087
0.00570886
0.00570899
0.0057091
0.00570918
0.00570923
0.00570926
0.00570926
0.00570924
0.0057092
0.00570912
0.00570902
0.0057089
0.00570874
0.00570857
0.00570829
0.00570753
0.00570424
0.00568925
0.00562687
0.0054005
0.00470349
0.00306829
0.0031563
0.00540035
0.00645087
0.00682649
0.00694036
0.00697034
0.00697747
0.00697921
0.00697982
0.00698024
0.00698066
0.00698116
0.00698165
0.00698211
0.00698249
0.00698277
0.00698296
0.00698306
0.00698307
0.00698299
0.00698282
0.00698255
0.00698219
0.00698175
0.00698127
0.00698075
0.00698009
0.00697834
0.00697117
0.00694115
0.00682724
0.00645155
0.0054009
0.00315655
0.0031817
0.00562687
0.00682668
0.00727718
0.00742054
0.0074601
0.00746993
0.00747235
0.00747304
0.00747332
0.00747369
0.00747447
0.0074754
0.00747627
0.007477
0.00747751
0.00747784
0.00747801
0.00747802
0.00747788
0.00747758
0.00747709
0.00747639
0.00747554
0.00747463
0.0074738
0.00747309
0.00747088
0.00746119
0.00742164
0.00727823
0.00682763
0.0056276
0.00318201
0.00318774
0.00568931
0.00694066
0.00742065
0.00757679
0.00762082
0.00763185
0.00763414
0.00763374
0.00763214
0.00763086
0.00763178
0.00763347
0.00763512
0.00763639
0.00763714
0.00763756
0.00763778
0.00763779
0.00763761
0.00763723
0.00763651
0.00763526
0.00763364
0.00763197
0.007631
0.00763186
0.00763124
0.00762143
0.00757794
0.0074219
0.00694181
0.00569018
0.00318811
0.00318905
0.0057043
0.00697066
0.00746024
0.00762084
0.00766634
0.00767709
0.00767705
0.00767101
0.00766023
0.00765076
0.00765212
0.00765668
0.00766066
0.0076633
0.00766427
0.00766461
0.00766477
0.00766479
0.00766467
0.00766437
0.00766344
0.00766083
0.00765688
0.00765234
0.00765091
0.00765995
0.0076684
0.00766378
0.00762112
0.00746143
0.00697195
0.00570531
0.00318947
0.00318935
0.00570756
0.00697776
0.00747002
0.00763182
0.00767704
0.0076849
0.00767577
0.00764835
0.00760166
0.00755966
0.00756835
0.00758693
0.00759977
0.00760662
0.00760791
0.0076078
0.00760774
0.00760776
0.00760788
0.00760803
0.00760679
0.00759998
0.00758717
0.0075686
0.00755982
0.0076014
0.00764574
0.00766238
0.00762835
0.00747039
0.00697902
0.00570868
0.00318983
0.00318946
0.00570827
0.00697941
0.00747233
0.007634
0.00767697
0.0076759
0.00763922
0.00754405
0.00737586
0.00721682
0.00728144
0.00736251
0.00740694
0.00742616
0.00742875
0.00742804
0.00742766
0.00742769
0.00742813
0.0074289
0.00742637
0.00740719
0.00736281
0.00728174
0.00721699
0.00737563
0.00754151
0.0076259
0.00761932
0.00746995
0.00698023
0.00570941
0.00319
0.00318952
0.00570845
0.00697988
0.00747287
0.00763353
0.00767124
0.00764974
0.0075467
0.00727463
0.00674803
0.00618886
0.00655204
0.0068635
0.00700068
0.00704871
0.00705693
0.0070573
0.00705718
0.00705721
0.0070574
0.00705709
0.00704894
0.00700098
0.00686387
0.00655245
0.00618899
0.00674785
0.00727223
0.00753359
0.00759335
0.00746427
0.00697955
0.0057095
0.00319012
0.00318956
0.00570851
0.00698011
0.00747301
0.00763211
0.00766188
0.00760777
0.00738909
0.00676355
0.00536275
0.00368108
0.0050934
0.0060522
0.00639137
0.00648563
0.00650799
0.00651281
0.00651384
0.00651387
0.0065129
0.00650814
0.00648585
0.00639169
0.00605267
0.00509398
0.00368104
0.00536264
0.00676135
0.00737624
0.00755164
0.00745503
0.00697802
0.00570933
0.00319019
0.00318958
0.00570853
0.00698033
0.0074733
0.00763159
0.00765625
0.00757829
0.00725989
0.00625066
0.00370563
0.00356999
0.00534134
0.00590138
0.00603743
0.00606456
0.00606895
0.00606955
0.00606957
0.00606898
0.00606463
0.00603755
0.00590162
0.00534179
0.00357027
0.00370563
0.00624858
0.00724719
0.00752225
0.00744936
0.00697725
0.00570921
0.00319024
0.00318958
0.00570852
0.00698061
0.00747411
0.00763389
0.00766435
0.00761065
0.00739072
0.00675969
0.00534581
0.00366903
0.00500052
0.00592492
0.00624709
0.0063347
0.00634717
0.00634591
0.00634466
0.00634465
0.00634588
0.00634711
0.00633462
0.00624702
0.00592491
0.00500034
0.00366863
0.00534486
0.00675702
0.0073776
0.00755425
0.00745704
0.00697899
0.00570936
0.00319025
0.00318955
0.00570849
0.00698089
0.00747505
0.00763696
0.00767589
0.0076549
0.00754922
0.00726538
0.00670848
0.00609141
0.00633056
0.00651678
0.00659006
0.00661084
0.00661037
0.00660716
0.00660555
0.00660553
0.00660709
0.00661025
0.00661066
0.00658982
0.00651645
0.00633002
0.00609049
0.00670746
0.00726247
0.00753576
0.00759808
0.00746808
0.00698147
0.00570963
0.00319022
0.0031895
0.00570844
0.00698112
0.00747581
0.00763927
0.00768393
0.00768349
0.00764285
0.00752989
0.00731269
0.00704865
0.00693227
0.00681917
0.00676722
0.00674879
0.00674072
0.00673686
0.00673531
0.00673528
0.00673677
0.00674056
0.00674857
0.00676692
0.00681877
0.00693159
0.00704789
0.00731174
0.0075269
0.00762918
0.00762636
0.00747572
0.00698327
0.0057098
0.00319016
0.00318944
0.00570839
0.00698129
0.00747632
0.00764062
0.00768801
0.00769668
0.00768274
0.00763324
0.00752472
0.00735001
0.00714392
0.00693218
0.00683386
0.00679955
0.00678798
0.00678362
0.00678195
0.0067819
0.0067835
0.00678779
0.0067993
0.00683354
0.00693177
0.00714315
0.00734935
0.00752383
0.00763023
0.00766897
0.00763938
0.00747955
0.00698426
0.00570986
0.00319006
0.00318937
0.00570834
0.00698141
0.00747666
0.00764135
0.00768982
0.00770175
0.0076967
0.0076667
0.00758821
0.00743415
0.0072064
0.00696649
0.00685423
0.00681484
0.00680195
0.00679718
0.00679521
0.00679515
0.00679701
0.00680173
0.00681457
0.0068539
0.00696607
0.00720566
0.00743354
0.00758735
0.00766368
0.00768289
0.00764437
0.00748122
0.00698476
0.00570986
0.00318995
0.0031893
0.0057083
0.00698149
0.00747688
0.00764175
0.00769062
0.00770357
0.00770106
0.00767626
0.0076051
0.00745541
0.00722276
0.00697557
0.00685972
0.00681892
0.00680553
0.00680043
0.00679813
0.00679803
0.00680023
0.00680528
0.00681863
0.00685937
0.00697514
0.00722203
0.00745482
0.00760426
0.00767325
0.00768725
0.00764616
0.00748194
0.00698501
0.00570984
0.00318984
0.00318922
0.00570827
0.00698155
0.00747701
0.00764197
0.00769097
0.00770422
0.00770236
0.00767877
0.00760921
0.00746034
0.00722669
0.00697777
0.00686109
0.00681992
0.00680633
0.00680101
0.0067984
0.00679827
0.00680078
0.00680606
0.00681961
0.00686074
0.00697734
0.00722598
0.00745977
0.00760838
0.00767579
0.00768856
0.00764681
0.00748226
0.00698515
0.00570982
0.00318973
0.00318917
0.00570826
0.00698158
0.00747707
0.00764205
0.00769108
0.00770436
0.00770254
0.00767899
0.00760947
0.00746063
0.00722698
0.00697793
0.00686119
0.00681995
0.00680629
0.00680087
0.00679808
0.00679794
0.00680062
0.00680601
0.00681964
0.00686083
0.0069775
0.00722628
0.00746009
0.00760867
0.00767603
0.00768876
0.00764696
0.00748237
0.00698521
0.00570981
0.00318965
0.00318917
0.00570828
0.00698158
0.00747705
0.007642
0.00769094
0.00770398
0.0077016
0.00767693
0.00760593
0.00745632
0.00722366
0.00697607
0.00686004
0.00681905
0.00680545
0.00680005
0.00679731
0.00679715
0.00679978
0.00680515
0.00681873
0.00685968
0.00697566
0.007223
0.00745582
0.00760517
0.00767402
0.00768786
0.00764663
0.00748227
0.0069852
0.00570984
0.00318966
0.00318923
0.00570832
0.00698156
0.00747694
0.00764176
0.00769036
0.00770245
0.00769761
0.00766788
0.00758969
0.00743584
0.00720809
0.00696744
0.00685485
0.00681514
0.00680189
0.00679665
0.00679416
0.00679403
0.00679639
0.00680159
0.00681483
0.00685451
0.00696705
0.00720751
0.00743541
0.00758901
0.00766503
0.00768394
0.00764517
0.00748179
0.00698508
0.00570988
0.00318975
0.0031893
0.00570838
0.0069815
0.00747672
0.00764119
0.00768877
0.00769768
0.00768407
0.00763503
0.00752707
0.00735286
0.00714681
0.0069338
0.00683496
0.00680017
0.00678811
0.00678321
0.00678104
0.00678094
0.00678297
0.00678783
0.00679988
0.00683466
0.00693349
0.00714637
0.00735255
0.0075265
0.00763229
0.00767052
0.00764053
0.00748036
0.00698473
0.00570992
0.00318986
0.00318936
0.00570846
0.0069814
0.00747633
0.00764002
0.00768492
0.00768481
0.00764466
0.00753244
0.00731631
0.00705336
0.006937
0.00682175
0.006769
0.00674993
0.00674129
0.00673691
0.00673499
0.00673492
0.00673672
0.00674105
0.00674969
0.00676878
0.00682158
0.00693684
0.00705327
0.00731594
0.00752988
0.00763131
0.0076279
0.00747679
0.00698389
0.00570992
0.00318996
0.00318942
0.00570853
0.00698125
0.0074757
0.00763788
0.00767711
0.00765654
0.00755151
0.00726878
0.00671358
0.00609855
0.00633603
0.00651992
0.00659212
0.00661219
0.00661119
0.00660758
0.00660572
0.00660568
0.00660745
0.00661102
0.00661201
0.00659199
0.00651997
0.0063364
0.00609877
0.00671352
0.00726651
0.00753849
0.00760002
0.00746942
0.00698225
0.00570982
0.00319005
0.00318946
0.00570859
0.00698104
0.00747488
0.00763498
0.0076658
0.00761257
0.00739337
0.00676353
0.00535135
0.00367224
0.00500369
0.00592465
0.00624573
0.00633251
0.00634445
0.00634284
0.00634141
0.00634137
0.00634272
0.00634423
0.00633215
0.00624522
0.00592428
0.0050043
0.00367212
0.00535156
0.00676154
0.00738073
0.00755651
0.00745863
0.00697993
0.00570961
0.0031901
0.00318948
0.00570863
0.00698081
0.00747414
0.00763279
0.00765782
0.00758025
0.00726212
0.00625283
0.00370617
0.00356501
0.00532721
0.00588231
0.00601485
0.00604035
0.00604398
0.00604421
0.0060441
0.00604362
0.00603954
0.00601309
0.00587887
0.00532217
0.00356252
0.00370567
0.00625054
0.00724958
0.0075245
0.0074511
0.0069783
0.00570951
0.00319011
0.00318947
0.00570855
0.00698043
0.00747363
0.00763311
0.00766334
0.00760978
0.00739159
0.00676629
0.00536525
0.00368237
0.00507026
0.00600422
0.00631363
0.00638999
0.00640669
0.00641006
0.0064106
0.00641044
0.00640936
0.00640451
0.00638359
0.00629817
0.00597691
0.00505038
0.00367795
0.00536126
0.00676203
0.00737826
0.00755383
0.00745673
0.00697902
0.00570961
0.00319009
0.00318941
0.00570797
0.00697894
0.0074717
0.0076325
0.00767063
0.00764968
0.0075469
0.00727375
0.00674205
0.00616723
0.00648336
0.00671954
0.00676509
0.00676331
0.0067588
0.00675718
0.00675673
0.0067565
0.00675594
0.0067541
0.00674731
0.00672105
0.00663232
0.00640966
0.00612647
0.00672207
0.00726356
0.00753164
0.00759324
0.00746427
0.0069794
0.0057093
0.00319002
0.00318915
0.00570481
0.00697198
0.00746226
0.00762292
0.0076659
0.00766521
0.00762836
0.00753013
0.00734967
0.00715482
0.00713419
0.00706978
0.0069419
0.00688066
0.00686015
0.0068545
0.00685311
0.0068528
0.00685284
0.00685344
0.00685611
0.00686661
0.0069017
0.00698782
0.00706868
0.00730974
0.00751294
0.00761111
0.00760875
0.0074611
0.00697369
0.0057063
0.00318974
0.00318788
0.00568991
0.00694209
0.00742289
0.00757963
0.0076234
0.0076312
0.00762168
0.00759054
0.00752919
0.00744498
0.00735787
0.00721463
0.0070423
0.00696434
0.00693919
0.00693258
0.00693109
0.0069308
0.00693092
0.0069321
0.00693776
0.00696011
0.00703169
0.00719533
0.0073477
0.00748438
0.00757193
0.0076046
0.00757669
0.00742457
0.00694433
0.00569143
0.00318843
0.00318187
0.00562755
0.0068282
0.00727953
0.00742365
0.00746379
0.0074734
0.00747301
0.00746447
0.00744324
0.00740345
0.00733718
0.00723019
0.00710902
0.00704885
0.00702807
0.00702267
0.00702161
0.00702145
0.00702145
0.00702229
0.00702733
0.00704723
0.00710589
0.00722561
0.00733533
0.00741174
0.00745121
0.00745907
0.00742495
0.00728214
0.00683051
0.00562901
0.00318238
0.00315651
0.00540109
0.00645241
0.0068288
0.00694341
0.00697413
0.0069819
0.00698366
0.00698229
0.00697592
0.00696006
0.00692805
0.00687568
0.00681708
0.00678556
0.0067739
0.00677075
0.00677015
0.00677007
0.00677006
0.00677056
0.00677358
0.00678498
0.00681614
0.00687443
0.00692736
0.00696106
0.00697594
0.00697479
0.00694595
0.00683142
0.00645449
0.00540239
0.00315697
0.00306837
0.0047039
0.0054015
0.00562843
0.00569134
0.00570692
0.00571088
0.00571227
0.00571275
0.00571182
0.00570786
0.00569831
0.005682
0.00566318
0.00565241
0.00564809
0.00564679
0.00564648
0.00564644
0.00564648
0.00564678
0.00564805
0.0056523
0.00566299
0.00568172
0.00569809
0.00570775
0.00571119
0.0057089
0.00569358
0.00563041
0.00540304
0.00470487
0.00306876
0.00286304
0.00306845
0.00315674
0.00318229
0.00318852
0.00319005
0.00319064
0.0031911
0.00319156
0.00319196
0.00319216
0.00319189
0.003191
0.00318966
0.00318879
0.00318829
0.00318798
0.00318774
0.00318764
0.00318775
0.00318798
0.00318828
0.00318874
0.00318956
0.00319085
0.00319171
0.00319195
0.00319171
0.00319108
0.00318942
0.00318305
0.00315734
0.00306888
0.00286331
0.00367681
0.0045975
0.00502937
0.00517228
0.00521137
0.00522063
0.0052226
0.005223
0.0052231
0.00522314
0.00522316
0.00522317
0.00522316
0.00522314
0.00522312
0.00522309
0.00522307
0.00522306
0.00522306
0.00522306
0.00522308
0.0052231
0.00522312
0.00522313
0.00522314
0.00522313
0.00522305
0.00522266
0.0052207
0.00521144
0.00517235
0.00502944
0.00459757
0.00367688
0.00459751
0.00510756
0.0056099
0.00580769
0.00586887
0.00588478
0.00588839
0.00588913
0.00588927
0.0058893
0.0058893
0.00588929
0.00588928
0.00588927
0.00588927
0.00588926
0.00588925
0.00588925
0.00588925
0.00588926
0.00588926
0.00588927
0.00588928
0.00588929
0.0058893
0.00588929
0.00588916
0.00588844
0.00588485
0.00586894
0.00580777
0.00560998
0.00510764
0.0045976
0.0050295
0.00560998
0.00621519
0.00647312
0.00655989
0.00658444
0.00659049
0.00659184
0.00659212
0.00659216
0.00659217
0.00659222
0.0065923
0.00659239
0.00659246
0.00659251
0.00659254
0.00659256
0.00659256
0.00659255
0.00659252
0.00659248
0.00659241
0.00659233
0.00659225
0.00659216
0.0065919
0.00659061
0.0065846
0.00656007
0.00647331
0.00621539
0.00561016
0.00502969
0.00517253
0.00580786
0.00647321
0.00676692
0.00686983
0.00690021
0.006908
0.00690974
0.00690994
0.00690971
0.00690949
0.00690955
0.00690978
0.00691004
0.00691024
0.00691037
0.00691045
0.00691048
0.00691049
0.00691046
0.00691039
0.00691027
0.00691007
0.00690983
0.00690959
0.00690947
0.00690936
0.00690792
0.00690036
0.00687009
0.00676723
0.00647353
0.00580814
0.00517283
0.0052117
0.00586908
0.00656004
0.00686988
0.00698048
0.00701375
0.0070223
0.00702379
0.00702297
0.00702111
0.00701946
0.0070193
0.0070199
0.00702054
0.00702099
0.00702121
0.0070213
0.00702134
0.00702134
0.00702132
0.00702124
0.00702102
0.00702059
0.00701995
0.00701935
0.00701944
0.00702071
0.00702067
0.00701328
0.0069806
0.00687022
0.00656043
0.00586943
0.00521209
0.005221
0.005885
0.0065846
0.00690028
0.00701377
0.00704799
0.00705617
0.00705567
0.00705039
0.00704171
0.00703426
0.00703362
0.00703602
0.00703814
0.00703929
0.00703971
0.00703976
0.00703975
0.00703976
0.00703978
0.00703974
0.00703934
0.0070382
0.00703609
0.00703369
0.00703425
0.0070413
0.00704798
0.0070447
0.00701295
0.0069004
0.00658498
0.00588538
0.00522145
0.00522298
0.00588859
0.00659063
0.00690805
0.00702231
0.00705617
0.00706193
0.0070544
0.00703371
0.00700129
0.00697451
0.00697481
0.00698589
0.00699389
0.00699739
0.00699859
0.00699865
0.00699854
0.00699854
0.00699867
0.00699863
0.00699744
0.00699396
0.00698597
0.00697489
0.0069745
0.00700087
0.00703127
0.00704328
0.00701823
0.00690728
0.00659083
0.00588896
0.00522348
0.00522338
0.0058893
0.00659194
0.00690976
0.00702379
0.00705576
0.00705464
0.00702742
0.00696246
0.00686029
0.0067821
0.00678966
0.00683392
0.00686195
0.00687231
0.00687657
0.00687724
0.00687712
0.00687713
0.00687727
0.00687662
0.00687238
0.00686204
0.00683403
0.00678976
0.0067821
0.00685986
0.00696002
0.00701628
0.00701081
0.0069065
0.00659156
0.00588956
0.00522389
0.00522346
0.0058894
0.00659216
0.00690993
0.00702306
0.00705093
0.00703524
0.00696495
0.00679878
0.00653358
0.00639535
0.00637295
0.00651079
0.00659296
0.00661962
0.00663252
0.00663558
0.00663592
0.00663593
0.00663562
0.00663258
0.0066197
0.00659308
0.00651095
0.0063731
0.00639532
0.00653313
0.00679632
0.0069538
0.00699138
0.00690156
0.00659057
0.0058894
0.0052239
0.00522345
0.00588936
0.00659215
0.00690974
0.00702157
0.00704372
0.00700703
0.00687223
0.0065499
0.00607444
0.00726432
0.00574151
0.00601066
0.00619492
0.00625165
0.00627828
0.00628518
0.00628639
0.0062864
0.00628522
0.00627834
0.00625174
0.00619507
0.00601088
0.00574172
0.00726394
0.00607391
0.00654738
0.00686104
0.0069631
0.00689422
0.00658889
0.00588898
0.00522375
0.00522341
0.0058893
0.00659213
0.00690966
0.0070208
0.0070396
0.00699027
0.00681916
0.00646751
0.00743079
0.00660426
0.00568895
0.00591237
0.00600885
0.00602539
0.00602645
0.00602617
0.00602618
0.00602646
0.00602542
0.00600891
0.00591249
0.00568915
0.00660486
0.00742947
0.00646484
0.00680786
0.00694623
0.00688994
0.00658788
0.00588866
0.0052236
0.00522333
0.00588922
0.00659216
0.00690997
0.00702203
0.00704429
0.00700734
0.00687119
0.0065448
0.00605885
0.00718259
0.00567831
0.00597419
0.00618332
0.00629201
0.00626166
0.00624532
0.00624104
0.00624103
0.00624528
0.0062616
0.00629196
0.00618327
0.00597415
0.00567808
0.00718129
0.00605799
0.00654209
0.00685985
0.00696323
0.00689446
0.00658884
0.0058887
0.00522354
0.00522324
0.00588916
0.00659223
0.00691045
0.007024
0.00705207
0.0070358
0.00696257
0.00678743
0.00649995
0.00631541
0.00624273
0.00635799
0.0064227
0.00645465
0.00644274
0.00643452
0.00643185
0.00643184
0.00643449
0.00644268
0.00645457
0.00642258
0.00635783
0.00624245
0.00631495
0.00649915
0.00678475
0.00695123
0.00699162
0.00690209
0.00659057
0.00588892
0.00522352
0.00522314
0.0058891
0.00659228
0.00691083
0.00702551
0.00705776
0.00705579
0.00702419
0.00694587
0.00681174
0.006673
0.00660108
0.006584
0.00656197
0.0065529
0.00654495
0.00654095
0.00653955
0.00653954
0.00654091
0.0065449
0.00655282
0.00656184
0.00658382
0.00660081
0.00667264
0.00681103
0.00694323
0.00701283
0.00701153
0.00690763
0.00659186
0.00588907
0.00522346
0.00522303
0.00588904
0.00659231
0.00691106
0.00702634
0.00706066
0.00706542
0.00705253
0.00701535
0.00694395
0.00684498
0.00674816
0.00667698
0.00661972
0.00659536
0.00658657
0.00658357
0.00658264
0.00658263
0.00658354
0.00658652
0.00659528
0.0066196
0.00667681
0.00674789
0.00684467
0.00694329
0.00701273
0.00704115
0.0070211
0.00691042
0.00659252
0.00588913
0.00522334
0.00522293
0.005889
0.00659232
0.00691119
0.00702673
0.00706187
0.00706912
0.00706282
0.00703944
0.00698803
0.00690204
0.00679577
0.00670701
0.00663835
0.00660922
0.00659973
0.00659689
0.00659605
0.00659604
0.00659685
0.00659969
0.00660915
0.00663824
0.00670684
0.00679552
0.00690176
0.00698739
0.00703682
0.00705143
0.00702476
0.00691155
0.0065928
0.00588913
0.00522321
0.00522284
0.00588897
0.00659233
0.00691126
0.00702691
0.00706233
0.00707036
0.00706601
0.00704651
0.00700043
0.00691771
0.00680874
0.00671514
0.0066434
0.00661299
0.00660324
0.00660038
0.00659954
0.00659953
0.00660035
0.00660319
0.00661292
0.00664329
0.00671498
0.00680849
0.00691744
0.00699981
0.0070439
0.00705462
0.00702599
0.00691197
0.00659291
0.00588911
0.00522308
0.00522278
0.00588895
0.00659234
0.0069113
0.007027
0.0070625
0.00707074
0.00706688
0.0070483
0.00700342
0.00692137
0.00681177
0.00671704
0.0066446
0.00661389
0.00660405
0.00660117
0.0066003
0.00660028
0.00660113
0.006604
0.00661381
0.00664448
0.00671688
0.00681153
0.00692111
0.00700281
0.0070457
0.00705549
0.00702636
0.00691212
0.00659295
0.0058891
0.00522299
0.00522274
0.00588895
0.00659235
0.00691132
0.00702702
0.00706254
0.00707079
0.00706694
0.00704838
0.00700351
0.00692147
0.00681186
0.00671711
0.00664464
0.00661392
0.00660407
0.00660116
0.00660027
0.00660025
0.00660112
0.00660401
0.00661384
0.00664453
0.00671695
0.00681163
0.00692122
0.0070029
0.00704578
0.00705556
0.00702641
0.00691215
0.00659297
0.0058891
0.00522294
0.00522275
0.00588896
0.00659235
0.00691131
0.00702699
0.00706244
0.0070705
0.00706619
0.00704674
0.0070007
0.00691801
0.00680905
0.00671536
0.00664356
0.0066131
0.0066033
0.00660039
0.0065995
0.00659947
0.00660035
0.00660324
0.00661303
0.00664346
0.00671521
0.00680883
0.00691778
0.00700011
0.00704415
0.00705482
0.00702614
0.00691207
0.00659296
0.00588911
0.00522295
0.0052228
0.00588899
0.00659236
0.00691128
0.00702687
0.00706205
0.00706936
0.00706313
0.00703984
0.00698854
0.00690264
0.00679639
0.00670746
0.0066387
0.00660948
0.00659992
0.006597
0.0065961
0.00659608
0.00659696
0.00659987
0.00660942
0.00663861
0.00670733
0.0067962
0.00690243
0.00698797
0.00703728
0.00705178
0.00702502
0.00691172
0.00659289
0.00588913
0.00522302
0.00522288
0.00588903
0.00659236
0.00691118
0.00702653
0.00706092
0.00706576
0.00705299
0.007016
0.00694483
0.00684607
0.0067493
0.00667784
0.00662042
0.00659592
0.00658706
0.006584
0.00658301
0.006583
0.00658397
0.00658703
0.00659589
0.00662036
0.00667777
0.00674918
0.00684591
0.0069443
0.00701347
0.00704168
0.00702148
0.00691067
0.00659265
0.00588914
0.00522312
0.00522298
0.00588909
0.00659235
0.00691099
0.00702576
0.0070581
0.00705625
0.00702485
0.00694686
0.00681319
0.0066749
0.00660305
0.0065855
0.0065632
0.00655398
0.006546
0.00654197
0.00654056
0.00654056
0.00654197
0.006546
0.00655399
0.00656322
0.00658553
0.00660304
0.00667482
0.00681271
0.00694437
0.0070136
0.00701205
0.00690796
0.00659202
0.0058891
0.00522322
0.00522308
0.00588915
0.00659231
0.00691065
0.00702431
0.00705249
0.00703639
0.00696343
0.00678878
0.00650207
0.0063183
0.0062455
0.00635988
0.00642417
0.00645592
0.00644408
0.0064359
0.00643325
0.00643326
0.00643593
0.00644413
0.00645599
0.00642424
0.00635999
0.00624563
0.00631828
0.00650162
0.00678632
0.00695223
0.00699228
0.00690251
0.00659077
0.00588895
0.00522328
0.00522317
0.00588922
0.00659226
0.0069102
0.00702238
0.00704478
0.00700801
0.00687214
0.00654625
0.00606116
0.00719112
0.00567953
0.00597369
0.00618193
0.00629028
0.00625976
0.00624333
0.00623905
0.00623906
0.00624334
0.00625975
0.0062902
0.00618157
0.00597307
0.00567886
0.00719092
0.00606046
0.00654367
0.00686091
0.00696397
0.00689494
0.00658908
0.00588873
0.00522329
0.00522323
0.00588927
0.0065922
0.00690986
0.00702114
0.00704008
0.00699089
0.00681991
0.00646828
0.0074302
0.00658392
0.00567551
0.00589383
0.00598696
0.00600225
0.00600295
0.00600256
0.00600251
0.00600277
0.00600171
0.00598549
0.00589042
0.00566938
0.00657145
0.00742601
0.006465
0.00680846
0.00694685
0.00689039
0.00658809
0.00588867
0.00522333
0.00522322
0.00588922
0.006592
0.00690964
0.00702159
0.00704387
0.0070073
0.00687253
0.00654983
0.00607252
0.00724782
0.00571624
0.00596711
0.00613203
0.00617663
0.00619858
0.00620448
0.00620552
0.00620542
0.00620402
0.00619695
0.00617162
0.00611988
0.00594627
0.00569309
0.00721588
0.00606501
0.00654484
0.00686054
0.00696321
0.00689435
0.00658886
0.00588885
0.00522342
0.00522289
0.00588856
0.00659078
0.0069082
0.00702122
0.00704914
0.00703349
0.0069629
0.00679518
0.00652457
0.0063702
0.00631731
0.00641192
0.00645337
0.00645341
0.00645416
0.00645439
0.00645432
0.00645414
0.00645347
0.00645059
0.00644191
0.00642565
0.00636974
0.00627102
0.00633609
0.00650834
0.00678653
0.00694972
0.00698921
0.00689996
0.0065893
0.00588857
0.00522324
0.00522096
0.00588502
0.00658483
0.00690068
0.00701377
0.00704543
0.00704416
0.00701624
0.00694837
0.00683697
0.00673513
0.00669732
0.00668014
0.00665937
0.00662737
0.00661335
0.00660909
0.006608
0.00660776
0.00660773
0.00660788
0.00660931
0.0066167
0.00663067
0.00663437
0.00668822
0.00681228
0.00693598
0.00700192
0.00700001
0.00689748
0.00658455
0.00588528
0.0052214
0.00521172
0.00586914
0.00656033
0.00687045
0.00698111
0.00701361
0.00701886
0.0070104
0.00698635
0.00694361
0.00689142
0.00684328
0.00678843
0.00674292
0.00669967
0.00668111
0.00667549
0.00667411
0.00667385
0.00667402
0.00667514
0.00667993
0.00669638
0.00673493
0.00677671
0.00684209
0.00691713
0.00697323
0.00699627
0.00697615
0.00686972
0.00656063
0.00586951
0.00521218
0.0051726
0.00580796
0.00647356
0.00676758
0.00687071
0.00690104
0.00690795
0.00690653
0.00689859
0.00688186
0.00685457
0.00681556
0.00676317
0.00671317
0.00667731
0.00666199
0.00665722
0.00665602
0.00665581
0.00665599
0.00665711
0.00666167
0.00667642
0.00671122
0.00676062
0.00681585
0.00686138
0.00688834
0.00689447
0.00686934
0.00676779
0.00647404
0.00580834
0.00517302
0.00502963
0.00561012
0.00621559
0.00647382
0.00656085
0.00658556
0.00659151
0.00659203
0.00658962
0.00658312
0.00656993
0.00654702
0.00651404
0.00648068
0.00645879
0.00644929
0.00644618
0.00644535
0.0064452
0.00644536
0.00644618
0.00644925
0.00645864
0.00648032
0.0065136
0.00654724
0.00657139
0.00658358
0.00658341
0.00656079
0.00647429
0.00621603
0.00561042
0.00502996
0.00459768
0.00510772
0.00561029
0.00580835
0.00586975
0.00588585
0.00588957
0.00589022
0.00588964
0.00588739
0.00588198
0.00587143
0.00585532
0.0058382
0.0058274
0.00582267
0.00582104
0.00582056
0.00582047
0.0058206
0.0058211
0.00582275
0.00582747
0.00583824
0.00585535
0.00587159
0.00588227
0.00588698
0.00588549
0.00587011
0.0058088
0.00561062
0.00510791
0.00459791
0.00367697
0.00459769
0.00502984
0.00517307
0.00521246
0.005222
0.00522426
0.00522489
0.00522494
0.00522411
0.00522144
0.00521542
0.00520537
0.00519397
0.0051872
0.00518427
0.00518315
0.00518273
0.00518263
0.00518277
0.00518322
0.00518434
0.00518725
0.00519398
0.00520534
0.0052154
0.00522142
0.00522371
0.00522252
0.00521321
0.00517373
0.00503029
0.00459793
0.00367718
0.00404201
0.00545039
0.00616304
0.00641886
0.00649502
0.00651456
0.00651899
0.00651989
0.00652005
0.00652004
0.00652
0.00651993
0.00651986
0.00651979
0.00651973
0.00651968
0.00651964
0.00651962
0.00651961
0.00651963
0.00651967
0.00651972
0.00651977
0.00651984
0.0065199
0.00651993
0.00651982
0.00651895
0.00651454
0.00649501
0.00641887
0.00616305
0.00545042
0.00404209
0.00545038
0.00577082
0.00630298
0.00653628
0.00661555
0.00663803
0.00664353
0.00664471
0.00664491
0.0066449
0.00664484
0.00664478
0.00664472
0.00664468
0.00664464
0.00664461
0.00664459
0.00664457
0.00664457
0.00664459
0.00664461
0.00664464
0.00664468
0.00664472
0.00664477
0.00664479
0.00664462
0.00664348
0.00663801
0.00661554
0.00653629
0.00630302
0.00577086
0.00545041
0.00616318
0.00630304
0.00685513
0.00712224
0.00722162
0.00725239
0.00726058
0.00726247
0.00726278
0.00726271
0.00726258
0.00726248
0.00726245
0.00726244
0.00726244
0.00726244
0.00726243
0.00726243
0.00726243
0.00726243
0.00726244
0.00726245
0.00726245
0.00726246
0.00726248
0.0072625
0.00726225
0.00726047
0.00725238
0.00722167
0.00712234
0.00685528
0.00630319
0.00616332
0.00641916
0.00653642
0.00712232
0.00741625
0.00753016
0.00756696
0.00757714
0.00757944
0.00757955
0.007579
0.00757838
0.00757808
0.00757806
0.00757812
0.00757819
0.00757823
0.00757824
0.00757824
0.00757824
0.00757824
0.00757824
0.00757821
0.00757814
0.00757807
0.00757809
0.00757828
0.00757837
0.00757655
0.00756678
0.0075302
0.00741643
0.00712257
0.00653666
0.00641943
0.00649542
0.00661574
0.00722175
0.00753021
0.0076519
0.00769193
0.00770296
0.00770482
0.00770346
0.00770065
0.00769797
0.00769687
0.00769689
0.00769716
0.00769733
0.00769744
0.00769744
0.00769741
0.00769742
0.00769745
0.00769746
0.00769736
0.00769719
0.00769692
0.00769688
0.00769786
0.00769993
0.00770005
0.00769069
0.0076516
0.00753033
0.00722204
0.00661604
0.00649578
0.00651501
0.00663824
0.00725254
0.00756704
0.00769195
0.00773307
0.00774349
0.00774265
0.00773563
0.00772466
0.00771494
0.00771168
0.00771274
0.007714
0.00771444
0.00771491
0.00771494
0.00771486
0.00771486
0.00771496
0.00771493
0.00771447
0.00771404
0.00771278
0.00771169
0.00771483
0.0077239
0.00773204
0.00772787
0.00769019
0.00756673
0.00725274
0.00663854
0.00651544
0.00651946
0.00664373
0.00726072
0.00757721
0.007703
0.00774353
0.00775073
0.00774124
0.00771675
0.00768087
0.00765146
0.00764336
0.00765104
0.00765672
0.0076577
0.00766026
0.00766088
0.00766078
0.00766078
0.00766089
0.00766029
0.00765774
0.00765677
0.00765109
0.00764338
0.00765133
0.00768009
0.00771308
0.00772621
0.00769673
0.00757551
0.00726055
0.00664395
0.00651988
0.00652035
0.00664488
0.00726258
0.00757951
0.00770493
0.00774294
0.00774177
0.00771042
0.00764143
0.00754323
0.00747488
0.00744798
0.00748145
0.00750237
0.00750322
0.00751473
0.00751805
0.00751826
0.00751826
0.00751807
0.00751476
0.00750326
0.00750243
0.00748152
0.00744802
0.00747473
0.0075424
0.0076377
0.00769529
0.00768752
0.00757436
0.00726149
0.00664487
0.00652066
0.00652047
0.00664504
0.00726287
0.00757967
0.00770385
0.00773687
0.00771962
0.00764577
0.00748959
0.0072801
0.0072478
0.00704784
0.00714539
0.00720798
0.00720439
0.00724322
0.00725371
0.00725498
0.00725499
0.00725374
0.00724326
0.00720446
0.00720809
0.00714553
0.00704793
0.0072476
0.00727918
0.00748575
0.00763051
0.0076652
0.00756803
0.00726003
0.00664458
0.0065205
0.00652041
0.00664498
0.0072628
0.0075793
0.00770184
0.00772849
0.00769071
0.0075634
0.00731013
0.0071152
0.00944389
0.00649017
0.00663213
0.00678402
0.00677942
0.00686389
0.00688543
0.00688863
0.00688864
0.00688547
0.00686396
0.0067795
0.00678417
0.00663234
0.00649025
0.00944304
0.00711405
0.00730608
0.00754792
0.00763606
0.00755939
0.00725772
0.00664392
0.00652001
0.00652029
0.00664489
0.00726271
0.00757907
0.00770079
0.00772413
0.00767647
0.00753434
0.00738408
0.00990807
0.00758689
0.00630612
0.00653853
0.00666199
0.00665817
0.00665135
0.00664938
0.00664938
0.00665137
0.0066582
0.00666207
0.00653867
0.00630632
0.00758754
0.00990442
0.00737967
0.00751864
0.0076216