/*--------------------------------*- C++ -*----------------------------------*\
| =========                 |                                                 |
| \\      /  F ield         | OpenFOAM: The Open Source CFD Toolbox           |
|  \\    /   O peration     | Version:  2112                                  |
|   \\  /    A nd           | Website:  www.openfoam.com                      |
|    \\/     M anipulation  |                                                 |
\*---------------------------------------------------------------------------*/
FoamFile
{
    version     2.0;
    format      ascii;
    arch        "LSB;label=32;scalar=64";
    class       volScalarField;
    location    "1.4";
    object      k;
}
// * * * * * * * * * * * * * * * * * * * * * * * * * * * * * * * * * * * * * //

dimensions      [0 2 -2 0 0 0 0];

internalField   nonuniform List<scalar> 
64906
(
0.00177724
0.00186503
0.00190285
0.00191395
0.00191666
0.00191725
0.00191739
0.00191743
0.00191747
0.00191749
0.00191752
0.00191754
0.00191756
0.00191756
0.00191757
0.00191756
0.00191756
0.00191755
0.00191755
0.00191755
0.00191755
0.00191756
0.00191755
0.00191755
0.00191753
0.00191751
0.00191748
0.00191744
0.0019173
0.00191671
0.00191399
0.00190289
0.00186507
0.00177727
0.00186505
0.0024938
0.00274283
0.00282341
0.00284611
0.00285173
0.002853
0.0028533
0.0028534
0.00285347
0.00285353
0.00285359
0.00285365
0.00285369
0.00285373
0.00285375
0.00285377
0.00285378
0.00285378
0.00285378
0.00285376
0.00285374
0.0028537
0.00285366
0.00285361
0.00285354
0.00285344
0.00285315
0.00285187
0.00284624
0.00282354
0.00274296
0.00249391
0.00186512
0.0019029
0.00274291
0.00309931
0.00322495
0.00326372
0.00327423
0.00327681
0.00327745
0.00327766
0.00327779
0.00327792
0.00327808
0.00327824
0.00327838
0.00327851
0.0032786
0.00327866
0.00327869
0.0032787
0.00327867
0.00327861
0.00327853
0.00327841
0.00327827
0.00327811
0.00327795
0.00327772
0.00327709
0.0032745
0.00326398
0.00322519
0.00309954
0.0027431
0.00190301
0.00191403
0.00282354
0.00322501
0.0033731
0.00342101
0.00343462
0.0034381
0.00343896
0.00343918
0.00343925
0.00343933
0.00343957
0.00343985
0.00344013
0.00344036
0.00344052
0.00344063
0.00344068
0.00344068
0.00344064
0.00344054
0.00344039
0.00344017
0.0034399
0.00343961
0.00343936
0.00343914
0.00343837
0.00343494
0.00342135
0.00337344
0.00322532
0.00282379
0.00191417
0.00191676
0.00284626
0.00326382
0.00342105
0.00347303
0.00348812
0.00349201
0.0034928
0.00349262
0.003492
0.00349149
0.00349172
0.00349223
0.00349275
0.00349316
0.00349339
0.00349352
0.00349358
0.00349359
0.00349354
0.00349342
0.0034932
0.0034928
0.00349228
0.00349177
0.00349152
0.00349187
0.00349167
0.00348824
0.00347337
0.00342144
0.0032642
0.00284657
0.00191692
0.00191737
0.0028519
0.00327434
0.00343466
0.00348813
0.00350371
0.00350748
0.00350743
0.00350527
0.00350151
0.00349821
0.00349844
0.00349982
0.00350109
0.00350195
0.00350225
0.00350234
0.00350238
0.00350239
0.00350236
0.00350228
0.00350199
0.00350115
0.00349989
0.00349851
0.00349825
0.00350138
0.00350428
0.00350266
0.00348812
0.00343501
0.00327475
0.00285225
0.00191755
0.00191751
0.00285316
0.00327691
0.00343813
0.003492
0.00350746
0.00351019
0.00350698
0.00349759
0.00348195
0.00346798
0.00347019
0.00347591
0.00348003
0.00348227
0.00348267
0.0034826
0.00348256
0.00348257
0.00348263
0.00348271
0.00348232
0.0034801
0.00347599
0.00347027
0.00346803
0.00348183
0.0034966
0.00350216
0.00349062
0.00343815
0.00327729
0.00285354
0.00191771
0.00191756
0.00285344
0.00327751
0.00343896
0.00349276
0.00350742
0.00350705
0.00349456
0.00346288
0.0034079
0.00335625
0.00337543
0.00340078
0.00341505
0.00342137
0.0034222
0.00342193
0.00342178
0.00342179
0.00342196
0.00342225
0.00342144
0.00341514
0.00340088
0.00337553
0.00335629
0.00340779
0.00346191
0.00348975
0.00348745
0.00343796
0.00327772
0.00285382
0.00191778
0.00191758
0.00285351
0.00327768
0.00343913
0.00349257
0.0035054
0.00349814
0.00346386
0.0033749
0.00320335
0.00301909
0.00313547
0.00323563
0.00328017
0.00329605
0.00329878
0.00329888
0.00329882
0.00329883
0.00329891
0.00329883
0.00329612
0.00328026
0.00323575
0.00313561
0.00301913
0.00320326
0.00337396
0.00345911
0.00347858
0.00343593
0.00327744
0.00285384
0.00191783
0.0019176
0.00285353
0.00327775
0.00343916
0.00349204
0.00350218
0.00348422
0.00341264
0.00320892
0.00273695
0.00211875
0.00263742
0.00296465
0.00307765
0.00310929
0.00311691
0.00311856
0.00311891
0.00311892
0.00311859
0.00311696
0.00310936
0.00307776
0.00296481
0.00263763
0.00211873
0.00273688
0.00320804
0.00340796
0.00346471
0.00343273
0.00327686
0.00285377
0.00191786
0.00191761
0.00285353
0.00327782
0.00343924
0.00349184
0.0035003
0.00347468
0.0033714
0.0030414
0.00212915
0.00207239
0.00272135
0.00291255
0.00295885
0.00296826
0.00296982
0.00297003
0.00297004
0.00296983
0.00296828
0.00295889
0.00291263
0.00272151
0.00207251
0.00212914
0.00304055
0.00336674
0.00345518
0.00343082
0.00327657
0.00285371
0.00191788
0.0019176
0.00285353
0.00327791
0.00343951
0.00349261
0.00350296
0.00348509
0.00341305
0.0032074
0.00273051
0.00211345
0.00260216
0.00291882
0.00302655
0.00305597
0.00306039
0.00306003
0.00305962
0.00305962
0.00306002
0.00306037
0.00305594
0.00302652
0.00291882
0.00260209
0.00211328
0.00273014
0.00320636
0.00340827
0.0034655
0.00343336
0.00327717
0.00285377
0.00191788
0.00191759
0.00285352
0.00327801
0.00343983
0.00349366
0.00350685
0.00349968
0.00346437
0.00337119
0.00318878
0.00298326
0.00305703
0.00311553
0.00313897
0.00314577
0.00314568
0.00314464
0.0031441
0.0031441
0.00314461
0.00314564
0.00314571
0.00313889
0.00311541
0.00305685
0.00298293
0.00318841
0.00337009
0.0034595
0.00347998
0.00343712
0.00327805
0.00285388
0.00191787
0.00191757
0.0028535
0.00327808
0.00344009
0.00349446
0.00350962
0.00350934
0.00349526
0.00345717
0.00338499
0.00329702
0.00325508
0.00321552
0.00319741
0.00319102
0.00318829
0.003187
0.00318648
0.00318647
0.00318697
0.00318824
0.00319095
0.00319731
0.00321538
0.00325487
0.00329676
0.00338465
0.00345605
0.00349034
0.00348955
0.00343978
0.0032787
0.00285395
0.00191784
0.00191754
0.00285348
0.00327814
0.00344026
0.00349493
0.00351106
0.0035139
0.00350874
0.00349133
0.0034541
0.00339483
0.00332479
0.00325333
0.00321978
0.00320799
0.00320404
0.00320256
0.00320201
0.00320199
0.00320252
0.00320397
0.00320791
0.00321968
0.00325319
0.00332454
0.0033946
0.00345377
0.00349021
0.00350379
0.00349406
0.00344114
0.00327906
0.00285398
0.0019178
0.00191751
0.00285347
0.00327818
0.00344038
0.00349519
0.0035117
0.00351569
0.00351357
0.00350266
0.00347521
0.00342261
0.00334573
0.00326505
0.00322678
0.00321323
0.0032088
0.00320719
0.00320654
0.00320652
0.00320713
0.00320873
0.00321314
0.00322667
0.00326491
0.00334549
0.0034224
0.0034749
0.00350153
0.0035086
0.00349582
0.00344173
0.00327924
0.00285398
0.00191775
0.00191748
0.00285345
0.00327821
0.00344045
0.00349532
0.00351198
0.00351633
0.00351511
0.00350597
0.00348097
0.00342979
0.00335133
0.00326822
0.0032287
0.00321465
0.00321005
0.00320833
0.00320757
0.00320754
0.00320826
0.00320997
0.00321456
0.00322858
0.00326807
0.0033511
0.0034296
0.00348066
0.00350485
0.00351014
0.00349646
0.00344198
0.00327933
0.00285398
0.00191771
0.00191745
0.00285344
0.00327822
0.00344049
0.00349539
0.0035121
0.00351656
0.00351556
0.00350686
0.00348239
0.00343149
0.0033527
0.00326899
0.00322918
0.003215
0.00321033
0.00320854
0.00320768
0.00320764
0.00320846
0.00321024
0.0032149
0.00322906
0.00326885
0.00335246
0.0034313
0.00348209
0.00350574
0.0035106
0.00349668
0.00344209
0.00327938
0.00285397
0.00191766
0.00191743
0.00285344
0.00327823
0.00344051
0.00349542
0.00351213
0.0035166
0.00351562
0.00350693
0.00348248
0.00343159
0.00335279
0.00326905
0.00322921
0.00321501
0.00321032
0.0032085
0.00320758
0.00320753
0.00320841
0.00321023
0.00321491
0.0032291
0.00326891
0.00335256
0.0034314
0.00348218
0.00350582
0.00351067
0.00349673
0.00344213
0.0032794
0.00285397
0.00191763
0.00191743
0.00285344
0.00327824
0.0034405
0.0034954
0.00351208
0.00351646
0.00351528
0.00350619
0.00348123
0.00343009
0.00335163
0.00326838
0.0032288
0.0032147
0.00321002
0.00320821
0.0032073
0.00320725
0.00320812
0.00320993
0.00321459
0.00322869
0.00326825
0.00335141
0.00342992
0.00348095
0.0035051
0.00351034
0.00349661
0.00344209
0.00327939
0.00285398
0.00191763
0.00191745
0.00285346
0.00327823
0.00344047
0.00349532
0.00351187
0.00351591
0.00351386
0.00350304
0.00347569
0.00342315
0.00334629
0.00326537
0.00322699
0.00321333
0.00320878
0.00320702
0.0032062
0.00320615
0.00320693
0.00320869
0.00321323
0.00322687
0.00326524
0.0033461
0.00342301
0.00347543
0.00350197
0.00350894
0.00349608
0.00344191
0.00327935
0.00285399
0.00191767
0.00191748
0.00285348
0.00327821
0.00344039
0.00349512
0.0035113
0.00351422
0.00350917
0.00349191
0.00345486
0.00339576
0.00332574
0.00325388
0.00322016
0.00320821
0.00320409
0.00320244
0.00320172
0.00320169
0.00320236
0.003204
0.00320811
0.00322006
0.00325377
0.0033256
0.00339565
0.00345464
0.00349087
0.00350428
0.00349443
0.0034414
0.00327922
0.002854
0.00191771
0.00191751
0.00285351
0.00327818
0.00344026
0.0034947
0.00350994
0.00350976
0.00349585
0.003458
0.00338618
0.00329857
0.00325665
0.00321638
0.00319801
0.00319141
0.00318849
0.00318703
0.00318639
0.00318637
0.00318697
0.00318841
0.00319133
0.00319794
0.00321633
0.00325659
0.00329854
0.00338602
0.00345702
0.00349103
0.00349004
0.00344012
0.00327891
0.00285399
0.00191776
0.00191754
0.00285353
0.00327812
0.00344004
0.00349395
0.00350724
0.00350021
0.00346511
0.00337231
0.0031905
0.00298572
0.0030589
0.00311659
0.00313965
0.00314622
0.00314595
0.00314477
0.00314416
0.00314414
0.00314473
0.0031459
0.00314616
0.00313961
0.00311661
0.00305903
0.00298579
0.00319044
0.00337142
0.00346039
0.0034806
0.00343755
0.00327831
0.00285395
0.00191779
0.00191755
0.00285355
0.00327805
0.00343976
0.00349296
0.00350342
0.00348571
0.00341391
0.00320868
0.00273252
0.00211476
0.00260332
0.00291868
0.003026
0.00305513
0.00305936
0.00305889
0.00305841
0.0030584
0.00305885
0.00305928
0.003055
0.00302581
0.00291854
0.00260354
0.00211471
0.00273257
0.00320787
0.00340929
0.00346622
0.00343387
0.00327748
0.00285386
0.00191781
0.00191756
0.00285357
0.00327797
0.00343951
0.00349222
0.00350079
0.0034753
0.00337212
0.00304214
0.00212937
0.00207026
0.00271599
0.00290548
0.00295052
0.00295936
0.00296066
0.00296075
0.00296071
0.00296053
0.00295907
0.00294988
0.00290421
0.00271407
0.00206918
0.00212914
0.00304119
0.00336749
0.00345589
0.00343137
0.00327691
0.00285382
0.00191782
0.00191756
0.00285353
0.00327784
0.00343933
0.00349233
0.00350261
0.00348482
0.0034134
0.00320976
0.00273774
0.00211913
0.00262832
0.00294693
0.00304966
0.00307507
0.00308074
0.0030819
0.00308209
0.00308203
0.00308165
0.00307996
0.00307279
0.00304414
0.00293705
0.0026206
0.00211717
0.0027361
0.00320807
0.0034085
0.00346536
0.00343324
0.00327717
0.00285385
0.00191781
0.00191753
0.0028533
0.00327728
0.00343864
0.0034921
0.00350505
0.00349795
0.00346372
0.00337431
0.00320083
0.00301066
0.00311043
0.00318488
0.00319844
0.00319737
0.00319574
0.00319517
0.00319501
0.00319493
0.00319473
0.0031941
0.00319181
0.00318323
0.00315482
0.00308435
0.00299568
0.00319351
0.00337052
0.00345814
0.00347834
0.00343579
0.0032773
0.00285373
0.00191778
0.00191741
0.00285207
0.00327477
0.00343529
0.00348873
0.00350335
0.00350307
0.00349046
0.0034576
0.00339817
0.00333384
0.00332384
0.00330024
0.00325688
0.00323596
0.00322889
0.00322693
0.00322645
0.00322634
0.00322635
0.00322656
0.00322749
0.0032312
0.00324361
0.00327405
0.00330402
0.00338413
0.00345138
0.00348418
0.00348347
0.00343466
0.00327525
0.00285258
0.00191765
0.00191682
0.00284647
0.00326429
0.00342176
0.00347391
0.00348885
0.0034915
0.00348808
0.00347726
0.00345633
0.00342761
0.00339719
0.00334852
0.00329067
0.00326415
0.00325548
0.00325317
0.00325265
0.00325255
0.00325259
0.00325301
0.00325499
0.0032627
0.00328713
0.00334235
0.00339433
0.00344067
0.00347054
0.00348187
0.00347259
0.00342217
0.00326499
0.002847
0.00191705
0.0019141
0.00282378
0.00322551
0.00337386
0.003422
0.00343577
0.0034391
0.00343886
0.00343569
0.00342808
0.00341402
0.00339089
0.0033543
0.00331327
0.00329267
0.00328546
0.00328355
0.00328316
0.0032831
0.00328311
0.00328343
0.00328521
0.00329212
0.00331222
0.00335283
0.00339042
0.00341689
0.00343081
0.00343376
0.00342224
0.00337465
0.00322626
0.00282428
0.00191432
0.00190299
0.00274317
0.00309983
0.00322571
0.00326472
0.00327547
0.00327823
0.0032788
0.00327818
0.00327572
0.00326982
0.00325825
0.00323971
0.00321921
0.00320809
0.00320392
0.00320277
0.00320253
0.0032025
0.00320251
0.00320271
0.00320381
0.0032079
0.0032189
0.0032393
0.00325806
0.00327022
0.00327573
0.00327547
0.00326549
0.00322655
0.00310052
0.00274363
0.00190318
0.00186515
0.00249407
0.00274332
0.00282409
0.00284698
0.00285281
0.00285432
0.00285482
0.00285494
0.00285449
0.00285285
0.00284907
0.00284277
0.00283562
0.0028315
0.00282983
0.00282932
0.0028292
0.00282918
0.0028292
0.00282932
0.00282982
0.00283146
0.00283556
0.00284268
0.002849
0.00285282
0.00285425
0.00285345
0.00284774
0.00282478
0.00274386
0.00249443
0.00186531
0.00177732
0.00186518
0.00190309
0.00191429
0.00191709
0.0019178
0.00191806
0.00191825
0.00191844
0.0019186
0.00191866
0.00191851
0.00191806
0.00191743
0.00191703
0.0019168
0.00191666
0.00191656
0.00191651
0.00191656
0.00191666
0.00191679
0.001917
0.00191739
0.001918
0.00191843
0.00191857
0.00191849
0.00191822
0.00191747
0.00191461
0.00190334
0.00186536
0.00177744
0.00249469
0.00290756
0.00309476
0.00315705
0.00317451
0.00317878
0.00317971
0.00317991
0.00317996
0.00317998
0.00317998
0.00317998
0.00317998
0.00317997
0.00317996
0.00317995
0.00317994
0.00317993
0.00317993
0.00317994
0.00317994
0.00317995
0.00317996
0.00317997
0.00317997
0.00317997
0.00317993
0.00317974
0.0031788
0.00317454
0.00315708
0.00309479
0.0029076
0.00249473
0.00290757
0.00509733
0.00582005
0.00607831
0.00616048
0.00618329
0.00618884
0.00619001
0.00619019
0.00619015
0.00619004
0.00618992
0.00618982
0.00618972
0.00618965
0.00618959
0.00618954
0.00618952
0.00618952
0.00618954
0.00618959
0.00618965
0.00618973
0.00618982
0.00618991
0.00618999
0.00618986
0.00618873
0.00618322
0.00616043
0.00607827
0.00582002
0.00509731
0.0029076
0.00309482
0.0058202
0.00676574
0.00712869
0.00725361
0.00729121
0.00730117
0.00730349
0.0073039
0.00730385
0.00730372
0.00730365
0.00730365
0.00730368
0.00730371
0.00730373
0.00730373
0.00730373
0.00730373
0.00730374
0.00730374
0.00730373
0.0073037
0.00730367
0.00730366
0.00730364
0.00730329
0.0073011
0.00729125
0.0072537
0.0071288
0.00676585
0.00582029
0.0030949
0.00315716
0.00607855
0.00712881
0.00754806
0.00769849
0.00774574
0.00775873
0.00776172
0.00776192
0.00776127
0.00776057
0.00776031
0.00776037
0.00776057
0.00776075
0.00776083
0.00776086
0.00776087
0.00776087
0.00776087
0.00776085
0.00776078
0.0077606
0.00776042
0.00776033
0.00776046
0.00776049
0.0077581
0.0077456
0.00769861
0.00754828
0.00712903
0.00607874
0.00315729
0.00317465
0.00616077
0.00725378
0.00769856
0.00786141
0.00791354
0.00792783
0.00793029
0.00792858
0.00792498
0.00792158
0.0079204
0.00792056
0.00792113
0.00792161
0.00792171
0.00792165
0.00792161
0.00792162
0.00792167
0.00792174
0.00792165
0.00792118
0.00792062
0.00792044
0.00792146
0.00792408
0.00792418
0.00791205
0.00786109
0.00769871
0.00725405
0.006161
0.00317482
0.00317893
0.00618358
0.0072914
0.00774583
0.00791356
0.00796732
0.00798087
0.00797979
0.00797053
0.00795574
0.00794243
0.00793908
0.00794052
0.00794272
0.00794419
0.00794422
0.00794383
0.0079436
0.00794361
0.00794385
0.00794426
0.00794424
0.00794278
0.00794059
0.00793913
0.00794231
0.00795479
0.00796588
0.00796062
0.00791134
0.00774542
0.00729156
0.0061838
0.00317913
0.00317988
0.0061891
0.00730133
0.0077588
0.00792785
0.0079809
0.0079902
0.00797747
0.00794392
0.00789231
0.00784707
0.00784306
0.00785345
0.00786273
0.00786784
0.00786789
0.00786675
0.0078661
0.0078661
0.00786677
0.00786793
0.0078679
0.00786281
0.00785353
0.00784313
0.00784696
0.00789136
0.0079392
0.007958
0.0079197
0.0077566
0.00730103
0.00618924
0.00318009
0.00318007
0.00619024
0.00730361
0.00776177
0.00793037
0.00798008
0.00797805
0.00793465
0.00783417
0.00767453
0.00753331
0.00755385
0.00760738
0.00764227
0.0076584
0.00765967
0.00765773
0.00765661
0.00765662
0.00765776
0.00765972
0.00765847
0.00764236
0.00760749
0.00755394
0.00753321
0.00767359
0.00782947
0.00791512
0.00790728
0.00775506
0.00730215
0.0061901
0.00318028
0.00318011
0.00619036
0.00730398
0.007762
0.00792897
0.00797187
0.00794707
0.00783871
0.00758301
0.0071336
0.00668906
0.00688899
0.00710893
0.00721893
0.00726065
0.00726811
0.00726744
0.00726658
0.00726659
0.00726747
0.00726816
0.00726072
0.00721904
0.00710908
0.00688915
0.00668897
0.0071327
0.00757834
0.00781919
0.00787624
0.00774662
0.00730028
0.0061897
0.00318028
0.00318011
0.00619025
0.0073039
0.00776153
0.00792628
0.00796009
0.00790321
0.00769464
0.00715673
0.00597209
0.00398022
0.00557132
0.00633887
0.00661714
0.00669978
0.00672392
0.00672893
0.00672962
0.00672962
0.00672896
0.00672397
0.00669985
0.00661728
0.00633911
0.00557166
0.00398006
0.00597124
0.00715208
0.00767509
0.00783227
0.00773464
0.0072973
0.00618887
0.0031802
0.00318009
0.00619008
0.00730379
0.00776127
0.00792483
0.0079533
0.00787583
0.00759301
0.00678001
0.00404523
0.00372135
0.00567786
0.00614111
0.00626535
0.00629159
0.00629552
0.00629581
0.00629582
0.00629553
0.00629161
0.0062654
0.00614123
0.00567814
0.00372159
0.00404463
0.00677528
0.00757333
0.00780472
0.00772761
0.00729551
0.00618822
0.00318013
0.00318005
0.00618992
0.00730381
0.0077617
0.00792664
0.00796039
0.0079027
0.0076913
0.00714609
0.00594448
0.00394647
0.00545195
0.00619709
0.00646748
0.00655703
0.00656129
0.00655672
0.00655462
0.00655461
0.00655668
0.00656122
0.00655695
0.0064674
0.00619702
0.00545177
0.00394595
0.0059431
0.00714117
0.00767156
0.0078315
0.0077345
0.00729698
0.00618818
0.00318011
0.00318001
0.00618978
0.00730389
0.00776245
0.00792979
0.00797253
0.00794589
0.00783104
0.00755775
0.00706753
0.00654288
0.00661622
0.00671418
0.00676503
0.00678537
0.00678262
0.00677842
0.00677659
0.00677658
0.00677838
0.00678255
0.00678527
0.00676488
0.00671396
0.00661586
0.0065423
0.0070662
0.0075528
0.00781126
0.00787461
0.00774646
0.00729981
0.0061885
0.00318011
0.00317997
0.00618965
0.00730396
0.00776306
0.0079323
0.00798177
0.00797691
0.00792336
0.00779473
0.00757004
0.00730429
0.00713861
0.0069958
0.00693155
0.0069105
0.00690202
0.00689845
0.0068972
0.00689719
0.00689842
0.00690197
0.00691042
0.00693141
0.00699559
0.00713834
0.00730385
0.0075688
0.00778979
0.00790352
0.00790553
0.00775551
0.00730202
0.00618875
0.00318009
0.00317993
0.00618955
0.00730399
0.00776343
0.00793371
0.00798668
0.00799253
0.00796703
0.00789776
0.00776421
0.00756556
0.00733699
0.0071116
0.00700146
0.00696298
0.00695126
0.00694781
0.00694687
0.00694687
0.00694779
0.00695122
0.00696291
0.00700133
0.00711141
0.00733679
0.00756521
0.00776303
0.00789283
0.00794716
0.00792106
0.00776026
0.00730321
0.00618884
0.00318005
0.00317988
0.00618947
0.007304
0.00776362
0.00793437
0.00798877
0.00799881
0.00798365
0.00793469
0.00782912
0.00764771
0.00740144
0.00715043
0.00702512
0.00698073
0.00696776
0.00696434
0.00696352
0.00696351
0.00696432
0.00696773
0.00698067
0.00702501
0.00715025
0.00740127
0.00764739
0.00782797
0.00792976
0.00796376
0.00792728
0.00776225
0.00730371
0.00618884
0.00317999
0.00317984
0.00618942
0.00730401
0.00776371
0.00793465
0.00798956
0.00800097
0.00798903
0.00794603
0.00784805
0.00767064
0.00741956
0.00716153
0.00703195
0.00698588
0.00697254
0.00696912
0.00696833
0.00696832
0.0069691
0.00697251
0.00698582
0.00703184
0.00716136
0.0074194
0.00767034
0.00784692
0.00794111
0.00796913
0.00792941
0.00776298
0.00730389
0.00618881
0.00317994
0.00317982
0.00618939
0.00730401
0.00776375
0.00793476
0.00798982
0.00800161
0.00799052
0.007949
0.00785277
0.00767616
0.00742392
0.00716425
0.00703365
0.00698717
0.00697374
0.00697032
0.00696953
0.00696953
0.0069703
0.00697371
0.00698712
0.00703355
0.00716409
0.00742376
0.00767587
0.00785165
0.00794409
0.00797062
0.00793005
0.00776322
0.00730395
0.00618879
0.0031799
0.0031798
0.00618938
0.00730402
0.00776377
0.00793479
0.00798986
0.00800166
0.00799058
0.00794907
0.00785286
0.00767625
0.007424
0.00716434
0.00703372
0.00698721
0.00697377
0.00697034
0.00696954
0.00696954
0.00697032
0.00697374
0.00698716
0.00703361
0.00716419
0.00742385
0.00767596
0.00785174
0.00794417
0.00797069
0.0079301
0.00776325
0.00730397
0.00618878
0.00317988
0.0031798
0.0061894
0.00730403
0.00776376
0.00793473
0.00798967
0.00800111
0.00798922
0.00794626
0.00784832
0.00767093
0.00741984
0.00716182
0.00703217
0.00698603
0.00697266
0.00696922
0.00696841
0.00696841
0.0069692
0.00697264
0.00698599
0.00703207
0.00716168
0.0074197
0.00767065
0.00784722
0.00794137
0.00796934
0.00792957
0.00776309
0.00730394
0.0061888
0.00317988
0.00317983
0.00618945
0.00730404
0.00776371
0.00793451
0.00798897
0.00799906
0.00798398
0.00793511
0.00782964
0.00764829
0.00740202
0.00715104
0.00702561
0.00698112
0.00696811
0.00696466
0.00696382
0.00696382
0.00696466
0.0069681
0.0069811
0.00702554
0.00715093
0.00740192
0.00764804
0.00782857
0.00793025
0.00796414
0.00792756
0.00776244
0.00730379
0.00618882
0.00317991
0.00317986
0.00618952
0.00730404
0.00776356
0.00793391
0.00798696
0.0079929
0.00796753
0.00789845
0.00776514
0.00756669
0.00733813
0.00711277
0.00700245
0.00696385
0.0069521
0.00694866
0.00694772
0.00694772
0.00694867
0.00695212
0.00696387
0.00700244
0.00711272
0.00733809
0.00756649
0.00776411
0.00789364
0.00794775
0.00792148
0.00776053
0.00730332
0.00618882
0.00317996
0.0031799
0.00618961
0.00730402
0.00776323
0.00793257
0.00798214
0.00797742
0.00792408
0.0077958
0.00757164
0.00730643
0.00714071
0.00699782
0.00693332
0.00691217
0.00690372
0.00690021
0.006899
0.00689902
0.00690025
0.00690379
0.00691226
0.0069334
0.0069979
0.00714079
0.00730633
0.00757069
0.00779106
0.00790437
0.00790611
0.00775586
0.00730218
0.00618872
0.00317999
0.00317994
0.00618973
0.00730397
0.00776265
0.00793012
0.00797299
0.00794653
0.00783199
0.00755927
0.00707006
0.00654671
0.00661984
0.00671678
0.00676717
0.00678742
0.00678479
0.00678073
0.00677899
0.00677902
0.00678081
0.00678492
0.00678757
0.00676732
0.00671695
0.00662015
0.00654677
0.00706922
0.00755459
0.00781236
0.00787534
0.0077469
0.0073
0.00618846
0.00318001
0.00317998
0.00618985
0.00730388
0.00776192
0.007927
0.00796091
0.00790341
0.00769234
0.00714777
0.0059476
0.00394976
0.00545438
0.0061966
0.00646585
0.00655488
0.00655911
0.00655464
0.00655264
0.00655267
0.00655471
0.00655917
0.0065548
0.00646543
0.00619598
0.00545465
0.00394966
0.00594683
0.007143
0.00767267
0.00783226
0.00773499
0.00729718
0.0061881
0.00318
0.00318001
0.00618996
0.00730379
0.0077614
0.00792509
0.00795372
0.00787639
0.0075937
0.00678069
0.00404498
0.00371282
0.00565929
0.00611584
0.0062356
0.00626046
0.00626414
0.00626439
0.00626435
0.00626396
0.00625982
0.0062337
0.00611137
0.00565181
0.00370758
0.00404317
0.00677504
0.0075736
0.00780516
0.00772796
0.00729562
0.00618805
0.00318002
0.00318
0.00618988
0.00730343
0.00776102
0.00792581
0.00795973
0.00790292
0.0076942
0.00715556
0.00596902
0.00397292
0.00553087
0.00626967
0.00651558
0.00657847
0.00659767
0.00660225
0.00660302
0.00660291
0.00660165
0.00659542
0.00657127
0.00649707
0.00623557
0.00549801
0.00395971
0.00595923
0.00714642
0.00767286
0.00783146
0.00773421
0.00729688
0.0061884
0.00318006
0.00317983
0.00618881
0.00730127
0.00775847
0.00792505
0.00796783
0.00794285
0.00783359
0.00757462
0.00711529
0.00664378
0.00678646
0.00692306
0.0069394
0.0069287
0.00692358
0.00692188
0.00692134
0.0069211
0.00692058
0.00691839
0.00691091
0.00689035
0.0068275
0.00669441
0.00658387
0.00708458
0.00755733
0.00780959
0.00787093
0.00774292
0.00729757
0.006188
0.00317997
0.00317892
0.00618334
0.00729147
0.00774595
0.00791263
0.00796151
0.00795884
0.00791359
0.00780672
0.00762805
0.00743876
0.00736183
0.00726329
0.00712759
0.00705794
0.00703387
0.0070272
0.00702559
0.00702526
0.00702528
0.00702585
0.00702907
0.0070434
0.00709064
0.00720233
0.00733541
0.00757536
0.00778066
0.00788694
0.00788705
0.00773881
0.00728993
0.00618302
0.00317909
0.00317466
0.00616058
0.00725395
0.00769898
0.0078616
0.00791195
0.00791989
0.00790481
0.0078637
0.00779
0.00769029
0.0075771
0.00741747
0.00723982
0.00715214
0.00712195
0.00711358
0.0071116
0.00711124
0.00711147
0.0071131
0.00712038
0.00714759
0.00722953
0.00740333
0.00757719
0.00773199
0.0078357
0.00787838
0.00785071
0.00769628
0.00725356
0.00616052
0.00317485
0.00315719
0.00607841
0.00712903
0.00754862
0.00769918
0.00774599
0.00775688
0.0077535
0.00773821
0.00770617
0.00765094
0.0075649
0.00744054
0.00730973
0.00724076
0.00721529
0.00720775
0.00720586
0.00720551
0.00720584
0.00720765
0.00721491
0.00723962
0.00730734
0.00743777
0.00756655
0.00766233
0.00771656
0.00773125
0.00769495
0.00754789
0.00712911
0.00607844
0.00315736
0.00309487
0.0058201
0.006766
0.00712928
0.00725442
0.00729205
0.00730147
0.00730172
0.00729639
0.007283
0.00725592
0.00720825
0.00713829
0.00706551
0.0070244
0.00700801
0.00700278
0.00700135
0.00700109
0.00700139
0.00700283
0.00700803
0.00702428
0.00706516
0.00713797
0.00720906
0.0072586
0.00728382
0.00728621
0.00725308
0.00712928
0.00676619
0.00582011
0.00309502
0.00290764
0.0050973
0.00582032
0.00607884
0.00616121
0.00618413
0.00618963
0.00619028
0.00618867
0.00618393
0.00617341
0.00615365
0.006124
0.00609266
0.00607405
0.00606611
0.00606336
0.00606251
0.00606236
0.00606259
0.0060635
0.00606631
0.00607426
0.00609288
0.00612426
0.00615415
0.0061741
0.00618343
0.00618231
0.00616096
0.00607899
0.00582044
0.00509724
0.00290775
0.00249477
0.00290765
0.00309497
0.00315739
0.00317498
0.00317937
0.00318042
0.00318071
0.00318069
0.00318025
0.00317892
0.00317602
0.00317127
0.00316595
0.00316279
0.00316142
0.0031609
0.00316071
0.00316066
0.00316072
0.00316092
0.00316145
0.00316281
0.00316596
0.00317126
0.00317601
0.00317892
0.00318006
0.00317954
0.00317529
0.00315767
0.00309516
0.00290775
0.00249487
0.00266015
0.00326455
0.00355443
0.0036581
0.00368959
0.00369792
0.00369987
0.00370028
0.00370035
0.00370035
0.00370033
0.0037003
0.00370027
0.00370024
0.00370022
0.00370019
0.00370018
0.00370017
0.00370017
0.00370018
0.00370019
0.00370021
0.00370023
0.00370026
0.00370029
0.0037003
0.00370024
0.00369985
0.00369791
0.00368959
0.0036581
0.00355443
0.00326456
0.00266019
0.00326455
0.00609534
0.00705184
0.00741575
0.00754023
0.00757746
0.00758719
0.00758938
0.00758971
0.00758958
0.00758935
0.00758909
0.00758886
0.00758867
0.00758852
0.0075884
0.00758831
0.00758826
0.00758826
0.00758831
0.00758839
0.00758851
0.00758866
0.00758884
0.00758905
0.00758921
0.00758897
0.00758688
0.00757722
0.00754004
0.00741558
0.00705169
0.00609523
0.00326456
0.00355449
0.00705202
0.00827961
0.00877705
0.00895998
0.00901902
0.00903571
0.00903978
0.00904042
0.00904017
0.00903971
0.00903935
0.00903914
0.00903902
0.00903896
0.0090389
0.00903884
0.00903881
0.00903881
0.00903884
0.0090389
0.00903897
0.00903903
0.00903914
0.00903932
0.00903948
0.00903901
0.00903524
0.00901879
0.00895989
0.00877702
0.00827961
0.00705202
0.00355454
0.00365822
0.00741605
0.00877719
0.00934885
0.00956748
0.00964094
0.00966243
0.00966751
0.00966764
0.00966614
0.00966441
0.00966329
0.0096628
0.0096627
0.00966273
0.00966267
0.00966257
0.00966251
0.00966252
0.00966258
0.00966268
0.00966275
0.00966273
0.00966282
0.00966326
0.0096641
0.00966455
0.00966064
0.00964014
0.00956726
0.00934887
0.00877729
0.00741614
0.00365833
0.00368975
0.0075406
0.00896022
0.00956757
0.00980448
0.00988551
0.00990902
0.00991305
0.00990972
0.00990299
0.00989615
0.00989229
0.00989082
0.00989069
0.0098909
0.00989065
0.00989026
0.00989005
0.00989006
0.00989028
0.00989067
0.00989093
0.00989073
0.00989086
0.00989226
0.0098958
0.00990113
0.00990165
0.00988204
0.00980325
0.00956733
0.0089603
0.00754073
0.0036899
0.0036981
0.00757784
0.00901928
0.00964107
0.00988556
0.00996914
0.00999124
0.00998915
0.00997337
0.00994856
0.00992479
0.00991359
0.0099105
0.00991105
0.00991213
0.00991123
0.00990996
0.00990928
0.00990928
0.00990998
0.00991126
0.00991217
0.0099111
0.00991054
0.00991357
0.00992442
0.00994658
0.0099648
0.00995647
0.00988072
0.00963966
0.00901907
0.00757791
0.00369826
0.00370006
0.00758755
0.00903596
0.00966257
0.00990914
0.00999139
0.0100063
0.00998553
0.00993262
0.00985316
0.00977973
0.00975523
0.00975432
0.00976022
0.00976518
0.00976296
0.00975968
0.00975801
0.00975802
0.0097597
0.009763
0.00976523
0.00976028
0.00975438
0.00975523
0.00977937
0.00985116
0.00992388
0.00995222
0.00989399
0.00965777
0.00903478
0.00758738
0.00370021
0.00370046
0.0075897
0.00904
0.0096677
0.00991342
0.00999002
0.00998692
0.00992025
0.0097723
0.00954479
0.00933589
0.00930978
0.00933953
0.00936883
0.00938635
0.00938298
0.0093769
0.00937399
0.009374
0.00937692
0.00938302
0.0093864
0.0093689
0.0093396
0.0093098
0.00933554
0.0095428
0.00976353
0.00988675
0.00987404
0.00965504
0.00903659
0.00758895
0.00370056
0.00370052
0.00758997
0.00904065
0.00966804
0.00991093
0.0099767
0.00993966
0.00978191
0.00942754
0.00882835
0.00822464
0.00834257
0.00852891
0.00863352
0.00867783
0.00868093
0.00867579
0.00867306
0.00867306
0.0086758
0.00868096
0.00867789
0.0086336
0.00852902
0.00834265
0.00822431
0.0088264
0.00941876
0.00974829
0.00982648
0.00964118
0.00903324
0.00758818
0.00370049
0.0037005
0.00758979
0.00904046
0.00966712
0.00990639
0.00995843
0.00987632
0.00958633
0.00887657
0.0073639
0.0047561
0.00649916
0.00729386
0.00757597
0.00764285
0.00768645
0.00769556
0.00769646
0.00769646
0.00769558
0.00768648
0.0076429
0.00757608
0.00729407
0.00649946
0.00475577
0.007362
0.00886769
0.00955246
0.00976277
0.00962245
0.00902814
0.00758668
0.00370027
0.00370045
0.00758953
0.00904023
0.00966655
0.0099039
0.00994824
0.00983866
0.00945628
0.00841389
0.0049182
0.00408831
0.0061036
0.00657524
0.00670701
0.0067279
0.00672912
0.00672867
0.00672868
0.00672914
0.00672793
0.00670707
0.00657538
0.0061039
0.00408855
0.00491672
0.0084048
0.00942209
0.00972474
0.00961181
0.00902514
0.00758556