/*--------------------------------*- C++ -*----------------------------------*\
| =========                 |                                                 |
| \\      /  F ield         | OpenFOAM: The Open Source CFD Toolbox           |
|  \\    /   O peration     | Version:  2112                                  |
|   \\  /    A nd           | Website:  www.openfoam.com                      |
|    \\/     M anipulation  |                                                 |
\*---------------------------------------------------------------------------*/
FoamFile
{
    version     2.0;
    format      ascii;
    arch        "LSB;label=32;scalar=64";
    class       volScalarField;
    location    "1.4";
    object      nut;
}
// * * * * * * * * * * * * * * * * * * * * * * * * * * * * * * * * * * * * * //

dimensions      [0 2 -1 0 0 0 0];

internalField   nonuniform List<scalar> 
64906
(
9.92969e-05
0.000102034
0.00010325
0.000103627
0.000103725
0.000103747
0.000103753
0.000103754
0.000103755
0.000103756
0.000103757
0.000103757
0.000103758
0.000103758
0.000103758
0.000103758
0.000103758
0.000103757
0.000103757
0.000103757
0.000103758
0.000103758
0.000103758
0.000103757
0.000103757
0.000103756
0.000103756
0.000103754
0.000103749
0.000103726
0.000103628
0.000103251
0.000102035
9.92981e-05
0.000102035
0.000119008
0.000125382
0.000127512
0.00012815
0.00012832
0.00012836
0.00012837
0.000128373
0.000128375
0.000128376
0.000128377
0.000128379
0.00012838
0.000128381
0.000128381
0.000128382
0.000128382
0.000128382
0.000128382
0.000128381
0.000128381
0.00012838
0.000128379
0.000128378
0.000128376
0.000128373
0.000128364
0.000128323
0.000128154
0.000127515
0.000125386
0.000119011
0.000102037
0.000103252
0.000125384
0.000134016
0.000137117
0.00013813
0.000138423
0.000138499
0.000138518
0.000138524
0.000138527
0.00013853
0.000138533
0.000138537
0.00013854
0.000138543
0.000138545
0.000138547
0.000138547
0.000138547
0.000138547
0.000138545
0.000138543
0.000138541
0.000138537
0.000138534
0.00013853
0.000138524
0.000138505
0.000138429
0.000138136
0.000137123
0.000134021
0.000125389
0.000103255
0.000103629
0.000127515
0.000137118
0.000140714
0.000141944
0.000142316
0.000142417
0.000142442
0.000142448
0.000142448
0.000142448
0.000142452
0.000142458
0.000142465
0.00014247
0.000142474
0.000142476
0.000142477
0.000142477
0.000142476
0.000142474
0.000142471
0.000142465
0.000142459
0.000142453
0.000142448
0.000142443
0.000142421
0.000142323
0.000141951
0.000140722
0.000137126
0.000127522
0.000103633
0.000103728
0.000128154
0.000138132
0.000141944
0.000143276
0.000143689
0.000143801
0.000143824
0.000143816
0.000143795
0.000143777
0.000143779
0.000143789
0.000143801
0.000143811
0.000143816
0.000143818
0.00014382
0.00014382
0.000143819
0.000143816
0.000143812
0.000143802
0.00014379
0.00014378
0.000143778
0.00014379
0.000143785
0.000143688
0.000143282
0.000141953
0.000138141
0.000128162
0.000103733
0.000103751
0.000128324
0.000138426
0.000142317
0.000143689
0.000144116
0.000144223
0.00014422
0.000144156
0.000144049
0.000143956
0.000143949
0.000143977
0.000144007
0.000144028
0.000144034
0.000144035
0.000144035
0.000144036
0.000144036
0.000144035
0.000144029
0.000144008
0.000143979
0.000143951
0.000143956
0.000144044
0.000144124
0.000144078
0.000143683
0.000142323
0.000138435
0.000128333
0.000103756
0.000103756
0.000128364
0.000138502
0.000142418
0.000143801
0.000144223
0.0001443
0.000144208
0.00014395
0.000143542
0.000143184
0.000143202
0.000143322
0.000143419
0.000143475
0.000143483
0.00014348
0.000143478
0.000143478
0.00014348
0.000143484
0.000143476
0.000143421
0.000143324
0.000143204
0.000143184
0.000143537
0.000143918
0.000144063
0.000143753
0.000142413
0.000138509
0.000128374
0.000103763
0.000103758
0.000128373
0.00013852
0.000142443
0.000143823
0.000144221
0.00014421
0.000143872
0.000143058
0.000141711
0.000140477
0.000140826
0.000141375
0.00014171
0.000141866
0.000141886
0.000141876
0.000141871
0.000141871
0.000141877
0.000141887
0.000141868
0.000141711
0.000141378
0.000140829
0.000140477
0.000141706
0.000143026
0.000143728
0.000143662
0.000142406
0.000138521
0.000128382
0.000103765
0.000103759
0.000128376
0.000138525
0.000142447
0.000143816
0.000144162
0.000143969
0.000143089
0.000140913
0.00013686
0.000132552
0.000135043
0.000137282
0.000138323
0.000138714
0.000138782
0.000138783
0.00013878
0.000138781
0.000138784
0.000138783
0.000138716
0.000138325
0.000137285
0.000135046
0.000132552
0.000136855
0.000140882
0.000142945
0.000143421
0.000142346
0.000138511
0.000128382
0.000103766
0.000103759
0.000128376
0.000138526
0.000142447
0.0001438
0.000144074
0.000143614
0.000141851
0.00013702
0.000125716
0.000109755
0.000122912
0.0001307
0.000133379
0.000134157
0.000134352
0.000134394
0.000134403
0.000134403
0.000134395
0.000134353
0.000134159
0.000133381
0.000130704
0.000122917
0.000109755
0.000125712
0.00013699
0.000141708
0.000143066
0.000142257
0.000138493
0.000128379
0.000103767
0.000103759
0.000128376
0.000138528
0.000142448
0.000143793
0.000144024
0.000143384
0.000140907
0.000133188
0.000110102
0.000108273
0.000124784
0.00012937
0.000130507
0.000130751
0.000130794
0.0001308
0.0001308
0.000130794
0.000130752
0.000130508
0.000129372
0.000124789
0.000108277
0.0001101
0.000133157
0.000140764
0.000142835
0.000142206
0.000138484
0.000128377
0.000103767
0.000103759
0.000128376
0.00013853
0.000142455
0.000143812
0.000144091
0.000143631
0.000141854
0.000136968
0.000125521
0.000109566
0.000121869
0.000129412
0.000131965
0.000132683
0.000132805
0.000132801
0.000132791
0.000132791
0.0001328
0.000132805
0.000132682
0.000131965
0.000129412
0.000121868
0.000109561
0.00012551
0.000136934
0.000141708
0.000143081
0.00014227
0.0001385
0.000128379
0.000103767
0.000103759
0.000128376
0.000138532
0.000142463
0.000143841
0.000144194
0.000143999
0.000143083
0.000140784
0.000136417
0.000131494
0.000132862
0.000134052
0.000134563
0.000134723
0.000134725
0.0001347
0.000134687
0.000134687
0.0001347
0.000134724
0.000134721
0.000134561
0.000134049
0.000132857
0.000131486
0.000136406
0.000140748
0.000142936
0.000143447
0.000142371
0.000138525
0.000128383
0.000103767
0.000103758
0.000128375
0.000138534
0.00014247
0.000143864
0.000144272
0.000144256
0.000143862
0.000142855
0.00014102
0.000138797
0.00013756
0.000136462
0.000135966
0.000135793
0.000135722
0.00013569
0.000135677
0.000135677
0.000135689
0.000135721
0.000135791
0.000135963
0.000136459
0.000137555
0.00013879
0.000141009
0.000142819
0.000143714
0.000143702
0.000142446
0.000138544
0.000128385
0.000103766
0.000103757
0.000128375
0.000138536
0.000142475
0.000143877
0.000144313
0.000144383
0.000144221
0.00014372
0.000142699
0.00014112
0.000139263
0.000137413
0.000136531
0.000136217
0.000136112
0.000136074
0.000136061
0.00013606
0.000136073
0.000136111
0.000136215
0.000136528
0.00013741
0.000139256
0.000141115
0.000142689
0.000143684
0.000144072
0.000143829
0.000142486
0.000138555
0.000128386
0.000103765
0.000103756
0.000128374
0.000138537
0.000142478
0.000143884
0.000144331
0.000144435
0.000144356
0.000144023
0.000143241
0.000141816
0.0001398
0.000137723
0.000136717
0.000136355
0.000136237
0.000136195
0.00013618
0.000136179
0.000136194
0.000136235
0.000136352
0.000136714
0.00013772
0.000139794
0.00014181
0.000143231
0.000143987
0.000144207
0.00014388
0.000142503
0.00013856
0.000128387
0.000103763
0.000103755
0.000128374
0.000138537
0.000142479
0.000143888
0.000144339
0.000144454
0.000144401
0.000144115
0.000143396
0.000142006
0.00013995
0.000137811
0.00013677
0.000136394
0.000136271
0.000136227
0.000136209
0.000136208
0.000136226
0.000136269
0.000136391
0.000136767
0.000137808
0.000139945
0.000142001
0.000143387
0.000144079
0.000144252
0.000143898
0.00014251
0.000138562
0.000128387
0.000103762
0.000103754
0.000128373
0.000138538
0.00014248
0.000143889
0.000144342
0.00014446
0.000144414
0.000144141
0.000143436
0.000142053
0.000139988
0.000137833
0.000136784
0.000136404
0.000136279
0.000136234
0.000136213
0.000136212
0.000136232
0.000136277
0.000136401
0.000136781
0.00013783
0.000139983
0.000142048
0.000143427
0.000144105
0.000144265
0.000143905
0.000142513
0.000138564
0.000128386
0.00010376
0.000103754
0.000128373
0.000138538
0.000142481
0.00014389
0.000144343
0.000144461
0.000144415
0.000144142
0.000143438
0.000142055
0.00013999
0.000137835
0.000136784
0.000136404
0.000136279
0.000136233
0.00013621
0.000136209
0.000136231
0.000136277
0.000136401
0.000136782
0.000137831
0.000139985
0.00014205
0.000143429
0.000144107
0.000144266
0.000143906
0.000142514
0.000138564
0.000128386
0.000103759
0.000103754
0.000128374
0.000138538
0.000142481
0.00014389
0.000144342
0.000144457
0.000144405
0.000144121
0.000143403
0.000142013
0.000139958
0.000137815
0.000136773
0.000136395
0.000136271
0.000136224
0.000136202
0.000136201
0.000136222
0.000136268
0.000136392
0.00013677
0.000137812
0.000139952
0.000142009
0.000143394
0.000144085
0.000144256
0.000143902
0.000142513
0.000138564
0.000128386
0.000103759
0.000103754
0.000128374
0.000138538
0.00014248
0.000143887
0.000144335
0.000144441
0.000144363
0.000144032
0.000143252
0.000141829
0.000139813
0.000137732
0.000136722
0.000136357
0.000136237
0.000136192
0.000136172
0.000136171
0.00013619
0.000136234
0.000136355
0.000136719
0.000137728
0.000139809
0.000141825
0.000143244
0.000143997
0.000144215
0.000143886
0.000142507
0.000138563
0.000128387
0.000103761
0.000103755
0.000128375
0.000138537
0.000142478
0.000143882
0.000144319
0.000144391
0.000144231
0.000143734
0.000142717
0.000141143
0.000139286
0.000137427
0.00013654
0.000136222
0.000136114
0.000136072
0.000136054
0.000136054
0.00013607
0.000136112
0.00013622
0.000136538
0.000137425
0.000139282
0.00014114
0.00014271
0.0001437
0.000144084
0.000143837
0.000142492
0.000138558
0.000128387
0.000103762
0.000103756
0.000128375
0.000138537
0.000142474
0.000143869
0.000144279
0.000144266
0.000143876
0.000142875
0.000141049
0.000138835
0.000137598
0.000136484
0.000135981
0.000135803
0.000135728
0.000135692
0.000135676
0.000135676
0.00013569
0.000135726
0.000135801
0.000135979
0.000136483
0.000137597
0.000138834
0.000141043
0.000142842
0.000143731
0.000143714
0.000142454
0.000138549
0.000128386
0.000103764
0.000103757
0.000128376
0.000138535
0.000142468
0.000143848
0.000144204
0.000144012
0.000143101
0.000140811
0.00013646
0.000131557
0.00013291
0.000134079
0.00013458
0.000134733
0.000134731
0.000134703
0.000134689
0.000134688
0.000134703
0.000134729
0.000134732
0.000134579
0.000134079
0.000132913
0.000131559
0.000136456
0.00014078
0.000142958
0.000143462
0.000142382
0.000138531
0.000128384
0.000103765
0.000103758
0.000128376
0.000138533
0.00014246
0.000143821
0.000144102
0.000143646
0.000141875
0.000137001
0.000125576
0.000109606
0.000121901
0.000129406
0.000131946
0.000132655
0.000132773
0.000132765
0.000132754
0.000132754
0.000132764
0.000132771
0.000132652
0.000131941
0.000129401
0.000121907
0.000109604
0.000125575
0.000136972
0.000141733
0.000143098
0.000142282
0.000138507
0.000128381
0.000103765
0.000103758
0.000128377
0.000138531
0.000142454
0.000143801
0.000144036
0.000143398
0.000140924
0.000133206
0.000110109
0.000108201
0.000124623
0.00012916
0.000130262
0.00013049
0.000130526
0.000130528
0.000130528
0.000130522
0.000130481
0.000130243
0.000129123
0.000124565
0.000108164
0.000110099
0.000133172
0.00014078
0.000142851
0.000142219
0.000138491
0.00012838
0.000103765
0.000103758
0.000128376
0.000138527
0.000142449
0.000143804
0.000144082
0.000143626
0.000141866
0.000137037
0.00012573
0.000109757
0.000122622
0.000130174
0.000132576
0.000133185
0.000133327
0.000133358
0.000133363
0.000133361
0.000133351
0.000133305
0.00013312
0.000132421
0.000129894
0.000122382
0.000109685
0.000125672
0.000136979
0.000141715
0.000143077
0.000142267
0.000138499
0.000128381
0.000103765
0.000103757
0.000128368
0.00013851
0.000142428
0.000143797
0.000144145
0.000143955
0.000143073
0.000140882
0.000136765
0.000132274
0.000134302
0.000135859
0.000136096
0.000136041
0.000135993
0.000135977
0.000135972
0.00013597
0.000135965
0.000135948
0.000135889
0.000135688
0.00013506
0.000133578
0.000131833
0.000136545
0.000140762
0.000142902
0.000143403
0.000142334
0.000138502
0.000128377
0.000103764
0.000103752
0.000128328
0.000138435
0.000142331
0.000143699
0.000144094
0.000144084
0.000143739
0.000142886
0.000141405
0.000139808
0.000139373
0.000138653
0.00013752
0.000136968
0.000136778
0.000136725
0.000136711
0.000136708
0.000136708
0.000136714
0.00013674
0.000136845
0.000137197
0.000138061
0.000138992
0.000141005
0.000142698
0.000143548
0.000143534
0.000142301
0.000138443
0.00012834
0.000103759
0.000103729
0.00012816
0.000138143
0.000141961
0.000143295
0.0001437
0.000143772
0.00014367
0.000143365
0.000142799
0.000142024
0.000141166
0.000139873
0.000138387
0.00013769
0.000137456
0.000137392
0.000137377
0.000137374
0.000137376
0.000137388
0.000137443
0.000137652
0.000138298
0.000139732
0.000141123
0.000142355
0.000143163
0.00014348
0.000143242
0.000141963
0.000138158
0.000128173
0.000103736
0.000103631
0.000127521
0.00013713
0.000140732
0.000141966
0.000142341
0.000142434
0.000142421
0.000142322
0.000142096
0.000141691
0.000141039
0.000140054
0.000138978
0.000138427
0.000138229
0.000138174
0.000138163
0.000138161
0.000138161
0.000138171
0.000138223
0.000138413
0.000138952
0.00014002
0.000141036
0.00014177
0.000142171
0.000142265
0.000141961
0.000140747
0.000137147
0.000127534
0.000103638
0.000103254
0.000125391
0.000134028
0.000137135
0.000138154
0.000138452
0.000138531
0.000138544
0.000138519
0.000138437
0.000138254
0.000137911
0.000137385
0.000136818
0.000136505
0.000136385
0.00013635
0.000136343
0.000136342
0.000136342
0.000136349
0.000136383
0.000136501
0.00013681
0.000137375
0.000137909
0.000138267
0.000138438
0.000138439
0.000138168
0.000137154
0.000134045
0.000125403
0.00010326
0.000102038
0.000119015
0.000125395
0.00012753
0.000128173
0.000128348
0.000128394
0.000128407
0.000128408
0.000128388
0.000128329
0.000128204
0.000128005
0.000127785
0.000127656
0.000127603
0.000127587
0.000127583
0.000127582
0.000127583
0.000127587
0.000127603
0.000127655
0.000127783
0.000128003
0.000128203
0.00012833
0.000128381
0.00012836
0.000128191
0.000127547
0.000125409
0.000119025
0.000102043
9.92996e-05
0.000102039
0.000103258
0.000103637
0.000103738
0.000103765
0.000103774
0.00010378
0.000103785
0.00010379
0.00010379
0.000103782
0.000103763
0.000103738
0.000103722
0.000103714
0.000103709
0.000103706
0.000103704
0.000103706
0.000103709
0.000103714
0.000103722
0.000103737
0.000103761
0.000103779
0.000103787
0.000103786
0.000103777
0.00010375
0.000103647
0.000103266
0.000102045
9.93033e-05
0.000152337
0.000165493
0.000171389
0.00017343
0.000174038
0.000174197
0.000174234
0.000174242
0.000174244
0.000174244
0.000174244
0.000174244
0.000174244
0.000174244
0.000174243
0.000174243
0.000174243
0.000174242
0.000174242
0.000174243
0.000174243
0.000174243
0.000174243
0.000174244
0.000174244
0.000174244
0.000174242
0.000174234
0.000174197
0.000174039
0.000173431
0.00017139
0.000165494
0.000152338
0.000165493
0.000457841
0.000543427
0.000572538
0.000581992
0.000584724
0.000585415
0.000585564
0.000585584
0.000585572
0.000585553
0.000585531
0.000585512
0.000585495
0.000585481
0.00058547
0.000585463
0.000585459
0.000585459
0.000585463
0.00058547
0.000585481
0.000585495
0.000585511
0.000585529
0.000585544
0.000585532
0.000585391
0.000584705
0.000581976
0.000572524
0.000543413
0.000457831
0.000165494
0.000171391
0.000543446
0.000662855
0.000706559
0.000721861
0.000726646
0.000727963
0.000728277
0.000728329
0.000728313
0.000728286
0.000728266
0.000728257
0.000728254
0.000728253
0.00072825
0.000728247
0.000728246
0.000728246
0.000728248
0.000728251
0.000728254
0.000728255
0.000728259
0.000728266
0.000728271
0.000728231
0.000727937
0.000726637
0.00072186
0.00070656
0.000662855
0.000543446
0.000171394
0.000173433
0.000572567
0.000706572
0.000757744
0.00077644
0.00078254
0.000784281
0.000784688
0.000784705
0.0007846
0.000784483
0.000784423
0.00078441
0.000784421
0.000784434
0.000784436
0.000784433
0.000784431
0.000784432
0.000784435
0.000784438
0.000784437
0.000784424
0.000784414
0.000784424
0.000784463
0.000784482
0.000784162
0.000782494
0.000776434
0.000757753
0.000706581
0.000572574
0.000173437
0.000174042
0.000582025
0.00072188
0.000776447
0.000796816
0.000803589
0.000805511
0.00080584
0.000805586
0.000805069
0.000804567
0.000804347
0.000804311
0.000804352
0.000804398
0.000804392
0.000804371
0.000804359
0.00080436
0.000804373
0.000804395
0.000804402
0.000804357
0.000804316
0.000804348
0.000804545
0.000804931
0.000804956
0.000803339
0.000796737
0.000776439
0.00072189
0.000582034
0.000174047
0.000174202
0.000584757
0.000726667
0.000782549
0.000803591
0.000810591
0.000812407
0.000812244
0.000810967
0.000808957
0.000807106
0.000806499
0.000806516
0.00080672
0.000806887
0.000806846
0.000806761
0.000806715
0.000806716
0.000806763
0.000806849
0.000806892
0.000806726
0.000806522
0.000806501
0.000807083
0.000808811
0.000810299
0.000809607
0.000803232
0.000782454
0.000726655
0.000584762
0.000174208
0.000174239
0.000585445
0.000727981
0.000784289
0.000805515
0.000812414
0.000813643
0.000811919
0.000807472
0.000800706
0.000794592
0.000793745
0.000794587
0.000795556
0.000796191
0.000796065
0.000795827
0.000795708
0.000795709
0.000795829
0.000796069
0.000796197
0.000795562
0.000794594
0.000793749
0.000794571
0.00080056
0.000806794
0.000809236
0.000804327
0.000783931
0.0007279
0.000585434
0.000174245
0.000174247
0.000585589
0.00072829
0.000784695
0.000805857
0.000812295
0.000812009
0.000806309
0.000793352
0.000772687
0.000753095
0.000756366
0.000762155
0.00076602
0.000768096
0.000767876
0.000767413
0.000767201
0.000767202
0.000767415
0.00076788
0.000768102
0.000766027
0.000762164
0.000756372
0.000753077
0.000772546
0.000792678
0.00080362
0.000802655
0.000783709
0.00072804
0.000585539
0.000174253
0.000174248
0.000585603
0.000728338
0.000784721
0.000805655
0.000811179
0.000807937
0.000793987
0.000761192
0.000700985
0.000629663
0.000670214
0.000698582
0.000711391
0.000716738
0.000716815
0.000716352
0.000716146
0.000716147
0.000716353
0.000716819
0.000716744
0.000711399
0.000698594
0.000670228
0.00062965
0.000700856
0.000760532
0.000791305
0.000798577
0.000782564
0.000727777
0.000585478
0.000174252
0.000174248
0.000585585
0.000728324
0.00078465
0.00080528
0.000809611
0.000802262
0.000775393
0.000703781
0.000528433
0.000196273
0.000486555
0.000601651
0.000636132
0.000646202
0.000648107
0.000648361
0.000648369
0.000648369
0.000648363
0.00064811
0.000646207
0.000636143
0.000601674
0.000486598
0.000196268
0.000528328
0.000703136
0.000772716
0.000792895
0.000780976
0.000727369
0.000585363
0.000174249
0.000174247
0.000585561
0.000728306
0.000784606
0.000805073
0.000808704
0.000798621
0.000760922
0.000639685
0.000198196
0.000188721
0.000510011
0.000574083
0.000587951
0.000591259
0.000591895
0.000591977
0.000591977
0.000591896
0.000591261
0.000587955
0.000574095
0.000510045
0.000188727
0.000198172
0.000639057
0.000758238
0.000789237
0.000780042
0.000727124
0.000585272
0.000174246
0.000174246
0.000585537
0.000728305
0.000784657
0.000805301
0.000809606
0.000802121
0.000774838
0.000702236
0.000524904
0.000195155
0.000471116
0.000578547
0.000608823
0.00061499
0.000618774
0.000619528
0.000619556
0.000619555
0.000619524
0.000618766
0.000614979
0.000608812
0.000578539
0.000471103
0.000195139
0.000524734
0.000701559
0.000772138
0.000792723
0.000780921
0.00072731
0.000585261
0.000174246
0.000174245
0.000585517
0.000728314
0.000784754
0.000805715
0.000811182
0.000807633
0.000792706
0.000757395
0.000691621
0.00061007
0.000631084
0.00063813
0.000641305
0.000641974
0.000642639
0.000642663
0.000642583
0.000642582
0.000642658
0.000642631
0.000641962
0.000641288
0.000638104
0.000631045
0.000610005
0.000691445
0.000756701
0.000789992
0.000798221
0.000782472
0.000727683
0.0005853
0.000174246
0.000174244
0.000585499
0.000728322
0.000784835
0.000806052
0.000812407
0.000811647
0.000804386
0.000787259
0.000757148
0.000719577
0.000694791
0.000669002
0.000658976
0.000655886
0.000655071
0.000654795
0.000654697
0.000654697
0.000654792
0.000655067
0.000655878
0.00065896
0.000668979
0.000694768
0.00071953
0.00075698
0.000786561
0.000801661
0.000802218
0.000783671
0.000727982
0.000585331
0.000174246
0.000174242
0.000585485
0.000728326
0.000784883
0.000806244
0.000813073
0.000813717
0.000810011
0.000800205
0.000781323
0.00075258
0.000717948
0.000681706
0.000666469
0.000661598
0.000660252
0.000659898
0.000659813
0.000659813
0.000659898
0.00066025
0.000661593
0.000666457
0.000681687
0.000717938
0.000752544
0.000781161
0.000799505
0.000807278
0.000804274
0.000784316
0.000728145
0.000585343
0.000174245
0.000174241
0.000585475
0.000728326
0.000784907
0.000806332
0.00081336
0.000814568
0.000812208
0.000804941
0.00078943
0.000762654
0.000725498
0.000686085
0.000669098
0.000663581
0.000662068
0.000661703
0.00066163
0.00066163
0.000661703
0.000662068
0.000663577
0.000669088
0.000686069
0.000725492
0.000762622
0.00078927
0.00080424
0.000809471
0.000805117
0.00078459
0.000728214
0.000585343
0.000174244
0.00017424
0.000585468
0.000728326
0.000784917
0.000806367
0.000813467
0.000814865
0.000812936
0.000806434
0.000791847
0.000765498
0.000727666
0.000687383
0.00066989
0.000664181
0.000662624
0.00066226
0.000662195
0.000662195
0.000662261
0.000662624
0.000664178
0.000669881
0.000687368
0.000727661
0.000765467
0.000791688
0.000805734
0.000810197
0.00080541
0.000784689
0.000728239
0.000585339
0.000174242
0.000174239
0.000585464
0.000728326
0.000784921
0.000806381
0.000813502
0.000814953
0.000813139
0.000806832
0.000792462
0.000766194
0.000728197
0.000687712
0.000670094
0.000664337
0.000662771
0.000662409
0.000662348
0.000662348
0.00066241
0.000662771
0.000664335
0.000670086
0.000687697
0.000728192
0.000766164
0.000792305
0.000806132
0.0008104
0.000805496
0.000784721
0.000728246
0.000585336
0.000174241
0.000174238
0.000585463
0.000728326
0.000784923
0.000806383
0.000813505
0.000814957
0.000813145
0.000806838
0.000792469
0.0007662
0.000728203
0.000687722
0.000670101
0.000664342
0.000662775
0.000662414
0.000662353
0.000662354
0.000662415
0.000662775
0.00066434
0.000670093
0.000687708
0.000728199
0.000766171
0.000792313
0.00080614
0.000810407
0.000805501
0.000784724
0.000728248
0.000585335
0.00017424
0.000174238
0.000585466
0.000728327
0.000784922
0.000806375
0.000813478
0.000814879
0.000812953
0.000806455
0.00079187
0.00076552
0.000727688
0.000687417
0.000669915
0.000664199
0.000662641
0.000662279
0.000662216
0.000662217
0.00066228
0.000662642
0.000664198
0.000669908
0.000687405
0.000727685
0.000765492
0.000791715
0.000805759
0.000810218
0.000805425
0.000784699
0.000728243
0.000585336
0.000174241
0.000174239
0.000585471
0.000728329
0.000784915
0.000806345
0.000813379
0.000814593
0.000812239
0.00080498
0.000789477
0.000762704
0.000725547
0.000686157
0.000669156
0.000663629
0.000662116
0.000661753
0.000661684
0.000661685
0.000661756
0.000662119
0.000663631
0.000669152
0.000686148
0.000725546
0.000762678
0.000789325
0.000804287
0.000809507
0.000805144
0.000784607
0.000728221
0.000585338
0.000174241
0.00017424
0.00058548
0.00072833
0.000784895
0.000806263
0.0008131
0.000813753
0.00081006
0.000800271
0.000781411
0.000752684
0.00071805
0.000681842
0.000666588
0.000661707
0.000660364
0.000660017
0.000659937
0.000659939
0.000660021
0.00066037
0.000661714
0.00066659
0.000681841
0.000718054
0.000752663
0.000781264
0.000799584
0.000807336
0.000804315
0.000784341
0.000728155
0.000585337
0.000174243
0.000174242
0.000585493
0.000728327
0.000784851
0.000806078
0.000812443
0.000811696
0.000804457
0.000787365
0.000757307
0.000719794
0.000694993
0.000669236
0.000659187
0.000656095
0.000655289
0.000655026
0.000654938
0.000654941
0.000655034
0.000655302
0.00065611
0.000659201
0.000669248
0.00069501
0.000719783
0.00075717
0.000786688
0.000801746
0.000802274
0.000783706
0.000727995
0.000585322
0.000174243
0.000174243
0.000585508
0.00072832
0.000784773
0.000805746
0.000811227
0.000807696
0.0007928
0.000757548
0.00069189
0.000610504
0.000631495
0.000638433
0.000641564
0.000642235
0.000642916
0.000642962
0.000642898
0.000642903
0.000642975
0.000642936
0.000642257
0.000641585
0.000638456
0.000631541
0.000610516
0.000691773
0.000756886
0.000790103
0.000798292
0.000782514
0.000727699
0.000585288
0.000174243
0.000174244
0.000585525
0.000728309
0.000784676
0.000805334
0.000809655
0.00080219
0.00077494
0.000702409
0.000525254
0.000195248
0.000471433
0.000578505
0.000608653
0.000614756
0.00061855
0.000619333
0.000619379
0.000619383
0.000619345
0.000618562
0.000614748
0.000608609
0.000578449
0.000471536
0.000195244
0.000525181
0.000701751
0.000772243
0.000792794
0.000780964
0.000727324
0.000585243
0.000174242
0.000174245
0.00058554
0.000728297
0.000784609
0.000805088
0.000808733
0.000798664
0.000760975
0.000639737
0.000198186
0.000188437
0.000507881
0.000571159
0.00058451
0.000587679
0.000588303
0.000588388
0.000588385
0.000588286
0.000587613
0.000584299
0.000570655
0.000507086
0.000188261
0.000198121
0.000638995
0.000758226
0.000789256
0.00078006
0.000727121
0.00058524
0.000174242
0.000174244
0.00058553
0.000728247
0.000784557
0.000805184
0.00080952
0.000802171
0.00077527
0.000703559
0.000528056
0.000195999
0.000481636
0.000592882
0.000623081
0.000630581
0.000632021
0.000632297
0.00063234
0.000632326
0.000632228
0.000631757
0.000629713
0.000620776
0.000588504
0.000477866
0.00019556
0.000526977
0.000702296
0.000772323
0.000792718
0.000780875
0.000727288
0.000585286
0.000174244
0.000174237
0.000585392
0.000727952
0.000784205
0.000805069
0.000810563
0.000807281
0.000793184
0.000759912
0.000698354
0.00062362
0.00065614
0.000672746
0.000671583
0.000669509
0.000668443
0.000668091
0.000667994
0.000667966
0.000667936
0.000667811
0.000667264
0.00066498
0.000658636
0.000643175
0.00061572
0.000694065
0.000757412
0.000789825
0.000797748
0.000781997
0.000727376
0.000585238
0.00017424
0.000174201
0.00058471
0.000726655
0.000782528
0.0008034
0.000809702
0.000809307
0.000803314
0.000789399
0.000765959
0.00073943
0.000728305
0.000710762
0.000686586
0.000676484
0.000673302
0.000672458
0.000672262
0.000672223
0.00067223
0.000672322
0.000672793
0.000674785
0.000682427
0.000703702
0.000724069
0.000758153
0.000785539
0.000799545
0.000799783
0.000781449
0.00072638
0.000584624
0.000174206
0.000174042
0.000581984
0.00072188
0.000776467
0.000796784
0.000803281
0.000804293
0.000802199
0.000796611
0.00078656
0.000772359
0.000755065
0.000729432
0.000699601
0.000687165
0.000683268
0.000682237
0.000681999
0.000681956
0.000681984
0.000682182
0.000683088
0.000686629
0.000698441
0.00072791
0.000755215
0.000777856
0.000792437
0.000798455
0.000795141
0.000776007
0.000721771
0.000581936
0.000174048
0.000173434
0.000572531
0.000706578
0.000757782
0.000776479
0.000782495
0.000783911
0.00078339
0.000781203
0.00077663
0.000768586
0.000755696
0.000736717
0.000716337
0.000706657
0.000703308
0.000702344
0.0007021
0.000702056
0.0007021
0.000702335
0.00070327
0.00070653
0.000716077
0.000736447
0.000755994
0.000770111
0.000777993
0.000780263
0.00077578
0.000757611
0.000706542
0.000572499
0.00017344
0.000171393
0.000543414
0.000662863
0.000706599
0.000721918
0.00072669
0.00072791
0.000727903
0.000727108
0.000725155
0.000721219
0.000714263
0.000704012
0.000693281
0.000687559
0.000685362
0.000684669
0.000684479
0.000684444
0.000684485
0.00068468
0.000685371
0.000687552
0.000693251
0.000703997
0.0007144
0.00072159
0.00072527
0.000725763
0.000721658
0.000706549
0.000662853
0.000543387
0.000171397
0.000165495
0.000457822
0.00054344
0.000572574
0.000582042
0.000584777
0.000585447
0.000585505
0.000585259
0.000584587
0.000583135
0.000580448
0.00057645
0.000572239
0.000569801
0.000568776
0.000568418
0.000568307
0.000568286
0.000568318
0.00056844
0.000568806
0.000569836
0.000572277
0.000576496
0.000580528
0.000583236
0.000584533
0.000584469
0.00058196
0.000572558
0.000543429
0.000457794
0.000165499
0.00015234
0.000165495
0.000171396
0.000173441
0.000174053
0.000174216
0.000174256
0.000174266
0.000174263
0.000174242
0.000174185
0.000174068
0.000173883
0.000173681
0.00017356
0.000173508
0.000173488
0.000173481
0.000173479
0.000173481
0.000173489
0.000173509
0.000173561
0.000173681
0.000173883
0.000174068
0.000174186
0.000174235
0.000174218
0.000174062
0.000173449
0.000171402
0.000165499
0.000152343
0.000157564
0.000175979
0.000184496
0.000187627
0.000188634
0.000188917
0.000188988
0.000189004
0.000189007
0.000189007
0.000189006
0.000189005
0.000189004
0.000189003
0.000189002
0.000189002
0.000189001
0.000189001
0.000189001
0.000189001
0.000189002
0.000189002
0.000189003
0.000189004
0.000189005
0.000189005
0.000189003
0.000188987
0.000188917
0.000188633
0.000187627
0.000184496
0.00017598
0.000157565
0.000175979
0.00057943
0.000710071
0.000757219
0.000773475
0.000778486
0.000779841
0.000780152
0.000780196
0.000780171
0.000780129
0.000780084
0.000780044
0.00078001
0.000779983
0.000779962
0.000779946
0.000779938
0.000779938
0.000779945
0.00077996
0.000779981
0.000780008
0.00078004
0.000780076
0.000780106
0.000780077
0.000779782
0.000778439
0.000773436
0.000757183
0.000710036
0.000579404
0.000175979
0.000184498
0.0007101
0.000900009
0.00097347
0.00100051
0.00100944
0.00101204
0.00101268
0.00101278
0.00101274
0.00101265
0.00101259
0.00101254
0.00101252
0.0010125
0.00101249
0.00101248
0.00101247
0.00101247
0.00101248
0.00101249
0.0010125
0.00101252
0.00101254
0.00101258
0.00101261
0.00101254
0.00101194
0.00100939
0.00100048
0.00097345
0.000899988
0.000710083
0.000184499
0.000187631
0.000757265
0.000973492
0.00106065
0.00109404
0.0011055
0.00110894
0.00110977
0.00110979
0.00110953
0.00110922
0.001109
0.0011089
0.00110886
0.00110886
0.00110884
0.00110882
0.0011088
0.0011088
0.00110882
0.00110884
0.00110886
0.00110887
0.0011089
0.001109
0.00110916
0.00110925
0.00110862
0.00110535
0.00109398
0.00106064
0.000973481
0.000757256
0.000187634
0.000188638
0.000773528
0.00100055
0.00109405
0.00113063
0.00114342
0.00114722
0.00114787
0.00114731
0.00114617
0.00114498
0.00114425
0.00114391