/*--------------------------------*- C++ -*----------------------------------*\
| =========                 |                                                 |
| \\      /  F ield         | OpenFOAM: The Open Source CFD Toolbox           |
|  \\    /   O peration     | Version:  2112                                  |
|   \\  /    A nd           | Website:  www.openfoam.com                      |
|    \\/     M anipulation  |                                                 |
\*---------------------------------------------------------------------------*/
FoamFile
{
    version     2.0;
    format      ascii;
    arch        "LSB;label=32;scalar=64";
    class       volScalarField;
    location    "1.4";
    object      p;
}
// * * * * * * * * * * * * * * * * * * * * * * * * * * * * * * * * * * * * * //

dimensions      [0 2 -2 0 0 0 0];

internalField   nonuniform List<scalar> 
64906
(
-9.88218e-06
-9.85942e-06
-9.86159e-06
-9.89159e-06
-9.95356e-06
-1.00478e-05
-1.01738e-05
-1.03309e-05
-1.05165e-05
-1.0727e-05
-1.09532e-05
-1.11867e-05
-1.14117e-05
-1.16195e-05
-1.17997e-05
-1.19473e-05
-1.20579e-05
-1.21298e-05
-1.2162e-05
-1.21546e-05
-1.21091e-05
-1.20274e-05
-1.19142e-05
-1.17745e-05
-1.1619e-05
-1.14563e-05
-1.13021e-05
-1.11648e-05
-1.10533e-05
-1.09712e-05
-1.09207e-05
-1.09013e-05
-1.0908e-05
-1.09314e-05
-9.82635e-06
-9.70691e-06
-9.64481e-06
-9.62095e-06
-9.64071e-06
-9.69762e-06
-9.78565e-06
-9.90098e-06
-1.00394e-05
-1.01975e-05
-1.03656e-05
-1.05385e-05
-1.07009e-05
-1.08501e-05
-1.09778e-05
-1.10833e-05
-1.1164e-05
-1.12198e-05
-1.12505e-05
-1.12561e-05
-1.12374e-05
-1.11946e-05
-1.11306e-05
-1.10463e-05
-1.09499e-05
-1.08441e-05
-1.07446e-05
-1.06567e-05
-1.0592e-05
-1.05571e-05
-1.05617e-05
-1.06144e-05
-1.07111e-05
-1.085e-05
-9.82381e-06
-9.65807e-06
-9.54278e-06
-9.47599e-06
-9.46483e-06
-9.49867e-06
-9.56831e-06
-9.66914e-06
-9.79684e-06
-9.95042e-06
-1.01167e-05
-1.02923e-05
-1.04496e-05
-1.05898e-05
-1.07037e-05
-1.07961e-05
-1.0866e-05
-1.09157e-05
-1.09453e-05
-1.09552e-05
-1.09453e-05
-1.09137e-05
-1.08618e-05
-1.07846e-05
-1.06919e-05
-1.05821e-05
-1.04841e-05
-1.04016e-05
-1.03515e-05
-1.0341e-05
-1.03839e-05
-1.04923e-05
-1.06563e-05
-1.08686e-05
-9.89052e-06
-9.6835e-06
-9.52714e-06
-9.42748e-06
-9.3961e-06
-9.42095e-06
-9.49187e-06
-9.60631e-06
-9.76277e-06
-9.96681e-06
-1.01988e-05
-1.04567e-05
-1.06756e-05
-1.08621e-05
-1.10021e-05
-1.11112e-05
-1.11895e-05
-1.12429e-05
-1.12721e-05
-1.12773e-05
-1.12581e-05
-1.12089e-05
-1.11301e-05
-1.10062e-05
-1.08521e-05
-1.06607e-05
-1.04992e-05
-1.03701e-05
-1.02985e-05
-1.02876e-05
-1.03517e-05
-1.05018e-05
-1.07201e-05
-1.09891e-05
-1.00342e-05
-9.79027e-06
-9.60596e-06
-9.48752e-06
-9.45079e-06
-9.48422e-06
-9.57944e-06
-9.74037e-06
-9.97386e-06
-1.03015e-05
-1.06956e-05
-1.116e-05
-1.15351e-05
-1.18408e-05
-1.20562e-05
-1.22182e-05
-1.23285e-05
-1.23979e-05
-1.24273e-05
-1.24169e-05
-1.23662e-05
-1.22644e-05
-1.21109e-05
-1.18686e-05
-1.15599e-05
-1.11643e-05
-1.08461e-05
-1.05996e-05
-1.04604e-05
-1.04175e-05
-1.048e-05
-1.0653e-05
-1.09097e-05
-1.12264e-05
-1.02603e-05
-9.96016e-06
-9.76193e-06
-9.6364e-06
-9.60743e-06
-9.66543e-06
-9.8061e-06
-1.00449e-05
-1.04059e-05
-1.09439e-05
-1.16303e-05
-1.25035e-05
-1.3165e-05
-1.36818e-05
-1.40292e-05
-1.42873e-05
-1.44572e-05
-1.45574e-05
-1.45878e-05
-1.45487e-05
-1.44402e-05
-1.42439e-05
-1.39599e-05
-1.35079e-05
-1.29156e-05
-1.21137e-05
-1.15122e-05
-1.10632e-05
-1.0807e-05
-1.07014e-05
-1.0742e-05
-1.09238e-05
-1.121e-05
-1.15803e-05
-1.05454e-05
-1.01963e-05
-9.98228e-06
-9.85567e-06
-9.84501e-06
-9.94165e-06
-1.01464e-05
-1.04904e-05
-1.10249e-05
-1.18693e-05
-1.29982e-05
-1.46557e-05
-1.57732e-05
-1.66067e-05
-1.71454e-05
-1.75458e-05
-1.78044e-05
-1.79515e-05
-1.79841e-05
-1.7902e-05
-1.77084e-05
-1.73728e-05
-1.68997e-05
-1.61322e-05
-1.50868e-05
-1.35001e-05
-1.24731e-05
-1.17262e-05
-1.13067e-05
-1.11113e-05
-1.1113e-05
-1.12927e-05
-1.15972e-05
-1.20566e-05
-1.08769e-05
-1.04906e-05
-1.02563e-05
-1.0134e-05
-1.01539e-05
-1.03063e-05
-1.05954e-05
-1.10643e-05
-1.17982e-05
-1.29852e-05
-1.46503e-05
-1.78374e-05
-1.95714e-05
-2.08426e-05
-2.16515e-05
-2.22602e-05
-2.26514e-05
-2.28696e-05
-2.29057e-05
-2.27594e-05
-2.24395e-05
-2.19003e-05
-2.11599e-05
-1.99547e-05
-1.82945e-05
-1.51659e-05
-1.36421e-05
-1.25564e-05
-1.19455e-05
-1.16396e-05
-1.15846e-05
-1.1753e-05
-1.20799e-05
-1.2628e-05
-1.1254e-05
-1.0824e-05
-1.05704e-05
-1.04594e-05
-1.05248e-05
-1.07539e-05
-1.11499e-05
-1.17565e-05
-1.26601e-05
-1.4216e-05
-1.6293e-05
-2.25017e-05
-2.46786e-05
-2.64332e-05
-2.75691e-05
-2.84212e-05
-2.89714e-05
-2.92761e-05
-2.93176e-05
-2.90952e-05
-2.86258e-05
-2.78508e-05
-2.67876e-05
-2.50952e-05
-2.29964e-05
-1.68091e-05
-1.49714e-05
-1.34919e-05
-1.27142e-05
-1.22813e-05
-1.21481e-05
-1.22937e-05
-1.26507e-05
-1.32725e-05
-1.16671e-05
-1.11867e-05
-1.09177e-05
-1.08321e-05
-1.09723e-05
-1.13259e-05
-1.18961e-05
-1.2678e-05
-1.3809e-05
-1.62863e-05
-1.41742e-05
-2.80239e-05
-3.05205e-05
-3.30496e-05
-3.46892e-05
-3.59286e-05
-3.6732e-05
-3.71658e-05
-3.72144e-05
-3.68771e-05
-3.61683e-05
-3.5018e-05
-3.34587e-05
-3.09896e-05
-2.86003e-05
-1.45684e-05
-1.71124e-05
-1.47006e-05
-1.37161e-05
-1.31151e-05
-1.28359e-05
-1.29179e-05
-1.32894e-05
-1.39929e-05
-1.20997e-05
-1.1562e-05
-1.12782e-05
-1.12258e-05
-1.14616e-05
-1.19824e-05
-1.27803e-05
-1.37431e-05
-1.46988e-05
-1.2288e-05
-4.16126e-05
-3.86661e-05
-4.03785e-05
-4.22128e-05
-4.3752e-05
-4.4797e-05
-4.53434e-05
-4.54003e-05
-4.4967e-05
-4.40334e-05
-4.25995e-05
-4.08578e-05
-3.9202e-05
-4.20684e-05
-1.36009e-05
-1.58366e-05
-1.49057e-05
-1.40921e-05
-1.3604e-05
-1.35828e-05
-1.39584e-05
-1.47597e-05
-1.25367e-05
-1.19401e-05
-1.16472e-05
-1.16453e-05
-1.20222e-05
-1.28324e-05
-1.42254e-05
-1.64651e-05
-2.02587e-05
-2.55713e-05
-3.83258e-05
-3.84604e-05
-4.29703e-05
-4.6842e-05
-5.00649e-05
-5.24473e-05
-5.39537e-05
-5.46958e-05
-5.47608e-05
-5.4149e-05
-5.2774e-05
-5.05239e-05
-4.74359e-05
-4.3703e-05
-3.93433e-05
-3.95345e-05
-2.66494e-05
-2.13846e-05
-1.76601e-05
-1.55916e-05
-1.45448e-05
-1.43065e-05
-1.46487e-05
-1.55486e-05
-1.2955e-05
-1.22988e-05
-1.19897e-05
-1.20192e-05
-1.24907e-05
-1.34749e-05
-1.51461e-05
-1.77471e-05
-2.16945e-05
-2.6835e-05
-3.53657e-05
-4.07306e-05
-4.63471e-05
-5.12914e-05
-5.53806e-05
-5.82642e-05
-6.00594e-05
-6.09326e-05
-6.10037e-05
-6.02734e-05
-5.86234e-05
-5.58871e-05
-5.19489e-05
-4.71476e-05
-4.16608e-05
-3.64769e-05
-2.79915e-05
-2.28716e-05
-1.89909e-05
-1.65725e-05
-1.52816e-05
-1.49384e-05
-1.52873e-05
-1.62948e-05
-1.33403e-05
-1.26295e-05
-1.23029e-05
-1.23529e-05
-1.28909e-05
-1.3991e-05
-1.58277e-05
-1.86354e-05
-2.27908e-05
-2.82822e-05
-3.56132e-05
-4.20837e-05
-4.87074e-05
-5.44194e-05
-5.90601e-05
-6.22457e-05
-6.42071e-05
-6.5149e-05
-6.52247e-05
-6.4435e-05
-6.26285e-05
-5.96008e-05
-5.5122e-05
-4.95587e-05
-4.30564e-05
-3.67288e-05
-2.94542e-05
-2.39968e-05
-1.99213e-05
-1.73136e-05
-1.58919e-05
-1.54963e-05
-1.58675e-05
-1.69725e-05
-1.36777e-05
-1.29186e-05
-1.2571e-05
-1.26252e-05
-1.31941e-05
-1.43455e-05
-1.62424e-05
-1.91082e-05
-2.3287e-05
-2.88112e-05
-3.57963e-05
-4.27936e-05
-5.00361e-05
-5.61138e-05
-6.09921e-05
-6.42933e-05
-6.63125e-05
-6.72751e-05
-6.73541e-05
-6.655e-05
-6.46922e-05
-6.15552e-05
-5.68455e-05
-5.09243e-05
-4.3829e-05
-3.6933e-05
-3.00074e-05
-2.45243e-05
-2.0436e-05
-1.77876e-05
-1.6338e-05
-1.59456e-05
-1.6358e-05
-1.75503e-05
-1.39595e-05
-1.31613e-05
-1.27943e-05
-1.28459e-05
-1.34286e-05
-1.46037e-05
-1.65236e-05
-1.94061e-05
-2.35794e-05
-2.91106e-05
-3.60495e-05
-4.33158e-05
-5.08403e-05
-5.70948e-05
-6.20778e-05
-6.54132e-05
-6.74424e-05
-6.84051e-05
-6.84868e-05
-6.76881e-05
-6.58253e-05
-6.26588e-05
-5.78489e-05
-5.17551e-05
-4.43834e-05
-3.7209e-05
-3.0332e-05
-2.48467e-05
-2.07731e-05
-1.81238e-05
-1.66784e-05
-1.63059e-05
-1.67596e-05
-1.80214e-05
-1.41802e-05
-1.3353e-05
-1.29699e-05
-1.30159e-05
-1.3603e-05
-1.47875e-05
-1.67152e-05
-1.9603e-05
-2.37756e-05
-2.93291e-05
-3.63001e-05
-4.37092e-05
-5.13843e-05
-5.7729e-05
-6.27608e-05
-6.61081e-05
-6.81381e-05
-6.9099e-05
-6.91834e-05
-6.83917e-05
-6.65329e-05
-6.33585e-05
-5.85029e-05
-5.2321e-05
-4.48004e-05
-3.74813e-05
-3.0574e-05
-2.50701e-05
-2.10045e-05
-1.83623e-05
-1.693e-05
-1.65802e-05
-1.70685e-05
-1.83817e-05
-1.43378e-05
-1.34924e-05
-1.30991e-05
-1.31415e-05
-1.37316e-05
-1.49235e-05
-1.68607e-05
-1.9761e-05
-2.39504e-05
-2.95404e-05
-3.65642e-05
-4.40677e-05
-5.18388e-05
-5.82488e-05
-6.33218e-05
-6.66884e-05
-6.87278e-05
-6.96933e-05
-6.97806e-05
-6.89901e-05
-6.71269e-05
-6.3937e-05
-5.90425e-05
-5.27972e-05
-4.51811e-05
-3.77666e-05
-3.08071e-05
-2.52685e-05
-2.11906e-05
-1.8544e-05
-1.71159e-05
-1.67791e-05
-1.72887e-05
-1.86339e-05
-1.44314e-05
-1.3579e-05
-1.31821e-05
-1.32245e-05
-1.38189e-05
-1.50198e-05
-1.69718e-05
-1.98952e-05
-2.41186e-05
-2.97566e-05
-3.68411e-05
-4.44136e-05
-5.22508e-05
-5.87175e-05
-6.38349e-05
-6.72343e-05
-6.92958e-05
-7.02738e-05
-7.03645e-05
-6.95679e-05
-6.76881e-05
-6.44692e-05
-5.95308e-05
-5.32328e-05
-4.55497e-05
-3.80644e-05
-3.10433e-05
-2.54564e-05
-2.13459e-05
-1.86799e-05
-1.7243e-05
-1.69062e-05
-1.74222e-05
-1.87801e-05
-1.44616e-05
-1.36131e-05
-1.32194e-05
-1.32652e-05
-1.38649e-05
-1.50761e-05
-1.70478e-05
-2.0004e-05
-2.42781e-05
-2.99769e-05
-3.7132e-05
-4.47538e-05
-5.26297e-05
-5.91435e-05
-6.43068e-05
-6.77513e-05
-6.98463e-05
-7.08446e-05
-7.09393e-05
-7.01305e-05
-6.82244e-05
-6.49674e-05
-5.99915e-05
-5.36399e-05
-4.59151e-05
-3.83767e-05
-3.12817e-05
-2.56331e-05
-2.14713e-05
-1.8771e-05
-1.73125e-05
-1.69625e-05
-1.74702e-05
-1.88218e-05
-1.443e-05
-1.35962e-05
-1.32115e-05
-1.32625e-05
-1.38656e-05
-1.50837e-05
-1.70742e-05
-2.00671e-05
-2.44063e-05
-3.01814e-05
-3.74385e-05
-4.50833e-05
-5.29451e-05
-5.94786e-05
-6.46754e-05
-6.81686e-05
-7.03038e-05
-7.13277e-05
-7.14274e-05
-7.06025e-05
-6.86646e-05
-6.53654e-05
-6.03577e-05
-5.39905e-05
-4.6276e-05
-3.87079e-05
-3.15059e-05
-2.57768e-05
-2.15462e-05
-1.88042e-05
-1.73179e-05
-1.69469e-05
-1.7434e-05
-1.87607e-05
-1.43399e-05
-1.35306e-05
-1.31583e-05
-1.32116e-05
-1.38082e-05
-1.50174e-05
-1.70079e-05
-2.00198e-05
-2.44221e-05
-3.02912e-05
-3.7747e-05
-4.53543e-05
-5.30834e-05
-5.9548e-05
-6.47159e-05
-6.8231e-05
-7.03947e-05
-7.14425e-05
-7.15489e-05
-7.07136e-05
-6.87593e-05
-6.54491e-05
-6.04766e-05
-5.41818e-05
-4.65926e-05
-3.90472e-05
-3.16401e-05
-2.58118e-05
-2.15129e-05
-1.87429e-05
-1.72406e-05
-1.68525e-05
-1.73131e-05
-1.85978e-05
-1.41979e-05
-1.34223e-05
-1.30646e-05
-1.31147e-05
-1.36894e-05
-1.48628e-05
-1.68144e-05
-1.97964e-05
-2.42193e-05
-3.01428e-05
-3.8105e-05
-4.5574e-05
-5.28676e-05
-5.90868e-05
-6.40989e-05
-6.75609e-05
-6.97109e-05
-7.07669e-05
-7.08836e-05
-7.00609e-05
-6.81404e-05
-6.49029e-05
-6.00997e-05
-5.40586e-05
-4.68915e-05
-3.94483e-05
-3.15309e-05
-2.56424e-05
-2.13152e-05
-1.85618e-05
-1.70747e-05
-1.66841e-05
-1.71167e-05
-1.83425e-05
-1.40125e-05
-1.3277e-05
-1.29316e-05
-1.29647e-05
-1.34854e-05
-1.45624e-05
-1.63715e-05
-1.91678e-05
-2.33836e-05
-2.89652e-05
-3.835e-05
-4.57199e-05
-5.20008e-05
-5.75732e-05
-6.21322e-05
-6.5372e-05
-6.74149e-05
-6.84424e-05
-6.85754e-05
-6.78146e-05
-6.60345e-05
-6.30546e-05
-5.87295e-05
-5.33554e-05
-4.71951e-05
-3.97448e-05
-3.04145e-05
-2.48678e-05
-2.0738e-05
-1.81503e-05
-1.67731e-05
-1.64279e-05
-1.68481e-05
-1.8005e-05
-1.37999e-05
-1.31101e-05
-1.27783e-05
-1.27895e-05
-1.32389e-05
-1.41782e-05
-1.57599e-05
-1.82599e-05
-2.24641e-05
-2.85854e-05
-4.06827e-05
-4.42953e-05
-5.03065e-05
-5.52083e-05
-5.91043e-05
-6.20009e-05
-6.38654e-05
-6.4831e-05
-6.49891e-05
-6.43431e-05
-6.27973e-05
-6.02238e-05
-5.66049e-05
-5.19233e-05
-4.59249e-05
-4.20296e-05
-3.02281e-05
-2.40918e-05
-1.99314e-05
-1.76023e-05
-1.6406e-05
-1.61348e-05
-1.65457e-05
-1.76219e-05
-1.35734e-05
-1.29291e-05
-1.26062e-05
-1.25811e-05
-1.29207e-05
-1.36162e-05
-1.46366e-05
-1.57774e-05
-1.67371e-05
-1.30234e-05
-5.37227e-05
-4.93897e-05
-5.16619e-05
-5.42347e-05
-5.64625e-05
-5.80074e-05
-5.88707e-05
-5.9062e-05
-5.85895e-05
-5.74407e-05
-5.5633e-05
-5.34135e-05
-5.14903e-05
-5.58666e-05
-1.46854e-05
-1.85184e-05
-1.75804e-05
-1.65736e-05
-1.58806e-05
-1.57788e-05
-1.62111e-05
-1.72134e-05
-1.33563e-05
-1.2758e-05
-1.24541e-05
-1.242e-05
-1.272e-05
-1.33632e-05
-1.44107e-05
-1.59892e-05
-1.86019e-05
-2.29744e-05
-2.54626e-05
-3.83723e-05
-4.2877e-05
-4.70357e-05
-5.00895e-05
-5.25076e-05
-5.41093e-05
-5.50235e-05
-5.52568e-05
-5.48273e-05
-5.37309e-05
-5.1873e-05
-4.92839e-05
-4.56101e-05
-4.111e-05
-2.88581e-05
-2.57051e-05
-2.09663e-05
-1.8088e-05
-1.64846e-05
-1.56679e-05
-1.55349e-05
-1.59231e-05
-1.6843e-05
-1.31602e-05
-1.26042e-05
-1.23204e-05
-1.22831e-05
-1.25522e-05
-1.31423e-05
-1.41156e-05
-1.56031e-05
-1.77978e-05
-2.0949e-05
-2.64701e-05
-3.44061e-05
-3.87951e-05
-4.28057e-05
-4.58876e-05
-4.83306e-05
-4.99403e-05
-5.08667e-05
-5.11325e-05
-5.07689e-05
-4.97619e-05
-4.80104e-05
-4.54654e-05
-4.20032e-05
-3.76441e-05
-2.98344e-05
-2.37767e-05
-2.03048e-05
-1.78414e-05
-1.62736e-05
-1.5466e-05
-1.53164e-05
-1.56648e-05
-1.65147e-05
-1.30013e-05
-1.24873e-05
-1.22312e-05
-1.22063e-05
-1.24685e-05
-1.30351e-05
-1.39675e-05
-1.53935e-05
-1.75262e-05
-2.06234e-05
-2.49946e-05
-3.06028e-05
-3.50288e-05
-3.90882e-05
-4.2259e-05
-4.47867e-05
-4.64444e-05
-4.73912e-05
-4.76746e-05
-4.73359e-05
-4.6344e-05
-4.45978e-05
-4.20168e-05
-3.85617e-05
-3.41748e-05
-2.85751e-05
-2.37506e-05
-2.02116e-05
-1.77381e-05
-1.6179e-05
-1.5361e-05
-1.51774e-05
-1.54753e-05
-1.62557e-05
-1.28883e-05
-1.24201e-05
-1.21995e-05
-1.21979e-05
-1.24633e-05
-1.30093e-05
-1.38859e-05
-1.51999e-05
-1.7113e-05
-1.98251e-05
-2.33895e-05
-2.77166e-05
-3.17142e-05
-3.55194e-05
-3.85599e-05
-4.09757e-05
-4.25602e-05
-4.34633e-05
-4.37426e-05
-4.34418e-05
-4.25237e-05
-4.08948e-05
-3.84648e-05
-3.52735e-05
-3.13154e-05
-2.69322e-05
-2.29468e-05
-1.98074e-05
-1.75606e-05
-1.61064e-05
-1.53192e-05
-1.51135e-05
-1.53608e-05
-1.60703e-05
-1.28291e-05
-1.24211e-05
-1.22531e-05
-1.22941e-05
-1.25821e-05
-1.3125e-05
-1.39575e-05
-1.5155e-05
-1.6827e-05
-1.90958e-05
-2.19763e-05
-2.53947e-05
-2.88026e-05
-3.21424e-05
-3.48702e-05
-3.70303e-05
-3.8457e-05
-3.9275e-05
-3.95364e-05
-3.9278e-05
-3.84686e-05
-3.70158e-05
-3.48778e-05
-3.21033e-05
-2.87442e-05
-2.52473e-05
-2.20261e-05
-1.94118e-05
-1.74699e-05
-1.61626e-05
-1.54146e-05
-1.51757e-05
-1.53534e-05
-1.59705e-05
-1.28257e-05
-1.25045e-05
-1.24151e-05
-1.25242e-05
-1.28605e-05
-1.34296e-05
-1.42551e-05
-1.53838e-05
-1.68894e-05
-1.88429e-05
-2.12346e-05
-2.40135e-05
-2.68797e-05
-2.97137e-05
-3.20758e-05
-3.39479e-05
-3.5221e-05
-3.5963e-05
-3.62067e-05
-3.5977e-05
-3.52519e-05
-3.39879e-05
-3.21485e-05
-2.97994e-05
-2.70109e-05
-2.4177e-05
-2.15507e-05
-1.93543e-05
-1.76574e-05
-1.6462e-05
-1.57191e-05
-1.54105e-05
-1.54779e-05
-1.59598e-05
-1.2867e-05
-1.26559e-05
-1.267e-05
-1.2866e-05
-1.32724e-05
-1.38998e-05
-1.47679e-05
-1.58901e-05
-1.73505e-05
-1.91857e-05
-2.13528e-05
-2.37974e-05
-2.63272e-05
-2.88097e-05
-3.09289e-05
-3.26246e-05
-3.3813e-05
-3.45181e-05
-3.47524e-05
-3.45297e-05
-3.38395e-05
-3.2668e-05
-3.10058e-05
-2.89231e-05
-2.65094e-05
-2.40586e-05
-2.17557e-05
-1.97655e-05
-1.81637e-05
-1.70181e-05
-1.62245e-05
-1.58047e-05
-1.5716e-05
-1.60229e-05
-1.29483e-05
-1.29162e-05
-1.30175e-05
-1.33e-05
-1.3789e-05
-1.45085e-05
-1.54933e-05
-1.68057e-05
-1.84271e-05
-2.03622e-05
-2.26106e-05
-2.51071e-05
-2.76827e-05
-3.01904e-05
-3.23711e-05
-3.41336e-05
-3.53943e-05
-3.61474e-05
-3.63929e-05
-3.61371e-05
-3.53778e-05
-3.41172e-05
-3.2371e-05
-3.02203e-05
-2.77789e-05
-2.52994e-05
-2.29633e-05
-2.09194e-05
-1.92283e-05
-1.78651e-05
-1.69316e-05
-1.63693e-05
-1.61376e-05
-1.61552e-05
-9.96614e-06
-9.97787e-06
-1.00096e-05
-1.00647e-05
-1.01493e-05
-1.02667e-05
-1.04186e-05
-1.0606e-05
-1.08268e-05
-1.1078e-05
-1.13486e-05
-1.16292e-05
-1.18999e-05
-1.21506e-05
-1.23674e-05
-1.25441e-05
-1.26749e-05
-1.27576e-05
-1.27908e-05
-1.27746e-05
-1.27108e-05
-1.2602e-05
-1.24543e-05
-1.2274e-05
-1.20752e-05
-1.18679e-05
-1.1672e-05
-1.14963e-05
-1.13513e-05
-1.12387e-05
-1.11578e-05
-1.11038e-05
-1.10682e-05
-1.10439e-05
-9.92603e-06
-9.88168e-06
-9.87388e-06
-9.89248e-06
-9.94597e-06
-1.00345e-05
-1.01568e-05
-1.03118e-05
-1.04948e-05
-1.07035e-05
-1.09227e-05
-1.11489e-05
-1.13612e-05
-1.15588e-05
-1.17273e-05
-1.1866e-05
-1.19696e-05
-1.2038e-05
-1.20702e-05
-1.20664e-05
-1.20279e-05
-1.19551e-05
-1.18535e-05
-1.17241e-05
-1.15813e-05
-1.14257e-05
-1.12787e-05
-1.11436e-05
-1.10363e-05
-1.09603e-05
-1.09207e-05
-1.0917e-05
-1.09377e-05
-1.09841e-05
-9.95071e-06
-9.88619e-06
-9.85768e-06
-9.85238e-06
-9.89013e-06
-9.9713e-06
-1.00939e-05
-1.0258e-05
-1.04582e-05
-1.06977e-05
-1.09516e-05
-1.12266e-05
-1.1472e-05
-1.16991e-05
-1.18837e-05
-1.20338e-05
-1.21427e-05
-1.22136e-05
-1.22455e-05
-1.22384e-05
-1.21939e-05
-1.21089e-05
-1.19907e-05
-1.18312e-05
-1.16552e-05
-1.14509e-05
-1.12704e-05
-1.11068e-05
-1.09878e-05
-1.09129e-05
-1.08901e-05
-1.09163e-05
-1.09625e-05
-1.10333e-05
-1.00399e-05
-9.95354e-06
-9.9068e-06
-9.88646e-06
-9.92018e-06
-1.001e-05
-1.01555e-05
-1.03612e-05
-1.06241e-05
-1.09605e-05
-1.13281e-05
-1.17529e-05
-1.21123e-05
-1.24404e-05
-1.26927e-05
-1.28933e-05
-1.30324e-05
-1.31187e-05
-1.31505e-05
-1.31282e-05
-1.30535e-05
-1.29181e-05
-1.27326e-05
-1.24725e-05
-1.21837e-05
-1.18312e-05
-1.15408e-05
-1.12851e-05
-1.11117e-05
-1.10081e-05
-1.09816e-05
-1.10227e-05
-1.1089e-05
-1.11843e-05
-1.02041e-05
-1.00923e-05
-1.00335e-05
-1.001e-05
-1.00546e-05
-1.01717e-05
-1.03645e-05
-1.06477e-05
-1.10245e-05
-1.15403e-05
-1.2123e-05
-1.28447e-05
-1.34195e-05
-1.39355e-05
-1.43116e-05
-1.4606e-05
-1.4802e-05
-1.49177e-05
-1.49503e-05
-1.48997e-05
-1.47694e-05
-1.45414e-05
-1.42333e-05
-1.37866e-05
-1.32851e-05
-1.26384e-05
-1.21396e-05
-1.17112e-05
-1.14335e-05
-1.12663e-05
-1.1212e-05
-1.12502e-05
-1.13286e-05
-1.14528e-05
-1.04432e-05
-1.02966e-05
-1.02311e-05
-1.0215e-05
-1.02843e-05
-1.04462e-05
-1.07093e-05
-1.11031e-05
-1.16437e-05
-1.24315e-05
-1.33582e-05
-1.461e-05
-1.55287e-05
-1.63411e-05
-1.69061e-05
-1.73459e-05
-1.76306e-05
-1.77933e-05
-1.78273e-05
-1.77326e-05
-1.75163e-05
-1.7145e-05
-1.66502e-05
-1.59086e-05
-1.50665e-05
-1.38921e-05
-1.306e-05
-1.23671e-05
-1.19369e-05
-1.16735e-05
-1.15696e-05
-1.15909e-05
-1.16759e-05
-1.18389e-05
-1.07488e-05
-1.05629e-05
-1.04924e-05
-1.04913e-05
-1.05972e-05
-1.0819e-05
-1.11706e-05
-1.16996e-05
-1.24402e-05
-1.36014e-05
-1.50237e-05
-1.72137e-05
-1.86121e-05
-1.98214e-05
-2.0622e-05
-2.12474e-05
-2.16435e-05
-2.18672e-05
-2.19037e-05
-2.17528e-05
-2.14293e-05
-2.08759e-05
-2.01482e-05
-1.90106e-05
-1.76922e-05
-1.55797e-05
-1.42706e-05
-1.32123e-05
-1.25935e-05
-1.22095e-05
-1.20397e-05
-1.20335e-05
-1.21219e-05
-1.23409e-05
-1.1112e-05
-1.08835e-05
-1.08102e-05
-1.08335e-05
-1.0992e-05
-1.12933e-05
-1.17536e-05
-1.24258e-05
-1.33583e-05
-1.48468e-05
-1.69004e-05
-2.07621e-05
-2.26887e-05
-2.43851e-05
-2.54816e-05
-2.63527e-05
-2.69002e-05
-2.72082e-05
-2.72485e-05
-2.70207e-05
-2.65526e-05
-2.57585e-05
-2.47382e-05
-2.31126e-05
-2.12661e-05
-1.74717e-05
-1.55699e-05
-1.41882e-05
-1.33886e-05
-1.28759e-05
-1.26227e-05
-1.2576e-05
-1.26644e-05
-1.29508e-05
-1.15252e-05
-1.12448e-05
-1.11696e-05
-1.12251e-05
-1.14501e-05
-1.18461e-05
-1.24221e-05
-1.32108e-05
-1.41823e-05
-1.58879e-05
-1.82483e-05
-2.58869e-05
-2.77945e-05
-2.97315e-05
-3.10272e-05
-3.20704e-05
-3.27318e-05
-3.31114e-05
-3.3157e-05
-3.28676e-05
-3.22948e-05
-3.13353e-05
-3.01195e-05
-2.82469e-05
-2.64202e-05
-1.8804e-05
-1.67075e-05
-1.5089e-05
-1.42555e-05
-1.36366e-05
-1.32926e-05
-1.31967e-05
-1.32864e-05
-1.36542e-05
-1.19788e-05
-1.16384e-05
-1.15694e-05
-1.16796e-05
-1.2014e-05
-1.25721e-05
-1.33653e-05
-1.42906e-05
-1.53137e-05
-1.75792e-05
-1.32002e-05
-3.02564e-05
-3.2185e-05
-3.47005e-05
-3.63769e-05
-3.77581e-05
-3.86331e-05
-3.91224e-05
-3.91739e-05
-3.87867e-05
-3.80123e-05
-3.67253e-05
-3.51354e-05
-3.26803e-05
-3.08598e-05
-1.35529e-05
-1.84483e-05
-1.62669e-05
-1.54081e-05
-1.46637e-05
-1.41282e-05
-1.39211e-05
-1.39841e-05
-1.44465e-05
-1.24541e-05
-1.20426e-05
-1.19775e-05
-1.21457e-05
-1.25983e-05
-1.33377e-05
-1.43688e-05
-1.55021e-05
-1.60772e-05
-1.08929e-05
-4.4257e-05
-3.81005e-05
-3.90327e-05
-4.06186e-05
-4.19165e-05
-4.28271e-05
-4.33271e-05
-4.33849e-05
-4.29996e-05
-4.22017e-05
-4.101e-05
-3.952e-05
-3.86352e-05
-4.46494e-05
-1.23222e-05
-1.72695e-05
-1.67343e-05
-1.57561e-05
-1.49966e-05
-1.46594e-05
-1.46996e-05
-1.52892e-05
-1.29359e-05
-1.24518e-05
-1.24052e-05
-1.26682e-05
-1.33248e-05
-1.44472e-05
-1.6221e-05
-1.88276e-05
-2.31388e-05
-2.79221e-05
-4.08848e-05
-3.67325e-05
-3.9446e-05
-4.24326e-05
-4.49667e-05
-4.68547e-05
-4.80874e-05
-4.87091e-05
-4.87733e-05
-4.828e-05
-4.71767e-05
-4.54187e-05
-4.30196e-05
-4.0174e-05
-3.76086e-05
-4.2135e-05
-2.89966e-05
-2.42978e-05
-2.00808e-05
-1.76449e-05
-1.61699e-05
-1.55059e-05
-1.54449e-05
-1.6162e-05
-1.33967e-05
-1.28392e-05
-1.27963e-05
-1.31194e-05
-1.39021e-05
-1.52312e-05
-1.73143e-05
-2.029e-05
-2.46514e-05
-2.93094e-05
-3.69137e-05
-3.91519e-05
-4.20067e-05
-4.48431e-05
-4.75848e-05
-4.96223e-05
-5.0985e-05
-5.16731e-05
-5.17424e-05
-5.11929e-05
-4.99701e-05
-4.80718e-05
-4.54718e-05
-4.27649e-05
-4.00333e-05
-3.79975e-05
-3.04563e-05
-2.58576e-05
-2.15892e-05
-1.87939e-05
-1.70354e-05
-1.62205e-05
-1.61323e-05
-1.69856e-05
-1.38215e-05
-1.32002e-05
-1.31616e-05
-1.35389e-05
-1.44326e-05
-1.59399e-05
-1.82743e-05
-2.15705e-05
-2.61825e-05
-3.1352e-05
-3.76012e-05
-4.11929e-05
-4.45035e-05
-4.76271e-05
-5.07039e-05
-5.29236e-05
-5.44168e-05
-5.51609e-05
-5.52348e-05
-5.46387e-05
-5.32952e-05
-5.12244e-05
-4.82996e-05
-4.53139e-05
-4.21668e-05
-3.86797e-05
-3.25159e-05
-2.74182e-05
-2.29123e-05
-1.98113e-05
-1.78297e-05
-1.68887e-05
-1.67746e-05
-1.77363e-05
-1.41919e-05
-1.35157e-05
-1.34724e-05
-1.38772e-05
-1.48295e-05
-1.64235e-05
-1.88594e-05
-2.2269e-05
-2.69219e-05
-3.22514e-05
-3.82588e-05
-4.24802e-05
-4.614e-05
-4.94234e-05
-5.2648e-05
-5.49448e-05
-5.6495e-05
-5.72614e-05
-5.73388e-05
-5.67272e-05
-5.53333e-05
-5.31912e-05
-5.01238e-05
-4.69777e-05
-4.34641e-05
-3.93496e-05
-3.34409e-05
-2.81925e-05
-2.36571e-05
-2.04589e-05
-1.84032e-05
-1.74219e-05
-1.73179e-05
-1.83724e-05
-1.45001e-05
-1.37817e-05
-1.37329e-05
-1.41547e-05
-1.51447e-05
-1.67936e-05
-1.92912e-05
-2.2771e-05
-2.74577e-05
-3.28811e-05
-3.88589e-05
-4.33925e-05
-4.72755e-05
-5.06899e-05
-5.40165e-05
-5.6356e-05
-5.79336e-05
-5.87094e-05
-5.879e-05
-5.81751e-05
-5.67597e-05
-5.45797e-05
-5.14148e-05
-4.81389e-05
-4.43982e-05
-3.99717e-05
-3.40994e-05
-2.87624e-05
-2.42032e-05
-2.09498e-05
-1.88564e-05
-1.78576e-05
-1.77671e-05
-1.88887e-05
-1.47398e-05
-1.39911e-05
-1.39359e-05
-1.43652e-05
-1.53745e-05
-1.70518e-05
-1.95797e-05
-2.30958e-05
-2.78064e-05
-3.3301e-05
-3.93182e-05
-4.40243e-05
-4.80459e-05
-5.15392e-05
-5.49218e-05
-5.7284e-05
-5.88763e-05
-5.96575e-05
-5.97411e-05
-5.91266e-05
-5.77018e-05
-5.55035e-05
-5.22861e-05
-4.89329e-05
-4.50548e-05
-4.0455e-05
-3.45473e-05
-2.91432e-05
-2.45678e-05
-2.12899e-05
-1.91847e-05
-1.81854e-05
-1.81109e-05
-1.92803e-05
-1.49091e-05
-1.41427e-05
-1.40838e-05
-1.45176e-05
-1.55391e-05
-1.72352e-05
-1.97862e-05
-2.3333e-05
-2.80761e-05
-3.36313e-05
-3.97059e-05
-4.45191e-05
-4.86315e-05
-5.21864e-05
-5.5615e-05
-5.8003e-05
-5.96122e-05
-6.04018e-05
-6.04886e-05
-5.9872e-05
-5.84358e-05
-5.62163e-05
-5.2956e-05
-4.95432e-05
-4.55755e-05
-4.08681e-05
-3.49044e-05
-2.94416e-05
-2.48385e-05
-2.15375e-05
-1.94212e-05
-1.84202e-05
-1.83548e-05
-1.95516e-05
-1.50071e-05
-1.42354e-05
-1.41759e-05
-1.46127e-05
-1.56417e-05
-1.73503e-05
-1.99203e-05
-2.34954e-05
-2.82776e-05
-3.38862e-05
-4.00234e-05
-4.49051e-05
-4.90764e-05
-5.26819e-05
-5.61512e-05
-5.85707e-05
-6.02014e-05
-6.10037e-05
-6.10942e-05
-6.0472e-05
-5.90204e-05
-5.67744e-05
-5.34763e-05
-5.00152e-05
-4.59889e-05
-4.12118e-05
-3.51851e-05
-2.96684e-05
-2.50277e-05
-2.17015e-05
-1.95708e-05
-1.85642e-05
-1.84996e-05
-1.97053e-05
-1.50343e-05
-1.42695e-05
-1.42127e-05
-1.4651e-05
-1.56822e-05
-1.73967e-05
-1.99811e-05
-2.3581e-05
-2.84089e-05
-3.40661e-05
-4.02743e-05
-4.51942e-05
-4.93937e-05
-5.30382e-05
-5.65413e-05
-5.89967e-05
-6.0653e-05
-6.14721e-05
-6.15668e-05
-6.09365e-05
-5.94668e-05
-5.71915e-05
-5.38647e-05
-5.03652e-05
-4.63095e-05
-4.14908e-05
-3.53907e-05
-2.98237e-05
-2.51353e-05
-2.17822e-05
-1.96346e-05
-1.86184e-05
-1.85467e-05
-1.97429e-05
-1.49926e-05
-1.42474e-05
-1.41959e-05
-1.46327e-05
-1.56589e-05
-1.73687e-05
-1.9958e-05
-2.35739e-05
-2.84526e-05
-3.41512e-05
-4.04592e-05
-4.5381e-05
-4.95627e-05
-5.32285e-05
-5.67519e-05
-5.92446e-05
-6.09277e-05
-6.17665e-05
-6.18668e-05
-6.12275e-05
-5.97406e-05
-5.74363e-05
-5.40935e-05
-5.05764e-05
-4.65363e-05
-4.17089e-05
-3.55041e-05
-2.98908e-05
-2.51474e-05
-2.1772e-05
-1.96102e-05
-1.85845e-05
-1.84991e-05
-1.96658e-05
-1.4885e-05
-1.41712e-05
-1.41243e-05
-1.45503e-05
-1.55527e-05
-1.72296e-05
-1.97885e-05
-2.33798e-05
-2.82914e-05
-3.40162e-05
-4.0519e-05
-4.53862e-05
-4.94696e-05
-5.31008e-05
-5.65899e-05
-5.90958e-05
-6.0791e-05
-6.16461e-05
-6.17538e-05
-6.11132e-05
-5.96274e-05
-5.73223e-05
-5.40208e-05
-5.05443e-05
-4.65982e-05
-4.18094e-05
-3.54034e-05
-2.97578e-05
-2.49757e-05
-2.16152e-05
-1.94683e-05
-1.84509e-05
-1.83549e-05
-1.94736e-05
-1.47192e-05
-1.40495e-05
-1.40077e-05
-1.44143e-05
-1.53745e-05
-1.69881e-05
-1.94752e-05
-2.29893e-05
-2.79061e-05
-3.35561e-05
-4.05001e-05
-4.52411e-05
-4.90282e-05
-5.26009e-05
-5.60153e-05
-5.85083e-05
-6.01921e-05
-6.1056e-05
-6.11746e-05
-6.05475e-05
-5.90932e-05
-5.68223e-05
-5.36084e-05
-5.02036e-05
-4.65458e-05
-4.18448e-05
-3.49909e-05
-2.94158e-05
-2.46215e-05
-2.13249e-05
-1.92276e-05
-1.82379e-05
-1.81317e-05
-1.91771e-05
-1.45039e-05
-1.3887e-05
-1.38421e-05
-1.42049e-05
-1.50731e-05
-1.65333e-05
-1.87946e-05
-2.20057e-05
-2.6649e-05
-3.17705e-05
-4.02679e-05
-4.47741e-05
-4.80926e-05
-5.14454e-05
-5.45796e-05
-5.6949e-05
-5.85485e-05
-5.93918e-05
-5.95259e-05
-5.89519e-05
-5.76112e-05
-5.54973e-05
-5.25832e-05
-4.9427e-05
-4.62399e-05
-4.16549e-05
-3.32617e-05
-2.82235e-05
-2.37001e-05
-2.06905e-05
-1.87906e-05
-1.79095e-05
-1.78265e-05
-1.87849e-05
-1.42587e-05
-1.37047e-05
-1.36616e-05
-1.39828e-05
-1.47584e-05
-1.60595e-05
-1.80728e-05
-2.096e-05
-2.5621e-05
-3.11682e-05
-4.29612e-05
-4.29683e-05
-4.69587e-05
-5.08259e-05
-5.39308e-05
-5.62864e-05
-5.78468e-05
-5.86827e-05
-5.88394e-05
-5.8321e-05
-5.70648e-05
-5.50202e-05
-5.21656e-05
-4.8539e-05
-4.46003e-05
-4.42566e-05
-3.28196e-05
-2.73282e-05
-2.27681e-05
-2.00533e-05
-1.83588e-05
-1.75789e-05
-1.75034e-05
-1.83451e-05
-1.39973e-05
-1.35049e-05
-1.34498e-05
-1.36974e-05
-1.43062e-05
-1.52745e-05
-1.65907e-05
-1.79636e-05
-1.84049e-05
-1.10539e-05
-5.72135e-05
-4.86326e-05
-4.97899e-05
-5.18993e-05
-5.37304e-05
-5.5027e-05
-5.57955e-05
-5.59786e-05
-5.5583e-05
-5.46386e-05
-5.31888e-05
-5.1358e-05
-5.05414e-05
-5.91517e-05
-1.27127e-05
-2.03093e-05
-1.99394e-05
-1.86977e-05
-1.76455e-05
-1.71334e-05
-1.71355e-05
-1.78735e-05
-1.37474e-05
-1.33171e-05
-1.32716e-05
-1.34979e-05
-1.40607e-05
-1.49848e-05
-1.63429e-05
-1.81285e-05
-2.0695e-05
-2.48867e-05
-2.52703e-05
-4.02686e-05
-4.37087e-05
-4.74217e-05
-5.01005e-05
-5.24322e-05
-5.39309e-05
-5.48281e-05
-5.50502e-05
-5.46103e-05
-5.35378e-05
-5.16743e-05
-4.92587e-05
-4.59435e-05
-4.26364e-05
-2.86758e-05
-2.76297e-05
-2.32095e-05
-2.04119e-05
-1.86034e-05
-1.7413e-05
-1.68638e-05
-1.68233e-05
-1.74501e-05
-1.35199e-05
-1.31422e-05
-1.31023e-05
-1.33029e-05
-1.38063e-05
-1.46447e-05
-1.58925e-05
-1.76503e-05
-2.00426e-05
-2.33164e-05
-2.88972e-05
-3.74839e-05
-4.06286e-05
-4.36759e-05
-4.60569e-05
-4.82253e-05
-4.96603e-05
-5.05424e-05
-5.07884e-05
-5.04218e-05
-4.94644e-05
-4.78197e-05
-4.55877e-05
-4.27663e-05
-3.98532e-05
-3.19415e-05
-2.6077e-05
-2.26759e-05
-2.00695e-05
-1.82416e-05
-1.71005e-05
-1.65725e-05
-1.65208e-05
-1.70697e-05
-1.33327e-05
-1.30048e-05
-1.29823e-05
-1.31819e-05
-1.36659e-05
-1.44755e-05
-1.56916e-05
-1.74334e-05
-1.98743e-05
-2.32068e-05
-2.76618e-05
-3.31768e-05
-3.64153e-05
-3.9207e-05
-4.14894e-05
-4.3643e-05
-4.50885e-05
-4.59746e-05
-4.62296e-05
-4.58835e-05
-4.49312e-05
-4.3323e-05
-4.11121e-05
-3.8425e-05
-3.5517e-05
-3.06694e-05
-2.61357e-05
-2.26339e-05
-1.99516e-05
-1.80974e-05
-1.69398e-05
-1.63858e-05
-1.6295e-05
-1.67679e-05
-1.31922e-05
-1.29115e-05
-1.29112e-05
-1.3116e-05
-1.35823e-05
-1.4349e-05
-1.54861e-05
-1.7101e-05
-1.93205e-05
-2.23125e-05
-2.59125e-05
-3.00511e-05
-3.29997e-05
-3.5566e-05
-3.77705e-05
-3.98242e-05
-4.12116e-05
-4.20576e-05
-4.23114e-05
-4.20059e-05
-4.11239e-05
-3.96349e-05
-3.7552e-05
-3.51013e-05
-3.24384e-05
-2.88701e-05
-2.52332e-05
-2.20831e-05
-1.96345e-05
-1.79014e-05
-1.68014e-05
-1.62525e-05
-1.61343e-05
-1.65399e-05
-1.31037e-05
-1.28745e-05
-1.29086e-05
-1.31343e-05
-1.35993e-05
-1.43364e-05
-1.53996e-05
-1.68684e-05
-1.88247e-05
-2.13557e-05
-2.4317e-05
-2.76304e-05
-3.04016e-05
-3.29741e-05
-3.51794e-05
-3.71624e-05
-3.84812e-05
-3.9279e-05
-3.95288e-05
-3.92603e-05
-3.84738e-05
-3.7036e-05
-3.50824e-05
-3.27611e-05
-3.01852e-05
-2.72221e-05
-2.41956e-05
-2.15162e-05
-1.93658e-05
-1.77989e-05
-1.67695e-05
-1.6222e-05
-1.6065e-05
-1.63939e-05
-1.30647e-05
-1.28964e-05
-1.29773e-05
-1.32384e-05
-1.37178e-05
-1.44432e-05
-1.54547e-05
-1.68061e-05
-1.85485e-05
-2.07272e-05
-2.32363e-05
-2.60125e-05
-2.85949e-05
-3.10719e-05
-3.31769e-05
-3.49806e-05
-3.62406e-05
-3.70044e-05
-3.72504e-05
-3.69998e-05
-3.62381e-05
-3.4959e-05
-3.31756e-05
-3.10478e-05
-2.86217e-05
-2.60333e-05
-2.34493e-05
-2.11453e-05
-1.92567e-05
-1.78388e-05
-1.68652e-05
-1.63032e-05
-1.60902e-05
-1.63258e-05
-1.30603e-05
-1.29575e-05
-1.30791e-05
-1.33773e-05
-1.38809e-05
-1.4615e-05
-1.56119e-05
-1.69071e-05
-1.85385e-05
-2.05244e-05
-2.27896e-05
-2.5266e-05
-2.77073e-05
-3.0063e-05
-3.20958e-05
-3.37906e-05
-3.50005e-05
-3.57351e-05
-3.59761e-05
-3.57352e-05
-3.50053e-05
-3.37988e-05