/*--------------------------------*- C++ -*----------------------------------*\
| =========                 |                                                 |
| \\      /  F ield         | OpenFOAM: The Open Source CFD Toolbox           |
|  \\    /   O peration     | Version:  2112                                  |
|   \\  /    A nd           | Website:  www.openfoam.com                      |
|    \\/     M anipulation  |                                                 |
\*---------------------------------------------------------------------------*/
FoamFile
{
    version     2.0;
    format      ascii;
    arch        "LSB;label=32;scalar=64";
    class       surfaceScalarField;
    location    "1.4";
    object      phi;
}
// * * * * * * * * * * * * * * * * * * * * * * * * * * * * * * * * * * * * * //

dimensions      [0 3 -1 0 0 0 0];

oriented        oriented;

internalField   nonuniform List<scalar> 
188215
(
1.11237e-09
2.70224e-09
-3.81461e-09
3.19959e-09
2.0661e-09
-4.15332e-09
5.53003e-09
1.60849e-09
-3.93893e-09
7.85775e-09
1.38815e-09
-3.71587e-09
1.01082e-08
1.42596e-09
-3.67638e-09
1.22618e-08
1.65142e-09
-3.80502e-09
1.42977e-08
2.0227e-09
-4.05859e-09
1.61508e-08
2.54919e-09
-4.40228e-09
1.77256e-08
3.24109e-09
-4.81592e-09
1.88054e-08
4.19175e-09
-5.27156e-09
1.924e-08
5.32411e-09
-5.75866e-09
1.87085e-08
6.77624e-09
-6.24476e-09
1.73318e-08
8.0736e-09
-6.69689e-09
1.51406e-08
9.27335e-09
-7.0822e-09
1.23245e-08
1.02191e-08
-7.40306e-09
9.01502e-09
1.09589e-08
-7.64934e-09
5.3875e-09
1.14491e-08
-7.82162e-09
1.60344e-09
1.17005e-08
-7.91646e-09
-2.16761e-09
1.17046e-08
-7.9335e-09
-5.75657e-09
1.14615e-08
-7.87254e-09
-9.0027e-09
1.09803e-08
-7.73417e-09
-1.17316e-08
1.02509e-08
-7.52194e-09
-1.38148e-08
9.31849e-09
-7.2353e-09
-1.50653e-08
8.1357e-09
-6.88517e-09
-1.54593e-08
6.86387e-09
-6.46996e-09
-1.48775e-08
5.4439e-09
-6.02565e-09
-1.36498e-08
4.36172e-09
-5.58947e-09
-1.192e-08
3.47429e-09
-5.20408e-09
-9.90328e-09
2.88177e-09
-4.89845e-09
-7.69281e-09
2.52642e-09
-4.73689e-09
-5.37129e-09
2.46894e-09
-4.79047e-09
-3.04331e-09
2.77604e-09
-5.10401e-09
-9.88002e-10
3.39011e-09
-5.44542e-09
4.09879e-09
-5.08679e-09
1.05641e-10
7.32275e-09
-4.72614e-09
2.50359e-09
7.47638e-09
-7.80822e-09
5.40837e-09
7.39869e-09
-8.69498e-09
8.15403e-09
7.60469e-09
-8.96219e-09
1.0679e-08
8.24802e-09
-9.34705e-09
1.30353e-08
9.29909e-09
-1.00039e-08
1.52563e-08
1.07418e-08
-1.09402e-08
1.73083e-08
1.26382e-08
-1.21409e-08
1.9099e-08
1.50463e-08
-1.35959e-08
2.03812e-08
1.82047e-08
-1.52952e-08
2.09548e-08
2.19451e-08
-1.71946e-08
2.0379e-08
2.65724e-08
-1.92204e-08
1.88507e-08
3.07609e-08
-2.1159e-08
1.64294e-08
3.45913e-08
-2.28967e-08
1.33437e-08
3.76584e-08
-2.43535e-08
9.73466e-09
4.00589e-08
-2.5491e-08
5.78904e-09
4.16724e-08
-2.62776e-08
1.67827e-09
4.25092e-08
-2.66979e-08
-2.4183e-09
4.25431e-08
-2.6742e-08
-6.32134e-09
4.17747e-08
-2.64101e-08
-9.86021e-09
4.02316e-08
-2.57124e-08
-1.28491e-08
3.79047e-08
-2.46649e-08
-1.51501e-08
3.49196e-08
-2.33001e-08
-1.65371e-08
3.11814e-08
-2.16586e-08
-1.69585e-08
2.71084e-08
-1.98232e-08
-1.62173e-08
2.26157e-08
-1.79131e-08
-1.47632e-08
1.90579e-08
-1.61503e-08
-1.27757e-08
1.61088e-08
-1.4622e-08
-1.0473e-08
1.3976e-08
-1.33969e-08
-7.89157e-09
1.24626e-08
-1.25176e-08
-5.01896e-09
1.15848e-08
-1.19884e-08
-1.94269e-09
1.13185e-08
-1.16188e-08
5.12865e-10
1.14141e-08
-1.04795e-08
1.10311e-08
-6.41948e-09
-5.28982e-10
1.25944e-08
-4.74269e-09
2.15117e-09
1.3609e-08
-8.8128e-09
5.54642e-09
1.41261e-08
-1.01227e-08
8.73968e-09
1.50105e-08
-1.05991e-08
1.16495e-08
1.64915e-08
-1.11533e-08
1.4372e-08
1.85936e-08
-1.20171e-08
1.69989e-08
2.13519e-08
-1.3237e-08
1.95403e-08
2.49173e-08
-1.48205e-08
2.19174e-08
2.94427e-08
-1.67735e-08
2.37804e-08
3.54435e-08
-1.91017e-08
2.47994e-08
4.26761e-08
-2.175e-08
2.40988e-08
5.18786e-08
-2.46056e-08
2.21756e-08
6.00301e-08
-2.73459e-08
1.91746e-08
6.7385e-08
-2.97927e-08
1.54611e-08
7.32075e-08
-3.18356e-08
1.11772e-08
7.77631e-08
-3.34203e-08
6.53517e-09
8.08246e-08
-3.45102e-08
1.71552e-09
8.24169e-08
-3.50881e-08
-3.08908e-09
8.2489e-08
-3.51413e-08
-7.68569e-09
8.10412e-08
-3.46699e-08
-1.18941e-08
7.81269e-08
-3.36869e-08
-1.55016e-08
7.37224e-08
-3.22101e-08
-1.83685e-08
6.80636e-08
-3.02771e-08
-2.01301e-08
6.08878e-08
-2.79448e-08
-2.06506e-08
5.2956e-08
-2.53271e-08
-1.94296e-08
4.40046e-08
-2.26098e-08
-1.73588e-08
3.71127e-08
-2.01256e-08
-1.47257e-08
3.14793e-08
-1.80036e-08
-1.1828e-08
2.74027e-08
-1.63244e-08
-8.6564e-09
2.44005e-08
-1.51095e-08
-5.14492e-09
2.23843e-08
-1.4311e-08
-1.40217e-09
2.12078e-08
-1.3632e-08
1.42744e-09
2.05095e-08
-1.1925e-08
1.9001e-08
-6.54243e-09
-7.14306e-10
1.78668e-08
-4.55805e-09
2.36412e-09
1.95093e-08
-8.9787e-09
6.3405e-09
2.05758e-08
-1.04261e-08
1.01354e-08
2.21604e-08
-1.09448e-08
1.36422e-08
2.45375e-08
-1.15528e-08
1.70029e-08
2.77591e-08
-1.25261e-08
2.03889e-08
3.19037e-08
-1.39378e-08
2.38976e-08
3.72314e-08
-1.58228e-08
2.74903e-08
4.40587e-08
-1.82087e-08
3.0636e-08
5.34299e-08
-2.11321e-08
3.26693e-08
6.51642e-08
-2.45215e-08
3.16505e-08
8.11577e-08
-2.82603e-08
2.88361e-08
9.46768e-08
-3.18323e-08
2.46231e-08
1.06595e-07
-3.49971e-08
1.96485e-08
1.158e-07
-3.76183e-08
1.40263e-08
1.23007e-07
-3.9622e-08
8.0063e-09
1.27832e-07
-4.09875e-08
1.78398e-09
1.30344e-07
-4.17048e-08
-4.42251e-09
1.30457e-07
-4.17612e-08
-1.03942e-08
1.28169e-07
-4.11566e-08
-1.59349e-08
1.23571e-07
-3.99035e-08
-2.07914e-08
1.16591e-07
-3.80124e-08
-2.48501e-08
1.07626e-07
-3.55038e-08
-2.74699e-08
9.59625e-08
-3.2455e-08
-2.82654e-08
8.2757e-08
-2.90055e-08
-2.59707e-08
6.71161e-08
-2.54062e-08
-2.25691e-08
5.58965e-08
-2.21854e-08
-1.86494e-08
4.70399e-08
-1.94803e-08
-1.46712e-08
4.08152e-08
-1.73907e-08
-1.05641e-08
3.62046e-08
-1.59112e-08
-6.18744e-09
3.29698e-08
-1.49621e-08
-1.65617e-09
3.08589e-08
-1.41824e-08
1.69048e-09
2.94436e-08
-1.22807e-08
2.70936e-08
-6.40207e-09
-5.34566e-10
2.28556e-08
-4.4543e-09
3.12672e-09
2.50226e-08
-9.1746e-09
7.87243e-09
2.65758e-08
-1.07457e-08
1.24714e-08
2.886e-08
-1.12986e-08
1.68094e-08
3.21846e-08
-1.19852e-08
2.11014e-08
3.65993e-08
-1.31322e-08
2.56517e-08
4.22006e-08
-1.48472e-08
3.07525e-08
4.93435e-08
-1.7213e-08
3.65073e-08
5.85916e-08
-2.02876e-08
4.2174e-08
7.19302e-08
-2.4167e-08
4.63421e-08
8.97319e-08
-2.87359e-08
4.45416e-08
1.16943e-07
-3.39846e-08
3.99219e-08
1.3824e-07
-3.89431e-08
3.35319e-08
1.56316e-07
-4.33308e-08
2.6456e-08
1.69825e-07
-4.6949e-08
1.86493e-08
1.80454e-07
-4.96396e-08
1.03919e-08
1.87543e-07
-5.14531e-08
1.89355e-09
1.91238e-07
-5.23959e-08
-6.58871e-09
1.91396e-07
-5.24572e-08
-1.47963e-08
1.88014e-07
-5.16367e-08
-2.2517e-08
1.81235e-07
-4.99438e-08
-2.94629e-08
1.70909e-07
-4.73722e-08
-3.56744e-08
1.57707e-07
-4.38698e-08
-4.00535e-08
1.3994e-07
-3.95981e-08
-4.15651e-08
1.19027e-07
-3.47588e-08
-3.70402e-08
9.22379e-08
-2.96467e-08
-3.10677e-08
7.5173e-08
-2.52491e-08
-2.49146e-08
6.24863e-08
-2.15995e-08
-1.92282e-08
5.39757e-08
-1.88469e-08
-1.37737e-08
4.76862e-08
-1.6936e-08
-8.22494e-09
4.3174e-08
-1.5753e-08
-2.63188e-09
4.01202e-08
-1.48543e-08
1.51838e-09
3.80463e-08
-1.2753e-08
3.49979e-08
-6.38593e-09
-1.00211e-10
2.7409e-08
-4.45317e-09
4.36098e-09
3.01308e-08
-9.56939e-09
1.01305e-08
3.2135e-08
-1.13288e-08
1.57816e-08
3.51652e-08
-1.19562e-08
2.12005e-08
3.95516e-08
-1.27858e-08
2.67078e-08
4.53086e-08
-1.42166e-08
3.28181e-08
5.24978e-08
-1.64075e-08
4.02365e-08
6.14424e-08
-1.95174e-08
4.94945e-08
7.29572e-08
-2.36236e-08
5.9935e-08
9.0388e-08
-2.88984e-08
6.86272e-08
1.16022e-07
-3.4982e-08
6.4981e-08
1.63103e-07
-4.2514e-08
5.6888e-08
1.95925e-07
-4.9592e-08
4.68825e-08
2.22303e-07
-5.59812e-08
3.66217e-08
2.41364e-07
-6.12778e-08
2.5554e-08
2.56536e-07
-6.50145e-08
1.39532e-08
2.66643e-07
-6.74994e-08
2.04778e-09
2.71922e-07
-6.87784e-08
-9.84282e-09
2.72136e-07
-6.88491e-08
-2.1397e-08
2.67279e-07
-6.77108e-08
-3.23817e-08
2.57583e-07
-6.5363e-08
-4.25089e-08
2.42796e-07
-6.17595e-08
-5.23173e-08
2.24102e-07
-5.65867e-08
-6.01167e-08
1.98055e-07
-5.03163e-08
-6.33791e-08
1.65644e-07
-4.33544e-08
-5.41676e-08
1.18977e-07
-3.59505e-08
-4.33895e-08
9.44369e-08
-3.0042e-08
-3.36733e-08
7.77808e-08
-2.50108e-08
-2.55437e-08
6.71054e-08
-2.12593e-08
-1.83108e-08
5.91195e-08
-1.86662e-08
-1.12389e-08
5.31977e-08
-1.70956e-08
-4.2336e-09
4.90951e-08
-1.59802e-08
1.04985e-09
4.6323e-08
-1.35601e-08
4.2587e-08
-6.53924e-09
3.61403e-10
3.15015e-08
-4.45386e-09
6.01922e-09
3.46807e-08
-1.02077e-08
1.31455e-08
3.72059e-08
-1.21971e-08
2.01495e-08
4.11051e-08
-1.29439e-08
2.69219e-08
4.6767e-08
-1.39878e-08
3.39022e-08
5.41505e-08
-1.58222e-08
4.18851e-08
6.31912e-08
-1.86763e-08
5.23303e-08
7.38103e-08
-2.28131e-08
6.681e-08
8.67618e-08
-2.82842e-08
8.57819e-08
1.0665e-07
-3.52337e-08
1.04419e-07
1.40054e-07
-4.26686e-08
9.61836e-08
2.24397e-07
-5.30588e-08
8.14316e-08
2.73403e-07
-6.27267e-08
6.57288e-08
3.10047e-07
-7.20412e-08
5.09606e-08
3.36073e-07
-7.99405e-08
3.532e-08
3.57134e-07
-8.49579e-08
1.89952e-08
3.71241e-07
-8.82737e-08
2.25572e-09
3.78629e-07
-8.99671e-08
-1.44731e-08
3.78917e-07
-9.00526e-08
-3.07631e-08
3.72098e-07
-8.85293e-08
-4.63401e-08
3.58537e-07
-8.53771e-08
-6.09946e-08
3.37967e-07
-8.05164e-08
-7.65067e-08
3.12369e-07
-7.27544e-08
-9.09186e-08
2.76033e-07
-6.35656e-08
-9.86397e-08
2.27378e-07
-5.4013e-08
-7.91757e-08
1.43247e-07
-4.3734e-08
-5.99076e-08
1.11651e-07
-3.64824e-08
-4.49481e-08
9.26076e-08
-2.97863e-08
-3.36506e-08
8.05163e-08
-2.47085e-08
-2.42637e-08
7.08938e-08
-2.11612e-08
-1.53006e-08
6.32649e-08
-1.90304e-08
-6.47402e-09
5.78486e-08
-1.758e-08
2.57287e-10
5.4275e-08
-1.46832e-08
4.96534e-08
-6.80911e-09
1.01443e-09
3.49413e-08
-4.45423e-09
8.19771e-09
3.85231e-08
-1.10256e-08
1.70765e-08
4.16391e-08
-1.3312e-08
2.58269e-08
4.65775e-08
-1.42227e-08
3.42918e-08
5.38523e-08
-1.55502e-08
4.2929e-08
6.34208e-08
-1.79075e-08
5.26749e-08
7.50526e-08
-2.16074e-08
6.59215e-08
8.76135e-08
-2.70498e-08
8.61272e-08
1.0064e-07
-3.40838e-08
1.19395e-07
1.1642e-07
-4.30388e-08
1.60172e-07
1.47893e-07
-4.86153e-08
1.41507e-07
3.0338e-07
-6.03184e-08
1.15672e-07
3.72173e-07
-7.29352e-08
9.20817e-08
4.20181e-07
-8.65436e-08
7.13486e-08
4.55066e-07
-9.82609e-08
4.93609e-08
4.83589e-07
-1.04467e-07
2.62617e-08
5.02895e-07
-1.08554e-07
2.53667e-09
5.12987e-07
-1.10633e-07
-2.11855e-08
5.13376e-07
-1.10737e-07
-4.42746e-08
5.04051e-07
-1.08864e-07
-6.62464e-08
4.85481e-07
-1.04972e-07
-8.6935e-08
4.57609e-07
-9.89537e-08
-1.10417e-07
4.23243e-07
-8.73924e-08
-1.35942e-07
3.75482e-07
-7.39239e-08
-1.5392e-07
3.06806e-07
-6.14499e-08
-1.11683e-07
1.50815e-07
-4.98057e-08
-7.8384e-08
1.22758e-07
-4.44058e-08
-5.77122e-08
1.07652e-07
-3.57164e-08
-4.34326e-08
9.53681e-08
-2.91314e-08
-3.19065e-08
8.37352e-08
-2.43676e-08
-2.07107e-08
7.35848e-08
-2.15156e-08
-9.49519e-09
6.62611e-08
-1.9628e-08
-5.85664e-10
6.15312e-08
-1.61658e-08
5.60782e-08
-7.01053e-09
1.88348e-09
3.75105e-08
-4.4527e-09
1.09496e-08
4.1445e-08
-1.19881e-08
2.20382e-08
4.51983e-08
-1.46477e-08
3.30369e-08
5.13432e-08
-1.57645e-08
4.36773e-08
6.06461e-08
-1.74341e-08
5.4223e-08
7.32723e-08
-2.03973e-08
6.53019e-08
8.90297e-08
-2.5056e-08
7.97938e-08
1.05046e-07
-3.19244e-08
1.03633e-07
1.17868e-07
-4.10673e-08
1.55517e-07
1.15482e-07
-5.09453e-08
2.43364e-07
1.18652e-07
-5.86054e-08
2.00633e-07
4.06378e-07
-6.02675e-08
1.581e-07
4.87658e-07
-7.29521e-08
1.2576e-07
5.44175e-07
-9.1655e-08
9.80077e-08
5.90633e-07
-1.07814e-07
6.79998e-08
6.28012e-07
-1.14415e-07
3.59785e-08
6.54064e-07
-1.19148e-07
2.92154e-09
6.67557e-07
-1.21513e-07
-3.01442e-08
6.68071e-07
-1.21629e-07
-6.2195e-08
6.55598e-07
-1.19496e-07
-9.22709e-08
6.30536e-07
-1.14979e-07
-1.20128e-07
5.94054e-07
-1.08588e-07
-1.52589e-07
5.48296e-07
-9.25916e-08
-1.95035e-07
4.91981e-07
-7.40535e-08
-2.36895e-07
4.10214e-07
-6.1547e-08
-1.46405e-07
1.20495e-07
-6.01696e-08
-9.52897e-08
1.24128e-07
-5.24848e-08
-7.09663e-08
1.2616e-07
-4.28315e-08
-5.51829e-08
1.13809e-07
-3.4224e-08
-4.18006e-08
9.84979e-08
-2.8145e-08
-2.79168e-08
8.4191e-08
-2.449e-08
-1.35795e-08
7.40281e-08
-2.21042e-08
-1.80225e-09
6.77068e-08
-1.79529e-08
6.1438e-08
-7.16201e-09
3.03653e-09
3.89024e-08
-4.42846e-09
1.4479e-08
4.30832e-08
-1.30806e-08
2.84759e-08
4.73874e-08
-1.6186e-08
4.26849e-08
5.46845e-08
-1.75503e-08
5.67705e-08
6.61791e-08
-1.96186e-08
7.04802e-08
8.281e-08
-2.32474e-08
8.29182e-08
1.05428e-07
-2.8836e-08
9.32502e-08
1.32176e-07
-3.74621e-08
1.02168e-07
1.56656e-07
-4.77057e-08
1.44614e-07
1.36133e-07
-6.30969e-08
3.48274e-07
-8.50082e-08
2.69333e-07
5.25976e-07
-4.06571e-08
2.13846e-07
5.90615e-07
-4.74696e-08
1.75277e-07
6.48785e-07
-6.60405e-08
1.38906e-07
7.09983e-07
-8.29794e-08
9.65882e-08
7.57013e-07
-8.66839e-08
5.07057e-08
7.90111e-07
-9.01643e-08
3.45123e-09
8.06781e-07
-9.19693e-08
-4.38197e-08
8.07409e-07
-9.20673e-08
-8.97639e-08
7.92001e-07
-9.04588e-08
-1.32241e-07
7.60164e-07
-8.71502e-08
-1.68921e-07
7.14373e-07
-8.36392e-08
-2.08106e-07
6.54315e-07
-6.68335e-08
-2.6454e-07
5.96835e-07
-4.84204e-08
-3.43294e-07
5.3099e-07
-4.20219e-08
-1.35363e-07
-8.74365e-08
-9.28017e-08
1.45897e-07
-6.43299e-08
-8.41063e-08
1.66879e-07
-4.94141e-08
-7.2138e-08
1.41806e-07
-3.99659e-08
-5.66847e-08
1.15351e-07
-3.23064e-08
-3.86491e-08
9.40862e-08
-2.79309e-08
-1.96497e-08
8.00551e-08
-2.50265e-08
-3.79676e-09
7.18921e-08
-2.00382e-08
6.48733e-08
-7.23211e-09
4.36033e-09
3.89429e-08
-4.4008e-09
1.85255e-08
4.32068e-08
-1.42888e-08
3.59714e-08
4.78543e-08
-1.79129e-08
5.42844e-08
5.59544e-08
-1.95829e-08
7.34019e-08
6.91932e-08
-2.21316e-08
9.29685e-08
8.96408e-08
-2.63975e-08
1.10066e-07
1.20964e-07
-3.26335e-08
1.14846e-07
1.67541e-07
-4.01451e-08
9.16751e-08
2.35086e-07
-5.52591e-08
3.15981e-07
-8.81738e-08
1.69346e-07
2.95059e-07
6.15703e-08
2.29555e-07
5.03803e-07
2.66032e-08
2.26361e-07
6.31262e-07
2.07172e-08
1.864e-07
7.26788e-07
2.31569e-08
1.30542e-07
7.91615e-07
2.12569e-08
6.85409e-08
8.33062e-07
1.90499e-08
4.15893e-09
8.53054e-07
1.81086e-08
-6.02452e-08
8.53703e-07
1.81102e-08
-1.2233e-07
8.35032e-07
1.90527e-08
-1.78411e-07
7.94975e-07
2.12703e-08
-2.189e-07
7.31685e-07
2.31765e-08
-2.2336e-07
6.37978e-07
2.07979e-08
-1.6564e-07
5.1268e-07
2.64352e-08
3.04852e-07
6.04974e-08
-8.88178e-08
3.21446e-07
-8.67316e-08
-1.08278e-07
2.42951e-07
-5.66108e-08
-9.97346e-08
1.76124e-07
-4.28618e-08
-7.82173e-08
1.30405e-07
-3.65713e-08
-5.29856e-08
1.00671e-07
-3.18166e-08
-2.74418e-08
8.29801e-08
-2.84688e-08
-6.35823e-09
7.32896e-08
-2.2481e-08
6.58302e-08
-7.31509e-09
5.96877e-09
3.73366e-08
-4.36251e-09
2.33532e-08
4.13889e-08
-1.55665e-08
4.52302e-08
4.57233e-08
-1.97461e-08
6.97796e-08
5.31816e-08
-2.17765e-08
9.8822e-08
6.51045e-08
-2.49537e-08
1.35893e-07
8.28435e-08
-3.02734e-08
1.86605e-07
1.08223e-07
-3.79713e-08
2.58377e-07
1.41896e-07
-4.61278e-08
3.64452e-07
1.80898e-07
-5.18869e-08
5.09468e-07
2.13599e-07
-4.26333e-08
3.95342e-07
8.09588e-08
3.31667e-08
4.20937e-07
2.20677e-07
4.87875e-08
4.11625e-07
3.83425e-07
1.2969e-07
3.54854e-07
4.95226e-07
1.92807e-07
2.72349e-07
5.80127e-07
2.29166e-07
1.82992e-07
6.37636e-07
2.43336e-07
9.36169e-08
6.74095e-07
2.48342e-07
4.89837e-09
6.9171e-07
2.50063e-07
-8.38042e-08
6.92269e-07
2.50136e-07
-1.73129e-07
6.75788e-07
2.48568e-07
-2.62404e-07
6.40509e-07
2.43741e-07
-3.44785e-07
5.84255e-07
2.29812e-07
-4.01427e-07
5.00699e-07
1.93922e-07
-4.10185e-07
3.90068e-07
1.3137e-07
-3.851e-07
2.28151e-07
5.16155e-08
-5.04392e-07
8.33553e-08
3.59365e-08
-3.5913e-07
2.18313e-07
-4.21293e-08
-2.50648e-07
1.87624e-07
-5.31548e-08
-1.75393e-07
1.49691e-07
-4.88222e-08
-1.19757e-07
1.17102e-07
-4.23329e-08
-7.59584e-08
9.33994e-08
-3.6527e-08
-3.89485e-08
7.8388e-08
-3.24178e-08
-1.02757e-08
6.98836e-08
-2.52668e-08
6.2943e-08
-7.38859e-09
7.33192e-09
3.43403e-08
-4.33558e-09
2.75071e-08
3.79933e-08
-1.67796e-08
5.29994e-08
4.17349e-08
-2.15039e-08
8.20556e-08
4.80209e-08
-2.38954e-08
1.17104e-07
5.77381e-08
-2.76821e-08
1.62539e-07
7.14682e-08
-3.40598e-08
2.24562e-07
8.95326e-08
-4.33324e-08
3.09411e-07
1.11089e-07
-5.40419e-08
4.21112e-07
1.31565e-07
-6.23685e-08
5.48879e-07
1.451e-07
-5.92669e-08
5.5875e-07
1.04395e-07
-3.33072e-08
5.77133e-07
1.83932e-07
1.8362e-08
5.32229e-07
2.82445e-07
1.45884e-07
4.41948e-07
3.58779e-07
2.26728e-07
3.33072e-07
4.19416e-07
2.69587e-07
2.21371e-07
4.61158e-07
2.88179e-07
1.12294e-07
4.88169e-07
2.95002e-07
5.46748e-09
5.01331e-07
2.97205e-07
-1.01331e-07
5.01794e-07
2.97274e-07
-2.10318e-07
4.8956e-07
2.95215e-07
-3.21868e-07
4.6349e-07
2.88569e-07
-4.30541e-07
4.2269e-07
2.70237e-07
-5.20718e-07
3.62978e-07
2.27899e-07
-5.65746e-07
2.87344e-07
1.47752e-07
-5.4834e-07
1.89164e-07
2.15809e-08
-5.41609e-07
1.07866e-07
-3.12424e-08
-4.1444e-07
1.49974e-07
-5.88297e-08
-3.00854e-07
1.37604e-07
-6.35654e-08
-2.12442e-07
1.18128e-07
-5.6849e-08
-1.44937e-07
9.76854e-08
-4.80879e-08
-9.17647e-08
8.12644e-08
-4.10375e-08
-4.73415e-08
7.00649e-08
-3.61001e-08
-1.30438e-08
6.33985e-08
-2.78126e-08
5.73812e-08
-7.482e-09
8.52519e-09
3.01243e-08
-4.30917e-09
3.11294e-08
3.32423e-08
-1.78533e-08
5.96836e-08
3.6231e-08
-2.30502e-08
9.23229e-08
4.11174e-08
-2.57358e-08
1.31639e-07
4.84398e-08
-3.00181e-08
1.82064e-07
5.83483e-08
-3.73053e-08
2.49106e-07
7.06076e-08
-4.81164e-08
3.37433e-07
8.44699e-08
-6.17078e-08
4.46762e-07
9.67359e-08
-7.45e-08
5.64094e-07
1.06732e-07
-7.89636e-08
6.27412e-07
1.01303e-07
-6.02266e-08
6.63455e-07
1.4635e-07
1.54009e-09
6.08997e-07
2.04129e-07
1.32774e-07
5.02771e-07
2.52835e-07
2.1217e-07
3.76188e-07
2.9304e-07
2.52958e-07
2.48841e-07
3.21325e-07
2.6718e-07
1.25817e-07
3.40093e-07
2.711e-07
5.93409e-09
3.49374e-07
2.7184e-07
-1.13915e-07
3.49764e-07
2.7188e-07
-2.36838e-07
3.41259e-07
2.71224e-07
-3.64022e-07
3.23253e-07
2.67421e-07
-4.90424e-07
2.95695e-07
2.53398e-07
-5.96695e-07
2.56166e-07
2.13082e-07
-6.51711e-07
2.07966e-07
1.34394e-07
-6.17399e-07
1.50574e-07
4.27833e-09
-5.56167e-07
1.05026e-07
-5.83923e-08
-4.39091e-07
1.11292e-07
-7.83946e-08
-3.27958e-07
1.02093e-07
-7.56221e-08
-2.3593e-07
9.06919e-08
-6.4592e-08
-1.6293e-07
7.78649e-08
-5.31798e-08
-1.03907e-07
6.70949e-08
-4.48531e-08
-5.40335e-08
5.9377e-08
-3.91856e-08
-1.52706e-08
5.45813e-08
-2.99457e-08
4.96456e-08
-7.53502e-09
9.40292e-09
2.50305e-08
-4.30908e-09
3.38611e-08
2.75441e-08
-1.87599e-08
6.46463e-08
2.97917e-08
-2.4346e-08
9.96518e-08
3.33759e-08
-2.7264e-08
1.41395e-07
3.86226e-08
-3.19265e-08
1.94132e-07
4.55108e-08
-3.98986e-08
2.62858e-07
5.3719e-08
-5.18382e-08
3.51833e-07
6.28315e-08
-6.73366e-08
4.60136e-07
7.11793e-08
-8.27455e-08
5.77237e-07
8.0003e-08
-9.03732e-08
6.65588e-07
8.55109e-08
-7.25587e-08
7.13709e-07
1.13026e-07
-1.47966e-08
6.54821e-07
1.47862e-07
1.15155e-07
5.40325e-07
1.78696e-07
1.88635e-07
4.03916e-07
2.04888e-07
2.24561e-07
2.67102e-07
2.23888e-07
2.34251e-07
1.34996e-07
2.36742e-07
2.35456e-07
6.31759e-09
2.43215e-07
2.34838e-07
-1.22334e-07
2.43565e-07
2.34851e-07
-2.54357e-07
2.37783e-07
2.35499e-07
-3.91045e-07
2.25588e-07
2.34353e-07
-5.27341e-07
2.0719e-07
2.248e-07
-6.41994e-07
1.81529e-07
1.8929e-07
-7.01603e-07
1.51091e-07
1.16484e-07
-6.55578e-07
1.16584e-07
-1.2035e-08
-5.68741e-07
8.90593e-08
-7.087e-08
-4.51694e-07
8.41018e-08
-8.98566e-08
-3.41528e-07
7.58457e-08
-8.39193e-08
-2.4867e-07
6.81873e-08
-7.03528e-08
-1.73572e-07
5.99417e-08
-5.7175e-08
-1.11545e-07
5.29664e-08
-4.78983e-08
-5.83383e-08
4.7834e-08
-4.1664e-08
-1.66144e-08
4.45313e-08
-3.16738e-08
4.06822e-08
-7.65098e-09
1.00436e-08
1.9313e-08
-4.32612e-09
3.58839e-08
2.11883e-08
-1.94845e-08
6.82964e-08
2.27472e-08
-2.53679e-08
1.04942e-07
2.51837e-08
-2.84537e-08
1.48243e-07
2.87076e-08
-3.33854e-08
2.02312e-07
3.32765e-08
-4.18349e-08
2.71896e-07
3.86772e-08
-5.45425e-08
3.61215e-07
4.47706e-08
-7.1258e-08
4.69802e-07
5.08537e-08
-8.82608e-08
5.89364e-07
5.81636e-08
-9.77226e-08
6.89784e-07
6.55588e-08
-8.04686e-08
7.44362e-07
8.29156e-08
-2.44673e-08
6.84085e-07
1.04374e-07
1.03764e-07
5.65153e-07
1.23945e-07
1.73684e-07
4.22657e-07
1.40844e-07
2.06539e-07
2.79665e-07
1.53419e-07
2.1346e-07
1.41414e-07
1.6205e-07
2.12944e-07
6.66382e-09
1.66488e-07
2.11477e-07
-1.2807e-07
1.66823e-07
2.11476e-07
-2.6627e-07
1.6304e-07
2.12943e-07
-4.09191e-07
1.55021e-07
2.13488e-07
-5.51653e-07
1.42983e-07
2.06669e-07
-6.70846e-07
1.26527e-07
1.74195e-07
-7.31952e-07
1.07278e-07
1.04918e-07
-6.79589e-07
8.60632e-08
-2.18418e-08
-5.80432e-07
6.88031e-08
-7.89009e-08
-4.60796e-07
6.17468e-08
-9.72802e-08
-3.50236e-07
5.48081e-08
-8.95232e-08
-2.56848e-07
4.92117e-08
-7.4412e-08
-1.80553e-07
4.37559e-08
-6.01095e-08
-1.16662e-07
3.92616e-08
-5.01859e-08
-6.12355e-08
3.59601e-08
-4.35525e-08
-1.74844e-08
3.37929e-08
-3.30128e-08
3.09809e-08
-7.78315e-09
1.04575e-08
1.32197e-08
-4.36415e-09
3.72345e-08
1.44414e-08
-2.00301e-08
7.07342e-08
1.53708e-08
-2.61234e-08
1.0844e-07
1.67995e-08
-2.93219e-08
1.52709e-07
1.88673e-08
-3.44288e-08
2.07599e-07
2.15663e-08
-4.31798e-08
2.77808e-07
2.48224e-08
-5.63541e-08
3.67687e-07
2.86496e-08
-7.37577e-08
4.77293e-07
3.28625e-08
-9.16149e-08
5.99225e-07
3.82065e-08
-1.01975e-07
7.05562e-07
4.43872e-08
-8.51655e-08
7.63653e-07
5.48476e-08
-3.00225e-08
7.02671e-07
6.73091e-08
9.80472e-08
5.81147e-07
7.88431e-08
1.66626e-07
4.34965e-07
8.88465e-08
1.9818e-07
2.88063e-07
9.64656e-08
2.03857e-07
1.45789e-07
1.01762e-07
2.02561e-07
6.99259e-09
1.04578e-07
2.00706e-07
-1.31802e-07
1.04918e-07
2.007e-07
-2.7407e-07
1.02764e-07
2.02544e-07
-4.20974e-07
9.80691e-08
2.03856e-07
-5.67216e-07
9.09597e-08
1.98265e-07
-6.89105e-07
8.13419e-08
1.67074e-07
-7.51006e-07
7.00594e-08
9.91202e-08
-6.9518e-07
5.77338e-08
-2.74966e-08
-5.89996e-07
4.73152e-08
-8.36958e-08
-4.67904e-07
4.12801e-08
-1.01626e-07
-3.56223e-07
3.61117e-08
-9.29839e-08
-2.62123e-07
3.21606e-08
-7.70491e-08
-1.84951e-07
2.87004e-08
-6.21165e-08
-1.19866e-07
2.59814e-08
-5.18047e-08
-6.3023e-08
2.40355e-08
-4.49187e-08
-1.79776e-08
2.27534e-08
-3.40058e-08
2.09401e-08
-7.93683e-09
1.06893e-08
6.94676e-09
-4.41639e-09
3.80195e-08
7.50874e-09
-2.03976e-08
7.21661e-08
7.84173e-09
-2.66175e-08
1.10509e-07
8.33655e-09
-2.98804e-08
1.55383e-07
9.0802e-09
-3.50859e-08
2.10838e-07
1.0115e-08
-4.40044e-08
2.81593e-07
1.15006e-08
-5.74328e-08
3.72099e-07
1.33376e-08
-7.51947e-08
4.82695e-07
1.57483e-08
-9.34811e-08
6.06241e-07
1.89238e-08
-1.04264e-07
7.15371e-07
2.29086e-08
-8.76514e-08
7.75134e-07
2.77683e-08
-3.26837e-08
7.13759e-07
3.29148e-08
9.57697e-08
5.90761e-07
3.77028e-08
1.64138e-07
4.42466e-07
4.17926e-08
1.9535e-07
2.93255e-07
4.50491e-08
2.00627e-07
1.48571e-07
4.73805e-08
1.99066e-07
7.3252e-09
4.87483e-08
1.97076e-07
-1.33939e-07
4.91136e-08
1.97068e-07
-2.78674e-07
4.84538e-08
1.99046e-07
-4.27977e-07
4.67539e-08
2.00618e-07
-5.76452e-07
4.40126e-08
1.95421e-07
-6.9994e-07
4.0269e-08
1.64561e-07
-7.62344e-07
3.56641e-08
9.67986e-08
-7.04899e-07
3.05216e-08
-3.02328e-08
-5.96879e-07
2.55685e-08
-8.62727e-08
-4.73119e-07
2.15326e-08
-1.04013e-07
-3.60374e-07
1.83254e-08
-9.49584e-08
-2.6554e-07
1.59391e-08
-7.86121e-08
-1.87661e-07
1.41752e-08
-6.3354e-08
-1.21781e-07
1.29341e-08
-5.28331e-08
-6.40644e-08
1.21261e-08
-4.5807e-08
-1.82485e-08
1.16096e-08
-3.46722e-08
1.07742e-08
-8.08262e-09
1.07526e-08
6.76566e-10
-4.48244e-09
3.82752e-08
5.77079e-10
-2.05909e-08
7.26606e-08
3.13753e-10
-2.68574e-08
1.11265e-07
-1.25828e-10
-3.01417e-08
1.56433e-07
-7.09446e-10
-3.53787e-08
2.12246e-07
-1.34812e-09
-4.43501e-08
2.83456e-07
-1.85168e-09
-5.78578e-08
3.7455e-07
-2.02952e-09
-7.57263e-08
4.85873e-07
-1.43791e-09
-9.41374e-08
6.10217e-07
-3.80814e-10
-1.05039e-07
7.20053e-07
1.55566e-09
-8.84828e-08
7.80087e-07
1.1961e-09
-3.34625e-08
7.18432e-07
-7.89527e-10
9.53601e-08
5.94793e-07
-2.61827e-09
1.63959e-07
4.45681e-07
-4.37051e-09
1.95275e-07
2.95563e-07
-5.41774e-09
2.00585e-07
1.49921e-07
-6.00573e-09
1.99029e-07
7.68084e-09
-6.04906e-09
1.97037e-07
-1.34602e-07
-5.63319e-09
1.97029e-07
-2.80369e-07
-4.7845e-09
1.99006e-07
-4.30697e-07
-3.48757e-09
2.0057e-07
-5.80145e-07
-1.87423e-09
1.95335e-07
-7.04434e-07
1.98075e-10
1.6436e-07
-7.67271e-07
2.1606e-09
9.63399e-08
-7.09635e-07
3.98706e-09
-3.11014e-08
-6.00905e-07
4.04921e-09
-8.72104e-08
-4.7632e-07
1.84989e-09
-1.04902e-07
-3.628e-07
5.33989e-10
-9.57289e-08
-2.6733e-07
-2.68689e-10
-7.92623e-08
-1.88926e-07
-3.21688e-10
-6.39063e-08
-1.22595e-07
-7.7041e-11
-5.33203e-08
-6.44749e-08
2.55314e-10
-4.62491e-08
-1.83408e-08
5.04703e-10
-3.50292e-08
6.499e-10
-8.2165e-09
1.06487e-08
-5.41002e-09
-4.56214e-09
3.80023e-08
-6.1649e-09
-2.06116e-08
7.22177e-08
-7.0557e-09
-2.68459e-08
1.10702e-07
-8.5008e-09
-3.01095e-08
1.55852e-07
-1.05456e-08
-3.53131e-08
2.11808e-07
-1.30778e-08
-4.42268e-08
2.83381e-07
-1.57802e-08
-5.76449e-08
3.75038e-07
-1.83079e-08
-7.53782e-08
4.86885e-07
-1.96628e-08
-9.3622e-08
6.11305e-07
-2.04456e-08
-1.04356e-07
7.19872e-07
-1.92689e-08
-8.77419e-08
7.7871e-07
-2.51337e-08
-3.25082e-08
7.16809e-07
-3.5501e-08
9.6612e-08
5.93318e-07
-4.49572e-08
1.6583e-07
4.44668e-07
-5.33809e-08
1.9766e-07
2.95031e-07
-5.91903e-08
2.03409e-07
1.49873e-07
-6.2958e-08
2.02111e-07
8.08491e-09
-6.45018e-08
2.00241e-07
-1.33776e-07
-6.39994e-08
2.00227e-07
-2.7915e-07
-6.14789e-08
2.02069e-07
-4.29145e-07
-5.68524e-08
2.0336e-07
-5.78331e-07
-5.03539e-08
1.97665e-07
-7.02718e-07
-4.15563e-08
1.66142e-07
-7.66021e-07
-3.20243e-08
9.74872e-08
-7.09696e-07
-2.20471e-08
-3.02906e-08
-6.02241e-07
-1.67878e-08
-8.66176e-08
-4.77562e-07
-1.84561e-08
-1.04374e-07
-3.63521e-07
-1.81436e-08
-9.53626e-08
-2.67488e-07
-1.72585e-08
-7.90435e-08
-1.88743e-07
-1.52664e-08
-6.38007e-08
-1.22308e-07
-1.32271e-08
-5.32842e-08
-6.42554e-08
-1.15411e-08
-4.62566e-08
-1.8255e-08
-1.04111e-08
-3.50846e-08
-9.26494e-09
-8.34017e-09
1.03626e-08
-1.11124e-08
-4.6602e-09
3.71661e-08
-1.25072e-08
-2.04611e-08
7.07695e-08
-1.40772e-08
-2.65819e-08
1.08704e-07
-1.6655e-08
-2.978e-08
1.53451e-07
-2.04133e-08
-3.48794e-08
2.09267e-07
-2.52826e-08
-4.36118e-08
2.81101e-07
-3.08683e-08
-5.67452e-08
3.73414e-07
-3.65795e-08
-7.40419e-08
4.85904e-07
-4.04218e-08
-9.17303e-08
6.10009e-07
-4.26796e-08
-1.01871e-07
7.14574e-07
-3.88255e-08
-8.50084e-08
7.70102e-07
-5.15728e-08
-2.90891e-08
7.08046e-07
-7.40968e-08
1.00651e-07
5.85705e-07
-9.4035e-08
1.71419e-07
4.39039e-07
-1.11298e-07
2.04584e-07
2.9145e-07
-1.23124e-07
2.11523e-07
1.48352e-07
-1.3079e-07
2.10931e-07
8.57022e-09
-1.34116e-07
2.09396e-07
-1.31319e-07
-1.33475e-07
2.09365e-07
-2.74744e-07
-1.2889e-07
2.10836e-07
-4.22878e-07
-1.20101e-07
2.11382e-07
-5.70357e-07
-1.07334e-07
2.04459e-07
-6.93908e-07
-8.95669e-08
1.71562e-07
-7.57715e-07
-6.95382e-08
1.01321e-07
-7.04891e-07
-4.77527e-08
-2.71181e-08
-6.01432e-07
-3.61397e-08
-8.41071e-08
-4.77045e-07
-4.07304e-08
-1.02113e-07
-3.62369e-07
-3.91587e-08
-9.3661e-08
-2.65737e-07
-3.60342e-08
-7.78562e-08
-1.86847e-07
-3.1161e-08
-6.29951e-08
-1.2073e-07
-2.66407e-08
-5.27041e-08
-6.3293e-08
-2.31586e-08
-4.58192e-08
-1.79456e-08
-2.09215e-08
-3.48369e-08
-1.87424e-08
-8.46818e-09
9.85294e-09
-1.61809e-08
-4.7845e-09
3.5666e-08
-1.81779e-08
-2.01424e-08
6.81181e-08
-2.04628e-08
-2.60666e-08
1.0491e-07
-2.42973e-08
-2.91496e-08
1.48634e-07
-3.00767e-08
-3.40604e-08
2.0374e-07
-3.79363e-08
-4.24525e-08
2.75528e-07
-4.7629e-08
-5.50275e-08
3.68713e-07
-5.83588e-08
-7.14051e-08
4.82822e-07
-6.66679e-08
-8.78635e-08
6.07266e-07
-7.05766e-08
-9.65463e-08
7.02774e-07
-5.49438e-08
-7.93898e-08
7.51296e-07
-7.78865e-08
-2.2208e-08
6.89196e-07
-1.21086e-07
1.09089e-07
5.69639e-07
-1.57663e-07
1.83185e-07
4.27295e-07
-1.88114e-07
2.1916e-07
2.83979e-07
-2.08429e-07
2.2862e-07
1.45006e-07
-2.21362e-07
2.29545e-07
9.18707e-09
-2.27023e-07
2.28726e-07
-1.26777e-07
-2.26165e-07
2.28654e-07
-2.66202e-07
-2.18791e-07
2.29326e-07
-4.10286e-07
-2.04284e-07
2.28267e-07
-5.53808e-07
-1.8255e-07
2.18739e-07
-6.75034e-07
-1.51301e-07
1.8296e-07
-7.39462e-07
-1.1447e-07
1.0936e-07
-6.93958e-07
-7.26018e-08
-2.06556e-08
-5.99427e-07
-5.18336e-08
-7.88366e-08
-4.74641e-07
-6.83649e-08
-9.71521e-08
-3.58378e-07
-6.53261e-08
-9.00954e-08
-2.60984e-07
-5.79944e-08
-7.54339e-08
-1.82345e-07
-4.84171e-08
-6.13825e-08
-1.17256e-07
-4.0194e-08
-5.1536e-08
-6.12427e-08
-3.42553e-08
-4.49164e-08
-1.72659e-08
-3.06154e-08
-3.4283e-08
-2.73733e-08
-8.63499e-09
9.11962e-09
-2.0369e-08
-4.93153e-09
3.34902e-08
-2.28916e-08
-1.96569e-08
6.42055e-08
-2.58789e-08
-2.52992e-08
9.91349e-08
-3.10157e-08
-2.8211e-08
1.40937e-07
-3.90423e-08
-3.28369e-08
1.94256e-07
-5.05474e-08
-4.07076e-08
2.64952e-07
-6.59148e-08
-5.24101e-08
3.58397e-07
-8.45397e-08
-6.72637e-08
4.75306e-07
-1.01994e-07
-8.15829e-08
6.04081e-07
-1.11611e-07
-8.77402e-08
6.80352e-07
-6.18331e-08
-6.93814e-08
7.14589e-07
-1.01785e-07
-1.03391e-08
6.54729e-07
-1.8352e-07
1.22294e-07
5.41691e-07
-2.45806e-07
2.0118e-07
4.07342e-07
-2.9502e-07
2.41256e-07
2.71454e-07
-3.27202e-07
2.54661e-07
1.39354e-07
-3.47132e-07
2.57869e-07
1.00128e-08
-3.55828e-07
2.58146e-07
-1.19505e-07
-3.54646e-07
2.57999e-07
-2.52174e-07
-3.43546e-07
2.57423e-07
-3.8907e-07
-3.21313e-07
2.53925e-07
-5.25075e-07
-2.8686e-07
2.40315e-07
-6.40449e-07
-2.3626e-07
2.00334e-07
-7.03654e-07
-1.7322e-07
1.21955e-07
-6.73025e-07
-9.38641e-08
-9.36762e-09
-5.97214e-07
-5.83418e-08
-6.93027e-08
-4.67989e-07
-1.08647e-07
-8.89425e-08
-3.49019e-07
-1.00009e-07
-8.42874e-08
-2.51524e-07
-8.38797e-08
-7.16094e-08
-1.74257e-07
-6.67914e-08
-5.88929e-08
-1.11394e-07
-5.33262e-08
-4.97304e-08
-5.78887e-08
-4.42538e-08
-4.35071e-08
-1.61558e-08
-3.89524e-08
-3.33958e-08
-3.46944e-08
-8.83464e-09
8.08767e-09
-2.33442e-08
-5.11246e-09
3.04691e-08
-2.62482e-08
-1.90248e-08
5.8648e-08
-2.97468e-08
-2.43109e-08
9.05204e-08
-3.58887e-08
-2.69995e-08
1.28548e-07
-4.58303e-08
-3.12395e-08
1.77287e-07
-6.09024e-08
-3.83842e-08
2.43211e-07
-8.30044e-08
-4.88341e-08
3.33337e-07
-1.13444e-07
-6.1222e-08
4.53344e-07
-1.50305e-07
-7.16963e-08
5.99122e-07
-1.86649e-07
-7.07397e-08
6.35449e-07
-5.17768e-08
-4.63836e-08
6.42563e-07
-1.13192e-07
4.29298e-09
5.90163e-07