/*--------------------------------*- C++ -*----------------------------------*\
| =========                 |                                                 |
| \\      /  F ield         | OpenFOAM: The Open Source CFD Toolbox           |
|  \\    /   O peration     | Version:  2112                                  |
|   \\  /    A nd           | Website:  www.openfoam.com                      |
|    \\/     M anipulation  |                                                 |
\*---------------------------------------------------------------------------*/
FoamFile
{
    version     2.0;
    format      ascii;
    arch        "LSB;label=32;scalar=64";
    class       volVectorField;
    location    "1.4";
    object      U;
}
// * * * * * * * * * * * * * * * * * * * * * * * * * * * * * * * * * * * * * //

dimensions      [0 1 -1 0 0 0 0];

internalField   nonuniform List<vector> 
64906
(
(5.38394e-07 1.74342e-06 -2.55256e-06)
(2.96804e-06 8.64601e-07 -2.62309e-06)
(6.27555e-06 2.03459e-07 -2.31561e-06)
(9.63106e-06 -1.85895e-07 -2.0553e-06)
(1.29286e-05 -3.07115e-07 -1.94784e-06)
(1.6094e-05 -2.60377e-07 -1.95809e-06)
(1.91147e-05 -1.07823e-07 -2.0414e-06)
(2.19201e-05 1.46856e-07 -2.16421e-06)
(2.44255e-05 4.99021e-07 -2.31382e-06)
(2.63662e-05 1.02709e-06 -2.45988e-06)
(2.75348e-05 1.6551e-06 -2.61612e-06)
(2.75006e-05 2.52252e-06 -2.74538e-06)
(2.60994e-05 3.27061e-06 -2.86763e-06)
(2.35208e-05 3.97739e-06 -2.94924e-06)
(1.98782e-05 4.51971e-06 -3.01908e-06)
(1.54428e-05 4.94583e-06 -3.06637e-06)
(1.04117e-05 5.22213e-06 -3.10223e-06)
(5.04321e-06 5.36159e-06 -3.12355e-06)
(-4.33008e-07 5.35801e-06 -3.13258e-06)
(-5.76498e-06 5.21156e-06 -3.12902e-06)
(-1.07229e-05 4.92866e-06 -3.11081e-06)
(-1.50497e-05 4.49656e-06 -3.08114e-06)
(-1.85522e-05 3.95031e-06 -3.02867e-06)
(-2.09614e-05 3.24146e-06 -2.96478e-06)
(-2.21728e-05 2.49704e-06 -2.86053e-06)
(-2.20004e-05 1.63673e-06 -2.75211e-06)
(-2.06183e-05 1.0292e-06 -2.62158e-06)
(-1.84609e-05 5.32277e-07 -2.51428e-06)
(-1.57259e-05 2.45477e-07 -2.43001e-06)
(-1.26779e-05 1.31744e-07 -2.43002e-06)
(-9.40269e-06 2.82183e-07 -2.5787e-06)
(-6.0503e-06 8.0151e-07 -2.94541e-06)
(-2.7881e-06 1.66597e-06 -3.40607e-06)
(-3.28409e-07 2.71088e-06 -3.4025e-06)
(-7.61715e-07 6.7515e-06 -3.11934e-06)
(1.29914e-06 6.08851e-06 -6.23394e-06)
(5.73246e-06 5.48085e-06 -7.01938e-06)
(9.78707e-06 5.28327e-06 -7.18355e-06)
(1.35676e-05 5.61311e-06 -7.4636e-06)
(1.7063e-05 6.37547e-06 -7.97819e-06)
(2.03618e-05 7.50771e-06 -8.7179e-06)
(2.3436e-05 9.04631e-06 -9.66241e-06)
(2.62646e-05 1.10291e-05 -1.08027e-05)
(2.8509e-05 1.36698e-05 -1.21279e-05)
(2.99912e-05 1.67949e-05 -1.36127e-05)
(3.00425e-05 2.06833e-05 -1.51937e-05)
(2.84556e-05 2.41967e-05 -1.67131e-05)
(2.56022e-05 2.74233e-05 -1.80727e-05)
(2.15722e-05 2.99942e-05 -1.92163e-05)
(1.67248e-05 3.2003e-05 -2.01096e-05)
(1.12324e-05 3.33454e-05 -2.07288e-05)
(5.39176e-06 3.40378e-05 -2.10599e-05)
(-5.67299e-07 3.40588e-05 -2.1095e-05)
(-6.36724e-06 3.34089e-05 -2.0834e-05)
(-1.17787e-05 3.21108e-05 -2.02854e-05)
(-1.65056e-05 3.01495e-05 -1.94637e-05)
(-2.03798e-05 2.76341e-05 -1.83934e-05)
(-2.30431e-05 2.44721e-05 -1.71104e-05)
(-2.44176e-05 2.10446e-05 -1.5673e-05)
(-2.41314e-05 1.72598e-05 -1.41839e-05)
(-2.24043e-05 1.42824e-05 -1.28069e-05)
(-1.98996e-05 1.18206e-05 -1.16167e-05)
(-1.67527e-05 1.00952e-05 -1.06593e-05)
(-1.32511e-05 8.95906e-06 -9.97974e-06)
(-9.33101e-06 8.497e-06 -9.59836e-06)
(-5.06437e-06 8.76981e-06 -9.36804e-06)
(-3.84262e-07 9.55353e-06 -8.35244e-06)
(1.47255e-06 1.01893e-05 -4.26621e-06)
(-1.49793e-06 1.43159e-05 -3.01498e-06)
(4.01271e-07 1.52069e-05 -7.09955e-06)
(5.61092e-06 1.5557e-05 -8.28125e-06)
(1.03194e-05 1.63445e-05 -8.60591e-06)
(1.4691e-05 1.78623e-05 -9.01524e-06)
(1.87106e-05 2.01144e-05 -9.69723e-06)
(2.25578e-05 2.31171e-05 -1.06717e-05)
(2.62544e-05 2.7019e-05 -1.19339e-05)
(2.98875e-05 3.19596e-05 -1.34861e-05)
(3.29635e-05 3.84315e-05 -1.533e-05)
(3.53305e-05 4.61241e-05 -1.74327e-05)
(3.56459e-05 5.56513e-05 -1.96947e-05)
(3.35767e-05 6.42401e-05 -2.18756e-05)
(3.00229e-05 7.20551e-05 -2.382e-05)
(2.5085e-05 7.83013e-05 -2.54481e-05)
(1.9308e-05 8.31893e-05 -2.67113e-05)
(1.28132e-05 8.6479e-05 -2.7582e-05)
(5.95992e-06 8.81889e-05 -2.80442e-05)
(-1.02849e-06 8.8265e-05 -2.80869e-05)
(-7.83839e-06 8.6708e-05 -2.77102e-05)
(-1.42468e-05 8.35748e-05 -2.69252e-05)
(-1.98929e-05 7.88492e-05 -2.57488e-05)
(-2.46595e-05 7.27812e-05 -2.42091e-05)
(-2.79977e-05 6.51636e-05 -2.23571e-05)
(-2.98233e-05 5.68178e-05 -2.0275e-05)
(-2.92273e-05 4.75706e-05 -1.81245e-05)
(-2.65647e-05 4.02521e-05 -1.61529e-05)
(-2.31659e-05 3.41973e-05 -1.44748e-05)
(-1.90994e-05 2.97807e-05 -1.31456e-05)
(-1.47751e-05 2.65629e-05 -1.21964e-05)
(-9.97788e-06 2.44977e-05 -1.16081e-05)
(-4.8005e-06 2.34566e-05 -1.11399e-05)
(8.74965e-07 2.29777e-05 -9.60439e-06)
(2.45088e-06 2.15553e-05 -4.1894e-06)
(-1.80522e-06 2.19232e-05 -2.80612e-06)
(2.87972e-07 2.38545e-05 -7.16048e-06)
(6.34038e-06 2.50004e-05 -8.42899e-06)
(1.18905e-05 2.67665e-05 -8.7515e-06)
(1.71189e-05 2.95173e-05 -9.1746e-06)
(2.20058e-05 3.33132e-05 -9.91838e-06)
(2.68453e-05 3.82403e-05 -1.1019e-05)
(3.17358e-05 4.45938e-05 -1.2491e-05)
(3.69894e-05 5.26941e-05 -1.43518e-05)
(4.1826e-05 6.35757e-05 -1.66282e-05)
(4.6197e-05 7.68602e-05 -1.92775e-05)
(4.70873e-05 9.41102e-05 -2.21898e-05)
(4.38732e-05 0.000109142 -2.49893e-05)
(3.88136e-05 0.000122581 -2.74611e-05)
(3.20255e-05 0.00013312 -2.95138e-05)
(2.44039e-05 0.000141362 -3.108e-05)
(1.59279e-05 0.000146893 -3.21507e-05)
(7.07503e-06 0.000149771 -3.27138e-05)
(-1.94686e-06 0.000149903 -3.27582e-05)
(-1.07539e-05 0.000147288 -3.22839e-05)
(-1.91379e-05 0.000142025 -3.13016e-05)
(-2.66157e-05 0.000134056 -2.98243e-05)
(-3.32114e-05 0.000123809 -2.78606e-05)
(-3.80158e-05 0.000110685 -2.54808e-05)
(-4.0936e-05 9.60401e-05 -2.2778e-05)
(-3.96843e-05 7.92279e-05 -1.99762e-05)
(-3.49385e-05 6.65503e-05 -1.74589e-05)
(-2.97034e-05 5.63037e-05 -1.5356e-05)
(-2.38841e-05 4.89611e-05 -1.37356e-05)
(-1.81627e-05 4.35294e-05 -1.26104e-05)
(-1.20777e-05 3.97848e-05 -1.19426e-05)
(-5.73313e-06 3.74359e-05 -1.14441e-05)
(1.05521e-06 3.59125e-05 -9.78876e-06)
(2.87557e-06 3.31266e-05 -3.98156e-06)
(-1.83597e-06 2.93274e-05 -2.66406e-06)
(7.82282e-07 3.20867e-05 -7.28404e-06)
(7.99118e-06 3.39656e-05 -8.63728e-06)
(1.46629e-05 3.67276e-05 -8.95648e-06)
(2.10583e-05 4.07918e-05 -9.41901e-06)
(2.71812e-05 4.62373e-05 -1.02826e-05)
(3.35016e-05 5.31984e-05 -1.1606e-05)
(4.02719e-05 6.21311e-05 -1.34436e-05)
(4.82942e-05 7.36502e-05 -1.5836e-05)
(5.63694e-05 8.97975e-05 -1.88636e-05)
(6.4906e-05 0.000110506 -2.24513e-05)
(6.6929e-05 0.000139873 -2.65615e-05)
(6.11767e-05 0.000163994 -3.04685e-05)
(5.32879e-05 0.000184972 -3.39056e-05)
(4.3311e-05 0.00020096 -3.67477e-05)
(3.26773e-05 0.000213491 -3.88484e-05)
(2.09749e-05 0.000221866 -4.02723e-05)
(8.88204e-06 0.00022623 -4.10131e-05)
(-3.43913e-06 0.000226422 -4.10609e-05)
(-1.54849e-05 0.000222442 -4.04155e-05)
(-2.70925e-05 0.00021445 -3.90857e-05)
(-3.75706e-05 0.000202299 -3.70782e-05)
(-4.73335e-05 0.000186706 -3.43267e-05)
(-5.49139e-05 0.00016614 -3.09809e-05)
(-6.03038e-05 0.000142527 -2.71667e-05)
(-5.77863e-05 0.000113724 -2.31634e-05)
(-4.87633e-05 9.38946e-05 -1.97074e-05)
(-4.02237e-05 7.85862e-05 -1.68618e-05)
(-3.14985e-05 6.80344e-05 -1.47299e-05)
(-2.36891e-05 6.02355e-05 -1.32827e-05)
(-1.58138e-05 5.47103e-05 -1.24606e-05)
(-7.8986e-06 5.1031e-05 -1.19095e-05)
(4.51812e-07 4.85405e-05 -1.01111e-05)
(2.96404e-06 4.46525e-05 -3.8756e-06)
(-1.70622e-06 3.6207e-05 -2.58479e-06)
(1.73799e-06 3.97356e-05 -7.60233e-06)
(1.05027e-05 4.22759e-05 -9.09968e-06)
(1.86573e-05 4.60576e-05 -9.45198e-06)
(2.65757e-05 5.15386e-05 -1.00103e-05)
(3.43072e-05 5.87722e-05 -1.10888e-05)
(4.25751e-05 6.78926e-05 -1.27852e-05)
(5.19285e-05 7.94549e-05 -1.52259e-05)
(6.41823e-05 9.44822e-05 -1.84678e-05)
(7.77952e-05 0.000116765 -2.26709e-05)
(9.48996e-05 0.000147441 -2.75135e-05)
(9.92163e-05 0.00019777 -3.35472e-05)
(8.80006e-05 0.000235276 -3.92702e-05)
(7.51518e-05 0.000266434 -4.43993e-05)
(6.01393e-05 0.000289347 -4.8661e-05)
(4.50408e-05 0.000307428 -5.16262e-05)
(2.8506e-05 0.00031947 -5.36176e-05)
(1.15742e-05 0.000325757 -5.46423e-05)
(-5.68858e-06 0.00032602 -5.46977e-05)
(-2.25764e-05 0.000320255 -5.37834e-05)
(-3.90225e-05 0.000308725 -5.18992e-05)
(-5.3965e-05 0.000291134 -4.90388e-05)
(-6.87554e-05 0.000268708 -4.48743e-05)
(-8.12401e-05 0.00023802 -3.98393e-05)
(-9.20167e-05 0.000201104 -3.42058e-05)
(-8.69787e-05 0.000151394 -2.82699e-05)
(-6.92288e-05 0.000121991 -2.35595e-05)
(-5.51337e-05 0.000100736 -1.95492e-05)
(-4.20364e-05 8.6851e-05 -1.65936e-05)
(-3.14084e-05 7.66011e-05 -1.4597e-05)
(-2.12017e-05 6.91791e-05 -1.34855e-05)
(-1.12234e-05 6.41081e-05 -1.27954e-05)
(-7.19918e-07 6.06731e-05 -1.07373e-05)
(2.89479e-06 5.58064e-05 -3.88234e-06)
(-1.39544e-06 4.24596e-05 -2.49123e-06)
(3.14534e-06 4.67284e-05 -8.1225e-06)
(1.38642e-05 4.99695e-05 -9.80866e-06)
(2.39582e-05 5.49101e-05 -1.02308e-05)
(3.38152e-05 6.20621e-05 -1.09438e-05)
(4.35359e-05 7.141e-05 -1.23406e-05)
(5.41359e-05 8.29775e-05 -1.45791e-05)
(6.66424e-05 9.70699e-05 -1.79048e-05)
(8.47712e-05 0.000114974 -2.23669e-05)
(0.000107014 0.000142337 -2.81132e-05)
(0.000141664 0.000184948 -3.41842e-05)
(0.000150812 0.000273177 -4.28938e-05)
(0.000127509 0.00033017 -5.10239e-05)
(0.00010625 0.000375045 -5.87962e-05)
(8.37985e-05 0.000407139 -6.53957e-05)
(6.25304e-05 0.000432875 -6.94806e-05)
(3.91579e-05 0.000450035 -7.22324e-05)
(1.53817e-05 0.000459007 -7.36345e-05)
(-8.89981e-06 0.000459362 -7.37028e-05)
(-3.26428e-05 0.00045109 -7.24364e-05)
(-5.59515e-05 0.000434607 -6.98148e-05)
(-7.70907e-05 0.000409492 -6.58555e-05)
(-9.93514e-05 0.00037797 -5.93654e-05)
(-0.00012021 0.000333567 -5.16942e-05)
(-0.000143027 0.00027715 -4.36521e-05)
(-0.000132739 0.000189421 -3.50213e-05)
(-9.71967e-05 0.000148793 -2.90876e-05)
(-7.46043e-05 0.000122593 -2.35405e-05)
(-5.54942e-05 0.00010594 -1.93938e-05)
(-4.14267e-05 9.3279e-05 -1.6574e-05)
(-2.83758e-05 8.36543e-05 -1.50168e-05)
(-1.57746e-05 7.69144e-05 -1.40889e-05)
(-2.43969e-06 7.24125e-05 -1.16415e-05)
(2.69045e-06 6.63984e-05 -3.93143e-06)
(-9.47677e-07 4.79164e-05 -2.37842e-06)
(5.03187e-06 5.28087e-05 -8.78318e-06)
(1.82543e-05 5.68386e-05 -1.072e-05)
(3.08604e-05 6.31196e-05 -1.12461e-05)
(4.3201e-05 7.22714e-05 -1.21717e-05)
(5.53388e-05 8.41979e-05 -1.39974e-05)
(6.83491e-05 9.86717e-05 -1.69688e-05)
(8.37067e-05 0.000115097 -2.15296e-05)
(0.000107396 0.000134038 -2.75802e-05)
(0.000140371 0.000163843 -3.55765e-05)
(0.000210488 0.000215129 -3.94519e-05)
(0.000230868 0.000376313 -4.97889e-05)
(0.000182837 0.000458163 -6.13012e-05)
(0.000149491 0.000518156 -7.34035e-05)
(0.000117151 0.000560812 -8.37332e-05)
(8.76236e-05 0.000595477 -8.89502e-05)
(5.45029e-05 0.000618809 -9.24929e-05)
(2.08587e-05 0.000631047 -9.42835e-05)
(-1.35715e-05 0.000631526 -9.43684e-05)
(-4.72041e-05 0.000620231 -9.27467e-05)
(-8.03139e-05 0.000597801 -8.93643e-05)
(-0.000109793 0.000563936 -8.43027e-05)
(-0.000142066 0.000521945 -7.41012e-05)
(-0.000175078 0.000462346 -6.21154e-05)
(-0.000222738 0.000380954 -5.0719e-05)
(-0.000200373 0.000219744 -4.03898e-05)
(-0.000128943 0.000171975 -3.6648e-05)
(-9.612e-05 0.000143265 -2.88591e-05)
(-7.12718e-05 0.000125516 -2.31668e-05)
(-5.39747e-05 0.000110496 -1.91867e-05)
(-3.78167e-05 9.81153e-05 -1.70124e-05)
(-2.18902e-05 8.92205e-05 -1.57541e-05)
(-4.98447e-06 8.33861e-05 -1.28332e-05)
(2.16261e-06 7.6158e-05 -3.88425e-06)
(-3.83023e-07 5.23087e-05 -2.2455e-06)
(7.41684e-06 5.77838e-05 -9.55888e-06)
(2.37828e-05 6.27434e-05 -1.18114e-05)
(3.95938e-05 7.07157e-05 -1.24711e-05)
(5.51483e-05 8.25967e-05 -1.36562e-05)
(7.03368e-05 9.84072e-05 -1.59883e-05)
(8.57798e-05 0.000117767 -1.9827e-05)
(0.000102589 0.000137716 -2.58457e-05)
(0.000129751 0.000156855 -3.43818e-05)
(0.000166729 0.000174563 -4.35843e-05)
(0.000303132 0.000187013 -5.03626e-05)
(0.000349914 0.000491946 -5.10052e-05)
(0.00024967 0.000607369 -6.37012e-05)
(0.000203561 0.000687015 -8.17509e-05)
(0.000160563 0.00074569 -9.67296e-05)
(0.00012075 0.000793915 -0.000102609)
(7.49898e-05 0.000826636 -0.000106982)
(2.82023e-05 0.000843627 -0.00010913)
(-1.98117e-05 0.000844267 -0.000109228)
(-6.6621e-05 0.000828542 -0.000107277)
(-0.000112457 0.000797044 -0.000103087)
(-0.000152377 0.000749906 -9.73872e-05)
(-0.000195599 0.000692083 -8.25475e-05)
(-0.0002416 0.000612788 -6.46453e-05)
(-0.00034211 0.000497397 -5.20918e-05)
(-0.000291666 0.000190196 -5.16689e-05)
(-0.000153248 0.000184293 -4.48298e-05)
(-0.000117818 0.000167623 -3.57686e-05)
(-8.91245e-05 0.000149537 -2.76591e-05)
(-6.98309e-05 0.000130845 -2.2312e-05)
(-5.02927e-05 0.000113634 -1.94139e-05)
(-3.00891e-05 0.00010123 -1.77714e-05)
(-8.52514e-06 9.33262e-05 -1.4263e-05)
(1.36416e-06 8.48098e-05 -3.77218e-06)
(3.69874e-07 5.52083e-05 -2.06721e-06)
(1.04865e-05 6.11236e-05 -1.04342e-05)
(3.08699e-05 6.69352e-05 -1.30627e-05)
(5.10521e-05 7.65723e-05 -1.38812e-05)
(7.14127e-05 9.13549e-05 -1.53642e-05)
(9.16987e-05 0.000111797 -1.82474e-05)
(0.000110692 0.000137694 -2.29152e-05)
(0.000128576 0.000163936 -3.08516e-05)
(0.000145626 0.000178769 -4.05841e-05)
(0.000120361 0.000125668 -5.83946e-05)
(0.000368267 0.000185261 -6.67654e-05)
(0.000507465 0.000726488 -3.39033e-05)
(0.000328058 0.000808638 -4.4879e-05)
(0.000280421 0.000876034 -6.52626e-05)
(0.000227016 0.000946827 -8.21963e-05)
(0.00017163 0.00100414 -8.55967e-05)
(0.00010628 0.00104545 -8.91179e-05)
(3.92237e-05 0.00106677 -9.08599e-05)
(-2.93124e-05 0.0010676 -9.09488e-05)
(-9.64126e-05 0.00104794 -8.93857e-05)
(-0.000161919 0.00100825 -8.60183e-05)
(-0.000217606 0.000952428 -8.27956e-05)
(-0.000271652 0.000882814 -6.59832e-05)
(-0.000319886 0.000815647 -4.57462e-05)
(-0.000502669 0.000731021 -3.52078e-05)
(-0.000357045 0.00018837 -6.86051e-05)
(-0.000104874 0.000141593 -5.93126e-05)
(-0.000133685 0.000193226 -4.19033e-05)
(-0.000114405 0.000177582 -3.28396e-05)
(-9.33235e-05 0.00015185 -2.57171e-05)
(-6.9035e-05 0.000127907 -2.21769e-05)
(-4.21773e-05 0.000111096 -2.01425e-05)
(-1.38864e-05 0.000100852 -1.59177e-05)
(2.39855e-08 9.12402e-05 -3.52407e-06)
(1.21237e-06 5.63208e-05 -1.87836e-06)
(1.39872e-05 6.25459e-05 -1.14064e-05)
(3.90237e-05 6.91535e-05 -1.44725e-05)
(6.45329e-05 8.05579e-05 -1.54938e-05)
(9.13584e-05 9.90019e-05 -1.73392e-05)
(0.000119538 0.00012696 -2.07023e-05)
(0.000146803 0.000168288 -2.58477e-05)
(0.00016784 0.000225716 -3.20812e-05)
(0.00014287 0.000299071 -4.68198e-05)
(0.000148493 0.000342249 -6.76568e-05)
(0.000240929 0.000645373 5.42858e-05)
(0.00028777 0.000838073 2.05243e-05)
(0.000342 0.000970614 1.07105e-05)
(0.000303245 0.00108804 1.22685e-05)
(0.000230463 0.00117142 9.44265e-06)
(0.00014429 0.00122726 7.07422e-06)
(5.26389e-05 0.00125468 6.12189e-06)
(-4.06934e-05 0.00125563 6.12373e-06)
(-0.000132407 0.00123015 7.0769e-06)
(-0.000218787 0.00117631 9.45401e-06)
(-0.000292022 0.00109505 1.22803e-05)
(-0.000331996 0.000979891 1.07754e-05)
(-0.000280671 0.000849516 2.02916e-05)
(-0.000236288 0.000657344 5.32387e-05)
(-0.000144909 0.000354442 -6.63469e-05)
(-0.000136763 0.000312577 -4.78154e-05)
(-0.000155711 0.000239059 -3.42678e-05)
(-0.000129023 0.000182367 -2.90431e-05)
(-9.45727e-05 0.000143128 -2.52652e-05)
(-5.78408e-05 0.000119036 -2.29583e-05)
(-2.06822e-05 0.000105582 -1.7881e-05)
(-1.60652e-06 9.47577e-05 -3.28629e-06)
(2.26204e-06 5.52053e-05 -1.65633e-06)
(1.81547e-05 6.13457e-05 -1.24258e-05)
(4.88006e-05 6.79922e-05 -1.59518e-05)
(8.16002e-05 7.9555e-05 -1.71959e-05)
(0.000119306 9.84108e-05 -1.94744e-05)
(0.00016593 0.000127439 -2.35877e-05)
(0.000226822 0.000171564 -2.97983e-05)
(0.000315287 0.000236394 -3.62777e-05)
(0.000428779 0.000328953 -4.11168e-05)
(0.000661356 0.000441379 -3.04232e-05)
(0.000682696 0.000135312 3.82697e-05)
(0.000551236 0.00030596 4.14311e-05)
(0.000621217 0.000633315 0.000111384)
(0.000561513 0.000829566 0.000168791)
(0.000454841 0.000972459 0.000202362)
(0.000327589 0.00106827 0.000214435)
(0.000198972 0.00112826 0.000219008)
(7.07395e-05 0.00115698 0.000220683)
(-5.66614e-05 0.00115786 0.000220752)
(-0.000184842 0.00113096 0.000219216)
(-0.000313379 0.00107288 0.000214803)
(-0.000440451 0.000979197 0.000202936)
(-0.000546965 0.000838794 0.000169781)
(-0.000606341 0.000645426 0.000112811)
(-0.000534394 0.000320776 4.37825e-05)
(-0.000671488 0.000139004 4.0147e-05)
(-0.000656035 0.000446648 -2.98447e-05)
(-0.000419446 0.000338759 -4.21015e-05)
(-0.000301856 0.000247979 -3.84084e-05)
(-0.000207538 0.000184722 -3.33385e-05)
(-0.000138333 0.000143017 -2.88695e-05)
(-8.1343e-05 0.00011799 -2.61128e-05)
(-3.06599e-05 0.00010421 -2.0085e-05)
(-4.2496e-06 9.34085e-05 -2.93787e-06)
(3.11752e-06 5.18275e-05 -1.46112e-06)
(2.17313e-05 5.74638e-05 -1.33989e-05)
(5.71832e-05 6.33221e-05 -1.73832e-05)
(9.56519e-05 7.32523e-05 -1.88721e-05)
(0.000140674 8.88056e-05 -2.16046e-05)
(0.000197332 0.000111212 -2.65459e-05)
(0.000271932 0.000141576 -3.39886e-05)
(0.000377448 0.000178735 -4.27435e-05)
(0.000511624 0.000213944 -4.96895e-05)
(0.000716637 0.000231004 -4.69988e-05)
(0.000811864 0.000125698 -2.59223e-05)
(0.00082314 0.000291399 7.53563e-06)
(0.000823116 0.000469153 0.00012308)
(0.000705289 0.000600227 0.0001919)
(0.000560367 0.000703013 0.000228254)
(0.000397986 0.000773614 0.000243612)
(0.000239399 0.000818869 0.000249343)
(8.4312e-05 0.000840866 0.000251272)
(-6.85957e-05 0.000841593 0.000251333)
(-0.000223594 0.000821059 0.000249528)
(-0.000382025 0.000777302 0.000243943)
(-0.000544108 0.000708232 0.000228789)
(-0.000688852 0.000606981 0.000192866)
(-0.000806491 0.000477056 0.000124582)
(-0.000806751 0.000299548 1.03168e-05)
(-0.000799457 0.000129756 -2.42494e-05)
(-0.000707604 0.00023856 -4.66465e-05)
(-0.000501067 0.000223276 -5.06425e-05)
(-0.000362941 0.000189462 -4.49752e-05)
(-0.000251036 0.000153891 -3.78584e-05)
(-0.000167008 0.000125935 -3.24532e-05)
(-9.82874e-05 0.000107339 -2.91078e-05)
(-3.79087e-05 9.64643e-05 -2.21242e-05)
(-5.97551e-06 8.70242e-05 -2.68725e-06)
(3.87102e-06 4.65907e-05 -1.27083e-06)
(2.48557e-05 5.15425e-05 -1.42528e-05)
(6.44688e-05 5.64249e-05 -1.86324e-05)
(0.000107624 6.4505e-05 -2.03098e-05)
(0.000158237 7.67917e-05 -2.3392e-05)
(0.000221558 9.37609e-05 -2.9015e-05)
(0.000303734 0.000115343 -3.76301e-05)
(0.000415776 0.000140283 -4.8851e-05)
(0.000554546 0.000162713 -6.0003e-05)
(0.000735017 0.00017946 -6.58111e-05)
(0.000863919 0.000155482 -5.27786e-05)
(0.000948825 0.000239048 -7.30756e-06)
(0.000943969 0.000343104 0.000111226)
(0.000804941 0.000430623 0.000176291)
(0.000635226 0.000501953 0.000209619)
(0.000448015 0.000551279 0.000220289)
(0.000268645 0.00058365 0.000223168)
(9.42187e-05 0.000599534 0.000223687)
(-7.716e-05 0.00060014 0.000223721)
(-0.000251484 0.000585465 0.000223271)
(-0.000430679 0.000554303 0.000220483)
(-0.00061758 0.000506158 0.000209957)
(-0.000787226 0.000435957 0.000177006)
(-0.000926329 0.000349285 0.000112455)
(-0.000932867 0.000245772 -4.73019e-06)
(-0.000851452 0.000160853 -5.13574e-05)
(-0.000724389 0.00018632 -6.53345e-05)
(-0.000542695 0.000170892 -6.08927e-05)
(-0.000399906 0.000149823 -5.11415e-05)
(-0.00028106 0.000126455 -4.17542e-05)
(-0.0001885 0.000107156 -3.54123e-05)
(-0.00011168 9.3611e-05 -3.15726e-05)
(-4.37201e-05 8.53514e-05 -2.37995e-05)
(-7.39164e-06 7.73479e-05 -2.3944e-06)
(4.40412e-06 3.98185e-05 -1.13153e-06)
(2.71934e-05 4.39064e-05 -1.49755e-05)
(6.99574e-05 4.76577e-05 -1.96823e-05)
(0.000116391 5.36928e-05 -2.15103e-05)
(0.000170482 6.25955e-05 -2.48635e-05)
(0.000237259 7.43927e-05 -3.10024e-05)
(0.000322603 8.85874e-05 -4.0474e-05)
(0.000436115 0.000104341 -5.32498e-05)
(0.0005759 0.000118358 -6.667e-05)
(0.0007491 0.0001322 -7.55142e-05)
(0.000897228 0.000135637 -6.33005e-05)
(0.0010186 0.000184894 -2.04255e-05)
(0.00101587 0.000248113 9.57184e-05)
(0.000865487 0.000302675 0.000154665)
(0.000682518 0.000348537 0.000183291)
(0.000480921 0.000381482 0.000189774)
(0.000288372 0.000403629 0.00019023)
(0.000101034 0.000414694 0.000189536)
(-8.28744e-05 0.000415218 0.000189548)
(-0.000270127 0.00040519 0.000190262)
(-0.000462541 0.000384045 0.000189846)
(-0.000663891 0.000352032 0.000183453)
(-0.000846935 0.000307011 0.000155155)
(-0.000997529 0.000253077 9.67066e-05)
(-0.00100253 0.000190399 -1.80391e-05)
(-0.000884419 0.000140904 -6.19805e-05)
(-0.000737364 0.000138438 -7.50833e-05)
(-0.000562926 0.000125569 -6.76044e-05)
(-0.000418959 0.000112678 -5.5648e-05)
(-0.000298239 9.83096e-05 -4.4824e-05)
(-0.000201719 8.60917e-05 -3.77873e-05)
(-0.00012031 7.71466e-05 -3.356e-05)
(-4.73772e-05 7.14569e-05 -2.51636e-05)
(-8.16858e-06 6.51409e-05 -2.23437e-06)
(4.78691e-06 3.19917e-05 -1.03061e-06)
(2.89145e-05 3.51757e-05 -1.55512e-05)
(7.40224e-05 3.79041e-05 -2.05082e-05)
(0.000122798 4.21999e-05 -2.24429e-05)
(0.000179225 4.84341e-05 -2.59867e-05)
(0.000248111 5.65396e-05 -3.24854e-05)
(0.000335199 6.61136e-05 -4.25443e-05)
(0.000449337 7.6794e-05 -5.63018e-05)
(0.000589913 8.703e-05 -7.10654e-05)
(0.000762368 9.88253e-05 -8.15843e-05)
(0.000921869 0.000109344 -6.98251e-05)
(0.00106096 0.000140452 -2.8726e-05)
(0.00106056 0.000179205 8.62169e-05)
(0.000905024 0.000214272 0.000141892)
(0.000714216 0.000244418 0.000167864)
(0.000503419 0.000266609 0.000171924)
(0.000302066 0.000281748 0.000170913)
(0.000105878 0.000289453 0.000169494)
(-8.67249e-05 0.00028994 0.000169494)
(-0.000282858 0.000283191 0.00017091)
(-0.00048414 0.000268954 0.000171935)
(-0.000694782 0.000247571 0.000167936)
(-0.000885807 0.000218117 0.000142263)
(-0.00104169 0.000183566 8.70625e-05)
(-0.00104461 0.000145234 -2.64963e-05)
(-0.000908645 0.000114241 -6.86003e-05)
(-0.000749862 0.000104351 -8.12087e-05)
(-0.000576071 9.32247e-05 -7.2069e-05)
(-0.000431101 8.38402e-05 -5.88089e-05)
(-0.000309398 7.4254e-05 -4.7082e-05)
(-0.000210508 6.62318e-05 -3.95696e-05)
(-0.000126142 6.03086e-05 -3.507e-05)
(-4.97968e-05 5.64431e-05 -2.62153e-05)
(-8.65121e-06 5.16423e-05 -2.13307e-06)
(5.02206e-06 2.34462e-05 -9.78568e-07)
(3.00491e-05 2.56836e-05 -1.59848e-05)
(7.6746e-05 2.74592e-05 -2.11187e-05)
(0.000127062 3.02048e-05 -2.31245e-05)
(0.000184971 3.41633e-05 -2.67919e-05)
(0.000255148 3.92886e-05 -3.35167e-05)
(0.000343341 4.53725e-05 -4.39299e-05)
(0.000458144 5.23541e-05 -5.82278e-05)
(0.000599941 5.96952e-05 -7.36822e-05)
(0.00077378 6.88822e-05 -8.49711e-05)
(0.000939704 7.91229e-05 -7.3604e-05)
(0.00108761 9.85912e-05 -3.33361e-05)
(0.00108875 0.000122234 8.16543e-05)
(0.000930316 0.000144004 0.000136179)
(0.000734828 0.000162879 0.000161104)
(0.000518359 0.000177115 0.000164131)
(0.000311307 0.000186957 0.000162493)
(0.000109261 0.000192093 0.00016076)
(-8.91653e-05 0.000192573 0.000160756)
(-0.000291199 0.000188371 0.000162478)
(-0.000498265 0.000179389 0.000164121)
(-0.0007147 0.000165896 0.000161142)
(-0.000910556 0.00014761 0.000136501)
(-0.00106947 0.000126252 8.24366e-05)
(-0.001071 0.00010289 -3.11919e-05)
(-0.000926151 8.35479e-05 -7.24575e-05)
(-0.000760768 7.36538e-05 -8.46682e-05)
(-0.000585488 6.48628e-05 -7.47697e-05)
(-0.000439117 5.80652e-05 -6.08434e-05)
(-0.000316472 5.18141e-05 -4.86258e-05)
(-0.000216026 4.6776e-05 -4.08324e-05)
(-0.000129784 4.31073e-05 -3.61636e-05)
(-5.12401e-05 4.06842e-05 -2.69976e-05)
(-8.88648e-06 3.73707e-05 -2.11364e-06)
(5.14563e-06 1.45128e-05 -9.67823e-07)
(3.06987e-05 1.58e-05 -1.62758e-05)
(7.83398e-05 1.67044e-05 -2.15166e-05)
(0.000129576 1.80787e-05 -2.35625e-05)
(0.000188385 2.0085e-05 -2.72993e-05)
(0.000259397 2.27465e-05 -3.41501e-05)
(0.000348407 2.60547e-05 -4.47579e-05)
(0.000463957 3.00999e-05 -5.93379e-05)
(0.000606936 3.48625e-05 -7.51389e-05)
(0.000782294 4.10063e-05 -8.67858e-05)
(0.0009516 4.84124e-05 -7.55888e-05)
(0.00110357 5.9219e-05 -3.55088e-05)
(0.00110548 7.16389e-05 7.99164e-05)
(0.000945451 8.31911e-05 0.00013428)
(0.000747284 9.31863e-05 0.000158953)
(0.000527534 0.000100919 0.000161662)
(0.000317079 0.000106347 0.00015982)
(0.000111509 0.000109324 0.000157983)
(-9.04596e-05 0.000109825 0.000157978)
(-0.000296074 0.000107817 0.000159804)
(-0.000506651 0.000103264 0.000161648)
(-0.000726521 9.62572e-05 0.000158983)
(-0.000925238 8.67818e-05 0.000134585)
(-0.00108593 7.55418e-05 8.0667e-05)
(-0.00108682 6.32304e-05 -3.34259e-05)
(-0.000937901 5.24049e-05 -7.4514e-05)
(-0.000769049 4.50688e-05 -8.6559e-05)
(-0.00059217 3.90316e-05 -7.63103e-05)
(-0.000444487 3.4478e-05 -6.20518e-05)
(-0.00032091 3.07538e-05 -4.95806e-05)
(-0.000219366 2.79401e-05 -4.16353e-05)
(-0.000131932 2.59857e-05 -3.68733e-05)
(-5.20609e-05 2.47067e-05 -2.75213e-05)
(-9.0003e-06 2.28035e-05 -2.13895e-06)
(5.16677e-06 5.44622e-06 -9.98909e-07)
(3.08972e-05 5.77677e-06 -1.64278e-05)
(7.88753e-05 5.82965e-06 -2.1708e-05)
(0.000130466 5.87714e-06 -2.37667e-05)
(0.000189669 6.00642e-06 -2.75254e-05)
(0.000261141 6.31534e-06 -3.44161e-05)
(0.000350728 6.98324e-06 -4.50851e-05)
(0.000467015 8.21051e-06 -5.97495e-05)
(0.000610948 1.0372e-05 -7.56516e-05)
(0.000787413 1.33635e-05 -8.73998e-05)
(0.000957874 1.74333e-05 -7.62518e-05)
(0.00111065 2.06479e-05 -3.61447e-05)
(0.00111254 2.30415e-05 7.96197e-05)
(0.000951778 2.52542e-05 0.000134177)
(0.000752529 2.70078e-05 0.000158937)
(0.000531529 2.86287e-05 0.000161672)
(0.000319722 2.98987e-05 0.000159835)
(0.000112745 3.0852e-05 0.000157998)
(-9.0677e-05 3.14053e-05 0.000157994)
(-0.000297769 3.15229e-05 0.000159818)
(-0.000509836 3.12009e-05 0.000161655)
(-0.000731158 3.03436e-05 0.00015896)
(-0.000931192 2.90796e-05 0.000134467)
(-0.00109285 2.70713e-05 8.0336e-05)
(-0.00109395 2.45693e-05 -3.41338e-05)
(-0.000944263 2.10964e-05 -7.52606e-05)
(-0.000774221 1.68131e-05 -8.72618e-05)
(-0.000596184 1.36319e-05 -7.69108e-05)
(-0.000447477 1.13228e-05 -6.25552e-05)
(-0.000323081 9.98084e-06 -5.00076e-05)
(-0.000220844 9.23153e-06 -4.20154e-05)
(-0.000132805 8.86618e-06 -3.72244e-05)
(-5.23685e-05 8.66254e-06 -2.78008e-05)
(-9.02123e-06 8.16688e-06 -2.20642e-06)
(5.08733e-06 -3.48151e-06 -1.06981e-06)
(3.06461e-05 -4.10357e-06 -1.6441e-05)
(7.83533e-05 -4.92068e-06 -2.16942e-05)
(0.00012973 -6.24388e-06 -2.37397e-05)
(0.000188814 -8.07377e-06 -2.74746e-05)
(0.000260364 -1.02524e-05 -3.4322e-05)
(0.00035028 -1.24102e-05 -4.49236e-05)
(0.000467298 -1.4189e-05 -5.94825e-05)
(0.000612009 -1.46591e-05 -7.52504e-05)
(0.000789267 -1.45763e-05 -8.68578e-05)
(0.000958855 -1.29286e-05 -7.56595e-05)
(0.00110923 -1.72284e-05 -3.53684e-05)
(0.00111015 -2.55114e-05 8.05949e-05)
(0.000949436 -3.31275e-05 0.000135655)
(0.000750652 -4.00337e-05 0.000160809)
(0.000530415 -4.47327e-05 0.000163894)
(0.000319293 -4.77341e-05 0.000162256)
(0.000113012 -4.88274e-05 0.000160514)
(-8.97872e-05 -4.8179e-05 0.000160506)
(-0.00029627 -4.58286e-05 0.000162225)
(-0.000507822 -4.17237e-05 0.000163852)
(-0.000728638 -3.61458e-05 0.000160794)
(-0.000928533 -2.8737e-05 0.00013588)
(-0.0010905 -2.09994e-05 8.12315e-05)
(-0.00109284 -1.30964e-05 -3.34724e-05)
(-0.000945613 -9.40591e-06 -7.47855e-05)
(-0.000776416 -1.15835e-05 -8.68433e-05)
(-0.000597577 -1.21734e-05 -7.66275e-05)
(-0.000448091 -1.2208e-05 -6.23881e-05)
(-0.000322979 -1.09837e-05 -4.99276e-05)
(-0.000220458 -9.48947e-06 -4.19857e-05)
(-0.000132405 -8.13873e-06 -3.72249e-05)
(-5.21641e-05 -7.1999e-06 -2.78408e-05)
(-8.94993e-06 -6.28138e-06 -2.31447e-06)
(4.89489e-06 -1.2008e-05 -1.18506e-06)
(2.99113e-05 -1.35831e-05 -1.6317e-05)
(7.67046e-05 -1.53479e-05 -2.14745e-05)
(0.000127239 -1.82142e-05 -2.34781e-05)
(0.000185606 -2.23241e-05 -2.71395e-05)
(0.000256742 -2.75227e-05 -3.3852e-05)
(0.000346658 -3.32728e-05 -4.42413e-05)
(0.00046447 -3.89224e-05 -5.84618e-05)
(0.00061004 -4.24641e-05 -7.37843e-05)
(0.000788532 -4.47697e-05 -8.48833e-05)
(0.000954938 -4.24915e-05 -7.34491e-05)
(0.00109828 -5.53622e-05 -3.25127e-05)
(0.00109692 -7.74775e-05 8.38648e-05)
(0.000937361 -9.75747e-05 0.000140252)
(0.00074092 -0.000115308 0.000166479)
(0.000523786 -0.000127572 0.000170548)
(0.000315592 -0.000135557 0.000169478)
(0.000112286 -0.00013897 0.000168008)
(-8.76699e-05 -0.000138165 0.000167987)
(-0.000291284 -0.000133184 0.000169407)
(-0.000500115 -0.000123813 0.000170436)
(-0.000718171 -0.000110424 0.000166363)
(-0.000916148 -9.20927e-05 0.000140343)
(-0.00107747 -7.18997e-05 8.43406e-05)
(-0.00108253 -5.05471e-05 -3.08163e-05)
(-0.000942425 -3.88501e-05 -7.27533e-05)
(-0.000776353 -4.2008e-05 -8.50472e-05)
(-0.000596274 -4.05372e-05 -7.53087e-05)
(-0.000445972 -3.7847e-05 -6.14813e-05)
(-0.000320187 -3.31832e-05 -4.9313e-05)
(-0.000217878 -2.86747e-05 -4.15314e-05)
(-0.000130516 -2.50809e-05 -3.68663e-05)
(-5.13378e-05 -2.27135e-05 -2.76398e-05)
(-8.75351e-06 -2.03003e-05 -2.47405e-06)
(4.55665e-06 -1.98049e-05 -1.35164e-06)
(2.85983e-05 -2.22829e-05 -1.60589e-05)
(7.37289e-05 -2.50451e-05 -2.10508e-05)
(0.000122616 -2.96083e-05 -2.29813e-05)
(0.00017938 -3.63432e-05 -2.65097e-05)
(0.000249219 -4.52288e-05 -3.29675e-05)
(0.000338395 -5.56976e-05 -4.29354e-05)
(0.000456951 -6.67195e-05 -5.64201e-05)
(0.000603964 -7.45335e-05 -7.07086e-05)
(0.000786339 -7.91244e-05 -8.04604e-05)
(0.000946391 -6.85546e-05 -6.87794e-05)
(0.00107413 -9.27577e-05 -2.66501e-05)
(0.00106828 -0.00013708 9.09806e-05)
(0.000911715 -0.00017516 0.000150456)
(0.00072058 -0.000207661 0.000179123)
(0.000510031 -0.000229816 0.000185406)
(0.000307794 -0.000244127 0.00018563)
(0.000110365 -0.000250393 0.000184775)
(-8.39786e-05 -0.000249341 0.000184721)
(-0.000281834 -0.000240993 0.00018546)
(-0.000484941 -0.000224803 0.000185122)
(-0.000696849 -0.000201028 0.000178765)
(-0.000890097 -0.000167645 0.000150243)
(-0.00104923 -0.00012937 9.11305e-05)
(-0.00105955 -8.64244e-05 -2.53021e-05)
(-0.000935069 -6.44334e-05 -6.83715e-05)
(-0.000775136 -7.62179e-05 -8.09273e-05)
(-0.000591182 -7.27625e-05 -7.24748e-05)
(-0.000439534 -6.61622e-05 -5.96074e-05)
(-0.000313228 -5.65652e-05 -4.80816e-05)
(-0.000212032 -4.79165e-05 -4.0621e-05)
(-0.000126472 -4.1411e-05 -3.61352e-05)
(-4.95556e-05 -3.73015e-05 -2.71987e-05)
(-8.312e-06 -3.3395e-05 -2.72387e-06)