/*--------------------------------*- C++ -*----------------------------------*\
| =========                 |                                                 |
| \\      /  F ield         | OpenFOAM: The Open Source CFD Toolbox           |
|  \\    /   O peration     | Version:  2112                                  |
|   \\  /    A nd           | Website:  www.openfoam.com                      |
|    \\/     M anipulation  |                                                 |
\*---------------------------------------------------------------------------*/
FoamFile
{
    version     2.0;
    format      ascii;
    arch        "LSB;label=32;scalar=64";
    class       volScalarField;
    location    "3.6";
    object      epsilon;
}
// * * * * * * * * * * * * * * * * * * * * * * * * * * * * * * * * * * * * * //

dimensions      [0 2 -3 0 0 0 0];

internalField   nonuniform List<scalar> 
64906
(
0.000187185
0.00022016
0.000241252
0.000251652
0.000256332
0.0002583
0.000259074
0.000259353
0.000259436
0.000259442
0.000259421
0.000259399
0.000259381
0.000259364
0.00025935
0.000259336
0.000259323
0.000259312
0.000259307
0.000259313
0.000259325
0.000259338
0.000259351
0.000259364
0.000259373
0.000259367
0.000259299
0.00025904
0.000258284
0.000256328
0.000251657
0.000241264
0.000220177
0.000187198
0.000220182
0.000406375
0.000519913
0.000581003
0.000612222
0.000627175
0.000633775
0.000636368
0.000637159
0.000637196
0.000636967
0.000636694
0.000636482
0.000636352
0.000636285
0.000636248
0.000636226
0.000636214
0.000636214
0.000636226
0.000636249
0.000636284
0.000636341
0.000636434
0.000636529
0.000636456
0.000635744
0.000633315
0.000626902
0.000612109
0.000580999
0.000519967
0.000406437
0.00022022
0.000241313
0.000519969
0.000698367
0.000799752
0.000854591
0.000882349
0.00089517
0.000900242
0.000901529
0.000901117
0.000900116
0.000899121
0.000898393
0.000897976
0.000897778
0.000897679
0.000897623
0.000897597
0.0008976
0.000897633
0.000897693
0.000897789
0.000897961
0.000898283
0.000898724
0.000898916
0.000897848
0.000893323
0.000881158
0.000853977
0.000799546
0.000698385
0.000520071
0.000241379
0.00025174
0.000581122
0.000799826
0.000928857
0.00100121
0.00103895
0.00105652
0.00106292
0.00106343
0.00106115
0.00105801
0.0010552
0.00105322
0.00105212
0.00105159
0.00105131
0.00105112
0.00105104
0.00105104
0.00105114
0.00105133
0.00105161
0.00105209
0.00105303
0.00105454
0.00105609
0.00105608
0.00105113
0.00103534
0.000999187
0.000927975
0.000799603
0.000581193
0.000251827
0.000256438
0.000612387
0.000854735
0.0010013
0.00108524
0.00112942
0.00114922
0.00115454
0.00115156
0.00114447
0.00113648
0.00112991
0.00112552
0.00112321
0.00112217
0.00112153
0.00112108
0.00112085
0.00112086
0.0011211
0.00112156
0.00112219
0.00112317
0.00112527
0.00112904
0.00113397
0.00113796
0.00113605
0.0011205
0.00108008
0.00099884
0.000853879
0.000612298
0.000256532
0.000258415
0.000627368
0.000882568
0.00103918
0.00112963
0.00117651
0.00119514
0.00119547
0.00118417
0.00116687
0.00114933
0.00113631
0.00112827
0.00112451
0.00112306
0.00112193
0.00112102
0.00112054
0.00112055
0.00112104
0.00112196
0.00112308
0.00112448
0.001128
0.00113535
0.0011465
0.00115947
0.00116658
0.0011572
0.00111838
0.00103364
0.000880425
0.000626902
0.000258498
0.000259192
0.000633995
0.000895506
0.00105703
0.00114997
0.00119594
0.00120924
0.00119884
0.0011713
0.00113444
0.00109973
0.00107834
0.001067
0.00106293
0.00106206
0.00106051
0.00105901
0.00105821
0.00105822
0.00105903
0.00106055
0.00106211
0.00106291
0.00106677
0.00107742
0.00109688
0.00112676
0.00115276
0.00115834
0.00112825
0.00104625
0.000891148
0.000632839
0.000259234
0.000259469
0.000636636
0.000900802
0.00106404
0.00115655
0.00119842
0.0012018
0.00117308
0.00111692
0.00104374
0.000978422
0.000953976
0.000946322
0.000946666
0.000949033
0.000947625
0.000945745
0.000944769
0.00094478
0.000945777
0.000947677
0.000949094
0.000946692
0.00094618
0.000953251
0.000975893
0.00103638
0.00109837
0.00113185
0.00111898
0.00104552
0.000893193
0.000634446
0.000259435
0.000259551
0.000637525
0.000902519
0.00106573
0.00115611
0.00119172
0.00118129
0.0011258
0.00102279
0.000880029
0.000751845
0.000758856
0.000780105
0.000795629
0.000804925
0.000805311
0.000804168
0.000803523
0.000803534
0.000804201
0.000805366
0.000805
0.000795698
0.000780093
0.000758478
0.000750067
0.000873644
0.00100497
0.00108479
0.00109803
0.00103765
0.000890964
0.000634071
0.000259408
0.00025956
0.000637734
0.000902829
0.00106542
0.00115337
0.00118264
0.00115774
0.00107072
0.000899879
0.000622753
0.000356767
0.000496822
0.00060093
0.000645223
0.000662449
0.00066696
0.000667933
0.000668083
0.000668093
0.000667963
0.000667011
0.000662527
0.000645324
0.000601047
0.000496887
0.000356279
0.000618213
0.00088328
0.00103031
0.0010746
0.00102828
0.00088764
0.000633117
0.000259299
0.000259548
0.000637762
0.000902864
0.00106511
0.00115179
0.00117766
0.00114447
0.00103626
0.000804958
0.000373031
0.000303877
0.000477921
0.000542266
0.00056241
0.000569136
0.00057108
0.000571529
0.000571535
0.000571097
0.000569167
0.000562462
0.000542354
0.000478056
0.00030395
0.000371134
0.000789591
0.000996293
0.00106142
0.00102319
0.000885803
0.000632546
0.000259215
0.00025953
0.000637805
0.000903106
0.00106572
0.00115311
0.00118067
0.00115225
0.00105933
0.000880732
0.000597021
0.000339154
0.000433846
0.000517575
0.00055164
0.000561423
0.00056751
0.000569285
0.000569572
0.00056957
0.000569281
0.000567504
0.000561413
0.000551629
0.000517553
0.000433686
0.000338539
0.000592352
0.000864137
0.0010189
0.0010689
0.00102588
0.000886759
0.000632781
0.000259213
0.00025952
0.0006379
0.000903597
0.00106712
0.00115653
0.00118862
0.00117049
0.00110128
0.000977242
0.000806487
0.000646559
0.000601655
0.000581917
0.000575647
0.00057339
0.000573882
0.000573988
0.000573891
0.000573885
0.000573971
0.00057385
0.000573335
0.00057555
0.000581712
0.000601088
0.000644694
0.000800211
0.000959586
0.00106018
0.00108664
0.00103335
0.000889674
0.000633642
0.000259271
0.00025951
0.000638015
0.000904175
0.00106875
0.00116047
0.00119737
0.00118886
0.00113801
0.00104633
0.000922851
0.000794598
0.000697544
0.000628216
0.000596826
0.000585281
0.000581665
0.000580464
0.000580054
0.000580044
0.000580436
0.000581616
0.0005852
0.000596685
0.000627934
0.000696823
0.000792242
0.000915816
0.00102794
0.00109627
0.00110443
0.00104153
0.000893027
0.000634663
0.000259334
0.000259495
0.000638113
0.00090468
0.00107017
0.00116377
0.00120437
0.00120255
0.00116272
0.0010869
0.000980843
0.000859492
0.000744204
0.000653929
0.000610078
0.000593149
0.000587337
0.000585399
0.000584778
0.000584764
0.00058536
0.000587275
0.000593053
0.000609919
0.00065362
0.000743418
0.000856933
0.000973436
0.00106804
0.00112047
0.00111759
0.00104799
0.000895785
0.00063551
0.000259372
0.000259477
0.000638176
0.000905043
0.00107117
0.00116606
0.00120901
0.0012111
0.00117702
0.00110824
0.00100826
0.000887727
0.000765197
0.000666186
0.000616806
0.000597292
0.00059044
0.000588122
0.000587354
0.000587334
0.000588072
0.000590367
0.000597188
0.000616639
0.000665865
0.000764328
0.000885073
0.00100065
0.00108908
0.0011344
0.00112573
0.0010522
0.000897629
0.000636069
0.000259381
0.000259456
0.000638204
0.000905262
0.00107177
0.00116739
0.00121162
0.0012157
0.00118428
0.00111836
0.00102034
0.000899463
0.000773983
0.000671352
0.000619712
0.000599103
0.000591798
0.000589287
0.000588409
0.000588382
0.000589227
0.000591718
0.000598993
0.000619539
0.000671023
0.000773057
0.000896762
0.00101263
0.00109904
0.00114145
0.00113008
0.00105453
0.000898672
0.000636373
0.000259368
0.000259434
0.000638209
0.000905366
0.00107206
0.001168
0.00121278
0.00121767
0.00118727
0.00112233
0.00102485
0.000903667
0.000777094
0.00067318
0.000620743
0.000599738
0.000592257
0.000589654
0.000588693
0.000588658
0.000589584
0.000592171
0.000599623
0.000620567
0.000672847
0.000776161
0.000900949
0.0010171
0.00110294
0.00114433
0.00113192
0.00105555
0.000899134
0.000636495
0.000259343
0.000259417
0.0006382
0.000905377
0.00107208
0.00116805
0.00121284
0.00121775
0.00118737
0.00112245
0.00102499
0.000903812
0.000777228
0.000673272
0.000620797
0.000599759
0.000592252
0.000589617
0.000588609
0.000588565
0.000589541
0.000592161
0.000599641
0.000620619
0.000672941
0.0007763
0.000901102
0.00101725
0.00110307
0.00114444
0.001132
0.0010556
0.000899163
0.000636491
0.000259316
0.000259414
0.000638184
0.000905297
0.00107185
0.00116752
0.0012118
0.00121594
0.00118459
0.00111874
0.00102077
0.000899918
0.00077441
0.000671645
0.000619886
0.000599178
0.000591793
0.000589192
0.000588188
0.000588141
0.000589111
0.000591698
0.000599059
0.00061971
0.000671322
0.000773504
0.000897246
0.0010131
0.00109945
0.00114177
0.00113032
0.00105469
0.00089876
0.000636367
0.000259304
0.000259427
0.000638155
0.000905101
0.0010713
0.00116626
0.0012093
0.00121149
0.00117754
0.00110889
0.00100903
0.000888562
0.000765991
0.000666728
0.000617135
0.00059745
0.000590462
0.000588003
0.000587075
0.000587033
0.000587923
0.000590368
0.000597335
0.000616969
0.000666425
0.000765136
0.000885971
0.00100149
0.00108979
0.00113495
0.00112614
0.00105247
0.000897778
0.000636075
0.000259307
0.000259444
0.000638098
0.000904758
0.00107033
0.00116404
0.00120476
0.00120309
0.00116345
0.00108786
0.000982028
0.00086084
0.000745347
0.000654783
0.000610593
0.000593408
0.000587402
0.000585288
0.000584515
0.000584482
0.000585216
0.000587314
0.000593302
0.000610447
0.000654523
0.00074463
0.000858409
0.000974732
0.00106907
0.00112124
0.00111814
0.00104836
0.000895987
0.000635537
0.000259295
0.000259457
0.000638001
0.00090425
0.00106892
0.00116073
0.00119778
0.00118947
0.0011389
0.00104759
0.000924555
0.00079664
0.000699252
0.000629351
0.000597406
0.000585493
0.000581615
0.000580226
0.000579696
0.000579672
0.000580166
0.000581535
0.000585395
0.000597279
0.000629152
0.000698708
0.000794512
0.000917701
0.00102928
0.00109716
0.00110502
0.00104192
0.000893248
0.000634703
0.000259256
0.000259465
0.000637862
0.000903602
0.00106716
0.00115663
0.00118884
0.00117092
0.00110207
0.000978614
0.000808631
0.000649354
0.000603952
0.000582701
0.000575462
0.000572653
0.000572783
0.000572695
0.000572503
0.000572485
0.00057264
0.000572691
0.000572513
0.000575274
0.000582502
0.000603671
0.000647841
0.000802585
0.000960902
0.0010608
0.00108696
0.00103356
0.000889806
0.000633657
0.000259189
0.000259469
0.000637661
0.000902844
0.00106532
0.00115261
0.00118016
0.00115188
0.00105935
0.000881594
0.000599182
0.000340385
0.000434414
0.000515004
0.000547245
0.000555906
0.000561411
0.000562962
0.000563161
0.000563136
0.000562872
0.000561204
0.000555476
0.000546541
0.000514229
0.000434214
0.000339808
0.000594666
0.000864375
0.00101821
0.00106816
0.00102539
0.000886525
0.000632664
0.00025912
0.000259457
0.000637285
0.000901813
0.00106345
0.0011496
0.00117509
0.00114163
0.00103335
0.000802615
0.000372296
0.000298445
0.000463158
0.000521913
0.000538526
0.000543953
0.000545514
0.000545834
0.000545765
0.000545244
0.00054326
0.000536952
0.000518945
0.000459011
0.000295992
0.000369148
0.000784503
0.000991183
0.00105765
0.00102082
0.000884542
0.000632028
0.00025909
0.000259379
0.000636326
0.000899719
0.0010606
0.00114709
0.00117519
0.00114928
0.0010612
0.000889485
0.000612824
0.000349615
0.000466075
0.000551754
0.000579606
0.000586008
0.000587685
0.000588201
0.000588289
0.000588149
0.000587602
0.000585954
0.000581602
0.000570164
0.000535997
0.000450597
0.000342734
0.000598637
0.000864334
0.00101562
0.00106439
0.00102174
0.000883947
0.000631568
0.000259067
0.000259117
0.000633733
0.000894476
0.00105365
0.00114069
0.0011736
0.0011606
0.00110166
0.000993082
0.000841199
0.000697905
0.000673408
0.00065877
0.000637473
0.000624846
0.000619804
0.000618165
0.000617657
0.000617436
0.000617163
0.000616661
0.000616106
0.000616574
0.000619371
0.000629554
0.000660174
0.000806825
0.000956977
0.00105138
0.00107517
0.00102249
0.000881877
0.000630025
0.00025891
0.000258363
0.000627228
0.000881885
0.00103667
0.00112249
0.00115921
0.00115788
0.0011229
0.00105598
0.000963605
0.000866186
0.000792684
0.000724343
0.000664569
0.000635661
0.000624833
0.000621327
0.000620299
0.000620025
0.000620038
0.000620576
0.0006231
0.000632215
0.000658816
0.000719526
0.000802025
0.000911873
0.00101082
0.00106982
0.00107439
0.00101395
0.000872895
0.000624711
0.000258257
0.000256408
0.000612389
0.000854488
0.000999926
0.00108083
0.00111818
0.00112444
0.00110571
0.00106439
0.00100308
0.000928041
0.000847902
0.000764796
0.000692667
0.000657473
0.00064399
0.00063951
0.000638187
0.000637881
0.000638058
0.000639168
0.000643264
0.000656222
0.000691231
0.000765301
0.000855463
0.000946178
0.00101782
0.00105509
0.00104772
0.000984765
0.000848762
0.000610929
0.000256387
0.000251731
0.000581248
0.000799954
0.000928488
0.000999207
0.00103301
0.00104245
0.00103386
0.00100943
0.000969612
0.000915563
0.000850701
0.000781378
0.000721352
0.000689231
0.000675947
0.000671212
0.000669747
0.00066944
0.000669687
0.000671081
0.000675691
0.000688844
0.000721033
0.000782267
0.000854322
0.000921483
0.000970493
0.000992067
0.000978601
0.000919539
0.000796848
0.000580598
0.000251769
0.000241326
0.000520174
0.000698726
0.000800039
0.000854253
0.000880214
0.000888994
0.000886134
0.000873427
0.000850704
0.000817665
0.000775812
0.000730304
0.000690901
0.00066809
0.000657814
0.000653966
0.000652738
0.000652469
0.000652717
0.000653913
0.000657715
0.000667961
0.000690889
0.000730782
0.000777105
0.000818836
0.000847606
0.000857746
0.000843606
0.000795807
0.0006975
0.000520055
0.000241403
0.000220221
0.000406569
0.000520294
0.00058151
0.000612667
0.000627131
0.000632376
0.000632029
0.000627243
0.0006178
0.000603143
0.000583701
0.000562039
0.000542959
0.000531295
0.000525732
0.000523538
0.000522801
0.000522637
0.000522807
0.000523544
0.000525734
0.000531296
0.000543011
0.000562236
0.000584074
0.000603134
0.000615492
0.000618536
0.000608969
0.000580308
0.000520134
0.000406688
0.000220299
0.000187222
0.000220267
0.000241459
0.000251953
0.000256715
0.000258739
0.000259501
0.000259623
0.00025927
0.000258373
0.000256903
0.00025477
0.000252197
0.000249788
0.00024826
0.000247492
0.000247147
0.000246986
0.00024693
0.000246993
0.000247155
0.000247496
0.000248257
0.00024978
0.00025219
0.000254767
0.000256856
0.000258116
0.000258241
0.000256668
0.000252081
0.000241612
0.000220374
0.000187276
0.000249525
0.00036499
0.000441984
0.000483745
0.000504734
0.000514574
0.000518828
0.000520465
0.000520949
0.000520956
0.000520791
0.000520595
0.000520431
0.000520317
0.000520243
0.000520193
0.000520159
0.000520141
0.000520139
0.000520155
0.000520186
0.000520232
0.000520298
0.000520387
0.000520477
0.000520458
0.00052003
0.000518498
0.000514359
0.000504615
0.000483694
0.000441974
0.000364998
0.000249538
0.000364996
0.000453335
0.000539847
0.000591802
0.000619623
0.000633293
0.000639424
0.000641844
0.00064256
0.00064255
0.000642277
0.000641966
0.000641715
0.000641549
0.00064145
0.00064139
0.000641353
0.000641335
0.000641335
0.000641354
0.000641391
0.000641448
0.000641536
0.000641664
0.000641796
0.000641768
0.000641129
0.00063887
0.000632926
0.000619419
0.000591715
0.00053983
0.000453356
0.000365007
0.000442028
0.000539871
0.000645614
0.000712731
0.000750574
0.000770072
0.000779143
0.000782723
0.000783592
0.000783237
0.000782454
0.000781669
0.000781074
0.0007807
0.000780489
0.000780367
0.000780294
0.000780259
0.00078026
0.000780297
0.000780371
0.000780488
0.000780676
0.000780978
0.00078136
0.000781557
0.000780841
0.000777653
0.000769057
0.000749986
0.000712456
0.000645531
0.000539887
0.000442049
0.000483833
0.000591858
0.000712767
0.00079193
0.000837989
0.000862354
0.000873747
0.000877877
0.000878172
0.000876656
0.00087459
0.000872736
0.000871415
0.000870629
0.000870208
0.000869968
0.00086982
0.000869746
0.000869747
0.000869824
0.000869973
0.000870205
0.000870592
0.000871269
0.000872275
0.000873287
0.000873273
0.000870048
0.000859797
0.00083647
0.000791172
0.000712478
0.000591812
0.000483834
0.000504858
0.000619708
0.00075065
0.000838042
0.000889789
0.000917339
0.000929729
0.000933064
0.000931243
0.000926917
0.000922101
0.00091816
0.000915546
0.000914098
0.000913369
0.000912952
0.000912675
0.000912531
0.000912533
0.000912682
0.000912959
0.000913367
0.000914052
0.00091536
0.000917574
0.000920462
0.000922723
0.000921354
0.000911515
0.00088628
0.000836227
0.000749881
0.000619481
0.000504768
0.000514728
0.000633404
0.0007702
0.000862497
0.000917472
0.000946266
0.000957774
0.000958101
0.000951449
0.000941366
0.000931323
0.000923866
0.000919428
0.00091723
0.000916222
0.000915642
0.000915201
0.000914952
0.000914955
0.000915209
0.000915652
0.000916223
0.000917185
0.000919227
0.00092321
0.000929471
0.000936628
0.00094035
0.000934178
0.000910178
0.000858666
0.000768487
0.000632792
0.000514419
0.000519008
0.000639569
0.000779362
0.000874083
0.000930206
0.000958269
0.000966557
0.000960659
0.000944837
0.000924091
0.000905034
0.000892583
0.00088664
0.000884332
0.000883449
0.000882995
0.000882464
0.000882113
0.000882117
0.000882475
0.00088301
0.000883458
0.000884298
0.00088645
0.000891925
0.000903107
0.000919081
0.000933048
0.000935323
0.000916486
0.000866864
0.000776057
0.000638284
0.000518298
0.000520682
0.000642051
0.000783118
0.000878621
0.000934327
0.000959887
0.000962409
0.00094618
0.000914872
0.000875745
0.000842723
0.000824086
0.000819842
0.000819953
0.000820216
0.000820918
0.000820715
0.000820385
0.000820389
0.000820729
0.000820939
0.000820236
0.000819943
0.000819698
0.000823497
0.000840841
0.000870676
0.000902772
0.000920109
0.000911011
0.000866461
0.000777508
0.00063978
0.000519364
0.00052123
0.000642884
0.000784315
0.000879684
0.000934051
0.000955942
0.000950704
0.000920173
0.000865851
0.000798015
0.000752106
0.000718679
0.000725705
0.000734267
0.000736883
0.00074142
0.0007427
0.000742753
0.000742758
0.000742717
0.000741448
0.000736916
0.00073429
0.000725639
0.000718234
0.000750287
0.00079294
0.000853595
0.000893712
0.000898618
0.000861502
0.000775941
0.000639424
0.000519165
0.000521338
0.000643067
0.000784497
0.000879434
0.000932335
0.000950631
0.00093772
0.000892268
0.000812351
0.000717667
0.000830229
0.000591343
0.000621805
0.000647129
0.000651851
0.000664096
0.000668126
0.000668887
0.000668893
0.000668145
0.000664129
0.000651892
0.000647187
0.000621843
0.000591094
0.00082711
0.000712098
0.000799779
0.000865485
0.000885218
0.000855657
0.0007736
0.00063852
0.000518583
0.000521322
0.000643072
0.000784469
0.000879162
0.000931295
0.000947727
0.000930875
0.000878448
0.0007963
0.000901799
0.000604527
0.000536074
0.000569935
0.000588326
0.000591271
0.000591631
0.000591666
0.000591669
0.000591641
0.000591289
0.000588359
0.000569988
0.000536145
0.000604591
0.000890316
0.00078298
0.000851369
0.000878119
0.000852465
0.000772245
0.000637943
0.000518192
0.000521305
0.000643091
0.000784579
0.00087945
0.000931935
0.00094913
0.00093399
0.00088459
0.000798006
0.000690235
0.000744622
0.000537277
0.000586598
0.000625365
0.000659977
0.000641072
0.000633868
0.000632307
0.000632303
0.000633854
0.000641047
0.000659963
0.000625342
0.000586535
0.000536908
0.000741377
0.000684591
0.000785355
0.000857634
0.000881199
0.00085375
0.000772726
0.000638091
0.000518255
0.000521315
0.000643169
0.00078487
0.000880256
0.000933891
0.000953581
0.000943679
0.000904703
0.000836355
0.000746126
0.000666947
0.000608422
0.000599804
0.000599386
0.000604542
0.000598779
0.000596007
0.000595228
0.000595226
0.000595998
0.000598763
0.000604523
0.000599331
0.000599644
0.000607875
0.000665075
0.000740993
0.000823923
0.000877848
0.000890898
0.00085814
0.000774586
0.000638824
0.000518676
0.000521338
0.000643274
0.000785235
0.000881241
0.000936229
0.000958706
0.000954217
0.00092502
0.000872411
0.000801473
0.000726562
0.000664472
0.000625534
0.00060185
0.000592904
0.000588653
0.00058703
0.000586536
0.000586533
0.00058702
0.000588633
0.000592866
0.000601763
0.000625318
0.000663848
0.000724664
0.000796304
0.000859955
0.000898131
0.000901375
0.000863172
0.000776815
0.000639733
0.000519196
0.000521356
0.000643371
0.000785564
0.000882107
0.000938228
0.000962914
0.000962399
0.000939687
0.000896269
0.000835263
0.000764653
0.000697011
0.000645095
0.000610563
0.000595678
0.000590314
0.000588585
0.000588098
0.000588094
0.000588574
0.000590291
0.000595632
0.000610462
0.000644857
0.000696345
0.000762685
0.000830002
0.000883713
0.000912692
0.000909439
0.000867251
0.000778687
0.000640509
0.000519623
0.00052136
0.00064344
0.000785801
0.000882724
0.000939615
0.000965729
0.000967612
0.00094848
0.000909583
0.000852815
0.000783693
0.000713053
0.000655562
0.00061628
0.000598846
0.000592648
0.000590711
0.000590182
0.000590178
0.000590699
0.000592623
0.000598797
0.000616174
0.000655315
0.000712359
0.000781677
0.000847478
0.00089693
0.000921372
0.000914527
0.000869935
0.000779952
0.000641035
0.000519894
0.000521351
0.000643479
0.000785943
0.000883091
0.000940424
0.000967319
0.000970442
0.000953026
0.000916088
0.000860908
0.000792095
0.000720019
0.000660186
0.000618953
0.000600472
0.000593877
0.000591822
0.00059126
0.000591255
0.000591808
0.000593851
0.000600421
0.000618845
0.000659933
0.000719303
0.00079005
0.000855522
0.000903365
0.000925831
0.00091726
0.000871425
0.000780667
0.000641331
0.000520028
0.000521335
0.000643495
0.000786009
0.00088326
0.000940788
0.000968016
0.000971646
0.000954892
0.000918655
0.000863972
0.000795166
0.000722522
0.000661842
0.000619923
0.000601071
0.000594327
0.000592221
0.000591641
0.000591634
0.000592206
0.0005943
0.000601019
0.000619813
0.000661587
0.000721797
0.00079311
0.000858563
0.000905898
0.000927653
0.000918413
0.000872068
0.00078098
0.000641457
0.00052007
0.000521321
0.000643493
0.000786012
0.000883269
0.000940802
0.000968038
0.000971677
0.000954934
0.000918707
0.000864035
0.000795236
0.000722593
0.0006619
0.000619961
0.000601091
0.000594336
0.000592223
0.000591635
0.000591628
0.000592206
0.000594309
0.000601039
0.000619852
0.000661646
0.00072187
0.000793183
0.000858629
0.000905952
0.000927695
0.000918442
0.000872087
0.00078099
0.000641459
0.000520052
0.000521314
0.000643476
0.000785954
0.000883117
0.000940467
0.000967385
0.000970535
0.000953151
0.00091625
0.000861105
0.000792316
0.000720244
0.000660369
0.000619077
0.000600541
0.000593913
0.000591837
0.000591257
0.000591249
0.00059182
0.000593886
0.00060049
0.000618971
0.000660123
0.000719535
0.000790285
0.00085573
0.000903533
0.000925958
0.000917349
0.000871481
0.000780697
0.000641337
0.000519982
0.000521311
0.000643437
0.000785818
0.000882764
0.000939685
0.000965837
0.000967768
0.000948695
0.000909868
0.000853172
0.000784106
0.000713469
0.000655907
0.000616516
0.000598986
0.000592734
0.000590767
0.000590214
0.000590208
0.000590752
0.000592711
0.000598941
0.00061642
0.000655677
0.000712793
0.000782117
0.000847857
0.000897226
0.000921587
0.000914674
0.000870027
0.000780001
0.000641048
0.000519834
0.000521301
0.000643368
0.000785583
0.000882154
0.000938314
0.000963051
0.000962606
0.000939987
0.000896689
0.000835819
0.000765322
0.000697675
0.000645637
0.000610916
0.000595879
0.000590444
0.00058868
0.000588171
0.000588167
0.000588669
0.000590426
0.000595843
0.000610836
0.000645438
0.000697059
0.000763408
0.000830594
0.000884144
0.000912984
0.000909628
0.000867365
0.000778748
0.000640528
0.000519557
0.000521274
0.000643263
0.00078524
0.000881267
0.000936292
0.000958827
0.000954426
0.000925362
0.000872944
0.000802248
0.000727546
0.000665435
0.00062618
0.000602127
0.000592914
0.000588587
0.000586934
0.000586426
0.000586423
0.000586926
0.00058857
0.000592879
0.000602055
0.000626013
0.000664898
0.000725732
0.000797111
0.000860462
0.000898421
0.000901536
0.00086326
0.00077686
0.000639744
0.000519119
0.000521226
0.000643122
0.000784807
0.000880182
0.000933824
0.000953551
0.000943731
0.00090491
0.00083683
0.000747004
0.000668227
0.000609461
0.000599891
0.000598682
0.000603307
0.000597473
0.000594668
0.000593876
0.000593871
0.00059465
0.000597426
0.000603214
0.000598518
0.000599648
0.000608964
0.000666435
0.000741788
0.0008242
0.000877852
0.000890818
0.000858061
0.000774531
0.000638786
0.000518564
0.000521141
0.000642927
0.000784302
0.000879057
0.000931451
0.000948597
0.000933459
0.000884141
0.000797794
0.000690521
0.00074729
0.000536355
0.000583624
0.000620876
0.000654546
0.000635298
0.000627947
0.000626362
0.000626356
0.000627907
0.000635157
0.000654237
0.000620204
0.000582649
0.00053521
0.000744065
0.000684161
0.000784301
0.000856546
0.000880328
0.000853149
0.000772362
0.000637895
0.000518041
0.000520942
0.000642565
0.000783598
0.000877908
0.000929703
0.000945851
0.000928734
0.000875994
0.000793315
0.000895241
0.000582623
0.00051895
0.000548621
0.000563908
0.000565621
0.00056567
0.000565644
0.00056559
0.000565445
0.000564986
0.000562376
0.000545517
0.000513864
0.000573177
0.000877534
0.000777149
0.000847217
0.000875228
0.000850562
0.00077109
0.000637323
0.000517706
0.000520363
0.000641644
0.000782114
0.000876068
0.000928096
0.000945621
0.000931894
0.000885273
0.000803228
0.000703265
0.000787469
0.000555039
0.00057444
0.0005881
0.000585365
0.000593955
0.000597194
0.000597874
0.000597757
0.000596675
0.000592399
0.000581329
0.000579454
0.000560015
0.000536462
0.000755338
0.000686092
0.000784011
0.000854929
0.000878078
0.00085091
0.000770622
0.000636859
0.000517421
0.000518723
0.000639184
0.000778375
0.000871534
0.000923995
0.000944237
0.000937239
0.000904104
0.000845054
0.000768
0.000704598
0.000651027
0.000633381
0.000619299
0.000607336
0.000605301
0.000605006
0.000604862
0.000604667
0.000604117
0.000602509
0.000599794
0.00060266
0.0006068
0.000619318
0.00067396
0.000743527
0.000821257
0.00087189
0.00088353
0.000851055
0.000769038
0.000635347
0.000516392
0.000514517
0.000633117
0.000769437
0.000860483
0.000912513
0.000935068
0.000934614
0.000914219
0.000875625
0.000823325
0.000768366
0.000719588
0.000680518
0.000650874
0.000629033
0.000619978
0.000616968
0.000616064
0.000615805
0.000615753
0.000616039
0.00061804
0.000626469
0.0006467
0.000678603
0.000730523
0.000792734
0.000848325
0.000881154
0.000882331
0.000845273
0.000762582
0.000630368
0.000512883
0.000504734
0.000619543
0.000750185
0.000836744
0.000886472
0.000909686
0.000913716
0.000902515
0.000877994
0.00084218
0.000798949
0.000752947
0.000708461
0.000672961
0.000646971
0.000635293
0.000631138
0.000629857
0.000629556
0.000629739
0.000630811
0.00063463
0.000646011
0.000672014
0.000709449
0.000759128
0.000810105
0.000850478
0.000871058
0.000865254
0.000826267
0.000745585
0.000617773
0.000503721
0.000483786
0.000591801
0.000712572
0.000791284
0.000836154
0.00085785
0.00086394
0.000858571
0.000843445
0.000819251
0.000787018
0.000748925
0.000709152
0.000675168
0.000652228
0.000641364
0.000637212
0.000635853
0.000635544
0.000635818
0.000637116
0.000641175
0.000651981
0.000675118
0.00071013
0.000751851
0.00079102
0.00081957
0.000831676
0.000822248
0.000784656
0.000709782
0.000590796
0.000483253
0.00044204
0.000539891
0.000645612
0.000712553
0.000749817
0.00076789
0.000773961
0.000771894
0.000763121
0.000747778
0.000725879
0.00069849
0.000668923
0.000643093
0.000626084
0.000617677
0.000614284
0.00061312
0.000612854
0.00061312
0.000614277
0.000617654
0.000626071
0.000643222
0.000669486
0.000699659
0.000726804
0.000745465
0.000751748
0.000741613
0.000708837
0.000644145
0.000539416
0.000441833
0.000365039
0.000453393
0.000539946
0.000591887
0.000619505
0.000632545
0.000637211
0.000636678
0.000632037
0.000623221
0.000609922
0.000592598
0.000573452
0.000556531
0.000545537
0.000540021
0.000537736
0.00053693
0.000536745
0.000536944
0.000537761
0.000540054
0.00054559
0.000556655
0.00057374
0.00059304
0.00060994
0.000621017
0.000623822
0.000615333
0.000590141
0.000539326
0.000453226
0.000365015
0.000249563
0.000365038
0.000442111
0.000483935
0.000504876
0.000514407
0.000517812
0.000517601
0.000514551
0.000508502
0.000499082
0.000486496
0.000472372
0.000459898
0.000452189
0.00044846
0.000446928
0.000446376
0.000446246
0.00044639
0.000446952
0.00044849
0.000452228
0.000459971
0.000472533
0.00048674
0.000499045
0.00050698
0.00050886
0.000502415
0.000483026
0.000441859
0.000365005
0.000249611
0.000287999
0.000471345
0.000598034
0.000669848
0.000707785
0.000726501
0.000734989
0.000738382
0.000739388
0.000739347
0.000738911
0.000738404
0.00073798
0.000737686
0.0007375
0.000737382
0.000737309
0.000737272
0.000737271
0.000737306
0.000737377
0.000737487
0.000737652
0.000737885
0.000738128
0.000738135
0.000737262
0.000734116
0.000725906
0.00070743
0.000669666
0.000597957
0.000471327
0.000288013
0.000471346
0.000537455
0.000629451
0.000688877
0.000722396
0.000739615
0.000747656
0.000750944
0.000751943
0.00075192
0.000751514
0.000751043
0.000750654
0.000750389
0.000750225
0.000750126
0.000750067
0.000750039
0.000750039
0.000750068
0.000750125
0.000750219
0.000750362
0.000750565
0.000750769
0.000750734
0.000749845
0.000746785
0.000739015
0.000722038
0.000688699
0.000629386
0.000537449
0.000471324
0.000598081
0.000629467
0.000723084
0.000788665
0.000827838
0.000848927
0.000859108
0.000863251
0.000864283
0.000863856
0.000862894
0.000861906
0.000861131
0.000860618
0.000860311
0.000860132
0.000860028
0.000859978
0.000859978
0.000860029
0.000860132
0.000860301
0.000860574
0.000860987
0.000861478
0.000861721
0.000860865
0.00085718
0.000847569
0.000827006
0.000788232
0.000722909
0.000629428
0.000598028
0.000669957
0.000688922
0.000788695
0.000861323
0.000906092
0.000930785
0.000942727
0.000947186
0.000947544
0.000945911
0.000943638
0.000941547
0.000940002
0.000939021
0.000938456
0.00093814
0.000937955
0.000937865
0.000937866
0.000937956
0.000938139
0.000938442
0.000938959
0.000939797
0.000940951
0.000942044
0.000941958
0.00093844
0.000927724
0.000904182
0.00086029
0.000788232
0.000688764
0.0006698
0.000707953
0.000722475
0.000827911
0.000906147
0.000955114
0.000982217
0.000994795
0.000998332
0.000996593
0.00099226
0.000987368
0.000983259
0.000980434
0.000978721
0.000977761
0.000977266
0.00097697
0.000976818
0.000976819
0.000976973
0.000977266
0.000977745
0.000978645
0.00098018
0.000982521
0.000985413
0.000987487
0.000985807
0.000975753
0.000951035
0.000903886
0.000826827
0.000722024
0.000707524