/*--------------------------------*- C++ -*----------------------------------*\
| =========                 |                                                 |
| \\      /  F ield         | OpenFOAM: The Open Source CFD Toolbox           |
|  \\    /   O peration     | Version:  2112                                  |
|   \\  /    A nd           | Website:  www.openfoam.com                      |
|    \\/     M anipulation  |                                                 |
\*---------------------------------------------------------------------------*/
FoamFile
{
    version     2.0;
    format      ascii;
    arch        "LSB;label=32;scalar=64";
    class       volScalarField;
    location    "3.6";
    object      k;
}
// * * * * * * * * * * * * * * * * * * * * * * * * * * * * * * * * * * * * * //

dimensions      [0 2 -2 0 0 0 0];

internalField   nonuniform List<scalar> 
64906
(
0.000300382
0.000335019
0.00035634
0.000366676
0.00037131
0.000373266
0.00037404
0.00037432
0.000374404
0.000374409
0.000374387
0.000374364
0.000374344
0.000374328
0.000374313
0.000374299
0.000374286
0.000374275
0.000374271
0.000374277
0.000374288
0.000374301
0.000374314
0.000374328
0.000374337
0.000374332
0.000374263
0.000374004
0.000373248
0.000371306
0.00036668
0.000356352
0.000335036
0.000300397
0.000335042
0.000504819
0.000595457
0.000641656
0.000664765
0.000675766
0.000680629
0.000682547
0.000683134
0.000683159
0.000682984
0.000682776
0.000682614
0.000682513
0.000682461
0.000682431
0.000682414
0.000682405
0.000682405
0.000682414
0.000682432
0.000682459
0.000682504
0.000682576
0.00068265
0.000682597
0.000682069
0.000680274
0.000675552
0.000664672
0.000641647
0.000595496
0.00050487
0.000335081
0.000356401
0.0005955
0.000725535
0.000794688
0.000831046
0.000849259
0.000857658
0.000860989
0.000861834
0.000861557
0.000860886
0.000860217
0.000859723
0.000859438
0.000859299
0.00085923
0.00085919
0.000859172
0.000859174
0.000859196
0.000859238
0.000859306
0.000859426
0.000859647
0.000859946
0.000860079
0.000859378
0.000856409
0.000848443
0.000830615
0.000794533
0.000725539
0.000595577
0.000356467
0.000366763
0.000641745
0.000794737
0.000878656
0.000924205
0.000947653
0.000958533
0.000962499
0.000962815
0.00096139
0.000959416
0.000957643
0.000956386
0.000955678
0.000955336
0.000955148
0.00095503
0.000954973
0.000954976
0.000955039
0.00095516
0.000955344
0.000955656
0.000956261
0.000957219
0.000958192
0.000958192
0.000955125
0.000945348
0.000922887
0.000878056
0.000794569
0.000641792
0.000366848
0.000371415
0.000664887
0.000831141
0.000924263
0.000975758
0.00100245
0.00101436
0.00101756
0.00101577
0.00101148
0.00100663
0.00100261
0.000999908
0.000998472
0.000997814
0.000997411
0.00099713
0.000996988
0.000996992
0.000997142
0.000997427
0.000997824
0.000998443
0.000999747
0.00100207
0.00100507
0.00100748
0.00100633
0.000996955
0.000972519
0.000922662
0.000830542
0.000664807
0.000371506
0.000373379
0.000675909
0.000849404
0.000947798
0.00100258
0.00103052
0.00104157
0.00104178
0.00103509
0.00102479
0.00101426
0.00100636
0.00100143
0.000999096
0.000998173
0.00099747
0.000996912
0.000996621
0.000996626
0.000996927
0.000997491
0.000998189
0.00099907
0.00100126
0.00100575
0.0010125
0.00102026
0.00102448
0.00101886
0.000995667
0.00094427
0.000847945
0.000675541
0.000373457
0.000374155
0.000680791
0.000857883
0.00095886
0.00101482
0.00104206
0.00104991
0.00104383
0.00102757
0.00100558
0.000984616
0.000971471
0.000964384
0.000961777
0.000961183
0.000960199
0.000959265
0.000958775
0.000958781
0.000959283
0.000960225
0.000961208
0.000961765
0.000964231
0.000970881
0.000982823
0.00100084
0.00101633
0.00101958
0.00100162
0.000952078
0.000854959
0.000679907
0.000374191
0.000374434
0.000682748
0.000861366
0.000963212
0.0010188
0.00104357
0.00104561
0.00102874
0.000995317
0.000950933
0.000910357
0.000894656
0.000889509
0.000889543
0.000890956
0.000890022
0.000888812
0.000888186
0.000888193
0.000888833
0.000890055
0.000890993
0.000889557
0.00088941
0.000894171
0.000908701
0.000946259
0.00098388
0.00100384
0.000996078
0.000951645
0.000856303
0.000681092
0.000374392
0.000374518
0.00068341
0.000862503
0.000964272
0.00101856
0.00103965
0.00103359
0.00100073
0.000938304
0.000848308
0.000763211
0.00076736
0.000781215
0.000791384
0.000797505
0.00079771
0.000796924
0.000796486
0.000796493
0.000796947
0.000797747
0.000797555
0.000791429
0.000781201
0.000767083
0.000761938
0.00084401
0.000926979
0.000975607
0.000983469
0.00094679
0.00085485
0.000680816
0.000374365
0.000374528
0.000683569
0.000862712
0.00096409
0.00101694
0.0010343
0.00101969
0.00096763
0.000861279
0.000673248
0.000463727
0.000577817
0.000655695
0.000687469
0.000699677
0.00070282
0.000703489
0.00070359
0.000703597
0.000703511
0.000702856
0.000699732
0.000687542
0.000655779
0.000577862
0.000463279
0.000669815
0.00085026
0.000942448
0.000969276
0.000940989
0.000852674
0.000680112
0.000374256
0.000374516
0.000683591
0.000862736
0.000963903
0.00101599
0.00103135
0.00101178
0.000946609
0.000799377
0.000477968
0.000415886
0.000562209
0.000611593
0.000626664
0.00063168
0.000633135
0.000633473
0.000633477
0.000633148
0.000631704
0.000626703
0.000611659
0.000562315
0.000415952
0.000476265
0.000788789
0.000921423
0.00096123
0.000937814
0.000851464
0.000679689
0.000374172
0.000374498
0.000683623
0.000862894
0.000964274
0.00101676
0.00103309
0.00101632
0.000960518
0.000848646
0.000654073
0.000447924
0.000526881
0.000592364
0.000617997
0.000625223
0.000629805
0.000631153
0.000631375
0.000631373
0.00063115
0.000629801
0.000625215
0.000617989
0.000592346
0.000526744
0.000447355
0.000650503
0.000837555
0.000935224
0.000965699
0.000939442
0.000852073
0.000679858
0.000374169
0.000374488
0.000683695
0.000863216
0.00096513
0.00101879
0.00103774
0.00102702
0.000985674
0.000909484
0.00079927
0.000688755
0.000655464
0.000640383
0.000635487
0.000633708
0.000634075
0.000634166
0.000634099
0.000634095
0.000634153
0.000634052
0.000633666
0.000635414
0.000640228
0.000655034
0.000687365
0.00079493
0.000898092
0.000960306
0.000976373
0.000944029
0.000853964
0.000680489
0.000374228
0.000374478
0.000683781
0.000863596
0.000966139
0.00102114
0.00104287
0.00103779
0.00100751
0.00095188
0.000874462
0.000790365
0.000723573
0.000673985
0.000650921
0.000642325
0.000639626
0.000638733
0.000638428
0.000638421
0.000638712
0.000639589
0.000642264
0.000650816
0.000673775
0.000723048
0.000788722
0.000869812
0.000940287
0.000982031
0.000987063
0.00094906
0.00085615
0.000681242
0.000374292
0.000374465
0.000683856
0.00086393
0.000967016
0.00102312
0.00104699
0.00104581
0.00102211
0.000976401
0.000910813
0.000832956
0.000755638
0.00069235
0.00066055
0.000648055
0.000643735
0.000642292
0.000641829
0.000641818
0.000642263
0.000643689
0.000647984
0.000660431
0.000692124
0.000755078
0.000831218
0.000906016
0.000964665
0.000996512
0.000994967
0.000953047
0.000857954
0.00068187
0.000374332
0.000374447
0.000683904
0.000864171
0.000967641
0.00102449
0.00104973
0.00105082
0.00103055
0.000989223
0.000927803
0.000851209
0.000769885
0.000701054
0.000665438
0.000651085
0.000646001
0.000644275
0.000643703
0.000643688
0.000644238
0.000645947
0.000651008
0.000665314
0.00070082
0.000769276
0.000849425
0.000922924
0.000977383
0.00100484
0.000999864
0.000955649
0.000859166
0.000682287
0.000374342
0.000374426
0.000683927
0.000864317
0.000968017
0.00102529
0.00105127
0.00105353
0.00103484
0.000995305
0.000935273
0.00085877
0.000775835
0.000704723
0.000667554
0.000652415
0.000646999
0.00064513
0.000644476
0.000644455
0.000645085
0.000646939
0.000652333
0.000667426
0.000704483
0.000775186
0.000856961
0.000930347
0.000983399
0.00100905
0.00100248
0.000957096
0.000859854
0.000682514
0.000374331
0.000374405
0.000683931
0.000864387
0.000968195
0.00102566
0.00105196
0.00105469
0.00103661
0.000997692
0.000938062
0.000861481
0.000777945
0.000706024
0.000668308
0.000652883
0.000647338
0.0006454
0.000644684
0.000644658
0.000645348
0.000647273
0.000652798
0.000668178
0.000705782
0.000777291
0.000859664
0.000933118
0.000985757
0.00101078
0.0010036
0.00095773
0.00086016
0.000682607
0.000374307
0.000374389
0.000683924
0.000864394
0.000968211
0.00102569
0.001052
0.00105474
0.00103667
0.000997766
0.000938148
0.000861575
0.000778037
0.00070609
0.000668348
0.000652899
0.000647334
0.000645373
0.000644621
0.000644589
0.000645316
0.000647266
0.000652811
0.000668216
0.000705849
0.000777386
0.000859763
0.00093321
0.000985836
0.00101085
0.00100365
0.000957764
0.000860179
0.000682603
0.00037428
0.000374386
0.000683912
0.00086434
0.000968065
0.00102537
0.00105138
0.00105367
0.00103502
0.000995532
0.000935541
0.000859065
0.000776127
0.000704933
0.000667682
0.000652471
0.000646995
0.000645059
0.000644311
0.000644276
0.000644999
0.000646925
0.000652383
0.000667553
0.000704698
0.000775491
0.000857276
0.000930635
0.000983643
0.00100925
0.00100263
0.000957197
0.000859912
0.00068251
0.000374268
0.000374398
0.000683889
0.000864209
0.000967718
0.00102461
0.00104989
0.00105105
0.00103085
0.000989617
0.000928283
0.000851753
0.000770428
0.000701443
0.00066568
0.000651202
0.000646018
0.000644186
0.000643494
0.000643463
0.000644126
0.000645947
0.000651116
0.000665557
0.000701222
0.000769825
0.00085001
0.000923443
0.000977809
0.00100517
0.00100011
0.000955816
0.000859263
0.000682291
0.000374269
0.000374414
0.000683845
0.00086398
0.000967115
0.00102327
0.00104721
0.00104612
0.00102254
0.000976982
0.000911559
0.000833844
0.000756426
0.000692967
0.000660929
0.000648247
0.000643782
0.000642207
0.00064163
0.000641605
0.000642152
0.000643716
0.000648168
0.00066082
0.000692775
0.000755915
0.000832189
0.000906833
0.000965293
0.000996971
0.000995293
0.00095327
0.000858085
0.000681889
0.000374256
0.000374426
0.00068377
0.000863643
0.000966235
0.00102129
0.00104311
0.00103814
0.00100803
0.000952653
0.000875555
0.000791742
0.000724778
0.000674813
0.000651348
0.000642478
0.000639582
0.000638547
0.000638152
0.000638134
0.000638502
0.000639522
0.000642404
0.000651252
0.000674663
0.000724378
0.000790254
0.000871022
0.000941107
0.000982562
0.000987414
0.000949295
0.000856291
0.00068127
0.000374215
0.000374434
0.000683664
0.000863213
0.000965147
0.00101884
0.00103786
0.00102726
0.000986138
0.000910338
0.000800704
0.000690772
0.000657164
0.000640962
0.000635334
0.000633135
0.000633228
0.000633171
0.000633032
0.000633018
0.000633129
0.000633158
0.000633028
0.00063519
0.000640809
0.000656943
0.000689635
0.000796519
0.000898909
0.000960668
0.000976552
0.000944145
0.000854042
0.000680497
0.000374147
0.000374437
0.000683512
0.000862711
0.000964006
0.00101644
0.00103275
0.00101606
0.000960491
0.00084918
0.000655666
0.000449025
0.000527337
0.00059033
0.0006146
0.000620986
0.000625138
0.000626319
0.000626475
0.000626456
0.000626251
0.000624979
0.000620656
0.000614057
0.00058972
0.000527164
0.000448489
0.000652207
0.000837669
0.000934743
0.000965201
0.00093911
0.0008519
0.000679764
0.000374077
0.000374425
0.000683228
0.000862025
0.000962835
0.00101462
0.00102975
0.00101
0.00094472
0.000797722
0.000477298
0.000410759
0.000550255
0.000595797
0.000608347
0.000612444
0.00061363
0.000613874
0.000613821
0.000613422
0.000611911
0.000607132
0.000593484
0.000546892
0.000408446
0.000474485
0.000785233
0.000918105
0.000958819
0.000936273
0.000850598
0.00067929
0.000374046
0.000374345
0.00068251
0.000860635
0.000961045
0.00101307
0.00102975
0.00101447
0.000961618
0.000854335
0.000665773
0.000457275
0.000553106
0.000618603
0.000639073
0.000643691
0.000644876
0.000645241
0.000645303
0.000645198
0.000644793
0.000643581
0.000640397
0.000631987
0.000606566
0.000540551
0.000451091
0.000655126
0.000837613
0.000933102
0.000962855
0.000936802
0.000850185
0.000678941
0.000374022
0.00037408
0.000680588
0.000857183
0.000956718
0.00100917
0.00102871
0.00102104
0.000985849
0.000919421
0.000822401
0.000725305
0.000707357
0.00069641
0.000680887
0.000671649
0.00066794
0.00066673
0.000666355
0.000666192
0.000665994
0.000665635
0.00066526
0.000665685
0.000667948
0.000675808
0.000698428
0.0007993
0.000896353
0.000954802
0.000969277
0.000937191
0.000848795
0.000677792
0.000373863
0.000373326
0.000675795
0.000848929
0.000946187
0.000998179
0.00102007
0.00101927
0.000998355
0.00095777
0.000900368
0.000837779
0.000788809
0.000741998
0.000699972
0.000679196
0.000671326
0.000668764
0.000668011
0.000667809
0.000667819
0.000668217
0.000670072
0.000676731
0.00069595
0.00073882
0.000795207
0.000867181
0.000929557
0.000965812
0.000968675
0.000931829
0.000842888
0.000673877
0.000373211
0.000371384
0.00066488
0.000830956
0.000923354
0.000972971
0.000995517
0.000999253
0.000987899
0.000962684
0.000924716
0.000877236
0.000825154
0.000769522
0.000719685
0.000694734
0.000685046
0.000681806
0.000680846
0.000680622
0.000680752
0.000681559
0.000684525
0.000693851
0.000718709
0.000769925
0.000830159
0.000888706
0.000933685
0.000956726
0.00095235
0.000913613
0.000827044
0.000663746
0.000371356
0.000366753
0.000641834
0.000794808
0.000878383
0.00092288
0.000943845
0.000949644
0.000944265
0.000928972
0.000903853
0.000869292
0.000827025
0.000780775
0.000739684
0.00071722
0.000707816
0.000704441
0.000703391
0.00070317
0.000703349
0.000704348
0.000707635
0.000716954
0.000739476
0.000781399
0.000829417
0.000873049
0.000904293
0.000917954
0.000909657
0.000872456
0.000792619
0.000641309
0.000366785
0.000356413
0.000595658
0.000725779
0.000794859
0.000830777
0.000847775
0.000853484
0.000851563
0.000843153
0.000828075
0.000805995
0.000777696
0.000746437
0.000718893
0.000702701
0.000695336
0.000692562
0.000691673
0.000691477
0.000691657
0.000692523
0.000695266
0.000702611
0.000718891
0.000746777
0.000778576
0.000806751
0.000825957
0.000832743
0.000823539
0.000791888
0.000724858
0.000595544
0.000356488
0.000335082
0.000504982
0.000595751
0.000642028
0.000665073
0.000675693
0.000679528
0.000679243
0.000675674
0.000668647
0.000657722
0.000643157
0.000626792
0.000612232
0.000603243
0.000598927
0.000597216
0.000596639
0.000596511
0.000596644
0.000597221
0.000598929
0.000603245
0.000612274
0.000626944
0.000643437
0.000657703
0.000666909
0.000669215
0.000662237
0.000641069
0.0005956
0.000505073
0.000335161
0.000300423
0.00033513
0.000356548
0.000366974
0.000371686
0.000373693
0.000374449
0.000374565
0.000374204
0.000373298
0.00037182
0.000369683
0.000367109
0.000364699
0.000363164
0.000362392
0.000362044
0.000361881
0.000361825
0.000361889
0.000362052
0.000362395
0.000363161
0.000364691
0.000367104
0.000369682
0.000371773
0.000373039
0.000373174
0.000371625
0.000367093
0.000356699
0.00033524
0.000300481
0.000431996
0.000557425
0.000633867
0.000673622
0.00069328
0.000702465
0.000706445
0.000707984
0.000708441
0.000708446
0.000708288
0.000708099
0.000707942
0.000707832
0.00070776
0.000707712
0.00070768
0.000707662
0.00070766
0.000707675
0.000707705
0.00070775
0.000707813
0.000707899
0.000707985
0.000707968
0.000707565
0.000706124
0.000702254
0.000693163
0.00067357
0.000633854
0.000557433
0.000432011
0.000557432
0.00106398
0.00129308
0.00141524
0.00147972
0.00151213
0.0015272
0.00153335
0.00153515
0.00153499
0.00153407
0.00153303
0.00153216
0.00153157
0.0015312
0.00153096
0.00153082
0.00153075
0.00153075
0.00153082
0.00153096
0.00153118
0.00153152
0.00153199
0.00153249
0.00153256
0.001531
0.00152534
0.00151083
0.00147892
0.00141481
0.00129288
0.00106391
0.000557443
0.000633909
0.00129317
0.00159581
0.00176328
0.00185526
0.00190333
0.00192637
0.00193572
0.00193793
0.00193674
0.00193425
0.0019317
0.00192969
0.00192837
0.0019276
0.00192714
0.00192686
0.00192673
0.00192673
0.00192687
0.00192714
0.00192758
0.00192827
0.00192935
0.00193068
0.00193149
0.00192978
0.0019216
0.00189997
0.00185319
0.00176217
0.00159532
0.00129302
0.000633927
0.000673705
0.00141541
0.00176338
0.00196108
0.00207252
0.00213194
0.00216037
0.00217086
0.0021714
0.00216696
0.0021608
0.00215504
0.00215073
0.00214804
0.00214654
0.00214564
0.0021451
0.00214483
0.00214483
0.0021451
0.00214565
0.00214651
0.00214789
0.00215022
0.00215355
0.00215685
0.00215728
0.00214937
0.00212413
0.00206763
0.00195842
0.00176215
0.00141499
0.000673701
0.000693397
0.00147995
0.00185546
0.00207266
0.00219687
0.00226324
0.00229358
0.00230174
0.00229669
0.00228478
0.00227104
0.00225916
0.00225075
0.00224584
0.00224326
0.00224167
0.00224064
0.00224013
0.00224014
0.00224065
0.00224168
0.00224323
0.00224566
0.00225012
0.00225731
0.00226614
0.00227292
0.00227016
0.00224658
0.00218639
0.00206684
0.00185268
0.00147891
0.000693302
0.000702608
0.00151243
0.00190369
0.00213236
0.00226365
0.0023324
0.00236014
0.00236065
0.00234341
0.00231663
0.0022887
0.0022665
0.0022519
0.00224415
0.00224049
0.002238
0.00223622
0.00223531
0.00223532
0.00223624
0.00223801
0.00224046
0.00224396
0.0022512
0.00226443
0.00228319
0.00230327
0.0023137
0.00229958
0.00224308
0.00212088
0.00189807
0.0015102
0.000702301
0.000706614
0.00152762
0.00192703
0.00216142
0.00229506
0.00236165
0.00238134
0.00236656
0.00232653
0.00227221
0.00221927
0.00218253
0.00216116
0.00215165
0.0021481
0.00214477
0.00214204
0.00214062
0.00214063
0.00214206
0.00214479
0.00214809
0.00215149
0.00216051
0.00218045
0.00221353
0.00225803
0.00229486
0.00230171
0.002258
0.00214083
0.00191686
0.00152343
0.000705924
0.000708189
0.00153398
0.00193698
0.00217322
0.00230563
0.00236598
0.00237164
0.00233159
0.00225232
0.00214761
0.00205036
0.00200111
0.00198038
0.00197515
0.00197537
0.00197214
0.00196874
0.00196696
0.00196697
0.00196876
0.00197217
0.00197539
0.00197505
0.00197986
0.00199926
0.00204482
0.00213322
0.00221957
0.00226444
0.00224451
0.00213973
0.00192044
0.00152703
0.000706924
0.000708708
0.00153619
0.00194029
0.00217617
0.0023052
0.00235656
0.00234325
0.00226703
0.00212419
0.00192257
0.00173141
0.00170554
0.00172006
0.00173582
0.00174593
0.00174602
0.00174384
0.00174252
0.00174253
0.00174387
0.00174606
0.00174597
0.00173581
0.00171978
0.00170424
0.00172664
0.00190851
0.00209087
0.00219839
0.00221378
0.0021272
0.00191628
0.00152597
0.000706738
0.000708813
0.00153667
0.00194084
0.00217561
0.00230095
0.00234336
0.00231049
0.00219248
0.00195856
0.00155145
0.000967415
0.0012617
0.00141789
0.00148244
0.00150521
0.00151507
0.00151734
0.00151754
0.00151755
0.00151737
0.00151512
0.00150528
0.00148252
0.00141793
0.00126141
0.000964868
0.00153836
0.00192478
0.00212271
0.00217947
0.00211216
0.00191003
0.00152349
0.000706192
0.000708799
0.00153666
0.00194076
0.00217485
0.00229812
0.00233557
0.00229141
0.00214639
0.00183402
0.00102289
0.000780829
0.00117187
0.00127887
0.00131365
0.00132432
0.0013272
0.00132781
0.00132782
0.00132722
0.00132436
0.00131371
0.00127897
0.00117202
0.00078088
0.00101383
0.0018
0.0020759
0.00215956
0.00210343
0.00190622
0.00152182
0.000705823
0.000708783
0.00153668
0.00194103
0.00217547
0.00229938
0.00233838
0.00229898
0.00216999
0.00191919
0.00148735
0.000898356
0.00110974
0.0012496
0.001308
0.00133142
0.00133463
0.00133479
0.00133464
0.00133464
0.00133477
0.00133461
0.00133139
0.00130795
0.00124948
0.0011092
0.000895621
0.00147408
0.00188517
0.00209974
0.00216717
0.00210608
0.00190714
0.001522
0.000705879
0.000708794
0.00153687
0.00194179
0.00217743
0.00230387
0.00234842
0.0023215
0.00222151
0.00204058
0.0017815
0.00151258
0.00139533
0.00133657
0.00131637
0.00131112
0.00130958
0.0013089
0.00130856
0.00130856
0.00130888
0.00130955
0.00131106
0.00131622
0.00133615
0.00139395
0.00150783
0.00176734
0.00200675
0.00215172
0.00219008
0.00211632
0.00191162
0.00152374
0.000706272
0.000708818
0.00153715
0.00194278
0.0021799
0.0023094
0.00236012
0.00234534
0.00226866
0.00213022
0.00193809
0.00172551
0.00154631
0.00140821
0.00134204
0.00131781
0.0013102
0.00130791
0.00130726
0.00130725
0.00130789
0.00131016
0.00131773
0.00134183
0.00140766
0.00154462
0.00172021
0.00192356
0.00209643
0.00219912
0.0022142
0.00212819
0.00191716
0.00152601
0.00070676
0.000708837
0.00153743
0.0019437
0.00218215
0.00231427
0.00236988
0.00236381
0.00230154
0.0021846
0.00201816
0.00182004
0.00162103
0.00145154
0.00136343
0.00132897
0.00131758
0.0013142
0.00131333
0.00131333
0.00131419
0.00131754
0.00132889
0.00136322
0.00145095
0.00161924
0.00181451
0.0020034
0.00215071
0.00223203
0.00223274
0.00213798
0.00192194
0.00152802
0.000707164
0.000708842
0.00153763
0.00194439
0.0021838
0.00231774
0.00237658
0.00237575
0.00232122
0.00221415
0.00205729
0.00186267
0.00165571
0.00147341
0.0013756
0.00133627
0.001323
0.00131907
0.00131808
0.00131808
0.00131905
0.00132296
0.00133618
0.00137538
0.00147281
0.00165389
0.00185702
0.00204238
0.00218013
0.00225161
0.0022446
0.00214458
0.00192527
0.00152944
0.000707422
0.000708835
0.00153776
0.00194481
0.00218481
0.00231983
0.00238046
0.00238238
0.00233154
0.00222865
0.00207513
0.00188101
0.00167052
0.00148303
0.0013812
0.00133978
0.00132569
0.00132151
0.00132047
0.00132046
0.0013215
0.00132566
0.0013397
0.00138098
0.00148243
0.0016687
0.0018753
0.00206012
0.00219451
0.00226183
0.00225112
0.00214835
0.00192721
0.00153026
0.000707551
0.000708822
0.00153781
0.00194501
0.00218529
0.00232078
0.0023822
0.00238525
0.00233586
0.00223444
0.00208194
0.00188774
0.00167588
0.00148653
0.00138325
0.00134108
0.00132668
0.00132241
0.00132134
0.00132133
0.00132239
0.00132665
0.00134099
0.00138303
0.00148592
0.00167403
0.001882
0.00206688
0.00220024
0.00226608
0.00225393
0.00215001
0.00192808
0.00153063
0.000707592
0.000708808
0.00153781
0.00194502
0.00218531
0.00232082
0.00238225
0.00238532
0.00233594
0.00223454
0.00208206
0.00188787
0.001676
0.00148665
0.00138333
0.00134112
0.0013267
0.00132242
0.00132134
0.00132134
0.00132241
0.00132667
0.00134103
0.00138311
0.00148605
0.00167416
0.00188213
0.002067
0.00220035
0.00226616
0.00225399
0.00215005
0.0019281
0.00153063
0.000707576
0.000708801
0.00153776
0.00194484
0.00218487
0.00231992
0.0023806
0.00238256
0.00233179
0.00222896
0.0020755
0.00188142
0.00167093
0.00148343
0.00138146
0.00133993
0.00132578
0.00132158
0.00132052
0.00132051
0.00132157
0.00132575
0.00133985
0.00138125
0.00148284
0.00166911
0.00187572
0.00206051
0.00219483
0.00226208
0.0022513
0.00214847
0.00192728
0.00153028
0.000707509
0.000708797
0.00153763
0.00194442
0.00218388
0.00231788
0.00237678
0.00237604
0.00232163
0.00221469
0.00205796
0.00186342
0.00165647
0.00147416
0.00137612
0.0013366
0.00132324
0.00131927
0.00131827
0.00131826
0.00131927
0.00132322
0.00133654
0.00137593
0.00147361
0.00165471
0.00185782
0.00204308
0.00218068
0.00225202
0.00224488
0.00214476
0.00192537
0.00152946
0.000707367
0.000708785
0.00153741
0.00194373
0.00218223
0.00231441
0.00237012
0.00236417
0.00230209
0.00218538
0.00201921
0.00182132
0.00162241
0.00145277
0.00136429
0.00132955
0.00131803
0.00131461
0.00131373
0.00131373
0.00131462
0.00131803
0.00132951
0.00136413
0.00145229
0.00162075
0.00181588
0.00200451
0.00215149
0.00223254
0.00223306
0.00213818
0.00192205
0.00152804
0.000707103
0.000708758
0.0015371
0.00194274
0.00217988
0.00230943
0.00236023
0.00234561
0.0022692
0.00213118
0.0019396
0.00172752
0.00154846
0.00140983
0.00134295
0.00131831
0.00131052
0.00130819
0.00130754
0.00130755
0.0013082
0.00131053
0.00131828
0.00134283
0.00140943
0.00154701
0.00172239
0.00192512
0.00209729
0.0021995
0.00221435
0.00212824
0.00191717
0.00152598
0.000706688
0.00070871
0.00153669
0.00194151
0.00217705
0.00230343
0.00234799
0.0023212
0.00222155
0.00204131
0.00178337
0.00151553
0.00139803
0.00133727
0.00131553
0.0013095
0.00130763
0.00130687
0.00130654
0.00130655
0.00130688
0.00130761
0.00130938
0.00131524
0.00133677
0.00139691
0.00151104
0.00176917
0.00200699
0.0021512
0.00218941
0.00211578
0.00191127
0.00152352
0.000706166
0.000708627
0.00153613
0.00194006
0.00217409
0.00229764
0.00233638
0.00229689
0.00216811
0.00191823
0.00148886
0.000900526
0.00110935
0.00124309
0.00129793
0.00131931
0.00132173
0.00132174
0.0013216
0.00132159
0.00132167
0.00132146
0.00131857
0.00129645
0.00124114
0.00110821
0.000897802
0.00147499
0.00188234
0.00209615
0.00216412
0.0021039
0.00190578
0.00152127
0.000705674
0.000708435
0.00153511
0.00193802
0.00217093
0.00229315
0.00232966
0.00228467
0.00213894
0.00182644
0.00101772
0.000761344
0.00113448
0.00123139
0.00125934
0.00126806
0.00127068
0.00127131
0.0012712
0.00127022
0.0012667
0.00125599
0.00122465
0.00112406
0.000752918
0.00100377
0.00178611
0.00206394
0.00215066
0.00209737
0.00190245
0.00151981
0.000705358
0.000707884
0.00153261
0.00193385
0.00216583
0.00228869
0.00232881
0.00229349
0.00217229
0.00193383
0.00152047
0.000933009
0.00117822
0.00130596
0.00134249
0.00134645
0.00135178
0.00135395
0.00135446
0.0013542
0.0013528
0.00134827
0.00133724
0.00132231
0.001271
0.00113804
0.000906918
0.00148311
0.001883
0.00209264
0.00215849
0.00209797
0.00190099
0.00151855
0.000705083
0.000706341
0.00152627
0.00192386
0.00215389
0.00227787
0.00232462
0.00230617
0.00222248
0.00206699
0.00184289
0.00161295
0.00153065
0.00148219
0.00143339
0.00140444
0.00139462
0.00139177
0.00139092
0.00139048
0.00138977
0.00138827
0.00138672
0.00139143
0.00140552
0.00144407
0.00153547
0.00177703
0.00200164
0.00213721
0.00217124
0.00209762
0.00189662
0.00151471
0.000704111
0.000702404
0.00151133
0.00190109
0.00212612
0.00224934
0.00230175
0.00229897
0.00224681
0.00214689
0.00200595
0.00184915
0.00171479
0.00158899
0.00147621
0.00141829
0.00139633
0.00138924
0.00138717
0.00138661
0.00138661
0.00138765
0.00139293
0.00141261
0.00146796
0.00158619
0.0017382
0.00191791
0.00207009
0.00215853
0.00216728
0.00208291
0.00188038
0.00150269
0.000700828
0.000693275
0.00147918
0.00185369
0.0020683
0.00218665
0.00224107
0.00224909
0.00221893
0.00215371
0.00205636
0.00193437
0.00179912
0.00165626
0.00152624
0.00145789
0.00143072
0.00142149
0.0014187
0.00141805
0.00141846
0.00142084
0.00142942
0.00145594
0.00152474
0.00165977
0.00181445
0.00196245
0.00207549
0.00213429
0.00212647
0.00203721
0.00183914
0.00147328
0.000692285
0.000673658
0.00141495
0.00176239
0.00195854
0.00206625
0.00211782
0.00213124
0.00211539
0.00207341
0.00200594
0.00191442
0.00180363
0.00168374
0.00157743
0.00151714
0.00149092
0.00148126
0.00147813
0.00147741
0.00147806
0.00148105
0.00149053
0.00151671
0.00157772
0.00168664
0.00181101
0.00192392
0.00200535
0.00204245
0.00202496
0.00193789
0.00175307
0.00141131
0.000673124
0.000633919
0.00129295
0.00159544
0.00176216
0.00185212
0.00189566
0.00190967
0.00190256
0.00187718
0.00183346
0.00177114
0.00169294
0.00160782
0.00153315
0.00148808
0.00146693
0.00145856
0.00145568
0.00145501
0.00145569
0.00145857
0.00146694
0.00148817
0.00153368
0.00160947
0.00169596
0.00177316
0.00182676
0.00184752
0.00182669
0.00174998
0.00159021
0.00129101
0.000633702
0.000557476
0.00106394
0.00129309
0.00141503
0.00147868
0.00150901
0.00151963
0.00151721
0.00150398
0.0014797
0.00144372
0.00139743
0.00134662
0.00130195
0.00127395
0.00126017
0.00125448
0.00125244
0.00125197
0.00125249
0.00125457
0.00126032
0.00127417
0.00130241
0.00134752
0.00139868
0.00144374
0.00147398
0.00148353
0.00146588
0.00140927
0.00129079
0.00106313
0.000557445
0.00043204
0.000557475
0.000633988
0.000673795
0.000693398
0.000702277
0.000705442
0.000705222
0.000702334
0.000696623
0.000687726
0.000675804
0.000662347
0.000650374
0.000642919
0.000639291
0.000637796
0.000637255
0.000637127
0.000637269
0.000637819
0.00063932
0.000642957
0.000650446
0.000662503
0.000676034
0.000687681
0.000695171
0.000696977
0.000691013
0.00067289
0.000633722
0.000557434
0.000432096
0.000475575
0.000661516
0.000776021
0.000837533
0.000869299
0.000884857
0.000891915
0.000894747
0.00089559
0.000895554
0.000895184
0.000894752
0.000894391
0.00089414
0.000893981
0.00089388
0.000893818
0.000893786
0.000893786
0.000893815
0.000893875
0.00089397
0.00089411
0.000894308
0.000894515
0.000894521
0.000893791
0.000891167
0.000884342
0.000868989
0.00083737
0.000775949
0.000661496
0.000475591
0.000661517
0.00132912
0.00162937
0.00179432
0.0018844
0.00193129
0.00195385
0.00196332
0.00196612
0.00196574
0.0019641
0.00196222
0.00196064
0.00195953
0.00195882
0.00195837
0.00195811
0.00195798
0.00195798
0.0019581
0.00195836
0.00195878
0.00195941
0.0019603
0.00196123
0.00196145
0.00195908
0.00195044
0.00192885
0.00188283
0.00179341
0.00162889
0.0013289
0.000661494
0.000776063
0.00162948
0.00201532
0.00223395
0.00235764
0.00242422
0.00245705
0.00247064
0.00247382
0.00247179
0.0024677
0.00246343
0.00245999
0.00245767
0.00245626
0.00245541
0.0024549
0.00245466
0.00245466
0.0024549
0.00245539
0.0024562
0.00245746
0.00245936
0.00246167
0.00246315
0.0024608
0.00244905
0.00241846
0.00235393
0.00223183
0.00201426
0.00162905
0.000776011
0.000837626
0.00179454
0.00223408
0.00248865
0.00263593
0.00271652
0.00275598
0.00277075
0.00277133
0.00276452
0.00275497
0.00274583
0.00273879
0.00273427
0.00273164
0.00273007
0.00272912
0.00272867
0.00272867
0.00272912
0.00273005
0.00273156
0.00273397
0.00273789
0.00274334
0.00274865
0.00274964
0.00273872
0.00270401
0.00262784
0.00248399
0.00223172
0.00179357
0.000837482
0.00086944
0.00188472
0.00235793
0.00263615
0.00279903
0.00288804
0.00292952
0.00294077
0.00293345
0.00291611
0.00289566
0.00287738
0.00286398
0.00285587
0.00285145
0.00284873
0.00284703
0.0028462
0.0028462
0.00284703
0.00284872
0.00285135
0.0028555
0.00286286
0.0028743
0.00288791
0.00289808
0.00289458
0.00286272
0.0027826
0.0026266
0.00235301
0.00188261
0.00086906
0.000885044
0.00193175
0.00242479
0.00271722
0.00288872
0.00298034
0.00301795
0.00301868
0.0029948
0.00295715
0.00291671
0.00288283
0.00285943
0.00284643
0.00284001
0.00283571
0.0028328
0.00283137
0.00283137
0.00283281
0.0028357
0.00283991
0.00284604
0.00285821
0.0028794
0.00290798
0.00293685
0.00295136
0.00293244
0.0028578
0.00269921
0.0024154
0.00192757
0.000884188
0.000892161
0.00195454
0.00245816
0.00275773
0.00293194
0.00302034
0.00304704
0.00302751
0.00297367
0.00289949
0.00282435
0.00276703
0.0027307
0.00271315
0.00270602
0.00269988
0.00269527
0.00269299
0.002693
0.00269529
0.00269988
0.00270595
0.0027128
0.00272951
0.00276355
0.00281517
0.0028778
0.00292715
0.00293571
0.00287807
0.00272653
0.0024418
0.0019471
0.000890499
0.000895088
0.00196445
0.00247282
0.00277465
0.00294698
0.00302694
0.00303523
0.00298314
0.00287931
0.00274066
0.00260554
0.00252174
0.00247751
0.00246147
0.00245819