/*--------------------------------*- C++ -*----------------------------------*\
| =========                 |                                                 |
| \\      /  F ield         | OpenFOAM: The Open Source CFD Toolbox           |
|  \\    /   O peration     | Version:  2112                                  |
|   \\  /    A nd           | Website:  www.openfoam.com                      |
|    \\/     M anipulation  |                                                 |
\*---------------------------------------------------------------------------*/
FoamFile
{
    version     2.0;
    format      ascii;
    arch        "LSB;label=32;scalar=64";
    class       volScalarField;
    location    "3.6";
    object      nut;
}
// * * * * * * * * * * * * * * * * * * * * * * * * * * * * * * * * * * * * * //

dimensions      [0 2 -1 0 0 0 0];

internalField   nonuniform List<scalar> 
64906
(
4.33831e-05
4.5882e-05
4.73697e-05
4.80847e-05
4.84076e-05
4.85461e-05
4.86019e-05
4.86225e-05
4.86287e-05
4.8629e-05
4.86272e-05
4.86252e-05
4.86236e-05
4.86224e-05
4.86213e-05
4.86203e-05
4.86194e-05
4.86186e-05
4.86183e-05
4.86187e-05
4.86195e-05
4.86204e-05
4.86214e-05
4.86224e-05
4.86232e-05
4.8623e-05
4.8618e-05
4.8599e-05
4.85445e-05
4.84071e-05
4.80848e-05
4.73704e-05
4.58833e-05
4.33842e-05
4.58838e-05
5.644e-05
6.1378e-05
6.37776e-05
6.49635e-05
6.5531e-05
6.57852e-05
6.58869e-05
6.59183e-05
6.59194e-05
6.59093e-05
6.58975e-05
6.5888e-05
6.5882e-05
6.58788e-05
6.5877e-05
6.58759e-05
6.58754e-05
6.58754e-05
6.58759e-05
6.5877e-05
6.58787e-05
6.58815e-05
6.58857e-05
6.58901e-05
6.58875e-05
6.58593e-05
6.57643e-05
6.5518e-05
6.49574e-05
6.37764e-05
6.13797e-05
5.64429e-05
4.58866e-05
4.7374e-05
6.13804e-05
6.78384e-05
7.1069e-05
7.27335e-05
7.35669e-05
7.39547e-05
7.41102e-05
7.41498e-05
7.4136e-05
7.4103e-05
7.40696e-05
7.40447e-05
7.40298e-05
7.40223e-05
7.40184e-05
7.40162e-05
7.40152e-05
7.40153e-05
7.40165e-05
7.40188e-05
7.40225e-05
7.4029e-05
7.40405e-05
7.40557e-05
7.40627e-05
7.403e-05
7.38918e-05
7.35249e-05
7.27103e-05
7.10597e-05
6.78375e-05
6.13841e-05
4.73786e-05
4.80908e-05
6.37823e-05
7.10713e-05
7.48051e-05
7.67814e-05
7.77943e-05
7.8267e-05
7.84408e-05
7.84545e-05
7.83904e-05
7.8301e-05
7.82195e-05
7.81608e-05
7.81269e-05
7.811e-05
7.81006e-05
7.80949e-05
7.80921e-05
7.80923e-05
7.80953e-05
7.81011e-05
7.81102e-05
7.81256e-05
7.81545e-05
7.8199e-05
7.82434e-05
7.82438e-05
7.81097e-05
7.76858e-05
7.67173e-05
7.47741e-05
7.1061e-05
6.37837e-05
4.80965e-05
4.84149e-05
6.49699e-05
7.27379e-05
7.6784e-05
7.89588e-05
8.00782e-05
8.05793e-05
8.07153e-05
8.06395e-05
8.04559e-05
8.02459e-05
8.00694e-05
7.99484e-05
7.98824e-05
7.98512e-05
7.98323e-05
7.98195e-05
7.98131e-05
7.98132e-05
7.982e-05
7.98329e-05
7.98515e-05
7.98808e-05
7.99404e-05
8.00437e-05
8.01745e-05
8.02772e-05
8.02274e-05
7.98332e-05
7.881e-05
7.67065e-05
7.27058e-05
6.49637e-05
4.84209e-05
4.85539e-05
6.55385e-05
7.35737e-05
7.78011e-05
8.00842e-05
8.12385e-05
8.16961e-05
8.17068e-05
8.14302e-05
8.10001e-05
8.0555e-05
8.0214e-05
7.99964e-05
7.989e-05
7.98459e-05
7.98137e-05
7.9789e-05
7.97763e-05
7.97765e-05
7.97896e-05
7.98145e-05
7.98464e-05
7.98884e-05
7.99879e-05
8.01854e-05
8.04748e-05
8.07994e-05
8.0971e-05
8.07361e-05
7.97776e-05
7.76368e-05
7.34997e-05
6.5516e-05
4.85587e-05
4.86099e-05
6.57938e-05
7.39657e-05
7.82825e-05
8.06006e-05
8.1718e-05
8.20425e-05
8.17978e-05
8.11327e-05
8.0223e-05
7.93397e-05
7.87671e-05
7.84474e-05
7.83228e-05
7.82895e-05
7.82439e-05
7.82026e-05
7.81812e-05
7.81814e-05
7.82034e-05
7.8245e-05
7.82904e-05
7.83218e-05
7.84396e-05
7.87387e-05
7.92564e-05
8.00101e-05
8.06435e-05
8.07694e-05
8.00285e-05
7.79744e-05
7.38217e-05
6.57428e-05
4.86113e-05
4.86304e-05
6.58979e-05
7.41291e-05
7.84745e-05
8.07715e-05
8.17856e-05
8.18747e-05
8.1194e-05
7.9826e-05
7.79739e-05
7.62324e-05
7.55123e-05
7.52496e-05
7.52281e-05
7.52789e-05
7.52328e-05
7.51776e-05
7.51493e-05
7.51496e-05
7.51785e-05
7.52342e-05
7.52804e-05
7.52283e-05
7.52441e-05
7.54877e-05
7.61522e-05
7.77575e-05
7.93191e-05
8.01285e-05
7.98007e-05
7.79576e-05
7.38844e-05
6.5805e-05
4.86258e-05
4.86367e-05
6.59339e-05
7.41835e-05
7.85229e-05
8.07645e-05
8.16288e-05
8.13917e-05
8.00597e-05
7.7472e-05
7.35957e-05
6.97274e-05
6.98363e-05
7.04094e-05
7.08446e-05
7.11137e-05
7.11162e-05
7.10771e-05
7.1056e-05
7.10563e-05
7.10782e-05
7.11179e-05
7.1116e-05
7.08465e-05
7.0408e-05
6.98207e-05
6.96598e-05
7.33844e-05
7.69538e-05
7.89673e-05
7.92775e-05
7.77497e-05
7.3818e-05
6.57907e-05
4.86239e-05
4.86376e-05
6.59427e-05
7.4194e-05
7.85159e-05
8.06976e-05
8.14114e-05
8.08285e-05
7.87021e-05
7.419e-05
6.55053e-05
5.42479e-05
6.04815e-05
6.43906e-05
6.59234e-05
6.65097e-05
6.66547e-05
6.66844e-05
6.66886e-05
6.66889e-05
6.66855e-05
6.66565e-05
6.65125e-05
6.5927e-05
6.43946e-05
6.04831e-05
5.42173e-05
6.53153e-05
7.36628e-05
7.75868e-05
7.86851e-05
7.74998e-05
7.37177e-05
6.57536e-05
4.8616e-05
4.86368e-05
6.59441e-05
7.41953e-05
7.85077e-05
8.06575e-05
8.12892e-05
8.05036e-05
7.78246e-05
7.1445e-05
5.51183e-05
5.12262e-05
5.95225e-05
6.20804e-05
6.28432e-05
6.30989e-05
6.3174e-05
6.31917e-05
6.31919e-05
6.31747e-05
6.31001e-05
6.28453e-05
6.20839e-05
5.95283e-05
5.12303e-05
5.50059e-05
7.09189e-05
7.66961e-05
7.83445e-05
7.73609e-05
7.3661e-05
6.5731e-05
4.861e-05
4.86356e-05
6.59459e-05
7.42025e-05
7.85233e-05
8.0688e-05
8.13557e-05
8.06784e-05
7.83827e-05
7.35957e-05
6.44919e-05
5.32419e-05
5.75879e-05
6.10164e-05
6.23102e-05
6.26646e-05
6.29044e-05
6.2977e-05
6.29895e-05
6.29895e-05
6.29768e-05
6.29042e-05
6.26642e-05
6.23098e-05
6.10153e-05
5.75794e-05
5.32033e-05
6.42926e-05
7.30612e-05
7.72579e-05
7.85215e-05
7.74261e-05
7.36869e-05
6.57394e-05
4.86095e-05
4.86348e-05
6.59499e-05
7.42175e-05
7.856e-05
8.07708e-05
8.15409e-05
8.11025e-05
7.93984e-05
7.61782e-05
7.12906e-05
6.60335e-05
6.42678e-05
6.34252e-05
6.31394e-05
6.30334e-05
6.30525e-05
6.30589e-05
6.30562e-05
6.30559e-05
6.30582e-05
6.30513e-05
6.30312e-05
6.31355e-05
6.34167e-05
6.42438e-05
6.59575e-05
7.10715e-05
7.56485e-05
7.82856e-05
7.89566e-05
7.76186e-05
7.37719e-05
6.5772e-05
4.86139e-05
4.86342e-05
6.59548e-05
7.42354e-05
7.86039e-05
8.08681e-05
8.17477e-05
8.1532e-05
8.0277e-05
7.79359e-05
7.45749e-05
7.07538e-05
6.75516e-05
6.5078e-05
6.38927e-05
6.34435e-05
6.33027e-05
6.32566e-05
6.3241e-05
6.32406e-05
6.32555e-05
6.33008e-05
6.34403e-05
6.38871e-05
6.50667e-05
6.75235e-05
7.06696e-05
7.43507e-05
7.74096e-05
7.91726e-05
7.93953e-05
7.78322e-05
7.38716e-05
6.58116e-05
4.86187e-05
4.86334e-05
6.5959e-05
7.42514e-05
7.86425e-05
8.09511e-05
8.19156e-05
8.18543e-05
8.08652e-05
7.89423e-05
7.61204e-05
7.26516e-05
6.90523e-05
6.59727e-05
6.43677e-05
6.3724e-05
6.34994e-05
6.34242e-05
6.34001e-05
6.33995e-05
6.34227e-05
6.3497e-05
6.37203e-05
6.43614e-05
6.59606e-05
6.90229e-05
7.25647e-05
7.58939e-05
7.84165e-05
7.97641e-05
7.97218e-05
7.80032e-05
7.39549e-05
6.58451e-05
4.86219e-05
4.86322e-05
6.59619e-05
7.42631e-05
7.86704e-05
8.10095e-05
8.20284e-05
8.2058e-05
8.12073e-05
7.94691e-05
7.6839e-05
7.34573e-05
6.97141e-05
6.63973e-05
6.46114e-05
6.38751e-05
6.36112e-05
6.35211e-05
6.34912e-05
6.34904e-05
6.35192e-05
6.36084e-05
6.3871e-05
6.46048e-05
6.63848e-05
6.96831e-05
7.33691e-05
7.66108e-05
7.89424e-05
8.01063e-05
7.99262e-05
7.81162e-05
7.40116e-05
6.58676e-05
4.8623e-05
4.86309e-05
6.59633e-05
7.42702e-05
7.86874e-05
8.10441e-05
8.20931e-05
8.21693e-05
8.13832e-05
7.9721e-05
7.71567e-05
7.37925e-05
6.99922e-05
6.65777e-05
6.47181e-05
6.39424e-05
6.36614e-05
6.35638e-05
6.35296e-05
6.35286e-05
6.35615e-05
6.36583e-05
6.39381e-05
6.47114e-05
6.6565e-05
6.99588e-05
7.37034e-05
7.69273e-05
7.91931e-05
8.02813e-05
8.00367e-05
7.81798e-05
7.40442e-05
6.58801e-05
4.86224e-05
4.86295e-05
6.59636e-05
7.42736e-05
7.86954e-05
8.10601e-05
8.21221e-05
8.22175e-05
8.14563e-05
7.98208e-05
7.72764e-05
7.39138e-05
7.00917e-05
6.66424e-05
6.47566e-05
6.39664e-05
6.36787e-05
6.35775e-05
6.35401e-05
6.35387e-05
6.35748e-05
6.36753e-05
6.39619e-05
6.47497e-05
6.66295e-05
7.00581e-05
7.38243e-05
7.70464e-05
7.92922e-05
8.03537e-05
8.00842e-05
7.82079e-05
7.40588e-05
6.58853e-05
4.86209e-05
4.86283e-05
6.59632e-05
7.4274e-05
7.86961e-05
8.10612e-05
8.21235e-05
8.22194e-05
8.14588e-05
7.98239e-05
7.72801e-05
7.3918e-05
7.00961e-05
6.66457e-05
6.47587e-05
6.39673e-05
6.36785e-05
6.35761e-05
6.35368e-05
6.35351e-05
6.35731e-05
6.36749e-05
6.39627e-05
6.47517e-05
6.66329e-05
7.00626e-05
7.38288e-05
7.70504e-05
7.92955e-05
8.03564e-05
8.00862e-05
7.82093e-05
7.40597e-05
6.58851e-05
4.86191e-05
4.86281e-05
6.59625e-05
7.42712e-05
7.86894e-05
8.10471e-05
8.20973e-05
8.2175e-05
8.13907e-05
7.97305e-05
7.71684e-05
7.3806e-05
7.00062e-05
6.65884e-05
6.47248e-05
6.39453e-05
6.36612e-05
6.35601e-05
6.3521e-05
6.35192e-05
6.3557e-05
6.36575e-05
6.39407e-05
6.4718e-05
6.65759e-05
6.99734e-05
7.37177e-05
7.69398e-05
7.92034e-05
8.02893e-05
8.00428e-05
7.81841e-05
7.40468e-05
6.58799e-05
4.86182e-05
4.86289e-05
6.59611e-05
7.42647e-05
7.86737e-05
8.10143e-05
8.20353e-05
8.20674e-05
8.12199e-05
7.94857e-05
7.686e-05
7.34822e-05
6.97402e-05
6.6417e-05
6.46239e-05
6.38812e-05
6.3612e-05
6.35164e-05
6.34802e-05
6.34786e-05
6.35133e-05
6.36083e-05
6.38766e-05
6.46174e-05
6.64052e-05
6.97089e-05
7.33958e-05
7.66335e-05
7.89603e-05
8.01199e-05
7.99363e-05
7.81233e-05
7.4016e-05
6.58678e-05
4.8618e-05
4.86299e-05
6.59584e-05
7.42536e-05
7.86466e-05
8.09573e-05
8.19245e-05
8.1867e-05
8.08829e-05
7.89668e-05
7.61532e-05
7.26925e-05
6.90902e-05
6.6004e-05
6.43873e-05
6.37338e-05
6.35016e-05
6.34194e-05
6.33893e-05
6.3388e-05
6.34166e-05
6.34981e-05
6.37297e-05
6.43815e-05
6.59936e-05
6.90633e-05
7.26094e-05
7.59297e-05
7.8443e-05
7.9783e-05
7.97353e-05
7.80126e-05
7.39607e-05
6.5846e-05
4.86167e-05
4.86307e-05
6.59541e-05
7.42373e-05
7.86076e-05
8.08739e-05
8.17567e-05
8.15458e-05
8.02983e-05
7.79686e-05
7.46236e-05
7.08187e-05
6.76112e-05
6.51203e-05
6.39144e-05
6.34507e-05
6.32993e-05
6.32456e-05
6.32253e-05
6.32243e-05
6.32433e-05
6.32961e-05
6.34468e-05
6.39092e-05
6.5112e-05
6.75892e-05
7.07416e-05
7.44045e-05
7.74442e-05
7.91941e-05
7.94092e-05
7.78417e-05
7.38776e-05
6.58129e-05
4.86134e-05
4.86312e-05
6.5948e-05
7.42167e-05
7.85597e-05
8.07714e-05
8.15441e-05
8.11106e-05
7.94162e-05
7.62143e-05
7.1357e-05
6.61348e-05
6.43558e-05
6.34544e-05
6.31292e-05
6.30004e-05
6.30045e-05
6.30029e-05
6.29964e-05
6.29956e-05
6.30007e-05
6.30007e-05
6.29946e-05
6.31212e-05
6.34458e-05
6.43425e-05
6.60714e-05
7.11449e-05
7.56824e-05
7.82986e-05
7.89619e-05
7.76219e-05
7.37744e-05
6.5772e-05
4.86082e-05
4.86313e-05
6.59393e-05
7.41925e-05
7.85093e-05
8.06711e-05
8.13379e-05
8.06631e-05
7.8377e-05
7.36162e-05
6.45728e-05
5.33105e-05
5.76123e-05
6.09005e-05
6.21219e-05
6.24317e-05
6.26488e-05
6.27127e-05
6.27217e-05
6.27206e-05
6.27089e-05
6.26402e-05
6.24136e-05
6.20922e-05
6.08663e-05
5.76011e-05
5.32736e-05
6.43785e-05
7.30609e-05
7.7231e-05
7.84949e-05
7.74078e-05
7.36765e-05
6.57333e-05
4.86029e-05
4.86302e-05
6.59235e-05
7.41592e-05
7.84567e-05
8.05935e-05
8.12145e-05
8.04195e-05
7.77325e-05
7.13572e-05
5.50723e-05
5.08806e-05
5.88358e-05
6.12126e-05
6.18498e-05
6.20604e-05
6.21226e-05
6.21357e-05
6.21328e-05
6.21112e-05
6.20313e-05
6.17836e-05
6.10856e-05
5.86438e-05
5.07262e-05
5.48892e-05
7.07368e-05
7.65374e-05
7.823e-05
7.72858e-05
7.36161e-05
6.57078e-05
4.86007e-05
4.86241e-05
6.58842e-05
7.40925e-05
7.83754e-05
8.05237e-05
8.1208e-05
8.05932e-05
7.84241e-05
7.38517e-05
6.50968e-05
5.38277e-05
5.9075e-05
6.24196e-05
6.34178e-05
6.36347e-05
6.36869e-05
6.37032e-05
6.37058e-05
6.37002e-05
6.36795e-05
6.36188e-05
6.34622e-05
6.30461e-05
6.17782e-05
5.83618e-05
5.34333e-05
6.45252e-05
7.30546e-05
7.71559e-05
7.83903e-05
7.73032e-05
7.35941e-05
6.5688e-05
4.85986e-05
4.86045e-05
6.57817e-05
7.393e-05
7.81832e-05
8.03532e-05
8.11536e-05
8.08435e-05
7.93992e-05
7.66101e-05
7.2362e-05
6.78403e-05
6.68716e-05
6.62581e-05
6.54532e-05
6.49762e-05
6.47833e-05
6.47201e-05
6.47004e-05
6.46919e-05
6.4682e-05
6.46649e-05
6.46503e-05
6.46837e-05
6.48302e-05
6.52914e-05
6.6501e-05
7.1266e-05
7.55612e-05
7.80388e-05
7.86432e-05
7.73109e-05
7.35258e-05
6.56262e-05
4.85867e-05
4.855e-05
6.5531e-05
7.35484e-05
7.77243e-05
7.9887e-05
8.07872e-05
8.07529e-05
7.98859e-05
7.81824e-05
7.57153e-05
7.29274e-05
7.06458e-05
6.84075e-05
6.63534e-05
6.53142e-05
6.49151e-05
6.4784e-05
6.47452e-05
6.47348e-05
6.47354e-05
6.47563e-05
6.48527e-05
6.51944e-05
6.6166e-05
6.82769e-05
7.09602e-05
7.4221e-05
7.69342e-05
7.84726e-05
7.86027e-05
7.70721e-05
7.32522e-05
6.54221e-05
4.854e-05
4.84125e-05
6.49683e-05
7.27264e-05
7.67381e-05
7.88288e-05
7.97682e-05
7.99201e-05
7.94375e-05
7.83624e-05
7.67227e-05
7.46291e-05
7.22715e-05
6.96849e-05
6.7298e-05
6.60696e-05
6.55848e-05
6.5421e-05
6.5372e-05
6.53606e-05
6.53672e-05
6.54085e-05
6.5559e-05
6.60274e-05
6.72551e-05
6.97119e-05
7.25043e-05
7.51254e-05
7.70855e-05
7.80782e-05
7.79093e-05
7.62842e-05
7.25293e-05
6.49016e-05
4.84091e-05
4.80899e-05
6.37862e-05
7.10726e-05
7.47884e-05
7.67145e-05
7.76139e-05
7.78591e-05
7.76189e-05
7.69434e-05
7.58298e-05
7.42824e-05
7.23608e-05
7.02155e-05
6.82633e-05
6.71711e-05
6.67068e-05
6.65384e-05
6.64853e-05
6.64739e-05
6.64833e-05
6.65337e-05
6.6698e-05
6.71589e-05
6.82552e-05
7.02479e-05
7.24714e-05
7.44444e-05
7.58348e-05
7.6444e-05
7.61014e-05
7.45006e-05
7.09572e-05
6.37531e-05
4.80911e-05
4.73747e-05
6.13885e-05
6.78492e-05
7.10742e-05
7.27152e-05
7.34879e-05
7.37454e-05
7.36507e-05
7.32535e-05
7.25443e-05
7.15042e-05
7.01626e-05
6.86633e-05
6.73217e-05
6.65195e-05
6.61499e-05
6.60092e-05
6.59636e-05
6.59535e-05
6.59628e-05
6.60072e-05
6.61464e-05
6.65154e-05
6.73224e-05
6.8681e-05
7.02046e-05
7.15361e-05
7.24375e-05
7.27621e-05
7.23555e-05
7.09189e-05
6.7796e-05
6.13791e-05
4.73794e-05
4.58865e-05
5.64494e-05
6.13935e-05
6.37959e-05
6.49766e-05
6.55213e-05
6.57177e-05
6.56987e-05
6.5506e-05
6.51311e-05
6.45517e-05
6.37802e-05
6.29104e-05
6.21308e-05
6.16442e-05
6.14081e-05
6.13137e-05
6.12816e-05
6.12744e-05
6.12818e-05
6.13139e-05
6.14082e-05
6.16444e-05
6.21334e-05
6.29191e-05
6.37949e-05
6.45488e-05
6.50359e-05
6.51641e-05
6.48147e-05
6.37373e-05
6.13815e-05
5.64534e-05
4.58921e-05
4.33862e-05
4.58901e-05
4.73844e-05
4.81053e-05
4.84334e-05
4.85747e-05
4.86283e-05
4.86356e-05
4.86079e-05
4.85408e-05
4.84327e-05
4.82786e-05
4.80944e-05
4.79224e-05
4.78126e-05
4.7757e-05
4.7732e-05
4.77203e-05
4.77163e-05
4.77208e-05
4.77325e-05
4.77573e-05
4.78124e-05
4.7922e-05
4.80941e-05
4.82786e-05
4.84292e-05
4.85217e-05
4.85333e-05
4.84261e-05
4.81122e-05
4.73944e-05
4.5898e-05
4.33906e-05
6.73112e-05
7.66188e-05
8.18147e-05
8.44227e-05
8.57034e-05
8.63064e-05
8.65716e-05
8.66758e-05
8.67071e-05
8.67072e-05
8.66959e-05
8.66824e-05
8.66711e-05
8.66631e-05
8.66579e-05
8.66545e-05
8.66522e-05
8.6651e-05
8.66509e-05
8.66519e-05
8.6654e-05
8.66572e-05
8.66618e-05
8.6668e-05
8.66742e-05
8.66731e-05
8.66455e-05
8.65482e-05
8.62908e-05
8.56944e-05
8.44185e-05
8.18135e-05
7.66193e-05
6.73125e-05
7.66193e-05
0.000224747
0.000278756
0.000304598
0.000318033
0.000324948
0.000328281
0.000329682
0.00033009
0.000330025
0.000329771
0.000329481
0.000329239
0.000329067
0.000328958
0.00032889
0.000328848
0.000328828
0.000328828
0.000328848
0.000328889
0.000328955
0.000329053
0.00032919
0.000329339
0.000329382
0.00032904
0.000327766
0.000324581
0.000317797
0.000304459
0.000278678
0.000224707
7.662e-05
8.18176e-05
0.000278782
0.000355005
0.00039261
0.000412724
0.000423389
0.000428652
0.000430842
0.000431351
0.000431013
0.000430337
0.000429633
0.000429067
0.000428687
0.000428458
0.00042832
0.000428237
0.000428198
0.000428198
0.000428238
0.000428319
0.000428451
0.000428656
0.000428969
0.000429353
0.000429603
0.000429234
0.00042735
0.000422453
0.000412125
0.000392267
0.000354832
0.00027871
8.18184e-05
8.44282e-05
0.000304642
0.000392632
0.000437067
0.000461319
0.000474361
0.000480745
0.000483141
0.00048322
0.000482075
0.000480469
0.000478927
0.000477737
0.000476975
0.000476537
0.000476271
0.000476109
0.000476031
0.000476032
0.00047611
0.00047627
0.000476526
0.000476929
0.000477591
0.00047852
0.000479431
0.000479629
0.000477882
0.000472289
0.00045998
0.000436296
0.000392243
0.000304487
8.44269e-05
8.5711e-05
0.000318089
0.00041277
0.000461352
0.000488163
0.000502544
0.000509229
0.000511028
0.000509784
0.000506865
0.000503402
0.000500288
0.000497988
0.000496602
0.000495857
0.000495381
0.000495076
0.000494928
0.000494928
0.000495077
0.00049538
0.000495843
0.000496545
0.000497807
0.000499784
0.000502125
0.000503895
0.000503416
0.000498335
0.000485431
0.000459762
0.000411957
0.000317761
8.57028e-05
8.63159e-05
0.000325021
0.000423477
0.000474469
0.000502653
0.000517409
0.000523427
0.000523471
0.00051946
0.000513096
0.000506199
0.000500434
0.000496388
0.000494162
0.000493093
0.000492306
0.000491763
0.000491497
0.000491499
0.000491765
0.000492306
0.000493079
0.000494102
0.000496191
0.000499875
0.000504766
0.00050976
0.000512349
0.00050946
0.000497513
0.000471468
0.000421922
0.000324379
8.62924e-05
8.65829e-05
0.000328385
0.000428826
0.000481026
0.000509627
0.000523825
0.000528029
0.000524696
0.00051559
0.000502835
0.000489777
0.000480302
0.0004741
0.000471162
0.000470077
0.000468861
0.00046795
0.000467517
0.000467519
0.000467953
0.000468863
0.000470067
0.000471109
0.000473913
0.000479742
0.000488288
0.000499287
0.000507984
0.000509778
0.000500687
0.000475834
0.000426119
0.000327245
8.65325e-05
8.66899e-05
0.000329848
0.000431187
0.000483781
0.000512064
0.00052486
0.000525993
0.000517097
0.000499047
0.000473996
0.000448969
0.000437331
0.000430537
0.000428205
0.000428167
0.000426399
0.000425036
0.000424439
0.00042444
0.000425039
0.000426402
0.000428163
0.000428168
0.000430387
0.000436839
0.000447549
0.000470391
0.000491135
0.000501562
0.000497695
0.000475567
0.000426913
0.000328023
8.65995e-05
8.67258e-05
0.000330369
0.000432003
0.000484508
0.000512024
0.000522839
0.000519796
0.000502674
0.000469015
0.000416865
0.000358727
0.000364276
0.000366917
0.000369314
0.000372303
0.000370063
0.000368506
0.00036792
0.000367921
0.000368508
0.000370067
0.000372306
0.000369298
0.000366832
0.000363947
0.000357619
0.000413418
0.000460938
0.000486694
0.000490837
0.000472718
0.000425922
0.000327754
8.65873e-05
8.67334e-05
0.000330484
0.000432147
0.000484395
0.000511073
0.000519886
0.000512361
0.000484864
0.000424983
0.000301854
0.000101454
0.000242277
0.000290989
0.000305636
0.000312815
0.000311084
0.000310136
0.000309864
0.000309865
0.000310139
0.000311088
0.000312823
0.000305642
0.000290986
0.00024227
0.000101301
0.000299101
0.000416904
0.000468558
0.000482943
0.000469242
0.000424429
0.000327152
8.65506e-05
8.67326e-05
0.000330476
0.000432127
0.000484209
0.00051039
0.000518017
0.000507643
0.000472003
0.000380166
0.000104422
9.07693e-05
0.000230556
0.000258269
0.000263989
0.000266959
0.000267958
0.000268188
0.000268189
0.000267961
0.000266966
0.000263998
0.000258284
0.000230585
9.07715e-05
0.000103904
0.000372423
0.00045555
0.000477991
0.000467114
0.00042348
0.00032673
8.65254e-05
8.67317e-05
0.000330474
0.000432185
0.000484326
0.000510596
0.000518497
0.000509297
0.000479091
0.000415404
0.000288451
9.75446e-05
0.000206292
0.000239577
0.000246221
0.000241737
0.000250066
0.000252969
0.000253538
0.000253538
0.00025297
0.000250069
0.000241731
0.000246212
0.000239556
0.000206235
9.73759e-05
0.000285663
0.000407263
0.000462668
0.000479685
0.000467585
0.000423624
0.000326732
8.65287e-05
8.67327e-05
0.000330515
0.000432363
0.000484753
0.000511519
0.000520517
0.000513989
0.000490945
0.000448083
0.000382826
0.000308737
0.000287997
0.00026805
0.00026019
0.000255918
0.000257777
0.000258704
0.00025891
0.000258909
0.000258702
0.000257772
0.000255901
0.000260155
0.000267955
0.000287687
0.000307665
0.000379375
0.00043989
0.000474675
0.000484546
0.000469727
0.000424595
0.000327101
8.65547e-05
8.67346e-05
0.000330582
0.000432603
0.000485313
0.000512696
0.000522906
0.000518808
0.00050076
0.000468135
0.000421795
0.000368811
0.000323861
0.000285315
0.000269329
0.00026361
0.000262456
0.000262263
0.000262223
0.000262223
0.000262262
0.00026245
0.000263594
0.000269287
0.000285191
0.000323458
0.000367508
0.00041819
0.000459967
0.000484621
0.000489522
0.000472244
0.000425836
0.000327611
8.65876e-05
8.67363e-05
0.000330651
0.000432832
0.000485836
0.000513761
0.000524939
0.000522531
0.000507338
0.000479234
0.000438865
0.000389889
0.0003393
0.000293952
0.000274019
0.000266847
0.000264674
0.000264094
0.000263962
0.000263963
0.000264093
0.00026467
0.000266833
0.000273977
0.000293822
0.000338874
0.000388522
0.00043521
0.00047108
0.000491269
0.000493337
0.000474357
0.000426935
0.000328079
8.66153e-05
8.67369e-05
0.000330705
0.000433008
0.000486232
0.000514544
0.00052637
0.000524978
0.000511264
0.000485082
0.000446662
0.000398443
0.00034601
0.000298039
0.000276344
0.000268359
0.000265806
0.000265095
0.000264935
0.000264936
0.000265095
0.000265803
0.000268346
0.000276302
0.000297911
0.000345588
0.000397053
0.000442982
0.000476923
0.000495216
0.000495819
0.000475818
0.00042772
0.000328417
8.66333e-05
8.67367e-05
0.000330739
0.00043312
0.000486481
0.000515027
0.000527225
0.000526373
0.000513363
0.000487964
0.000450172
0.000402022
0.000348821
0.000299832
0.000277395
0.000269041
0.000266337
0.000265579
0.000265412
0.000265412
0.00026558
0.000266335
0.000269029
0.000277354
0.000299703
0.000348406
0.000400619
0.000446475
0.000479793
0.000497313
0.000497218
0.000476674
0.00042819
0.000328619
8.66426e-05
8.67359e-05
0.000330754
0.000433173
0.000486599
0.000515253
0.000527616
0.000526992
0.000514259
0.000489135
0.000451523
0.000403337
0.000349844
0.000300493
0.000277785
0.000269292
0.000266533
0.00026576
0.000265591
0.000265592
0.000265761
0.000266532
0.000269281
0.000277744
0.000300363
0.000349424
0.000401928
0.000447817
0.000480956
0.000498203
0.000497833
0.00047706
0.000428403
0.000328711
8.66457e-05
8.67351e-05
0.000330754
0.000433174
0.000486603
0.000515259
0.000527624
0.000527003
0.000514273
0.000489151
0.000451541
0.000403356
0.000349863
0.000300517
0.000277799
0.0002693
0.000266538
0.000265764
0.000265595
0.000265596
0.000265766
0.000266536
0.000269288
0.000277758
0.000300387
0.000349443
0.000401946
0.000447836
0.000480973
0.000498217
0.000497844
0.000477067
0.000428408
0.000328712
8.66446e-05
8.67345e-05
0.000330739
0.000433125
0.000486492
0.000515043
0.000527248
0.000526404
0.000513404
0.000488014
0.000450229
0.000402081
0.000348881
0.000299908
0.000277444
0.00026907
0.000266357
0.000265599
0.000265433
0.000265435
0.000265601
0.000266357
0.00026906
0.000277405
0.000299781
0.000348465
0.000400679
0.000446534
0.000479844
0.000497354
0.000497248
0.000476696
0.000428202
0.000328622
8.66399e-05
8.6734e-05
0.000330704
0.000433015
0.000486246
0.000514566
0.000526403
0.000525025
0.00051133
0.000485167
0.000446765
0.000398557
0.000346125
0.000298186
0.000276447
0.00026843
0.000265864
0.000265153
0.000264996
0.000264998
0.000265156
0.000265866
0.000268423
0.000276413
0.000298068
0.000345721
0.000397172
0.000443089
0.000477009
0.00049528
0.000495864
0.000475848
0.000427737
0.00032842
8.66297e-05
8.67329e-05
0.000330646
0.000432834
0.000485845
0.000513778
0.000524969
0.00052258
0.000507417
0.000479353
0.00043903
0.000390094
0.000339555
0.000294205
0.000274203
0.000266988
0.000264797
0.000264217
0.000264091
0.000264093
0.000264223
0.000264804
0.000266988
0.000274178
0.0002941
0.000339159
0.000388741
0.000435381
0.000471194
0.000491337
0.000493377
0.000474382
0.000426947
0.000328078
8.66113e-05
8.67306e-05
0.000330564
0.000432583
0.000485289
0.000512673
0.00052289
0.000518815
0.000500813
0.000468269
0.000422044
0.000369172
0.000324294
0.000285677
0.000269572
0.000263805
0.000262614
0.000262418
0.000262385
0.000262389
0.000262428
0.000262627
0.000263812
0.000269556
0.000285591
0.000323947
0.000367901
0.000418446
0.000460072
0.000484632
0.000489498
0.000472218
0.000425816
0.000327592
8.65828e-05
8.67269e-05
0.000330461
0.000432275
0.000484627
0.000511363
0.000520345
0.000513828
0.000490849
0.000448149
0.000383181
0.000309347
0.000288623
0.00026829
0.000260165
0.00025581
0.000257569
0.000258483
0.000258699
0.000258703
0.000258495
0.000257582
0.000255802
0.000260122
0.000268202
0.000288397
0.000308345
0.000379753
0.000439848
0.000474441
0.000484295
0.000469533
0.000424469
0.000327028
8.65474e-05
8.67207e-05
0.00033032
0.000431908
0.000483928
0.000510089
0.000517903
0.000508658
0.000478501
0.0004151
0.000288916
9.76665e-05
0.000206503
0.000238295
0.000244196
0.000239331
0.000247487
0.000250386
0.000250967
0.000250966
0.000250376
0.00024744
0.000239174
0.000243905
0.000237944
0.000206522
9.74974e-05
0.000286197
0.000406591
0.000461673
0.000478807
0.000466948
0.000423221
0.000326518
8.65142e-05
8.67068e-05
0.000330068
0.000431386
0.000483155
0.000509052
0.000516424
0.000505824
0.000470044
0.000378451
0.000104126
8.95399e-05
0.000223207
0.000248749
0.000253116
0.000255855
0.000256894
0.00025716
0.000257141
0.000256807
0.000255594
0.000252456
0.000247432
0.000221296
8.90121e-05
0.000103336
0.000369448
0.000452525
0.000475627
0.000465464
0.000422438
0.000326184
8.64924e-05
8.66684e-05
0.000329468
0.000430344
0.000481897
0.000507952
0.000516173
0.000508007
0.000479734
0.000419026
0.000295857
9.94903e-05
0.000225099
0.000267214
0.000275811
0.000278736
0.000276888
0.000276271
0.000276164
0.000276113
0.000276038
0.000276172
0.000276846
0.000271576
0.000259616
0.000217279
9.80024e-05
0.000288542
0.000407026
0.000460999
0.000477541
0.000465539
0.000422049
0.000325882
8.64727e-05
8.65635e-05
0.000328004
0.000427959
0.000479075
0.000505393
0.000515071
0.000510709
0.000491699
0.000455026
0.000397997
0.00033231
0.000323889
0.000312164
0.000298587
0.000292294
0.000289191
0.000288148
0.000287865
0.000287778
0.000287745
0.000287889
0.000288548
0.00028913
0.000293001
0.000303043
0.000314839
0.000382238
0.000439072
0.000471494
0.000480215
0.000465305
0.000420972
0.000325006
8.64062e-05
8.63011e-05
0.000324696
0.000422742
0.000472798
0.000499014
0.000509937
0.00050895
0.000496965
0.000473743
0.000439855
0.000400513
0.000367774
0.000333921
0.000301329
0.000287806
0.000283038
0.000281538
0.00028111
0.000281002
0.000281024
0.000281316
0.000282544
0.000286674
0.000299894
0.000333685
0.000372229
0.000417609
0.000454632
0.000475889
0.000479117
0.000461943
0.000417298
0.000322395
8.61881e-05
8.5702e-05
0.000317845
0.000412238
0.000460124
0.000485442
0.000496894
0.000498247
0.000490994
0.000475474
0.000451891
0.000421505
0.000386899
0.000348484
0.000311527
0.000295669
0.000289987
0.000288142
0.000287595
0.000287469
0.000287551
0.000288029
0.000289764
0.000295316
0.000311355
0.000349477
0.000390317
0.000427857
0.00045585
0.000470655
0.000470347
0.000452059
0.000408295
0.000316216
8.56293e-05
8.44243e-05
0.000304475
0.000392302
0.00043629
0.000459537
0.000470554
0.000473177
0.000469082
0.00045873
0.000442039
0.000419112
0.00039093
0.000359793
0.000331687
0.000317612
0.000311921
0.000309899
0.000309252
0.000309102
0.000309238
0.000309859
0.000311851
0.000317549
0.000331837
0.000360537
0.0003926
0.000421144
0.000441608
0.00045143
0.000448821
0.000430745
0.000389687
0.000303424
8.43836e-05
8.18179e-05
0.000278678
0.000354837
0.000392207
0.00041174
0.000421177
0.000424072
0.000422046
0.000415587
0.000404588
0.000388943
0.00036929
0.000347808
0.000328957
0.000318319
0.000313547
0.00031169
0.000311049
0.0003109
0.000311054
0.000311697
0.000313559
0.000318362
0.000329118
0.000348229
0.000369988
0.000389331
0.000402882
0.000408647
0.000404945
0.000388832
0.000353319
0.000278084
8.18001e-05
7.66224e-05
0.000224698
0.000278706
0.000304465
0.00031765
0.000323993
0.000326162
0.000325399
0.000322097
0.000316189
0.000307563
0.00029658
0.000284598
0.000274119
0.000267744
0.000264663
0.000263389
0.000262929
0.000262823
0.000262943
0.000263417
0.000264706
0.000267814
0.000274251
0.000284838
0.00029689
0.000307563
0.000314865
0.000317523
0.000314287
0.000302882
0.000278036
0.000224441
7.66189e-05
6.73149e-05
7.66223e-05
8.18225e-05
8.44329e-05
8.57083e-05
8.62884e-05
8.64953e-05
8.64768e-05
8.62784e-05
8.58906e-05
8.52908e-05
8.44898e-05
8.35852e-05
8.27766e-05
8.22686e-05
8.20193e-05
8.19158e-05
8.18782e-05
8.18693e-05
8.18791e-05
8.19174e-05
8.20213e-05
8.22713e-05
8.27817e-05
8.35961e-05
8.45051e-05
8.52859e-05
8.57896e-05
8.59175e-05
8.55366e-05
8.43647e-05
8.18007e-05
7.66181e-05
6.73193e-05
7.0679e-05
8.35571e-05
9.06282e-05
9.42476e-05
9.60904e-05
9.69957e-05
9.74112e-05
9.75803e-05
9.76312e-05
9.76287e-05
9.76056e-05
9.75785e-05
9.75557e-05
9.75398e-05
9.75297e-05
9.75233e-05
9.75194e-05
9.75174e-05
9.75174e-05
9.75192e-05
9.7523e-05
9.75289e-05
9.75378e-05
9.75503e-05
9.75632e-05
9.75638e-05
9.75197e-05
9.73634e-05
9.69624e-05
9.60699e-05
9.42365e-05
9.0623e-05
8.35555e-05
7.06801e-05
8.35572e-05
0.000295821
0.000379595
0.000420632
0.000442399
0.00045387
0.000459541
0.000461976
0.000462677
0.000462514
0.000461991
0.000461396
0.000460892
0.000460531
0.000460298
0.00046015
0.00046006
0.000460017
0.000460017
0.000460059
0.000460146
0.000460285
0.000460494
0.000460784
0.000461099
0.000461222
0.000460653
0.00045847
0.00045309
0.000441882
0.000420315
0.000379411
0.000295728
8.35554e-05
9.06308e-05
0.000379639
0.000505524
0.000569504
0.000604297
0.000623043
0.000632443
0.000636393
0.000637267
0.000636538
0.00063514
0.000633671
0.000632471
0.000631653
0.000631153
0.000630846
0.000630663
0.000630577
0.000630577
0.000630663
0.000630841
0.00063113
0.000631579
0.000632253
0.000633081
0.000633661
0.000633083
0.000629747
0.000621077
0.000603007
0.000568738
0.000505116
0.000379461
9.06268e-05
9.42532e-05
0.000420708
0.000569547
0.000647148
0.000690139
0.000713541
0.000725118
0.000729463
0.00072949
0.000727162
0.000723887
0.000720688
0.000718179
0.000716553
0.000715609
0.000715026
0.000714671
0.000714502
0.000714503
0.00071467
0.000715018
0.000715577
0.000716444
0.00071786
0.000719836
0.000721789
0.000722375
0.000719336
0.000709317
0.00068736
0.000645499
0.00056868
0.000420348
9.42427e-05
9.60987e-05
0.000442502
0.000604393
0.000690212
0.000738246