/*--------------------------------*- C++ -*----------------------------------*\
| =========                 |                                                 |
| \\      /  F ield         | OpenFOAM: The Open Source CFD Toolbox           |
|  \\    /   O peration     | Version:  2112                                  |
|   \\  /    A nd           | Website:  www.openfoam.com                      |
|    \\/     M anipulation  |                                                 |
\*---------------------------------------------------------------------------*/
FoamFile
{
    version     2.0;
    format      ascii;
    arch        "LSB;label=32;scalar=64";
    class       volScalarField;
    location    "3.6";
    object      p;
}
// * * * * * * * * * * * * * * * * * * * * * * * * * * * * * * * * * * * * * //

dimensions      [0 2 -2 0 0 0 0];

internalField   nonuniform List<scalar> 
64906
(
-5.32181e-06
-5.30382e-06
-5.29014e-06
-5.29042e-06
-5.31115e-06
-5.35993e-06
-5.43802e-06
-5.53508e-06
-5.65476e-06
-5.79497e-06
-5.94876e-06
-6.11436e-06
-6.27227e-06
-6.4246e-06
-6.54952e-06
-6.6501e-06
-6.72461e-06
-6.77184e-06
-6.79135e-06
-6.7833e-06
-6.7485e-06
-6.68858e-06
-6.60581e-06
-6.49824e-06
-6.38633e-06
-6.26392e-06
-6.15527e-06
-6.0625e-06
-5.98431e-06
-5.93637e-06
-5.91939e-06
-5.92367e-06
-5.94066e-06
-5.95971e-06
-5.26622e-06
-5.19656e-06
-5.14185e-06
-5.10276e-06
-5.08909e-06
-5.10115e-06
-5.13663e-06
-5.19174e-06
-5.26342e-06
-5.34808e-06
-5.43743e-06
-5.51787e-06
-5.61043e-06
-5.69894e-06
-5.77334e-06
-5.83474e-06
-5.88179e-06
-5.91444e-06
-5.93246e-06
-5.936e-06
-5.9256e-06
-5.90157e-06
-5.86556e-06
-5.8166e-06
-5.76468e-06
-5.72965e-06
-5.6863e-06
-5.64952e-06
-5.62835e-06
-5.62981e-06
-5.65912e-06
-5.71696e-06
-5.79483e-06
-5.88246e-06
-5.23935e-06
-5.13236e-06
-5.03028e-06
-4.94489e-06
-4.89289e-06
-4.87302e-06
-4.8823e-06
-4.91766e-06
-4.97502e-06
-5.05162e-06
-5.13684e-06
-5.22642e-06
-5.30867e-06
-5.38272e-06
-5.44158e-06
-5.48904e-06
-5.52499e-06
-5.55122e-06
-5.56806e-06
-5.57563e-06
-5.57391e-06
-5.56137e-06
-5.53848e-06
-5.50175e-06
-5.4589e-06
-5.41188e-06
-5.37306e-06
-5.34802e-06
-5.35028e-06
-5.38591e-06
-5.46169e-06
-5.58034e-06
-5.71873e-06
-5.85731e-06
-5.24317e-06
-5.10166e-06
-4.95553e-06
-4.82658e-06
-4.74105e-06
-4.69895e-06
-4.69854e-06
-4.73905e-06
-4.81793e-06
-4.9356e-06
-5.07562e-06
-5.23243e-06
-5.36345e-06
-5.47225e-06
-5.54981e-06
-5.60782e-06
-5.64816e-06
-5.67562e-06
-5.69131e-06
-5.69535e-06
-5.68691e-06
-5.6614e-06
-5.6175e-06
-5.54393e-06
-5.45104e-06
-5.33616e-06
-5.24503e-06
-5.18492e-06
-5.17701e-06
-5.22519e-06
-5.3348e-06
-5.5067e-06
-5.7007e-06
-5.88545e-06
-5.29195e-06
-5.12111e-06
-4.93943e-06
-4.77788e-06
-4.67222e-06
-4.6258e-06
-4.64073e-06
-4.72192e-06
-4.87211e-06
-5.1004e-06
-5.38172e-06
-5.70919e-06
-5.9706e-06
-6.17755e-06
-6.31715e-06
-6.41714e-06
-6.48182e-06
-6.52064e-06
-6.53554e-06
-6.52657e-06
-6.49206e-06
-6.42268e-06
-6.3149e-06
-6.14148e-06
-5.9175e-06
-5.63221e-06
-5.40404e-06
-5.24083e-06
-5.17426e-06
-5.20066e-06
-5.32019e-06
-5.52633e-06
-5.76339e-06
-5.98726e-06
-5.38801e-06
-5.18973e-06
-4.97685e-06
-4.79332e-06
-4.68121e-06
-4.64882e-06
-4.70406e-06
-4.86103e-06
-5.1327e-06
-5.54654e-06
-6.07264e-06
-6.72362e-06
-7.21167e-06
-7.58468e-06
-7.82855e-06
-8.00181e-06
-8.11062e-06
-8.17105e-06
-8.18555e-06
-8.15409e-06
-8.07438e-06
-7.9303e-06
-7.71666e-06
-7.37544e-06
-6.92431e-06
-6.31538e-06
-5.84886e-06
-5.50829e-06
-5.33339e-06
-5.30348e-06
-5.40942e-06
-5.63296e-06
-5.90446e-06
-6.16621e-06
-5.52976e-06
-5.30576e-06
-5.05572e-06
-4.86143e-06
-4.75493e-06
-4.75253e-06
-4.86883e-06
-5.12918e-06
-5.5618e-06
-6.23221e-06
-7.0967e-06
-8.32553e-06
-9.1358e-06
-9.73314e-06
-1.0111e-05
-1.03808e-05
-1.0548e-05
-1.06377e-05
-1.06522e-05
-1.05914e-05
-1.04529e-05
-1.02113e-05
-9.86205e-06
-9.29415e-06
-8.52045e-06
-7.33078e-06
-6.53713e-06
-5.94777e-06
-5.62454e-06
-5.51082e-06
-5.58432e-06
-5.81383e-06
-6.11622e-06
-6.42019e-06
-5.71099e-06
-5.44644e-06
-5.18262e-06
-4.97425e-06
-4.88292e-06
-4.92563e-06
-5.12079e-06
-5.49983e-06
-6.10868e-06
-7.04953e-06
-8.27352e-06
-1.05677e-05
-1.17349e-05
-1.26048e-05
-1.31427e-05
-1.35345e-05
-1.37767e-05
-1.39046e-05
-1.39195e-05
-1.38212e-05
-1.36081e-05
-1.32437e-05
-1.27329e-05
-1.18886e-05
-1.07577e-05
-8.49123e-06
-7.36279e-06
-6.5072e-06
-6.0181e-06
-5.80448e-06
-5.82985e-06
-6.05576e-06
-6.38959e-06
-6.74412e-06
-5.9376e-06
-5.61842e-06
-5.33131e-06
-5.11589e-06
-5.04949e-06
-5.15018e-06
-5.43548e-06
-5.93373e-06
-6.65491e-06
-7.7783e-06
-9.36082e-06
-1.36136e-05
-1.48446e-05
-1.59689e-05
-1.66586e-05
-1.71615e-05
-1.74724e-05
-1.76362e-05
-1.76518e-05
-1.75188e-05
-1.72378e-05
-1.67622e-05
-1.60981e-05
-1.49921e-05
-1.37981e-05
-9.55864e-06
-8.13687e-06
-7.07323e-06
-6.47395e-06
-6.15699e-06
-6.12496e-06
-6.34445e-06
-6.7043e-06
-7.12821e-06
-6.18205e-06
-5.80862e-06
-5.49723e-06
-5.28342e-06
-5.26057e-06
-5.44872e-06
-5.86663e-06
-6.51754e-06
-7.44146e-06
-9.7522e-06
-7.82591e-06
-1.67366e-05
-1.79701e-05
-1.95788e-05
-2.04913e-05
-2.11689e-05
-2.15878e-05
-2.18042e-05
-2.18205e-05
-2.16363e-05
-2.12486e-05
-2.05995e-05
-1.97132e-05
-1.81175e-05
-1.6948e-05
-7.92393e-06
-1.0082e-05
-7.82931e-06
-7.06334e-06
-6.61165e-06
-6.48235e-06
-6.6729e-06
-7.05536e-06
-7.57166e-06
-6.43964e-06
-6.00491e-06
-5.66617e-06
-5.45677e-06
-5.48797e-06
-5.78214e-06
-6.32053e-06
-6.95106e-06
-7.56543e-06
-5.44858e-06
-2.46465e-05
-2.2105e-05
-2.30774e-05
-2.39125e-05
-2.4639e-05
-2.51183e-05
-2.5361e-05
-2.53776e-05
-2.51677e-05
-2.47203e-05
-2.4023e-05
-2.32112e-05
-2.22448e-05
-2.47091e-05
-6.09191e-06
-8.08663e-06
-7.53518e-06
-7.08495e-06
-6.86192e-06
-7.00812e-06
-7.41425e-06
-8.05205e-06
-6.70302e-06
-6.20037e-06
-5.8369e-06
-5.64297e-06
-5.76265e-06
-6.26622e-06
-7.26067e-06
-8.8931e-06
-1.15675e-05
-1.49492e-05
-2.23599e-05
-2.11832e-05
-2.38605e-05
-2.5782e-05
-2.72234e-05
-2.82998e-05
-2.89625e-05
-2.92781e-05
-2.92947e-05
-2.90128e-05
-2.83845e-05
-2.73437e-05
-2.59411e-05
-2.40663e-05
-2.14352e-05
-2.27302e-05
-1.52769e-05
-1.19546e-05
-9.39749e-06
-7.98871e-06
-7.36136e-06
-7.37312e-06
-7.76831e-06
-8.54935e-06
-6.96792e-06
-6.37498e-06
-5.9887e-06
-5.79764e-06
-5.97063e-06
-6.59258e-06
-7.77775e-06
-9.6216e-06
-1.223e-05
-1.52628e-05
-2.02565e-05
-2.29678e-05
-2.54109e-05
-2.75277e-05
-2.92084e-05
-3.04005e-05
-3.1136e-05
-3.14861e-05
-3.15023e-05
-3.11849e-05
-3.04831e-05
-2.93262e-05
-2.76832e-05
-2.56015e-05
-2.31836e-05
-2.05408e-05
-1.55884e-05
-1.25868e-05
-1.00918e-05
-8.49053e-06
-7.71467e-06
-7.67811e-06
-8.10576e-06
-9.00074e-06
-7.21101e-06
-6.53806e-06
-6.1263e-06
-5.93027e-06
-6.13561e-06
-6.83365e-06
-8.13953e-06
-1.0143e-05
-1.29337e-05
-1.63358e-05
-2.04782e-05
-2.36508e-05
-2.65112e-05
-2.88328e-05
-3.06403e-05
-3.18686e-05
-3.26164e-05
-3.29671e-05
-3.29825e-05
-3.26631e-05
-3.19478e-05
-3.07536e-05
-2.89835e-05
-2.66976e-05
-2.38765e-05
-2.0735e-05
-1.66092e-05
-1.32493e-05
-1.05853e-05
-8.84719e-06
-7.9915e-06
-7.94256e-06
-8.41294e-06
-9.40762e-06
-7.41344e-06
-6.68721e-06
-6.24348e-06
-6.03113e-06
-6.24306e-06
-6.97002e-06
-8.32058e-06
-1.03772e-05
-1.3201e-05
-1.6639e-05
-2.05266e-05
-2.40126e-05
-2.71466e-05
-2.956e-05
-3.14048e-05
-3.26227e-05
-3.33543e-05
-3.36927e-05
-3.37074e-05
-3.33987e-05
-3.2698e-05
-3.15125e-05
-2.97038e-05
-2.73245e-05
-2.42302e-05
-2.07609e-05
-1.68885e-05
-1.34952e-05
-1.0808e-05
-9.03738e-06
-8.17282e-06
-8.14821e-06
-8.67072e-06
-9.75259e-06
-7.57893e-06
-6.81219e-06
-6.34066e-06
-6.10979e-06
-6.31771e-06
-7.05362e-06
-8.42045e-06
-1.04974e-05
-1.33319e-05
-1.67913e-05
-2.06439e-05
-2.42756e-05
-2.75573e-05
-3.00263e-05
-3.18841e-05
-3.30824e-05
-3.37918e-05
-3.41156e-05
-3.41299e-05
-3.3835e-05
-3.31556e-05
-3.19887e-05
-3.01661e-05
-2.77313e-05
-2.45036e-05
-2.08677e-05
-1.70277e-05
-1.36156e-05
-1.09267e-05
-9.15375e-06
-8.30235e-06
-8.31061e-06
-8.88027e-06
-1.0031e-05
-7.7059e-06
-6.90879e-06
-6.41581e-06
-6.16812e-06
-6.36773e-06
-7.10271e-06
-8.47283e-06
-1.05574e-05
-1.34e-05
-1.68852e-05
-2.0764e-05
-2.44948e-05
-2.78471e-05
-3.0347e-05
-3.22101e-05
-3.33951e-05
-3.40899e-05
-3.44044e-05
-3.44189e-05
-3.41338e-05
-3.3469e-05
-3.23154e-05
-3.04866e-05
-2.80171e-05
-2.46991e-05
-2.09803e-05
-1.71163e-05
-1.3681e-05
-1.09914e-05
-9.22463e-06
-8.39188e-06
-8.43114e-06
-9.03841e-06
-1.02396e-05
-7.79328e-06
-6.97642e-06
-6.46992e-06
-6.21107e-06
-6.4048e-06
-7.13909e-06
-8.513e-06
-1.0607e-05
-1.34643e-05
-1.69781e-05
-2.08929e-05
-2.46827e-05
-2.8086e-05
-3.06124e-05
-3.24856e-05
-3.36696e-05
-3.43607e-05
-3.46725e-05
-3.46879e-05
-3.44072e-05
-3.37477e-05
-3.25963e-05
-3.07585e-05
-2.82643e-05
-2.49001e-05
-2.11145e-05
-1.72114e-05
-1.37477e-05
-1.10477e-05
-9.28027e-06
-8.45768e-06
-8.5163e-06
-9.14709e-06
-1.03797e-05
-7.84068e-06
-7.01492e-06
-6.50317e-06
-6.24016e-06
-6.43265e-06
-7.16922e-06
-8.55085e-06
-1.06586e-05
-1.35369e-05
-1.70801e-05
-2.10294e-05
-2.48556e-05
-2.82893e-05
-3.08381e-05
-3.27263e-05
-3.39206e-05
-3.46182e-05
-3.4934e-05
-3.4951e-05
-3.46696e-05
-3.40064e-05
-3.28469e-05
-3.09955e-05
-2.84793e-05
-2.50823e-05
-2.12592e-05
-1.73198e-05
-1.3826e-05
-1.11062e-05
-9.32838e-06
-8.50406e-06
-8.56783e-06
-9.20721e-06
-1.04529e-05
-7.8485e-06
-7.0247e-06
-6.516e-06
-6.25578e-06
-6.45183e-06
-7.19489e-06
-8.58637e-06
-1.0711e-05
-1.36153e-05
-1.71885e-05
-2.1173e-05
-2.50173e-05
-2.84594e-05
-3.10239e-05
-3.29302e-05
-3.41447e-05
-3.48582e-05
-3.5184e-05
-3.52033e-05
-3.49164e-05
-3.42414e-05
-3.30651e-05
-3.11978e-05
-2.86661e-05
-2.52585e-05
-2.14155e-05
-1.7439e-05
-1.39131e-05
-1.11653e-05
-9.36855e-06
-8.5313e-06
-8.58652e-06
-9.21993e-06
-1.04606e-05
-7.81822e-06
-7.00715e-06
-6.50936e-06
-6.25718e-06
-6.45827e-06
-7.20559e-06
-8.6063e-06
-1.07472e-05
-1.36823e-05
-1.72888e-05
-2.13248e-05
-2.51709e-05
-2.85906e-05
-3.1161e-05
-3.30856e-05
-3.43294e-05
-3.50675e-05
-3.54092e-05
-3.54318e-05
-3.51354e-05
-3.44416e-05
-3.32413e-05
-3.13587e-05
-2.88209e-05
-2.54267e-05
-2.15854e-05
-1.75572e-05
-1.39956e-05
-1.12132e-05
-9.39326e-06
-8.53652e-06
-8.57287e-06
-9.18724e-06
-1.04048e-05
-7.75085e-06
-6.96464e-06
-6.48384e-06
-6.24081e-06
-6.44189e-06
-7.18213e-06
-8.57523e-06
-1.07138e-05
-1.36696e-05
-1.73119e-05
-2.14672e-05
-2.52903e-05
-2.86315e-05
-3.11783e-05
-3.31057e-05
-3.43791e-05
-3.51462e-05
-3.55079e-05
-3.55349e-05
-3.52271e-05
-3.45128e-05
-3.3291e-05
-3.14123e-05
-2.89035e-05
-2.55878e-05
-2.17591e-05
-1.76101e-05
-1.40105e-05
-1.1202e-05
-9.37327e-06
-8.5057e-06
-8.52286e-06
-9.10986e-06
-1.02879e-05
-7.6424e-06
-6.90922e-06
-6.44463e-06
-6.20801e-06
-6.39922e-06
-7.11288e-06
-8.46826e-06
-1.05661e-05
-1.35195e-05
-1.71917e-05
-2.16626e-05
-2.53836e-05
-2.85343e-05
-3.10195e-05
-3.29241e-05
-3.42181e-05
-3.50093e-05
-3.53902e-05
-3.54236e-05
-3.51099e-05
-3.43847e-05
-3.31562e-05
-3.13118e-05
-2.88744e-05
-2.57433e-05
-2.20014e-05
-1.75478e-05
-1.39127e-05
-1.10977e-05
-9.29318e-06
-8.43611e-06
-8.44103e-06
-8.9952e-06
-1.01179e-05
-7.49285e-06
-6.85217e-06
-6.39167e-06
-6.15103e-06
-6.30921e-06
-6.95188e-06
-8.19272e-06
-1.01256e-05
-1.28481e-05
-1.60965e-05
-2.16772e-05
-2.56757e-05
-2.81994e-05
-3.04587e-05
-3.22463e-05
-3.35162e-05
-3.43085e-05
-3.47007e-05
-3.47435e-05
-3.4438e-05
-3.37315e-05
-3.25494e-05
-3.08414e-05
-2.86537e-05
-2.61679e-05
-2.20685e-05
-1.65111e-05
-1.33122e-05
-1.07305e-05
-9.07121e-06
-8.29191e-06
-8.31597e-06
-8.84405e-06
-9.90268e-06
-7.35729e-06
-6.76775e-06
-6.3294e-06
-6.08541e-06
-6.19947e-06
-6.74513e-06
-7.83784e-06
-9.63939e-06
-1.25975e-05
-1.6563e-05
-2.31756e-05
-2.40381e-05
-2.7292e-05
-2.96859e-05
-3.13454e-05
-3.25727e-05
-3.33421e-05
-3.37304e-05
-3.37886e-05
-3.35198e-05
-3.28705e-05
-3.17685e-05
-3.02135e-05
-2.79099e-05
-2.46711e-05
-2.35365e-05
-1.72318e-05
-1.326e-05
-1.03897e-05
-8.80873e-06
-8.12294e-06
-8.18013e-06
-8.68287e-06
-9.66228e-06
-7.2213e-06
-6.67872e-06
-6.25884e-06
-6.00211e-06
-6.04152e-06
-6.39426e-06
-7.0083e-06
-7.62792e-06
-8.12553e-06
-4.8381e-06
-3.11567e-05
-2.74109e-05
-2.84765e-05
-2.94902e-05
-3.0403e-05
-3.10354e-05
-3.13856e-05
-3.14622e-05
-3.12713e-05
-3.08039e-05
-3.00739e-05
-2.92118e-05
-2.83134e-05
-3.20149e-05
-5.46919e-06
-8.90367e-06
-8.50148e-06
-8.08744e-06
-7.82716e-06
-8.00744e-06
-8.53109e-06
-9.37678e-06
-7.09774e-06
-6.60017e-06
-6.20644e-06
-5.95873e-06
-5.98566e-06
-6.33252e-06
-7.07343e-06
-8.31486e-06
-1.03758e-05
-1.37424e-05
-1.47247e-05
-2.19182e-05
-2.42394e-05
-2.64673e-05
-2.7943e-05
-2.90792e-05
-2.98222e-05
-3.02385e-05
-3.03412e-05
-3.01422e-05
-2.96296e-05
-2.87553e-05
-2.74927e-05
-2.55362e-05
-2.32601e-05
-1.66774e-05
-1.53601e-05
-1.17441e-05
-9.51088e-06
-8.30217e-06
-7.81223e-06
-7.92166e-06
-8.3902e-06
-9.13609e-06
-6.9919e-06
-6.53759e-06
-6.17121e-06
-5.93597e-06
-5.94914e-06
-6.25411e-06
-6.906e-06
-7.95955e-06
-9.44907e-06
-1.14027e-05
-1.52745e-05
-2.0134e-05
-2.23643e-05
-2.44465e-05
-2.59767e-05
-2.71639e-05
-2.79382e-05
-2.83778e-05
-2.8499e-05
-2.83202e-05
-2.78285e-05
-2.69749e-05
-2.57042e-05
-2.39449e-05
-2.17783e-05
-1.7113e-05
-1.28571e-05
-1.08131e-05
-9.22998e-06
-8.19958e-06
-7.74851e-06
-7.83809e-06
-8.26679e-06
-8.95514e-06
-6.91159e-06
-6.50496e-06
-6.17511e-06
-5.96613e-06
-5.98374e-06
-6.27008e-06
-6.88419e-06
-7.90403e-06
-9.44822e-06
-1.15975e-05
-1.44126e-05
-1.78087e-05
-2.02943e-05
-2.24554e-05
-2.4056e-05
-2.52971e-05
-2.60976e-05
-2.65482e-05
-2.66763e-05
-2.65051e-05
-2.60146e-05
-2.51557e-05
-2.38608e-05
-2.20811e-05
-1.97196e-05
-1.64115e-05
-1.34062e-05
-1.10153e-05
-9.28369e-06
-8.22449e-06
-7.7585e-06
-7.81269e-06
-8.19355e-06
-8.83114e-06
-6.8809e-06
-6.51393e-06
-6.22929e-06
-6.05847e-06
-6.0905e-06
-6.36016e-06
-6.91701e-06
-7.82765e-06
-9.17204e-06
-1.10157e-05
-1.33374e-05
-1.5974e-05
-1.82822e-05
-2.03413e-05
-2.18969e-05
-2.3089e-05
-2.3854e-05
-2.42831e-05
-2.44101e-05
-2.42567e-05
-2.38038e-05
-2.30046e-05
-2.17812e-05
-2.01172e-05
-1.793e-05
-1.53289e-05
-1.28223e-05
-1.07502e-05
-9.22453e-06
-8.26069e-06
-7.82151e-06
-7.84905e-06
-8.17937e-06
-8.76245e-06
-6.89197e-06
-6.57241e-06
-6.35054e-06
-6.2381e-06
-6.30508e-06
-6.57674e-06
-7.08844e-06
-7.88697e-06
-9.02426e-06
-1.05342e-05
-1.23844e-05
-1.44584e-05
-1.64262e-05
-1.82407e-05
-1.96478e-05
-2.07211e-05
-2.14163e-05
-2.18063e-05
-2.19342e-05
-2.17963e-05
-2.13935e-05
-2.06828e-05
-1.95987e-05
-1.81434e-05
-1.62869e-05
-1.42263e-05
-1.22282e-05
-1.05331e-05
-9.24916e-06
-8.40999e-06
-8.00114e-06
-7.98786e-06
-8.24646e-06
-8.75515e-06
-6.94328e-06
-6.67849e-06
-6.54575e-06
-6.51554e-06
-6.64214e-06
-6.94328e-06
-7.44305e-06
-8.17121e-06
-9.15558e-06
-1.0408e-05
-1.18934e-05
-1.35368e-05
-1.51523e-05
-1.66583e-05
-1.78569e-05
-1.87751e-05
-1.93831e-05
-1.97305e-05
-1.9841e-05
-1.97276e-05
-1.93785e-05
-1.8768e-05
-1.78529e-05
-1.66451e-05
-1.51431e-05
-1.35215e-05
-1.19446e-05
-1.05715e-05
-9.49268e-06
-8.74704e-06
-8.33875e-06
-8.25218e-06
-8.40228e-06
-8.8098e-06
-6.99857e-06
-6.83354e-06
-6.78299e-06
-6.8404e-06
-7.04082e-06
-7.39881e-06
-7.93111e-06
-8.65424e-06
-9.57809e-06
-1.06983e-05
-1.19904e-05
-1.33947e-05
-1.47816e-05
-1.60727e-05
-1.71296e-05
-1.79495e-05
-1.85093e-05
-1.88351e-05
-1.89396e-05
-1.88326e-05
-1.85058e-05
-1.7946e-05
-1.71319e-05
-1.60811e-05
-1.48114e-05
-1.34517e-05
-1.21138e-05
-1.09325e-05
-9.96307e-06
-9.24486e-06
-8.79314e-06
-8.6052e-06
-8.63223e-06
-8.88758e-06
-7.05844e-06
-6.99363e-06
-7.02586e-06
-7.16168e-06
-7.43579e-06
-7.86923e-06
-8.48247e-06
-9.2923e-06
-1.03056e-05
-1.15113e-05
-1.28612e-05
-1.4284e-05
-1.56831e-05
-1.69835e-05
-1.80747e-05
-1.89355e-05
-1.9539e-05
-1.98936e-05
-2.00048e-05
-1.9878e-05
-1.95091e-05
-1.88929e-05
-1.8025e-05
-1.69315e-05
-1.56473e-05
-1.42829e-05
-1.2939e-05
-1.17014e-05
-1.0661e-05
-9.86063e-06
-9.3123e-06
-9.00699e-06
-8.90118e-06
-8.98874e-06
-5.37569e-06
-5.37915e-06
-5.39108e-06
-5.41496e-06
-5.45797e-06
-5.52083e-06
-5.60617e-06
-5.72404e-06
-5.86933e-06
-6.03909e-06
-6.22641e-06
-6.43122e-06
-6.61748e-06
-6.7836e-06
-6.93248e-06
-7.05345e-06
-7.14191e-06
-7.19656e-06
-7.21659e-06
-7.20216e-06
-7.15448e-06
-7.07519e-06
-6.96919e-06
-6.84684e-06
-6.70666e-06
-6.54953e-06
-6.4125e-06
-6.29428e-06
-6.20658e-06
-6.13938e-06
-6.09096e-06
-6.06131e-06
-6.0429e-06
-6.03013e-06
-5.33355e-06
-5.30722e-06
-5.29565e-06
-5.29156e-06
-5.30717e-06
-5.34571e-06
-5.40893e-06
-5.49752e-06
-5.60724e-06
-5.73466e-06
-5.86883e-06
-6.00637e-06
-6.13844e-06
-6.26249e-06
-6.36947e-06
-6.45776e-06
-6.52343e-06
-6.56623e-06
-6.58545e-06
-6.58123e-06
-6.55461e-06
-6.50613e-06
-6.44004e-06
-6.35808e-06
-6.26986e-06
-6.17862e-06
-6.09283e-06
-6.01579e-06
-5.95921e-06
-5.92477e-06
-5.91423e-06
-5.92481e-06
-5.9421e-06
-5.96885e-06
-5.3231e-06
-5.28867e-06
-5.26453e-06
-5.23826e-06
-5.23548e-06
-5.26251e-06
-5.32257e-06
-5.41699e-06
-5.54115e-06
-5.69499e-06
-5.85971e-06
-6.03811e-06
-6.19858e-06
-6.34785e-06
-6.46866e-06
-6.56625e-06
-6.63609e-06
-6.68059e-06
-6.69922e-06
-6.6921e-06
-6.66008e-06
-6.60098e-06
-6.5198e-06
-6.41152e-06
-6.29434e-06
-6.16193e-06
-6.04717e-06
-5.94748e-06
-5.88317e-06
-5.85422e-06
-5.86232e-06
-5.89961e-06
-5.9312e-06
-5.96534e-06
-5.34288e-06
-5.29317e-06
-5.25106e-06
-5.20208e-06
-5.18441e-06
-5.2085e-06
-5.28094e-06
-5.40713e-06
-5.58326e-06
-5.81701e-06
-6.07518e-06
-6.37151e-06
-6.62227e-06
-6.85023e-06
-7.02287e-06
-7.15774e-06
-7.24887e-06
-7.30356e-06
-7.32154e-06
-7.30287e-06
-7.24815e-06
-7.15024e-06
-7.01579e-06
-6.8275e-06
-6.61962e-06
-6.36966e-06
-6.16485e-06
-5.99145e-06
-5.88594e-06
-5.84085e-06
-5.8558e-06
-5.91526e-06
-5.96488e-06
-6.01517e-06
-5.40789e-06
-5.33902e-06
-5.28124e-06
-5.21738e-06
-5.19657e-06
-5.23437e-06
-5.34242e-06
-5.53371e-06
-5.80707e-06
-6.18744e-06
-6.61709e-06
-7.13939e-06
-7.55476e-06
-7.9252e-06
-8.19097e-06
-8.39379e-06
-8.52452e-06
-8.59881e-06
-8.61635e-06
-8.57713e-06
-8.48176e-06
-8.31456e-06
-8.0857e-06
-7.75356e-06
-7.38095e-06
-6.90569e-06
-6.53441e-06
-6.22181e-06
-6.03142e-06
-5.93846e-06
-5.93872e-06
-6.00592e-06
-6.06878e-06
-6.13925e-06
-5.52147e-06
-5.42828e-06
-5.3568e-06
-5.28652e-06
-5.27536e-06
-5.34416e-06
-5.51038e-06
-5.79706e-06
-6.20743e-06
-6.79945e-06
-7.48511e-06
-8.38827e-06
-9.04744e-06
-9.62874e-06
-1.00271e-05
-1.03283e-05
-1.05164e-05
-1.06198e-05
-1.06372e-05
-1.05684e-05
-1.0415e-05
-1.01483e-05
-9.78549e-06
-9.2406e-06
-8.62385e-06
-7.76767e-06
-7.14753e-06
-6.63106e-06
-6.31694e-06
-6.14697e-06
-6.11216e-06
-6.17354e-06
-6.2452e-06
-6.34274e-06
-5.6834e-06
-5.56006e-06
-5.47565e-06
-5.40673e-06
-5.41651e-06
-5.53023e-06
-5.77018e-06
-6.16966e-06
-6.73616e-06
-7.59681e-06
-8.61437e-06
-1.0149e-05
-1.11084e-05
-1.19418e-05
-1.24842e-05
-1.28944e-05
-1.3144e-05
-1.32799e-05
-1.32975e-05
-1.31963e-05
-1.29812e-05
-1.26043e-05
-1.20959e-05
-1.12959e-05
-1.03784e-05
-8.88877e-06
-7.94882e-06
-7.17098e-06
-6.71411e-06
-6.45023e-06
-6.36703e-06
-6.4136e-06
-6.49181e-06
-6.62589e-06
-5.8888e-06
-5.72616e-06
-5.63588e-06
-5.57531e-06
-5.61938e-06
-5.7947e-06
-6.12438e-06
-6.64108e-06
-7.35309e-06
-8.43043e-06
-9.83071e-06
-1.24386e-05
-1.36706e-05
-1.47822e-05
-1.54828e-05
-1.60264e-05
-1.63537e-05
-1.65311e-05
-1.65491e-05
-1.64071e-05
-1.61145e-05
-1.56034e-05
-1.49347e-05
-1.38516e-05
-1.26589e-05
-1.00871e-05
-8.78838e-06
-7.79681e-06
-7.2075e-06
-6.84547e-06
-6.7005e-06
-6.72166e-06
-6.80314e-06
-6.98612e-06
-6.12183e-06
-5.91875e-06
-5.82216e-06
-5.77522e-06
-5.86173e-06
-6.10479e-06
-6.51878e-06
-7.11925e-06
-7.83258e-06
-8.98122e-06
-1.06227e-05
-1.55808e-05
-1.6575e-05
-1.77472e-05
-1.85062e-05
-1.91089e-05
-1.94687e-05
-1.96682e-05
-1.96865e-05
-1.95228e-05
-1.91978e-05
-1.86264e-05
-1.78968e-05
-1.67436e-05
-1.57857e-05
-1.08457e-05
-9.378e-06
-8.29323e-06
-7.7087e-06
-7.27869e-06
-7.07776e-06
-7.07307e-06
-7.15977e-06
-7.41355e-06
-6.39002e-06
-6.13267e-06
-6.03394e-06
-6.01722e-06
-6.17852e-06
-6.53945e-06
-7.11507e-06
-7.82881e-06
-8.62766e-06
-1.06763e-05
-7.35053e-06
-1.7941e-05
-1.88543e-05
-2.04066e-05
-2.13311e-05
-2.21108e-05
-2.2561e-05
-2.28031e-05
-2.28213e-05
-2.26148e-05
-2.21995e-05
-2.14511e-05
-2.0555e-05
-1.90158e-05
-1.81668e-05
-7.42744e-06
-1.10204e-05
-9.04822e-06
-8.41297e-06
-7.8893e-06
-7.55934e-06
-7.48529e-06
-7.55746e-06
-7.89577e-06
-6.67448e-06
-6.35154e-06
-6.24702e-06
-6.26023e-06
-6.49724e-06
-6.9751e-06
-7.67891e-06
-8.41197e-06
-8.6864e-06
-4.6103e-06
-2.57839e-05
-2.17389e-05
-2.23974e-05
-2.31763e-05
-2.3825e-05
-2.42502e-05
-2.44779e-05
-2.4495e-05
-2.43008e-05
-2.3908e-05
-2.32887e-05
-2.2534e-05
-2.18775e-05
-2.58081e-05
-5.34233e-06
-9.22668e-06
-9.02249e-06
-8.46748e-06
-8.03132e-06
-7.88843e-06
-7.95333e-06
-8.40275e-06
-6.96544e-06
-6.57233e-06
-6.4725e-06
-6.5438e-06
-6.92551e-06
-7.68785e-06
-8.94602e-06
-1.07597e-05
-1.36625e-05
-1.65502e-05
-2.36146e-05
-2.03469e-05
-2.22307e-05
-2.38741e-05
-2.51074e-05
-2.59369e-05
-2.648e-05
-2.67531e-05
-2.67693e-05
-2.65285e-05
-2.60181e-05
-2.52216e-05
-2.40232e-05
-2.24219e-05
-2.0579e-05
-2.39647e-05
-1.68399e-05
-1.40298e-05
-1.12689e-05
-9.67389e-06
-8.73024e-06
-8.36341e-06
-8.36044e-06
-8.93633e-06
-7.24652e-06
-6.77892e-06
-6.67339e-06
-6.77721e-06
-7.24442e-06
-8.15491e-06
-9.62553e-06
-1.16544e-05
-1.44094e-05
-1.69649e-05
-2.11983e-05
-2.21541e-05
-2.32905e-05
-2.44687e-05
-2.55499e-05
-2.63585e-05
-2.69199e-05
-2.72044e-05
-2.72194e-05
-2.69648e-05
-2.64331e-05
-2.56521e-05
-2.45973e-05
-2.34374e-05
-2.23093e-05
-2.14284e-05
-1.72467e-05
-1.47434e-05
-1.21257e-05
-1.03331e-05
-9.21063e-06
-8.74991e-06
-8.73521e-06
-9.43633e-06
-7.50563e-06
-6.97292e-06
-6.86236e-06
-6.99511e-06
-7.53842e-06
-8.58174e-06
-1.02413e-05
-1.25045e-05
-1.5426e-05
-1.83955e-05
-2.16673e-05
-2.32159e-05
-2.44486e-05
-2.55716e-05
-2.66512e-05
-2.74539e-05
-2.80158e-05
-2.8297e-05
-2.83112e-05
-2.80581e-05
-2.75241e-05
-2.67468e-05
-2.56914e-05
-2.45832e-05
-2.33696e-05
-2.1856e-05
-1.86221e-05
-1.57168e-05
-1.29429e-05
-1.09367e-05
-9.6591e-06
-9.11701e-06
-9.09088e-06
-9.89073e-06
-7.72773e-06
-7.14396e-06
-7.02128e-06
-7.16298e-06
-7.74238e-06
-8.84923e-06
-1.05882e-05
-1.29415e-05
-1.58868e-05
-1.89596e-05
-2.20025e-05
-2.38615e-05
-2.52541e-05
-2.63674e-05
-2.7444e-05
-2.82329e-05
-2.87885e-05
-2.90638e-05
-2.90774e-05
-2.88289e-05
-2.82996e-05
-2.75337e-05
-2.64784e-05
-2.53744e-05
-2.39968e-05
-2.21635e-05
-1.91604e-05
-1.61584e-05
-1.33699e-05
-1.12928e-05
-9.9656e-06
-9.40385e-06
-9.39263e-06
-1.02734e-05
-7.90946e-06
-7.28819e-06
-7.15427e-06
-7.2985e-06
-7.89908e-06
-9.0457e-06
-1.08348e-05
-1.32481e-05
-1.62205e-05
-1.93543e-05
-2.2351e-05
-2.44015e-05
-2.58607e-05
-2.70004e-05
-2.80928e-05
-2.88766e-05
-2.94263e-05
-2.96958e-05
-2.97092e-05
-2.94662e-05
-2.89421e-05
-2.81802e-05
-2.71077e-05
-2.59717e-05
-2.45007e-05
-2.24953e-05
-1.95422e-05
-1.64833e-05
-1.36768e-05
-1.15566e-05
-1.02045e-05
-9.63821e-06
-9.64302e-06
-1.05807e-05
-8.04777e-06
-7.39999e-06
-7.25586e-06
-7.39722e-06
-8.00556e-06
-9.17016e-06
-1.09825e-05
-1.34265e-05
-1.64175e-05
-1.95989e-05
-2.26096e-05
-2.47598e-05
-2.6279e-05
-2.74426e-05
-2.85463e-05
-2.9328e-05
-2.98749e-05
-3.01413e-05
-3.01551e-05
-2.99158e-05
-2.93951e-05
-2.86354e-05
-2.75514e-05
-2.63919e-05
-2.48752e-05
-2.27521e-05
-1.97842e-05
-1.66806e-05
-1.38629e-05
-1.17251e-05
-1.03688e-05
-9.81004e-06
-9.83194e-06
-1.0809e-05
-8.14199e-06
-7.47843e-06
-7.32782e-06
-7.46663e-06
-8.07881e-06
-9.25399e-06
-1.1082e-05
-1.35488e-05
-1.65621e-05
-1.97827e-05
-2.28221e-05
-2.50164e-05
-2.65915e-05
-2.77782e-05
-2.88942e-05
-2.96799e-05
-3.02285e-05
-3.04954e-05
-3.05103e-05
-3.02725e-05
-2.97518e-05
-2.89895e-05
-2.78951e-05
-2.67202e-05
-2.52035e-05
-2.29784e-05
-1.99738e-05
-1.68313e-05
-1.39956e-05
-1.18432e-05
-1.04832e-05
-9.92931e-06
-9.96157e-06
-1.09612e-05
-8.19197e-06
-7.52276e-06
-7.36983e-06
-7.50765e-06
-8.12176e-06
-9.30271e-06
-1.11414e-05
-1.36254e-05
-1.66624e-05
-1.99147e-05
-2.29878e-05
-2.52136e-05
-2.68153e-05
-2.80192e-05
-2.91468e-05
-2.99416e-05
-3.04963e-05
-3.07672e-05
-3.07838e-05
-3.05456e-05
-3.00218e-05
-2.92532e-05
-2.81492e-05
-2.69576e-05
-2.53995e-05
-2.31557e-05
-2.0117e-05
-1.6942e-05
-1.40839e-05
-1.19172e-05
-1.05509e-05
-9.99674e-06
-1.00318e-05
-1.10396e-05
-8.19817e-06
-7.53353e-06
-7.38243e-06
-7.52076e-06
-8.13482e-06
-9.31667e-06
-1.11605e-05
-1.36548e-05
-1.67159e-05
-1.99937e-05
-2.31071e-05
-2.5353e-05
-2.6956e-05
-2.81702e-05
-2.93073e-05
-3.0115e-05
-3.06796e-05
-3.09577e-05
-3.09769e-05
-3.07366e-05
-3.02076e-05
-2.94303e-05
-2.83195e-05
-2.71195e-05
-2.55645e-05
-2.32939e-05
-2.02133e-05
-1.70107e-05
-1.41267e-05
-1.1947e-05
-1.05726e-05
-1.00135e-05
-1.00441e-05
-1.10457e-05
-8.16201e-06
-7.51293e-06
-7.36755e-06
-7.50661e-06
-8.1163e-06
-9.29047e-06
-1.11299e-05
-1.36243e-05
-1.67102e-05
-2.00063e-05
-2.31837e-05
-2.54444e-05
-2.70117e-05
-2.82304e-05
-2.93753e-05
-3.02007e-05
-3.07788e-05
-3.10675e-05
-3.10903e-05
-3.08467e-05
-3.03109e-05
-2.95221e-05
-2.84077e-05
-2.72014e-05
-2.56355e-05
-2.33931e-05
-2.02525e-05
-1.70287e-05
-1.41159e-05
-1.19289e-05
-1.05484e-05
-9.98253e-06
-1.00023e-05
-1.09813e-05
-8.08482e-06
-7.46341e-06
-7.32485e-06
-7.4591e-06
-8.05047e-06
-9.19351e-06
-1.09979e-05
-1.34563e-05
-1.65503e-05
-1.98539e-05
-2.31664e-05
-2.53725e-05
-2.69243e-05
-2.81391e-05
-2.92789e-05
-3.01201e-05
-3.07122e-05
-3.10136e-05
-3.10413e-05
-3.07949e-05
-3.02544e-05
-2.94592e-05
-2.83575e-05
-2.71636e-05
-2.56241e-05
-2.34178e-05
-2.01407e-05
-1.6906e-05
-1.39807e-05
-1.18185e-05
-1.04559e-05
-9.89653e-06
-9.90725e-06
-1.08472e-05
-7.96996e-06
-7.39374e-06
-7.26301e-06
-7.38732e-06
-7.94763e-06
-9.0376e-06
-1.07771e-05
-1.31631e-05
-1.62569e-05
-1.95066e-05
-2.3143e-05
-2.52901e-05
-2.67094e-05
-2.79546e-05
-2.91086e-05
-2.99768e-05
-3.05852e-05
-3.09012e-05
-3.09359e-05
-3.06894e-05
-3.01462e-05
-2.93395e-05
-2.82355e-05
-2.70253e-05
-2.56224e-05
-2.3453e-05
-1.98586e-05
-1.66741e-05
-1.37439e-05
-1.16382e-05
-1.03156e-05
-9.77425e-06
-9.77468e-06
-1.06529e-05
-7.82416e-06
-7.30784e-06
-7.17771e-06
-7.27361e-06
-7.76478e-06
-8.73255e-06
-1.02918e-05
-1.24385e-05
-1.53094e-05
-1.80723e-05
-2.28901e-05
-2.52746e-05
-2.63299e-05
-2.75706e-05
-2.87041e-05
-2.95776e-05
-3.01917e-05
-3.05198e-05
-3.05633e-05
-3.03227e-05
-2.97909e-05
-2.89998e-05
-2.7934e-05
-2.67564e-05
-2.57386e-05
-2.32486e-05
-1.84915e-05
-1.58103e-05
-1.31108e-05
-1.12263e-05
-1.00516e-05
-9.58731e-06
-9.60236e-06
-1.04048e-05
-7.67113e-06
-7.21315e-06
-7.0906e-06
-7.16357e-06
-7.59052e-06
-8.44358e-06
-9.84029e-06
-1.18236e-05
-1.49456e-05
-1.83931e-05
-2.4281e-05
-2.34276e-05
-2.5781e-05
-2.77506e-05
-2.91178e-05
-3.00659e-05
-3.07023e-05
-3.10446e-05
-3.11023e-05
-3.0878e-05
-3.03521e-05
-2.95176e-05
-2.82364e-05
-2.63632e-05
-2.40409e-05
-2.46022e-05
-1.90382e-05
-1.56248e-05
-1.26449e-05
-1.0884e-05
-9.82415e-06
-9.4193e-06
-9.43412e-06
-1.01349e-05
-7.51501e-06
-7.11254e-06
-6.98726e-06
-7.01391e-06
-7.3187e-06
-7.91375e-06
-8.75971e-06
-9.54562e-06
-9.55951e-06
-3.61787e-06
-3.26627e-05
-2.67744e-05
-2.73252e-05
-2.81329e-05
-2.88652e-05
-2.93882e-05
-2.96993e-05
-2.97706e-05
-2.96071e-05
-2.92214e-05
-2.86401e-05
-2.79339e-05
-2.75243e-05
-3.33539e-05
-4.28431e-06
-1.04192e-05
-1.0545e-05
-9.95157e-06
-9.38584e-06
-9.17559e-06
-9.24729e-06
-9.8507e-06
-7.37392e-06
-7.02446e-06
-6.91424e-06
-6.93859e-06
-7.22629e-06
-7.82171e-06
-8.78807e-06
-1.01081e-05
-1.20504e-05
-1.51627e-05
-1.47748e-05
-2.27192e-05
-2.43923e-05
-2.62313e-05
-2.74095e-05
-2.84431e-05
-2.91118e-05
-2.9507e-05
-2.96002e-05
-2.93996e-05
-2.8907e-05
-2.80641e-05
-2.69651e-05
-2.53079e-05
-2.37502e-05
-1.66861e-05
-1.66726e-05
-1.34569e-05
-1.13921e-05
-1.01239e-05
-9.35049e-06
-9.06976e-06
-9.09514e-06
-9.61431e-06
-7.25595e-06
-6.94933e-06
-6.85073e-06
-6.8676e-06
-7.11858e-06
-7.65025e-06
-8.5161e-06
-9.73618e-06
-1.13007e-05
-1.31466e-05
-1.68103e-05
-2.16648e-05
-2.29793e-05
-2.43482e-05
-2.53723e-05
-2.63354e-05
-2.69811e-05
-2.7381e-05
-2.7488e-05
-2.73135e-05
-2.68622e-05
-2.61067e-05
-2.51034e-05
-2.3837e-05
-2.266e-05
-1.83252e-05
-1.44998e-05
-1.26921e-05
-1.10971e-05
-9.92219e-06
-9.20461e-06
-8.93249e-06
-8.94303e-06
-9.39719e-06
-7.17473e-06
-6.90473e-06
-6.82832e-06
-6.85909e-06
-7.1072e-06
-7.62467e-06
-8.4743e-06
-9.70037e-06
-1.13664e-05
-1.34699e-05
-1.6146e-05
-1.91999e-05
-2.0828e-05
-2.21816e-05
-2.32271e-05
-2.42222e-05
-2.48869e-05
-2.52936e-05
-2.54046e-05
-2.52352e-05
-2.47763e-05
-2.40171e-05
-2.29809e-05
-2.16946e-05
-2.02388e-05
-1.76126e-05
-1.49851e-05
-1.2864e-05
-1.11404e-05
-9.92276e-06
-9.17875e-06
-8.87297e-06
-8.846e-06
-9.23979e-06
-7.1206e-06
-6.89236e-06
-6.84311e-06
-6.89315e-06
-7.13792e-06
-7.62478e-06
-8.40908e-06
-9.53443e-06
-1.10339e-05
-1.29225e-05
-1.50729e-05
-1.73598e-05
-1.89012e-05
-2.02168e-05
-2.12794e-05
-2.22433e-05
-2.28894e-05
-2.32826e-05
-2.33941e-05
-2.3242e-05
-2.28124e-05
-2.21046e-05
-2.11004e-05
-1.98804e-05
-1.84765e-05
-1.65068e-05
-1.4431e-05
-1.25402e-05
-1.09921e-05
-9.86378e-06
-9.15953e-06
-8.84865e-06
-8.79623e-06
-9.13671e-06
-7.10264e-06
-6.91729e-06
-6.90413e-06
-6.98662e-06
-7.2422e-06
-7.71003e-06
-8.43363e-06
-9.44476e-06
-1.07562e-05
-1.23502e-05
-1.41044e-05
-1.59201e-05
-1.73499e-05
-1.86377e-05
-1.9699e-05
-2.06195e-05
-2.12513e-05
-2.16336e-05
-2.1743e-05
-2.16071e-05
-2.12017e-05
-2.05315e-05
-1.95828e-05
-1.84387e-05
-1.71117e-05
-1.55302e-05
-1.38364e-05
-1.22414e-05
-1.08898e-05
-9.87445e-06
-9.2155e-06
-8.89546e-06
-8.80997e-06
-9.08938e-06
-7.11439e-06
-6.97414e-06
-7.00333e-06
-7.12728e-06
-7.40415e-06
-7.86418e-06
-8.53928e-06
-9.45011e-06
-1.05972e-05
-1.1956e-05
-1.3428e-05
-1.49392e-05
-1.62604e-05
-1.74669e-05
-1.84712e-05
-1.93265e-05
-1.99239e-05
-2.02867e-05
-2.03989e-05
-2.02734e-05
-1.98993e-05
-1.92843e-05
-1.84207e-05
-1.73837e-05
-1.61797e-05
-1.48289e-05
-1.34027e-05
-1.20438e-05
-1.08696e-05
-9.96045e-06
-9.34149e-06
-9.00541e-06
-8.87955e-06
-9.08786e-06
-7.13415e-06
-7.03808e-06
-7.08934e-06
-7.24266e-06
-7.53826e-06
-7.99925e-06
-8.6482e-06
-9.49803e-06
-1.05445e-05
-1.17619e-05
-1.3081e-05
-1.44366e-05
-1.57003e-05
-1.68606e-05
-1.78355e-05
-1.86409e-05
-1.92124e-05
-1.95587e-05
-1.9669e-05
-1.95504e-05
-1.91973e-05