/*--------------------------------*- C++ -*----------------------------------*\
| =========                 |                                                 |
| \\      /  F ield         | OpenFOAM: The Open Source CFD Toolbox           |
|  \\    /   O peration     | Version:  2112                                  |
|   \\  /    A nd           | Website:  www.openfoam.com                      |
|    \\/     M anipulation  |                                                 |
\*---------------------------------------------------------------------------*/
FoamFile
{
    version     2.0;
    format      ascii;
    arch        "LSB;label=32;scalar=64";
    class       surfaceScalarField;
    location    "3.6";
    object      phi;
}
// * * * * * * * * * * * * * * * * * * * * * * * * * * * * * * * * * * * * * //

dimensions      [0 3 -1 0 0 0 0];

oriented        oriented;

internalField   nonuniform List<scalar> 
188215
(
6.434e-10
1.385e-09
-2.0284e-09
2.69392e-09
4.16063e-10
-2.46658e-09
5.49534e-09
-8.92889e-10
-1.90853e-09
8.64279e-09
-2.11201e-09
-1.03544e-09
1.18995e-08
-2.90648e-09
-3.50194e-10
1.5184e-08
-3.36033e-09
7.58426e-11
1.83506e-08
-3.57427e-09
4.07657e-10
2.13042e-08
-3.52242e-09
5.68813e-10
2.38659e-08
-3.17722e-09
6.15493e-10
2.56583e-08
-2.36568e-09
5.73286e-10
2.63442e-08
-1.12814e-09
4.42306e-10
2.55324e-08
5.05805e-10
3.05983e-10
2.36012e-08
1.5623e-09
3.68829e-10
2.05701e-08
2.50329e-09
5.27823e-10
1.67319e-08
3.12465e-09
7.13574e-10
1.22936e-08
3.55639e-09
8.81924e-10
7.48953e-09
3.7995e-09
1.00457e-09
2.51339e-09
3.90776e-09
1.06838e-09
-2.44272e-09
3.88762e-09
1.06849e-09
-7.18749e-09
3.73903e-09
1.00574e-09
-1.15285e-08
3.45563e-09
8.85355e-10
-1.52334e-08
2.98409e-09
7.20861e-10
-1.81008e-08
2.32684e-09
5.40577e-10
-1.98479e-08
1.35979e-09
3.87305e-10
-2.04926e-08
3.18037e-10
3.26668e-10
-1.95606e-08
-1.41133e-09
4.79252e-10
-1.75554e-08
-2.56235e-09
5.57236e-10
-1.47777e-08
-3.23619e-09
4.58407e-10
-1.15836e-08
-3.30763e-09
1.13565e-10
-8.28456e-09
-2.8938e-09
-4.05239e-10
-5.10655e-09
-1.89145e-09
-1.28657e-09
-2.43814e-09
-1.74973e-10
-2.49343e-09
-4.55894e-10
1.31816e-09
-3.30041e-09
2.43868e-09
-2.89457e-09
-1.53664e-09
6.30679e-09
-3.38515e-09
8.19317e-10
6.24771e-09
-8.1876e-09
4.42173e-09
5.32378e-09
-9.81908e-09
8.12512e-09
4.48527e-09
-1.03007e-08
1.16974e-08
4.22609e-09
-1.07048e-08
1.51266e-08
4.61823e-09
-1.14078e-08
1.84112e-08
5.68616e-09
-1.2545e-08
2.14812e-08
7.55565e-09
-1.41481e-08
2.4157e-08
1.03782e-08
-1.62313e-08
2.60694e-08
1.45143e-08
-1.87924e-08
2.69484e-08
1.97262e-08
-2.17333e-08
2.62829e-08
2.60724e-08
-2.49011e-08
2.42401e-08
3.15832e-08
-2.79781e-08
2.10488e-08
3.63738e-08
-3.06792e-08
1.70784e-08
3.99639e-08
-3.28688e-08
1.25344e-08
4.26314e-08
-3.4531e-08
7.64101e-09
4.43426e-08
-3.56498e-08
2.58426e-09
4.5198e-08
-3.62334e-08
-2.45106e-09
4.52025e-08
-3.62796e-08
-7.28036e-09
4.43564e-08
-3.5788e-08
-1.17196e-08
4.26561e-08
-3.47612e-08
-1.55467e-08
4.00027e-08
-3.31916e-08
-1.85614e-08
3.64393e-08
-3.10977e-08
-2.03955e-08
3.16943e-08
-2.85005e-08
-2.0805e-08
2.62743e-08
-2.55467e-08
-1.97053e-08
2.00479e-08
-2.2559e-08
-1.75306e-08
1.50934e-08
-1.98304e-08
-1.45424e-08
1.13335e-08
-1.75579e-08
-1.10793e-08
9.0956e-09
-1.58663e-08
-7.30532e-09
8.09296e-09
-1.47608e-08
-3.34321e-09
8.23006e-09
-1.40836e-08
5.36917e-10
9.28159e-09
-1.33367e-08
2.76076e-09
1.03397e-08
-1.12454e-08
1.01485e-08
-4.9491e-09
-3.20245e-09
1.29824e-08
-3.47317e-09
-8.2267e-10
1.40626e-08
-1.01947e-08
3.28125e-09
1.39259e-08
-1.27061e-08
7.57721e-09
1.39589e-08
-1.37695e-08
1.17019e-08
1.47848e-08
-1.46834e-08
1.56653e-08
1.65858e-08
-1.5931e-08
1.95522e-08
1.95291e-08
-1.77298e-08
2.33569e-08
2.39392e-08
-2.01882e-08
2.69024e-08
3.01929e-08
-2.336e-08
2.96327e-08
3.90523e-08
-2.72684e-08
3.09889e-08
5.01439e-08
-3.17739e-08
2.9993e-08
6.37159e-08
-3.66477e-08
2.7366e-08
7.54864e-08
-4.12762e-08
2.34489e-08
8.56377e-08
-4.53468e-08
1.88075e-08
9.32729e-08
-4.86676e-08
1.36439e-08
9.89894e-08
-5.11943e-08
8.17781e-09
1.02703e-07
-5.2894e-08
2.56992e-09
1.04585e-07
-5.37796e-08
-3.01557e-09
1.04634e-07
-5.38464e-08
-8.41434e-09
1.02849e-07
-5.30941e-08
-1.34668e-08
9.92361e-08
-5.15277e-08
-1.79523e-08
9.36237e-08
-4.91354e-08
-2.16715e-08
8.6112e-08
-4.59536e-08
-2.40554e-08
7.61126e-08
-4.20344e-08
-2.47669e-08
6.45692e-08
-3.75834e-08
-2.30848e-08
5.13004e-08
-3.29346e-08
-1.99758e-08
4.07022e-08
-2.87178e-08
-1.59346e-08
3.24718e-08
-2.51795e-08
-1.14619e-08
2.70885e-08
-2.24655e-08
-6.69985e-09
2.38378e-08
-2.05069e-08
-1.77374e-09
2.23528e-08
-1.90488e-08
2.8253e-09
2.21509e-08
-1.74683e-08
5.07242e-09
2.2198e-08
-1.41054e-08
2.0475e-08
-5.25407e-09
-4.33531e-09
2.02152e-08
-2.89744e-09
-1.80838e-09
2.21548e-08
-1.06191e-08
2.93328e-09
2.27288e-08
-1.35445e-08
8.02889e-09
2.37059e-08
-1.48426e-08
1.30362e-08
2.57587e-08
-1.59812e-08
1.80016e-08
2.91299e-08
-1.75094e-08
2.31214e-08
3.41022e-08
-1.9693e-08
2.85003e-08
4.12424e-08
-2.26821e-08
3.39442e-08
5.12924e-08
-2.65434e-08
3.85193e-08
6.58038e-08
-3.13266e-08
4.10255e-08
8.44806e-08
-3.68429e-08
3.93367e-08
1.08322e-07
-4.29174e-08
3.52607e-08
1.28195e-07
-4.86328e-08
2.95945e-08
1.44958e-07
-5.36538e-08
2.33191e-08
1.57291e-07
-5.77425e-08
1.66038e-08
1.66537e-07
-6.08326e-08
9.6533e-09
1.72545e-07
-6.28913e-08
2.58826e-09
1.75609e-07
-6.39589e-08
-4.45381e-09
1.7571e-07
-6.40334e-08
-1.13345e-08
1.72844e-07
-6.31143e-08
-1.79321e-08
1.67036e-07
-6.12027e-08
-2.40358e-08
1.57987e-07
-5.826e-08
-2.94738e-08
1.45872e-07
-5.43216e-08
-3.32529e-08
1.29355e-07
-4.94637e-08
-3.45791e-08
1.09836e-07
-4.39403e-08
-3.1618e-08
8.6447e-08
-3.81076e-08
-2.65179e-08
6.85118e-08
-3.29097e-08
-2.03683e-08
5.48516e-08
-2.85294e-08
-1.40349e-08
4.59092e-08
-2.51541e-08
-7.69425e-09
4.01717e-08
-2.26746e-08
-1.46163e-09
3.69189e-08
-2.07987e-08
4.10056e-09
3.54266e-08
-1.88379e-08
6.6012e-09
3.45822e-08
-1.48849e-08
3.17364e-08
-4.66018e-09
-4.92997e-09
2.73354e-08
-2.19026e-09
-1.94389e-09
2.99317e-08
-1.0763e-08
3.70643e-09
3.11087e-08
-1.40302e-08
9.90326e-09
3.30037e-08
-1.54946e-08
1.61657e-08
3.63174e-08
-1.68211e-08
2.26357e-08
4.12951e-08
-1.86352e-08
2.97078e-08
4.82744e-08
-2.12443e-08
3.77325e-08
5.80503e-08
-2.48326e-08
4.6568e-08
7.19026e-08
-2.94458e-08
5.47165e-08
9.28223e-08
-3.51669e-08
5.96192e-08
1.21281e-07
-4.17036e-08
5.63855e-08
1.60775e-07
-4.92194e-08
4.93944e-08
1.91377e-07
-5.61907e-08
4.04951e-08
2.16241e-07
-6.23843e-08
3.13407e-08
2.33889e-07
-6.74434e-08
2.19055e-08
2.4717e-07
-7.11971e-08
1.23279e-08
2.55777e-07
-7.36553e-08
2.664e-09
2.60194e-07
-7.49206e-08
-6.97747e-09
2.60352e-07
-7.50005e-08
-1.6486e-08
2.56247e-07
-7.3894e-08
-2.58013e-08
2.47943e-07
-7.15912e-08
-3.47709e-08
2.34948e-07
-6.79914e-08
-4.3409e-08
2.17596e-07
-6.30861e-08
-5.00334e-08
1.93038e-07
-5.70585e-08
-5.27956e-08
1.62883e-07
-5.02856e-08
-4.72692e-08
1.23943e-07
-4.30224e-08
-3.84498e-08
9.65253e-08
-3.68329e-08
-2.87014e-08
7.66511e-08
-3.15479e-08
-1.94395e-08
6.41086e-08
-2.74613e-08
-1.08008e-08
5.59595e-08
-2.44265e-08
-2.73883e-09
5.10102e-08
-2.21533e-08
4.21687e-09
4.83382e-08
-1.98673e-08
7.41584e-09
4.67706e-08
-1.53874e-08
4.30601e-08
-3.90782e-09
-5.15927e-09
3.40011e-08
-1.50644e-09
-1.32953e-09
3.71249e-08
-1.1023e-08
5.60383e-09
3.88584e-08
-1.46831e-08
1.32749e-08
4.16728e-08
-1.63402e-08
2.11814e-08
4.63068e-08
-1.78959e-08
2.96219e-08
5.29281e-08
-2.00735e-08
3.93106e-08
6.18008e-08
-2.32151e-08
5.11274e-08
7.3757e-08
-2.75235e-08
6.52921e-08
9.06739e-08
-3.2936e-08
7.99137e-08
1.17737e-07
-3.95366e-08
8.98394e-08
1.5795e-07
-4.65938e-08
8.3344e-08
2.22912e-07
-5.56413e-08
7.10745e-08
2.67635e-07
-6.39881e-08
5.69609e-08
3.02143e-07
-7.17882e-08
4.34868e-08
3.25627e-07
-7.82647e-08
2.99892e-08
3.43525e-07
-8.28577e-08
1.64358e-08
3.55115e-07
-8.57838e-08
2.80364e-09
3.61101e-07
-8.72753e-08
-1.08096e-08
3.61327e-07
-8.73617e-08
-2.43033e-08
3.55782e-07
-8.6041e-08
-3.76933e-08
3.44613e-07
-8.32804e-08
-5.09869e-08
3.27091e-07
-7.88494e-08
-6.48206e-08
3.0396e-07
-7.25304e-08
-7.66496e-08
2.69768e-07
-6.49002e-08
-8.25351e-08
2.25532e-07
-5.67629e-08
-7.17415e-08
1.61124e-07
-4.79746e-08
-5.63353e-08
1.22421e-07
-4.1302e-08
-4.1061e-08
9.65572e-08
-3.51804e-08
-2.76987e-08
8.11037e-08
-3.03574e-08
-1.60327e-08
7.09722e-08
-2.66787e-08
-5.55486e-09
6.44724e-08
-2.39401e-08
3.34698e-09
6.06976e-08
-2.12612e-08
7.78345e-09
5.84757e-08
-1.61415e-08
5.40462e-08
-3.20269e-09
-5.13931e-09
3.99793e-08
-8.38848e-10
-2.3143e-11
4.35236e-08
-1.15148e-08
8.62227e-09
4.58844e-08
-1.56714e-08
1.8196e-08
4.96868e-08
-1.75877e-08
2.81258e-08
5.58127e-08
-1.94357e-08
3.88752e-08
6.42369e-08
-2.20583e-08
5.15768e-08
7.49154e-08
-2.58163e-08
6.80997e-08
8.81387e-08
-3.09045e-08
8.98167e-08
1.05978e-07
-3.70208e-08
1.15283e-07
1.36326e-07
-4.4055e-08
1.3631e-07
1.87116e-07
-5.01934e-08
1.22658e-07
2.96929e-07
-6.0365e-08
1.01149e-07
3.58816e-07
-6.9672e-08
7.93416e-08
4.03629e-07
-7.96782e-08
6.00859e-08
4.33185e-07
-8.83018e-08
4.11344e-08
4.56246e-07
-9.37697e-08
2.21396e-08
4.7127e-07
-9.71604e-08
3.01897e-09
4.79094e-07
-9.88723e-08
-1.60909e-08
4.79403e-07
-9.89663e-08
-3.50507e-08
4.72181e-07
-9.74395e-08
-5.39346e-08
4.57723e-07
-9.4226e-08
-7.30535e-08
4.35141e-07
-8.89312e-08
-9.46052e-08
4.05982e-07
-8.04704e-08
-1.15614e-07
3.61421e-07
-7.06447e-08
-1.28487e-07
2.99979e-07
-6.15743e-08
-1.06189e-07
1.90492e-07
-5.16656e-08
-7.99256e-08
1.42122e-07
-4.59642e-08
-5.69363e-08
1.1302e-07
-3.94524e-08
-3.8506e-08
9.6685e-08
-3.40116e-08
-2.32854e-08
8.54089e-08
-2.96573e-08
-9.85279e-09
7.74341e-08
-2.63943e-08
1.59342e-09
7.24801e-08
-2.32287e-08
7.8818e-09
6.94649e-08
-1.72777e-08
6.44341e-08
-2.50615e-09
-4.92253e-09
4.50842e-08
-1.82448e-10
1.86145e-09
4.89591e-08
-1.22195e-08
1.29195e-08
5.19144e-08
-1.7088e-08
2.49913e-08
5.69244e-08
-1.93094e-08
3.74076e-08
6.49142e-08
-2.15178e-08
5.06433e-08
7.56747e-08
-2.46735e-08
6.6042e-08
8.8659e-08
-2.91422e-08
8.66808e-08
1.02618e-07
-3.51181e-08
1.16321e-07
1.18134e-07
-4.17968e-08
1.5942e-07
1.42426e-07
-4.9199e-08
2.05468e-07
1.90218e-07
-4.91503e-08
1.76915e-07
3.83217e-07
-5.77347e-08
1.41306e-07
4.6217e-07
-6.77451e-08
1.09515e-07
5.17104e-07
-8.16841e-08
8.31207e-08
5.53418e-07
-9.38388e-08
5.68964e-08
5.82607e-07
-1.00136e-07
3.02664e-08
6.01842e-07
-1.03942e-07
3.33494e-09
6.11878e-07
-1.05852e-07
-2.35997e-08
6.12291e-07
-1.05954e-07
-5.02395e-08
6.03064e-07
-1.04243e-07
-7.64795e-08
5.8459e-07
-1.00627e-07
-1.02856e-07
5.56036e-07
-9.4518e-08
-1.34531e-07
5.20194e-07
-8.25363e-08
-1.69689e-07
4.6538e-07
-6.88012e-08
-1.97231e-07
3.86631e-07
-5.91092e-08
-1.49187e-07
1.93181e-07
-5.07338e-08
-1.05547e-07
1.49708e-07
-5.12256e-08
-7.44862e-08
1.26373e-07
-4.44138e-08
-5.14721e-08
1.12214e-07
-3.85432e-08
-3.282e-08
1.00207e-07
-3.34505e-08
-1.59704e-08
9.019e-08
-2.96055e-08
-1.13339e-09
8.35047e-08
-2.58616e-08
7.68589e-09
7.94441e-08
-1.87984e-08
7.38311e-08
-1.71107e-09
-4.53834e-09
4.89552e-08
6.67349e-10
4.55451e-09
5.30726e-08
-1.32063e-08
1.86589e-08
5.67234e-08
-1.89134e-08
3.39348e-08
6.31725e-08
-2.15239e-08
4.94319e-08
7.35716e-08
-2.41545e-08
6.52766e-08
8.772e-08
-2.789e-08
8.2354e-08
1.04697e-07
-3.31155e-08
1.04233e-07
1.20747e-07
-4.00081e-08
1.37773e-07
1.32454e-07
-4.78596e-08
2.0702e-07
1.27461e-07
-5.42821e-08
3.04173e-07
1.47597e-07
-5.45327e-08
2.44702e-07
4.90671e-07
-4.79819e-08
1.88484e-07
5.73162e-07
-5.47743e-08
1.46063e-07
6.33752e-07
-7.42273e-08
1.11851e-07
6.78599e-07
-9.09688e-08
7.68906e-08
7.14962e-07
-9.73946e-08
4.06767e-08
7.39876e-07
-1.0182e-07
3.78425e-09
7.52775e-07
-1.04004e-07
-3.31302e-08
7.53313e-07
-1.04107e-07
-6.94175e-08
7.41474e-07
-1.02123e-07
-1.04522e-07
7.17579e-07
-9.78835e-08
-1.38939e-07
6.821e-07
-9.16485e-08
-1.81577e-07
6.37902e-07
-7.50702e-08
-2.37647e-07
5.77297e-07
-5.58479e-08
-2.95666e-07
4.94117e-07
-4.94669e-08
-1.95308e-07
1.49416e-07
-5.65924e-08
-1.26753e-07
1.37722e-07
-5.65689e-08
-9.14294e-08
1.4175e-07
-5.07012e-08
-6.65226e-08
1.31149e-07
-4.38412e-08
-4.51929e-08
1.16908e-07
-3.80307e-08
-2.44375e-08
1.03049e-07
-3.36141e-08
-5.17416e-09
9.34956e-08
-2.92542e-08
7.14194e-09
8.7887e-08
-2.0759e-08
8.17698e-08
-7.9671e-10
-3.78969e-09
5.11249e-08
1.61999e-09
8.35681e-09
5.53924e-08
-1.44663e-08
2.65944e-08
5.96681e-08
-2.11822e-08
4.65384e-08
6.75154e-08
-2.42869e-08
6.70001e-08
8.05661e-08
-2.74561e-08
8.73166e-08
9.93124e-08
-3.19089e-08
1.06664e-07
1.2339e-07
-3.80398e-08
1.24942e-07
1.49372e-07
-4.69037e-08
1.40485e-07
1.73076e-07
-5.6164e-08
1.93933e-07
1.46242e-07
-7.22289e-08
4.24798e-07
-8.32675e-08
3.33941e-07
5.98501e-07
-1.69739e-08
2.55379e-07
6.63883e-07
-1.21584e-08
2.0265e-07
7.17381e-07
-3.08993e-08
1.58408e-07
7.72423e-07
-4.95827e-08
1.09257e-07
8.15765e-07
-5.16528e-08
5.72437e-08
8.46272e-07
-5.43834e-08
4.425e-09
8.61602e-07
-5.60087e-08
-4.84264e-08
8.62246e-07
-5.60814e-08
-1.00559e-07
8.48208e-07
-5.46013e-08
-1.49985e-07
8.18992e-07
-5.19866e-08
-1.94712e-07
7.76917e-07
-5.00895e-08
-2.48257e-07
7.22978e-07
-3.15309e-08
-3.28138e-07
6.70154e-07
-1.2975e-08
-4.18582e-07
6.03003e-07
-1.84426e-08
-1.82854e-07
-8.63117e-08
-1.28025e-07
1.56756e-07
-7.38633e-08
-1.11723e-07
1.84207e-07
-5.8758e-08
-8.98658e-08
1.60387e-07
-5.1096e-08
-6.50707e-08
1.35836e-07
-4.37232e-08
-3.82063e-08
1.14891e-07
-3.87065e-08
-1.21861e-08
1.0111e-07
-3.36343e-08
5.5181e-09
9.35504e-08
-2.33676e-08
8.70804e-08
2.0745e-10
-2.81799e-09
5.13932e-08
2.54969e-09
1.2911e-08
5.56311e-08
-1.59677e-08
3.61077e-08
6.03281e-08
-2.38567e-08
6.20185e-08
6.91732e-08
-2.75687e-08
8.95176e-08
8.44474e-08
-3.13804e-08
1.17065e-07
1.08141e-07
-3.63765e-08
1.39364e-07
1.43707e-07
-4.26154e-08
1.41901e-07
1.95659e-07
-4.88237e-08
1.10073e-07
2.70983e-07
-6.60789e-08
3.67423e-07
-1.11108e-07
1.92195e-07
3.25529e-07
8.07766e-08
2.5822e-07
5.52055e-07
4.58028e-08
2.54827e-07
6.82565e-07
3.82095e-08
2.08591e-07
7.78956e-07
3.9703e-08
1.44808e-07
8.43383e-07
3.61658e-08
7.5842e-08
8.83845e-07
3.13925e-08
5.25303e-09
9.03193e-07
2.8998e-08
-6.53751e-08
9.03872e-07
2.90017e-08
-1.34481e-07
8.85916e-07
3.13971e-08
-1.98608e-07
8.46939e-07
3.61804e-08
-2.4565e-07
7.84207e-07
3.97513e-08
-2.50916e-07
6.89877e-07
3.83669e-08
-1.88063e-07
5.61626e-07
4.56752e-08
3.35555e-07
7.93852e-08
-1.06522e-07
3.71393e-07
-1.08115e-07
-1.32715e-07
2.78626e-07
-6.82266e-08
-1.236e-07
2.04933e-07
-5.36615e-08
-9.35466e-08
1.5522e-07
-4.94364e-08
-5.71782e-08
1.23206e-07
-4.4684e-08
-2.18142e-08
1.04845e-07
-3.90991e-08
3.04059e-09
9.54719e-08
-2.67763e-08
8.86174e-08
1.50359e-09
-1.3225e-09
4.92797e-08
3.43605e-09
1.86157e-08
5.33197e-08
-1.76268e-08
4.81659e-08
5.76064e-08
-2.68285e-08
8.30614e-08
6.56213e-08
-3.13435e-08
1.24518e-07
7.92235e-08
-3.62328e-08
1.75852e-07
9.95714e-08
-4.27647e-08
2.42553e-07
1.27852e-07
-5.08465e-08
3.31471e-07
1.64109e-07
-5.73686e-08
4.55821e-07
2.06388e-07
-5.97541e-08
6.11596e-07
2.5395e-07
-4.23023e-08
4.78138e-07
8.55712e-08
4.78866e-08
4.86163e-07
2.3217e-07
8.53339e-08
4.65827e-07
4.16244e-07
1.56147e-07
3.97283e-07
5.35331e-07
2.15778e-07
3.02694e-07
6.24366e-07
2.49178e-07
2.01493e-07
6.83406e-07
2.61179e-07
1.02668e-07
7.20205e-07
2.62466e-07
6.09669e-09
7.3787e-07
2.61894e-07
-9.04524e-08
7.38468e-07
2.61953e-07
-1.89205e-07
7.22021e-07
2.62648e-07
-2.9029e-07
6.865e-07
2.61524e-07
-3.84758e-07
6.28829e-07
2.49846e-07
-4.53233e-07
5.41234e-07
2.17117e-07
-4.7318e-07
4.2323e-07
1.58343e-07
-4.67118e-07
2.40362e-07
8.91304e-08
-6.06033e-07
8.74148e-08
5.15e-08
-4.50166e-07
2.57169e-07
-4.16429e-08
-3.21729e-07
2.1264e-07
-6.24498e-08
-2.26366e-07
1.72438e-07
-6.2868e-08
-1.50824e-07
1.38678e-07
-5.90012e-08
-8.87441e-08
1.14028e-07
-5.29016e-08
-3.68954e-08
9.89348e-08
-4.59386e-08
-1.55576e-09
9.11497e-08
-3.10175e-08
8.44755e-08
2.58613e-09
-1.41425e-10
4.51393e-08
4.28181e-09
2.33483e-08
4.89736e-08
-1.91437e-08
5.81282e-08
5.2465e-08
-2.96385e-08
9.97311e-08
5.89434e-08
-3.4925e-08
1.50087e-07
6.96565e-08
-4.07885e-08
2.13412e-07
8.49185e-08
-4.86728e-08
2.9515e-07
1.04343e-07
-5.8228e-08
3.99043e-07
1.26417e-07
-6.62005e-08
5.27192e-07
1.46235e-07
-6.79969e-08
6.72315e-07
1.61496e-07
-5.26691e-08
6.70673e-07
1.05744e-07
-1.85305e-08
6.59568e-07
1.9321e-07
5.00659e-08
6.00679e-07
3.05072e-07
1.70061e-07
4.95462e-07
3.894e-07
2.51148e-07
3.71364e-07
4.54204e-07
2.94259e-07
2.44966e-07
4.96778e-07
3.13026e-07
1.238e-07
5.23502e-07
3.17869e-07
6.76256e-09
5.3633e-07
3.18577e-07
-1.10232e-07
5.36821e-07
3.18642e-07
-2.31265e-07
5.24981e-07
3.18073e-07
-3.57454e-07
4.99259e-07
3.1343e-07
-4.81358e-07
4.57685e-07
2.95048e-07
-5.86711e-07
3.93836e-07
2.52751e-07
-6.46424e-07
3.1018e-07
1.72763e-07
-6.59248e-07
1.98594e-07
5.45917e-08
-6.64894e-07
1.08634e-07
-1.55732e-08
-5.20883e-07
1.65684e-07
-5.25272e-08
-3.89191e-07
1.52071e-07
-7.11227e-08
-2.78393e-07
1.34104e-07
-7.2464e-08
-1.86568e-07
1.14446e-07
-6.75922e-08
-1.10595e-07
9.84797e-08
-6.04244e-08
-4.75073e-08
8.80397e-08
-5.21924e-08
-3.90188e-09
8.24524e-08
-3.49081e-08
7.66624e-08
3.9112e-09
5.02537e-10
3.94577e-08
5.17908e-09
2.71972e-08
4.27799e-08
-2.0501e-08
6.63369e-08
4.54017e-08
-3.20764e-08
1.13172e-07
5.01384e-08
-3.80301e-08
1.69804e-07
5.77979e-08
-4.47731e-08
2.40484e-07
6.82793e-08
-5.4041e-08
3.2971e-07
8.07532e-08
-6.56368e-08
4.39146e-07
9.39977e-08
-7.70162e-08
5.6454e-07
1.04331e-07
-8.34901e-08
6.89205e-07
1.13356e-07
-7.65255e-08
7.4081e-07
1.02914e-07
-4.87746e-08
7.51586e-07
1.53215e-07
2.92183e-08
6.82262e-07
2.19505e-07
1.54891e-07
5.60519e-07
2.74064e-07
2.3708e-07
4.16735e-07
3.16835e-07
2.81153e-07
2.73401e-07
3.44958e-07
2.95155e-07
1.37651e-07
3.62877e-07
2.96375e-07
7.28102e-09
3.71538e-07
2.95162e-07
-1.23039e-07
3.7195e-07
2.95191e-07
-2.58636e-07
3.64106e-07
2.96471e-07
-4.01746e-07
3.46985e-07
2.95384e-07
-5.4538e-07
3.19613e-07
2.81706e-07
-6.67484e-07
2.77521e-07
2.38419e-07
-7.38069e-07
2.23424e-07
1.57342e-07
-7.30409e-07
1.57404e-07
3.35302e-08
-6.81985e-07
1.0633e-07
-4.61202e-08
-5.57561e-07
1.17628e-07
-7.6368e-08
-4.28527e-07
1.09798e-07
-8.6761e-08
-3.11735e-07
1.01053e-07
-8.37412e-08
-2.11406e-07
8.99725e-08
-7.58562e-08
-1.265e-07
8.05537e-08
-6.69795e-08
-5.5249e-08
7.41845e-08
-5.73959e-08
-5.45489e-09
7.0667e-08
-3.80087e-08
6.59097e-08
5.29781e-09
8.01299e-10
3.26942e-08
5.9622e-09
2.97843e-08
3.53845e-08
-2.15877e-08
7.1977e-08
3.7242e-08
-3.40329e-08
1.22141e-07
4.04884e-08
-4.05141e-08
1.82216e-07
4.56619e-08
-4.79388e-08
2.5622e-07
5.25553e-08
-5.82803e-08
3.47979e-07
6.04394e-08
-7.14448e-08
4.58457e-07
6.86641e-08
-8.51449e-08
5.81752e-07
7.53369e-08
-9.43005e-08
7.02175e-07
8.32771e-08
-9.03443e-08
7.80454e-07
8.76965e-08
-6.30615e-08
8.03528e-07
1.18946e-07
1.11955e-08
7.29043e-07
1.59713e-07
1.34277e-07
5.98479e-07
1.94434e-07
2.10195e-07
4.44103e-07
2.22014e-07
2.49197e-07
2.91082e-07
2.40557e-07
2.57421e-07
1.46457e-07
2.5255e-07
2.54951e-07
7.69356e-09
2.58441e-07
2.51861e-07
-1.31029e-07
2.5882e-07
2.51853e-07
-2.75529e-07
2.53672e-07
2.54934e-07
-4.2838e-07
2.4238e-07
2.57456e-07
-5.82704e-07
2.24464e-07
2.49472e-07
-7.13802e-07
1.97421e-07
2.11198e-07
-7.89843e-07
1.6308e-07
1.36385e-07
-7.70345e-07
1.22671e-07
1.52344e-08
-6.94669e-07
9.12412e-08
-6.05874e-08
-5.74122e-07
8.74293e-08
-9.03474e-08
-4.46916e-07
8.03623e-08
-9.77701e-08
-3.28585e-07
7.49635e-08
-9.22425e-08
-2.24857e-07
6.85209e-08
-8.22767e-08
-1.3539e-07
6.31241e-08
-7.20375e-08
-5.93432e-08
5.94799e-08
-6.13417e-08
-5.81024e-09
5.74035e-08
-4.02696e-08
5.36573e-08
6.44221e-09
9.3044e-10
2.51921e-08
6.57167e-09
3.14996e-08
2.72185e-08
-2.24031e-08
7.58093e-08
2.84459e-08
-3.55136e-08
1.28155e-07
3.05272e-08
-4.2385e-08
1.90277e-07
3.38435e-08
-5.03035e-08
2.66002e-07
3.82502e-08
-6.14191e-08
3.58838e-07
4.33122e-08
-7.57087e-08
4.69655e-07
4.88258e-08
-9.09787e-08
5.92807e-07
5.40482e-08
-1.01864e-07
7.14551e-07
6.12211e-08
-9.9688e-08
8.0554e-07
6.90847e-08
-7.23776e-08
8.35171e-07
8.95541e-08
-2.38833e-10
7.586e-07
1.14964e-07
1.21319e-07
6.22895e-07
1.3725e-07
1.92889e-07
4.61867e-07
1.55152e-07
2.2789e-07
3.02649e-07
1.67534e-07
2.32242e-07
1.52289e-07
1.75668e-07
2.27243e-07
8.06885e-09
1.7977e-07
2.22892e-07
-1.36125e-07
1.80149e-07
2.22864e-07
-2.86405e-07
1.76788e-07
2.27164e-07
-4.45528e-07
1.69335e-07
2.32168e-07
-6.06609e-07
1.57538e-07
2.28007e-07
-7.42988e-07
1.40105e-07
1.93696e-07
-8.21252e-07
1.18128e-07
1.23216e-07
-7.95487e-07
9.28876e-08
4.01884e-09
-7.06733e-07
7.25296e-08
-7.00427e-08
-5.84578e-07
6.50758e-08
-9.98011e-08
-4.57211e-07
5.84928e-08
-1.05498e-07
-3.38084e-07
5.41878e-08
-9.83513e-08
-2.32586e-07
4.99876e-08
-8.69644e-08
-1.4049e-07
4.67483e-08
-7.57209e-08
-6.14926e-08
4.46703e-08
-6.41874e-08
-5.69023e-09
4.3465e-08
-4.18639e-08
4.06644e-08
7.3027e-09
9.3515e-10
1.72783e-08
6.97865e-09
3.25099e-08
1.86328e-08
-2.2989e-08
7.81733e-08
1.93508e-08
-3.65682e-08
1.31864e-07
2.05383e-08
-4.37016e-08
1.95175e-07
2.24688e-08
-5.1937e-08
2.71852e-07
2.51087e-08
-6.35356e-08
3.65365e-07
2.83072e-08
-7.85075e-08
4.76759e-07
3.21003e-08
-9.4669e-08
6.00955e-07
3.63372e-08
-1.06484e-07
7.25002e-07
4.2291e-08
-1.05117e-07
8.22385e-07
4.96504e-08
-7.79485e-08
8.55534e-07
6.25907e-08
-6.18579e-09
7.77705e-07
7.78426e-08
1.1495e-07
6.38754e-07
9.14599e-08
1.84742e-07
4.73606e-07
1.02491e-07
2.17809e-07
3.10441e-07
1.10403e-07
2.20296e-07
1.56314e-07
1.15703e-07
2.14092e-07
8.44075e-09
1.18495e-07
2.09147e-07
-1.39427e-07
1.18903e-07
2.09114e-07
-2.93535e-07
1.16902e-07
2.13994e-07
-4.56701e-07
1.12315e-07
2.20186e-07
-6.22027e-07
1.04996e-07
2.17869e-07
-7.61799e-07
9.43999e-08
1.85476e-07
-8.4151e-07
8.10514e-08
1.16788e-07
-8.12152e-07
6.59499e-08
-2.42073e-09
-7.16908e-07
5.29745e-08
-7.56884e-08
-5.92259e-07
4.57742e-08
-1.05348e-07
-4.63595e-07
4.01137e-08
-1.10285e-07
-3.43532e-07
3.64018e-08
-1.02277e-07
-2.36857e-07
3.33974e-08
-9.00849e-08
-1.43191e-07
3.13058e-08
-7.82233e-08
-6.24457e-08
3.00685e-08
-6.61436e-08
-5.36345e-09
2.93557e-08
-4.2973e-08
2.74691e-08
7.83185e-09
8.99969e-10
9.18876e-09
7.18957e-09
3.30486e-08
9.86752e-09
-2.33834e-08
7.95089e-08
1.0139e-08
-3.72485e-08
1.34008e-07
1.05725e-08
-4.45331e-08
1.98072e-07
1.13474e-08
-5.2943e-08
2.75435e-07
1.25465e-08
-6.48012e-08
3.69609e-07
1.42673e-08
-8.01333e-08
4.81776e-07
1.66787e-08
-9.67455e-08
6.07173e-07
1.9952e-08
-1.09012e-07
7.33053e-07
2.43896e-08
-1.07979e-07
8.33564e-07
2.99746e-08
-8.08346e-08
8.68394e-07
3.68163e-08
-9.0561e-09
7.89754e-07
4.38255e-08
1.12658e-07
6.48818e-07
5.02139e-08
1.82182e-07
4.81185e-07
5.54312e-08
2.14693e-07
3.15566e-07
5.94569e-08
2.16565e-07
1.59054e-07
6.22721e-08
2.09943e-07
8.83828e-09
6.39189e-08
2.04792e-07
-1.41398e-07
6.4379e-08
2.0476e-07
-2.97967e-07
6.36225e-08
2.09848e-07
-4.63708e-07
6.15967e-08
2.16459e-07
-6.31674e-07
5.82078e-08
2.14754e-07
-7.73591e-07
5.34094e-08
1.82908e-07
-8.54244e-07
4.72135e-08
1.14491e-07
-8.23318e-07
4.01682e-08
-5.14446e-09
-7.24854e-07
3.31563e-08
-7.86459e-08
-5.98235e-07
2.74901e-08
-1.08335e-07
-4.68186e-07
2.30425e-08
-1.12978e-07
-3.4711e-07
1.98883e-08
-1.04563e-07
-2.3946e-07
1.77166e-08
-9.19687e-08
-1.44739e-07
1.63646e-08
-7.97795e-08
-6.29252e-08
1.56491e-08
-6.73949e-08
-5.1115e-09
1.52619e-08
-4.37198e-08
1.42784e-08
8.07914e-09
8.54476e-10
1.12833e-09
7.20595e-09
3.32049e-08
1.12594e-09
-2.36088e-08
7.9983e-08
9.47569e-10
-3.75866e-08
1.34854e-07
6.22388e-10
-4.49214e-08
1.99355e-07
2.27431e-10
-5.33804e-08
2.77252e-07
-4.58522e-11
-6.53046e-08
3.72108e-07
1.36676e-10
-8.07253e-08
4.85125e-07
1.10491e-09
-9.74432e-08
6.11529e-07
3.35777e-09
-1.0981e-07
7.38435e-07
6.32925e-09
-1.08846e-07
8.39783e-07
1.03546e-08
-8.17281e-08
8.74801e-07
1.16479e-08
-9.84988e-09
7.95649e-07
1.06421e-08
1.12335e-07
6.53787e-07
9.88107e-09
1.82195e-07
4.85075e-07
9.28099e-09
2.14862e-07
3.18323e-07
9.41485e-09
2.16794e-07
1.60665e-07
9.74951e-09
2.1018e-07
9.28414e-09
1.02707e-08
2.05029e-07
-1.4215e-07
1.08129e-08
2.05e-07
-2.99961e-07
1.13419e-08
2.10092e-07
-4.66989e-07
1.19303e-08
2.16694e-07
-6.36237e-07
1.25292e-08
2.14926e-07
-7.79299e-07
1.35614e-08
1.8291e-07
-8.6066e-07
1.44427e-08
1.14132e-07
-8.2964e-07
1.51971e-08
-6.04933e-09
-7.30313e-07
1.3492e-08
-7.96622e-08
-6.02602e-07
9.13596e-09
-1.09357e-07
-4.71452e-07
5.85269e-09
-1.1396e-07
-3.49417e-07
3.32023e-09
-1.05467e-07
-2.4096e-07
2.04728e-09
-9.27876e-08
-1.45557e-07
1.48041e-09
-8.05185e-08
-6.31777e-08
1.31267e-09
-6.80432e-08
-5.0141e-09
1.26769e-09
-4.41695e-08
1.20058e-09
8.06375e-09
7.97205e-10
-6.69598e-09
7.02711e-09
3.29759e-08
-7.38358e-09
-2.36691e-08
7.95903e-08
-8.07818e-09
-3.75886e-08
1.34397e-07
-9.30866e-09
-4.48754e-08
1.99007e-07
-1.1117e-08
-5.32654e-08
2.77267e-07
-1.32284e-08
-6.50776e-08
3.72778e-07
-1.50455e-08
-8.03292e-08
4.86721e-07
-1.60312e-08
-9.68066e-08
6.14004e-07
-1.49955e-08
-1.0893e-07
7.41267e-07
-1.31467e-08
-1.07786e-07
8.41293e-07
-8.92517e-09
-8.07461e-08
8.74886e-07
-1.31282e-08
-8.81761e-09
7.95417e-07
-2.35194e-08
1.13631e-07
6.53647e-07
-3.26578e-08
1.84309e-07
4.85263e-07
-4.0094e-08
2.17759e-07
3.18713e-07
-4.44058e-08
2.2037e-07
1.6116e-07
-4.68549e-08
2.14158e-07
9.80157e-09
-4.75663e-08
2.09195e-07
-1.41648e-07
-4.69013e-08
2.09164e-07
-2.99472e-07
-4.48964e-08
2.14062e-07
-4.66487e-07
-4.13058e-08
2.20251e-07
-6.35667e-07
-3.60743e-08
2.17784e-07
-7.78926e-07
-2.81294e-08
1.8495e-07
-8.60885e-07
-1.89153e-08
1.15317e-07
-8.31427e-07
-9.08164e-09
-5.17942e-09
-7.3343e-07
-5.63434e-09
-7.8871e-08
-6.05349e-07
-1.04292e-08
-1.08516e-07
-4.73321e-07
-1.28714e-08
-1.13304e-07
-3.50385e-07
-1.45706e-08
-1.05045e-07
-2.41313e-07
-1.44443e-08
-9.2581e-08
-1.45619e-07
-1.37452e-08
-8.04679e-08
-6.31866e-08
-1.30115e-08
-6.81083e-08
-5.05969e-09
-1.25239e-08
-4.43353e-08
-1.1641e-08
7.78193e-09
6.97554e-10
-1.40409e-08
6.64736e-09
3.22712e-08
-1.54066e-08
-2.35506e-08
7.81567e-08
-1.67283e-08
-3.72354e-08
1.32333e-07
-1.91156e-08
-4.43694e-08
1.96562e-07
-2.27899e-08
-5.25556e-08
2.74839e-07
-2.7464e-08
-6.40424e-08
3.7093e-07
-3.23095e-08
-7.88262e-08
4.85978e-07
-3.64031e-08
-9.46769e-08
6.14437e-07
-3.73172e-08
-1.06137e-07
7.42022e-07
-3.63217e-08
-1.0441e-07
8.37983e-07
-2.74953e-08
-7.73903e-08
8.67811e-07
-3.78533e-08
-5.10287e-09
7.88173e-07
-6.17651e-08
1.17884e-07
6.47679e-07
-8.26316e-08
1.90468e-07
4.81287e-07
-9.9518e-08
2.25816e-07
3.16475e-07
-1.09791e-07
2.30197e-07
1.60443e-07
-1.15889e-07
2.25066e-07
1.04387e-08
-1.18173e-07
2.20611e-07
-1.39702e-07
-1.17314e-07
2.20553e-07
-2.96144e-07
-1.13343e-07
2.24888e-07
-4.61655e-07
-1.05729e-07
2.29935e-07
-6.29184e-07
-9.41793e-08
2.25635e-07
-7.71565e-07
-7.65878e-08
1.90839e-07
-8.54121e-07
-5.5607e-08
1.19248e-07
-8.28579e-07
-3.26297e-08
-1.99399e-09
-7.34636e-07
-2.37303e-08
-7.58469e-08
-6.06255e-07
-3.33281e-08
-1.05482e-07
-4.73141e-07
-3.51592e-08
-1.10827e-07
-3.49269e-07
-3.52651e-08
-1.03178e-07
-2.39873e-07
-3.25697e-08
-9.12699e-08
-1.44467e-07
-2.95888e-08
-7.95624e-08
-6.2688e-08
-2.72582e-08
-6.75328e-08
-5.15373e-09
-2.58772e-08
-4.41809e-08
-2.4e-08
7.20526e-09
4.83686e-10
-2.05839e-08
6.05927e-09
3.08675e-08
-2.25637e-08
-2.32266e-08
7.52564e-08
-2.46251e-08
-3.64922e-08
1.27934e-07
-2.84372e-08
-4.33559e-08
1.90842e-07
-3.45212e-08
-5.1177e-08
2.68225e-07
-4.2773e-08
-6.20737e-08
3.64292e-07
-5.23889e-08
-7.59878e-08
4.80572e-07
-6.20861e-08
-9.05964e-08
6.11604e-07
-6.76687e-08
-1.00681e-07
7.41399e-07
-6.8622e-08
-9.74945e-08
8.28384e-07
-4.37143e-08
-7.07662e-08
8.50474e-07
-6.2205e-08
2.26207e-09
7.70514e-07
-1.08441e-07
1.26636e-07
6.33029e-07
-1.47985e-07
2.02839e-07
4.71264e-07
-1.79352e-07
2.41599e-07
3.10555e-07
-1.98509e-07
2.49427e-07
1.58073e-07
-2.09888e-07
2.46481e-07
1.12498e-08
-2.14419e-07
2.43069e-07
-1.35756e-07
-2.13253e-07
2.42944e-07
-2.88797e-07
-2.06397e-07
2.46096e-07
-4.50468e-07
-1.92868e-07
2.4881e-07
-6.13799e-07
-1.71773e-07
2.40924e-07
-7.53697e-07
-1.39292e-07
2.02603e-07
-8.37181e-07
-9.94686e-08
1.27345e-07
-8.198e-07
-5.50694e-08
5.05924e-09
-7.34574e-07
-3.92184e-08
-6.97384e-08
-6.04016e-07
-6.47797e-08
-9.91063e-08
-4.68516e-07
-6.48238e-08
-1.05835e-07
-3.43729e-07
-6.06249e-08
-9.94276e-08
-2.34812e-07
-5.28871e-08
-8.85993e-08
-1.40872e-07
-4.59013e-08
-7.76278e-08
-6.09775e-08
-4.09716e-08
-6.61809e-08
-5.01588e-09
-3.82243e-08
-4.36146e-08
-3.52941e-08
6.27815e-09
1.24333e-10
-2.60166e-08
5.30844e-09
2.86443e-08
-2.8399e-08
-2.26848e-08
7.06437e-08
-3.12877e-08
-3.53368e-08
1.2069e-07
-3.66739e-08
-4.18097e-08
1.80827e-07
-4.55504e-08
-4.91075e-08
2.55515e-07
-5.82948e-08
-5.9166e-08
3.49687e-07
-7.47057e-08
-7.1856e-08
4.65995e-07
-9.37467e-08
-8.46468e-08
6.01378e-07
-1.10342e-07
-9.27102e-08
7.4002e-07
-1.19831e-07
-8.74333e-08
8.07991e-07
-5.21657e-08
-5.95198e-08
8.14111e-07
-8.45106e-08
1.61861e-08
7.36125e-07
-1.71079e-07
1.40624e-07
6.05545e-07
-2.38428e-07
2.21022e-07
4.52412e-07
-2.89787e-07
2.63569e-07
2.99226e-07
-3.21518e-07
2.76194e-07
1.53268e-07
-3.40128e-07
2.76198e-07
1.236e-08
-3.47735e-07
2.74224e-07
-1.28764e-07
-3.46103e-07
2.73975e-07
-2.75411e-07
-3.35183e-07
2.75434e-07
-4.29829e-07
-3.13387e-07
2.74937e-07
-5.85079e-07
-2.78552e-07
2.62029e-07
-7.18834e-07
-2.2529e-07
2.19753e-07
-8.01587e-07
-1.57034e-07
1.40318e-07
-8.00567e-07
-7.39021e-08
1.78126e-08
-7.33656e-07
-4.69324e-08
-5.91962e-08
-5.94469e-07
-1.14016e-07
-8.99513e-08
-4.54937e-07
-1.05797e-07
-9.85586e-08
-3.30555e-07
-9.11196e-08
-9.38876e-08
-2.24156e-07
-7.47113e-08
-8.45749e-08
-1.33721e-07
-6.17524e-08
-7.45839e-08
-5.74865e-08
-5.32814e-08
-6.39242e-08
-4.44958e-09
-4.8756e-08
-4.25051e-08
-4.47944e-08
5.05077e-09
-7.74434e-10
-2.97366e-08
4.49439e-09
2.5219e-08
-3.24085e-08
-2.19839e-08
6.36303e-08
-3.59042e-08
-3.37948e-08
1.09208e-07
-4.24984e-08
-3.97529e-08
1.63737e-07
-5.37256e-08
-4.63545e-08
2.3151e-07
-7.07753e-08
-5.52922e-08
3.18151e-07
-9.50288e-08
-6.63176e-08
4.28346e-07
-1.27751e-07
-7.61907e-08
5.66728e-07
-1.68429e-07
-8.02953e-08
7.37563e-07
-2.23429e-07
-6.72373e-08
7.70027e-07
-4.96338e-08
-3.49959e-08
7.35726e-07
-8.11927e-08
3.09833e-08
6.67351e-07
-2.51326e-07
1.48623e-07
5.52121e-07