/*--------------------------------*- C++ -*----------------------------------*\
| =========                 |                                                 |
| \\      /  F ield         | OpenFOAM: The Open Source CFD Toolbox           |
|  \\    /   O peration     | Version:  2112                                  |
|   \\  /    A nd           | Website:  www.openfoam.com                      |
|    \\/     M anipulation  |                                                 |
\*---------------------------------------------------------------------------*/
FoamFile
{
    version     2.0;
    format      ascii;
    arch        "LSB;label=32;scalar=64";
    class       volVectorField;
    location    "3.6";
    object      U;
}
// * * * * * * * * * * * * * * * * * * * * * * * * * * * * * * * * * * * * * //

dimensions      [0 1 -1 0 0 0 0];

internalField   nonuniform List<vector> 
64906
(
(-2.92309e-09 7.73579e-08 -7.63063e-07)
(2.03218e-06 -1.56333e-06 -7.90039e-07)
(5.82159e-06 -3.2442e-06 -2.84485e-08)
(1.01294e-05 -4.65786e-06 9.68595e-07)
(1.4765e-05 -5.67943e-06 1.83159e-06)
(1.9471e-05 -6.44469e-06 2.51185e-06)
(2.4126e-05 -7.10454e-06 3.02525e-06)
(2.85482e-05 -7.68985e-06 3.51229e-06)
(3.25907e-05 -8.22591e-06 4.02084e-06)
(3.57885e-05 -8.61312e-06 4.57546e-06)
(3.76988e-05 -8.91487e-06 5.14101e-06)
(3.76436e-05 -8.83282e-06 5.78826e-06)
(3.56066e-05 -8.82135e-06 6.50302e-06)
(3.20013e-05 -8.85293e-06 7.21002e-06)
(2.69864e-05 -9.05639e-06 7.81497e-06)
(2.09913e-05 -9.2616e-06 8.30051e-06)
(1.42881e-05 -9.4548e-06 8.6333e-06)
(7.21014e-06 -9.57387e-06 8.80749e-06)
(1.62874e-08 -9.61052e-06 8.81709e-06)
(-7.00508e-06 -9.5651e-06 8.66281e-06)
(-1.35956e-05 -9.44678e-06 8.35072e-06)
(-1.94243e-05 -9.31827e-06 7.88699e-06)
(-2.42258e-05 -9.19204e-06 7.30554e-06)
(-2.75791e-05 -9.23857e-06 6.62282e-06)
(-2.93636e-05 -9.31447e-06 5.93615e-06)
(-2.91191e-05 -9.39961e-06 5.34129e-06)
(-2.68763e-05 -9.10837e-06 4.78735e-06)
(-2.33699e-05 -8.68442e-06 4.19998e-06)
(-1.89932e-05 -7.99718e-06 3.5494e-06)
(-1.42954e-05 -7.07476e-06 2.66107e-06)
(-9.58375e-06 -5.72978e-06 1.49797e-06)
(-5.33837e-06 -3.83266e-06 1.02964e-07)
(-1.72414e-06 -1.48936e-06 -9.83556e-07)
(2.5924e-07 4.64094e-07 -1.12227e-06)
(-2.5368e-06 4.41775e-06 -1.60988e-06)
(-1.38314e-06 3.15185e-06 -6.29869e-06)
(3.76911e-06 1.2433e-06 -7.74609e-06)
(9.03471e-06 -4.77157e-07 -8.03866e-06)
(1.42765e-05 -1.5134e-06 -8.25407e-06)
(1.92888e-05 -1.88026e-06 -8.71729e-06)
(2.4127e-05 -1.66288e-06 -9.52556e-06)
(2.87095e-05 -7.92283e-07 -1.06921e-05)
(3.29525e-05 8.16046e-07 -1.2225e-05)
(3.63358e-05 3.45921e-06 -1.41251e-05)
(3.85557e-05 6.91173e-06 -1.6341e-05)
(3.87511e-05 1.13832e-05 -1.87858e-05)
(3.66783e-05 1.52783e-05 -2.11575e-05)
(3.28689e-05 1.86277e-05 -2.32168e-05)
(2.76053e-05 2.101e-05 -2.48768e-05)
(2.14382e-05 2.27291e-05 -2.6132e-05)
(1.45784e-05 2.37839e-05 -2.69767e-05)
(7.374e-06 2.4291e-05 -2.74178e-05)
(5.45751e-08 2.42642e-05 -2.7453e-05)
(-7.08802e-06 2.37033e-05 -2.70821e-05)
(-1.38264e-05 2.25952e-05 -2.63071e-05)
(-1.98137e-05 2.0824e-05 -2.5122e-05)
(-2.48471e-05 1.83986e-05 -2.3534e-05)
(-2.83759e-05 1.502e-05 -2.15523e-05)
(-3.01148e-05 1.11398e-05 -1.92733e-05)
(-2.9573e-05 6.76099e-06 -1.697e-05)
(-2.7006e-05 3.49163e-06 -1.49182e-05)
(-2.3219e-05 1.16807e-06 -1.32466e-05)
(-1.84733e-05 1.33485e-07 -1.20369e-05)
(-1.32682e-05 1.87656e-07 -1.1301e-05)
(-7.67064e-06 1.38589e-06 -1.09173e-05)
(-1.96748e-06 3.60788e-06 -1.04587e-05)
(3.40728e-06 6.08793e-06 -8.62847e-06)
(3.83398e-06 7.38296e-06 -2.46678e-06)
(-4.34351e-06 1.37475e-05 -1.40951e-06)
(-4.05941e-06 1.45946e-05 -8.09259e-06)
(1.7805e-06 1.39169e-05 -1.03669e-05)
(7.82867e-06 1.33603e-05 -1.11444e-05)
(1.38956e-05 1.37658e-05 -1.17798e-05)
(1.9663e-05 1.53345e-05 -1.2702e-05)
(2.53014e-05 1.82153e-05 -1.40836e-05)
(3.08187e-05 2.27233e-05 -1.6005e-05)
(3.6265e-05 2.92069e-05 -1.85115e-05)
(4.08843e-05 3.83896e-05 -2.16321e-05)
(4.42303e-05 4.98039e-05 -2.52713e-05)
(4.45421e-05 6.35699e-05 -2.92367e-05)
(4.16539e-05 7.56486e-05 -3.30037e-05)
(3.68844e-05 8.61511e-05 -3.62933e-05)
(3.0559e-05 9.41049e-05 -3.89666e-05)
(2.34812e-05 0.000100052 -4.09953e-05)
(1.5754e-05 0.000103908 -4.23593e-05)
(7.75029e-06 0.000105854 -4.30708e-05)
(-3.63361e-07 0.000105892 -4.31246e-05)
(-8.30226e-06 0.000104022 -4.25201e-05)
(-1.59017e-05 0.000100247 -4.12627e-05)
(-2.27862e-05 9.43859e-05 -3.93415e-05)
(-2.88587e-05 8.6543e-05 -3.67789e-05)
(-3.3307e-05 7.61872e-05 -3.36097e-05)
(-3.58193e-05 6.43412e-05 -2.99833e-05)
(-3.50635e-05 5.08866e-05 -2.61977e-05)
(-3.12146e-05 4.00136e-05 -2.27914e-05)
(-2.59868e-05 3.15639e-05 -1.99763e-05)
(-1.97126e-05 2.61399e-05 -1.7861e-05)
(-1.31033e-05 2.3099e-05 -1.63905e-05)
(-6.08471e-06 2.21228e-05 -1.53513e-05)
(7.80992e-07 2.26849e-05 -1.41855e-05)
(7.11859e-06 2.33429e-05 -1.11583e-05)
(6.35268e-06 2.18093e-05 -2.34258e-06)
(-5.62144e-06 2.3838e-05 -7.45854e-07)
(-5.8206e-06 2.60429e-05 -8.32824e-06)
(8.06577e-07 2.63842e-05 -1.09129e-05)
(7.8793e-06 2.7115e-05 -1.18267e-05)
(1.51606e-05 2.91706e-05 -1.25974e-05)
(2.22465e-05 3.28696e-05 -1.3708e-05)
(2.94636e-05 3.85468e-05 -1.53724e-05)
(3.69431e-05 4.6837e-05 -1.77093e-05)
(4.49785e-05 5.84973e-05 -2.07743e-05)
(5.23281e-05 7.50428e-05 -2.46237e-05)
(5.82948e-05 9.58792e-05 -2.91092e-05)
(5.89579e-05 0.000121631 -3.40808e-05)
(5.41434e-05 0.000143697 -3.87565e-05)
(4.70423e-05 0.000162586 -4.28283e-05)
(3.8177e-05 0.000176705 -4.61275e-05)
(2.88555e-05 0.000187283 -4.86102e-05)
(1.89277e-05 0.000194162 -5.02616e-05)
(8.82643e-06 0.000197661 -5.1119e-05)
(-1.38721e-06 0.000197768 -5.11785e-05)
(-1.14215e-05 0.000194479 -5.04392e-05)
(-2.12164e-05 0.000187815 -4.89044e-05)
(-3.0329e-05 0.000177454 -4.65381e-05)
(-3.89117e-05 0.000163584 -4.3357e-05)
(-4.563e-05 0.000144988 -3.94125e-05)
(-4.99814e-05 0.000123346 -3.48857e-05)
(-4.87184e-05 9.81442e-05 -3.01032e-05)
(-4.20501e-05 7.81873e-05 -2.58716e-05)
(-3.38503e-05 6.27104e-05 -2.23537e-05)
(-2.46265e-05 5.24765e-05 -1.97057e-05)
(-1.56007e-05 4.60272e-05 -1.7837e-05)
(-6.48509e-06 4.26153e-05 -1.65045e-05)
(1.9832e-06 4.13722e-05 -1.50961e-05)
(9.47094e-06 4.07541e-05 -1.16264e-05)
(8.09543e-06 3.74386e-05 -1.57705e-06)
(-6.40215e-06 3.42506e-05 5.10976e-09)
(-6.59722e-06 3.75481e-05 -8.3406e-06)
(1.24055e-06 3.88209e-05 -1.11801e-05)
(9.75102e-06 4.08853e-05 -1.21771e-05)
(1.87182e-05 4.47301e-05 -1.30592e-05)
(2.77302e-05 5.07235e-05 -1.43774e-05)
(3.73782e-05 5.93348e-05 -1.63841e-05)
(4.80389e-05 7.15596e-05 -1.92373e-05)
(6.05502e-05 8.87967e-05 -2.29709e-05)
(7.29225e-05 0.000114061 -2.76816e-05)
(8.42445e-05 0.000147193 -3.3105e-05)
(8.55724e-05 0.000190687 -3.94059e-05)
(7.66436e-05 0.000225986 -4.52262e-05)
(6.50961e-05 0.000255377 -5.03453e-05)
(5.167e-05 0.00027672 -5.45026e-05)
(3.84427e-05 0.000292736 -5.75618e-05)
(2.46386e-05 0.000303134 -5.95598e-05)
(1.08101e-05 0.000308452 -6.05892e-05)
(-3.15382e-06 0.000308636 -6.0653e-05)
(-1.69162e-05 0.000303681 -5.97498e-05)
(-3.05887e-05 0.000293643 -5.78748e-05)
(-4.35965e-05 0.000277975 -5.49367e-05)
(-5.67132e-05 0.000257007 -5.08987e-05)
(-6.78015e-05 0.000228024 -4.59067e-05)
(-7.61552e-05 0.000193311 -4.02368e-05)
(-7.40081e-05 0.000150549 -3.41286e-05)
(-6.17502e-05 0.000118675 -2.89788e-05)
(-4.83029e-05 9.47755e-05 -2.46253e-05)
(-3.42438e-05 7.92806e-05 -2.13432e-05)
(-2.15884e-05 6.92334e-05 -1.90035e-05)
(-9.52874e-06 6.33024e-05 -1.73701e-05)
(1.21084e-06 6.02848e-05 -1.57506e-05)
(1.04954e-05 5.85293e-05 -1.18775e-05)
(9.18728e-06 5.37849e-05 -6.94047e-07)
(-6.91704e-06 4.42009e-05 7.48436e-07)
(-6.62051e-06 4.83373e-05 -8.47547e-06)
(3.02154e-06 5.04184e-05 -1.16317e-05)
(1.35127e-05 5.37688e-05 -1.2741e-05)
(2.4704e-05 5.94249e-05 -1.37808e-05)
(3.62325e-05 6.77092e-05 -1.53963e-05)
(4.90805e-05 7.91056e-05 -1.78777e-05)
(6.40862e-05 9.48843e-05 -2.14198e-05)
(8.32711e-05 0.000117329 -2.59472e-05)
(0.000103954 0.000152156 -3.15748e-05)
(0.000125926 0.000200753 -3.75126e-05)
(0.000128681 0.000272317 -4.53581e-05)
(0.000111516 0.000325058 -5.25546e-05)
(9.24972e-05 0.000367055 -5.92267e-05)
(7.20077e-05 0.000396302 -6.47352e-05)
(5.3027e-05 0.000418373 -6.85757e-05)
(3.33761e-05 0.000432655 -7.10132e-05)
(1.38801e-05 0.000440005 -7.22551e-05)
(-5.82369e-06 0.000440277 -7.23252e-05)
(-2.52624e-05 0.00043346 -7.12212e-05)
(-4.48005e-05 0.000419692 -6.89164e-05)
(-6.35735e-05 0.000398095 -6.5205e-05)
(-8.37547e-05 0.000369319 -5.98191e-05)
(-0.000102244 0.000327786 -5.32761e-05)
(-0.000118721 0.000275743 -4.62359e-05)
(-0.000114825 0.000204998 -3.85791e-05)
(-9.16334e-05 0.000158177 -3.29418e-05)
(-6.97156e-05 0.000124973 -2.77047e-05)
(-4.86082e-05 0.000104534 -2.36814e-05)
(-3.11009e-05 9.12436e-05 -2.0725e-05)
(-1.5202e-05 8.30057e-05 -1.86921e-05)
(-1.38544e-06 7.84028e-05 -1.6777e-05)
(1.05612e-05 7.57051e-05 -1.2372e-05)
(9.97271e-06 6.98528e-05 1.75191e-07)
(-7.31648e-06 5.33481e-05 1.5374e-06)
(-6.06886e-06 5.81844e-05 -8.80507e-06)
(6.09219e-06 6.11143e-05 -1.2399e-05)
(1.92071e-05 6.58272e-05 -1.36773e-05)
(3.32093e-05 7.34906e-05 -1.49377e-05)
(4.77651e-05 8.42385e-05 -1.69441e-05)
(6.42952e-05 9.83128e-05 -2.00156e-05)
(8.43487e-05 0.000116739 -2.43784e-05)
(0.000112317 0.00014259 -2.9726e-05)
(0.00014525 0.00018476 -3.59825e-05)
(0.000188358 0.000250819 -4.11421e-05)
(0.000194607 0.000369419 -5.0454e-05)
(0.00016062 0.000444516 -5.87484e-05)
(0.000129932 0.000501609 -6.76641e-05)
(9.96157e-05 0.000539858 -7.53129e-05)
(7.31015e-05 0.000569296 -7.99998e-05)
(4.5465e-05 0.000588385 -8.29073e-05)
(1.81701e-05 0.000598273 -8.43687e-05)
(-9.49691e-06 0.00059865 -8.4447e-05)
(-3.67567e-05 0.0005895 -8.31395e-05)
(-6.43305e-05 0.000571111 -8.0378e-05)
(-9.06955e-05 0.000542279 -7.5833e-05)
(-0.000120772 0.000504572 -6.83129e-05)
(-0.000150893 0.000447911 -5.95358e-05)
(-0.000184137 0.000373512 -5.1419e-05)
(-0.000176214 0.000255601 -4.22827e-05)
(-0.000131513 0.000192228 -3.74686e-05)
(-9.73761e-05 0.000151834 -3.16322e-05)
(-6.70772e-05 0.000128159 -2.68576e-05)
(-4.38893e-05 0.000112476 -2.31743e-05)
(-2.34251e-05 0.000102066 -2.06475e-05)
(-5.69413e-06 9.58518e-05 -1.83297e-05)
(9.92851e-06 9.21294e-05 -1.31921e-05)
(1.06737e-05 8.52978e-05 1.11337e-06)
(-7.67123e-06 6.13717e-05 2.4307e-06)
(-4.93224e-06 6.675e-05 -9.30865e-06)
(1.06397e-05 7.05326e-05 -1.35294e-05)
(2.71841e-05 7.67592e-05 -1.50217e-05)
(4.47918e-05 8.66946e-05 -1.65706e-05)
(6.29119e-05 0.000100138 -1.90711e-05)
(8.30642e-05 0.000116685 -2.28726e-05)
(0.000107415 0.000136081 -2.8286e-05)
(0.00014317 0.000160546 -3.45038e-05)
(0.00019071 0.000204587 -4.18196e-05)
(0.00027656 0.00028352 -4.00683e-05)
(0.000292457 0.000486846 -4.8559e-05)
(0.000225742 0.000585067 -5.82166e-05)
(0.000179927 0.00065579 -7.14579e-05)
(0.000137392 0.000702033 -8.28505e-05)
(0.000101376 0.00073837 -8.83788e-05)
(6.26556e-05 0.00076215 -9.17374e-05)
(2.43036e-05 0.000774596 -9.33997e-05)
(-1.4725e-05 0.000775104 -9.34874e-05)
(-5.30808e-05 0.00076365 -9.19967e-05)
(-9.18329e-05 0.000740797 -8.88008e-05)
(-0.000127838 0.000705235 -8.34348e-05)
(-0.000170342 0.000659595 -7.21852e-05)
(-0.000215694 0.000589132 -5.91079e-05)
(-0.000281843 0.000491521 -4.97138e-05)
(-0.000263233 0.000288444 -4.12938e-05)
(-0.000175237 0.000214144 -4.33939e-05)
(-0.000126999 0.000171579 -3.65523e-05)
(-8.83837e-05 0.000149205 -3.10147e-05)
(-6.00612e-05 0.000132629 -2.64136e-05)
(-3.47415e-05 0.000120168 -2.32881e-05)
(-1.21819e-05 0.000112142 -2.04721e-05)
(8.45542e-06 0.000107234 -1.42966e-05)
(1.13509e-05 9.95892e-05 2.26504e-06)
(-8.03773e-06 6.79357e-05 3.33228e-06)
(-3.29739e-06 7.37785e-05 -1.0035e-05)
(1.67282e-05 7.85503e-05 -1.50042e-05)
(3.77441e-05 8.6785e-05 -1.67764e-05)
(5.99422e-05 9.99483e-05 -1.86618e-05)
(8.23081e-05 0.000117673 -2.16962e-05)
(0.0001057 0.000138871 -2.62931e-05)
(0.000131321 0.000159962 -3.28686e-05)
(0.00017085 0.000181781 -4.10504e-05)
(0.000225144 0.000217301 -4.79783e-05)
(0.000392445 0.000239232 -4.85386e-05)
(0.000433276 0.000604726 -4.1562e-05)
(0.00029829 0.000735803 -4.88968e-05)
(0.000239092 0.0008263 -6.89887e-05)
(0.000184247 0.00088566 -8.54816e-05)
(0.000137068 0.000934408 -9.15193e-05)
(8.46002e-05 0.000966667 -9.57571e-05)
(3.22164e-05 0.000983381 -9.77708e-05)
(-2.13496e-05 0.000984058 -9.78635e-05)
(-7.37907e-05 0.000968671 -9.60312e-05)
(-0.000126424 0.000937679 -9.19606e-05)
(-0.000173825 0.000889993 -8.60959e-05)
(-0.000229093 0.000831409 -6.9746e-05)
(-0.000288116 0.000741061 -4.98608e-05)
(-0.000423227 0.00061025 -4.28793e-05)
(-0.00037758 0.0002422 -5.02858e-05)
(-0.000207609 0.000227978 -4.98494e-05)
(-0.000154377 0.000193841 -4.32795e-05)
(-0.000111013 0.000174264 -3.59299e-05)
(-8.02731e-05 0.000156011 -3.03378e-05)
(-5.00386e-05 0.000139246 -2.66003e-05)
(-2.14439e-05 0.000127789 -2.32519e-05)
(5.95399e-06 0.000120898 -1.5745e-05)
(1.20331e-05 0.000112339 3.67472e-06)
(-8.29956e-06 7.23565e-05 4.27591e-06)
(-8.2818e-07 7.84925e-05 -1.09774e-05)
(2.50902e-05 8.42097e-05 -1.68441e-05)
(5.23755e-05 9.44446e-05 -1.89721e-05)
(8.15546e-05 0.000111063 -2.128e-05)
(0.000111191 0.000133877 -2.49526e-05)
(0.000139734 0.0001609 -3.04382e-05)
(0.000167629 0.000183899 -3.94316e-05)
(0.000202434 0.000189662 -4.93772e-05)
(0.000165797 0.000108301 -7.22965e-05)
(0.000466938 0.000216873 -7.28237e-05)
(0.000632995 0.000857279 -1.35037e-05)
(0.000391062 0.000927135 -1.31674e-05)
(0.000329126 0.000989534 -3.56933e-05)
(0.000259765 0.00105333 -5.55566e-05)
(0.000195043 0.00110635 -5.74584e-05)
(0.000119845 0.00114441 -6.04146e-05)
(4.46236e-05 0.00116411 -6.19861e-05)
(-3.19165e-05 0.00116497 -6.20563e-05)
(-0.000107224 0.00114698 -6.06272e-05)
(-0.000182704 0.00111055 -5.77825e-05)
(-0.00024791 0.001059 -5.6052e-05)
(-0.000318274 0.000996233 -3.63168e-05)
(-0.000380842 0.00093364 -1.40037e-05)
(-0.000627219 0.000860245 -1.50928e-05)
(-0.000453684 0.000220123 -7.52736e-05)
(-0.000146657 0.000127137 -7.33954e-05)
(-0.000186006 0.000206162 -5.12722e-05)
(-0.000146233 0.000200003 -4.27534e-05)
(-0.000112153 0.000178937 -3.51215e-05)
(-7.47593e-05 0.000156307 -3.07876e-05)
(-3.65232e-05 0.000140372 -2.68437e-05)
(1.02607e-06 0.000131166 -1.76838e-05)
(1.22262e-05 0.00012204 5.39182e-06)
(-8.56151e-06 7.42405e-05 5.23804e-06)
(2.15444e-06 8.0552e-05 -1.21253e-05)
(3.50243e-05 8.7223e-05 -1.90368e-05)
(7.00111e-05 9.96589e-05 -2.1607e-05)
(0.000108468 0.000120862 -2.44127e-05)
(0.000148566 0.000152962 -2.84668e-05)
(0.000185985 0.000198891 -3.38951e-05)
(0.000212826 0.000260629 -3.91373e-05)
(0.000172754 0.000341036 -5.82123e-05)
(0.000174204 0.000389633 -9.27203e-05)
(0.000282356 0.000732076 7.29171e-05)
(0.000315399 0.000933234 3.557e-05)
(0.000390735 0.0010582 2.20912e-05)
(0.000340096 0.0011696 2.20035e-05)
(0.000256775 0.00124859 1.71688e-05)
(0.000159455 0.00130095 1.20268e-05)
(5.86692e-05 0.00132649 9.61477e-06)
(-4.35816e-05 0.00132748 9.61887e-06)
(-0.000144476 0.00130395 1.20304e-05)
(-0.000242123 0.00125369 1.71758e-05)
(-0.000326131 0.00117698 2.20293e-05)
(-0.000378566 0.001068 2.22024e-05)
(-0.000307374 0.000945411 3.5284e-05)
(-0.000277381 0.00074405 7.13319e-05)
(-0.000170334 0.000401458 -8.96639e-05)
(-0.000164922 0.000355284 -5.96524e-05)
(-0.000195014 0.000275523 -4.3104e-05)
(-0.000158213 0.000216282 -3.9596e-05)
(-0.000108781 0.000175155 -3.56679e-05)
(-5.69281e-05 0.000150521 -3.14083e-05)
(-5.81542e-06 0.000137616 -2.03336e-05)
(1.22855e-05 0.000127547 6.89585e-06)
(-8.58065e-06 7.29269e-05 6.21765e-06)
(6.03852e-06 7.90886e-05 -1.33957e-05)
(4.73163e-05 8.57994e-05 -2.14639e-05)
(9.2796e-05 9.84358e-05 -2.46181e-05)
(0.000146824 0.000120232 -2.82726e-05)
(0.000212519 0.00015399 -3.36231e-05)
(0.000295029 0.000204403 -4.07691e-05)
(0.000407711 0.000277706 -4.64846e-05)
(0.000541004 0.000384774 -4.94878e-05)
(0.000808265 0.000539421 -3.08917e-05)
(0.000836713 0.000149132 5.21551e-05)
(0.000638965 0.000305392 7.62963e-05)
(0.000706335 0.00068496 0.000133075)
(0.000635508 0.000896661 0.000186733)
(0.000506748 0.00104573 0.000216822)
(0.000362268 0.00114431 0.000226149)
(0.000218048 0.00120486 0.000226668)
(7.7945e-05 0.00123359 0.000225988)
(-6.04208e-05 0.00123454 0.000226047)
(-0.000200453 0.00120775 0.000226843)
(-0.000344545 0.00114929 0.000226465)
(-0.000488798 0.00105311 0.000217407)
(-0.000617407 0.000906871 0.000187907)
(-0.000688338 0.000698544 0.000134952)
(-0.000619454 0.000321644 7.94929e-05)
(-0.000824738 0.000152188 5.47692e-05)
(-0.000803133 0.000541232 -2.9958e-05)
(-0.000530303 0.000393503 -5.15251e-05)
(-0.00038961 0.000289941 -5.09262e-05)
(-0.000266177 0.000220376 -4.75969e-05)
(-0.000169367 0.000175282 -4.24444e-05)
(-8.88197e-05 0.000149261 -3.71216e-05)
(-1.73364e-05 0.000136028 -2.37152e-05)
(1.07453e-05 0.000125745 8.5356e-06)
(-8.83937e-06 6.83096e-05 7.16505e-06)
(9.08273e-06 7.40985e-05 -1.45863e-05)
(5.76152e-05 7.97559e-05 -2.37648e-05)
(0.000111402 9.02453e-05 -2.74795e-05)
(0.000176322 0.000107743 -3.18937e-05)
(0.00025665 0.000133103 -3.83795e-05)
(0.000358285 0.000166292 -4.67702e-05)
(0.000492063 0.000204582 -5.38932e-05)
(0.0006505 0.000237004 -5.57401e-05)
(0.000884961 0.000254238 -4.11658e-05)
(0.000995679 0.000123322 -1.38836e-05)
(0.000962253 0.00031333 3.51374e-05)
(0.000928466 0.000507465 0.000141641)
(0.000795453 0.000650372 0.00021228)
(0.00062619 0.000760786 0.000248722)
(0.000441872 0.000834109 0.000263465)
(0.000263644 0.000880104 0.000266725)
(9.32383e-05 0.000902271 0.000267044)
(-7.37985e-05 0.000903052 0.000267106)
(-0.000244074 0.000882461 0.000266908)
(-0.000422062 0.000838081 0.000263806)
(-0.000606004 0.000766398 0.000249361)
(-0.000775228 0.000657562 0.0002136)
(-0.000908687 0.000515587 0.000143882)
(-0.000943445 0.000321273 3.9106e-05)
(-0.000982521 0.000126313 -1.13199e-05)
(-0.000876633 0.000260671 -4.09538e-05)
(-0.00063978 0.000245972 -5.82314e-05)
(-0.000473737 0.000216178 -5.90318e-05)
(-0.000327897 0.000181415 -5.46757e-05)
(-0.000209723 0.000153367 -4.86592e-05)
(-0.000111578 0.000135321 -4.2339e-05)
(-2.50912e-05 0.000125756 -2.68182e-05)
(1.03626e-05 0.000116625 1.02259e-05)
(-9.01014e-06 6.1159e-05 8.14039e-06)
(1.15906e-05 6.64109e-05 -1.56356e-05)
(6.61215e-05 7.08488e-05 -2.5731e-05)
(0.000126653 7.89522e-05 -2.99133e-05)
(0.000199771 9.21785e-05 -3.49938e-05)
(0.000289882 0.000110614 -4.26395e-05)
(0.000402764 0.00013321 -5.28495e-05)
(0.000546617 0.000157829 -6.34165e-05)
(0.000713327 0.000177918 -7.0392e-05)
(0.000911831 0.00019493 -6.64308e-05)
(0.00104444 0.000160924 -4.64568e-05)
(0.00109533 0.000250993 1.61648e-05)
(0.00105767 0.000368925 0.000127189)
(0.000902527 0.000466437 0.000196389)
(0.000705796 0.000542531 0.000232054)
(0.00049392 0.000591992 0.000241258)
(0.00029361 0.000623244 0.000240688)
(0.000103332 0.000638266 0.000239032)
(-8.24002e-05 0.000638902 0.000239058)
(-0.000272525 0.000625153 0.000240764)
(-0.000472565 0.000595168 0.000241419)
(-0.000684052 0.000546936 0.00023244)
(-0.000880896 0.000471984 0.000197412)
(-0.00103677 0.000375261 0.000129124)
(-0.00107762 0.000257823 1.9861e-05)
(-0.00103244 0.000165745 -4.42477e-05)
(-0.000902625 0.000201014 -6.61673e-05)
(-0.00070163 0.000186002 -7.29904e-05)
(-0.000526972 0.000168433 -6.89262e-05)
(-0.000370059 0.000147154 -6.14815e-05)
(-0.000238774 0.000129296 -5.39626e-05)
(-0.000128409 0.000117337 -4.65625e-05)
(-3.04537e-05 0.000110803 -2.91829e-05)
(1.04304e-05 0.000103055 1.1925e-05)
(-9.34674e-06 5.20829e-05 8.96513e-06)
(1.31148e-05 5.64493e-05 -1.64598e-05)
(7.19987e-05 5.96306e-05 -2.72947e-05)
(0.000137073 6.52591e-05 -3.184e-05)
(0.000215108 7.42522e-05 -3.74225e-05)
(0.000310127 8.63061e-05 -4.59455e-05)
(0.000427643 0.000100188 -5.75196e-05)
(0.000573858 0.00011457 -7.03112e-05)
(0.000741947 0.000125652 -8.0011e-05)
(0.000928229 0.000137766 -7.92503e-05)
(0.00107643 0.0001377 -5.93099e-05)
(0.00116763 0.000193057 -1.06213e-07)
(0.00113231 0.000266304 0.000108286)
(0.000964366 0.000327212 0.000170569)
(0.000753143 0.000375408 0.000200737)
(0.000525978 0.000407586 0.000204186)
(0.000312563 0.000428338 0.000200076)
(0.000109855 0.000438469 0.000196634)
(-8.7738e-05 0.000439025 0.000196626)
(-0.000290318 0.000429991 0.000200044)
(-0.000503521 0.000410285 0.000204163)
(-0.000730391 0.00037906 0.000200855)
(-0.00094193 0.0003317 0.000171261)
(-0.00111086 0.00027137 0.000109876)
(-0.00115021 0.000198613 3.34483e-06)
(-0.00106453 0.000142767 -5.72679e-05)
(-0.000918167 0.000143886 -7.91426e-05)
(-0.000729156 0.000133241 -8.27785e-05)
(-0.000552608 0.000124221 -7.6129e-05)
(-0.000392392 0.000112701 -6.66707e-05)
(-0.000254951 0.00010283 -5.79856e-05)
(-0.00013784 9.6084e-05 -4.97094e-05)
(-3.26601e-05 9.22765e-05 -3.08598e-05)
(1.12951e-05 8.61734e-05 1.32678e-05)
(-9.71549e-06 4.17491e-05 9.61139e-06)
(1.4004e-05 4.51692e-05 -1.70658e-05)
(7.59941e-05 4.7358e-05 -2.84657e-05)
(0.00014415 5.11116e-05 -3.32753e-05)
(0.000225285 5.70735e-05 -3.92155e-05)
(0.000323038 6.4971e-05 -4.83647e-05)
(0.000442796 7.39629e-05 -6.0913e-05)
(0.000589729 8.35057e-05 -7.51794e-05)
(0.000758555 9.19026e-05 -8.65707e-05)
(0.000942479 0.000102957 -8.75992e-05)
(0.00110118 0.000113344 -6.73511e-05)
(0.0012115 0.000149372 -9.44239e-06)
(0.0011783 0.000194781 9.7118e-05)
(0.00100399 0.000234228 0.000155105)
(0.000783802 0.000265797 0.00018146)
(0.000546921 0.000287329 0.000181252)
(0.000325045 0.000301365 0.000174821)
(0.000114267 0.000308348 0.000170227)
(-9.10718e-05 0.000308884 0.000170201)
(-0.000301763 0.00030295 0.000174734)
(-0.000523514 0.000289891 0.000181131)
(-0.000760224 0.000269216 0.000181435)
(-0.00098091 0.000238359 0.000155618)
(-0.00115637 0.000199412 9.85131e-05)
(-0.00119409 0.000154407 -6.27419e-06)
(-0.00108914 0.0001184 -6.54326e-05)
(-0.000931712 0.000108747 -8.75787e-05)
(-0.000744725 9.87346e-05 -8.94679e-05)
(-0.000566899 9.19212e-05 -8.12154e-05)
(-0.000405169 8.4621e-05 -7.04134e-05)
(-0.000264321 7.87443e-05 -6.08728e-05)
(-0.000143179 7.48597e-05 -5.19397e-05)
(-3.33792e-05 7.26157e-05 -3.20051e-05)
(1.22641e-05 6.79086e-05 1.42911e-05)
(-1.00742e-05 3.05935e-05 1.00525e-05)
(1.44137e-05 3.30313e-05 -1.74984e-05)
(7.8441e-05 3.44001e-05 -2.92963e-05)
(0.000148536 3.66836e-05 -3.42805e-05)
(0.000231533 4.03427e-05 -4.04434e-05)
(0.000330821 4.52433e-05 -4.99713e-05)
(0.00045183 5.0976e-05 -6.30911e-05)
(0.000599404 5.74733e-05 -7.81559e-05)
(0.00076956 6.42255e-05 -9.04056e-05)
(0.000954652 7.37963e-05 -9.21775e-05)
(0.00111999 8.53466e-05 -7.19898e-05)
(0.00123986 0.000108773 -1.46351e-05)
(0.00120789 0.000137075 9.19563e-05)
(0.00102962 0.000162128 0.000148311)
(0.00080385 0.000182349 0.000172938)
(0.000560925 0.000196606 0.000171061)
(0.00033355 0.000206073 0.000163586)
(0.000117411 0.000210945 0.00015848)
(-9.31487e-05 0.000211504 0.000158449)
(-0.00030926 0.000207716 0.000163484)
(-0.000536624 0.000199236 0.000170911)
(-0.000779541 0.000185813 0.000172867)
(-0.00100603 0.000166233 0.000148762)
(-0.00118567 0.000141599 9.33246e-05)
(-0.0012223 0.000113545 -1.12404e-05)
(-0.00110766 9.02119e-05 -7.01159e-05)
(-0.00094334 7.90746e-05 -9.22535e-05)
(-0.000754902 7.01427e-05 -9.34363e-05)
(-0.000575309 6.44338e-05 -8.43808e-05)
(-0.000412339 5.9457e-05 -7.2856e-05)
(-0.000269421 5.58371e-05 -6.28099e-05)
(-0.000145899 5.36147e-05 -5.346e-05)
(-3.33101e-05 5.2325e-05 -3.27967e-05)
(1.31674e-05 4.89846e-05 1.49484e-05)
(-1.03388e-05 1.90396e-05 1.03016e-05)
(1.45705e-05 2.05046e-05 -1.77895e-05)
(7.97993e-05 2.12086e-05 -2.98314e-05)
(0.000151045 2.23571e-05 -3.49161e-05)
(0.00023518 2.42751e-05 -4.12006e-05)
(0.000335486 2.69998e-05 -5.09304e-05)
(0.000457481 3.05013e-05 -6.43495e-05)
(0.000605947 3.49416e-05 -7.98116e-05)
(0.000777569 4.03673e-05 -9.2469e-05)
(0.000964426 4.78799e-05 -9.45335e-05)
(0.00113358 5.73088e-05 -7.433e-05)
(0.00125794 7.12788e-05 -1.69653e-05)
(0.00122646 8.69805e-05 9.02983e-05)
(0.00104581 0.000101147 0.000146449)
(0.000816651 0.000112682 0.000170615)
(0.000570061 0.000121182 0.000168214)
(0.000339215 0.000126964 0.000160396)
(0.000119666 0.000130126 0.000155123)
(-9.42636e-05 0.000130741 0.000155095)
(-0.000313859 0.00012877 0.0001603)
(-0.000544838 0.000124052 0.000168072)
(-0.000791622 0.000116423 0.00017055)
(-0.00102173 0.000105496 0.0001469)
(-0.00120397 9.1663e-05 9.16643e-05)
(-0.00124033 7.60568e-05 -1.34921e-05)
(-0.00112119 6.19651e-05 -7.25141e-05)
(-0.000952865 5.25947e-05 -9.47063e-05)
(-0.000762447 4.52872e-05 -9.56293e-05)
(-0.000581083 4.03258e-05 -8.62022e-05)
(-0.000416833 3.66283e-05 -7.43242e-05)
(-0.000272428 3.4191e-05 -6.40137e-05)
(-0.000147395 3.28211e-05 -5.44336e-05)
(-3.31451e-05 3.20492e-05 -3.33342e-05)
(1.37729e-05 2.99924e-05 1.53089e-05)
(-1.04854e-05 7.37502e-06 1.0361e-05)
(1.45583e-05 7.85752e-06 -1.79584e-05)
(8.02464e-05 7.93237e-06 -3.00988e-05)
(0.00015198 8.02865e-06 -3.52177e-05)
(0.000236689 8.34042e-06 -4.15362e-05)
(0.000337677 9.06594e-06 -5.13174e-05)
(0.000460537 1.05139e-05 -6.48091e-05)
(0.000610087 1.29833e-05 -8.03637e-05)
(0.00078307 1.69393e-05 -9.31094e-05)
(0.000971402 2.21737e-05 -9.52307e-05)
(0.00114201 2.88173e-05 -7.50436e-05)
(0.00126725 3.4566e-05 -1.7596e-05)
(0.0012355 3.90124e-05 9.01237e-05)
(0.00105372 4.31872e-05 0.000146589)
(0.00082305 4.66253e-05 0.000170894)
(0.000574862 4.96754e-05 0.000168543)
(0.000342364 5.19721e-05 0.000160732)
(0.000121157 5.35339e-05 0.000155461)
(-9.44757e-05 5.42392e-05 0.000155436)
(-0.000315823 5.40418e-05 0.000160644)
(-0.000548635 5.29482e-05 0.000168412)
(-0.000797281 5.08598e-05 0.000170839)
(-0.00102922 4.80235e-05 0.000147039)
(-0.0012129 4.40773e-05 9.14672e-05)
(-0.00124976 3.94496e-05 -1.42375e-05)
(-0.00112978 3.33099e-05 -7.33241e-05)
(-0.000959906 2.63667e-05 -9.55247e-05)
(-0.000767902 2.08937e-05 -9.64141e-05)
(-0.000585029 1.68083e-05 -8.69179e-05)
(-0.000419533 1.42786e-05 -7.49675e-05)
(-0.000274064 1.28394e-05 -6.45947e-05)
(-0.000148151 1.21604e-05 -5.49474e-05)
(-3.31089e-05 1.18271e-05 -3.3671e-05)
(1.4033e-05 1.10741e-05 1.53929e-05)
(-1.05163e-05 -4.09633e-06 1.0232e-05)
(1.43737e-05 -4.59971e-06 -1.80072e-05)
(7.97774e-05 -5.19836e-06 -3.01022e-05)
(0.000151333 -6.25135e-06 -3.51915e-05)
(0.000236044 -7.71363e-06 -4.14649e-05)
(0.000337358 -9.23825e-06 -5.11619e-05)
(0.00046091 -1.01573e-05 -6.4518e-05)
(0.00061169 -9.93649e-06 -7.98562e-05)
(0.000785977 -7.47826e-06 -9.23748e-05)
(0.000975623 -4.17656e-06 -9.43305e-05)
(0.0011456 9.42211e-07 -7.42335e-05)
(0.00126811 -1.10096e-06 -1.67644e-05)
(0.0012351 -8.58647e-06 9.11229e-05)
(0.00105335 -1.50172e-05 0.000148309)
(0.00082302 -2.02208e-05 0.000173269)
(0.000575314 -2.29052e-05 0.000171489)
(0.000343005 -2.4254e-05 0.000164001)
(0.000121908 -2.43341e-05 0.000158886)
(-9.37416e-05 -2.34857e-05 0.000158862)
(-0.000315092 -2.17601e-05 0.000163919)
(-0.000547934 -1.89649e-05 0.000171358)
(-0.000796433 -1.51287e-05 0.000173201)
(-0.00102843 -9.26902e-06 0.000148717)
(-0.00121253 -2.70152e-06 9.23922e-05)
(-0.00125099 4.24398e-06 -1.35108e-05)
(-0.00113379 5.49419e-06 -7.26606e-05)
(-0.000964518 -2.82043e-07 -9.47943e-05)
(-0.000771195 -4.25055e-06 -9.5853e-05)
(-0.000587033 -7.40781e-06 -8.65745e-05)
(-0.000420356 -8.48313e-06 -7.48177e-05)
(-0.00027428 -8.6244e-06 -6.45733e-05)
(-0.000148139 -8.38479e-06 -5.50146e-05)
(-3.31805e-05 -8.15541e-06 -3.38151e-05)
(1.39606e-05 -7.58738e-06 1.52025e-05)
(-1.0461e-05 -1.50764e-05 9.91053e-06)
(1.39286e-05 -1.65865e-05 -1.79223e-05)
(7.82115e-05 -1.80146e-05 -2.98233e-05)
(0.000148776 -2.05519e-05 -3.48134e-05)
(0.000232709 -2.43687e-05 -4.09455e-05)
(0.000333734 -2.90336e-05 -5.03901e-05)
(0.000457605 -3.3502e-05 -6.33571e-05)
(0.00060978 -3.67626e-05 -7.8134e-05)
(0.000785579 -3.63987e-05 -9.00339e-05)
(0.000977466 -3.43924e-05 -9.1439e-05)
(0.00114494 -2.68111e-05 -7.13775e-05)
(0.00125973 -3.70883e-05 -1.35294e-05)
(0.00122386 -5.98925e-05 9.46653e-05)
(0.00104351 -8.01173e-05 0.000153627)
(0.000815703 -9.66124e-05 0.000180285)
(0.000570923 -0.000106511 0.000180084)
(0.000340888 -0.000112312 0.000173529)
(0.000121891 -0.000114327 0.00016885)
(-9.18958e-05 -0.000113258 0.000168807)
(-0.00031128 -0.000109157 0.000173382)
(-0.000542108 -0.000101506 0.00017984)
(-0.000788108 -9.00962e-05 0.000180055)
(-0.00101812 -7.27758e-05 0.000153818)
(-0.00120146 -5.24409e-05 9.56758e-05)
(-0.00124326 -3.06446e-05 -1.06621e-05)
(-0.0011338 -2.18618e-05 -7.00725e-05)
(-0.000966997 -3.04178e-05 -9.21841e-05)
(-0.000771526 -3.34672e-05 -9.37683e-05)
(-0.000586032 -3.50451e-05 -8.50626e-05)
(-0.000418267 -3.3405e-05 -7.38048e-05)
(-0.000272282 -3.10742e-05 -6.38911e-05)
(-0.000146845 -2.90725e-05 -5.45828e-05)
(-3.31113e-05 -2.7823e-05 -3.3733e-05)
(1.36205e-05 -2.58144e-05 1.47188e-05)
(-1.0402e-05 -2.51384e-05 9.38497e-06)
(1.30065e-05 -2.75914e-05 -1.76798e-05)
(7.51085e-05 -2.99944e-05 -2.92302e-05)
(0.000143519 -3.43586e-05 -3.40399e-05)
(0.000225358 -4.11675e-05 -3.99087e-05)
(0.000324738 -5.00493e-05 -4.88765e-05)
(0.000447679 -5.96975e-05 -6.10894e-05)
(0.00060088 -6.84797e-05 -7.46903e-05)
(0.000778831 -7.17185e-05 -8.5229e-05)
(0.000977014 -7.11058e-05 -8.51309e-05)
(0.00114033 -5.14251e-05 -6.55024e-05)
(0.00123848 -7.12852e-05 -7.12076e-06)
(0.0011967 -0.000118725 0.000102375)
(0.00101953 -0.000158912 0.000164985)
(0.000797642 -0.000191295 0.000194937)
(0.000559665 -0.000211207 0.00019801)
(0.000334983 -0.000223152 0.000193465)
(0.000120849 -0.000227818 0.000189745)
(-8.85233e-05 -0.000226402 0.000189647)
(-0.000303187 -0.000218934 0.000193147)
(-0.000528938 -0.000204442 0.000197467)
(-0.000768647 -0.000182324 0.000194287)
(-0.00099342 -0.000148708 0.000164652)
(-0.0011745 -0.000108295 0.000102795)
(-0.00122305 -6.27227e-05 -5.02887e-06)
(-0.00113019 -4.55201e-05 -6.46586e-05)
(-0.000967296 -6.63091e-05 -8.63447e-05)
(-0.000765743 -6.8311e-05 -8.93555e-05)
(-0.000578451 -6.68086e-05 -8.18913e-05)
(-0.00041021 -6.04274e-05 -7.16629e-05)
(-0.000265893 -5.39998e-05 -6.23786e-05)
(-0.00014291 -4.91847e-05 -5.3527e-05)
(-3.22192e-05 -4.63991e-05 -3.33478e-05)
(1.32551e-05 -4.2933e-05 1.38747e-05)
(-1.0345e-05 -3.38801e-05 8.69674e-06)
(1.15162e-05 -3.71321e-05 -1.72545e-05)