/*--------------------------------*- C++ -*----------------------------------*\
| =========                 |                                                 |
| \\      /  F ield         | OpenFOAM: The Open Source CFD Toolbox           |
|  \\    /   O peration     | Version:  2112                                  |
|   \\  /    A nd           | Website:  www.openfoam.com                      |
|    \\/     M anipulation  |                                                 |
\*---------------------------------------------------------------------------*/
FoamFile
{
    version     2.0;
    format      ascii;
    arch        "LSB;label=32;scalar=64";
    class       volScalarField;
    location    "2.9";
    object      epsilon;
}
// * * * * * * * * * * * * * * * * * * * * * * * * * * * * * * * * * * * * * //

dimensions      [0 2 -3 0 0 0 0];

internalField   nonuniform List<scalar> 
64906
(
0.00034989
0.0004024
0.000433805
0.000447911
0.000453571
0.000455666
0.000456388
0.000456622
0.000456691
0.000456706
0.000456708
0.000456704
0.000456697
0.000456688
0.000456677
0.000456664
0.000456648
0.000456634
0.000456626
0.000456635
0.000456649
0.000456662
0.000456673
0.00045668
0.000456682
0.000456669
0.000456605
0.000456384
0.000455672
0.000453585
0.000447929
0.000433832
0.000402428
0.000349911
0.000402427
0.000717262
0.000898107
0.000987755
0.00102909
0.00104667
0.00105351
0.0010559
0.0010566
0.00105667
0.00105656
0.00105643
0.00105634
0.0010563
0.00105629
0.00105629
0.00105629
0.00105629
0.00105629
0.00105629
0.0010563
0.0010563
0.0010563
0.00105633
0.00105635
0.00105625
0.00105562
0.00105334
0.00104662
0.00102913
0.000987849
0.000898219
0.000717359
0.00040248
0.000433881
0.000898181
0.00118066
0.00132993
0.00140351
0.00143695
0.00145074
0.00145568
0.0014569
0.00145667
0.00145602
0.00145543
0.00145507
0.00145493
0.00145492
0.00145494
0.00145494
0.00145495
0.00145495
0.00145496
0.00145496
0.00145495
0.00145495
0.00145505
0.00145524
0.00145527
0.00145421
0.0014497
0.0014364
0.00140335
0.00133
0.00118084
0.000898361
0.000433973
0.000448023
0.000987905
0.00133002
0.00151861
0.00161557
0.00166135
0.0016806
0.00168705
0.0016876
0.00168568
0.00168315
0.0016811
0.00167985
0.00167932
0.00167918
0.00167912
0.00167906
0.00167902
0.00167903
0.00167908
0.00167915
0.00167922
0.00167934
0.0016798
0.00168077
0.00168191
0.00168181
0.0016767
0.001659
0.00161449
0.00151833
0.00133013
0.000988124
0.000448146
0.000453705
0.00102929
0.00140369
0.00161566
0.0017274
0.00178099
0.00180291
0.00180834
0.00180527
0.00179831
0.00179086
0.00178532
0.00178208
0.00178076
0.0017804
0.00178011
0.00177982
0.00177965
0.00177966
0.00177984
0.00178015
0.00178045
0.0017808
0.00178202
0.00178488
0.00178925
0.00179335
0.00179158
0.00177392
0.0017238
0.00161428
0.00140344
0.00102946
0.000453849
0.00045581
0.0010469
0.00143717
0.00166152
0.00178112
0.00183797
0.00185872
0.00185856
0.00184586
0.00182688
0.00180843
0.00179628
0.00178989
0.00178773
0.00178737
0.0017867
0.00178593
0.00178549
0.00178551
0.00178597
0.00178676
0.00178744
0.00178777
0.00178983
0.0017958
0.00180662
0.00182129
0.0018305
0.00182029
0.00177186
0.0016576
0.00143602
0.00104685
0.000455962
0.000456534
0.00105374
0.00145101
0.00168093
0.00180337
0.00185926
0.00187383
0.00186061
0.00182716
0.00178244
0.00174177
0.00172084
0.0017124
0.00171121
0.00171226
0.00171125
0.00170977
0.00170894
0.00170896
0.00170981
0.00171132
0.00171234
0.00171128
0.00171237
0.0017204
0.00173997
0.00177671
0.00181116
0.00182056
0.00178314
0.00167209
0.00144805
0.00105323
0.000456672
0.000456762
0.00105614
0.00145605
0.00168772
0.00180966
0.00186075
0.00186305
0.00182567
0.00175239
0.00165521
0.0015703
0.00154904
0.00154961
0.0015564
0.00156245
0.00156182
0.00155984
0.00155875
0.00155877
0.00155989
0.00156189
0.00156255
0.0015565
0.00154963
0.00154872
0.00156872
0.00164979
0.00173655
0.00178527
0.00177102
0.00167084
0.00145011
0.00105482
0.000456856
0.00045682
0.00105685
0.00145748
0.00168905
0.00180853
0.00185197
0.00183614
0.0017611
0.00161825
0.00141372
0.00122939
0.00126191
0.00131103
0.00134213
0.00135845
0.00136051
0.00135952
0.00135883
0.00135884
0.00135956
0.00136058
0.00135856
0.00134226
0.00131114
0.00126181
0.0012283
0.00140906
0.00160316
0.00172118
0.00174409
0.00166137
0.00144763
0.00105444
0.000456839
0.000456818
0.00105699
0.00145768
0.00168856
0.00180523
0.00184069
0.001805
0.00168356
0.00143595
0.00101742
0.000604267
0.000853782
0.00103919
0.00111674
0.00114522
0.0011534
0.00115533
0.00115567
0.00115569
0.00115537
0.00115347
0.00114532
0.00111689
0.00103939
0.000853974
0.000603958
0.00101413
0.00142196
0.00164438
0.00171333
0.00165009
0.00144401
0.00105352
0.000456746
0.000456802
0.00105699
0.0014577
0.00168826
0.00180357
0.00183492
0.00178799
0.00163517
0.00129292
0.000624366
0.000536503
0.000848393
0.000961694
0.000996249
0.00100676
0.0010095
0.00101007
0.00101007
0.00100952
0.0010068
0.000996317
0.000961813
0.000848585
0.000536617
0.000623011
0.00127994
0.00159642
0.00169648
0.00164427
0.00144216
0.00105299
0.00045668
0.000456788
0.001057
0.00145795
0.00168903
0.00180549
0.0018398
0.00180121
0.00167412
0.00141806
0.000990882
0.000585386
0.000776681
0.000934813
0.000998412
0.00101772
0.00102613
0.00102806
0.00102822
0.00102822
0.00102805
0.00102612
0.0010177
0.000998395
0.000934799
0.000776533
0.000584894
0.000987261
0.0014039
0.00163478
0.00170926
0.00164873
0.00144362
0.00105329
0.000456684
0.000456772
0.00105706
0.00145842
0.00169057
0.00180973
0.00185071
0.00182827
0.00173972
0.00157356
0.00133445
0.00110636
0.00106549
0.00105357
0.00105202
0.00105178
0.00105245
0.00105222
0.00105191
0.00105191
0.0010522
0.0010524
0.0010517
0.0010519
0.00105335
0.00106499
0.0011049
0.00132958
0.00155838
0.00169958
0.00173562
0.00165895
0.00144719
0.00105419
0.000456721
0.000456751
0.00105713
0.00145894
0.00169224
0.00181423
0.0018618
0.00185373
0.00179428
0.0016813
0.00152197
0.00135202
0.00122607
0.00113378
0.00109225
0.0010773
0.00107243
0.00107069
0.00107006
0.00107005
0.00107065
0.00107237
0.0010772
0.00109209
0.00113349
0.00122549
0.00135025
0.00151651
0.00166541
0.00175339
0.00176032
0.00166929
0.00145095
0.00105516
0.000456752
0.000456725
0.00105717
0.00145935
0.00169356
0.0018177
0.00186999
0.00187135
0.00182874
0.00174146
0.00161184
0.00145565
0.00130112
0.00117572
0.00111495
0.0010919
0.00108408
0.00108146
0.00108061
0.00108059
0.00108141
0.00108399
0.00109177
0.00111477
0.00117541
0.00130049
0.00145377
0.0016061
0.00172513
0.00178729
0.00177732
0.00167683
0.00145379
0.00105589
0.000456757
0.000456696
0.00105719
0.00145962
0.00169443
0.00181991
0.00187496
0.00188147
0.00184719
0.00177098
0.00165176
0.0014981
0.00133308
0.00119435
0.00112547
0.00109874
0.00108956
0.0010865
0.00108547
0.00108545
0.00108643
0.00108947
0.00109861
0.00112527
0.00119404
0.00133233
0.00149616
0.00164588
0.00175439
0.00180538
0.00178701
0.00168133
0.00145553
0.00105633
0.000456737
0.000456665
0.00105719
0.00145978
0.00169492
0.0018211
0.00187754
0.00188647
0.0018558
0.0017839
0.00166804
0.00151445
0.00134543
0.0012016
0.00112962
0.00110145
0.00109171
0.00108841
0.00108724
0.00108721
0.00108833
0.0010916
0.00110131
0.00112942
0.00120129
0.00134467
0.00151249
0.00166209
0.00176718
0.0018138
0.00179175
0.00168363
0.00145644
0.00105654
0.000456701
0.000456634
0.00105718
0.00145985
0.00169514
0.00182162
0.00187861
0.00188847
0.0018591
0.0017886
0.00167369
0.00151989
0.0013495
0.00120399
0.00113099
0.00110233
0.00109238
0.00108896
0.00108769
0.00108764
0.00108887
0.00109226
0.00110219
0.00113079
0.00120367
0.00134874
0.00151793
0.00166771
0.00177183
0.00181701
0.00179364
0.00168457
0.00145682
0.00105661
0.000456659
0.000456609
0.00105717
0.00145987
0.00169517
0.00182167
0.00187868
0.00188856
0.00185922
0.00178875
0.00167385
0.00152007
0.00134966
0.0012041
0.00113106
0.00110236
0.00109237
0.00108891
0.00108757
0.00108751
0.00108881
0.00109225
0.00110221
0.00113085
0.00120378
0.00134892
0.00151812
0.00166789
0.00177199
0.00181714
0.00179373
0.00168464
0.00145686
0.00105661
0.00045662
0.000456606
0.00105717
0.00145982
0.00169501
0.00182125
0.00187774
0.00188675
0.00185617
0.00178434
0.00166856
0.001515
0.00134595
0.00120196
0.00112984
0.00110155
0.0010917
0.00108828
0.00108694
0.00108688
0.00108817
0.00109157
0.0011014
0.00112963
0.00120165
0.00134523
0.00151309
0.00166265
0.00176767
0.00181419
0.00179205
0.00168383
0.00145655
0.00105653
0.000456613
0.00045663
0.00105717
0.0014597
0.00169459
0.00182015
0.00187531
0.00188195
0.00184781
0.00177177
0.0016527
0.00149913
0.00133408
0.00119501
0.00112588
0.00109895
0.0010896
0.00108634
0.0010851
0.00108505
0.00108623
0.00108947
0.0010988
0.00112569
0.00119472
0.00133341
0.00149728
0.00164691
0.00175526
0.00180607
0.00178751
0.00168167
0.00145572
0.00105634
0.000456639
0.000456658
0.00105716
0.00145946
0.00169378
0.00181805
0.00187048
0.00187203
0.00182965
0.00174265
0.00161332
0.00145735
0.00130271
0.00117679
0.00111563
0.00109227
0.00108421
0.00108136
0.00108031
0.00108027
0.00108127
0.00108409
0.00109214
0.00111547
0.00117656
0.00130214
0.00145564
0.00160775
0.00172645
0.00178829
0.00177804
0.00167731
0.00145405
0.00105593
0.000456659
0.000456684
0.00105712
0.00145907
0.0016925
0.00181464
0.0018624
0.00185458
0.00179546
0.00168292
0.00152414
0.00135463
0.00122825
0.00113527
0.00109312
0.00107773
0.00107255
0.00107057
0.00106979
0.00106976
0.00107049
0.00107245
0.00107762
0.00109298
0.00113511
0.00122791
0.00135319
0.00151897
0.00166722
0.00175467
0.00176121
0.00166987
0.00145127
0.00105522
0.000456656
0.000456706
0.00105706
0.00145854
0.00169081
0.00181013
0.00185131
0.00182915
0.00174102
0.00157551
0.00133726
0.00111001
0.00106848
0.00105482
0.00105218
0.00105132
0.00105159
0.00105115
0.00105073
0.00105071
0.00105108
0.00105149
0.00105117
0.001052
0.00105466
0.0010684
0.00110906
0.0013328
0.00156045
0.00170087
0.00173648
0.00165953
0.00144752
0.00105426
0.000456629
0.000456721
0.00105695
0.00145793
0.00168904
0.00180558
0.00184004
0.00180169
0.00167505
0.0014198
0.000993811
0.000586998
0.000777711
0.000932308
0.000993896
0.00101194
0.00101973
0.00102141
0.00102148
0.00102145
0.00102131
0.00101951
0.00101147
0.000993113
0.00093146
0.000777624
0.000586594
0.000990568
0.00140529
0.00163524
0.00170949
0.00164894
0.00144377
0.00105331
0.000456591
0.000456721
0.00105672
0.00145715
0.00168742
0.00180251
0.00183377
0.00178679
0.00163394
0.00129195
0.000624044
0.000530766
0.000831715
0.000938214
0.000968447
0.000977316
0.000979547
0.000979944
0.000979865
0.000979236
0.000976506
0.000966566
0.00093459
0.000826618
0.000527952
0.000621521
0.00127649
0.00159327
0.00169446
0.00164318
0.00144164
0.00105277
0.000456572
0.000456675
0.001056
0.00145545
0.00168512
0.00180084
0.00183565
0.0017994
0.00167717
0.00142855
0.00100971
0.000598012
0.000819666
0.000981134
0.00103615
0.00105021
0.00105422
0.00105539
0.00105561
0.00105545
0.00105467
0.00105206
0.00104448
0.00102371
0.000960188
0.000800237
0.000590601
0.000996216
0.00140592
0.00163297
0.00170601
0.00164565
0.00144159
0.00105252
0.000456566
0.00045647
0.00105368
0.00145054
0.0016786
0.00179538
0.00183687
0.0018192
0.00174122
0.0015926
0.00137717
0.00117301
0.00116352
0.00116189
0.00113991
0.00112502
0.00111904
0.00111713
0.00111654
0.00111627
0.00111588
0.00111499
0.00111332
0.00111121
0.00110752
0.00110575
0.00112697
0.00133984
0.00155745
0.00169161
0.0017248
0.00164882
0.00144017
0.0010512
0.00045644
0.00045577
0.00104695
0.00143704
0.00166014
0.00177574
0.00182247
0.00182102
0.00177808
0.00169354
0.00157362
0.00144716
0.00135829
0.0012713
0.00118956
0.00114991
0.00113528
0.00113067
0.00112937
0.00112903
0.00112903
0.00112964
0.00113268
0.00114415
0.00117867
0.00125883
0.0013656
0.00151413
0.00164718
0.00172467
0.00172806
0.00164024
0.00143035
0.00104552
0.000455814
0.000453688
0.00102946
0.0014039
0.0016153
0.00172479
0.00177235
0.00178087
0.00176019
0.00171253
0.0016393
0.00154716
0.00144606
0.00133505
0.00123421
0.00118517
0.00116678
0.00116087
0.0011592
0.00115883
0.00115904
0.00116042
0.00116571
0.00118307
0.0012311
0.00133357
0.00145438
0.00157304
0.00166392
0.00170879
0.00169479
0.00160332
0.00140021
0.00102887
0.000453787
0.000448028
0.000988164
0.00133051
0.00151902
0.00161504
0.00165784
0.00167001
0.00166197
0.00163631
0.00159214
0.00152881
0.00144831
0.00135707
0.00127491
0.00123113
0.0012134
0.00120735
0.00120563
0.00120527
0.00120554
0.00120717
0.00121303
0.00123039
0.00127402
0.00135741
0.00145241
0.00153734
0.00159637
0.00161981
0.00159809
0.00151281
0.00132893
0.000988121
0.00044816
0.000433917
0.000898487
0.00118128
0.00133075
0.00140417
0.00143654
0.00144732
0.0014455
0.00143348
0.0014102
0.00137375
0.00132418
0.00126688
0.00121533
0.00118564
0.00117261
0.00116793
0.00116651
0.00116622
0.00116649
0.00116786
0.00117246
0.0011854
0.00121514
0.00126717
0.00132561
0.00137572
0.00140819
0.00141757
0.00139645
0.00132839
0.00118102
0.000898739
0.000434057
0.00040249
0.000717534
0.000898649
0.000988548
0.00103003
0.00104748
0.00105355
0.00105384
0.0010499
0.00104118
0.00102633
0.00100496
0.000979548
0.000956247
0.000942067
0.000935479
0.000932986
0.000932188
0.00093202
0.000932196
0.000932994
0.000935478
0.000942048
0.000956252
0.000979685
0.00100535
0.00102653
0.00103927
0.00104122
0.00102794
0.000988262
0.000898942
0.000717836
0.00040261
0.000349946
0.000402541
0.000434072
0.000448299
0.000454076
0.000456276
0.00045707
0.000457276
0.00045709
0.000456428
0.000455201
0.000453193
0.000450569
0.000447989
0.000446357
0.000445549
0.000445185
0.000445006
0.000444941
0.000445016
0.000445194
0.000445552
0.000446349
0.000447969
0.000450543
0.00045317
0.000455151
0.000456208
0.000456151
0.000454265
0.000448568
0.000434307
0.000402694
0.000350025
0.000462485
0.000654367
0.000775171
0.000835572
0.000862954
0.000874346
0.000878682
0.000880162
0.000880567
0.000880587
0.000880485
0.000880365
0.000880266
0.000880199
0.000880153
0.000880118
0.000880092
0.000880077
0.000880075
0.000880087
0.00088011
0.000880142
0.000880183
0.000880239
0.000880295
0.000880272
0.000879913
0.000878507
0.000874246
0.000862911
0.000835565
0.000775182
0.000654387
0.000462505
0.000654374
0.000797057
0.000933854
0.00101036
0.00104768
0.00106411
0.00107065
0.00107295
0.00107358
0.00107359
0.0010734
0.0010732
0.00107304
0.00107295
0.00107289
0.00107286
0.00107284
0.00107282
0.00107282
0.00107284
0.00107286
0.0010729
0.00107295
0.00107302
0.00107311
0.00107307
0.00107251
0.00107033
0.00106392
0.00104759
0.00101034
0.000933862
0.000797075
0.000654397
0.000775227
0.000933886
0.00110092
0.00120021
0.00125161
0.00127556
0.00128558
0.00128916
0.00128998
0.00128971
0.00128911
0.00128855
0.00128816
0.00128794
0.00128784
0.00128778
0.00128774
0.00128772
0.00128772
0.00128774
0.00128778
0.00128784
0.00128794
0.00128812
0.00128837
0.0012885
0.00128781
0.00128457
0.00127493
0.00125129
0.00120009
0.00110091
0.000933922
0.000775282
0.000835684
0.00101043
0.00120025
0.00131697
0.0013796
0.00140978
0.00142259
0.00142685
0.00142714
0.00142575
0.00142395
0.00142246
0.00142151
0.00142103
0.00142081
0.00142069
0.0014206
0.00142055
0.00142055
0.00142061
0.0014207
0.00142082
0.00142103
0.00142145
0.00142219
0.00142305
0.00142304
0.00141966
0.0014079
0.00137861
0.00131655
0.00120015
0.00101046
0.000835761
0.00086311
0.00104779
0.0012517
0.00137965
0.00144975
0.00148394
0.00149803
0.00150149
0.00149947
0.001495
0.00149028
0.00148676
0.00148472
0.00148378
0.00148341
0.00148318
0.00148298
0.00148286
0.00148287
0.00148299
0.00148319
0.00148342
0.00148378
0.00148464
0.00148642
0.00148915
0.00149165
0.0014904
0.001479
0.00144706
0.00137844
0.00125128
0.00104772
0.000863162
0.000874529
0.00106423
0.00127569
0.00140989
0.00148403
0.00151981
0.00153296
0.00153292
0.00152509
0.00151357
0.00150262
0.00149536
0.00149176
0.00149043
0.00149001
0.00148971
0.00148936
0.00148913
0.00148913
0.00148937
0.00148973
0.00149004
0.00149044
0.00149168
0.00149499
0.00150136
0.00150983
0.001515
0.0015082
0.00147765
0.00140692
0.00127455
0.00106392
0.000874463
0.00087888
0.00107079
0.00128575
0.00142282
0.00149835
0.00153332
0.00154261
0.0015347
0.00151475
0.00148879
0.00146594
0.00145303
0.00144868
0.00144807
0.00144824
0.00144824
0.0014478
0.00144745
0.00144745
0.00144782
0.00144827
0.00144827
0.00144808
0.00144861
0.00145267
0.00146465
0.00148488
0.00150416
0.00150879
0.00148497
0.00141652
0.00128324
0.00106997
0.000878546
0.000880372
0.00107311
0.00128942
0.00142734
0.00150238
0.00153433
0.00153622
0.00151424
0.00147209
0.00141902
0.00137607
0.0013559
0.0013558
0.0013598
0.00136214
0.00136375
0.00136372
0.00136337
0.00136338
0.00136374
0.00136379
0.00136218
0.00135983
0.00135576
0.00135559
0.00137483
0.00141511
0.00146134
0.00148782
0.00147751
0.00141572
0.0012847
0.00107147
0.000879574
0.000880797
0.00107379
0.00129044
0.00142818
0.00150163
0.00152894
0.0015203
0.00147756
0.00140024
0.00130189
0.00123957
0.00119872
0.00121689
0.00123453
0.00124123
0.00124774
0.0012495
0.0012496
0.0012496
0.00124952
0.00124778
0.00124128
0.00123459
0.0012169
0.0011985
0.00123837
0.00129802
0.00138944
0.00145092
0.00146111
0.00140953
0.00128286
0.00107107
0.000879371
0.00088086
0.00107389
0.00129052
0.00142777
0.00149947
0.00152211
0.00150263
0.00143726
0.00131891
0.00117495
0.00137179
0.00100368
0.00105562
0.00109911
0.00111108
0.00112679
0.00113184
0.00113279
0.0011328
0.00113186
0.00112683
0.00111114
0.00109919
0.00105571
0.00100357
0.00136958
0.00117072
0.0013079
0.00141041
0.00144315
0.0014023
0.0012802
0.00107013
0.000878813
0.000880831
0.00107387
0.00129046
0.00142747
0.00149831
0.00151864
0.00149377
0.00141797
0.00129544
0.00146757
0.00106331
0.000936732
0.000992469
0.00102166
0.00102702
0.00102766
0.00102767
0.00102767
0.00102767
0.00102704
0.0010217
0.000992536
0.000936819
0.00106348
0.0014583
0.0012838
0.00139086
0.00143406
0.00139858
0.00127877
0.00106957
0.000878454
0.000880799
0.00107386
0.00129057
0.00142784
0.0014993
0.00152109
0.00149963
0.00143035
0.0013048
0.00114581
0.00127175
0.00093875
0.00101298
0.00107278
0.00111984
0.00109814
0.00108893
0.00108676
0.00108675
0.00108892
0.00109811
0.00111982
0.00107275
0.00101293
0.000938434
0.00126916
0.00114141
0.00129365
0.00140331
0.00143986
0.00140089
0.00127957
0.00106978
0.000878549
0.000880784
0.00107391
0.00129084
0.00142874
0.00150179
0.00152738
0.0015145
0.00146319
0.00137027
0.00124502
0.00114019
0.00106505
0.00106249
0.00106768
0.00107677
0.00106944
0.00106546
0.00106425
0.00106425
0.00106545
0.00106942
0.00107675
0.00106762
0.00106235
0.00106464
0.00113882
0.00124098
0.00135926
0.00143619
0.00145468
0.00140705
0.00128191
0.00107058
0.000878972
0.000880774
0.00107397
0.00129116
0.00142977
0.00150453
0.00153405
0.00152948
0.00149418
0.00142806
0.00133631
0.00123918
0.00116035
0.00111293
0.00108402
0.00107325
0.00106772
0.00106545
0.00106473
0.00106472
0.00106544
0.00106769
0.00107321
0.00108393
0.00111275
0.0011599
0.0012378
0.00133224
0.00141699
0.00146709
0.00146954
0.00141356
0.00128448
0.00107148
0.000879438
0.000880756
0.00107403
0.00129143
0.00143059
0.00150668
0.00153909
0.00154026
0.00151504
0.001464
0.00138911
0.00129969
0.00121251
0.00114531
0.00110039
0.00108112
0.00107418
0.00107193
0.00107129
0.00107128
0.00107191
0.00107415
0.00108107
0.00110029
0.00114512
0.00121205
0.00129828
0.00138497
0.00145282
0.00148782
0.00148016
0.00141843
0.00128646
0.00107218
0.000879777
0.00088073
0.00107406
0.00129161
0.00143113
0.00150805
0.00154219
0.00154657
0.0015266
0.00148263
0.00141475
0.00132811
0.00123656
0.00116106
0.00110936
0.00108657
0.0010786
0.00107614
0.00107548
0.00107547
0.00107613
0.00107857
0.00108652
0.00110926
0.00116087
0.00123607
0.00132667
0.00141055
0.00147137
0.00149925
0.00148633
0.00142137
0.00128768
0.00107261
0.00087996
0.000880698
0.00107407
0.0012917
0.00143143
0.00150878
0.00154379
0.00154971
0.00153208
0.00149102
0.00142569
0.00133974
0.00124624
0.00116745
0.00111313
0.00108899
0.00108054
0.00107796
0.00107727
0.00107726
0.00107795
0.00108051
0.00108894
0.00111303
0.00116726
0.00124574
0.0013383
0.00142146
0.0014797
0.00150465
0.00148937
0.00142287
0.00128832
0.00107283
0.000880028
0.00088067
0.00107407
0.00129174
0.00143156
0.00150909
0.00154445
0.00155096
0.00153418
0.0014941
0.00142954
0.0013437
0.00124948
0.00116958
0.00111439
0.00108981
0.00108118
0.00107856
0.00107784
0.00107783
0.00107854
0.00108115
0.00108975
0.00111429
0.00116938
0.00124898
0.00134225
0.0014253
0.00148276
0.00150671
0.00149057
0.00142347
0.00128858
0.00107292
0.000880033
0.000880652
0.00107407
0.00129175
0.00143157
0.00150911
0.00154447
0.001551
0.00153422
0.00149416
0.00142961
0.00134378
0.00124956
0.00116964
0.00111443
0.00108983
0.0010812
0.00107856
0.00107783
0.00107782
0.00107854
0.00108117
0.00108978
0.00111433
0.00116945
0.00124906
0.00134234
0.00142537
0.00148282
0.00150676
0.00149061
0.00142349
0.00128859
0.00107292
0.00088001
0.000880653
0.00107407
0.00129172
0.00143146
0.00150883
0.00154387
0.00154982
0.00153223
0.00149121
0.00142591
0.00134
0.0012465
0.00116766
0.00111327
0.00108908
0.00108059
0.00107799
0.00107727
0.00107726
0.00107797
0.00108056
0.00108902
0.00111317
0.00116748
0.00124601
0.00133857
0.0014217
0.0014799
0.00150481
0.00148948
0.00142293
0.00128835
0.00107284
0.000879969
0.000880669
0.00107405
0.00129163
0.00143118
0.00150814
0.00154232
0.00154676
0.00152685
0.00148296
0.00141517
0.00132859
0.00123706
0.00116146
0.00110964
0.00108675
0.00107872
0.00107623
0.00107553
0.00107553
0.00107621
0.00107869
0.00108671
0.00110955
0.00116129
0.0012366
0.0013272
0.00141101
0.00147173
0.00149952
0.00148651
0.00142148
0.00128774
0.00107262
0.000879883
0.000880689
0.00107403
0.00129146
0.00143066
0.0015068
0.00153928
0.00154053
0.00151542
0.00146451
0.00138978
0.00130049
0.00121332
0.00114597
0.00110084
0.00108142
0.00107441
0.00107212
0.00107145
0.00107145
0.00107211
0.00107439
0.00108138
0.00110078
0.00114583
0.00121292
0.00129916
0.0013857
0.00145337
0.00148821
0.00148042
0.00141859
0.00128654
0.0010722
0.000879693
0.000880701
0.00107397
0.0012912
0.00142984
0.00150466
0.00153426
0.00152981
0.00149465
0.00142875
0.00133728
0.00124039
0.00116156
0.0011138
0.00108451
0.00107347
0.00106788
0.00106559
0.00106485
0.00106485
0.00106558
0.00106787
0.00107345
0.00108446
0.0011137
0.00116123
0.00123916
0.0013333
0.00141772
0.00146756
0.00146984
0.00141374
0.00128457
0.0010715
0.000879347
0.0008807
0.00107389
0.00129084
0.00142878
0.00150187
0.00152754
0.00151478
0.00146366
0.00137103
0.00124621
0.00114182
0.00106647
0.00106291
0.0010673
0.00107589
0.0010685
0.0010645
0.00106328
0.00106328
0.00106449
0.00106847
0.00107582
0.00106717
0.00106273
0.00106615
0.0011406
0.0012422
0.00135993
0.00143654
0.00145488
0.00140716
0.00128196
0.00107058
0.000878861
0.000880672
0.00107378
0.00129044
0.00142768
0.00149914
0.00152097
0.00149957
0.00143042
0.00130511
0.0011466
0.00127546
0.000938025
0.00101007
0.00106823
0.00111431
0.00109222
0.00108286
0.00108066
0.00108066
0.00108282
0.00109208
0.00111399
0.0010675
0.00100898
0.000936822
0.00127308
0.00114161
0.0012933
0.00140287
0.00143953
0.00140067
0.00127944
0.0010697
0.000878379
0.00088056
0.00107354
0.0012899
0.00142668
0.00149735
0.00151755
0.00149255
0.00141654
0.00129353
0.00146243
0.00103871
0.000917802
0.000968301
0.000993673
0.000997526
0.000997779
0.000997713
0.000997656
0.000997532
0.000996807
0.000991879
0.000964566
0.000911577
0.00102692
0.00144668
0.00127916
0.00138787
0.00143216
0.0013974
0.00127807
0.00106919
0.000878106
0.000880128
0.00107282
0.00128867
0.00142516
0.00149624
0.00151837
0.00149833
0.001432
0.0013116
0.00116208
0.00132738
0.000963743
0.00100108
0.00102907
0.00103105
0.00104223
0.00104631
0.00104716
0.00104703
0.00104571
0.00104037
0.00102607
0.0010182
0.00098285
0.000940749
0.00128941
0.00114489
0.00129363
0.00140161
0.00143755
0.00139871
0.00127799
0.00106892
0.000877954
0.000878679
0.00107053
0.00128506
0.00142078
0.0014926
0.00151863
0.00150861
0.00146354
0.00138138
0.00127262
0.00118908
0.00112165
0.00110676
0.00109383
0.00108071
0.00107843
0.00107812
0.00107796
0.00107773
0.00107704
0.00107494
0.00107101
0.0010722
0.00107238
0.00108132
0.00115204
0.00124593
0.00135778
0.00143082
0.0014477
0.00140037
0.00127683
0.00106758
0.000877075
0.000874396
0.00106407
0.00127522
0.00140845
0.00147989
0.00150916
0.00150853
0.00148269
0.0014329
0.00136457
0.00129426
0.00123436
0.00118702
0.00115035
0.00112245
0.00111079
0.00110696
0.00110585
0.00110554
0.00110546
0.00110576
0.00110806
0.00111813
0.00114258
0.00118117
0.00124738
0.00132977
0.00140468
0.00144858
0.00144885
0.0013944
0.00126963
0.00106213
0.000873388
0.000863047
0.00104772
0.00125148
0.00137889
0.00144735
0.00147749
0.00148293
0.00147008
0.00144106
0.00139773
0.00134485
0.00128797
0.00123144
0.00118547
0.00115142
0.00113621
0.00113092
0.00112935
0.00112899
0.0011292
0.0011305
0.00113527
0.0011498
0.00118329
0.00123132
0.00129531
0.00136086
0.00141221
0.00143737
0.00142725
0.00137001
0.00124806
0.00104659
0.000862514
0.00083568
0.00101044
0.00120023
0.00131673
0.00137855
0.00140654
0.00141446
0.00140915
0.00139277
0.00136549
0.00132773
0.0012813
0.00123087
0.0011868
0.00115692
0.00114296
0.00113779
0.00113616
0.0011358
0.00113612
0.00113766
0.00114269
0.00115646
0.00118637
0.00123156
0.00128475
0.00133357
0.00136804
0.00138133
0.00136643
0.0013116
0.00119836
0.00100988
0.000835468
0.000775268
0.000933938
0.00110102
0.00120029
0.00125139
0.00127435
0.00128192
0.00128041
0.00127174
0.00125563
0.00123126
0.00119906
0.00116267
0.00113005
0.00110855
0.00109811
0.00109403
0.00109269
0.00109239
0.00109269
0.00109403
0.00109807
0.00110848
0.00113007
0.00116316
0.00120043
0.00123285
0.0012541
0.00125998
0.00124486
0.00119771
0.00110017
0.000933725
0.000775239
0.000654438
0.000797122
0.000934
0.00101058
0.00104787
0.00106395
0.00106946
0.00106941
0.00106528
0.00105675
0.00104289
0.00102358
0.00100108
0.000980576
0.000967277
0.000960743
0.000958125
0.000957236
0.00095704
0.000957256
0.000958159
0.000960784
0.000967325
0.000980679
0.00100135
0.0010241
0.00104316
0.00105491
0.00105689
0.00104491
0.00100955
0.000933722
0.000797083
0.000654488
0.000462539
0.000654437
0.000775363
0.000835903
0.000863363
0.000874659
0.000878499
0.00087865
0.000876148
0.000870626
0.000861232
0.000847635
0.000831363
0.000816422
0.000807225
0.000802878
0.000801148
0.000800542
0.000800402
0.000800561
0.000801181
0.000802916
0.000807263
0.000816481
0.000831503
0.000847899
0.000861331
0.000869371
0.000870548
0.000861846
0.000835509
0.000775341
0.000654481
0.000462612
0.000527507
0.000830279
0.00102922
0.00113396
0.00118427
0.00120647
0.0012154
0.00121859
0.00121946
0.00121945
0.00121914
0.0012188
0.00121851
0.00121832
0.0012182
0.00121812
0.00121807
0.00121804
0.00121804
0.00121806
0.00121812
0.00121819
0.0012183
0.00121846
0.00121863
0.00121863
0.00121787
0.00121487
0.00120613
0.00118408
0.00113387
0.00102919
0.000830273
0.000527529
0.000830278
0.000935843
0.00108118
0.00116912
0.00121466
0.00123581
0.00124465
0.0012479
0.00124881
0.00124881
0.0012485
0.00124816
0.0012479
0.00124773
0.00124762
0.00124756
0.00124752
0.0012475
0.0012475
0.00124752
0.00124756
0.00124762
0.00124772
0.00124785
0.001248
0.00124797
0.00124715
0.00124409
0.00123544
0.00121446
0.00116903
0.00108114
0.000935831
0.000830267
0.00102928
0.0010812
0.00122981
0.00132768
0.00138175
0.00140833
0.00141996
0.00142428
0.00142528
0.0014249
0.00142409
0.0014233
0.00142272
0.00142236
0.00142216
0.00142205
0.00142197
0.00142194
0.00142194
0.00142197
0.00142205
0.00142216
0.00142234
0.00142264
0.00142303
0.00142324
0.00142241
0.00141851
0.00140737
0.00138122
0.00132744
0.00122973
0.00108118
0.00102928
0.0011341
0.00116918
0.00132772
0.0014363
0.00149845
0.00152995
0.0015439
0.0015487
0.00154902
0.00154738
0.00154523
0.00154337
0.00154211
0.00154139
0.001541
0.00154079
0.00154066
0.00154059
0.00154059
0.00154066
0.0015408
0.001541
0.00154136
0.00154201
0.00154299
0.00154405
0.00154403
0.00154023
0.0015275
0.00149705
0.00143563
0.00132747
0.00116911
0.00113408
0.00118448
0.00121476
0.00138183
0.0014985
0.00156649
0.00160127
0.00161616
0.00161996
0.00161786
0.00161306
0.00160792
0.00160391
0.00160143
0.00160009
0.00159941
0.00159908
0.00159885
0.00159872
0.00159872
0.00159885
0.00159908
0.00159941
0.00160007
0.0016013
0.00160344
0.00160647
0.00160902
0.00160745
0.0015954
0.0015631
0.00149682
0.00138113
0.00121452
0.00118433
0.00120672
0.00123593
0.00140845
0.00153008
0.00160138
0.00163735
0.0016511
0.00165133
0.00164353
0.00163203
0.001621
0.00161319
0.00160909
0.00160705
0.00160597
0.00160567
0.00160538
0.00160517
0.00160517
0.00160539
0.00160568
0.00160598
0.00160703
0.00160895
0.00161267
0.00161938
0.00162751
0.00163201
0.00162449
0.00159391
0.0015263
0.0014068
0.00123529
0.00120622
0.00121569
0.00124481
0.00142016
0.00154419
0.00161657
0.00165155
0.0016614
0.00165411
0.00163524
0.00161112
0.00158982
0.00157598
0.00157109
0.00156901
0.00156744
0.00156804
0.00156801
0.00156775
0.00156775
0.00156802
0.00156805
0.00156745
0.001569
0.00157096
0.00157545
0.00158811
0.00160632
0.00162306
0.00162589
0.00160176
0.00153668
0.00141678
0.0012434
0.0012145
0.00121893
0.00124811
0.00142462
0.00154934
0.0016211
0.00165302
0.00165588
0.00163601
0.00159857
0.00155356
0.00151804
0.00149246
0.00149189
0.00149256
0.00148953
0.00149452
0.00149591
0.00149581
0.00149581
0.00149593
0.00149454
0.00148956
0.00149257
0.00149179
0.00149195
0.00151629
0.00154858
0.00158596
0.00160696
0.00159485
0.00153609
0.00141861
0.00124551
0.00121661
0.00121989
0.00124912
0.00142592
0.00155038
0.0016205
0.001648
0.0016415
0.00160471
0.00154194
0.00147144
0.0014423
0.00136405
0.00138462
0.00139609
0.0013855
0.00140696
0.00141338
0.00141417
0.00141418
0.0014134
0.001407
0.00138554
0.00139613
0.00138458
0.0013636
0.00144034
0.00146613
0.00152885
0.00157502
0.00157958
0.00152992
0.00141662
0.00124502
0.00121612
0.00122004
0.00124931
0.00142605
0.00154997
0.00161836
0.00164162
0.0016263
0.00157408
0.00149286
0.0014435
0.00193172
0.00121197
0.00129177
0.00133078
0.00128851
0.00135923
0.00137853
0.00138154
0.00138155
0.00137856
0.0013593
0.00128855
0.00133087
0.00129184
0.00121158