/*--------------------------------*- C++ -*----------------------------------*\
| =========                 |                                                 |
| \\      /  F ield         | OpenFOAM: The Open Source CFD Toolbox           |
|  \\    /   O peration     | Version:  2112                                  |
|   \\  /    A nd           | Website:  www.openfoam.com                      |
|    \\/     M anipulation  |                                                 |
\*---------------------------------------------------------------------------*/
FoamFile
{
    version     2.0;
    format      ascii;
    arch        "LSB;label=32;scalar=64";
    class       volScalarField;
    location    "2.9";
    object      k;
}
// * * * * * * * * * * * * * * * * * * * * * * * * * * * * * * * * * * * * * //

dimensions      [0 2 -2 0 0 0 0];

internalField   nonuniform List<scalar> 
64906
(
0.000452903
0.000497736
0.00052375
0.000535317
0.000539968
0.000541703
0.000542307
0.000542504
0.000542562
0.000542573
0.000542574
0.00054257
0.000542563
0.000542556
0.000542546
0.000542535
0.000542522
0.000542511
0.000542504
0.000542511
0.000542523
0.000542534
0.000542543
0.000542549
0.000542551
0.00054254
0.000542487
0.000542301
0.000541707
0.000539978
0.000535331
0.000523772
0.000497759
0.000452921
0.000497759
0.00073314
0.000852709
0.000909328
0.000935073
0.000946024
0.000950314
0.000951828
0.000952267
0.000952314
0.000952238
0.000952149
0.000952088
0.00095206
0.000952053
0.00095205
0.000952048
0.000952046
0.000952046
0.000952049
0.000952052
0.000952055
0.000952061
0.000952078
0.000952095
0.000952035
0.000951636
0.000950196
0.000945983
0.000935092
0.000909384
0.00085278
0.000733207
0.000497804
0.000523814
0.000852756
0.00102452
0.00111015
0.00115149
0.00117021
0.00117796
0.00118075
0.00118145
0.00118131
0.00118093
0.00118058
0.00118036
0.00118027
0.00118025
0.00118026
0.00118026
0.00118026
0.00118026
0.00118026
0.00118027
0.00118027
0.00118028
0.00118034
0.00118046
0.00118048
0.00117989
0.00117734
0.00116987
0.00115138
0.00111018
0.00102462
0.000852871
0.000523889
0.000535409
0.000909422
0.0011102
0.00121396
0.00126599
0.0012904
0.00130069
0.00130415
0.00130445
0.0013034
0.00130202
0.00130088
0.00130017
0.00129987
0.00129978
0.00129973
0.00129969
0.00129967
0.00129968
0.0012997
0.00129975
0.0012998
0.00129988
0.00130014
0.00130069
0.00130132
0.00130127
0.00129853
0.00128908
0.00126536
0.00121378
0.00111025
0.000909555
0.000535509
0.000540078
0.000935197
0.00115159
0.00126604
0.00132475
0.00135268
0.00136411
0.00136696
0.00136535
0.00136169
0.00135775
0.00135479
0.00135303
0.00135229
0.00135206
0.0013519
0.00135174
0.00135165
0.00135165
0.00135175
0.00135192
0.00135209
0.0013523
0.00135299
0.00135454
0.00135687
0.00135902
0.00135808
0.00134887
0.00132277
0.00126524
0.00115142
0.000935292
0.000540194
0.000541821
0.000946163
0.00117033
0.0012905
0.00135275
0.00138207
0.00139278
0.00139272
0.00138617
0.00137635
0.00136674
0.00136032
0.00135688
0.00135566
0.00135542
0.00135505
0.00135464
0.0013544
0.00135441
0.00135465
0.00135507
0.00135545
0.00135568
0.00135684
0.00136005
0.00136576
0.00137336
0.00137807
0.00137277
0.00134778
0.00128831
0.00116964
0.000946115
0.000541941
0.000542426
0.000950458
0.00117811
0.00130087
0.00136437
0.00139307
0.00140057
0.00139384
0.00137671
0.00135365
0.00133244
0.00132127
0.0013166
0.00131581
0.00131627
0.00131571
0.00131491
0.00131447
0.00131448
0.00131494
0.00131574
0.00131631
0.00131584
0.00131657
0.00132101
0.00133145
0.00135055
0.00136823
0.00137295
0.00135367
0.00129604
0.00117638
0.000950103
0.000542534
0.000542618
0.000951976
0.00118097
0.00130453
0.00136767
0.00139388
0.00139513
0.00137609
0.00133841
0.00128772
0.00124254
0.00123059
0.00123041
0.00123379
0.00123692
0.00123653
0.00123545
0.00123485
0.00123486
0.00123547
0.00123657
0.00123697
0.00123384
0.00123042
0.0012304
0.00124164
0.00128472
0.0013299
0.00135486
0.00134741
0.00129539
0.00117754
0.000951105
0.000542688
0.000542667
0.00095243
0.00118179
0.00130526
0.00136711
0.00138941
0.00138144
0.00134303
0.00126856
0.00115831
0.00105433
0.00107196
0.00109907
0.00111622
0.00112524
0.00112634
0.00112576
0.00112537
0.00112537
0.00112579
0.00112638
0.00112531
0.00111629
0.00109912
0.00107188
0.00105365
0.00115559
0.00126022
0.00132179
0.00133345
0.00129036
0.00117615
0.000950868
0.000542673
0.000542666
0.00095252
0.0011819
0.001305
0.0013654
0.00138364
0.00136554
0.00130292
0.00117081
0.000929266
0.00065528
0.000824639
0.000939892
0.000986104
0.00100288
0.00100766
0.00100878
0.00100898
0.00100899
0.0010088
0.0010077
0.00100294
0.000986193
0.000940011
0.000824762
0.000655037
0.000927117
0.00116276
0.00128175
0.00131745
0.00128436
0.00117412
0.000950285
0.000542594
0.000542653
0.000952522
0.00118191
0.00130484
0.00136454
0.00138068
0.00135681
0.0012776
0.00109133
0.000670128
0.000604103
0.000819898
0.00089146
0.000912769
0.000919256
0.000920955
0.000921312
0.000921316
0.000920968
0.000919281
0.000912811
0.000891535
0.000820024
0.00060419
0.000669085
0.00108359
0.00125645
0.00130864
0.00128125
0.00117307
0.000949952
0.000542537
0.000542641
0.000952533
0.00118205
0.00130524
0.00136552
0.00138313
0.00136347
0.00129775
0.00116059
0.000912373
0.000641004
0.000772706
0.000874023
0.000913177
0.000924867
0.000930076
0.000931295
0.00093141
0.000931408
0.000931289
0.000930067
0.000924854
0.000913167
0.000874014
0.000772602
0.000640622
0.000910002
0.00115241
0.00127646
0.0013152
0.00128358
0.00117387
0.000950137
0.00054254
0.000542629
0.000952571
0.00118232
0.00130606
0.0013677
0.00138867
0.0013772
0.00133155
0.00124407
0.00111301
0.000980581
0.00095465
0.000946515
0.000945176
0.000944877
0.000945289
0.000945171
0.000944991
0.000944986
0.000945155
0.000945261
0.000944831
0.000945102
0.00094638
0.000954336
0.000979661
0.00111012
0.00123561
0.0013101
0.00132881
0.00128897
0.00117586
0.000950701
0.000542573
0.000542612
0.000952614
0.00118261
0.00130696
0.00137004
0.00139433
0.00139012
0.00135945
0.00130047
0.00121531
0.00112127
0.00104879
0.000994171
0.00096909
0.000959964
0.000956992
0.000955931
0.000955553
0.000955545
0.000955907
0.000956951
0.000959899
0.000968987
0.000993997
0.00104844
0.00112022
0.00121221
0.00129181
0.00133784
0.00134157
0.00129444
0.00117797
0.000951316
0.000542601
0.000542591
0.000952646
0.00118285
0.00130767
0.00137185
0.00139853
0.00139909
0.00137703
0.00133159
0.00126301
0.00117821
0.0010915
0.00101877
0.000982562
0.000968625
0.000963871
0.000962281
0.000961764
0.000961753
0.000962248
0.00096382
0.000968551
0.000982448
0.00101858
0.00109113
0.00117712
0.00125981
0.00132279
0.00135526
0.00135038
0.00129846
0.00117958
0.000951784
0.000542608
0.000542568
0.00095266
0.00118301
0.00130815
0.00137301
0.0014011
0.00140427
0.00138646
0.00134681
0.00128402
0.00120126
0.00110953
0.00102966
0.000988817
0.000972714
0.000967141
0.000965274
0.000964652
0.000964636
0.000965233
0.000967082
0.000972633
0.000988698
0.00102948
0.0011091
0.00120015
0.00128077
0.00133793
0.00136458
0.00135542
0.00130087
0.00118057
0.000952063
0.000542594
0.000542543
0.000952661
0.0011831
0.00130841
0.00137364
0.00140244
0.00140684
0.00139088
0.0013535
0.00129261
0.00121014
0.00111651
0.00103392
0.000991304
0.000974344
0.00096843
0.000966422
0.000965713
0.00096569
0.000966372
0.000968365
0.000974259
0.000991182
0.00103373
0.00111607
0.00120902
0.00128932
0.00134457
0.00136894
0.0013579
0.00130211
0.00118108
0.0009522
0.000542565
0.000542518
0.000952655
0.00118314
0.00130853
0.00137392
0.001403
0.00140787
0.00139258
0.00135594
0.00129559
0.00121311
0.00111882
0.00103533
0.000992127
0.000974875
0.000968834
0.000966755
0.000965979
0.00096595
0.000966698
0.000968763
0.000974786
0.000992003
0.00103514
0.00111838
0.00121199
0.0012923
0.00134699
0.0013706
0.00135889
0.00130262
0.0011813
0.000952249
0.000542531
0.000542498
0.000952649
0.00118315
0.00130855
0.00137394
0.00140303
0.00140792
0.00139264
0.00135602
0.00129568
0.00121321
0.00111891
0.00103539
0.000992166
0.00097489
0.000968829
0.000966725
0.000965909
0.000965873
0.000966662
0.000968754
0.000974799
0.000992041
0.0010352
0.00111847
0.00121209
0.0012924
0.00134708
0.00137067
0.00135894
0.00130265
0.00118132
0.000952246
0.0005425
0.000542496
0.000952647
0.00118312
0.00130846
0.00137372
0.00140254
0.00140698
0.00139107
0.00135373
0.00129288
0.00121045
0.00111681
0.00103413
0.000991432
0.000974401
0.000968425
0.000966343
0.000965531
0.000965492
0.000966276
0.000968348
0.000974309
0.000991309
0.00103394
0.00111639
0.00120935
0.00128962
0.00134482
0.00136914
0.00135805
0.00130221
0.00118114
0.000952195
0.000542494
0.000542514
0.000952646
0.00118305
0.00130823
0.00137314
0.00140128
0.00140451
0.00138678
0.00134722
0.00128452
0.00120183
0.00111011
0.00103006
0.000989066
0.00097284
0.000967163
0.000965181
0.000964428
0.000964394
0.000965115
0.000967086
0.000972751
0.000988949
0.00102988
0.00110971
0.00120077
0.00128132
0.00133838
0.00136493
0.00135567
0.00130105
0.00118067
0.000952068
0.000542514
0.000542537
0.000952637
0.00118291
0.00130779
0.00137203
0.00139878
0.00139943
0.00137749
0.0013322
0.0012638
0.00117915
0.00109241
0.00101941
0.000982971
0.000968851
0.000963949
0.000962218
0.000961579
0.000961552
0.000962159
0.000963878
0.00096877
0.00098287
0.00101926
0.00109207
0.00117816
0.00126069
0.00132348
0.00135578
0.00135075
0.00129871
0.00117972
0.000951804
0.000542528
0.000542558
0.000952611
0.00118268
0.00130709
0.00137025
0.00139464
0.00139055
0.00136006
0.00130133
0.00121649
0.00112275
0.00105006
0.000995068
0.000969608
0.000960219
0.000957057
0.000955852
0.000955379
0.000955361
0.000955805
0.000956995
0.000960148
0.000969526
0.000994967
0.00104985
0.00112189
0.00121355
0.00129276
0.0013385
0.00134203
0.00129475
0.00117815
0.000951354
0.000542523
0.000542575
0.000952566
0.00118238
0.00130619
0.0013679
0.00138897
0.00137764
0.00133221
0.00124511
0.00111461
0.000982784
0.000956484
0.000947271
0.000945257
0.000944568
0.000944735
0.00094448
0.000944231
0.000944217
0.000944441
0.000944671
0.000944476
0.00094514
0.000947172
0.000956423
0.000982173
0.00111195
0.00123672
0.00131076
0.00132924
0.00128926
0.00117604
0.000950746
0.000542497
0.000542586
0.000952495
0.00118203
0.00130523
0.00136554
0.00138323
0.00136369
0.00129822
0.00116154
0.000914204
0.000642207
0.000773392
0.000872376
0.000910285
0.000921194
0.000926018
0.000927085
0.00092714
0.000927123
0.000927024
0.000925877
0.000920896
0.000909786
0.000871824
0.000773324
0.00064189
0.000912064
0.00115315
0.00127666
0.00131529
0.00128366
0.00117395
0.000950145
0.000542464
0.000542585
0.000952346
0.00118158
0.00130435
0.00136394
0.00138002
0.00135611
0.00127686
0.00109069
0.000669863
0.000599599
0.000808696
0.000876346
0.000895083
0.000900592
0.000901991
0.000902243
0.000902192
0.000901793
0.000900076
0.000893883
0.000874012
0.00080528
0.000597398
0.000667939
0.00108148
0.00125464
0.00130749
0.00128061
0.00117275
0.000949798
0.000542447
0.000542546
0.00095188
0.00118061
0.0013031
0.00136303
0.00138092
0.00136248
0.00129935
0.00116647
0.000924237
0.000650477
0.000801666
0.000903356
0.000936606
0.000944952
0.000947333
0.00094803
0.000948165
0.000948064
0.000947586
0.000946003
0.000941424
0.000928901
0.000890125
0.000788568
0.000644874
0.000915584
0.00115348
0.00127542
0.00131342
0.00128187
0.00117269
0.000949632
0.000542441
0.000542372
0.000950407
0.00117782
0.00129958
0.00136011
0.00138142
0.00137243
0.00133231
0.00125437
0.00113729
0.00102053
0.00101362
0.00101166
0.000998184
0.000989151
0.000985517
0.000984351
0.000983992
0.00098383
0.000983598
0.000983067
0.000982107
0.00098098
0.000979165
0.000978976
0.000992887
0.00111589
0.00123502
0.0013058
0.00132303
0.00128346
0.00117186
0.000948792
0.000542335
0.000541786
0.000946187
0.00117023
0.0012897
0.00134984
0.0013739
0.00137315
0.00135099
0.00130694
0.00124333
0.00117442
0.00112439
0.00107456
0.00102698
0.00100351
0.000994766
0.000991997
0.00099121
0.000991006
0.000991009
0.00099138
0.000993216
0.00100012
0.00102072
0.00106767
0.0011288
0.00121081
0.00128203
0.00132269
0.00132455
0.00127881
0.00116634
0.000945236
0.000541813
0.000540062
0.000935297
0.00115169
0.0012658
0.00132328
0.00134801
0.0013524
0.00134157
0.00131653
0.00127772
0.00122814
0.00117267
0.00111055
0.00105281
0.00102414
0.00101326
0.00100974
0.00100874
0.00100852
0.00100865
0.00100947
0.00101263
0.00102292
0.00105106
0.00110982
0.00117737
0.00124201
0.00129053
0.00131426
0.00130711
0.00125913
0.00114949
0.000934879
0.000540136
0.000535412
0.000909581
0.00111047
0.00121415
0.00126564
0.0012884
0.00129484
0.00129047
0.00127664
0.00125277
0.00121831
0.00117401
0.00112303
0.00107628
0.00105094
0.00104056
0.001037
0.00103598
0.00103576
0.00103592
0.0010369
0.00104035
0.00105051
0.00107579
0.00112326
0.00117631
0.00122291
0.00125493
0.00126764
0.00125622
0.00121057
0.00110948
0.000909524
0.000535516
0.000523842
0.000852953
0.00102488
0.0011106
0.00115182
0.0011699
0.00117591
0.00117482
0.00116798
0.00115475
0.00113403
0.00110572
0.00107271
0.00104269
0.00102518
0.00101744
0.00101464
0.00101378
0.00101361
0.00101377
0.00101459
0.00101735
0.00102505
0.00104258
0.0010729
0.00110655
0.00113513
0.00115356
0.00115895
0.00114727
0.00110914
0.00102468
0.000853101
0.000523956
0.000497811
0.000733329
0.000853058
0.000909821
0.000935641
0.00094649
0.000950266
0.000950416
0.000947893
0.000942349
0.000932954
0.00091945
0.000903347
0.000888509
0.000879413
0.000875162
0.000873544
0.000873024
0.000872914
0.00087303
0.00087355
0.000875162
0.000879402
0.000888515
0.000903439
0.000919699
0.000933075
0.000941129
0.000942422
0.000934234
0.000909591
0.000853229
0.000733534
0.000497912
0.000452952
0.000497855
0.000523971
0.000535635
0.000540379
0.000542198
0.000542855
0.000543021
0.000542855
0.000542287
0.000541248
0.000539565
0.000537377
0.000535231
0.000533871
0.000533196
0.000532892
0.000532744
0.00053269
0.000532752
0.0005329
0.000533199
0.000533865
0.000535216
0.000537357
0.000539548
0.000541207
0.000542103
0.000542068
0.000540521
0.00053585
0.000524163
0.000497984
0.000453021
0.000647739
0.000817829
0.000916705
0.000964504
0.000985974
0.000994928
0.000998363
0.000999546
0.000999872
0.000999887
0.000999803
0.000999703
0.000999622
0.000999566
0.000999529
0.000999501
0.00099948
0.000999468
0.000999466
0.000999475
0.000999494
0.00099952
0.000999554
0.0009996
0.000999646
0.000999628
0.000999339
0.000998216
0.000994842
0.000985935
0.000964496
0.000916713
0.000817845
0.000647758
0.000817835
0.00153634
0.00184435
0.0019983
0.00207311
0.00210718
0.0021214
0.00212662
0.00212804
0.00212795
0.00212736
0.0021267
0.00212619
0.00212584
0.00212563
0.00212549
0.0021254
0.00212535
0.00212535
0.0021254
0.00212549
0.00212563
0.00212583
0.00212611
0.00212644
0.00212647
0.00212524
0.00212035
0.0021065
0.00207272
0.00199809
0.00184426
0.0015363
0.000817854
0.00091675
0.00184445
0.00225076
0.00246295
0.00257118
0.00262297
0.00264554
0.00265393
0.00265583
0.00265498
0.00265323
0.00265152
0.00265026
0.0026495
0.00264909
0.00264884
0.00264867
0.00264859
0.0026486
0.00264868
0.00264885
0.00264909
0.00264947
0.00265011
0.00265098
0.00265153
0.00265003
0.00264254
0.002621
0.00257007
0.00246243
0.00225058
0.00184443
0.000916793
0.000964593
0.00199848
0.00246305
0.00271317
0.0028448
0.00290958
0.00293809
0.00294785
0.00294834
0.00294466
0.00293977
0.00293547
0.00293248
0.0029308
0.00292995
0.00292943
0.00292908
0.00292889
0.0029289
0.00292909
0.00292945
0.00292996
0.00293076
0.00293226
0.00293467
0.00293729
0.00293766
0.00293016
0.00290432
0.0028418
0.00271172
0.0024625
0.00199837
0.00096465
0.000986095
0.00207335
0.00257136
0.00284491
0.00299154
0.00306434
0.00309522
0.0031029
0.00309797
0.00308699
0.00307485
0.00306504
0.00305864
0.00305532
0.00305378
0.00305275
0.00305199
0.00305158
0.00305158
0.003052
0.00305277
0.00305379
0.00305527
0.00305836
0.00306404
0.00307176
0.00307838
0.00307606
0.00305156
0.00298419
0.00284126
0.00256986
0.00207292
0.000986129
0.000995071
0.00210746
0.00262323
0.00290985
0.00306458
0.0031403
0.00316878
0.00316853
0.00315058
0.00312357
0.00309647
0.00307662
0.00306482
0.00305945
0.00305734
0.00305558
0.00305409
0.00305327
0.00305328
0.00305411
0.00305561
0.00305736
0.00305941
0.00306453
0.00307552
0.00309302
0.00311395
0.00312622
0.00311209
0.00304834
0.00290171
0.00261975
0.00210631
0.000995004
0.000998517
0.00212172
0.00264595
0.0029387
0.00309612
0.00316978
0.00318965
0.00317231
0.003128
0.00306859
0.00301274
0.00297827
0.00296114
0.00295536
0.00295417
0.00295175
0.00294924
0.00294786
0.00294786
0.00294926
0.00295179
0.00295421
0.00295534
0.00296087
0.00297718
0.0030092
0.0030585
0.0031023
0.00311294
0.00306383
0.00292252
0.0026389
0.00211922
0.000998231
0.000999711
0.00212702
0.00265465
0.00294925
0.00310545
0.00317239
0.00317634
0.00312888
0.00303598
0.00291291
0.00280196
0.00275659
0.00274469
0.00274645
0.00275063
0.00274859
0.00274535
0.00274354
0.00274355
0.00274537
0.00274864
0.00275068
0.00274646
0.0027445
0.00275565
0.00279859
0.0029028
0.0030097
0.00306799
0.00304767
0.00292068
0.00264214
0.00212243
0.000999048
0.00100006
0.00212862
0.00265717
0.00295134
0.00310397
0.00316087
0.00314226
0.00304948
0.00287383
0.00262171
0.00238585
0.00237945
0.00241927
0.00245018
0.0024672
0.00246943
0.00246764
0.00246634
0.00246635
0.00246767
0.00246948
0.00246727
0.00245024
0.00241922
0.00237884
0.00238298
0.00261192
0.00284733
0.00298772
0.00301203
0.00290689
0.00263779
0.00212138
0.000998887
0.00100011
0.00212886
0.0026574
0.00295045
0.00309916
0.00314586
0.00310335
0.00295656
0.00265868
0.00212511
0.00134544
0.00179193
0.00202732
0.00212396
0.00215773
0.00217192
0.00217539
0.00217582
0.00217583
0.00217542
0.00217198
0.00215781
0.00212408
0.00202745
0.00179194
0.00134389
0.00211604
0.00263196
0.00289407
0.00297207
0.0028906
0.00263155
0.0021191
0.000998443
0.00100009
0.00212877
0.00265725
0.00294969
0.00309638
0.00313772
0.00308183
0.00290045
0.00249706
0.0014085
0.00113172
0.00171308
0.00186943
0.00191929
0.001934
0.00193764
0.00193831
0.00193832
0.00193765
0.00193403
0.00191935
0.00186954
0.00171328
0.00113184
0.00140219
0.00247012
0.0028374
0.00294992
0.00288176
0.00262804
0.00211766
0.000998157
0.00100006
0.00212873
0.00265748
0.00295045
0.00309828
0.00314246
0.00309455
0.00293784
0.00262362
0.00206466
0.00127714
0.00163156
0.00184715
0.00193578
0.00197057
0.001975
0.00197471
0.00197426
0.00197425
0.0019747
0.00197497
0.00197053
0.00193572
0.00184706
0.00163119
0.0012753
0.00205526
0.00259664
0.00287498
0.00296267
0.00288635
0.00262962
0.00211799
0.000998232
0.00100005
0.00212882
0.00265815
0.00295247
0.00310352
0.0031553
0.00312518
0.00301034
0.00279645
0.00248259
0.00215763
0.00204273
0.00199353
0.00198004
0.00197837
0.00197659
0.0019752
0.00197453
0.00197452
0.00197518
0.00197654
0.0019783
0.0019799
0.00199321
0.00204181
0.00215454
0.00247258
0.00276956
0.00294779
0.00299356
0.00289928
0.00263475
0.00211972
0.000998568
0.00100004
0.00212898
0.00265895
0.00295482
0.00310945
0.00316911
0.00315553
0.00307352
0.00292022
0.00270173
0.00245763
0.00225622
0.00210044
0.0020268
0.00200044
0.00199183
0.00198903
0.00198817
0.00198817
0.00198901
0.00199179
0.00200036
0.00202663
0.00210004
0.00225516
0.00245423
0.00269145
0.00289328
0.00301105
0.00302401
0.0029131
0.00264055
0.00212177
0.000998942
0.00100003
0.00212912
0.00265963
0.00295679
0.00311426
0.00317981
0.00317752
0.0031152
0.0029921
0.00281012
0.00258696
0.00235831
0.00216056
0.00205854
0.00201922
0.00200635
0.00200254
0.00200155
0.00200155
0.00200253
0.00200631
0.00201913
0.00205836
0.00216016
0.00235723
0.00258344
0.00279967
0.00296503
0.00305266
0.00304594
0.00292369
0.00264516
0.00212343
0.000999217
0.00100001
0.00212921
0.0026601
0.00295812
0.00311742
0.00318659
0.00319071
0.00313851
0.00302891
0.0028604
0.00264249
0.00240327
0.00218894
0.0020748
0.00202959
0.00201465
0.00201032
0.00200925
0.00200925
0.00201031
0.00201462
0.00202951
0.00207462
0.00218854
0.00240221
0.00263891
0.00284983
0.0030017
0.00307583
0.00305898
0.00293029
0.0026481
0.0021245
0.000999368
0.00099999
0.00212925
0.00266037
0.00295887
0.00311917
0.00319022
0.00319749
0.00314987
0.00304574
0.00288186
0.00266491
0.00242133
0.0022006
0.00208168
0.0020341
0.00201829
0.00201373
0.00201262
0.00201262
0.00201372
0.00201826
0.00203402
0.0020815
0.0022002
0.00242025
0.0026613
0.00287123
0.00301844
0.00308707
0.00306563
0.00293376
0.00264969
0.00212506
0.000999426
0.000999969
0.00212927
0.00266049
0.00295921
0.00311993
0.00319174
0.00320025
0.00315432
0.00305206
0.00288955
0.00267263
0.00242745
0.00220455
0.00208402
0.00203563
0.00201952
0.00201488
0.00201375
0.00201375
0.00201487
0.00201949
0.00203556
0.00208385
0.00220415
0.00242637
0.002669
0.00287889
0.00302471
0.00309146
0.00306831
0.0029352
0.00265035
0.00212529
0.000999433
0.000999955
0.00212927
0.0026605
0.00295922
0.00311996
0.00319179
0.00320031
0.00315441
0.00305216
0.00288967
0.00267275
0.00242757
0.00220467
0.0020841
0.00203567
0.00201955
0.00201489
0.00201376
0.00201376
0.00201488
0.00201951
0.0020356
0.00208392
0.00220428
0.00242649
0.00266913
0.00287901
0.00302482
0.00309155
0.00306837
0.00293524
0.00265037
0.00212529
0.000999415
0.000999955
0.00212925
0.00266039
0.00295893
0.00311927
0.00319035
0.00319768
0.00315012
0.00304605
0.00288223
0.00266531
0.00242173
0.00220098
0.00208194
0.00203425
0.00201839
0.00201381
0.00201269
0.00201268
0.0020138
0.00201836
0.00203418
0.00208177
0.0022006
0.00242067
0.00266172
0.00287162
0.00301877
0.00308733
0.00306581
0.00293388
0.00264975
0.00212507
0.000999381
0.000999967
0.0021292
0.00266014
0.00295821
0.00311758
0.00318682
0.00319103
0.00313894
0.00302946
0.00286107
0.00264324
0.00240404
0.0021897
0.00207534
0.00202996
0.00201494
0.00201058
0.00200949
0.00200949
0.00201057
0.00201492
0.00202991
0.0020752
0.00218935
0.00240302
0.00263972
0.00285056
0.0030023
0.00307628
0.0030593
0.00293049
0.00264821
0.00212451
0.000999308
0.000999981
0.00212911
0.00265968
0.00295691
0.00311446
0.00318012
0.00317796
0.00311582
0.00299294
0.00281122
0.00258827
0.00235966
0.00216185
0.00205948
0.00201991
0.00200694
0.00200311
0.00200212
0.00200212
0.00200312
0.00200695
0.00201989
0.00205939
0.00216157
0.00235875
0.00258488
0.00280087
0.00296593
0.0030533
0.00304637
0.00292396
0.0026453
0.00212345
0.000999152
0.000999988
0.00212895
0.00265898
0.00295493
0.00310964
0.00316943
0.00315602
0.00307427
0.00292137
0.0027034
0.00245979
0.00225852
0.00210226
0.00202799
0.00200127
0.00199254
0.00198972
0.00198889
0.0019889
0.00198975
0.00199257
0.00200128
0.00202794
0.00210205
0.00225774
0.00245664
0.00269326
0.00289445
0.00301176
0.00302445
0.00291336
0.00264067
0.00212177
0.000998872
0.000999984
0.00212874
0.00265807
0.00295242
0.00310352
0.0031554
0.00312546
0.00301096
0.00279767
0.00248482
0.00216091
0.00204579
0.00199471
0.00197985
0.00197751
0.00197549
0.0019741
0.00197346
0.00197347
0.00197413
0.00197551
0.00197745
0.00197966
0.00199441
0.00204523
0.00215821
0.00247495
0.00277054
0.00294806
0.0029936
0.00289927
0.00263472
0.00211964
0.000998481
0.00099996
0.00212844
0.00265703
0.00294983
0.00309755
0.00314169
0.00309383
0.00293736
0.00262388
0.00206687
0.00127967
0.0016318
0.00184158
0.00192683
0.00195969
0.00196343
0.00196303
0.00196261
0.0019626
0.00196299
0.00196321
0.00195902
0.00192543
0.00183972
0.00163096
0.00127796
0.00205721
0.00259552
0.00287322
0.00296122
0.00288537
0.00262903
0.00211763
0.000998095
0.000999866
0.00212784
0.00265562
0.00294738
0.00309348
0.00313434
0.003078
0.00289613
0.00249247
0.00140499
0.00111352
0.00167664
0.00182215
0.00186472
0.00187718
0.00188046
0.00188113
0.00188103
0.00188002
0.00187584
0.0018613
0.00181508
0.00166559
0.00110481
0.00139434
0.00246008
0.00282931
0.00294429
0.00287813
0.00262587
0.0021165
0.000997875
0.000999515
0.00212609
0.0026525
0.00294356
0.00309058
0.00313581
0.00309165
0.00294238
0.00264043
0.00210054
0.00131503
0.00170984
0.00191213
0.00197582
0.00198782
0.0019964
0.00199952
0.00200022
0.00199997
0.00199835
0.00199272
0.00197787
0.00195343
0.00187309
0.00166592
0.00128904
0.00206763
0.00259765
0.00287096
0.00295684
0.00288071
0.00262543
0.00211582
0.000997746
0.000998354
0.00212085
0.0026439
0.0029332
0.00308184
0.00313535
0.00311292
0.00301395
0.00282646
0.00255126
0.00227254
0.00220072
0.00216469
0.00211764
0.00208785
0.00207786
0.00207503
0.00207419
0.00207375
0.00207292
0.00207089
0.00206783
0.00206936
0.00207607
0.0021026
0.00218926
0.00248691
0.00276788
0.00293629
0.00297766
0.0028835
0.00262246
0.0021128
0.00099704
0.000994961
0.0021068
0.0026217
0.00290569
0.00305367
0.00311412
0.00311138
0.00305356
0.00294089
0.00277987
0.00260216
0.00245653
0.00231717
0.00218778
0.00212118
0.00209619
0.00208829
0.00208605
0.00208546
0.00208543
0.00208643
0.00209186
0.00211305
0.00217421
0.00230734
0.00247923
0.00268976
0.00286903
0.00297184
0.00297864
0.00286996
0.00260645
0.00210117
0.000994124
0.000986042
0.00207291
0.00257045
0.00284236
0.0029846
0.00304728
0.00305743
0.00302685
0.00295857
0.00285436
0.00272156
0.00257177
0.00240806
0.00225549
0.00217561
0.00214433
0.00213398
0.00213096
0.00213028
0.00213071
0.00213324
0.00214269
0.00217271
0.0022521
0.00240952
0.00258802
0.00275721
0.00288437
0.002948
0.00293331
0.00281848
0.00256053
0.00206935
0.000985589
0.000964587
0.00199823
0.00246266
0.00271197
0.00284115
0.0029
0.00291594
0.00290178
0.00286106
0.00279296
0.00269693
0.00257595
0.00243981
0.00231629
0.00224667
0.00221701
0.00220641
0.00220309
0.00220235
0.00220302
0.00220619
0.00221652
0.00224593
0.00231593
0.00244207
0.0025839
0.00270958
0.00279737
0.00283436
0.00280842
0.0026973
0.00245682
0.00199621
0.000964397
0.000916782
0.00184433
0.00225073
0.00246266
0.00256977
0.00261856
0.00263438
0.00262924
0.00260656
0.00256516
0.00250283
0.00242048
0.00232689
0.00224281
0.00219238
0.00216923
0.00216036
0.00215742
0.00215677
0.00215744
0.00216037
0.00216921
0.00219236
0.00224311
0.00232831
0.00242375
0.00250626
0.00256112
0.00257956
0.00255117
0.00245475
0.00224776
0.00184334
0.000916748
0.00081789
0.00153632
0.0018445
0.00199849
0.00207298
0.00210588
0.00211717
0.00211609
0.00210535
0.00208407
0.00205036
0.00200424
0.00195112
0.00190314
0.00187323
0.00185885
0.00185308
0.0018511
0.00185065
0.00185116
0.00185319
0.001859
0.00187344
0.00190352
0.00195193
0.00200559
0.00205104
0.00207992
0.00208698
0.00206449
0.00199515
0.00184336
0.00153594
0.000817928
0.00064779
0.000817888
0.000916859
0.000964762
0.000986283
0.000995147
0.000998168
0.000998265
0.000996243
0.000991815
0.00098432
0.000973495
0.000960534
0.000948596
0.000941207
0.000937698
0.000936296
0.000935803
0.00093569
0.000935819
0.000936322
0.000937728
0.000941239
0.000948645
0.000960649
0.000973707
0.000984392
0.000990802
0.000991789
0.000985016
0.000964413
0.000916827
0.000817922
0.000647859
0.000707547
0.00095943
0.00110856
0.0011836
0.00121909
0.00123474
0.00124107
0.00124335
0.00124397
0.00124396
0.00124374
0.00124349
0.00124328
0.00124314
0.00124305
0.00124299
0.00124295
0.00124293
0.00124293
0.00124295
0.00124299
0.00124304
0.00124313
0.00124324
0.00124337
0.00124336
0.00124282
0.00124068
0.00123448
0.00121895
0.00118353
0.00110853
0.000959425
0.000707566
0.00095943
0.00190253
0.00230649
0.00251569
0.00262164
0.00267204
0.002694
0.00270237
0.00270467
0.00270443
0.00270329
0.00270203
0.002701
0.0027003
0.00269986
0.00269957
0.00269939
0.0026993
0.0026993
0.00269939
0.00269957
0.00269985
0.00270025
0.00270084
0.00270149
0.00270164
0.00269968
0.00269191
0.00267061
0.00262077
0.00251519
0.00230622
0.00190239
0.00095942
0.0011086
0.00230662
0.00282552
0.00310436
0.00325181
0.00332508
0.00335821
0.00337088
0.0033737
0.00337214
0.00336905
0.00336594
0.00336356
0.00336205
0.00336118
0.00336064
0.00336031
0.00336014
0.00336014
0.00336031
0.00336064
0.00336116
0.00336196
0.00336326
0.00336495
0.00336609
0.00336398
0.00335283
0.00332142
0.00324962
0.00310321
0.002825
0.00230642
0.0011086
0.0011837
0.00251592
0.00310448
0.00342905
0.00360548
0.00369528
0.00373605
0.00375029
0.00375082
0.00374486
0.00373682
0.00372946
0.00372409
0.00372088
0.00371916
0.0037181
0.00371741
0.00371706
0.00371706
0.00371742
0.0037181
0.00371914
0.00372077
0.00372365
0.00372802
0.00373263
0.00373362
0.00372293
0.00368633
0.00360014
0.00342626
0.00310323
0.00251548
0.00118368
0.00121923
0.00262196
0.00325206
0.00360564
0.00380091
0.00390082
0.00394435
0.0039553
0.00394785
0.00393117
0.00391221
0.00389604
0.00388488
0.00387864
0.00387553
0.00387351
0.00387212
0.0038714
0.00387141
0.00387213
0.00387353
0.00387552
0.00387851
0.00388433
0.00389426
0.00390705
0.0039175
0.00391454
0.00388047
0.00378873
0.00359922
0.00324912
0.00262087
0.00121911
0.00123491
0.00267243
0.00332549
0.00369572
0.00390124
0.00400461
0.00404439
0.00404407
0.00401841
0.00397918
0.00393838
0.00390606
0.00388518
0.00387467
0.00387004
0.00386655
0.0038639
0.00386252
0.00386253
0.00386392
0.00386658
0.00387004
0.00387454
0.00388459
0.00390409
0.0039326
0.00396387
0.00398141
0.0039619
0.00387577
0.00368226
0.00331922
0.00267
0.00123453
0.00124127
0.0026945
0.00335892
0.00373713
0.00394594
0.0040461
0.00407386
0.00405026
0.00398914
0.00390614
0.00382455
0.00376683
0.00373331
0.00371926
0.00371471
0.00370936
0.00370476
0.0037024
0.0037024
0.00370478
0.00370939
0.00371472
0.00371915
0.00373276
0.00376485
0.00381855
0.00388996
0.0039499
0.00396356
0.00389736
0.00371156
0.00334692
0.0026897
0.00124039
0.00124359
0.00270308
0.0033722
0.0037528
0.00395968
0.00405049
0.0040568
0.00399357
0.00386958
0.00370425
0.00354732
0.0034611
0.0034223
0.00341253
0.00341349
0.00340692
0.00340033
0.00339703
0.00339704
0.00340035
0.00340695
0.00341352
0.00341247
0.00342186
0.00345932
0.00354147
0.00368779
0.00382908
0.00390414
0.00387569
0.00370918
0.00335174
0.00269472
0.00124189
0.00124429
0.00270578
0.0033762
0.00375611
0.00395795
0.00403514
0.00401186
0.00389093
0.00366388
0.00333882
0.00301832
0.00295137
0.00296062
0.00298036
0.00299389
0.00299341
0.00298886
0.00298622
0.00298623
0.00298888
0.00299345
0.00299393
0.00298037
0.00296038
0.00295009
0.00301312
0.00332245
0.00362248
0.00379958
0.00382784
0.00368998
0.00334539
0.00269306
0.00124154
0.0012444