/*--------------------------------*- C++ -*----------------------------------*\
| =========                 |                                                 |
| \\      /  F ield         | OpenFOAM: The Open Source CFD Toolbox           |
|  \\    /   O peration     | Version:  2112                                  |
|   \\  /    A nd           | Website:  www.openfoam.com                      |
|    \\/     M anipulation  |                                                 |
\*---------------------------------------------------------------------------*/
FoamFile
{
    version     2.0;
    format      ascii;
    arch        "LSB;label=32;scalar=64";
    class       volScalarField;
    location    "2.9";
    object      nut;
}
// * * * * * * * * * * * * * * * * * * * * * * * * * * * * * * * * * * * * * //

dimensions      [0 2 -1 0 0 0 0];

internalField   nonuniform List<scalar> 
64906
(
5.27619e-05
5.54093e-05
5.6911e-05
5.75802e-05
5.7854e-05
5.79587e-05
5.79961e-05
5.80085e-05
5.80121e-05
5.80127e-05
5.80125e-05
5.80121e-05
5.80116e-05
5.80111e-05
5.80105e-05
5.80098e-05
5.8009e-05
5.80084e-05
5.8008e-05
5.80084e-05
5.80091e-05
5.80097e-05
5.80103e-05
5.80108e-05
5.8011e-05
5.80103e-05
5.80071e-05
5.79954e-05
5.79586e-05
5.78544e-05
5.75809e-05
5.69122e-05
5.54106e-05
5.2763e-05
5.54107e-05
6.74432e-05
7.28645e-05
7.53415e-05
7.64678e-05
7.6955e-05
7.71504e-05
7.7221e-05
7.72416e-05
7.72435e-05
7.72394e-05
7.72346e-05
7.72312e-05
7.72294e-05
7.72288e-05
7.72285e-05
7.72283e-05
7.72281e-05
7.72282e-05
7.72283e-05
7.72286e-05
7.72289e-05
7.72294e-05
7.72305e-05
7.72317e-05
7.72292e-05
7.72104e-05
7.71434e-05
7.69519e-05
7.64679e-05
7.53435e-05
7.28675e-05
6.74464e-05
5.54133e-05
5.69148e-05
7.28666e-05
8.00125e-05
8.34022e-05
8.50252e-05
8.57683e-05
8.60822e-05
8.61976e-05
8.62262e-05
8.62197e-05
8.62024e-05
8.61862e-05
8.61755e-05
8.61706e-05
8.61692e-05
8.61688e-05
8.61686e-05
8.61685e-05
8.61686e-05
8.61689e-05
8.61693e-05
8.61697e-05
8.61708e-05
8.61745e-05
8.61806e-05
8.61823e-05
8.61579e-05
8.60531e-05
8.57515e-05
8.50185e-05
8.34022e-05
8.00161e-05
7.28716e-05
5.69191e-05
5.75855e-05
7.53456e-05
8.34044e-05
8.7338e-05
8.9285e-05
9.02053e-05
9.05996e-05
9.07344e-05
9.07458e-05
9.07033e-05
9.06466e-05
9.05989e-05
9.05682e-05
9.05537e-05
9.05486e-05
9.0546e-05
9.05439e-05
9.05428e-05
9.0543e-05
9.05443e-05
9.05466e-05
9.05493e-05
9.0554e-05
9.05665e-05
9.05903e-05
9.06171e-05
9.06156e-05
9.05093e-05
9.01484e-05
8.92562e-05
8.73281e-05
8.34049e-05
7.5351e-05
5.75912e-05
5.78603e-05
7.64732e-05
8.5029e-05
8.92869e-05
9.14362e-05
9.24636e-05
9.28901e-05
9.29977e-05
9.2937e-05
9.27972e-05
9.26447e-05
9.25269e-05
9.24545e-05
9.24218e-05
9.24104e-05
9.24025e-05
9.23957e-05
9.23919e-05
9.23921e-05
9.23962e-05
9.24033e-05
9.24112e-05
9.24221e-05
9.24522e-05
9.2516e-05
9.26077e-05
9.26895e-05
9.26529e-05
9.23104e-05
9.13531e-05
8.92508e-05
8.50193e-05
7.64761e-05
5.78669e-05
5.79655e-05
7.6961e-05
8.57733e-05
9.02092e-05
9.24665e-05
9.3533e-05
9.39271e-05
9.39269e-05
9.36869e-05
9.3324e-05
9.29641e-05
9.27152e-05
9.25756e-05
9.25215e-05
9.25072e-05
9.2491e-05
9.24747e-05
9.24656e-05
9.24658e-05
9.24753e-05
9.2492e-05
9.25084e-05
9.2522e-05
9.25733e-05
9.27032e-05
9.29229e-05
9.32038e-05
9.33721e-05
9.31745e-05
9.22683e-05
9.01166e-05
8.57402e-05
7.69565e-05
5.79721e-05
5.80029e-05
7.71567e-05
8.60887e-05
9.06073e-05
9.29007e-05
9.3939e-05
9.42149e-05
9.39754e-05
9.33576e-05
9.25206e-05
9.17384e-05
9.13028e-05
9.11053e-05
9.10593e-05
9.10675e-05
9.10431e-05
9.10123e-05
9.09953e-05
9.09956e-05
9.1013e-05
9.10443e-05
9.1069e-05
9.10603e-05
9.11036e-05
9.12912e-05
9.16962e-05
9.23949e-05
9.30261e-05
9.31857e-05
9.24868e-05
9.04101e-05
8.6011e-05
7.71369e-05
5.80085e-05
5.80151e-05
7.72277e-05
8.62069e-05
9.07508e-05
9.30276e-05
9.39737e-05
9.40258e-05
9.33496e-05
9.20007e-05
9.01644e-05
8.84874e-05
8.7985e-05
8.79263e-05
8.8024e-05
8.8129e-05
8.81094e-05
8.80665e-05
8.80432e-05
8.80435e-05
8.80674e-05
8.81108e-05
8.81309e-05
8.80257e-05
8.79259e-05
8.79758e-05
8.84476e-05
9.00387e-05
9.1662e-05
9.25402e-05
9.22607e-05
9.03871e-05
8.60587e-05
7.71829e-05
5.80181e-05
5.80183e-05
7.72495e-05
8.62418e-05
9.07804e-05
9.30088e-05
9.38146e-05
9.35404e-05
9.21784e-05
8.94991e-05
8.54142e-05
8.13778e-05
8.19536e-05
8.29235e-05
8.35495e-05
8.38865e-05
8.39228e-05
8.38977e-05
8.38813e-05
8.38816e-05
8.38987e-05
8.39245e-05
8.38889e-05
8.35522e-05
8.29254e-05
8.19493e-05
8.13451e-05
8.52938e-05
8.91576e-05
9.13569e-05
9.17539e-05
9.01977e-05
8.60025e-05
7.7172e-05
5.8017e-05
5.80183e-05
7.72539e-05
8.62469e-05
9.0771e-05
9.29462e-05
9.36075e-05
9.29764e-05
9.07508e-05
8.59162e-05
7.63874e-05
6.3954e-05
7.16842e-05
7.65073e-05
7.83674e-05
7.90404e-05
7.92297e-05
7.92737e-05
7.92814e-05
7.92817e-05
7.92747e-05
7.92315e-05
7.90431e-05
7.83711e-05
7.65123e-05
7.16894e-05
6.39394e-05
7.6281e-05
8.55723e-05
8.99181e-05
9.11741e-05
8.99721e-05
8.59204e-05
7.7145e-05
5.8012e-05
5.80174e-05
7.72542e-05
8.62473e-05
9.07647e-05
9.29137e-05
9.34997e-05
9.26642e-05
8.98399e-05
8.29051e-05
6.4732e-05
6.12199e-05
7.13124e-05
7.4372e-05
7.52656e-05
7.55419e-05
7.56161e-05
7.5632e-05
7.56322e-05
7.56167e-05
7.5543e-05
7.52674e-05
7.43754e-05
7.13182e-05
6.12245e-05
6.46709e-05
8.25627e-05
8.89996e-05
9.08525e-05
8.98542e-05
8.58777e-05
7.71296e-05
5.80082e-05
5.80168e-05
7.72548e-05
8.62531e-05
9.07797e-05
9.29484e-05
9.35836e-05
9.28903e-05
9.05401e-05
8.54881e-05
7.56077e-05
6.31715e-05
6.91876e-05
7.35468e-05
7.51697e-05
7.56434e-05
7.58709e-05
7.59276e-05
7.59341e-05
7.5934e-05
7.59273e-05
7.58705e-05
7.56429e-05
7.51693e-05
7.35464e-05
6.91823e-05
6.31494e-05
7.5491e-05
8.5138e-05
8.97012e-05
9.10795e-05
8.99367e-05
8.59082e-05
7.71378e-05
5.80084e-05
5.80161e-05
7.72568e-05
8.62642e-05
9.08111e-05
9.30278e-05
9.37789e-05
9.33671e-05
9.17222e-05
8.85217e-05
8.35492e-05
7.8219e-05
7.69808e-05
7.65304e-05
7.64265e-05
7.63957e-05
7.64137e-05
7.64109e-05
7.64042e-05
7.6404e-05
7.64103e-05
7.64125e-05
7.63937e-05
7.64233e-05
7.65243e-05
7.69662e-05
7.81756e-05
8.34204e-05
8.81724e-05
9.0889e-05
9.1562e-05
9.01349e-05
8.59868e-05
7.71636e-05
5.80106e-05
5.80152e-05
7.7259e-05
8.62765e-05
9.08458e-05
9.31142e-05
9.39815e-05
9.38213e-05
9.26998e-05
9.05317e-05
8.73398e-05
8.36913e-05
8.07421e-05
7.84579e-05
7.73832e-05
7.69863e-05
7.68579e-05
7.68128e-05
7.67969e-05
7.67965e-05
7.68118e-05
7.68561e-05
7.69835e-05
7.73787e-05
7.84501e-05
8.07262e-05
8.36446e-05
8.72075e-05
9.01825e-05
9.18695e-05
9.20195e-05
9.03392e-05
8.60717e-05
7.71922e-05
5.80128e-05
5.80141e-05
7.72608e-05
8.62866e-05
9.08741e-05
9.31827e-05
9.41345e-05
9.41408e-05
9.33203e-05
9.16362e-05
8.90702e-05
8.58283e-05
8.24093e-05
7.9449e-05
7.793e-05
7.73344e-05
7.71296e-05
7.7061e-05
7.70388e-05
7.70383e-05
7.70596e-05
7.71274e-05
7.73312e-05
7.79251e-05
7.94409e-05
8.2393e-05
8.57807e-05
8.89363e-05
9.1286e-05
9.24901e-05
9.23393e-05
9.04916e-05
8.61374e-05
7.72145e-05
5.80136e-05
5.80128e-05
7.72617e-05
8.62935e-05
9.08931e-05
9.32271e-05
9.42297e-05
9.43284e-05
9.36579e-05
9.21815e-05
8.98343e-05
8.66918e-05
8.31129e-05
7.98919e-05
7.81883e-05
7.75027e-05
7.72627e-05
7.7182e-05
7.71551e-05
7.71544e-05
7.71802e-05
7.72602e-05
7.74992e-05
7.81831e-05
7.98837e-05
8.30938e-05
8.66437e-05
8.96993e-05
9.18299e-05
9.28263e-05
9.25255e-05
9.05848e-05
8.61787e-05
7.7228e-05
5.8013e-05
5.80114e-05
7.72619e-05
8.62974e-05
9.09039e-05
9.32516e-05
9.42802e-05
9.44234e-05
9.38192e-05
9.24247e-05
9.01505e-05
8.70284e-05
8.33889e-05
8.00676e-05
7.82928e-05
7.75712e-05
7.73165e-05
7.72296e-05
7.7199e-05
7.7198e-05
7.72274e-05
7.73137e-05
7.75675e-05
7.82876e-05
8.00592e-05
8.33695e-05
8.698e-05
9.00147e-05
9.2072e-05
9.29863e-05
9.26189e-05
9.06334e-05
8.62007e-05
7.72348e-05
5.80115e-05
5.801e-05
7.72617e-05
8.62992e-05
9.09088e-05
9.32624e-05
9.43016e-05
9.44621e-05
9.38821e-05
9.25151e-05
9.02623e-05
8.71427e-05
8.34815e-05
8.01265e-05
7.8328e-05
7.75939e-05
7.73336e-05
7.72437e-05
7.72102e-05
7.7209e-05
7.72412e-05
7.73306e-05
7.75901e-05
7.83226e-05
8.01181e-05
8.34622e-05
8.70942e-05
9.01262e-05
9.21619e-05
9.30485e-05
9.26568e-05
9.06538e-05
8.62101e-05
7.72374e-05
5.80097e-05
5.80088e-05
7.72614e-05
8.62995e-05
9.09094e-05
9.32633e-05
9.43029e-05
9.44638e-05
9.38843e-05
9.25178e-05
9.02656e-05
8.71464e-05
8.34853e-05
8.01293e-05
7.83297e-05
7.75946e-05
7.73334e-05
7.72424e-05
7.72072e-05
7.72057e-05
7.72397e-05
7.73303e-05
7.75907e-05
7.83243e-05
8.01209e-05
8.34661e-05
8.70981e-05
9.01298e-05
9.2165e-05
9.30509e-05
9.26586e-05
9.0655e-05
8.62108e-05
7.72372e-05
5.80079e-05
5.80087e-05
7.72612e-05
8.62983e-05
9.09057e-05
9.32543e-05
9.4284e-05
9.44285e-05
9.38259e-05
9.24331e-05
9.01607e-05
8.70402e-05
8.34009e-05
8.00764e-05
7.82984e-05
7.75737e-05
7.73163e-05
7.72262e-05
7.71912e-05
7.71895e-05
7.72234e-05
7.7313e-05
7.75697e-05
7.8293e-05
8.00682e-05
8.33823e-05
8.69926e-05
9.00259e-05
9.20813e-05
9.29936e-05
9.26245e-05
9.06373e-05
8.6203e-05
7.72346e-05
5.80074e-05
5.80097e-05
7.7261e-05
8.6295e-05
9.08961e-05
9.32316e-05
9.42361e-05
9.43371e-05
9.36694e-05
9.21965e-05
8.9853e-05
8.67137e-05
8.3136e-05
7.99085e-05
7.8199e-05
7.75081e-05
7.72636e-05
7.7178e-05
7.71455e-05
7.7144e-05
7.71751e-05
7.72603e-05
7.75043e-05
7.81939e-05
7.99009e-05
8.31184e-05
8.66674e-05
8.97198e-05
9.18465e-05
9.2839e-05
9.25349e-05
9.05914e-05
8.61826e-05
7.72282e-05
5.80084e-05
5.80109e-05
7.72604e-05
8.62888e-05
9.08783e-05
9.31889e-05
9.41434e-05
9.4153e-05
9.3337e-05
9.16588e-05
8.90999e-05
8.58648e-05
8.24453e-05
7.94761e-05
7.79476e-05
7.7344e-05
7.71328e-05
7.70581e-05
7.70306e-05
7.70294e-05
7.70555e-05
7.71297e-05
7.73405e-05
7.79432e-05
7.94696e-05
8.24301e-05
8.5821e-05
8.89694e-05
9.13112e-05
9.25085e-05
9.23526e-05
9.05008e-05
8.6143e-05
7.72154e-05
5.80089e-05
5.80121e-05
7.72589e-05
8.62791e-05
9.08507e-05
9.31216e-05
9.39921e-05
9.38364e-05
9.27215e-05
9.05631e-05
8.73848e-05
8.37502e-05
8.07948e-05
7.84959e-05
7.74051e-05
7.69966e-05
7.68597e-05
7.68083e-05
7.67883e-05
7.67875e-05
7.68063e-05
7.6857e-05
7.69935e-05
7.74014e-05
7.84912e-05
8.07846e-05
8.37108e-05
8.72584e-05
9.02173e-05
9.1893e-05
9.20356e-05
9.03503e-05
8.60785e-05
7.71939e-05
5.80082e-05
5.80129e-05
7.72564e-05
8.62662e-05
9.08151e-05
9.30342e-05
9.37886e-05
9.3382e-05
9.17456e-05
8.85602e-05
8.36125e-05
7.83125e-05
7.70602e-05
7.65621e-05
7.64278e-05
7.63793e-05
7.63862e-05
7.63773e-05
7.63675e-05
7.63669e-05
7.63755e-05
7.63833e-05
7.6375e-05
7.64223e-05
7.65572e-05
7.70562e-05
7.8282e-05
8.34925e-05
8.82128e-05
9.09117e-05
9.15763e-05
9.01449e-05
8.59932e-05
7.71653e-05
5.80061e-05
5.80134e-05
7.72527e-05
8.62512e-05
9.07778e-05
9.29471e-05
9.35845e-05
9.28955e-05
9.05543e-05
8.55228e-05
7.56876e-05
6.32348e-05
6.92187e-05
7.34667e-05
7.50337e-05
7.54725e-05
7.56827e-05
7.57326e-05
7.57363e-05
7.57355e-05
7.57298e-05
7.56762e-05
7.54587e-05
7.50106e-05
7.34405e-05
6.92142e-05
6.32158e-05
7.55803e-05
8.51626e-05
8.9704e-05
9.10787e-05
8.99372e-05
8.59095e-05
7.71375e-05
5.80038e-05
5.80132e-05
7.7245e-05
8.62316e-05
9.07426e-05
9.28868e-05
9.34695e-05
9.26314e-05
8.9804e-05
8.28713e-05
6.47143e-05
6.09624e-05
7.07683e-05
7.36702e-05
7.4455e-05
7.46902e-05
7.47517e-05
7.47632e-05
7.47609e-05
7.47426e-05
7.46665e-05
7.44e-05
7.35625e-05
7.06043e-05
6.08381e-05
6.46042e-05
8.24637e-05
8.89191e-05
9.08002e-05
8.98235e-05
8.58611e-05
7.71211e-05
5.80026e-05
5.80106e-05
7.72224e-05
8.619e-05
9.06914e-05
9.28485e-05
9.34954e-05
9.28489e-05
9.05986e-05
8.57232e-05
7.61402e-05
6.3679e-05
7.05654e-05
7.48569e-05
7.6196e-05
7.65222e-05
7.66158e-05
7.66435e-05
7.66487e-05
7.66442e-05
7.66237e-05
7.65572e-05
7.63683e-05
7.58583e-05
7.42657e-05
6.99363e-05
6.3372e-05
7.57331e-05
8.51731e-05
8.9654e-05
9.10052e-05
8.98654e-05
8.58561e-05
7.71122e-05
5.80022e-05
5.79995e-05
7.71534e-05
8.60742e-05
9.05522e-05
9.27334e-05
9.35012e-05
9.31843e-05
9.17483e-05
8.89182e-05
8.4527e-05
7.99085e-05
7.94729e-05
7.92762e-05
7.8667e-05
7.82721e-05
7.81133e-05
7.80621e-05
7.80464e-05
7.80393e-05
7.80294e-05
7.80079e-05
7.79721e-05
7.79413e-05
7.7912e-05
7.80064e-05
7.87281e-05
8.36439e-05
8.8141e-05
9.07183e-05
9.1336e-05
8.99157e-05
8.58184e-05
7.70724e-05
5.79955e-05
5.79632e-05
7.69611e-05
8.57666e-05
9.01732e-05
9.23479e-05
9.32163e-05
9.31891e-05
9.2384e-05
9.07741e-05
8.84128e-05
8.57777e-05
8.37691e-05
8.17439e-05
7.97963e-05
7.88171e-05
7.84478e-05
7.83297e-05
7.82958e-05
7.82869e-05
7.82871e-05
7.83035e-05
7.83835e-05
7.86809e-05
7.95539e-05
8.14992e-05
8.39747e-05
8.71433e-05
8.98043e-05
9.12959e-05
9.13738e-05
8.97329e-05
8.55951e-05
7.69113e-05
5.79633e-05
5.78592e-05
7.64769e-05
8.50311e-05
8.9273e-05
9.13717e-05
9.22739e-05
9.24316e-05
9.20255e-05
9.10893e-05
8.96299e-05
8.77406e-05
8.55879e-05
8.31424e-05
8.08263e-05
7.96486e-05
7.91942e-05
7.90456e-05
7.90029e-05
7.89932e-05
7.89987e-05
7.90341e-05
7.91682e-05
7.95998e-05
8.07608e-05
8.31253e-05
8.57803e-05
8.82573e-05
9.00838e-05
9.09736e-05
9.07296e-05
8.89939e-05
8.493e-05
7.64527e-05
5.78625e-05
5.75855e-05
7.53523e-05
8.34138e-05
8.73423e-05
8.92646e-05
9.01163e-05
9.03556e-05
9.01818e-05
8.96429e-05
8.87166e-05
8.7378e-05
8.56488e-05
8.36416e-05
8.17734e-05
8.07403e-05
8.03111e-05
8.01614e-05
8.01175e-05
8.01084e-05
8.01154e-05
8.01571e-05
8.03022e-05
8.0724e-05
8.17559e-05
8.36556e-05
8.57427e-05
8.75517e-05
8.87863e-05
8.92836e-05
8.88737e-05
8.71847e-05
8.33646e-05
7.53461e-05
5.75909e-05
5.69163e-05
7.28754e-05
8.0027e-05
8.34186e-05
8.50341e-05
8.57474e-05
8.59847e-05
8.59347e-05
8.56482e-05
8.51019e-05
8.42528e-05
8.30972e-05
8.1748e-05
8.05113e-05
7.97799e-05
7.94518e-05
7.93316e-05
7.92946e-05
7.92867e-05
7.92939e-05
7.93299e-05
7.94483e-05
7.97745e-05
8.05078e-05
8.17576e-05
8.31325e-05
8.42953e-05
8.50472e-05
8.52767e-05
8.48303e-05
8.33476e-05
8.0013e-05
7.28803e-05
5.69226e-05
5.54137e-05
6.74524e-05
7.28802e-05
7.53627e-05
7.6491e-05
7.69713e-05
7.71398e-05
7.71429e-05
7.70216e-05
7.67612e-05
7.63267e-05
7.57091e-05
7.49766e-05
7.43012e-05
7.38834e-05
7.36861e-05
7.36101e-05
7.35854e-05
7.35801e-05
7.35856e-05
7.36104e-05
7.36861e-05
7.3883e-05
7.43018e-05
7.49815e-05
7.57209e-05
7.63314e-05
7.67028e-05
7.677e-05
7.64165e-05
7.53465e-05
7.28856e-05
6.74618e-05
5.54196e-05
5.27649e-05
5.54164e-05
5.6924e-05
5.75986e-05
5.78777e-05
5.79869e-05
5.80267e-05
5.80359e-05
5.8024e-05
5.79868e-05
5.79205e-05
5.78158e-05
5.76819e-05
5.75516e-05
5.74689e-05
5.74277e-05
5.74091e-05
5.74002e-05
5.7397e-05
5.74007e-05
5.74096e-05
5.74278e-05
5.74686e-05
5.75508e-05
5.76809e-05
5.78151e-05
5.79182e-05
5.79753e-05
5.79752e-05
5.78839e-05
5.76103e-05
5.6935e-05
5.54241e-05
5.27692e-05
8.16478e-05
9.19912e-05
9.75672e-05
0.0001002
0.000101388
0.000101893
0.000102091
0.000102161
0.000102181
0.000102181
0.000102176
0.00010217
0.000102165
0.000102161
0.000102159
0.000102157
0.000102156
0.000102155
0.000102155
0.000102155
0.000102157
0.000102158
0.00010216
0.000102163
0.000102166
0.000102165
0.000102148
0.000102081
0.000101887
0.000101385
0.000100199
9.75675e-05
9.19921e-05
8.16491e-05
9.19915e-05
0.000266517
0.000327831
0.000355702
0.000369198
0.000375544
0.000378304
0.000379353
0.000379637
0.000379602
0.000379456
0.000379295
0.000379164
0.000379075
0.000379018
0.000378981
0.000378957
0.000378945
0.000378945
0.000378957
0.000378981
0.000379018
0.00037907
0.000379146
0.000379231
0.000379256
0.000379015
0.000378044
0.000375367
0.000369088
0.000355639
0.000327795
0.0002665
9.19926e-05
9.75698e-05
0.000327855
0.00041414
0.000454882
0.000475377
0.000485429
0.000489974
0.000491716
0.000492107
0.000491896
0.000491475
0.000491056
0.000490737
0.000490538
0.000490426
0.000490357
0.000490312
0.00049029
0.00049029
0.000490313
0.000490358
0.000490425
0.000490529
0.000490699
0.000490926
0.000491078
0.000490785
0.00048925
0.00048494
0.000475089
0.000454733
0.000414073
0.000327835
9.75721e-05
0.000100205
0.000355741
0.0004549
0.000503062
0.000527949
0.000540447
0.000546124
0.000548116
0.000548191
0.000547357
0.000546231
0.000545202
0.000544455
0.000544015
0.000543783
0.000543638
0.000543541
0.000543492
0.000543493
0.000543543
0.00054364
0.000543783
0.000544002
0.000544398
0.000545008
0.000545654
0.000545793
0.000544303
0.000539211
0.000527217
0.000502684
0.000454736
0.000355692
0.000100207
0.000101394
0.000369245
0.00047541
0.000527969
0.000555573
0.000569508
0.00057558
0.000577106
0.000576048
0.000573681
0.000570984
0.000568687
0.000567094
0.000566218
0.000565792
0.0005655
0.000565291
0.000565184
0.000565185
0.000565294
0.000565503
0.000565792
0.000566202
0.000567022
0.000568444
0.000570268
0.000571769
0.000571384
0.000566651
0.000553871
0.000527081
0.000475015
0.000369115
0.000101395
0.0001019
0.000375599
0.00048548
0.000540502
0.000569563
0.000583979
0.000589514
0.000589436
0.000585773
0.000580151
0.000574285
0.000569699
0.0005667
0.000565218
0.000564598
0.000564063
0.000563646
0.000563433
0.000563434
0.000563649
0.000564067
0.000564599
0.000565202
0.000566622
0.000569431
0.000573485
0.000578013
0.000580588
0.000577945
0.000565975
0.000538619
0.000484624
0.000375299
0.000101895
0.0001021
0.000378368
0.000490062
0.000546265
0.000575794
0.00058975
0.000593572
0.000590161
0.000581348
0.000569229
0.000557251
0.000549409
0.000544739
0.000542844
0.000542342
0.000541451
0.000540694
0.000540321
0.000540323
0.000540698
0.000541456
0.000542345
0.000542831
0.000544667
0.000549144
0.00055643
0.000566981
0.00057586
0.000578037
0.000568925
0.000542669
0.000488408
0.000377767
0.00010208
0.00010217
0.000379439
0.000491883
0.000548449
0.000577709
0.000590332
0.000591075
0.000581871
0.000563516
0.000538156
0.000513482
0.00050438
0.000500074
0.000499241
0.0004999
0.000498571
0.000497407
0.000496879
0.00049688
0.00049741
0.000498576
0.000499905
0.000499235
0.000500019
0.000504153
0.00051271
0.000535903
0.000557879
0.000569378
0.000565783
0.000542294
0.000489047
0.000378382
0.000102128
0.000102191
0.000379769
0.000492429
0.000548909
0.000577451
0.000588117
0.000584518
0.000566436
0.000530839
0.000475156
0.000413295
0.000425088
0.000432876
0.000437659
0.000441365
0.000439858
0.000438604
0.000438105
0.000438106
0.000438607
0.000439863
0.000441372
0.000437661
0.000432851
0.000424948
0.000412699
0.000473022
0.000525146
0.000553707
0.000558827
0.00053954
0.000488141
0.000378148
0.000102118
0.000102195
0.000379817
0.000492485
0.000548733
0.000576492
0.000585161
0.000576835
0.00054737
0.000482346
0.000345927
0.000118764
0.000287932
0.00035041
0.000369401
0.000377128
0.000376781
0.000376301
0.000376131
0.000376132
0.000376303
0.000376786
0.000377137
0.000369414
0.00035043
0.000287966
0.000118681
0.000344221
0.000476678
0.00053446
0.000550869
0.000536261
0.000486842
0.000377666
0.000102092
0.000102194
0.000379794
0.000492451
0.000548568
0.000575904
0.000583463
0.000572239
0.000533956
0.000433195
0.000121662
0.000108408
0.000281956
0.000316915
0.000324502
0.000327774
0.000328805
0.00032903
0.000329031
0.000328807
0.000327779
0.000324511
0.000316932
0.000281996
0.000108414
0.000121341
0.000427741
0.000520955
0.000546128
0.000534403
0.000486087
0.000377351
0.000102075
0.000102192
0.000379781
0.000492497
0.000548707
0.00057623
0.000584286
0.000574715
0.000543072
0.000474789
0.000334832
0.00011543
0.000255209
0.00030314
0.000314371
0.000312083
0.000319684
0.000322292
0.000322788
0.000322787
0.000322291
0.000319684
0.000312076
0.000314362
0.000303126
0.000255179
0.000115332
0.00033307
0.000469083
0.0005301
0.000548642
0.000535226
0.000486368
0.000377395
0.00010208
0.000102192
0.000379799
0.000492637
0.000549109
0.000577221
0.000586646
0.000580396
0.000557408
0.000513629
0.000445531
0.000367467
0.000352609
0.000336639
0.000330484
0.00032714
0.000328789
0.000329556
0.000329706
0.000329705
0.000329553
0.000328783
0.000327125
0.000330455
0.000336574
0.00035243
0.000366856
0.000443382
0.000507881
0.000544533
0.000554436
0.000537664
0.000487376
0.000377729
0.000102099
0.000102192
0.000379831
0.000492811
0.000549591
0.000578374
0.000589222
0.000585924
0.000568998
0.000537438
0.000491609
0.000438676
0.000394836
0.000356775
0.000341059
0.000335576
0.000334418
0.000334188
0.000334127
0.000334127
0.000334185
0.000334413
0.000335562
0.000341027
0.000356697
0.000394617
0.000437948
0.000489364
0.000531689
0.000556191
0.00056005
0.000540305
0.000488543
0.000378141
0.000102122
0.000102192
0.000379863
0.000492964
0.000550006
0.000579336
0.000591264
0.000589963
0.000576487
0.000550369
0.00051163
0.000463431
0.00041282
0.000366821
0.00034659
0.000339418
0.000337271
0.000336698
0.000336567
0.000336567
0.000336697
0.000337267
0.000339407
0.00034656
0.000366743
0.000412598
0.000462672
0.00050935
0.000544612
0.000563702
0.000564125
0.000542371
0.000489495
0.000378487
0.000102139
0.000102191
0.000379884
0.000493071
0.000550293
0.000579987
0.000592593
0.000592444
0.00058072
0.000556906
0.000520493
0.000473189
0.00042037
0.000371414
0.000349239
0.000341193
0.000338674
0.000337989
0.000337839
0.000337839
0.000337989
0.000338672
0.000341183
0.00034921
0.00037134
0.000420167
0.000472418
0.000518193
0.000551134
0.000567929
0.000566606
0.000543695
0.000490121
0.000378714
0.000102148
0.00010219
0.000379896
0.000493133
0.00055046
0.000580357
0.000593327
0.000593758
0.000582837
0.000559944
0.000524281
0.000477075
0.000423398
0.000373322
0.000350367
0.000341948
0.000339287
0.000338564
0.000338409
0.00033841
0.000338565
0.000339286
0.000341939
0.000350339
0.000373248
0.00042319
0.000476297
0.000521968
0.000554158
0.000570033
0.000567907
0.000544412
0.000490465
0.000378838
0.000102152
0.000102189
0.0003799
0.00049316
0.000550534
0.000580519
0.000593642
0.000594305
0.000583687
0.00056111
0.000525661
0.000478427
0.000424439
0.000373986
0.000350761
0.000342209
0.0003395
0.000338765
0.00033861
0.000338611
0.000338766
0.000339499
0.000342201
0.000350732
0.000373912
0.00042423
0.000477646
0.000523342
0.000555315
0.000570874
0.000568445
0.000544715
0.000490612
0.00037889
0.000102153
0.000102188
0.0003799
0.000493162
0.000550537
0.000580525
0.000593649
0.000594315
0.000583699
0.000561125
0.000525677
0.000478443
0.000424454
0.000374005
0.000350773
0.000342216
0.000339505
0.000338769
0.000338615
0.000338616
0.000338771
0.000339504
0.000342207
0.000350745
0.000373932
0.000424245
0.000477662
0.000523359
0.000555331
0.000570887
0.000568454
0.000544722
0.000490615
0.00037889
0.000102152
0.000102188
0.000379895
0.000493137
0.000550469
0.000580372
0.000593349
0.000593787
0.000582874
0.000559989
0.000524331
0.000477126
0.000423448
0.000373387
0.00035041
0.000341974
0.000339308
0.000338584
0.000338432
0.000338433
0.000338586
0.000339308
0.000341967
0.000350384
0.000373316
0.000423242
0.00047635
0.000522021
0.000554205
0.000570071
0.000567936
0.000544432
0.000490476
0.000378839
0.00010215
0.000102188
0.000379882
0.000493077
0.000550309
0.000580012
0.000592629
0.000592492
0.000580783
0.000556985
0.000520586
0.000473289
0.000420472
0.000371543
0.000349333
0.000341261
0.000338733
0.000338049
0.000337903
0.000337904
0.000338052
0.000338736
0.000341257
0.000349311
0.000371478
0.000420272
0.000472525
0.000518293
0.000551218
0.000567995
0.000566654
0.000543727
0.000490138
0.000378716
0.000102145
0.000102189
0.000379859
0.000492971
0.000550024
0.000579366
0.000591308
0.000590026
0.000576575
0.000550489
0.000511786
0.000463614
0.000413016
0.000367046
0.000346763
0.000339558
0.0003374
0.00033683
0.000336705
0.000336707
0.000336836
0.000337407
0.000339561
0.000346751
0.000366993
0.000412833
0.000462873
0.000509519
0.000544738
0.00056379
0.000564186
0.000542411
0.000489516
0.000378488
0.000102135
0.000102189
0.000379823
0.000492812
0.000549602
0.000578395
0.000589259
0.000585985
0.000569097
0.000537598
0.000491857
0.000439016
0.000395231
0.000357114
0.000341304
0.000335784
0.000334606
0.00033438
0.000334329
0.000334332
0.00033439
0.00033462
0.000335795
0.000341301
0.000357075
0.000395069
0.000438327
0.000489635
0.000531846
0.000556274
0.000560096
0.000540332
0.000488555
0.000378135
0.000102118
0.000102188
0.000379775
0.00049261
0.000549078
0.000577189
0.000586621
0.000580393
0.000557457
0.000513793
0.000445907
0.000368062
0.000353195
0.000336904
0.000330537
0.000327125
0.000328715
0.000329484
0.000329647
0.000329651
0.000329497
0.00032873
0.000327126
0.000330512
0.000336858
0.000353111
0.000367531
0.000443798
0.00050799
0.000544502
0.000554377
0.000537618
0.000487345
0.000377699
0.000102095
0.000102186
0.000379709
0.000492377
0.000548539
0.00057602
0.000584048
0.000574468
0.000542866
0.000474767
0.000335317
0.00011555
0.000255482
0.000302185
0.000312799
0.00031018
0.000317661
0.000320277
0.000320789
0.00032079
0.000320273
0.00031763
0.000310057
0.000312559
0.000301899
0.000255547
0.000115457
0.000333644
0.000468808
0.000529617
0.000548231
0.000534947
0.000486199
0.000377297
0.000102072
0.00010218
0.000379579
0.00049206
0.000548009
0.000575197
0.000582628
0.000571284
0.000532906
0.000432242
0.000121482
0.000107434
0.00027566
0.000308602
0.000314939
0.000317927
0.000318959
0.000319208
0.000319193
0.000318888
0.000317704
0.000314354
0.000307398
0.000273896
0.000106975
0.00012095
0.00042581
0.000519102
0.00054477
0.000533511
0.000485549
0.000377069
0.000102058
0.000102159
0.000379209
0.000491374
0.000547172
0.000574543
0.000582859
0.000574137
0.000544124
0.0004784
0.000341717
0.000117251
0.000273018
0.000328707
0.000341423
0.000344918
0.000344172
0.000343902
0.000343862
0.000343818
0.000343696
0.000343516
0.000343131
0.000337294
0.000321272
0.000265508
0.000115981
0.000336065
0.000469455
0.000529262
0.000547364
0.000533967
0.00048542
0.000376924
0.00010205
0.00010209
0.000378149
0.000489564
0.000545002
0.000572687
0.000582589
0.0005781
0.000558612
0.000520494
0.000460312
0.000390891
0.00038861
0.000381049
0.000368973
0.000363024
0.000360316
0.000359439
0.000359202
0.000359125
0.000359065
0.000359064
0.000359317
0.000359451
0.000361723
0.000367963
0.000374429
0.000446754
0.000507819
0.000542322
0.000551206
0.000534367
0.00048476
0.00037632
0.000102007
0.000101894
0.000375419
0.000485091
0.000539507
0.0005671
0.000578333
0.000577557
0.000565982
0.00054323
0.000509679
0.000470856
0.000439991
0.000407098
0.000374471
0.00036077
0.000356017
0.000354561
0.000354157
0.000354058
0.000354071
0.000354314
0.000355423
0.000359392
0.000372355
0.000405651
0.000443484
0.000489658
0.000527394
0.000548721
0.000551129
0.000531625
0.000481574
0.0003741
0.00010184
0.000101391
0.000369114
0.000475156
0.000527315
0.000553915
0.000565642
0.000567328
0.000560897
0.000546671
0.000524609
0.000495684
0.000462169
0.0004238
0.000386219
0.000369971
0.000364222
0.000362404
0.000361882
0.000361766
0.00036184
0.000362287
0.000363967
0.000369507
0.000385767
0.000424357
0.000465378
0.000502767
0.000530209
0.000544162
0.000542572
0.000521855
0.000472788
0.000368243
0.00010136
0.000100204
0.00035565
0.000454764
0.000502707
0.000526998
0.000538131
0.000541014
0.000537792
0.000528952
0.000514144
0.000493031
0.000466085
0.000435254
0.000406866
0.000392663
0.000387032
0.000385085
0.000384476
0.000384339
0.000384465
0.000385046
0.000386951
0.00039256
0.000406889
0.000435816
0.000467707
0.000495483
0.000514808
0.000523427
0.000519493
0.000499229
0.000453314
0.000355127
0.00010019
9.75715e-05
0.000327796
0.000414087
0.000454741
0.00047494
0.000484262
0.000487235
0.000485908
0.000480817
0.00047164
0.000457886
0.000439747
0.000419121
0.000400619
0.000390229
0.000385664
0.000383941
0.000383368
0.000383239
0.000383373
0.000383948
0.000385668
0.000390245
0.000400717
0.000419454
0.000440435
0.000458549
0.000470726
0.0004753
0.000470546
0.000452799
0.000413316
0.000327518
9.75678e-05
9.19948e-05
0.000266492
0.000327835
0.000355692
0.000369084
0.000375137
0.000377214
0.00037685
0.000374478
0.000369911
0.000362797
0.0003532
0.000342249
0.000332432
0.000326494
0.000323686
0.00032256
0.000322167
0.000322079
0.000322181
0.000322586
0.000323724
0.000326549
0.000332532
0.000342441
0.000353497
0.000362944
0.000369078
0.000370893
0.000367104
0.000354867
0.000327524
0.000266372
9.19965e-05
8.16512e-05
9.19947e-05
9.75759e-05
0.000100214
0.000101403
0.000101901
0.000102072
0.000102075
0.000101952
0.000101689
0.00010125
0.000100624
9.98797e-05
9.91952e-05
9.87685e-05
9.85641e-05
9.84818e-05
9.84527e-05
9.84459e-05
9.84536e-05
9.84833e-05
9.85658e-05
9.87704e-05
9.91983e-05
9.98868e-05
0.000100636
0.000101253
0.000101627
0.000101692
0.000101321
0.000100188
9.75718e-05
9.19961e-05
8.16559e-05
8.5413e-05
9.97804e-05
0.000107461
0.000111186
0.000112944
0.00011373
0.000114055
0.000114175
0.000114208
0.000114208
0.000114195
0.000114181
0.000114169
0.000114162
0.000114157
0.000114153
0.000114151
0.00011415
0.00011415
0.000114151
0.000114153
0.000114156
0.000114161
0.000114167
0.000114174
0.000114174
0.000114145
0.000114033
0.000113715
0.000112935
0.000111182
0.000107459
9.978e-05
8.54142e-05
9.97804e-05
0.000348098
0.000442844
0.00048719
0.000509253
0.000519968
0.000524795
0.000526687
0.0005272
0.000527108
0.000526792
0.000526442
0.000526154
0.000525954
0.000525826
0.000525741
0.000525688
0.000525661
0.00052566
0.000525687
0.00052574
0.000525821
0.000525939
0.000526109
0.000526301
0.000526376
0.000525954
0.000524221
0.000519566
0.000508996
0.000487034
0.000442751
0.00034805
9.97798e-05
0.000107463
0.000442883
0.000584253
0.00065327
0.000688749
0.00070655
0.000714797
0.000718017
0.000718716
0.000718241
0.000717332
0.000716409
0.000715686
0.000715221
0.000714951
0.000714782
0.000714676
0.000714623
0.000714623
0.000714676
0.000714782
0.000714945
0.000715195
0.000715594
0.000716121
0.000716501
0.000716022
0.000713232
0.000705472
0.00068809
0.000652907
0.000584074
0.000442814
0.000107462
0.000111191
0.000487256
0.000653304
0.000736791
0.000780777
0.000803268
0.000813667
0.000817346
0.000817407
0.000815673
0.000813307
0.000811079
0.000809408
0.000808394
0.000807844
0.000807494
0.000807266
0.000807152
0.000807153
0.000807267
0.000807495
0.000807837
0.000808356
0.000809272
0.000810653
0.000812103
0.000812541
0.00080989
0.000800664
0.000779191
0.000735936
0.000652902
0.000487111
0.000111189
0.000112951
0.000509337
0.000688815
0.000780819
0.000830023
0.000855245
0.000866379
0.000869151