/*--------------------------------*- C++ -*----------------------------------*\
| =========                 |                                                 |
| \\      /  F ield         | OpenFOAM: The Open Source CFD Toolbox           |
|  \\    /   O peration     | Version:  2112                                  |
|   \\  /    A nd           | Website:  www.openfoam.com                      |
|    \\/     M anipulation  |                                                 |
\*---------------------------------------------------------------------------*/
FoamFile
{
    version     2.0;
    format      ascii;
    arch        "LSB;label=32;scalar=64";
    class       volScalarField;
    location    "2.9";
    object      p;
}
// * * * * * * * * * * * * * * * * * * * * * * * * * * * * * * * * * * * * * //

dimensions      [0 2 -2 0 0 0 0];

internalField   nonuniform List<scalar> 
64906
(
-6.15098e-06
-6.13155e-06
-6.12061e-06
-6.12095e-06
-6.14562e-06
-6.19551e-06
-6.27185e-06
-6.37536e-06
-6.50623e-06
-6.6693e-06
-6.8431e-06
-7.01125e-06
-7.1726e-06
-7.32168e-06
-7.45085e-06
-7.5563e-06
-7.63491e-06
-7.68546e-06
-7.70737e-06
-7.70077e-06
-7.6666e-06
-7.60637e-06
-7.52354e-06
-7.42212e-06
-7.30989e-06
-7.19151e-06
-7.06269e-06
-6.95961e-06
-6.88657e-06
-6.84084e-06
-6.82135e-06
-6.82986e-06
-6.84406e-06
-6.8644e-06
-6.09161e-06
-6.01314e-06
-5.95052e-06
-5.91401e-06
-5.90413e-06
-5.9207e-06
-5.96148e-06
-6.02381e-06
-6.10279e-06
-6.18865e-06
-6.286e-06
-6.39552e-06
-6.49841e-06
-6.59278e-06
-6.67342e-06
-6.74019e-06
-6.79152e-06
-6.82751e-06
-6.84796e-06
-6.85302e-06
-6.84316e-06
-6.81855e-06
-6.78102e-06
-6.73086e-06
-6.67368e-06
-6.61208e-06
-6.57105e-06
-6.5334e-06
-6.51044e-06
-6.51026e-06
-6.53883e-06
-6.59535e-06
-6.6835e-06
-6.78264e-06
-6.06855e-06
-5.95049e-06
-5.83615e-06
-5.75231e-06
-5.70408e-06
-5.69007e-06
-5.70625e-06
-5.74922e-06
-5.8143e-06
-5.8984e-06
-5.99357e-06
-6.09779e-06
-6.1899e-06
-6.2711e-06
-6.33539e-06
-6.38728e-06
-6.4268e-06
-6.45599e-06
-6.47526e-06
-6.48473e-06
-6.48428e-06
-6.47211e-06
-6.44852e-06
-6.40925e-06
-6.361e-06
-6.30324e-06
-6.25937e-06
-6.22983e-06
-6.22821e-06
-6.26116e-06
-6.33683e-06
-6.45817e-06
-6.60708e-06
-6.76234e-06
-6.0813e-06
-5.92465e-06
-5.76991e-06
-5.6411e-06
-5.55985e-06
-5.52479e-06
-5.53246e-06
-5.58153e-06
-5.66942e-06
-5.79758e-06
-5.94965e-06
-6.12082e-06
-6.26254e-06
-6.37965e-06
-6.46284e-06
-6.52535e-06
-6.5692e-06
-6.59967e-06
-6.61789e-06
-6.62398e-06
-6.61706e-06
-6.59208e-06
-6.54747e-06
-6.47032e-06
-6.37112e-06
-6.24574e-06
-6.14612e-06
-6.07839e-06
-6.06471e-06
-6.10906e-06
-6.21857e-06
-6.39345e-06
-6.59974e-06
-6.80439e-06
-6.14471e-06
-5.95703e-06
-5.76778e-06
-5.60735e-06
-5.50703e-06
-5.46878e-06
-5.49276e-06
-5.58363e-06
-5.74487e-06
-5.98817e-06
-6.28779e-06
-6.63816e-06
-6.91619e-06
-7.136e-06
-7.28365e-06
-7.38994e-06
-7.45923e-06
-7.50176e-06
-7.51938e-06
-7.51217e-06
-7.4785e-06
-7.40826e-06
-7.29774e-06
-7.11652e-06
-6.88049e-06
-6.5761e-06
-6.3328e-06
-6.15701e-06
-6.08214e-06
-6.10341e-06
-6.22241e-06
-6.43159e-06
-6.68219e-06
-6.92854e-06
-6.26047e-06
-6.04369e-06
-5.82453e-06
-5.64359e-06
-5.53812e-06
-5.51506e-06
-5.58041e-06
-5.74887e-06
-6.03567e-06
-6.47391e-06
-7.03347e-06
-7.73049e-06
-8.25095e-06
-8.64842e-06
-8.90733e-06
-9.09215e-06
-9.20887e-06
-9.27493e-06
-9.29249e-06
-9.26153e-06
-9.18003e-06
-9.03049e-06
-8.80778e-06
-8.44767e-06
-7.96906e-06
-7.31788e-06
-6.82104e-06
-6.45804e-06
-6.2702e-06
-6.23301e-06
-6.33749e-06
-6.56435e-06
-6.85069e-06
-7.13772e-06
-6.42492e-06
-6.17474e-06
-5.93321e-06
-5.73745e-06
-5.63826e-06
-5.64649e-06
-5.7745e-06
-6.04945e-06
-6.50436e-06
-7.21541e-06
-8.14223e-06
-9.46926e-06
-1.03438e-05
-1.09875e-05
-1.13939e-05
-1.16852e-05
-1.18666e-05
-1.19656e-05
-1.19837e-05
-1.19208e-05
-1.17752e-05
-1.15191e-05
-1.11482e-05
-1.05402e-05
-9.70764e-06
-8.42323e-06
-7.57098e-06
-6.94249e-06
-6.59847e-06
-6.47388e-06
-6.54431e-06
-6.77632e-06
-7.09734e-06
-7.42937e-06
-6.63288e-06
-6.34493e-06
-6.08083e-06
-5.87702e-06
-5.79594e-06
-5.85175e-06
-6.06143e-06
-6.45984e-06
-7.1008e-06
-8.10112e-06
-9.43127e-06
-1.19339e-05
-1.32179e-05
-1.41688e-05
-1.47585e-05
-1.51892e-05
-1.54567e-05
-1.56001e-05
-1.56194e-05
-1.55143e-05
-1.52845e-05
-1.48898e-05
-1.4335e-05
-1.34169e-05
-1.21749e-05
-9.70203e-06
-8.47398e-06
-7.55915e-06
-7.0385e-06
-6.80878e-06
-6.82921e-06
-7.0603e-06
-7.40571e-06
-7.79668e-06
-6.87653e-06
-6.54409e-06
-6.25574e-06
-6.04858e-06
-5.99617e-06
-6.11395e-06
-6.41865e-06
-6.94361e-06
-7.71449e-06
-8.94307e-06
-1.06422e-05
-1.53318e-05
-1.67389e-05
-1.79876e-05
-1.8763e-05
-1.93286e-05
-1.96805e-05
-1.98687e-05
-1.98899e-05
-1.97435e-05
-1.94322e-05
-1.89043e-05
-1.81639e-05
-1.69413e-05
-1.55783e-05
-1.08972e-05
-9.37254e-06
-8.20112e-06
-7.55284e-06
-7.21183e-06
-7.17013e-06
-7.39168e-06
-7.76528e-06
-8.23027e-06
-7.14965e-06
-6.76386e-06
-6.45145e-06
-6.24981e-06
-6.24656e-06
-6.45929e-06
-6.90556e-06
-7.58738e-06
-8.56819e-06
-1.09729e-05
-8.95547e-06
-1.89232e-05
-2.03819e-05
-2.21744e-05
-2.32246e-05
-2.40032e-05
-2.44895e-05
-2.47441e-05
-2.47674e-05
-2.4559e-05
-2.41178e-05
-2.33806e-05
-2.23677e-05
-2.05967e-05
-1.92111e-05
-9.10391e-06
-1.13912e-05
-9.0395e-06
-8.21477e-06
-7.73259e-06
-7.58372e-06
-7.7692e-06
-8.16392e-06
-8.72254e-06
-7.45627e-06
-6.99156e-06
-6.6521e-06
-6.45927e-06
-6.51739e-06
-6.84873e-06
-7.4387e-06
-8.14072e-06
-8.82934e-06
-6.60998e-06
-2.79638e-05
-2.52595e-05
-2.6364e-05
-2.73748e-05
-2.82458e-05
-2.8824e-05
-2.91196e-05
-2.91451e-05
-2.89e-05
-2.83712e-05
-2.75459e-05
-2.6573e-05
-2.5484e-05
-2.81057e-05
-7.37148e-06
-9.45499e-06
-8.82051e-06
-8.2965e-06
-8.02985e-06
-8.15875e-06
-8.56596e-06
-9.25734e-06
-7.78094e-06
-7.21026e-06
-6.85512e-06
-6.68409e-06
-6.84001e-06
-7.39758e-06
-8.47689e-06
-1.02501e-05
-1.31798e-05
-1.69582e-05
-2.54302e-05
-2.44284e-05
-2.74462e-05
-2.97255e-05
-3.14807e-05
-3.27881e-05
-3.35976e-05
-3.39872e-05
-3.40145e-05
-3.36799e-05
-3.29262e-05
-3.16759e-05
-2.99804e-05
-2.7767e-05
-2.48132e-05
-2.59745e-05
-1.74237e-05
-1.36951e-05
-1.08691e-05
-9.31276e-06
-8.60752e-06
-8.5888e-06
-8.99312e-06
-9.79784e-06
-8.06709e-06
-7.42893e-06
-7.04218e-06
-6.87543e-06
-7.0902e-06
-7.77659e-06
-9.06634e-06
-1.10849e-05
-1.3987e-05
-1.74486e-05
-2.31379e-05
-2.63273e-05
-2.93351e-05
-3.19545e-05
-3.40554e-05
-3.55408e-05
-3.64578e-05
-3.68976e-05
-3.69259e-05
-3.65431e-05
-3.56844e-05
-3.42586e-05
-3.22199e-05
-2.96574e-05
-2.66918e-05
-2.3587e-05
-1.7928e-05
-1.4485e-05
-1.1682e-05
-9.89877e-06
-9.02598e-06
-8.95197e-06
-9.39259e-06
-1.03401e-05
-8.32554e-06
-7.63091e-06
-7.21247e-06
-7.0415e-06
-7.29229e-06
-8.0608e-06
-9.48021e-06
-1.16694e-05
-1.4763e-05
-1.86012e-05
-2.33693e-05
-2.71472e-05
-3.06732e-05
-3.35871e-05
-3.58816e-05
-3.74433e-05
-3.83949e-05
-3.88448e-05
-3.88733e-05
-3.8481e-05
-3.75885e-05
-3.60878e-05
-3.3857e-05
-3.10012e-05
-2.75313e-05
-2.37947e-05
-1.90383e-05
-1.52295e-05
-1.22488e-05
-1.03178e-05
-9.3571e-06
-9.26696e-06
-9.7507e-06
-1.08084e-05
-8.54978e-06
-7.80593e-06
-7.35592e-06
-7.16991e-06
-7.42914e-06
-8.22854e-06
-9.69444e-06
-1.19387e-05
-1.50675e-05
-1.89475e-05
-2.34428e-05
-2.75826e-05
-3.14367e-05
-3.44818e-05
-3.68404e-05
-3.84067e-05
-3.93503e-05
-3.97911e-05
-3.98196e-05
-3.94361e-05
-3.85513e-05
-3.70454e-05
-3.47495e-05
-3.176e-05
-2.79595e-05
-2.38474e-05
-1.93656e-05
-1.5519e-05
-1.25138e-05
-1.05493e-05
-9.57902e-06
-9.51318e-06
-1.00506e-05
-1.12001e-05
-8.73501e-06
-7.95142e-06
-7.47411e-06
-7.27077e-06
-7.52707e-06
-8.33594e-06
-9.81773e-06
-1.20813e-05
-1.52193e-05
-1.91206e-05
-2.35829e-05
-2.79098e-05
-3.19176e-05
-3.50307e-05
-3.74116e-05
-3.89615e-05
-3.98841e-05
-4.03104e-05
-4.03389e-05
-3.997e-05
-3.91061e-05
-3.7616e-05
-3.52969e-05
-3.22359e-05
-2.82736e-05
-2.39755e-05
-1.95287e-05
-1.56648e-05
-1.26605e-05
-1.06953e-05
-9.73965e-06
-9.70773e-06
-1.02942e-05
-1.15149e-05
-8.87751e-06
-8.06431e-06
-7.56551e-06
-7.34608e-06
-7.59469e-06
-8.40272e-06
-9.88702e-06
-1.21569e-05
-1.53014e-05
-1.92283e-05
-2.37156e-05
-2.81349e-05
-3.22408e-05
-3.53946e-05
-3.77842e-05
-3.93208e-05
-4.02281e-05
-4.06446e-05
-4.06736e-05
-4.03155e-05
-3.94674e-05
-3.79909e-05
-3.56634e-05
-3.25634e-05
-2.85105e-05
-2.4109e-05
-1.96348e-05
-1.57476e-05
-1.27446e-05
-1.07876e-05
-9.85221e-06
-9.85246e-06
-1.04783e-05
-1.17508e-05
-8.97596e-06
-8.14397e-06
-7.63136e-06
-7.4012e-06
-7.64437e-06
-8.45212e-06
-9.9401e-06
-1.22193e-05
-1.53787e-05
-1.93354e-05
-2.38606e-05
-2.83421e-05
-3.25087e-05
-3.56948e-05
-3.80976e-05
-3.96341e-05
-4.05379e-05
-4.09518e-05
-4.09818e-05
-4.06284e-05
-3.97855e-05
-3.83104e-05
-3.59706e-05
-3.28391e-05
-2.87263e-05
-2.4259e-05
-1.97453e-05
-1.58292e-05
-1.28162e-05
-1.08591e-05
-9.93457e-06
-9.95478e-06
-1.06053e-05
-1.19102e-05
-9.03006e-06
-8.19011e-06
-7.67193e-06
-7.43779e-06
-7.67978e-06
-8.49118e-06
-9.98742e-06
-1.22819e-05
-1.54644e-05
-1.94535e-05
-2.4017e-05
-2.85396e-05
-3.27429e-05
-3.59568e-05
-3.83789e-05
-3.99288e-05
-4.08411e-05
-4.12599e-05
-4.12917e-05
-4.09366e-05
-4.00881e-05
-3.86018e-05
-3.6244e-05
-3.30852e-05
-2.8935e-05
-2.44242e-05
-1.98705e-05
-1.59215e-05
-1.28869e-05
-1.09184e-05
-9.99161e-06
-1.00168e-05
-1.06763e-05
-1.19947e-05
-9.04034e-06
-8.2032e-06
-7.68767e-06
-7.45648e-06
-7.70349e-06
-8.52087e-06
-1.00299e-05
-1.2344e-05
-1.55565e-05
-1.95801e-05
-2.41838e-05
-2.87286e-05
-3.29455e-05
-3.61815e-05
-3.86273e-05
-4.02025e-05
-4.11343e-05
-4.1565e-05
-4.15991e-05
-4.12366e-05
-4.03726e-05
-3.88644e-05
-3.6485e-05
-3.33051e-05
-2.914e-05
-2.46042e-05
-2.00078e-05
-1.6022e-05
-1.29555e-05
-1.09652e-05
-1.00237e-05
-1.00394e-05
-1.06924e-05
-1.20061e-05
-9.00858e-06
-8.18469e-06
-7.67924e-06
-7.45579e-06
-7.70784e-06
-8.53149e-06
-1.0052e-05
-1.23864e-05
-1.56353e-05
-1.96985e-05
-2.43604e-05
-2.89077e-05
-3.31053e-05
-3.63516e-05
-3.88207e-05
-4.04307e-05
-4.13913e-05
-4.18404e-05
-4.18777e-05
-4.15034e-05
-4.06164e-05
-3.90786e-05
-3.66793e-05
-3.34906e-05
-2.93428e-05
-2.48007e-05
-2.01435e-05
-1.61153e-05
-1.30084e-05
-1.09911e-05
-1.00275e-05
-1.00229e-05
-1.06558e-05
-1.19458e-05
-8.93747e-06
-8.1363e-06
-7.64653e-06
-7.43195e-06
-7.68411e-06
-8.50177e-06
-1.00168e-05
-1.23526e-05
-1.56286e-05
-1.97367e-05
-2.45297e-05
-2.90404e-05
-3.31572e-05
-3.63749e-05
-3.8844e-05
-4.04854e-05
-4.14772e-05
-4.19482e-05
-4.19901e-05
-4.16029e-05
-4.06932e-05
-3.91321e-05
-3.67388e-05
-3.35823e-05
-2.95106e-05
-2.49985e-05
-2.02094e-05
-1.61339e-05
-1.29945e-05
-1.09646e-05
-9.98779e-06
-9.96267e-06
-1.05671e-05
-1.18151e-05
-8.83245e-06
-8.06261e-06
-7.59314e-06
-7.38606e-06
-7.62825e-06
-8.41906e-06
-9.89639e-06
-1.21914e-05
-1.54633e-05
-1.95996e-05
-2.47496e-05
-2.91617e-05
-3.30317e-05
-3.61565e-05
-3.85833e-05
-4.02362e-05
-4.12482e-05
-4.17379e-05
-4.17867e-05
-4.1395e-05
-4.04792e-05
-3.89212e-05
-3.6582e-05
-3.35282e-05
-2.9695e-05
-2.52637e-05
-2.0126e-05
-1.60171e-05
-1.28732e-05
-1.08676e-05
-9.901e-06
-9.86322e-06
-1.04337e-05
-1.16186e-05
-8.69957e-06
-7.96704e-06
-7.51888e-06
-7.31041e-06
-7.51797e-06
-8.2337e-06
-9.59023e-06
-1.17144e-05
-1.47557e-05
-1.84682e-05
-2.47918e-05
-2.94155e-05
-3.2586e-05
-3.54173e-05
-3.76738e-05
-3.92725e-05
-4.027e-05
-4.07659e-05
-4.08253e-05
-4.04495e-05
-3.95704e-05
-3.80909e-05
-3.59424e-05
-3.3206e-05
-3.00868e-05
-2.53588e-05
-1.90556e-05
-1.53815e-05
-1.24676e-05
-1.06114e-05
-9.72783e-06
-9.71166e-06
-1.0254e-05
-1.13436e-05
-8.54646e-06
-7.86136e-06
-7.43748e-06
-7.22454e-06
-7.38406e-06
-7.99402e-06
-9.18241e-06
-1.11363e-05
-1.43739e-05
-1.87838e-05
-2.64371e-05
-2.77442e-05
-3.15149e-05
-3.436e-05
-3.63988e-05
-3.79043e-05
-3.8854e-05
-3.93371e-05
-3.94139e-05
-3.90873e-05
-3.82941e-05
-3.69492e-05
-3.50471e-05
-3.23158e-05
-2.85559e-05
-2.69715e-05
-1.96164e-05
-1.51893e-05
-1.20278e-05
-1.02915e-05
-9.52117e-06
-9.54341e-06
-1.00582e-05
-1.10682e-05
-8.35531e-06
-7.75955e-06
-7.34997e-06
-7.11961e-06
-7.19776e-06
-7.60339e-06
-8.29064e-06
-9.00814e-06
-9.58963e-06
-6.13291e-06
-3.55211e-05
-3.15085e-05
-3.27667e-05
-3.40379e-05
-3.51578e-05
-3.59381e-05
-3.63736e-05
-3.64718e-05
-3.62389e-05
-3.5664e-05
-3.47613e-05
-3.36822e-05
-3.26259e-05
-3.66011e-05
-6.92577e-06
-1.05292e-05
-1.00295e-05
-9.50955e-06
-9.1823e-06
-9.33103e-06
-9.84163e-06
-1.08031e-05
-8.18851e-06
-7.67549e-06
-7.28371e-06
-7.05756e-06
-7.11768e-06
-7.50741e-06
-8.30186e-06
-9.61596e-06
-1.18199e-05
-1.54456e-05
-1.66766e-05
-2.49948e-05
-2.77244e-05
-3.03452e-05
-3.21219e-05
-3.34113e-05
-3.42915e-05
-3.47931e-05
-3.49212e-05
-3.46894e-05
-3.40837e-05
-3.3046e-05
-3.15573e-05
-2.92785e-05
-2.65636e-05
-1.89054e-05
-1.72577e-05
-1.33645e-05
-1.09631e-05
-9.67229e-06
-9.13426e-06
-9.22082e-06
-9.69027e-06
-1.0539e-05
-8.06996e-06
-7.60016e-06
-7.23422e-06
-7.01744e-06
-7.0607e-06
-7.40667e-06
-8.11632e-06
-9.26274e-06
-1.09051e-05
-1.3106e-05
-1.73388e-05
-2.28249e-05
-2.54467e-05
-2.78731e-05
-2.97008e-05
-3.11064e-05
-3.20298e-05
-3.25591e-05
-3.27092e-05
-3.25009e-05
-3.19208e-05
-3.09111e-05
-2.94141e-05
-2.7345e-05
-2.47706e-05
-1.94744e-05
-1.48367e-05
-1.24848e-05
-1.07072e-05
-9.56183e-06
-9.05294e-06
-9.12161e-06
-9.56371e-06
-1.03073e-05
-7.98873e-06
-7.55715e-06
-7.22556e-06
-7.03305e-06
-7.0792e-06
-7.40519e-06
-8.07378e-06
-9.17464e-06
-1.08443e-05
-1.31987e-05
-1.63446e-05
-2.019e-05
-2.30427e-05
-2.55546e-05
-2.74457e-05
-2.89212e-05
-2.98793e-05
-3.04236e-05
-3.05828e-05
-3.03845e-05
-2.98062e-05
-2.87907e-05
-2.72634e-05
-2.51701e-05
-2.24018e-05
-1.86517e-05
-1.52645e-05
-1.26226e-05
-1.07297e-05
-9.57045e-06
-9.0495e-06
-9.08286e-06
-9.47618e-06
-1.01551e-05
-7.94737e-06
-7.55681e-06
-7.26979e-06
-7.1143e-06
-7.17416e-06
-7.48292e-06
-8.0929e-06
-9.08157e-06
-1.05454e-05
-1.25742e-05
-1.51532e-05
-1.81267e-05
-2.07578e-05
-2.31432e-05
-2.49736e-05
-2.639e-05
-2.73072e-05
-2.7828e-05
-2.79851e-05
-2.78091e-05
-2.7273e-05
-2.63269e-05
-2.48845e-05
-2.29345e-05
-2.0406e-05
-1.74519e-05
-1.46412e-05
-1.2339e-05
-1.06576e-05
-9.59718e-06
-9.10388e-06
-9.1092e-06
-9.4492e-06
-1.00711e-05
-7.94923e-06
-7.61045e-06
-7.38643e-06
-7.28912e-06
-7.3842e-06
-7.69514e-06
-8.25877e-06
-9.13334e-06
-1.03786e-05
-1.20447e-05
-1.41043e-05
-1.64435e-05
-1.86863e-05
-2.07861e-05
-2.24402e-05
-2.37092e-05
-2.45418e-05
-2.50225e-05
-2.51695e-05
-2.50229e-05
-2.45381e-05
-2.36967e-05
-2.24205e-05
-2.07186e-05
-1.85749e-05
-1.62311e-05
-1.39833e-05
-1.20956e-05
-1.06749e-05
-9.74607e-06
-9.28358e-06
-9.24407e-06
-9.49656e-06
-1.00735e-05
-7.99517e-06
-7.71981e-06
-7.58391e-06
-7.56913e-06
-7.72515e-06
-8.06758e-06
-8.61601e-06
-9.42841e-06
-1.05164e-05
-1.19091e-05
-1.35734e-05
-1.54383e-05
-1.72921e-05
-1.90457e-05
-2.0459e-05
-2.15515e-05
-2.22825e-05
-2.27056e-05
-2.28421e-05
-2.27114e-05
-2.22952e-05
-2.15694e-05
-2.04867e-05
-1.90669e-05
-1.7321e-05
-1.54628e-05
-1.36753e-05
-1.21352e-05
-1.09319e-05
-1.00997e-05
-9.63568e-06
-9.52032e-06
-9.66874e-06
-1.01112e-05
-8.05255e-06
-7.87568e-06
-7.83192e-06
-7.90933e-06
-8.14334e-06
-8.54976e-06
-9.15208e-06
-9.94682e-06
-1.09743e-05
-1.22328e-05
-1.36917e-05
-1.52998e-05
-1.69068e-05
-1.84228e-05
-1.96776e-05
-2.06594e-05
-2.13352e-05
-2.1732e-05
-2.18621e-05
-2.17364e-05
-2.13456e-05
-2.06762e-05
-1.97065e-05
-1.84622e-05
-1.69738e-05
-1.54002e-05
-1.38698e-05
-1.2532e-05
-1.14409e-05
-1.06333e-05
-1.0121e-05
-9.89749e-06
-9.91315e-06
-1.01882e-05
-8.11924e-06
-8.05439e-06
-8.09859e-06
-8.25937e-06
-8.57183e-06
-9.05894e-06
-9.74399e-06
-1.06443e-05
-1.17756e-05
-1.31286e-05
-1.46713e-05
-1.63094e-05
-1.79373e-05
-1.94679e-05
-2.07643e-05
-2.17938e-05
-2.252e-05
-2.29496e-05
-2.30872e-05
-2.29382e-05
-2.24988e-05
-2.17642e-05
-2.07322e-05
-1.94379e-05
-1.79301e-05
-1.63455e-05
-1.48e-05
-1.3389e-05
-1.22128e-05
-1.13106e-05
-1.06901e-05
-1.03384e-05
-1.02094e-05
-1.02926e-05
-6.21161e-06
-6.21612e-06
-6.23054e-06
-6.25801e-06
-6.30642e-06
-6.37995e-06
-6.48168e-06
-6.61326e-06
-6.77384e-06
-6.96115e-06
-7.16446e-06
-7.3739e-06
-7.57602e-06
-7.76342e-06
-7.92532e-06
-8.05684e-06
-8.15346e-06
-8.21355e-06
-8.23619e-06
-8.22154e-06
-8.17087e-06
-8.08614e-06
-7.97221e-06
-7.83414e-06
-7.68292e-06
-7.52555e-06
-7.3749e-06
-7.24422e-06
-7.13981e-06
-7.06247e-06
-7.01053e-06
-6.97951e-06
-6.95857e-06
-6.944e-06
-6.16769e-06
-6.13744e-06
-6.12406e-06
-6.12224e-06
-6.14251e-06
-6.18809e-06
-6.26045e-06
-6.35919e-06
-6.47989e-06
-6.61843e-06
-6.76544e-06
-6.91928e-06
-7.0646e-06
-7.20063e-06
-7.31703e-06
-7.41298e-06
-7.48451e-06
-7.53151e-06
-7.55327e-06
-7.54992e-06
-7.5225e-06
-7.47136e-06
-7.40082e-06
-7.31182e-06
-7.21517e-06
-7.11188e-06
-7.01866e-06
-6.93402e-06
-6.87027e-06
-6.83082e-06
-6.81802e-06
-6.82809e-06
-6.84857e-06
-6.88002e-06
-6.16228e-06
-6.1215e-06
-6.09315e-06
-6.0679e-06
-6.06912e-06
-6.1026e-06
-6.17088e-06
-6.27496e-06
-6.40984e-06
-6.576e-06
-6.75439e-06
-6.9493e-06
-7.12306e-06
-7.28396e-06
-7.41368e-06
-7.51856e-06
-7.59387e-06
-7.6424e-06
-7.6636e-06
-7.65757e-06
-7.62519e-06
-7.56387e-06
-7.47879e-06
-7.36376e-06
-7.23801e-06
-7.09347e-06
-6.96967e-06
-6.86156e-06
-6.79098e-06
-6.75801e-06
-6.76522e-06
-6.80439e-06
-6.84141e-06
-6.88338e-06
-6.19267e-06
-6.13434e-06
-6.08809e-06
-6.04003e-06
-6.02691e-06
-6.05847e-06
-6.14035e-06
-6.27803e-06
-6.4677e-06
-6.71904e-06
-6.99673e-06
-7.31707e-06
-7.58669e-06
-7.83156e-06
-8.01649e-06
-8.16134e-06
-8.25959e-06
-8.31927e-06
-8.33994e-06
-8.32169e-06
-8.26522e-06
-8.16268e-06
-8.02121e-06
-7.82106e-06
-7.59911e-06
-7.32945e-06
-7.10927e-06
-6.92204e-06
-6.8073e-06
-6.75649e-06
-6.7701e-06
-6.83188e-06
-6.88866e-06
-6.94899e-06
-6.27386e-06
-6.19458e-06
-6.1329e-06
-6.07094e-06
-6.05609e-06
-6.10322e-06
-6.2232e-06
-6.4299e-06
-6.72306e-06
-7.13208e-06
-7.59498e-06
-8.16084e-06
-8.60904e-06
-9.00887e-06
-9.29515e-06
-9.51441e-06
-9.65632e-06
-9.73787e-06
-9.75835e-06
-9.71778e-06
-9.61711e-06
-9.43935e-06
-9.19572e-06
-8.83964e-06
-8.43928e-06
-7.92473e-06
-7.52423e-06
-7.18633e-06
-6.98014e-06
-6.87745e-06
-6.87446e-06
-6.94333e-06
-7.01435e-06
-7.09776e-06
-6.40849e-06
-6.30319e-06
-6.22859e-06
-6.16175e-06
-6.15861e-06
-6.23947e-06
-6.42143e-06
-6.72983e-06
-7.17043e-06
-7.81029e-06
-8.55472e-06
-9.54094e-06
-1.02591e-05
-1.08925e-05
-1.13263e-05
-1.16557e-05
-1.18622e-05
-1.1977e-05
-1.19978e-05
-1.19243e-05
-1.17592e-05
-1.1471e-05
-1.10792e-05
-1.04882e-05
-9.81808e-06
-8.88304e-06
-8.20831e-06
-7.64683e-06
-7.306e-06
-7.11969e-06
-7.07819e-06
-7.13989e-06
-7.22042e-06
-7.33389e-06
-6.59525e-06
-6.45732e-06
-6.37299e-06
-6.30857e-06
-6.32884e-06
-6.45829e-06
-6.71933e-06
-7.14934e-06
-7.76058e-06
-8.69728e-06
-9.81378e-06
-1.15041e-05
-1.2562e-05
-1.34807e-05
-1.40792e-05
-1.45338e-05
-1.48118e-05
-1.49647e-05
-1.49862e-05
-1.4876e-05
-1.46404e-05
-1.42269e-05
-1.36699e-05
-1.27914e-05
-1.17816e-05
-1.01401e-05
-9.10616e-06
-8.25444e-06
-7.75574e-06
-7.46625e-06
-7.37132e-06
-7.41598e-06
-7.50378e-06
-7.65696e-06
-6.83036e-06
-6.65176e-06
-6.55988e-06
-6.5068e-06
-6.56526e-06
-6.76132e-06
-7.11879e-06
-7.67539e-06
-8.44574e-06
-9.62361e-06
-1.11766e-05
-1.40703e-05
-1.5448e-05
-1.66872e-05
-1.74721e-05
-1.80817e-05
-1.84508e-05
-1.86531e-05
-1.86759e-05
-1.85187e-05
-1.81939e-05
-1.7626e-05
-1.68819e-05
-1.5679e-05
-1.43472e-05
-1.14919e-05
-1.0048e-05
-8.95709e-06
-8.31159e-06
-7.91403e-06
-7.75122e-06
-7.76783e-06
-7.85744e-06
-8.06378e-06
-7.10673e-06
-6.87615e-06
-6.7761e-06
-6.73956e-06
-6.84546e-06
-7.11593e-06
-7.56622e-06
-8.21569e-06
-8.99539e-06
-1.02747e-05
-1.20803e-05
-1.76162e-05
-1.87727e-05
-2.00999e-05
-2.09664e-05
-2.16522e-05
-2.20656e-05
-2.22976e-05
-2.23218e-05
-2.21377e-05
-2.17706e-05
-2.11274e-05
-2.03008e-05
-1.90013e-05
-1.78891e-05
-1.23655e-05
-1.07497e-05
-9.53359e-06
-8.8846e-06
-8.40919e-06
-8.18221e-06
-8.16829e-06
-8.26329e-06
-8.54523e-06
-7.41608e-06
-7.12334e-06
-7.02064e-06
-7.0184e-06
-7.20653e-06
-7.60568e-06
-8.23149e-06
-8.99887e-06
-9.85619e-06
-1.19906e-05
-8.40054e-06
-2.03233e-05
-2.14063e-05
-2.31625e-05
-2.42348e-05
-2.51295e-05
-2.56565e-05
-2.59431e-05
-2.59687e-05
-2.57324e-05
-2.52547e-05
-2.44051e-05
-2.33736e-05
-2.16398e-05
-2.06306e-05
-8.52384e-06
-1.24304e-05
-1.03682e-05
-9.67554e-06
-9.10015e-06
-8.72957e-06
-8.63736e-06
-8.71712e-06
-9.09514e-06
-7.73201e-06
-7.37472e-06
-7.26718e-06
-7.29954e-06
-7.57222e-06
-8.10352e-06
-8.88314e-06
-9.70882e-06
-1.00455e-05
-5.66529e-06
-2.93736e-05
-2.48258e-05
-2.55247e-05
-2.64432e-05
-2.72108e-05
-2.77215e-05
-2.79969e-05
-2.8023e-05
-2.77991e-05
-2.73385e-05
-2.66171e-05
-2.57384e-05
-2.50503e-05
-2.94723e-05
-6.52012e-06
-1.06982e-05
-1.04253e-05
-9.77688e-06
-9.27424e-06
-9.1006e-06
-9.17215e-06
-9.68251e-06
-8.0567e-06
-7.62684e-06
-7.52724e-06
-7.62474e-06
-8.05523e-06
-8.89628e-06
-1.02804e-05
-1.22854e-05
-1.55046e-05
-1.87516e-05
-2.69134e-05
-2.33721e-05
-2.53795e-05
-2.72514e-05
-2.86929e-05
-2.97048e-05
-3.03672e-05
-3.07008e-05
-3.07276e-05
-3.04476e-05
-2.98393e-05
-2.88818e-05
-2.7497e-05
-2.56882e-05
-2.37418e-05
-2.74647e-05
-1.91878e-05
-1.60118e-05
-1.29191e-05
-1.11267e-05
-1.00648e-05
-9.64471e-06
-9.64527e-06
-1.02902e-05
-8.36885e-06
-7.86791e-06
-7.76202e-06
-7.89557e-06
-8.41928e-06
-9.4231e-06
-1.10461e-05
-1.33057e-05
-1.64133e-05
-1.9368e-05
-2.42137e-05
-2.53346e-05
-2.67169e-05
-2.81478e-05
-2.94875e-05
-3.0498e-05
-3.11939e-05
-3.15475e-05
-3.15745e-05
-3.12746e-05
-3.06327e-05
-2.96743e-05
-2.83857e-05
-2.69951e-05
-2.56397e-05
-2.46154e-05
-1.98102e-05
-1.68976e-05
-1.39119e-05
-1.1882e-05
-1.06158e-05
-1.00902e-05
-1.00765e-05
-1.08329e-05
-8.65477e-06
-8.09393e-06
-7.98281e-06
-8.14816e-06
-8.75419e-06
-9.9021e-06
-1.17325e-05
-1.42528e-05
-1.75518e-05
-2.09546e-05
-2.47563e-05
-2.66167e-05
-2.81337e-05
-2.95521e-05
-3.09422e-05
-3.19742e-05
-3.26901e-05
-3.30493e-05
-3.30765e-05
-3.27715e-05
-3.21101e-05
-3.11301e-05
-2.97907e-05
-2.84098e-05
-2.69297e-05
-2.51175e-05
-2.13514e-05
-1.80023e-05
-1.48365e-05
-1.25663e-05
-1.11273e-05
-1.05114e-05
-1.0485e-05
-1.13429e-05
-8.90204e-06
-8.29096e-06
-8.16812e-06
-8.34428e-06
-8.98947e-06
-1.02058e-05
-1.21229e-05
-1.47439e-05
-1.80769e-05
-2.16016e-05
-2.51675e-05
-2.73919e-05
-2.90996e-05
-3.05283e-05
-3.19361e-05
-3.29657e-05
-3.36837e-05
-3.40407e-05
-3.4068e-05
-3.37653e-05
-3.31015e-05
-3.21226e-05
-3.07637e-05
-2.93672e-05
-2.76911e-05
-2.55042e-05
-2.19783e-05
-1.85143e-05
-1.53252e-05
-1.29741e-05
-1.14795e-05
-1.08412e-05
-1.08311e-05
-1.17742e-05
-9.1055e-06
-8.45635e-06
-8.32264e-06
-8.50277e-06
-9.17104e-06
-1.04298e-05
-1.24006e-05
-1.50872e-05
-1.84531e-05
-2.20498e-05
-2.55744e-05
-2.80384e-05
-2.98094e-05
-3.12745e-05
-3.27089e-05
-3.3738e-05
-3.44534e-05
-3.48057e-05
-3.48333e-05
-3.45359e-05
-3.38749e-05
-3.2896e-05
-3.15097e-05
-3.00706e-05
-2.82921e-05
-2.58967e-05
-2.24182e-05
-1.88869e-05
-1.56749e-05
-1.32758e-05
-1.17538e-05
-1.11101e-05
-1.11175e-05
-1.21208e-05
-9.26096e-06
-8.5847e-06
-8.44086e-06
-8.619e-06
-9.29605e-06
-1.0574e-05
-1.25695e-05
-1.52894e-05
-1.86772e-05
-2.23279e-05
-2.58662e-05
-2.83984e-05
-3.0284e-05
-3.1783e-05
-3.32333e-05
-3.42615e-05
-3.49748e-05
-3.53243e-05
-3.53526e-05
-3.50592e-05
-3.44011e-05
-3.34237e-05
-3.20219e-05
-3.05533e-05
-2.87088e-05
-2.61935e-05
-2.26973e-05
-1.91149e-05
-1.58892e-05
-1.34705e-05
-1.19439e-05
-1.13078e-05
-1.13335e-05
-1.23786e-05
-9.36749e-06
-8.67517e-06
-8.52488e-06
-8.70103e-06
-9.38266e-06
-1.06721e-05
-1.26845e-05
-1.54294e-05
-1.88421e-05
-2.2537e-05
-2.61089e-05
-2.87001e-05
-3.06411e-05
-3.21673e-05
-3.36333e-05
-3.46673e-05
-3.53833e-05
-3.57337e-05
-3.57632e-05
-3.54712e-05
-3.48124e-05
-3.38308e-05
-3.24143e-05
-3.09193e-05
-2.90196e-05
-2.64435e-05
-2.29132e-05
-1.92882e-05
-1.60424e-05
-1.36075e-05
-1.20766e-05
-1.14453e-05
-1.14822e-05
-1.25514e-05
-9.42488e-06
-8.72701e-06
-8.57438e-06
-8.74987e-06
-9.43399e-06
-1.07303e-05
-1.27549e-05
-1.55188e-05
-1.89583e-05
-2.26889e-05
-2.62992e-05
-2.89292e-05
-3.08997e-05
-3.24476e-05
-3.39291e-05
-3.49749e-05
-3.5699e-05
-3.60544e-05
-3.60857e-05
-3.57924e-05
-3.51288e-05
-3.41379e-05
-3.27077e-05
-3.1192e-05
-2.92619e-05
-2.66464e-05
-2.3077e-05
-1.9416e-05
-1.61452e-05
-1.36942e-05
-1.21559e-05
-1.15239e-05
-1.15637e-05
-1.26416e-05
-9.43374e-06
-8.74078e-06
-8.58991e-06
-8.76606e-06
-9.45083e-06
-1.07488e-05
-1.27802e-05
-1.55572e-05
-1.90237e-05
-2.27826e-05
-2.64377e-05
-2.90881e-05
-3.10666e-05
-3.263e-05
-3.41252e-05
-3.5188e-05
-3.59247e-05
-3.62888e-05
-3.63228e-05
-3.60259e-05
-3.53542e-05
-3.43504e-05
-3.29092e-05
-3.138e-05
-2.94423e-05
-2.6804e-05
-2.31881e-05
-1.94965e-05
-1.61965e-05
-1.37305e-05
-1.21825e-05
-1.15447e-05
-1.15796e-05
-1.26511e-05
-9.39577e-06
-8.71868e-06
-8.57321e-06
-8.74991e-06
-9.43049e-06
-1.07216e-05
-1.275e-05
-1.55283e-05
-1.90225e-05
-2.28016e-05
-2.65255e-05
-2.91776e-05
-3.11348e-05
-3.27077e-05
-3.42134e-05
-3.5298e-05
-3.6051e-05
-3.64275e-05
-3.64652e-05
-3.61633e-05
-3.5482e-05
-3.44626e-05
-3.30151e-05
-3.14797e-05
-2.95651e-05
-2.69196e-05
-2.32334e-05
-1.95183e-05
-1.61865e-05
-1.37115e-05
-1.2156e-05
-1.15105e-05
-1.15336e-05
-1.25813e-05
-9.31333e-06
-8.6627e-06
-8.5234e-06
-8.69471e-06
-9.35649e-06
-1.06159e-05
-1.26083e-05
-1.53491e-05
-1.88516e-05
-2.26382e-05
-2.65123e-05
-2.91373e-05
-3.10385e-05
-3.26009e-05
-3.40966e-05
-3.51974e-05
-3.59645e-05
-3.63546e-05
-3.63974e-05
-3.60923e-05
-3.54063e-05
-3.43802e-05
-3.29493e-05
-3.14289e-05
-2.95569e-05
-2.69429e-05
-2.31082e-05
-1.93827e-05
-1.60379e-05
-1.35891e-05
-1.20519e-05
-1.1413e-05
-1.14261e-05
-1.24326e-05
-9.19249e-06
-8.58017e-06
-8.44881e-06
-8.60972e-06
-9.23902e-06
-1.04424e-05
-1.23651e-05
-1.50257e-05
-1.85212e-05
-2.22402e-05
-2.64656e-05
-2.90205e-05
-3.07669e-05
-3.23505e-05
-3.38468e-05
-3.4969e-05
-3.57485e-05
-3.61527e-05
-3.6203e-05
-3.58994e-05
-3.52156e-05
-3.41843e-05
-3.2765e-05
-3.12386e-05
-2.95254e-05
-2.69558e-05
-2.2773e-05
-1.91118e-05
-1.57683e-05
-1.33836e-05
-1.18907e-05
-1.12717e-05
-1.12739e-05
-1.22159e-05
-9.03973e-06
-8.47435e-06
-8.34524e-06
-8.47656e-06
-9.0323e-06
-1.01044e-05
-1.18311e-05
-1.423e-05
-1.74827e-05
-2.0688e-05
-2.61754e-05
-2.88957e-05
-3.02686e-05
-3.18233e-05
-3.3258e-05
-3.43662e-05
-3.51375e-05
-3.5549e-05
-3.56093e-05
-3.53194e-05
-3.4663e-05
-3.36688e-05
-3.2329e-05
-3.08606e-05
-2.95422e-05
-2.67153e-05
-2.12889e-05
-1.81575e-05
-1.5062e-05
-1.29203e-05
-1.15901e-05
-1.1056e-05
-1.10759e-05
-1.1956e-05
-8.86954e-06
-8.36166e-06
-8.2398e-06
-8.34539e-06
-8.83089e-06
-9.77576e-06
-1.13149e-05
-1.35077e-05
-1.69688e-05
-2.08212e-05
-2.77601e-05
-2.69598e-05
-2.95865e-05
-3.187e-05
-3.3502e-05
-3.46787e-05
-3.54663e-05
-3.58894e-05
-3.59657e-05
-3.56981e-05
-3.50573e-05
-3.4031e-05
-3.25145e-05
-3.03525e-05
-2.77589e-05
-2.82544e-05
-2.1639e-05
-1.78177e-05
-1.44877e-05
-1.25133e-05
-1.13213e-05
-1.08555e-05
-1.08755e-05
-1.16553e-05
-8.70098e-06
-8.24524e-06
-8.1175e-06
-8.17072e-06
-8.52324e-06
-9.18936e-06
-1.01358e-05
-1.10452e-05
-1.11286e-05
-4.75823e-06
-3.73911e-05
-3.07964e-05
-3.14056e-05
-3.2412e-05
-3.33266e-05
-3.39768e-05
-3.43635e-05
-3.44557e-05
-3.42595e-05
-3.37885e-05
-3.30723e-05
-3.21974e-05
-3.17588e-05
-3.82971e-05
-5.57402e-06
-1.21641e-05
-1.22103e-05
-1.1486e-05
-1.08262e-05
-1.05703e-05
-1.06462e-05
-1.13285e-05
-8.53493e-06
-8.1414e-06
-8.02755e-06
-8.07462e-06
-8.40386e-06
-9.0604e-06
-1.01123e-05
-1.15415e-05
-1.36372e-05
-1.70115e-05
-1.67115e-05
-2.59838e-05
-2.79442e-05
-3.00804e-05
-3.14957e-05
-3.27881e-05
-3.3603e-05
-3.40864e-05
-3.42043e-05
-3.39665e-05
-3.33813e-05
-3.23793e-05
-3.10566e-05
-2.91078e-05
-2.72701e-05
-1.89176e-05
-1.87529e-05
-1.52496e-05
-1.30059e-05
-1.16151e-05
-1.07575e-05
-1.04364e-05
-1.04651e-05
-1.10377e-05
-8.38723e-06
-8.04826e-06
-7.94686e-06
-7.98339e-06
-8.27094e-06
-8.85826e-06
-9.80712e-06
-1.11531e-05
-1.29042e-05
-1.50368e-05
-1.9102e-05
-2.46712e-05
-2.62657e-05
-2.7921e-05
-2.9146e-05
-3.03105e-05
-3.10939e-05
-3.15817e-05
-3.1716e-05
-3.15109e-05
-3.09752e-05
-3.00758e-05
-2.88705e-05
-2.73487e-05
-2.59117e-05
-2.09022e-05
-1.66573e-05
-1.4534e-05
-1.27138e-05
-1.13899e-05
-1.05853e-05
-1.02751e-05
-1.02903e-05
-1.0784e-05
-8.27777e-06
-7.98765e-06
-7.91006e-06
-7.95888e-06
-8.24071e-06
-8.8102e-06
-9.73801e-06
-1.10833e-05
-1.29258e-05
-1.52881e-05
-1.83231e-05
-2.18372e-05
-2.37178e-05
-2.53043e-05
-2.65462e-05
-2.77386e-05
-2.85414e-05
-2.90375e-05
-2.91774e-05
-2.89791e-05
-2.84357e-05
-2.75346e-05
-2.63031e-05
-2.47895e-05
-2.31384e-05
-2.00704e-05
-1.70654e-05
-1.46646e-05
-1.27302e-05
-1.13698e-05
-1.05412e-05
-1.01979e-05
-1.01738e-05
-1.05991e-05
-8.20888e-06
-7.96368e-06
-7.91429e-06
-7.98137e-06
-8.25777e-06
-8.79326e-06
-9.65018e-06
-1.08862e-05
-1.25489e-05
-1.46729e-05
-1.71097e-05
-1.97346e-05
-2.14992e-05
-2.30108e-05
-2.42575e-05
-2.54072e-05
-2.61857e-05
-2.6666e-05
-2.68077e-05
-2.66285e-05
-2.61199e-05
-2.52817e-05
-2.40972e-05
-2.26727e-05
-2.10646e-05
-1.88148e-05
-1.64453e-05
-1.42987e-05
-1.25541e-05
-1.12921e-05
-1.05081e-05
-1.01608e-05
-1.01087e-05
-1.04761e-05
-8.1804e-06
-7.98181e-06
-7.97041e-06
-8.07007e-06
-8.35651e-06
-8.87064e-06
-9.66135e-06
-1.07727e-05
-1.22274e-05
-1.40207e-05
-1.60142e-05
-1.81048e-05
-1.97574e-05
-2.12519e-05
-2.25027e-05
-2.35965e-05
-2.43547e-05
-2.48231e-05
-2.49713e-05
-2.47964e-05
-2.43193e-05
-2.35292e-05
-2.24111e-05
-2.10693e-05
-1.95358e-05
-1.77114e-05
-1.57663e-05
-1.39509e-05
-1.24266e-05
-1.12916e-05
-1.05592e-05
-1.02026e-05
-1.01119e-05
-1.04197e-05
-8.18557e-06
-8.0371e-06
-8.07078e-06
-8.21337e-06
-8.52208e-06
-9.02852e-06
-9.76788e-06
-1.0773e-05
-1.20483e-05
-1.35794e-05
-1.52585e-05
-1.70076e-05
-1.85511e-05
-1.99747e-05
-2.11681e-05
-2.21903e-05
-2.29087e-05
-2.33496e-05
-2.34904e-05
-2.3342e-05
-2.28987e-05
-2.21693e-05
-2.11453e-05
-1.99181e-05
-1.85013e-05
-1.69257e-05
-1.52766e-05
-1.37246e-05
-1.23983e-05
-1.13813e-05
-1.06929e-05
-1.03191e-05
-1.01836e-05
-1.0409e-05
-8.20312e-06
-8.10281e-06
-8.16401e-06
-8.34038e-06
-8.67177e-06
-9.18335e-06
-9.90159e-06
-1.08407e-05
-1.20072e-05
-1.33814e-05
-1.48886e-05
-1.64604e-05
-1.79433e-05
-1.93207e-05
-2.04867e-05
-2.14542e-05
-2.21434e-05
-2.25633e-05
-2.26999e-05
-2.25606e-05
-2.21403e-05