/*--------------------------------*- C++ -*----------------------------------*\
| =========                 |                                                 |
| \\      /  F ield         | OpenFOAM: The Open Source CFD Toolbox           |
|  \\    /   O peration     | Version:  2112                                  |
|   \\  /    A nd           | Website:  www.openfoam.com                      |
|    \\/     M anipulation  |                                                 |
\*---------------------------------------------------------------------------*/
FoamFile
{
    version     2.0;
    format      ascii;
    arch        "LSB;label=32;scalar=64";
    class       surfaceScalarField;
    location    "2.9";
    object      phi;
}
// * * * * * * * * * * * * * * * * * * * * * * * * * * * * * * * * * * * * * //

dimensions      [0 3 -1 0 0 0 0];

oriented        oriented;

internalField   nonuniform List<scalar> 
188215
(
7.93112e-10
1.75504e-09
-2.54815e-09
2.91423e-09
8.41881e-10
-2.963e-09
5.55136e-09
-1.12426e-10
-2.5247e-09
8.50093e-09
-1.1552e-09
-1.79437e-09
1.14873e-08
-1.72583e-09
-1.26057e-09
1.44311e-08
-1.97881e-09
-9.65002e-10
1.72808e-08
-1.99839e-09
-8.5131e-10
1.99301e-08
-1.7884e-09
-8.60819e-10
2.22082e-08
-1.31757e-09
-9.60563e-10
2.36439e-08
-3.04805e-10
-1.13089e-09
2.42338e-08
6.62966e-10
-1.25288e-09
2.35745e-08
1.99867e-09
-1.33934e-09
2.18039e-08
3.15128e-09
-1.3807e-09
1.90062e-08
4.1618e-09
-1.36409e-09
1.54616e-08
4.86444e-09
-1.31989e-09
1.13543e-08
5.377e-09
-1.26969e-09
6.89938e-09
5.68598e-09
-1.23103e-09
2.27851e-09
5.83305e-09
-1.21217e-09
-2.32478e-09
5.81957e-09
-1.21628e-09
-6.72759e-09
5.64566e-09
-1.24285e-09
-1.07493e-08
5.31022e-09
-1.28853e-09
-1.41764e-08
4.77199e-09
-1.34482e-09
-1.68293e-08
4.04704e-09
-1.39424e-09
-1.84318e-08
3.01923e-09
-1.41669e-09
-1.89107e-08
1.86383e-09
-1.38491e-09
-1.8144e-08
5.5151e-10
-1.3182e-09
-1.64936e-08
-4.24692e-10
-1.22572e-09
-1.40167e-08
-1.31814e-09
-1.15877e-09
-1.11803e-08
-1.58065e-09
-1.25576e-09
-8.19182e-09
-1.38491e-09
-1.60355e-09
-5.29711e-09
-6.11445e-10
-2.28327e-09
-2.63876e-09
5.64488e-10
-3.22284e-09
-6.02575e-10
1.8707e-09
-3.90688e-09
2.91446e-09
-3.51704e-09
-1.14266e-09
6.66121e-09
-3.7635e-09
1.22514e-09
6.64096e-09
-8.16688e-09
4.73376e-09
5.95091e-09
-9.57195e-09
8.19661e-09
5.38429e-09
-1.00023e-08
1.14791e-08
5.37716e-09
-1.03854e-08
1.45912e-08
5.95834e-09
-1.10493e-08
1.75554e-08
7.12974e-09
-1.20923e-08
2.03177e-08
8.98818e-09
-1.35389e-08
2.2731e-08
1.1659e-08
-1.53899e-08
2.45687e-08
1.54821e-08
-1.76246e-08
2.53546e-08
2.01551e-08
-2.0278e-08
2.46248e-08
2.58998e-08
-2.31713e-08
2.27072e-08
3.09671e-08
-2.58983e-08
1.97295e-08
3.54267e-08
-2.82871e-08
1.60131e-08
3.88135e-08
-3.02327e-08
1.1742e-08
4.13675e-08
-3.17194e-08
7.12806e-09
4.30266e-08
-3.27267e-08
2.35134e-09
4.3866e-08
-3.32563e-08
-2.40624e-09
4.38798e-08
-3.33026e-08
-6.96301e-09
4.30681e-08
-3.28657e-08
-1.11406e-08
4.14388e-08
-3.1951e-08
-1.4729e-08
3.89179e-08
-3.05576e-08
-1.75493e-08
3.55751e-08
-2.87076e-08
-1.92836e-08
3.11747e-08
-2.64211e-08
-1.98125e-08
2.6204e-08
-2.38112e-08
-1.87931e-08
2.05949e-08
-2.10629e-08
-1.67383e-08
1.61373e-08
-1.86168e-08
-1.40481e-08
1.26298e-08
-1.66381e-08
-1.09301e-08
1.04431e-08
-1.51417e-08
-7.48545e-09
9.31545e-09
-1.4145e-08
-3.74496e-09
9.18997e-09
-1.35419e-08
-8.49251e-11
9.85925e-09
-1.29548e-08
2.21388e-09
1.06917e-08
-1.11198e-08
1.04856e-08
-5.35727e-09
-2.53829e-09
1.30137e-08
-3.81423e-09
-2.99863e-11
1.40591e-08
-9.92643e-09
3.94107e-09
1.40961e-08
-1.21163e-08
7.97013e-09
1.43661e-08
-1.30109e-08
1.17653e-08
1.53781e-08
-1.3796e-08
1.53646e-08
1.7261e-08
-1.4902e-08
1.88692e-08
2.01302e-08
-1.6505e-08
2.22942e-08
2.42511e-08
-1.86879e-08
2.55047e-08
2.99392e-08
-2.14908e-08
2.80166e-08
3.79065e-08
-2.49363e-08
2.92778e-08
4.78232e-08
-2.89294e-08
2.83308e-08
6.01117e-08
-3.32648e-08
2.58813e-08
7.07933e-08
-3.73767e-08
2.22144e-08
8.00886e-08
-4.09951e-08
1.78404e-08
8.71422e-08
-4.39547e-08
1.29379e-08
9.24855e-08
-4.62154e-08
7.7211e-09
9.59865e-08
-4.77431e-08
2.35363e-09
9.77765e-08
-4.8543e-08
-2.99368e-09
9.78343e-08
-4.86072e-08
-8.14992e-09
9.61597e-08
-4.79354e-08
-1.29525e-08
9.2777e-08
-4.65356e-08
-1.71869e-08
8.7556e-08
-4.44037e-08
-2.06778e-08
8.0642e-08
-4.15761e-08
-2.2914e-08
7.15098e-08
-3.80988e-08
-2.36175e-08
6.10551e-08
-3.41477e-08
-2.20686e-08
4.90548e-08
-3.00088e-08
-1.92371e-08
3.95778e-08
-2.62719e-08
-1.5601e-08
3.21492e-08
-2.31555e-08
-1.15823e-08
2.71955e-08
-2.07712e-08
-7.25677e-09
2.40575e-08
-1.90675e-08
-2.68141e-09
2.24531e-08
-1.78385e-08
1.7229e-09
2.19891e-08
-1.65341e-08
4.15974e-09
2.18647e-08
-1.36098e-08
2.02325e-08
-5.58719e-09
-3.40918e-09
1.97455e-08
-3.32259e-09
-6.73641e-10
2.15931e-08
-1.02695e-08
3.92248e-09
2.23021e-08
-1.28021e-08
8.69992e-09
2.34574e-08
-1.38687e-08
1.32923e-08
2.56071e-08
-1.48214e-08
1.77788e-08
2.89301e-08
-1.61556e-08
2.23696e-08
3.3636e-08
-1.80966e-08
2.71945e-08
4.01968e-08
-2.07706e-08
3.21231e-08
4.92484e-08
-2.42377e-08
3.6331e-08
6.22488e-08
-2.85502e-08
3.87214e-08
7.89836e-08
-3.35508e-08
3.71902e-08
1.00718e-07
-3.9075e-08
3.34356e-08
1.1883e-07
-4.42818e-08
2.81591e-08
1.34221e-07
-4.88555e-08
2.22549e-08
1.4563e-07
-5.2584e-08
1.58636e-08
1.54283e-07
-5.54062e-08
9.19609e-09
1.59948e-07
-5.72936e-08
2.39005e-09
1.62858e-07
-5.82755e-08
-4.39507e-09
1.62966e-07
-5.83465e-08
-1.09991e-08
1.6027e-07
-5.75061e-08
-1.72835e-08
1.5482e-07
-5.57588e-08
-2.30327e-08
1.46382e-07
-5.30762e-08
-2.81056e-08
1.35204e-07
-4.94886e-08
-3.1599e-08
1.20067e-07
-4.50639e-08
-3.28179e-08
1.02301e-07
-4.00269e-08
-3.00392e-08
8.09884e-08
-3.47123e-08
-2.53961e-08
6.49232e-08
-2.99885e-08
-1.98729e-08
5.26601e-08
-2.6034e-08
-1.42127e-08
4.45517e-08
-2.30164e-08
-8.49496e-09
3.91847e-08
-2.0845e-08
-2.74223e-09
3.59706e-08
-1.92702e-08
2.57898e-09
3.43235e-08
-1.76557e-08
5.34497e-09
3.33495e-08
-1.42508e-08
3.06612e-08
-5.08369e-09
-3.78687e-09
2.62948e-08
-2.76242e-09
-5.30657e-10
2.87503e-08
-1.04134e-08
4.92552e-09
3.00632e-08
-1.32173e-08
1.07147e-08
3.20738e-08
-1.44056e-08
1.64289e-08
3.54019e-08
-1.5509e-08
2.22402e-08
4.02198e-08
-1.71009e-08
2.85503e-08
4.67796e-08
-1.94538e-08
3.5739e-08
5.5747e-08
-2.27389e-08
4.37645e-08
6.8234e-08
-2.70112e-08
5.13243e-08
8.70499e-08
-3.23609e-08
5.60815e-08
1.12755e-07
-3.85286e-08
5.31937e-08
1.49233e-07
-4.56271e-08
4.67887e-08
1.77464e-07
-5.22294e-08
3.85388e-08
2.00552e-07
-5.80814e-08
2.99597e-08
2.17068e-07
-6.28588e-08
2.09922e-08
2.2965e-07
-6.63996e-08
1.18017e-08
2.37866e-07
-6.87281e-08
2.48075e-09
2.42108e-07
-6.9929e-08
-6.8194e-09
2.42272e-07
-7.00059e-08
-1.5946e-08
2.38354e-07
-6.89579e-08
-2.48029e-08
2.30456e-07
-6.6779e-08
-3.32133e-08
2.18177e-07
-6.33848e-08
-4.12282e-08
2.0197e-07
-5.87514e-08
-4.73086e-08
1.79197e-07
-5.3049e-08
-4.97879e-08
1.51398e-07
-4.6618e-08
-4.44976e-08
1.15432e-07
-3.9734e-08
-3.63892e-08
9.06781e-08
-3.38635e-08
-2.76043e-08
7.27756e-08
-2.89004e-08
-1.93444e-08
6.14098e-08
-2.5118e-08
-1.16029e-08
5.38287e-08
-2.23855e-08
-4.21942e-09
4.90278e-08
-2.04407e-08
2.39253e-09
4.62637e-08
-1.85521e-08
5.88923e-09
4.45703e-08
-1.47175e-08
4.10529e-08
-4.50243e-09
-3.84527e-09
3.23934e-08
-2.25339e-09
2.43799e-10
3.53545e-08
-1.06932e-08
6.93019e-09
3.72127e-08
-1.38359e-08
1.40681e-08
4.01061e-08
-1.51702e-08
2.12489e-08
4.4698e-08
-1.6477e-08
2.87984e-08
5.10947e-08
-1.84244e-08
3.74272e-08
5.94823e-08
-2.13314e-08
4.80402e-08
7.05409e-08
-2.5407e-08
6.09944e-08
8.59062e-08
-3.06264e-08
7.4709e-08
1.10427e-07
-3.70913e-08
8.44326e-08
1.4716e-07
-4.41286e-08
7.86109e-08
2.08109e-07
-5.30549e-08
6.73333e-08
2.50058e-07
-6.13159e-08
5.42429e-08
2.8261e-07
-6.89671e-08
4.16278e-08
3.04985e-07
-7.5302e-08
2.87995e-08
3.22257e-07
-7.97787e-08
1.57884e-08
3.33526e-07
-8.26493e-08
2.63115e-09
3.39379e-07
-8.4114e-08
-1.05079e-08
3.3961e-07
-8.41993e-08
-2.34622e-08
3.34212e-07
-8.29031e-08
-3.61888e-08
3.23378e-07
-8.01957e-08
-4.86362e-08
3.06501e-07
-7.58764e-08
-6.14715e-08
2.84495e-07
-6.96903e-08
-7.23559e-08
2.52271e-07
-6.21905e-08
-7.76427e-08
2.1079e-07
-5.41053e-08
-6.71643e-08
1.50346e-07
-4.53922e-08
-5.28174e-08
1.15011e-07
-3.86795e-08
-3.89519e-08
9.15472e-08
-3.2637e-08
-2.70128e-08
7.74363e-08
-2.79657e-08
-1.65929e-08
6.79283e-08
-2.45194e-08
-7.06245e-09
6.15931e-08
-2.20957e-08
1.31686e-09
5.77344e-08
-1.985e-08
6.0431e-09
5.53147e-08
-1.54706e-08
5.11042e-08
-4.00824e-09
-3.68639e-09
3.78514e-08
-1.77153e-09
1.60947e-09
4.12532e-08
-1.11946e-08
9.9405e-09
4.36731e-08
-1.47914e-08
1.88164e-08
4.75609e-08
-1.63307e-08
2.78087e-08
5.36188e-08
-1.7913e-08
3.74117e-08
6.18111e-08
-2.03195e-08
4.87409e-08
7.20571e-08
-2.3904e-08
6.36614e-08
8.45136e-08
-2.88932e-08
8.36774e-08
1.00954e-07
-3.50632e-08
1.07835e-07
1.28612e-07
-4.23428e-08
1.2848e-07
1.75571e-07
-4.90553e-08
1.16055e-07
2.80105e-07
-5.95714e-08
9.60996e-08
3.39234e-07
-6.92207e-08
7.57786e-08
3.82242e-07
-7.93117e-08
5.76981e-08
4.1102e-07
-8.79547e-08
3.96332e-08
4.33744e-07
-9.34215e-08
2.13513e-08
4.48658e-07
-9.68494e-08
2.85232e-09
4.56458e-07
-9.85799e-08
-1.56355e-08
4.56774e-07
-9.86761e-08
-3.38816e-08
4.49593e-07
-9.71349e-08
-5.18784e-08
4.35264e-07
-9.38883e-08
-6.98277e-08
4.13045e-07
-8.85947e-08
-8.99123e-08
3.84688e-07
-8.01081e-08
-1.09418e-07
3.41953e-07
-7.01761e-08
-1.21149e-07
2.8324e-07
-6.07194e-08
-9.93655e-08
1.78973e-07
-5.04104e-08
-7.45901e-08
1.34298e-07
-4.40627e-08
-5.35487e-08
1.07746e-07
-3.72402e-08
-3.70047e-08
9.25873e-08
-3.1695e-08
-2.34109e-08
8.17701e-08
-2.74355e-08
-1.12312e-08
7.38465e-08
-2.44331e-08
-4.81244e-10
6.87103e-08
-2.17259e-08
5.95536e-09
6.54731e-08
-1.65951e-08
6.06137e-08
-3.55417e-09
-3.31352e-09
4.24383e-08
-1.27342e-09
3.63955e-09
4.6223e-08
-1.19228e-08
1.4138e-08
4.9277e-08
-1.61024e-08
2.52712e-08
5.43497e-08
-1.7922e-08
3.64979e-08
6.22516e-08
-1.98594e-08
4.83303e-08
7.28072e-08
-2.28285e-08
6.20942e-08
8.55009e-08
-2.72077e-08
8.08189e-08
9.90328e-08
-3.32439e-08
1.08269e-07
1.13768e-07
-4.02643e-08
1.49447e-07
1.35755e-07
-4.83216e-08
1.94599e-07
1.80216e-07
-4.97978e-08
1.68195e-07
3.65867e-07
-5.93571e-08
1.34837e-07
4.42794e-07
-7.02028e-08
1.05068e-07
4.96325e-07
-8.43131e-08
8.01482e-08
5.32501e-07
-9.65604e-08
5.50326e-08
5.61778e-07
-1.02919e-07
2.93085e-08
5.81212e-07
-1.0683e-07
3.16915e-09
5.91384e-07
-1.08787e-07
-2.29714e-08
5.91809e-07
-1.08895e-07
-4.86995e-08
5.8247e-07
-1.07149e-07
-7.38212e-08
5.63825e-07
-1.0344e-07
-9.87166e-08
5.35215e-07
-9.72751e-08
-1.28375e-07
4.99543e-07
-8.51964e-08
-1.6133e-07
4.46172e-07
-7.12638e-08
-1.86827e-07
3.69415e-07
-6.06777e-08
-1.39814e-07
1.83228e-07
-5.12684e-08
-9.83107e-08
1.42957e-07
-5.01628e-08
-6.9735e-08
1.21783e-07
-4.26125e-08
-4.89998e-08
1.08184e-07
-3.6332e-08
-3.23314e-08
9.62637e-08
-3.1162e-08
-1.70776e-08
8.60894e-08
-2.74966e-08
-3.22717e-09
7.90848e-08
-2.42249e-08
5.58254e-09
7.47445e-08
-1.8081e-08
6.92321e-08
-3.03586e-09
-2.72613e-09
4.59104e-08
-7.45938e-10
6.3681e-09
4.99954e-08
-1.28667e-08
1.96518e-08
5.37674e-08
-1.7774e-08
3.36961e-08
6.02531e-08
-1.99478e-08
4.77253e-08
7.05291e-08
-2.23068e-08
6.19468e-08
8.44847e-08
-2.5899e-08
7.72784e-08
1.01306e-07
-3.11365e-08
9.72882e-08
1.17292e-07
-3.82686e-08
1.28705e-07
1.2912e-07
-4.67692e-08
1.94025e-07
1.248e-07
-5.43647e-08
2.89668e-07
1.41048e-07
-5.64744e-08
2.3368e-07
4.7376e-07
-5.1905e-08
1.80783e-07
5.55992e-07
-6.03007e-08
1.40976e-07
6.15968e-07
-7.98362e-08
1.08461e-07
6.6166e-07
-9.66446e-08
7.4778e-08
6.98645e-07
-1.03183e-07
3.96041e-08
7.24113e-07
-1.07726e-07
3.61607e-09
7.37322e-07
-1.09949e-07
-3.23904e-08
7.37878e-07
-1.10062e-07
-6.76266e-08
7.25766e-07
-1.0806e-07
-1.01436e-07
7.01356e-07
-1.03722e-07
-1.34134e-07
6.653e-07
-9.73866e-08
-1.74145e-07
6.20297e-07
-8.07415e-08
-2.26936e-07
5.60373e-07
-6.14106e-08
-2.8165e-07
4.77484e-07
-5.33549e-08
-1.82915e-07
1.42903e-07
-5.84102e-08
-1.18407e-07
1.34897e-07
-5.64471e-08
-8.55981e-08
1.38285e-07
-4.9311e-08
-6.30404e-08
1.2734e-07
-4.17137e-08
-4.3934e-08
1.12784e-07
-3.56266e-08
-2.51365e-08
9.8572e-08
-3.12801e-08
-7.27891e-09
8.86024e-08
-2.73752e-08
4.83642e-09
8.26014e-08
-1.99722e-08
7.6482e-08
-2.41345e-09
-1.75169e-09
4.78839e-08
-2.21843e-10
1.01263e-08
5.21414e-08
-1.4024e-08
2.71706e-08
5.6542e-08
-1.98189e-08
4.54695e-08
6.43928e-08
-2.24385e-08
6.40533e-08
7.72695e-08
-2.53241e-08
8.2404e-08
9.57935e-08
-2.96595e-08
9.97354e-08
1.19828e-07
-3.58538e-08
1.15868e-07
1.461e-07
-4.49411e-08
1.30024e-07
1.69767e-07
-5.4803e-08
1.8162e-07
1.44422e-07
-7.12179e-08
4.07777e-07
-8.51095e-08
3.18368e-07
5.86481e-07
-2.33125e-08
2.45413e-07
6.50708e-07
-2.17596e-08
1.96366e-07
7.05807e-07
-4.07929e-08
1.54109e-07
7.63166e-07
-5.9249e-08
1.06558e-07
8.07985e-07
-6.17895e-08
5.59028e-08
8.39535e-07
-6.47675e-08
4.25054e-09
8.5539e-07
-6.64159e-08
-4.74305e-08
8.56058e-07
-6.64993e-08
-9.81915e-08
8.41545e-07
-6.50176e-08
-1.45992e-07
8.11335e-07
-6.21786e-08
-1.88701e-07
7.67832e-07
-5.98236e-08
-2.38548e-07
7.11639e-07
-4.14947e-08
-3.12785e-07
6.57252e-07
-2.26425e-08
-4.01887e-07
5.91385e-07
-2.47984e-08
-1.70932e-07
-8.80516e-08
-1.18338e-07
1.55028e-07
-7.27249e-08
-1.03807e-07
1.80893e-07
-5.71391e-08
-8.46353e-08
1.56869e-07
-4.87009e-08
-6.24546e-08
1.31611e-07
-4.10075e-08
-3.80658e-08
1.10164e-07
-3.59813e-08
-1.40495e-08
9.59423e-08
-3.13562e-08
3.01602e-09
8.79094e-08
-2.23735e-08
8.11681e-08
-1.6701e-09
-4.55855e-10
4.79975e-08
3.4224e-10
1.45761e-08
5.24845e-08
-1.53751e-08
3.61293e-08
5.71978e-08
-2.2209e-08
5.99041e-08
6.5994e-08
-2.5376e-08
8.50682e-08
8.10027e-08
-2.88973e-08
1.10481e-07
1.04245e-07
-3.3864e-08
1.31545e-07
1.39167e-07
-4.04025e-08
1.34846e-07
1.90096e-07
-4.72969e-08
1.05466e-07
2.63614e-07
-6.44673e-08
3.56826e-07
-1.06938e-07
1.87379e-07
3.21148e-07
7.79546e-08
2.52942e-07
5.44475e-07
4.06694e-08
2.49613e-07
6.7607e-07
3.30665e-08
2.04616e-07
7.73498e-07
3.46653e-08
1.42321e-07
8.38932e-07
3.13476e-08
7.46058e-08
8.8019e-07
2.70604e-08
5.07981e-09
8.99941e-07
2.49752e-08
-6.44811e-08
9.00639e-07
2.498e-08
-1.32323e-07
8.82317e-07
2.70694e-08
-1.94935e-07
8.42578e-07
3.13692e-08
-2.4068e-07
7.78862e-07
3.47149e-08
-2.45759e-07
6.83502e-07
3.32156e-08
-1.83272e-07
5.54235e-07
4.0529e-08
3.31524e-07
7.65895e-08
-1.02236e-07
3.61552e-07
-1.04289e-07
-1.26521e-07
2.71541e-07
-6.63633e-08
-1.17348e-07
1.99275e-07
-5.15791e-08
-8.93401e-08
1.50119e-07
-4.65162e-08
-5.58725e-08
1.18182e-07
-4.14849e-08
-2.32435e-08
9.95887e-08
-3.62754e-08
8.55582e-11
8.99514e-08
-2.53711e-08
8.22314e-08
-9.7768e-10
8.61534e-10
4.59952e-08
1.14075e-09
1.99947e-08
5.03119e-08
-1.69604e-08
4.74238e-08
5.46315e-08
-2.48629e-08
7.95048e-08
6.26327e-08
-2.87198e-08
1.17711e-07
7.60359e-08
-3.32396e-08
1.65607e-07
9.60508e-08
-3.97018e-08
2.28939e-07
1.23945e-07
-4.81104e-08
3.14852e-07
1.5968e-07
-5.54972e-08
4.367e-07
2.00803e-07
-5.90377e-08
5.92192e-07
2.44387e-07
-4.30525e-08
4.62554e-07
8.41896e-08
4.54483e-08
4.75473e-07
2.31488e-07
7.67415e-08
4.57599e-07
4.11689e-07
1.5066e-07
3.90933e-07
5.30558e-07
2.12178e-07
2.98136e-07
6.19739e-07
2.46557e-07
1.98735e-07
6.79163e-07
2.5917e-07
1.01334e-07
7.16334e-07
2.61257e-07
5.9262e-09
7.34192e-07
2.61157e-07
-8.94599e-08
7.34802e-07
2.61223e-07
-1.86791e-07
7.18186e-07
2.61462e-07
-2.86076e-07
6.82315e-07
2.59549e-07
-3.7874e-07
6.2428e-07
2.47246e-07
-4.45308e-07
5.36567e-07
2.13503e-07
-4.62706e-07
4.18843e-07
1.5279e-07
-4.51417e-07
2.39827e-07
8.0407e-08
-5.86761e-07
8.62615e-08
4.90827e-08
-4.31138e-07
2.48247e-07
-4.23178e-08
-3.05681e-07
2.07365e-07
-6.12811e-08
-2.14116e-07
1.67955e-07
-6.0245e-08
-1.42933e-07
1.34257e-07
-5.53202e-08
-8.52835e-08
1.09426e-07
-4.88934e-08
-3.72917e-08
9.39771e-08
-4.23802e-08
-3.79408e-09
8.57377e-08
-2.92839e-08
7.8664e-08
-2.26764e-10
1.84749e-09
4.22538e-08
1.89399e-09
2.44978e-08
4.6134e-08
-1.84725e-08
5.67523e-08
4.97596e-08
-2.73826e-08
9.49699e-08
5.63066e-08
-3.18915e-08
1.4138e-07
6.69461e-08
-3.73199e-08
2.00517e-07
8.20566e-08
-4.51435e-08
2.78307e-07
1.01352e-07
-5.51963e-08
3.79156e-07
1.23312e-07
-6.44813e-08
5.05275e-07
1.42983e-07
-6.8299e-08
6.47873e-07
1.57464e-07
-5.56753e-08
6.4971e-07
1.0528e-07
-2.29266e-08
6.46776e-07
1.91962e-07
4.24599e-08
5.90846e-07
3.01551e-07
1.66068e-07
4.87654e-07
3.84731e-07
2.49019e-07
3.65507e-07
4.491e-07
2.92786e-07
2.41247e-07
4.91839e-07
3.11584e-07
1.21971e-07
5.18881e-07
3.16729e-07
6.58392e-09
5.31905e-07
3.17674e-07
-1.08762e-07
5.32405e-07
3.17743e-07
-2.2791e-07
5.20388e-07
3.16945e-07
-3.51964e-07
4.94368e-07
3.12001e-07
-4.73898e-07
4.5265e-07
2.93564e-07
-5.77148e-07
3.89264e-07
2.50553e-07
-6.33716e-07
3.06789e-07
1.68622e-07
-6.38201e-07
1.97542e-07
4.67699e-08
-6.40306e-07
1.08444e-07
-2.00781e-08
-4.98763e-07
1.6202e-07
-5.53155e-08
-3.69605e-07
1.49018e-07
-7.08106e-08
-2.62761e-07
1.30909e-07
-6.97981e-08
-1.76068e-07
1.1095e-07
-6.33863e-08
-1.05524e-07
9.45846e-08
-5.57033e-08
-4.72621e-08
8.36618e-08
-4.79466e-08
-6.31609e-09
7.75771e-08
-3.27853e-08
7.15688e-08
7.79161e-10
2.66962e-09
3.69938e-08
2.5904e-09
2.82725e-08
4.02979e-08
-1.97668e-08
6.4516e-08
4.30793e-08
-2.95633e-08
1.07504e-07
4.79502e-08
-3.46313e-08
1.59655e-07
5.56543e-08
-4.08597e-08
2.25585e-07
6.61467e-08
-5.00202e-08
3.1038e-07
7.86915e-08
-6.21336e-08
4.16504e-07
9.20842e-08
-7.48964e-08
5.40305e-07
1.02686e-07
-8.35039e-08
6.6528e-07
1.11665e-07
-7.91768e-08
7.21004e-07
1.02486e-07
-5.29305e-08
7.38537e-07
1.5212e-07
2.23085e-08
6.72244e-07
2.16649e-07
1.51195e-07
5.52306e-07
2.69981e-07
2.34688e-07
4.10619e-07
3.12268e-07
2.78518e-07
2.69548e-07
3.40523e-07
2.92388e-07
1.35773e-07
3.58743e-07
2.93912e-07
7.10203e-09
3.67605e-07
2.92971e-07
-1.21521e-07
3.68024e-07
2.93005e-07
-2.55148e-07
3.59994e-07
2.94021e-07
-3.95997e-07
3.42589e-07
2.92628e-07
-5.37504e-07
3.15103e-07
2.79054e-07
-6.57699e-07
2.73516e-07
2.35942e-07
-7.2506e-07
2.20667e-07
1.53484e-07
-7.10346e-07
1.56429e-07
2.63988e-08
-6.57597e-07
1.06089e-07
-5.03944e-08
-5.3296e-07
1.16147e-07
-7.87632e-08
-4.06095e-07
1.08234e-07
-8.60821e-08
-2.93619e-07
9.89828e-08
-8.05492e-08
-1.99058e-07
8.74027e-08
-7.10139e-08
-1.20345e-07
7.74578e-08
-6.15857e-08
-5.46625e-08
7.05418e-08
-5.25627e-08
-8.02744e-09
6.65364e-08
-3.55945e-08
6.16278e-08
1.91353e-09
3.1497e-09
3.06821e-08
3.16192e-09
3.08977e-08
3.33509e-08
-2.0801e-08
6.99427e-08
3.53569e-08
-3.13225e-08
1.1596e-07
3.87619e-08
-3.6829e-08
1.71237e-07
4.40451e-08
-4.36678e-08
2.40196e-07
5.10374e-08
-5.38499e-08
3.27339e-07
5.90751e-08
-6.75262e-08
4.34569e-07
6.75108e-08
-8.26565e-08
5.5683e-07
7.4472e-08
-9.40468e-08
6.78811e-07
8.24708e-08
-9.27871e-08
7.61047e-07
8.71713e-08
-6.6921e-08
7.90585e-07
1.17775e-07
4.80758e-09
7.19177e-07
1.57106e-07
1.3095e-07
5.90373e-07
1.9081e-07
2.07975e-07
4.38166e-07
2.18e-07
2.46476e-07
2.87405e-07
2.36627e-07
2.54657e-07
1.44684e-07
2.48844e-07
2.5262e-07
7.51755e-09
2.5489e-07
2.49881e-07
-1.29609e-07
2.55271e-07
2.49879e-07
-2.72208e-07
2.49973e-07
2.5262e-07
-4.22795e-07
2.38465e-07
2.54711e-07
-5.74912e-07
2.20476e-07
2.46744e-07
-7.04133e-07
1.93835e-07
2.08901e-07
-7.76884e-07
1.60515e-07
1.32904e-07
-7.50565e-07
1.21474e-07
8.63615e-09
-6.70709e-07
9.07889e-08
-6.45551e-08
-5.48759e-07
8.66988e-08
-9.25019e-08
-4.23229e-07
7.9477e-08
-9.67734e-08
-3.09247e-07
7.36035e-08
-8.86026e-08
-2.116e-07
6.66695e-08
-7.69132e-08
-1.28776e-07
6.07558e-08
-6.61223e-08
-5.87474e-08
5.65958e-08
-5.60827e-08
-8.62366e-09
5.40961e-08
-3.76833e-08
5.02504e-08
2.75378e-09
3.42551e-09
2.36587e-08
3.59797e-09
3.27004e-08
2.56678e-08
-2.15918e-08
7.371e-08
2.70133e-08
-3.26661e-08
1.21728e-07
2.92365e-08
-3.84925e-08
1.78871e-07
3.26674e-08
-4.57657e-08
2.494e-07
3.71798e-08
-5.66709e-08
3.37549e-07
4.23725e-08
-7.14462e-08
4.45185e-07
4.80292e-08
-8.81545e-08
5.67571e-07
5.34028e-08
-1.01317e-07
6.9137e-07
6.05285e-08
-1.01857e-07
7.86305e-07
6.82475e-08
-7.60109e-08
8.22198e-07
8.79404e-08
-6.05821e-09
7.48813e-07
1.12416e-07
1.18076e-07
6.14954e-07
1.33947e-07
1.90721e-07
4.56183e-07
1.51527e-07
2.25243e-07
2.99218e-07
1.63909e-07
2.29683e-07
1.50662e-07
1.72154e-07
2.25246e-07
7.89413e-09
1.76339e-07
2.21319e-07
-1.34847e-07
1.76715e-07
2.21298e-07
-2.83323e-07
1.73262e-07
2.25187e-07
-4.40184e-07
1.65692e-07
2.29634e-07
-5.98965e-07
1.53896e-07
2.2536e-07
-7.33378e-07
1.36792e-07
1.91457e-07
-8.08286e-07
1.15596e-07
1.19827e-07
-7.75724e-07
9.13914e-08
-2.47958e-09
-6.82878e-07
7.17207e-08
-7.37775e-08
-5.58882e-07
6.43764e-08
-1.01674e-07
-4.32986e-07
5.77662e-08
-1.04185e-07
-3.18223e-07
5.31732e-08
-9.43327e-08
-2.18981e-07
4.86247e-08
-8.1198e-08
-1.33786e-07
4.4991e-08
-6.94301e-08
-6.10573e-08
4.25121e-08
-5.86448e-08
-8.75894e-09
4.09904e-08
-3.91927e-08
3.81357e-08
3.35574e-09
3.54307e-09
1.6234e-08
3.88162e-09
3.38085e-08
1.75731e-08
-2.21707e-08
7.60892e-08
1.83657e-08
-3.36331e-08
1.25351e-07
1.96467e-08
-3.96723e-08
1.8359e-07
2.16496e-08
-4.72209e-08
2.54999e-07
2.43435e-08
-5.85723e-08
3.43792e-07
2.75856e-08
-7.4007e-08
4.52034e-07
3.13937e-08
-9.16056e-08
5.75549e-07
3.56067e-08
-1.0572e-07
7.01785e-07
4.13821e-08
-1.0709e-07
8.03019e-07
4.84376e-08
-8.14239e-08
8.42501e-07
6.07588e-08
-1.23001e-08
7.67873e-07
7.53145e-08
1.11729e-07
6.30865e-07
8.83656e-08
1.82589e-07
4.68057e-07
9.91038e-08
2.15231e-07
3.07156e-07
1.0692e-07
2.17891e-07
1.54774e-07
1.12215e-07
2.12321e-07
8.26155e-09
1.15015e-07
2.07837e-07
-1.38244e-07
1.1541e-07
2.0781e-07
-2.90602e-07
1.13377e-07
2.12242e-07
-4.5149e-07
1.08775e-07
2.17806e-07
-6.14423e-07
1.01537e-07
2.15292e-07
-7.52107e-07
9.12266e-08
1.8325e-07
-8.28354e-07
7.84403e-08
1.13403e-07
-7.92319e-07
6.40181e-08
-8.66161e-09
-6.9301e-07
5.16927e-08
-7.9282e-08
-5.66404e-07
4.47935e-08
-1.07023e-07
-4.3917e-07
3.9272e-08
-1.08739e-07
-3.23506e-07
3.5501e-08
-9.79923e-08
-2.2319e-07
3.23537e-08
-8.40452e-08
-1.36567e-07
3.00563e-08
-7.16875e-08
-6.22163e-08
2.85867e-08
-6.04258e-08
-8.64947e-09
2.76885e-08
-4.02648e-08
2.57869e-08
3.69929e-09
3.58129e-09
8.63242e-09
4.02026e-09
3.44202e-08
9.29649e-09
-2.25623e-08
7.74541e-08
9.5928e-09
-3.42611e-08
1.27468e-07
1.00554e-08
-4.04227e-08
1.86404e-07
1.08366e-08
-4.81227e-08
2.58449e-07
1.20127e-08
-5.97142e-08
3.47865e-07
1.36659e-08
-7.54967e-08
4.56862e-07
1.59424e-08
-9.35456e-08
5.81575e-07
1.9019e-08
-1.08125e-07
7.09649e-07
2.31604e-08
-1.09852e-07
8.13953e-07
2.8364e-08
-8.42299e-08
8.55118e-07
3.47233e-08
-1.51301e-08
7.79738e-07
4.12853e-08
1.0941e-07
6.40841e-07
4.72902e-08
1.79972e-07
4.75627e-07
5.22431e-08
2.12075e-07
3.12304e-07
5.60945e-08
2.14148e-07
1.5753e-07
5.88036e-08
2.08186e-07
8.6469e-09
6.03903e-08
2.03508e-07
-1.40254e-07
6.08289e-08
2.03482e-07
-2.95076e-07
6.00908e-08
2.08108e-07
-4.58499e-07
5.8135e-08
2.14063e-07
-6.23985e-07
5.48919e-08
2.12131e-07
-7.63714e-07
5.03409e-08
1.80615e-07
-8.40847e-07
4.45252e-08
1.11048e-07
-8.032e-07
3.79365e-08
-1.1566e-08
-7.00748e-07
3.14249e-08
-8.21837e-08
-5.72195e-07
2.61475e-08
-1.09907e-07
-4.43615e-07
2.19888e-08
-1.11297e-07
-3.26996e-07
1.90026e-08
-1.00121e-07
-2.25785e-07
1.69104e-08
-8.57672e-08
-1.38196e-07
1.55655e-08
-7.30986e-08
-6.28441e-08
1.48076e-08
-6.15728e-08
-8.53994e-09
1.43732e-08
-4.09889e-08
1.34091e-08
3.8379e-09
3.5663e-09
1.0513e-09
4.01482e-09
3.46083e-08
1.03633e-09
-2.27819e-08
7.79409e-08
8.34e-10
-3.45737e-08
1.28298e-07
4.75297e-10
-4.07769e-08
1.87637e-07
1.83031e-11
-4.85207e-08
2.60171e-07
-3.40951e-10
-6.01801e-08
3.50211e-07
-3.20069e-10
-7.60543e-08
4.60013e-07
3.53255e-10
-9.42133e-08
5.85681e-07
2.25955e-09
-1.08908e-07
7.14738e-07
4.82077e-09
-1.10717e-07
8.19853e-07
8.37102e-09
-8.51222e-08
8.61228e-07
9.27262e-09
-1.59241e-08
7.85384e-07
8.05839e-09
1.0907e-07
6.4562e-07
7.10616e-09
1.79948e-07
4.79381e-07
6.28494e-09
2.12198e-07
3.14971e-07
6.17985e-09
2.14324e-07
1.59089e-07
6.31569e-09
2.0837e-07
9.07237e-09
6.71549e-09
2.03691e-07
-1.40992e-07
7.22701e-09
2.03666e-07
-2.97014e-07
7.81856e-09
2.08294e-07
-4.6167e-07
8.55251e-09
2.14239e-07
-6.28373e-07
9.34563e-09
2.12249e-07
-7.69176e-07
1.05712e-08
1.80572e-07
-8.46956e-07
1.16391e-08
1.10666e-07
-8.0919e-07
1.26221e-08
-1.2452e-08
-7.05904e-07
1.13353e-08
-8.31955e-08
-5.76311e-07
7.47217e-09
-1.10918e-07
-4.46697e-07
4.62051e-09
-1.12246e-07
-3.29187e-07
2.46683e-09
-1.00974e-07
-2.27235e-07
1.48218e-09
-8.65242e-08
-1.39021e-07
1.1256e-09
-7.37742e-08
-6.31448e-08
1.09851e-09
-6.21667e-08
-8.49819e-09
1.13934e-09
-4.14127e-08
1.12215e-09
3.78876e-09
3.49713e-09
-6.31039e-09
3.86457e-09
3.4371e-08
-7.00487e-09
-2.28327e-08
7.75459e-08
-7.76454e-09
-3.45763e-08
1.27837e-07
-9.07288e-09
-4.07434e-08
1.87262e-07
-1.09721e-08
-4.84345e-08
2.60132e-07
-1.3218e-08
-5.99921e-08
3.50795e-07
-1.52685e-08
-7.57149e-08
4.61419e-07
-1.66103e-08
-9.36607e-08
5.87865e-07
-1.60662e-08
-1.0812e-07
7.17182e-07
-1.47431e-08
-1.09753e-07
8.20975e-07
-1.12109e-08
-8.4211e-08
8.60995e-07
-1.58305e-08
-1.49173e-08
7.84879e-07
-2.62103e-08
1.10385e-07
6.45226e-07
-3.53205e-08
1.8208e-07
4.79334e-07
-4.28995e-08
2.15077e-07
3.15174e-07
-4.74989e-08
2.17839e-07
1.59466e-07
-5.02335e-08
2.12257e-07
9.55823e-09
-5.1132e-08
2.07755e-07
-1.40434e-07
-5.05103e-08
2.07729e-07
-2.96391e-07
-4.84027e-08
2.12179e-07
-4.60976e-07
-4.46034e-08
2.17741e-07
-6.27577e-07
-3.9148e-08
2.15095e-07
-7.68541e-07
-3.10993e-08
1.82634e-07
-8.46858e-07
-2.19148e-08
1.11871e-07
-8.10587e-07
-1.20389e-08
-1.16091e-08
-7.08633e-07
-8.15501e-09
-8.24643e-08
-5.78764e-07
-1.2245e-08
-1.10151e-07
-4.48365e-07
-1.41224e-08
-1.11656e-07
-3.3003e-07
-1.5265e-08
-1.00604e-07
-2.27507e-07
-1.46871e-08
-8.63534e-08
-1.39024e-07
-1.36178e-08
-7.37398e-08
-6.31068e-08
-1.25934e-08
-6.22252e-08
-8.51672e-09
-1.19026e-08
-4.15481e-08
-1.09419e-08
3.54729e-09
3.34591e-09
-1.32204e-08
3.56411e-09
3.36349e-08
-1.45866e-08
-2.27072e-08
7.61278e-08
-1.60019e-08
-3.42555e-08
1.25836e-07
-1.84803e-08
-4.0301e-08
1.84916e-07
-2.2233e-08
-4.78189e-08
2.57805e-07
-2.702e-08
-5.90867e-08
3.48991e-07
-3.20875e-08
-7.43678e-08
4.60616e-07
-3.65396e-08
-9.16951e-08
5.88053e-07
-3.80118e-08
-1.05491e-07
7.17449e-07
-3.75964e-08
-1.06543e-07
8.17142e-07
-2.99145e-08
-8.09893e-08
8.53517e-07
-4.09751e-08
-1.12307e-08
7.77298e-07
-6.46895e-08
1.14698e-07
6.38922e-07
-8.52881e-08
1.88343e-07
4.75018e-07
-1.022e-07
2.23204e-07
3.1265e-07
-1.12791e-07
2.27659e-07
1.58573e-07
-1.19255e-07
2.23099e-07
1.01547e-08
-1.21787e-07
2.19074e-07
-1.38391e-07
-1.20988e-07
2.19023e-07
-2.92851e-07
-1.16884e-07
2.22942e-07
-4.55867e-07
-1.09013e-07
2.27425e-07
-6.20806e-07
-9.7237e-08
2.23028e-07
-7.60871e-07
-7.96802e-08
1.88646e-07
-8.39691e-07
-5.899e-08
1.15895e-07
-8.07255e-07
-3.62276e-08
-8.2471e-09
-7.09379e-07
-2.64949e-08
-7.95363e-08
-5.79433e-07
-3.49409e-08
-1.0725e-07
-4.48104e-07
-3.614e-08
-1.09312e-07
-3.28908e-07
-3.55851e-08
-9.88753e-08
-2.26066e-07
-3.2356e-08
-8.51735e-08
-1.37828e-07
-2.8917e-08
-7.29388e-08
-6.25144e-08
-2.62012e-08
-6.17057e-08
-8.51841e-09
-2.45268e-08
-4.13719e-08
-2.25445e-08
3.08421e-09
3.03651e-09
-1.936e-08
3.10304e-09
3.22101e-08
-2.13711e-08
-2.23891e-08
7.33252e-08
-2.35301e-08
-3.35869e-08
1.21668e-07
-2.74098e-08
-3.94134e-08
1.79559e-07
-3.35098e-08
-4.66146e-08
2.51656e-07
-4.1779e-08
-5.73375e-08
3.42843e-07
-5.1501e-08
-7.17738e-08
4.55577e-07
-6.14173e-08
-8.78563e-08
5.85251e-07
-6.74352e-08
-1.00251e-07
7.1624e-07
-6.87397e-08
-9.98454e-08
8.06841e-07
-4.60089e-08
-7.45062e-08
8.35628e-07
-6.59935e-08
-3.76877e-09
7.59279e-07
-1.11982e-07
1.23641e-07
6.23947e-07
-1.51002e-07
2.01046e-07
4.64624e-07
-1.82254e-07
2.39378e-07
3.06389e-07
-2.01742e-07
2.47185e-07
1.55982e-07
-2.13557e-07
2.44709e-07
1.09125e-08
-2.1839e-07
2.41672e-07
-1.34329e-07
-2.17306e-07
2.41559e-07
-2.85264e-07
-2.10311e-07
2.44362e-07
-4.44402e-07
-1.965e-07
2.46626e-07
-6.05178e-07
-1.75211e-07
2.3875e-07
-7.42723e-07
-1.42927e-07
2.00792e-07
-8.22328e-07
-1.03625e-07
1.2424e-07
-7.97755e-07
-5.93358e-08
-1.46445e-09
-7.08795e-07
-4.19273e-08
-7.35276e-08
-5.77265e-07
-6.5422e-08
-1.01049e-07
-4.43837e-07
-6.50689e-08
-1.04499e-07
-3.23786e-07
-6.02898e-08
-9.53467e-08
-2.21323e-07
-5.20779e-08
-8.2741e-08
-1.34372e-07
-4.46472e-08
-7.12202e-08
-6.07648e-08
-3.93064e-08
-6.05023e-08
-8.26225e-09
-3.62085e-08
-4.08209e-08
-3.31385e-08
2.33182e-09
2.54071e-09
-2.4397e-08
2.4963e-09
3.00141e-08
-2.69861e-08
-2.18584e-08
6.8947e-08
-2.9913e-08
-3.25499e-08
1.14904e-07
-3.53119e-08
-3.80553e-08
1.70295e-07
-4.4111e-08
-4.47895e-08
2.39963e-07
-5.67345e-08
-5.47124e-08
3.2943e-07
-7.3053e-08
-6.79148e-08
4.42086e-07
-9.19661e-08
-8.21071e-08
5.75472e-07
-1.08494e-07
-9.23279e-08
7.14105e-07
-1.17659e-07
-8.97138e-08
7.85537e-07
-5.40381e-08
-6.34025e-08
7.98679e-07
-8.87595e-08
9.62424e-09
7.24557e-07
-1.75563e-07
1.37704e-07
5.9621e-07
-2.42364e-07
2.19709e-07
4.45458e-07
-2.93686e-07
2.62183e-07
2.94764e-07
-3.25811e-07
2.74763e-07
1.50973e-07
-3.44935e-07
2.75169e-07
1.19449e-08
-3.52889e-07
2.73527e-07
-1.27288e-07
-3.51373e-07
2.73301e-07
-2.71735e-07
-3.40339e-07
2.74474e-07
-4.23596e-07
-3.18255e-07
2.73616e-07
-5.76333e-07
-2.83234e-07
2.6076e-07
-7.07629e-07
-2.30141e-07
2.1851e-07
-7.86162e-07
-1.62469e-07
1.37376e-07
-7.77799e-07
-7.88424e-08
1.1144e-08
-7.07328e-07
-4.93345e-08
-6.30636e-08
-5.68236e-07
-1.12767e-07
-9.17467e-08
-4.31344e-07
-1.04737e-07
-9.72243e-08
-3.11728e-07
-8.99021e-08
-9.00033e-08
-2.1151e-07
-7.32814e-08
-7.90145e-08
-1.27691e-07
-5.99719e-08
-6.84949e-08
-5.73809e-08
-5.11133e-08
-5.85028e-08
-7.59131e-09
-4.62048e-08
-3.97933e-08
-4.20035e-08
1.27365e-09
1.73194e-09
-2.78742e-08
1.74531e-09
2.6751e-08
-3.08934e-08
-2.11118e-08
6.23758e-08
-3.43787e-08
-3.11591e-08
1.04253e-07
-4.09478e-08
-3.62412e-08
1.54516e-07
-5.20324e-08
-4.23417e-08
2.17818e-07
-6.88614e-08
-5.11749e-08
3.00321e-07
-9.28764e-08
-6.26794e-08
4.07347e-07
-1.25111e-07
-7.38819e-08
5.43393e-07
-1.64509e-07
-8.00316e-08
7.10022e-07
-2.1462e-07
-6.96675e-08
7.4432e-07
-4.95933e-08
-3.8743e-08
7.20898e-07
-8.96875e-08
2.43502e-08
6.55984e-07
-2.56692e-07
1.46043e-07
5.43002e-07
-3.54799e-07