/*--------------------------------*- C++ -*----------------------------------*\
| =========                 |                                                 |
| \\      /  F ield         | OpenFOAM: The Open Source CFD Toolbox           |
|  \\    /   O peration     | Version:  2112                                  |
|   \\  /    A nd           | Website:  www.openfoam.com                      |
|    \\/     M anipulation  |                                                 |
\*---------------------------------------------------------------------------*/
FoamFile
{
    version     2.0;
    format      ascii;
    arch        "LSB;label=32;scalar=64";
    class       volVectorField;
    location    "2.9";
    object      U;
}
// * * * * * * * * * * * * * * * * * * * * * * * * * * * * * * * * * * * * * //

dimensions      [0 1 -1 0 0 0 0];

internalField   nonuniform List<vector> 
64906
(
(1.46922e-07 5.422e-07 -1.2666e-06)
(2.35356e-06 -9.44909e-07 -1.30469e-06)
(6.04518e-06 -2.44962e-06 -6.98269e-07)
(1.00855e-05 -3.58801e-06 1.02581e-07)
(1.43746e-05 -4.36089e-06 7.3843e-07)
(1.8639e-05 -4.90624e-06 1.19804e-06)
(2.28181e-05 -5.3442e-06 1.55058e-06)
(2.67887e-05 -5.72007e-06 1.8603e-06)
(3.03967e-05 -6.056e-06 2.15631e-06)
(3.31226e-05 -6.23908e-06 2.47599e-06)
(3.46961e-05 -6.15027e-06 2.91454e-06)
(3.46831e-05 -5.71924e-06 3.43107e-06)
(3.28809e-05 -5.49716e-06 3.94895e-06)
(2.95661e-05 -5.32671e-06 4.48024e-06)
(2.49395e-05 -5.32025e-06 4.94758e-06)
(1.93975e-05 -5.34214e-06 5.33135e-06)
(1.3187e-05 -5.39766e-06 5.59621e-06)
(6.61691e-06 -5.44039e-06 5.7345e-06)
(-6.60597e-08 -5.46753e-06 5.73894e-06)
(-6.58641e-06 -5.47916e-06 5.61029e-06)
(-1.26979e-05 -5.4784e-06 5.35609e-06)
(-1.80933e-05 -5.51191e-06 4.98428e-06)
(-2.25315e-05 -5.57317e-06 4.5307e-06)
(-2.56195e-05 -5.79881e-06 4.01381e-06)
(-2.7171e-05 -6.07058e-06 3.50956e-06)
(-2.69244e-05 -6.5446e-06 3.0002e-06)
(-2.50677e-05 -6.62798e-06 2.56404e-06)
(-2.20458e-05 -6.43179e-06 2.18857e-06)
(-1.81565e-05 -5.99545e-06 1.75156e-06)
(-1.39474e-05 -5.33994e-06 1.15472e-06)
(-9.67852e-06 -4.2938e-06 3.14951e-07)
(-5.65086e-06 -2.63885e-06 -7.26338e-07)
(-2.03343e-06 -6.5404e-07 -1.64434e-06)
(1.11251e-07 1.0998e-06 -1.75085e-06)
(-2.10718e-06 5.10922e-06 -2.02663e-06)
(-7.27795e-07 3.9474e-06 -6.36378e-06)
(4.30638e-06 2.30965e-06 -7.61659e-06)
(9.32345e-06 1.0051e-06 -7.86981e-06)
(1.41769e-05 3.50382e-07 -8.08756e-06)
(1.87528e-05 2.9595e-07 -8.54475e-06)
(2.31297e-05 7.59552e-07 -9.30441e-06)
(2.72551e-05 1.76856e-06 -1.03714e-05)
(3.10758e-05 3.38671e-06 -1.17467e-05)
(3.42019e-05 5.90615e-06 -1.34302e-05)
(3.62862e-05 9.249e-06 -1.54671e-05)
(3.63726e-05 1.35697e-05 -1.76957e-05)
(3.43558e-05 1.7295e-05 -1.97939e-05)
(3.07994e-05 2.05475e-05 -2.16178e-05)
(2.58837e-05 2.29312e-05 -2.30993e-05)
(2.00995e-05 2.46998e-05 -2.42288e-05)
(1.36399e-05 2.58162e-05 -2.49951e-05)
(6.83834e-06 2.63673e-05 -2.53985e-05)
(-7.93484e-08 2.63545e-05 -2.54344e-05)
(-6.82588e-06 2.5778e-05 -2.51027e-05)
(-1.3177e-05 2.46375e-05 -2.4408e-05)
(-1.88008e-05 2.28471e-05 -2.33503e-05)
(-2.35112e-05 2.04501e-05 -2.19425e-05)
(-2.68195e-05 1.71956e-05 -2.01972e-05)
(-2.85602e-05 1.34999e-05 -1.81883e-05)
(-2.8158e-05 9.24532e-06 -1.60704e-05)
(-2.57501e-05 6.06894e-06 -1.41923e-05)
(-2.22776e-05 3.79633e-06 -1.27129e-05)
(-1.80081e-05 2.62537e-06 -1.16262e-05)
(-1.32945e-05 2.38839e-06 -1.09458e-05)
(-8.10587e-06 3.16469e-06 -1.05998e-05)
(-2.75917e-06 4.94521e-06 -1.02772e-05)
(2.44172e-06 7.03694e-06 -8.65041e-06)
(3.25321e-06 8.2236e-06 -2.95472e-06)
(-3.6271e-06 1.40661e-05 -1.82986e-06)
(-2.90868e-06 1.49016e-05 -7.9375e-06)
(2.84722e-06 1.45097e-05 -9.9366e-06)
(8.60412e-06 1.43188e-05 -1.05793e-05)
(1.42303e-05 1.50387e-05 -1.1124e-05)
(1.95006e-05 1.68027e-05 -1.19481e-05)
(2.46009e-05 1.97025e-05 -1.31854e-05)
(2.95644e-05 2.39899e-05 -1.48917e-05)
(3.44784e-05 2.99539e-05 -1.70992e-05)
(3.86789e-05 3.82738e-05 -1.98362e-05)
(4.17772e-05 4.84723e-05 -2.30403e-05)
(4.2065e-05 6.09017e-05 -2.6534e-05)
(3.93622e-05 7.18806e-05 -2.98501e-05)
(3.49147e-05 8.15227e-05 -3.27512e-05)
(2.89773e-05 8.8898e-05 -3.51189e-05)
(2.22816e-05 9.44812e-05 -3.69249e-05)
(1.49223e-05 9.81358e-05 -3.81461e-05)
(7.2684e-06 9.99978e-05 -3.87867e-05)
(-5.03173e-07 0.000100049 -3.88384e-05)
(-8.09886e-06 9.82897e-05 -3.83009e-05)
(-1.53433e-05 9.47417e-05 -3.71824e-05)
(-2.18656e-05 8.92717e-05 -3.54799e-05)
(-2.75773e-05 8.2031e-05 -3.32182e-05)
(-3.17409e-05 7.25529e-05 -3.04301e-05)
(-3.41183e-05 6.18105e-05 -2.72421e-05)
(-3.3443e-05 4.96915e-05 -2.39057e-05)
(-2.99107e-05 3.9965e-05 -2.09077e-05)
(-2.51937e-05 3.22674e-05 -1.84418e-05)
(-1.95574e-05 2.71898e-05 -1.65903e-05)
(-1.35975e-05 2.41432e-05 -1.5315e-05)
(-7.17155e-06 2.2895e-05 -1.44504e-05)
(-7.16747e-07 2.29964e-05 -1.35076e-05)
(5.5136e-06 2.33911e-05 -1.08602e-05)
(5.36367e-06 2.19364e-05 -2.81745e-06)
(-4.62942e-06 2.35462e-05 -1.27044e-06)
(-4.20016e-06 2.56566e-05 -8.11656e-06)
(2.3707e-06 2.62155e-05 -1.03672e-05)
(9.10325e-06 2.72419e-05 -1.11011e-05)
(1.58391e-05 2.94986e-05 -1.17354e-05)
(2.22868e-05 3.32181e-05 -1.2703e-05)
(2.87798e-05 3.86432e-05 -1.41778e-05)
(3.54735e-05 4.62998e-05 -1.62545e-05)
(4.2709e-05 5.68308e-05 -1.89798e-05)
(4.93848e-05 7.16598e-05 -2.24106e-05)
(5.49631e-05 9.02859e-05 -2.64267e-05)
(5.56801e-05 0.000113636 -3.08893e-05)
(5.12547e-05 0.000133659 -3.5097e-05)
(4.46886e-05 0.000150937 -3.87642e-05)
(3.63951e-05 0.000163953 -4.1742e-05)
(2.75718e-05 0.000173814 -4.39884e-05)
(1.80778e-05 0.000180278 -4.54904e-05)
(8.35933e-06 0.000183592 -4.62733e-05)
(-1.48971e-06 0.00018371 -4.63298e-05)
(-1.11474e-05 0.000180631 -4.56592e-05)
(-2.05206e-05 0.000174406 -4.42683e-05)
(-2.91548e-05 0.000164787 -4.21326e-05)
(-3.71949e-05 0.000152041 -3.92658e-05)
(-4.3421e-05 0.00013507 -3.57159e-05)
(-4.74438e-05 0.000115464 -3.16407e-05)
(-4.621e-05 9.26301e-05 -2.73426e-05)
(-4.00414e-05 7.47927e-05 -2.35466e-05)
(-3.26587e-05 6.08841e-05 -2.04098e-05)
(-2.4404e-05 5.15625e-05 -1.80688e-05)
(-1.63223e-05 4.54703e-05 -1.64519e-05)
(-8.04791e-06 4.20116e-05 -1.5359e-05)
(-1.13866e-07 4.04797e-05 -1.42267e-05)
(7.27057e-06 3.96571e-05 -1.12289e-05)
(6.73605e-06 3.65262e-05 -2.17522e-06)
(-5.18885e-06 3.31652e-05 -6.76198e-07)
(-4.5976e-06 3.62921e-05 -8.14313e-06)
(3.17449e-06 3.77543e-05 -1.0594e-05)
(1.12523e-05 4.00236e-05 -1.13769e-05)
(1.95113e-05 4.39397e-05 -1.20911e-05)
(2.76651e-05 4.97696e-05 -1.32368e-05)
(3.6296e-05 5.78651e-05 -1.50303e-05)
(4.58002e-05 6.90605e-05 -1.76134e-05)
(5.70768e-05 8.45657e-05 -2.10266e-05)
(6.83717e-05 0.00010722 -2.53728e-05)
(7.90843e-05 0.000136992 -3.04245e-05)
(8.06075e-05 0.00017683 -3.62979e-05)
(7.24371e-05 0.000209138 -4.17455e-05)
(6.18155e-05 0.000236229 -4.65297e-05)
(4.93086e-05 0.000256045 -5.04165e-05)
(3.68213e-05 0.00027109 -5.32742e-05)
(2.36236e-05 0.000280929 -5.51521e-05)
(1.03069e-05 0.000285996 -5.61221e-05)
(-3.17705e-06 0.000286189 -5.61832e-05)
(-1.64327e-05 0.000281506 -5.53342e-05)
(-2.95087e-05 0.000272046 -5.35744e-05)
(-4.17946e-05 0.000257374 -5.08324e-05)
(-5.40216e-05 0.000237951 -4.70579e-05)
(-6.42322e-05 0.00021128 -4.23894e-05)
(-7.19005e-05 0.000179541 -3.70723e-05)
(-6.96671e-05 0.000140384 -3.13631e-05)
(-5.81706e-05 0.000111752 -2.65448e-05)
(-4.5997e-05 9.0285e-05 -2.25146e-05)
(-3.34077e-05 7.62683e-05 -1.95202e-05)
(-2.21324e-05 6.69293e-05 -1.74469e-05)
(-1.12598e-05 6.11596e-05 -1.60878e-05)
(-1.26547e-06 5.7985e-05 -1.479e-05)
(7.83794e-06 5.60589e-05 -1.14719e-05)
(7.53678e-06 5.1574e-05 -1.48257e-06)
(-5.52942e-06 4.22893e-05 -1.18242e-07)
(-4.31886e-06 4.62048e-05 -8.30677e-06)
(5.1956e-06 4.84703e-05 -1.10366e-05)
(1.50861e-05 5.19571e-05 -1.18919e-05)
(2.53524e-05 5.75869e-05 -1.27384e-05)
(3.57361e-05 6.55809e-05 -1.41647e-05)
(4.71925e-05 7.6299e-05 -1.64335e-05)
(6.0568e-05 9.08036e-05 -1.97409e-05)
(7.79428e-05 0.000111088 -2.40493e-05)
(9.69799e-05 0.000142517 -2.94929e-05)
(0.000117986 0.000186645 -3.53616e-05)
(0.000121181 0.000253199 -4.30166e-05)
(0.000105387 0.000302208 -5.00783e-05)
(8.78694e-05 0.00034147 -5.65717e-05)
(6.87892e-05 0.000369046 -6.19219e-05)
(5.08803e-05 0.000390119 -6.56365e-05)
(3.2085e-05 0.000403859 -6.80166e-05)
(1.33002e-05 0.000410972 -6.92315e-05)
(-5.73917e-06 0.000411252 -6.93002e-05)
(-2.44696e-05 0.00040469 -6.82209e-05)
(-4.31575e-05 0.000391484 -6.59712e-05)
(-6.08718e-05 0.000370909 -6.23823e-05)
(-7.96689e-05 0.000343825 -5.71487e-05)
(-9.67079e-05 0.000305041 -5.07718e-05)
(-0.000111896 0.000256704 -4.38416e-05)
(-0.000107693 0.000190904 -3.63418e-05)
(-8.56592e-05 0.000148409 -3.07251e-05)
(-6.56351e-05 0.000118404 -2.56251e-05)
(-4.66458e-05 9.9838e-05 -2.17841e-05)
(-3.10694e-05 8.74531e-05 -1.90585e-05)
(-1.67968e-05 7.94719e-05 -1.73052e-05)
(-4.03234e-06 7.47611e-05 -1.57514e-05)
(7.56533e-06 7.18422e-05 -1.19839e-05)
(8.08336e-06 6.6292e-05 -8.40379e-07)
(-5.76671e-06 5.06476e-05 4.53505e-07)
(-3.52861e-06 5.52591e-05 -8.66485e-06)
(8.3768e-06 5.83191e-05 -1.17843e-05)
(2.06575e-05 6.31471e-05 -1.2768e-05)
(3.3463e-05 7.07247e-05 -1.38168e-05)
(4.65462e-05 8.11265e-05 -1.5634e-05)
(6.12868e-05 9.45001e-05 -1.85273e-05)
(7.92202e-05 0.000111649 -2.27502e-05)
(0.000104722 0.000135242 -2.80783e-05)
(0.000135316 0.000173565 -3.44844e-05)
(0.000176821 0.000234231 -4.01466e-05)
(0.000183845 0.000346288 -4.96748e-05)
(0.000152247 0.000417364 -5.82443e-05)
(0.000123791 0.000471641 -6.7197e-05)
(9.5458e-05 0.000508432 -7.48347e-05)
(7.03671e-05 0.000537105 -7.94989e-05)
(4.38579e-05 0.000555836 -8.24369e-05)
(1.74955e-05 0.000565589 -8.39154e-05)
(-9.3006e-06 0.000565976 -8.39951e-05)
(-3.56277e-05 0.000556981 -8.26732e-05)
(-6.2072e-05 0.000538971 -7.98842e-05)
(-8.7017e-05 0.000510936 -7.53623e-05)
(-0.000115124 0.000474716 -6.78494e-05)
(-0.000143064 0.000420894 -5.90204e-05)
(-0.000174007 0.000350482 -5.0595e-05)
(-0.000165462 0.000239038 -4.12029e-05)
(-0.000122591 0.000180886 -3.58269e-05)
(-9.10894e-05 0.000144128 -2.9787e-05)
(-6.36501e-05 0.000122397 -2.49873e-05)
(-4.29803e-05 0.000107572 -2.14361e-05)
(-2.46261e-05 9.73601e-05 -1.91603e-05)
(-8.36281e-06 9.0976e-05 -1.72439e-05)
(6.65134e-06 8.69638e-05 -1.28032e-05)
(8.56811e-06 8.04246e-05 -1.7108e-07)
(-5.93427e-06 5.79198e-05 1.09515e-06)
(-2.22611e-06 6.3126e-05 -9.20355e-06)
(1.28764e-05 6.70236e-05 -1.28356e-05)
(2.83208e-05 7.3362e-05 -1.40129e-05)
(4.43727e-05 8.3194e-05 -1.53401e-05)
(6.06572e-05 9.63344e-05 -1.76642e-05)
(7.86544e-05 0.000112368 -2.13434e-05)
(0.000100504 0.000130879 -2.67372e-05)
(0.000133278 0.000153751 -3.31825e-05)
(0.000177745 0.000194297 -4.09872e-05)
(0.000260537 0.000267154 -4.07906e-05)
(0.00027759 0.000462006 -5.00751e-05)
(0.000215036 0.000556915 -6.05175e-05)
(0.00017219 0.000625361 -7.38793e-05)
(0.000132237 0.000670912 -8.53326e-05)
(9.79669e-05 0.000707114 -9.09039e-05)
(6.06714e-05 0.000730989 -9.4368e-05)
(2.35087e-05 0.000743527 -9.60814e-05)
(-1.44059e-05 0.000744049 -9.61736e-05)
(-5.15676e-05 0.000732532 -9.46411e-05)
(-8.88821e-05 0.000709619 -9.13487e-05)
(-0.00012313 0.000674233 -8.59443e-05)
(-0.000163046 0.000629327 -7.46313e-05)
(-0.000205473 0.000561185 -6.14144e-05)
(-0.000267546 0.00046684 -5.11866e-05)
(-0.000247959 0.000272097 -4.19373e-05)
(-0.000163282 0.000203647 -4.24279e-05)
(-0.000118451 0.000164416 -3.5025e-05)
(-8.33112e-05 0.000143324 -2.92009e-05)
(-5.80148e-05 0.000127171 -2.45991e-05)
(-3.53082e-05 0.000114629 -2.1668e-05)
(-1.46831e-05 0.000106234 -1.92696e-05)
(4.96719e-06 0.000100962 -1.3908e-05)
(8.98825e-06 9.35221e-05 6.44061e-07)
(-6.06095e-06 6.38138e-05 1.82882e-06)
(-4.03911e-07 6.95615e-05 -9.90994e-06)
(1.88072e-05 7.44904e-05 -1.41889e-05)
(3.83424e-05 8.27967e-05 -1.56167e-05)
(5.85628e-05 9.58084e-05 -1.72753e-05)
(7.87258e-05 0.000113247 -2.01607e-05)
(9.97094e-05 0.000134109 -2.47095e-05)
(0.00012289 0.00015478 -3.1409e-05)
(0.000159451 0.000175581 -4.00602e-05)
(0.00020989 0.000206398 -4.79483e-05)
(0.000370755 0.000226747 -5.01385e-05)
(0.000413154 0.000581016 -4.50769e-05)
(0.000285972 0.00070895 -5.40415e-05)
(0.000230118 0.000797311 -7.41192e-05)
(0.000178382 0.000856929 -9.06401e-05)
(0.000133178 0.000906013 -9.67476e-05)
(8.23612e-05 0.000938715 -0.000101089)
(3.13367e-05 0.000955711 -0.000103145)
(-2.09525e-05 0.000956408 -0.000103245)
(-7.20253e-05 0.000940783 -0.000101386)
(-0.000122985 0.000909392 -9.72281e-05)
(-0.000168384 0.000861425 -9.13028e-05)
(-0.000220502 0.000802635 -7.49244e-05)
(-0.000276212 0.000714482 -5.50326e-05)
(-0.000403648 0.000586736 -4.6359e-05)
(-0.000356671 0.000229828 -5.17875e-05)
(-0.000193327 0.000217053 -4.96613e-05)
(-0.000144248 0.000187485 -4.20569e-05)
(-0.000104503 0.000168518 -3.4164e-05)
(-7.68958e-05 0.00015015 -2.84101e-05)
(-4.97262e-05 0.000133028 -2.47821e-05)
(-2.35705e-05 0.000121038 -2.18422e-05)
(2.31948e-06 0.000113664 -1.53268e-05)
(9.36055e-06 0.000105188 1.63604e-06)
(-6.04096e-06 6.77987e-05 2.67504e-06)
(2.22327e-06 7.38996e-05 -1.0777e-05)
(2.68306e-05 7.97942e-05 -1.58471e-05)
(5.20823e-05 9.00632e-05 -1.75902e-05)
(7.86789e-05 0.000106487 -1.96554e-05)
(0.000105537 0.000129064 -2.31886e-05)
(0.000131241 0.000156159 -2.86508e-05)
(0.000156385 0.00018008 -3.76775e-05)
(0.000186652 0.000187777 -4.79603e-05)
(0.000152841 0.000112766 -7.02388e-05)
(0.000444678 0.000210903 -7.26306e-05)
(0.000603952 0.00083282 -1.91466e-05)
(0.000375535 0.000904388 -2.2237e-05)
(0.00031766 0.000968364 -4.47045e-05)
(0.000252471 0.00103464 -6.42313e-05)
(0.000190019 0.00108931 -6.65728e-05)
(0.000117011 0.00112861 -6.97348e-05)
(4.35555e-05 0.00114895 -7.13262e-05)
(-3.13493e-05 0.00114985 -7.14055e-05)
(-0.000104882 0.00113128 -6.99745e-05)
(-0.000178143 0.00109368 -6.6943e-05)
(-0.000241042 0.00104055 -6.47818e-05)
(-0.000307163 0.000975403 -4.538e-05)
(-0.00036569 0.000911362 -2.31064e-05)
(-0.000598505 0.00083642 -2.07082e-05)
(-0.000431847 0.000214173 -7.49861e-05)
(-0.000134501 0.000131255 -7.12903e-05)
(-0.000171508 0.000204069 -4.96883e-05)
(-0.000137047 0.000195695 -4.06742e-05)
(-0.000106495 0.000173172 -3.29075e-05)
(-7.28057e-05 0.000149722 -2.86276e-05)
(-3.78081e-05 0.000133102 -2.50949e-05)
(-2.58978e-06 0.000123248 -1.71255e-05)
(9.23841e-06 0.000113924 2.90558e-06)
(-5.99459e-06 6.94172e-05 3.50085e-06)
(5.32128e-06 7.58953e-05 -1.18228e-05)
(3.62926e-05 8.26617e-05 -1.78076e-05)
(6.85789e-05 9.50496e-05 -1.99383e-05)
(0.000103748 0.000115912 -2.24878e-05)
(0.000140567 0.000147486 -2.64761e-05)
(0.000175359 0.000192836 -3.21091e-05)
(0.000200971 0.000253868 -3.79604e-05)
(0.000164746 0.000332556 -5.64645e-05)
(0.000168721 0.000380694 -8.76565e-05)
(0.000273682 0.00071809 7.04002e-05)
(0.000310397 0.000916784 3.15138e-05)
(0.000381231 0.00104532 1.82671e-05)
(0.000333456 0.00115986 1.83747e-05)
(0.000252141 0.00124113 1.37903e-05)
(0.000156871 0.0012951 9.16594e-06)
(5.76692e-05 0.00132144 7.06793e-06)
(-4.3079e-05 0.00132247 7.07313e-06)
(-0.000142377 0.0012982 9.1745e-06)
(-0.000237948 0.00124639 1.38068e-05)
(-0.000319901 0.00116745 1.84067e-05)
(-0.000369352 0.00105539 1.83794e-05)
(-0.000302436 0.000929277 3.12355e-05)
(-0.000268674 0.000730663 6.89028e-05)
(-0.000165051 0.000393174 -8.50243e-05)
(-0.000157636 0.00034696 -5.77637e-05)
(-0.000184871 0.000268503 -4.14762e-05)
(-0.000150377 0.000209345 -3.72219e-05)
(-0.000104759 0.000167991 -3.3088e-05)
(-5.70004e-05 0.000142902 -2.91864e-05)
(-9.37825e-06 0.000129471 -1.94856e-05)
(8.83498e-06 0.000118586 4.22502e-06)
(-5.54262e-06 6.8072e-05 4.35834e-06)
(9.35085e-06 7.46044e-05 -1.30797e-05)
(4.78543e-05 8.13408e-05 -1.99756e-05)
(8.98334e-05 9.39077e-05 -2.25847e-05)
(0.000139447 0.000115322 -2.58935e-05)
(0.000200298 0.000148416 -3.10977e-05)
(0.000277873 0.000197826 -3.83878e-05)
(0.000385859 0.000269332 -4.4733e-05)
(0.000516343 0.000372691 -4.85541e-05)
(0.000779349 0.000517052 -3.11861e-05)
(0.000806739 0.000145626 5.03642e-05)
(0.000624643 0.000308732 6.85492e-05)
(0.000692848 0.000678474 0.000129221)
(0.000623932 0.000888911 0.000185353)
(0.000498997 0.00103842 0.000216909)
(0.000357083 0.0011377 0.000226901)
(0.000215241 0.00119892 0.000228276)
(7.68947e-05 0.001228 0.00022809)
(-5.98609e-05 0.00122897 0.000228156)
(-0.000198138 0.00120187 0.000228472)
(-0.000339857 0.00114277 0.000227251)
(-0.000481542 0.00104591 0.000217522)
(-0.000606307 0.000899233 0.000186529)
(-0.00067518 0.000692142 0.000131056)
(-0.000605197 0.000325232 7.16576e-05)
(-0.000794741 0.000149035 5.30124e-05)
(-0.000774263 0.000520167 -3.0236e-05)
(-0.000505984 0.000381987 -5.02624e-05)
(-0.000369042 0.000281514 -4.85734e-05)
(-0.000251601 0.000213042 -4.4428e-05)
(-0.000161243 0.000168112 -3.91011e-05)
(-8.66524e-05 0.000141752 -3.42342e-05)
(-2.07395e-05 0.000128031 -2.26064e-05)
(6.58407e-06 0.000116846 5.97817e-06)
(-5.31313e-06 6.38369e-05 5.18371e-06)
(1.2632e-05 6.98517e-05 -1.42738e-05)
(5.75485e-05 7.56272e-05 -2.20366e-05)
(0.000107154 8.6154e-05 -2.51034e-05)
(0.000166753 0.000103454 -2.91004e-05)
(0.000241194 0.000128473 -3.54177e-05)
(0.000336892 0.00016135 -4.40777e-05)
(0.000465578 0.000199466 -5.22559e-05)
(0.000620798 0.000232069 -5.58994e-05)
(0.000851095 0.000248429 -4.40643e-05)
(0.000959384 0.000123401 -1.7873e-05)
(0.000938446 0.000309396 2.84189e-05)
(0.000913474 0.000501832 0.00013951)
(0.000782326 0.000643636 0.000212123)
(0.000616303 0.000753398 0.000249439)
(0.000435049 0.000826824 0.000264461)
(0.000259817 0.000873114 0.000268159)
(9.18426e-05 0.000895454 0.00026876)
(-7.29159e-05 0.000896248 0.000268825)
(-0.000240766 0.000875511 0.000268353)
(-0.000415768 0.000830865 0.000264818)
(-0.000596644 0.00075911 0.000250079)
(-0.000762568 0.000650975 0.000213399)
(-0.000893975 0.000510209 0.000141635)
(-0.000919731 0.000317727 3.22166e-05)
(-0.000946056 0.000126795 -1.54189e-05)
(-0.000842373 0.000255503 -4.36885e-05)
(-0.000609988 0.000241388 -5.79006e-05)
(-0.000448216 0.000210961 -5.6613e-05)
(-0.000308983 0.000175744 -5.09863e-05)
(-0.000198578 0.00014721 -4.46526e-05)
(-0.000107791 0.00012854 -3.88323e-05)
(-2.8377e-05 0.000118281 -2.53731e-05)
(5.72412e-06 0.000108711 7.47772e-06)
(-5.17685e-06 5.7288e-05 5.95598e-06)
(1.53352e-05 6.25539e-05 -1.52763e-05)
(6.56918e-05 6.72042e-05 -2.37954e-05)
(0.000121456 7.54562e-05 -2.724e-05)
(0.000188531 8.86662e-05 -3.18216e-05)
(0.000271958 0.000107011 -3.92227e-05)
(0.000378087 0.000129591 -4.96676e-05)
(0.000516245 0.000154294 -6.12832e-05)
(0.000679285 0.000174562 -7.01025e-05)
(0.000876872 0.000190954 -6.86829e-05)
(0.00101092 0.000159473 -4.99308e-05)
(0.00107168 0.000249203 1.02292e-05)
(0.0010422 0.000364526 0.000125456)
(0.000888764 0.000460206 0.000196025)
(0.000695372 0.000535599 0.000231746)
(0.000486832 0.000585302 0.000241119)
(0.000289689 0.000617048 0.000241037)
(0.000101917 0.000632389 0.000239719)
(-8.1499e-05 0.000633038 0.000239749)
(-0.000269125 0.000618996 0.000241125)
(-0.000466008 0.000588546 0.000241299)
(-0.000674153 0.000540101 0.000232134)
(-0.000867581 0.000465888 0.000196996)
(-0.00102154 0.000371039 0.000127267)
(-0.00105386 0.000256235 1.37435e-05)
(-0.000998341 0.000164612 -4.78319e-05)
(-0.000866947 0.000197478 -6.82325e-05)
(-0.000667336 0.000182859 -7.21487e-05)
(-0.000497487 0.000164724 -6.5909e-05)
(-0.000347954 0.000142804 -5.71615e-05)
(-0.000225507 0.000124246 -4.93407e-05)
(-0.000123587 0.000111529 -4.25432e-05)
(-3.37953e-05 0.000104277 -2.75044e-05)
(5.36442e-06 9.62727e-05 8.83119e-06)
(-5.25651e-06 4.88535e-05 6.58835e-06)
(1.70863e-05 5.31893e-05 -1.60713e-05)
(7.14447e-05 5.65985e-05 -2.52071e-05)
(0.00013136 6.24503e-05 -2.8942e-05)
(0.000202901 7.15756e-05 -3.39564e-05)
(0.000290786 8.37412e-05 -4.21639e-05)
(0.000401158 9.78338e-05 -5.39266e-05)
(0.000541575 0.00011254 -6.77605e-05)
(0.000706237 0.000124123 -7.93701e-05)
(0.000893273 0.000136398 -8.1226e-05)
(0.00104429 0.000137238 -6.24978e-05)
(0.00114435 0.000191663 -5.54768e-06)
(0.00111681 0.000262592 0.000106962)
(0.000950708 0.000321962 0.000170448)
(0.000742898 0.000369589 0.000200502)
(0.000519173 0.000401974 0.000204262)
(0.000308864 0.00042313 0.000200794)
(0.000108525 0.000433528 0.000197778)
(-8.69137e-05 0.000434092 0.000197776)
(-0.000287128 0.000424806 0.000200781)
(-0.00049723 0.000404717 0.000204267)
(-0.000720646 0.000373309 0.000200637)
(-0.000928681 0.000326544 0.000171103)
(-0.00109553 0.000267772 0.000108445)
(-0.00112669 0.000197298 -2.27263e-06)
(-0.00103162 0.000142486 -6.05536e-05)
(-0.000882342 0.000142704 -8.08999e-05)
(-0.00069313 0.000131742 -8.15438e-05)
(-0.000521259 0.00012192 -7.26295e-05)
(-0.000368683 0.000109618 -6.18501e-05)
(-0.000240679 9.89469e-05 -5.29023e-05)
(-0.000132665 9.14038e-05 -4.53353e-05)
(-3.63312e-05 8.69246e-05 -2.90652e-05)
(5.76294e-06 8.06425e-05 9.86282e-06)
(-5.40215e-06 3.91954e-05 7.0821e-06)
(1.82113e-05 4.25871e-05 -1.66723e-05)
(7.54543e-05 4.49726e-05 -2.62779e-05)
(0.000138212 4.89526e-05 -3.02209e-05)
(0.000212586 5.50913e-05 -3.55382e-05)
(0.000302962 6.31558e-05 -4.43105e-05)
(0.000415389 7.23747e-05 -5.69944e-05)
(0.000556523 8.21944e-05 -7.2276e-05)
(0.000722096 9.09244e-05 -8.55988e-05)
(0.000907471 0.000102007 -8.92738e-05)
(0.00106954 0.000112403 -7.03488e-05)
(0.00118831 0.000147357 -1.48821e-05)
(0.00116276 0.000191143 9.58506e-05)
(0.000990451 0.000229374 0.000155058)
(0.000773855 0.000260484 0.000181365)
(0.000540503 0.000282112 0.00018162)
(0.000321649 0.000296412 0.000175967)
(0.000113051 0.000303579 0.000171873)
(-9.0358e-05 0.000304115 0.000171854)
(-0.00029887 0.000297996 0.000175903)
(-0.000517598 0.000284676 0.000181535)
(-0.000750759 0.000263913 0.000181365)
(-0.000967763 0.000233531 0.000155542)
(-0.00114102 0.000195818 9.71596e-05)
(-0.00117054 0.000152456 -1.17521e-05)
(-0.00105656 0.000117526 -6.85111e-05)
(-0.000895761 0.000107834 -8.90303e-05)
(-0.000707962 9.76729e-05 -8.78861e-05)
(-0.000534743 9.02939e-05 -7.73312e-05)
(-0.000380786 8.23674e-05 -6.52204e-05)
(-0.000249717 7.58126e-05 -5.54704e-05)
(-0.000138044 7.12512e-05 -4.7343e-05)
(-3.74826e-05 6.84666e-05 -3.0172e-05)
(6.30932e-06 6.36498e-05 1.06414e-05)
(-5.58074e-06 2.87405e-05 7.41742e-06)
(1.88313e-05 3.11554e-05 -1.71116e-05)
(7.79796e-05 3.26666e-05 -2.70474e-05)
(0.000142546 3.51272e-05 -3.11265e-05)
(0.000218635 3.89325e-05 -3.66303e-05)
(0.000310425 4.39622e-05 -4.57407e-05)
(0.000424018 4.9835e-05 -5.89591e-05)
(0.000565798 5.64583e-05 -7.50188e-05)
(0.00073276 6.33065e-05 -8.92085e-05)
(0.000919526 7.27131e-05 -9.36565e-05)
(0.00108831 8.39083e-05 -7.48463e-05)
(0.00121652 0.000106327 -2.01035e-05)
(0.00119222 0.00013349 9.06954e-05)
(0.00101607 0.000157623 0.000148275)
(0.00079405 0.000177423 0.000172925)
(0.000554732 0.00019162 0.000171604)
(0.000330336 0.000201165 0.000164977)
(0.000116259 0.000206102 0.000160407)
(-9.25124e-05 0.000206648 0.000160383)
(-0.000306558 0.000202774 0.000164898)
(-0.000530935 0.000194198 0.00017149)
(-0.000770211 0.000180825 0.000172882)
(-0.000992821 0.000161667 0.000148698)
(-0.00117007 0.000137967 9.19378e-05)
(-0.00119856 0.000111109 -1.69602e-05)
(-0.00107508 8.87396e-05 -7.30868e-05)
(-0.000907268 7.79276e-05 -9.35076e-05)
(-0.000717843 6.90777e-05 -9.16188e-05)
(-0.000542875 6.31147e-05 -8.02424e-05)
(-0.000387768 5.77728e-05 -6.74224e-05)
(-0.000254821 5.37075e-05 -5.72082e-05)
(-0.000140964 5.10185e-05 -4.87334e-05)
(-3.78189e-05 4.93625e-05 -3.09592e-05)
(6.87491e-06 4.59705e-05 1.11334e-05)
(-5.72388e-06 1.78903e-05 7.60545e-06)
(1.91358e-05 1.9334e-05 -1.74083e-05)
(7.941e-05 2.01105e-05 -2.75464e-05)
(0.000145055 2.1349e-05 -3.17037e-05)
(0.000222199 2.33262e-05 -3.73094e-05)
(0.000314933 2.60757e-05 -4.66008e-05)
(0.000429444 2.95609e-05 -6.00998e-05)
(0.000572082 3.39139e-05 -7.65465e-05)
(0.000740488 3.91763e-05 -9.1152e-05)
(0.000929043 4.63436e-05 -9.592e-05)
(0.0011016 5.52725e-05 -7.71201e-05)
(0.00123423 6.84559e-05 -2.23772e-05)
(0.00121044 8.33482e-05 8.89918e-05)
(0.00103205 9.6839e-05 0.000146336)
(0.000806788 0.000107975 0.000170548)
(0.00056389 0.000116279 0.000168732)
(0.000336039 0.000121979 0.000161787)
(0.00011852 0.000125103 0.000157061)
(-9.36677e-05 0.000125694 0.000157039)
(-0.000311225 0.000123714 0.000161711)
(-0.000539194 0.000119038 0.000168622)
(-0.000782242 0.000111574 0.000170505)
(-0.00100832 0.000101029 0.00014675)
(-0.00118803 8.7866e-05 9.02105e-05)
(-0.00121618 7.30624e-05 -1.93015e-05)
(-0.00108827 5.97905e-05 -7.54371e-05)
(-0.000916525 5.09231e-05 -9.58662e-05)
(-0.000725139 4.39277e-05 -9.36824e-05)
(-0.000548478 3.90496e-05 -8.19203e-05)
(-0.000392185 3.53084e-05 -6.87525e-05)
(-0.000257879 3.27278e-05 -5.82967e-05)
(-0.000142623 3.11595e-05 -4.9631e-05)
(-3.79296e-05 3.02203e-05 -3.14945e-05)
(7.26236e-06 2.8166e-05 1.14e-05)
(-5.81345e-06 6.92254e-06 7.64706e-06)
(1.91923e-05 7.3858e-06 -1.75755e-05)
(7.98899e-05 7.45984e-06 -2.77949e-05)
(0.000145989 7.55016e-06 -3.19794e-05)
(0.000223662 7.82216e-06 -3.76148e-05)
(0.000317022 8.4464e-06 -4.69583e-05)
(0.000432324 9.71149e-06 -6.05319e-05)
(0.000575973 1.19061e-05 -7.70709e-05)
(0.000745666 1.54601e-05 -9.17784e-05)
(0.000935629 2.01869e-05 -9.66195e-05)
(0.00110959 2.62317e-05 -7.78391e-05)
(0.00124308 3.1375e-05 -2.30118e-05)
(0.00121907 3.53593e-05 8.87896e-05)
(0.00103964 3.9123e-05 0.000146425)
(0.000812954 4.22141e-05 0.000170768)
(0.000568529 4.4969e-05 0.000168998)
(0.000339086 4.70483e-05 0.000162061)
(0.000119958 4.8477e-05 0.000157334)
(-9.38857e-05 4.91432e-05 0.000157315)
(-0.000313142 4.90039e-05 0.000161988)
(-0.000542873 4.80615e-05 0.000168892)
(-0.000787698 4.6217e-05 0.000170728)
(-0.0010155 4.36979e-05 0.000146832)
(-0.00119654 4.01597e-05 8.99829e-05)
(-0.00122514 3.6018e-05 -2.0007e-05)
(-0.00109639 3.0515e-05 -7.62475e-05)
(-0.000923168 2.41897e-05 -9.6679e-05)
(-0.00073028 1.92334e-05 -9.44397e-05)
(-0.000552211 1.55453e-05 -8.25927e-05)
(-0.000394766 1.32856e-05 -6.93443e-05)
(-0.000259487 1.20073e-05 -5.88263e-05)
(-0.00014342 1.14028e-05 -5.01022e-05)
(-3.79989e-05 1.11e-05 -3.18158e-05)
(7.43286e-06 1.03958e-05 1.14562e-05)
(-5.85048e-06 -3.86976e-06 7.54354e-06)
(1.89987e-05 -4.38707e-06 -1.76149e-05)
(7.94164e-05 -5.05381e-06 -2.77961e-05)
(0.000145343 -6.19508e-06 -3.19594e-05)
(0.000223003 -7.77559e-06 -3.75622e-05)
(0.000316653 -9.49357e-06 -4.6832e-05)
(0.000432606 -1.07294e-05 -6.02882e-05)
(0.000577386 -1.09602e-05 -7.6648e-05)
(0.000748235 -9.1324e-06 -9.11387e-05)
(0.000939351 -6.51042e-06 -9.58163e-05)
(0.00111258 -2.17591e-06 -7.70997e-05)
(0.00124342 -4.75812e-06 -2.22176e-05)
(0.00121827 -1.2385e-05 8.98013e-05)
(0.00103889 -1.89567e-05 0.000148146)
(0.000812568 -2.44436e-05 0.000173103)
(0.000568668 -2.75168e-05 0.000171861)
(0.000339503 -2.92156e-05 0.000165221)
(0.000120599 -2.95206e-05 0.000160641)
(-9.31325e-05 -2.87267e-05 0.000160623)
(-0.000312271 -2.6882e-05 0.000165158)
(-0.00054193 -2.38315e-05 0.00017176)
(-0.000786545 -1.96825e-05 0.000173055)
(-0.00101436 -1.35844e-05 0.000148515)
(-0.00119576 -6.87753e-06 9.09204e-05)
(-0.00122583 2.63551e-07 -1.93389e-05)
(-0.0010998 2.08646e-06 -7.56476e-05)
(-0.000927283 -2.87854e-06 -9.60296e-05)
(-0.000733228 -6.12215e-06 -9.39515e-05)
(-0.000553991 -8.58544e-06 -8.23054e-05)
(-0.000395453 -9.10558e-06 -6.92293e-05)
(-0.00025961 -8.81025e-06 -5.88171e-05)
(-0.000143337 -8.24661e-06 -5.01595e-05)
(-3.8013e-05 -7.80206e-06 -3.19308e-05)
(7.39495e-06 -7.14217e-06 1.1304e-05)
(-5.85696e-06 -1.41987e-05 7.29168e-06)
(1.84855e-05 -1.57124e-05 -1.75192e-05)
(7.78428e-05 -1.72587e-05 -2.75379e-05)
(0.000142846 -1.99263e-05 -3.1626e-05)
(0.000219792 -2.38785e-05 -3.71144e-05)
(0.000313184 -2.87402e-05 -4.61694e-05)
(0.000429429 -3.35607e-05 -5.92735e-05)
(0.000575484 -3.73664e-05 -7.50927e-05)
(0.000747657 -3.7791e-05 -8.89755e-05)
(0.000940654 -3.66167e-05 -9.31e-05)
(0.00111109 -3.02289e-05 -7.43852e-05)
(0.00123434 -4.11958e-05 -1.90889e-05)
(0.00120654 -6.38936e-05 9.33849e-05)
(0.00102858 -8.39458e-05 0.000153532)
(0.000804758 -0.000100603 0.000180133)
(0.000563808 -0.000110965 0.000180387)
(0.000337042 -0.000117254 0.00017462)
(0.00012042 -0.000119592 0.000170448)
(-9.12424e-05 -0.000118595 0.000170411)
(-0.000308226 -0.000114311 0.000174495)
(-0.000535735 -0.0001063 0.000180178)
(-0.000777807 -9.45332e-05 0.00017993)
(-0.00100364 -7.71193e-05 0.000153697)
(-0.00118423 -5.69749e-05 9.42707e-05)
(-0.00121741 -3.52599e-05 -1.64722e-05)
(-0.00109903 -2.56818e-05 -7.31695e-05)
(-0.000929252 -3.30231e-05 -9.35659e-05)
(-0.00073337 -3.51721e-05 -9.20168e-05)
(-0.00055295 -3.58405e-05 -8.09387e-05)
(-0.000393384 -3.34615e-05 -6.83394e-05)
(-0.000257591 -3.0512e-05 -5.82218e-05)
(-0.000141952 -2.80082e-05 -4.97661e-05)
(-3.77717e-05 -2.63942e-05 -3.18192e-05)
(7.1995e-06 -2.42576e-05 1.09272e-05)
(-5.90079e-06 -2.3651e-05 6.8814e-06)
(1.747e-05 -2.61236e-05 -1.72751e-05)
(7.47965e-05 -2.86688e-05 -2.69998e-05)
(0.000137827 -3.31574e-05 -3.09484e-05)
(0.000212876 -4.00519e-05 -3.62189e-05)
(0.000304795 -4.90568e-05 -4.48522e-05)
(0.00042023 -5.89896e-05 -5.72517e-05)
(0.000567253 -6.82659e-05 -7.1923e-05)
(0.000741309 -7.23734e-05 -8.44352e-05)
(0.000939802 -7.27069e-05 -8.70513e-05)
(0.00110533 -5.51222e-05 -6.86658e-05)
(0.00121206 -7.63117e-05 -1.25253e-05)
(0.00117882 -0.000123357 0.000101239)
(0.00100419 -0.000163074 0.000165136)
(0.000786202 -0.000195459 0.000195042)
(0.000552008 -0.000215882 0.000198452)
(0.000330712 -0.000228418 0.00019459)
(0.000119172 -0.000233483 0.000191319)
(-8.78178e-05 -0.000232166 0.000191231)
(-0.000299857 -0.000224494 0.000194306)
(-0.000522164 -0.000209593 0.00019797)
(-0.000757979 -0.000187123 0.000194456)
(-0.000978635 -0.000153603 0.000164823)
(-0.00115683 -0.000113672 0.000101612)
(-0.00119626 -6.83863e-05 -1.04941e-05)
(-0.00109431 -4.97702e-05 -6.78545e-05)
(-0.000929239 -6.85314e-05 -8.79464e-05)
(-0.000728011 -6.94956e-05 -8.7834e-05)
(-0.000545981 -6.69405e-05 -7.80213e-05)
(-0.000385898 -5.97576e-05 -6.64362e-05)
(-0.000251545 -5.26337e-05 -5.69025e-05)
(-0.000138098 -4.72177e-05 -4.88307e-05)
(-3.66986e-05 -4.39553e-05 -3.14344e-05)
(7.04879e-06 -4.03165e-05 1.02634e-05)
(-6.0024e-06 -3.1804e-05 6.33515e-06)