/*--------------------------------*- C++ -*----------------------------------*\
| =========                 |                                                 |
| \\      /  F ield         | OpenFOAM: The Open Source CFD Toolbox           |
|  \\    /   O peration     | Version:  2112                                  |
|   \\  /    A nd           | Website:  www.openfoam.com                      |
|    \\/     M anipulation  |                                                 |
\*---------------------------------------------------------------------------*/
FoamFile
{
    version     2.0;
    format      ascii;
    arch        "LSB;label=32;scalar=64";
    class       volScalarField;
    location    "0.9";
    object      epsilon;
}
// * * * * * * * * * * * * * * * * * * * * * * * * * * * * * * * * * * * * * //

dimensions      [0 2 -3 0 0 0 0];

internalField   nonuniform List<scalar> 
64906
(
0.0100639
0.010424
0.0105358
0.010557
0.0105601
0.0105605
0.0105607
0.0105608
0.010561
0.0105611
0.0105613
0.0105614
0.0105615
0.0105615
0.0105616
0.0105616
0.0105616
0.0105616
0.0105616
0.0105616
0.0105616
0.0105615
0.0105615
0.0105614
0.0105613
0.0105612
0.0105611
0.010561
0.0105608
0.0105603
0.0105572
0.0105361
0.0104243
0.0100641
0.0104241
0.0141713
0.0153555
0.0156101
0.0156535
0.0156598
0.0156607
0.0156611
0.0156614
0.0156618
0.0156621
0.0156625
0.0156628
0.015663
0.0156633
0.0156634
0.0156635
0.0156636
0.0156636
0.0156635
0.0156634
0.0156633
0.0156631
0.0156628
0.0156625
0.0156622
0.0156619
0.0156615
0.0156605
0.0156542
0.0156108
0.0153561
0.0141719
0.0104244
0.010536
0.0153558
0.0170486
0.017452
0.0175281
0.0175402
0.0175422
0.017543
0.0175436
0.0175443
0.0175451
0.017546
0.0175468
0.0175475
0.0175481
0.0175485
0.0175488
0.017549
0.017549
0.0175489
0.0175486
0.0175482
0.0175476
0.0175469
0.0175461
0.0175453
0.0175446
0.0175437
0.0175416
0.0175293
0.0174531
0.0170496
0.0153567
0.0105365
0.0105573
0.0156107
0.0174522
0.017908
0.0179973
0.0180122
0.0180148
0.0180158
0.0180168
0.0180179
0.0180191
0.0180205
0.0180218
0.018023
0.018024
0.0180248
0.0180253
0.0180256
0.0180256
0.0180254
0.0180249
0.0180242
0.0180232
0.018022
0.0180207
0.0180193
0.0180181
0.0180169
0.0180141
0.017999
0.0179095
0.0174536
0.0156118
0.0105578
0.0105605
0.0156542
0.0175284
0.0179974
0.0180905
0.0181063
0.0181092
0.0181105
0.0181116
0.0181127
0.018114
0.0181163
0.0181186
0.0181205
0.018122
0.0181231
0.0181238
0.0181242
0.0181242
0.0181239
0.0181232
0.0181221
0.0181206
0.0181188
0.0181166
0.0181143
0.018113
0.0181118
0.0181087
0.0180926
0.0179993
0.0175301
0.0156555
0.0105611
0.010561
0.0156605
0.0175406
0.0180123
0.0181063
0.0181225
0.0181256
0.0181268
0.0181269
0.0181252
0.0181231
0.0181287
0.0181338
0.0181373
0.0181397
0.0181412
0.0181422
0.0181427
0.0181427
0.0181423
0.0181413
0.0181399
0.0181375
0.018134
0.018129
0.0181235
0.0181255
0.0181271
0.018125
0.0181088
0.0180146
0.0175426
0.015662
0.0105618
0.0105612
0.0156614
0.0175426
0.0180149
0.0181092
0.0181255
0.0181284
0.0181277
0.0181198
0.0180969
0.018069
0.0180933
0.0181138
0.0181236
0.0181284
0.0181304
0.0181314
0.018132
0.0181321
0.0181315
0.0181305
0.0181286
0.0181238
0.0181141
0.0180937
0.0180693
0.0180973
0.01812
0.018126
0.0181117
0.0180175
0.0175449
0.0156632
0.0105621
0.0105614
0.0156617
0.0175432
0.0180158
0.0181103
0.0181265
0.0181275
0.0181158
0.0180646
0.0179253
0.017743
0.0178885
0.0179952
0.0180348
0.018048
0.0180506
0.0180516
0.0180522
0.0180522
0.0180517
0.0180508
0.0180483
0.0180351
0.0179956
0.0178889
0.0177433
0.0179257
0.0180649
0.0181141
0.0181108
0.0180185
0.0175459
0.0156637
0.0105624
0.0105615
0.0156619
0.0175437
0.0180165
0.0181111
0.0181262
0.0181191
0.0180645
0.0178376
0.0171881
0.0162453
0.0170604
0.017569
0.0177297
0.0177698
0.0177761
0.0177774
0.0177781
0.0177781
0.0177776
0.0177763
0.0177701
0.0177301
0.0175695
0.0170609
0.0162456
0.0171885
0.017838
0.0180628
0.0181025
0.0180183
0.0175466
0.0156642
0.0105626
0.0105616
0.0156621
0.0175442
0.0180173
0.0181117
0.0181239
0.0180962
0.017927
0.017193
0.0148972
0.0113579
0.0146552
0.0165281
0.0170435
0.0171473
0.0171661
0.0171701
0.0171713
0.0171713
0.0171702
0.0171663
0.0171476
0.0170439
0.0165287
0.0146559
0.0113578
0.0148976
0.0171934
0.0179255
0.0180797
0.018016
0.017547
0.0156645
0.0105629
0.0105617
0.0156622
0.0175447
0.018018
0.0181124
0.0181217
0.0180704
0.0177553
0.0162751
0.0113742
0.0112473
0.0152482
0.0162889
0.0164767
0.0165028
0.0165058
0.0165063
0.0165063
0.0165059
0.0165029
0.0164768
0.0162892
0.0152487
0.0112477
0.0113745
0.0162754
0.0177537
0.0180539
0.0180137
0.0175475
0.0156647
0.010563
0.0105617
0.0156623
0.0175451
0.0180189
0.0181142
0.0181275
0.018101
0.0179324
0.017195
0.014885
0.0113526
0.0145745
0.0164344
0.0169421
0.0170438
0.0170488
0.017045
0.0170434
0.0170434
0.017045
0.0170487
0.0170437
0.016942
0.0164344
0.0145743
0.0113521
0.0148843
0.0171948
0.0179306
0.0180844
0.0180193
0.0175488
0.0156649
0.0105631
0.0105617
0.0156623
0.0175455
0.0180197
0.0181158
0.0181329
0.0181281
0.0180753
0.017846
0.0171822
0.0162038
0.0169288
0.0173402
0.017453
0.0174729
0.0174682
0.0174634
0.0174614
0.0174614
0.0174633
0.017468
0.0174727
0.0174527
0.0173397
0.0169282
0.0162028
0.0171817
0.0178458
0.0180734
0.0181113
0.0180245
0.0175501
0.015665
0.0105631
0.0105616
0.0156623
0.0175458
0.0180204
0.018117
0.0181358
0.01814
0.0181315
0.0180795
0.0179254
0.0176907
0.0177171
0.0176738
0.0176435
0.0176294
0.017621
0.0176165
0.0176145
0.0176145
0.0176164
0.0176208
0.0176291
0.0176431
0.0176733
0.0177161
0.01769
0.017925
0.0180793
0.0181295
0.0181231
0.0180273
0.0175509
0.015665
0.010563
0.0105615
0.0156622
0.0175461
0.0180209
0.0181178
0.0181373
0.0181442
0.0181476
0.0181398
0.0181018
0.0180152
0.0179096
0.0177598
0.0176929
0.0176691
0.0176593
0.0176543
0.017652
0.017652
0.0176541
0.017659
0.0176687
0.0176925
0.0177593
0.0179086
0.0180146
0.0181015
0.0181396
0.0181456
0.0181273
0.0180287
0.0175515
0.015665
0.0105628
0.0105614
0.0156622
0.0175463
0.0180213
0.0181184
0.0181382
0.0181459
0.0181519
0.018153
0.0181367
0.018075
0.0179486
0.0177779
0.0177036
0.0176774
0.0176669
0.0176614
0.0176585
0.0176584
0.0176611
0.0176666
0.017677
0.0177031
0.0177774
0.0179477
0.0180744
0.0181363
0.0181528
0.0181499
0.0181289
0.0180295
0.0175519
0.015665
0.0105627
0.0105613
0.0156622
0.0175464
0.0180216
0.0181188
0.0181388
0.0181467
0.0181533
0.0181561
0.0181433
0.0180855
0.0179564
0.0177817
0.0177061
0.0176793
0.0176683
0.0176622
0.0176586
0.0176584
0.0176618
0.0176679
0.0176789
0.0177056
0.0177812
0.0179555
0.0180849
0.018143
0.0181559
0.0181513
0.0181297
0.0180301
0.0175522
0.015665
0.0105625
0.0105612
0.0156621
0.0175465
0.0180218
0.0181191
0.0181391
0.0181472
0.018154
0.0181571
0.0181449
0.0180877
0.0179584
0.0177827
0.0177068
0.0176798
0.0176685
0.017662
0.0176578
0.0176576
0.0176616
0.0176681
0.0176793
0.0177063
0.0177822
0.0179575
0.0180871
0.0181446
0.0181569
0.018152
0.0181302
0.0180304
0.0175523
0.0156649
0.0105623
0.0105611
0.0156621
0.0175466
0.0180219
0.0181192
0.0181393
0.0181473
0.0181542
0.0181573
0.0181452
0.0180881
0.0179588
0.0177829
0.0177069
0.0176798
0.0176685
0.0176617
0.0176572
0.017657
0.0176613
0.017668
0.0176793
0.0177064
0.0177824
0.0179579
0.0180875
0.0181449
0.0181572
0.0181522
0.0181304
0.0180305
0.0175524
0.0156649
0.0105622
0.0105611
0.0156621
0.0175466
0.0180218
0.0181191
0.0181392
0.0181472
0.018154
0.0181569
0.0181443
0.0180867
0.0179576
0.0177823
0.0177064
0.0176794
0.0176681
0.0176614
0.0176571
0.0176569
0.017661
0.0176676
0.0176789
0.0177059
0.0177818
0.0179567
0.0180861
0.0181441
0.0181568
0.018152
0.0181303
0.0180305
0.0175524
0.015665
0.0105622
0.0105612
0.0156622
0.0175465
0.0180217
0.0181189
0.0181388
0.0181467
0.018153
0.0181544
0.0181384
0.0180771
0.0179507
0.0177789
0.0177042
0.0176776
0.0176665
0.0176602
0.0176565
0.0176563
0.0176598
0.0176661
0.0176771
0.0177037
0.0177784
0.0179499
0.0180766
0.0181382
0.0181543
0.0181511
0.0181299
0.0180302
0.0175523
0.015665
0.0105623
0.0105613
0.0156622
0.0175464
0.0180214
0.0181185
0.0181382
0.0181454
0.0181491
0.0181418
0.0181044
0.0180185
0.0179129
0.0177614
0.0176939
0.0176694
0.0176588
0.017653
0.0176499
0.0176498
0.0176526
0.0176583
0.0176689
0.0176934
0.017761
0.0179123
0.0180182
0.0181044
0.0181419
0.0181474
0.0181286
0.0180297
0.0175521
0.0156651
0.0105625
0.0105614
0.0156623
0.0175462
0.0180211
0.0181179
0.018137
0.0181416
0.0181335
0.0180822
0.0179293
0.0176961
0.0177224
0.0176762
0.017645
0.01763
0.0176207
0.0176153
0.0176127
0.0176126
0.017615
0.0176203
0.0176296
0.0176446
0.0176759
0.0177221
0.017696
0.0179295
0.0180825
0.0181319
0.0181249
0.0180286
0.0175517
0.0156652
0.0105627
0.0105615
0.0156624
0.017546
0.0180205
0.0181169
0.0181343
0.01813
0.0180778
0.0178497
0.017188
0.0162125
0.0169357
0.0173434
0.017455
0.0174739
0.0174682
0.0174627
0.0174603
0.0174602
0.0174625
0.0174678
0.0174735
0.0174546
0.0173432
0.016936
0.0162129
0.0171885
0.0178501
0.0180764
0.0181135
0.0180261
0.0175511
0.0156652
0.0105628
0.0105615
0.0156624
0.0175457
0.0180199
0.0181155
0.0181292
0.0181032
0.0179354
0.0171992
0.0148916
0.0113569
0.0145786
0.0164351
0.0169422
0.0170431
0.0170473
0.0170429
0.0170408
0.0170408
0.0170426
0.0170469
0.0170426
0.0169417
0.016435
0.0145795
0.0113568
0.0148923
0.0171999
0.0179341
0.018087
0.0180213
0.0175501
0.0156652
0.0105628
0.0105615
0.0156624
0.0175454
0.0180192
0.0181139
0.0181236
0.0180728
0.0177579
0.0162775
0.0113746
0.0112425
0.0152377
0.0162779
0.0164642
0.0164889
0.0164909
0.0164907
0.0164906
0.0164904
0.0164881
0.0164629
0.0162758
0.0152347
0.0112406
0.0113744
0.0162781
0.0177568
0.0180568
0.018016
0.017549
0.0156652
0.0105628
0.0105615
0.0156623
0.017545
0.0180186
0.0181135
0.0181263
0.0180992
0.0179308
0.0171975
0.0149025
0.0113629
0.0146436
0.0165061
0.017004
0.0170974
0.0171118
0.0171139
0.0171142
0.0171141
0.0171133
0.0171102
0.0170933
0.0169947
0.0164887
0.0146332
0.0113612
0.0149023
0.0171981
0.0179298
0.0180833
0.0180188
0.0175488
0.0156651
0.0105627
0.0105614
0.0156622
0.0175445
0.0180178
0.0181129
0.0181287
0.0181225
0.0180688
0.0178429
0.0171934
0.0162465
0.0170383
0.0175043
0.0176018
0.0176105
0.017608
0.017607
0.0176068
0.0176066
0.0176061
0.0176051
0.0176008
0.0175739
0.0174441
0.0169979
0.0162301
0.0171885
0.0178424
0.0180677
0.0181066
0.0180214
0.0175485
0.0156649
0.0105626
0.0105613
0.0156613
0.0175427
0.0180154
0.0181103
0.0181272
0.0181292
0.0181185
0.0180681
0.0179268
0.017733
0.0178372
0.0178539
0.0177634
0.0177234
0.0177111
0.0177079
0.017707
0.0177068
0.0177068
0.0177074
0.0177092
0.0177146
0.0177284
0.0177489
0.0176941
0.0179147
0.0180658
0.0181171
0.0181133
0.0180201
0.0175466
0.0156639
0.0105624
0.0105608
0.0156552
0.0175306
0.0180005
0.0180946
0.0181115
0.0181154
0.0181158
0.0181086
0.0180834
0.0180428
0.0180243
0.01795
0.0178278
0.0177794
0.017766
0.017763
0.0177624
0.0177622
0.0177622
0.0177626
0.0177652
0.0177771
0.0178208
0.0179306
0.0180008
0.0180705
0.0181062
0.0181145
0.0180998
0.0180053
0.0175343
0.0156576
0.0105618
0.0105577
0.0156118
0.0174544
0.0179111
0.0180014
0.0180175
0.0180214
0.0180238
0.018025
0.0180225
0.0180133
0.0179941
0.017945
0.0178728
0.0178411
0.0178318
0.0178302
0.0178302
0.0178302
0.0178299
0.0178296
0.0178309
0.0178395
0.0178703
0.0179406
0.0179891
0.0180155
0.0180242
0.018023
0.0180068
0.0179156
0.0174579
0.0156141
0.0105586
0.0105365
0.015357
0.0170508
0.0174551
0.0175321
0.0175453
0.0175486
0.0175509
0.0175531
0.0175546
0.0175536
0.0175465
0.0175278
0.0175004
0.0174875
0.0174837
0.0174832
0.0174834
0.0174835
0.0174832
0.0174828
0.0174831
0.0174866
0.0174992
0.0175262
0.0175447
0.0175527
0.0175537
0.0175507
0.0175368
0.0174591
0.0170539
0.0153591
0.0105373
0.0104246
0.0141725
0.0153576
0.0156129
0.015657
0.0156641
0.0156661
0.0156677
0.0156694
0.0156709
0.0156717
0.0156705
0.0156662
0.015659
0.0156554
0.0156541
0.0156538
0.0156538
0.0156538
0.0156537
0.0156537
0.0156539
0.0156551
0.0156587
0.0156657
0.0156699
0.0156711
0.0156702
0.0156681
0.0156605
0.0156159
0.0153599
0.0141741
0.0104253
0.0100643
0.0104247
0.0105368
0.0105583
0.0105617
0.0105626
0.0105633
0.010564
0.0105649
0.0105657
0.0105666
0.0105671
0.0105673
0.0105669
0.0105665
0.0105661
0.0105658
0.0105654
0.0105653
0.0105654
0.0105658
0.0105661
0.0105664
0.0105667
0.010567
0.0105667
0.0105661
0.0105653
0.0105644
0.0105632
0.0105595
0.0105378
0.0104255
0.0100649
0.0126913
0.0146673
0.015356
0.0155092
0.0155355
0.0155393
0.0155398
0.0155399
0.01554
0.01554
0.0155401
0.0155401
0.0155402
0.0155402
0.0155401
0.0155401
0.0155401
0.0155401
0.0155401
0.0155401
0.0155401
0.0155401
0.0155401
0.0155401
0.0155401
0.0155401
0.01554
0.0155399
0.0155394
0.0155356
0.0155093
0.0153561
0.0146674
0.0126915
0.0146673
0.0149306
0.0157
0.0159223
0.0159676
0.0159748
0.0159758
0.015976
0.015976
0.0159761
0.0159761
0.0159762
0.0159762
0.0159762
0.0159762
0.0159762
0.0159762
0.0159762
0.0159762
0.0159762
0.0159762
0.0159762
0.0159762
0.0159762
0.0159762
0.0159761
0.0159761
0.015976
0.015975
0.0159677
0.0159224
0.0157001
0.0149307
0.0146674
0.0153562
0.0157001
0.0165904
0.0168694
0.0169317
0.0169427
0.0169444
0.0169447
0.0169448
0.0169449
0.0169451
0.0169453
0.0169454
0.0169456
0.0169457
0.0169458
0.0169458
0.0169458
0.0169459
0.0169458
0.0169458
0.0169457
0.0169456
0.0169455
0.0169453
0.0169452
0.016945
0.0169447
0.016943
0.0169319
0.0168696
0.0165906
0.0157003
0.0153565
0.0155096
0.0159225
0.0168695
0.0171739
0.0172441
0.017257
0.0172591
0.0172595
0.0172597
0.0172599
0.0172602
0.0172605
0.0172609
0.0172612
0.0172614
0.0172616
0.0172617
0.0172618
0.0172618
0.0172617
0.0172616
0.0172614
0.0172612
0.0172609
0.0172606
0.0172603
0.01726
0.0172596
0.0172575
0.0172445
0.0171743
0.0168698
0.0159228
0.0155101
0.015536
0.0159678
0.0169318
0.0172441
0.017317
0.0173305
0.0173328
0.0173332
0.0173334
0.0173333
0.0173332
0.0173338
0.0173345
0.0173351
0.0173355
0.0173358
0.017336
0.017336
0.0173361
0.017336
0.0173358
0.0173355
0.0173351
0.0173346
0.0173339
0.0173333
0.0173333
0.0173332
0.0173311
0.0173175
0.0172446
0.0169323
0.0159682
0.0155366
0.0155398
0.0159751
0.0169428
0.017257
0.0173305
0.0173443
0.0173465
0.0173467
0.0173456
0.0173427
0.0173396
0.0173416
0.0173441
0.0173455
0.0173462
0.0173466
0.0173468
0.0173469
0.0173469
0.0173469
0.0173467
0.0173463
0.0173456
0.0173442
0.0173417
0.0173397
0.0173427
0.0173455
0.0173445
0.0173311
0.0172576
0.0169433
0.0159755
0.0155405
0.0155404
0.0159761
0.0169445
0.0172591
0.0173327
0.0173465
0.0173483
0.0173464
0.017338
0.0173188
0.0172994
0.0173093
0.017322
0.0173277
0.0173296
0.0173304
0.0173306
0.0173306
0.0173306
0.0173306
0.0173304
0.0173297
0.0173278
0.0173221
0.0173094
0.0172995
0.0173189
0.0173379
0.0173442
0.0173329
0.0172597
0.0169451
0.0159765
0.0155412
0.0155405
0.0159762
0.0169447
0.0172595
0.0173331
0.0173466
0.0173463
0.0173348
0.0172936
0.0172017
0.017118
0.0171607
0.017222
0.017248
0.0172544
0.017257
0.0172575
0.0172575
0.0172576
0.0172575
0.0172571
0.0172545
0.0172481
0.0172221
0.0171608
0.0171181
0.0172018
0.0172935
0.0173326
0.0173309
0.0172598
0.0169453
0.0159767
0.0155414
0.0155406
0.0159762
0.0169448
0.0172596
0.0173332
0.0173454
0.0173381
0.0172941
0.0171431
0.0168174
0.0166647
0.0166846
0.0169099
0.0170078
0.0170294
0.0170391
0.0170412
0.0170415
0.0170415
0.0170412
0.0170392
0.0170295
0.0170079
0.0169101
0.0166847
0.0166647
0.0168175
0.017143
0.017292
0.0173226
0.0172586
0.0169453
0.0159767
0.0155416
0.0155406
0.0159762
0.0169449
0.0172597
0.017333
0.0173426
0.0173197
0.0172056
0.0168256
0.0161696
0.0196313
0.0158185
0.0162483
0.0165097
0.0165714
0.0165936
0.0165985
0.0165992
0.0165992
0.0165985
0.0165937
0.0165715
0.0165099
0.0162485
0.0158187
0.0196309
0.0161696
0.0168255
0.0172034
0.0173042
0.0172556
0.0169449
0.0159766
0.0155417
0.0155406
0.0159761
0.0169449
0.0172599
0.0173329
0.0173401
0.0173036
0.0171349
0.0167133
0.0197834
0.0188262
0.015763
0.0160688
0.0161855
0.0162009
0.016201
0.0162006
0.0162006
0.016201
0.016201
0.0161856
0.0160689
0.0157632
0.0188271
0.0197837
0.0167132
0.0171327
0.0172881
0.0172531
0.0169446
0.0159765
0.0155416
0.0155405
0.0159761
0.016945
0.0172601
0.0173336
0.0173434
0.0173207
0.0172062
0.0168244
0.0161647
0.0195984
0.0157842
0.0162383
0.0165223
0.0166314
0.0166008
0.0165856
0.0165818
0.0165818
0.0165856
0.0166008
0.0166314
0.0165222
0.0162382
0.0157839
0.0195969
0.0161645
0.0168241
0.017204
0.0173052
0.0172563
0.0169451
0.0159764
0.0155415
0.0155404
0.015976
0.016945
0.0172603
0.0173343
0.017347
0.01734
0.0172958
0.0171419
0.0168065
0.016632
0.0166227
0.0168532
0.0169442
0.0169739
0.0169607
0.0169525
0.01695
0.0169499
0.0169525
0.0169606
0.0169738
0.0169441
0.0168531
0.0166224
0.0166316
0.0168063
0.0171415
0.0172936
0.0173245
0.0172598
0.0169457
0.0159764
0.0155413
0.0155403
0.0159759
0.0169451
0.0172605
0.0173348
0.0173489
0.0173492
0.0173375
0.0172931
0.0171893
0.0170771
0.017079
0.0171234
0.0171205
0.0171154
0.0171083
0.0171045
0.0171031
0.0171031
0.0171044
0.0171082
0.0171153
0.0171204
0.0171232
0.0170787
0.0170768
0.0171892
0.0172929
0.0173353
0.0173337
0.0172616
0.016946
0.0159763
0.0155411
0.0155401
0.0159759
0.0169451
0.0172606
0.0173351
0.0173496
0.0173522
0.0173503
0.0173386
0.0173062
0.0172545
0.0172168
0.0172014
0.0171701
0.0171551
0.017149
0.0171465
0.0171456
0.0171456
0.0171465
0.0171489
0.017155
0.0171699
0.0172012
0.0172166
0.0172543
0.0173061
0.0173383
0.0173481
0.0173367
0.0172623
0.0169461
0.0159763
0.0155408
0.01554
0.0159758
0.0169451
0.0172607
0.0173353
0.01735
0.0173531
0.0173535
0.017349
0.0173325
0.0172959
0.0172478
0.0172186
0.0171808
0.0171637
0.0171578
0.0171556
0.0171547
0.0171547
0.0171555
0.0171577
0.0171637
0.0171807
0.0172185
0.0172476
0.0172958
0.0173325
0.0173488
0.0173512
0.0173375
0.0172626
0.0169462
0.0159762
0.0155406
0.0155398
0.0159758
0.0169452
0.0172608
0.0173354
0.0173501
0.0173534
0.0173542
0.0173511
0.0173375
0.0173036
0.0172536
0.0172219
0.017183
0.0171655
0.0171595
0.0171573
0.0171564
0.0171563
0.0171572
0.0171594
0.0171654
0.0171829
0.0172218
0.0172534
0.0173035
0.0173374
0.0173509
0.017352
0.0173378
0.0172628
0.0169463
0.0159762
0.0155404
0.0155397
0.0159758
0.0169452
0.0172609
0.0173354
0.0173502
0.0173536
0.0173544
0.0173516
0.0173384
0.0173049
0.0172547
0.0172225
0.0171834
0.0171659
0.0171598
0.0171576
0.0171566
0.0171566
0.0171575
0.0171598
0.0171658
0.0171833
0.0172224
0.0172545
0.0173048
0.0173383
0.0173514
0.0173522
0.017338
0.0172629
0.0169463
0.0159762
0.0155403
0.0155397
0.0159758
0.0169452
0.0172609
0.0173355
0.0173503
0.0173536
0.0173545
0.0173517
0.0173385
0.017305
0.0172548
0.0172226
0.0171835
0.0171659
0.0171599
0.0171576
0.0171566
0.0171565
0.0171575
0.0171598
0.0171658
0.0171834
0.0172225
0.0172546
0.0173049
0.0173384
0.0173515
0.0173523
0.017338
0.0172629
0.0169463
0.0159761
0.0155402
0.0155397
0.0159758
0.0169452
0.0172609
0.0173354
0.0173502
0.0173536
0.0173544
0.0173514
0.0173378
0.0173039
0.0172539
0.0172221
0.0171831
0.0171656
0.0171595
0.0171572
0.0171562
0.0171562
0.0171572
0.0171595
0.0171655
0.017183
0.017222
0.0172537
0.0173038
0.0173377
0.0173512
0.0173522
0.017338
0.0172629
0.0169463
0.0159762
0.0155402
0.0155398
0.0159758
0.0169452
0.0172608
0.0173354
0.0173501
0.0173534
0.0173537
0.0173494
0.017333
0.0172964
0.0172483
0.017219
0.0171812
0.017164
0.0171579
0.0171556
0.0171546
0.0171546
0.0171555
0.0171578
0.0171639
0.0171811
0.0172189
0.0172482
0.0172964
0.017333
0.0173492
0.0173516
0.0173378
0.0172628
0.0169463
0.0159762
0.0155403
0.0155399
0.0159759
0.0169452
0.0172608
0.0173353
0.0173499
0.0173526
0.0173507
0.0173391
0.0173069
0.0172555
0.0172178
0.0172021
0.0171707
0.0171556
0.0171494
0.0171468
0.0171458
0.0171458
0.0171467
0.0171493
0.0171555
0.0171706
0.017202
0.0172177
0.0172554
0.0173069
0.017339
0.0173486
0.017337
0.0172626
0.0169463
0.0159763
0.0155405
0.01554
0.0159759
0.0169452
0.0172607
0.0173351
0.0173492
0.0173497
0.0173381
0.017294
0.0171906
0.0170788
0.0170808
0.0171247
0.0171217
0.0171164
0.0171092
0.0171053
0.0171039
0.0171039
0.0171053
0.0171092
0.0171164
0.0171217
0.0171247
0.0170808
0.0170788
0.0171906
0.0172939
0.017336
0.0173342
0.017262
0.0169462
0.0159763
0.0155407
0.0155401
0.015976
0.0169452
0.0172606
0.0173347
0.0173474
0.0173406
0.0172965
0.017143
0.0168085
0.0166348
0.0166254
0.0168552
0.0169461
0.0169757
0.0169624
0.0169543
0.0169517
0.0169517
0.0169543
0.0169625
0.0169758
0.0169462
0.0168554
0.0166256
0.0166349
0.0168086
0.017143
0.0172945
0.0173251
0.0172603
0.0169459
0.0159764
0.0155409
0.0155402
0.0159761
0.0169451
0.0172604
0.017334
0.0173439
0.0173213
0.0172071
0.0168258
0.016167
0.0196097
0.015786
0.0162392
0.0165231
0.0166322
0.0166016
0.0165863
0.0165825
0.0165825
0.0165863
0.0166016
0.0166323
0.016523
0.0162391
0.0157857
0.0196097
0.016167
0.0168257
0.0172051
0.0173059
0.0172568
0.0169454
0.0159765
0.0155411
0.0155403
0.0159761
0.0169451
0.0172602
0.0173333
0.0173406
0.0173043
0.0171357
0.0167142
0.0197822
0.0188107
0.0157566
0.0160601
0.0161755
0.0161902
0.01619
0.0161894
0.0161894
0.0161899
0.0161899
0.0161747
0.0160584
0.0157532
0.0188033
0.019781
0.016714
0.0171337
0.017289
0.0172537
0.016945
0.0159766
0.0155412
0.0155403
0.0159762
0.0169451
0.0172601
0.0173335
0.0173432
0.0173205
0.0172066
0.0168268
0.016171
0.0196347
0.0158093
0.0162293
0.0164807
0.0165362
0.016556
0.0165602
0.0165607
0.0165606
0.0165599
0.0165552
0.0165337
0.0164744
0.0162181
0.0157982
0.0196221
0.0161692
0.0168263
0.0172045
0.0173052
0.0172563
0.0169453
0.0159767
0.0155412
0.0155403
0.0159761
0.0169448
0.0172598
0.0173335
0.0173459
0.0173388
0.017295
0.017144
0.0168172
0.0166593
0.016664
0.0168667
0.0169449
0.0169527
0.0169548
0.016955
0.0169549
0.0169548
0.0169546
0.0169531
0.0169466
0.0169297
0.0168463
0.0166408
0.0166447
0.0168121
0.0171424
0.0172927
0.0173234
0.0172591
0.0169455
0.0159767
0.0155412
0.0155398
0.0159752
0.0169432
0.0172578
0.0173315
0.0173451
0.0173451
0.0173336
0.0172922
0.0171978
0.0171055
0.0171272
0.0171602
0.0171774
0.0171623
0.0171546
0.0171523
0.0171516
0.0171515
0.0171516
0.0171519
0.0171527
0.0171558
0.0171516
0.0170989
0.0170849
0.0171893
0.0172894
0.017331
0.0173297
0.0172585
0.0169441
0.0159758
0.0155406
0.0155361
0.015968
0.0169323
0.0172449
0.017318
0.0173318
0.0173338
0.017332
0.0173232
0.0173014
0.0172729
0.0172616
0.0172449
0.0172409
0.0172195
0.0172099
0.0172072
0.0172066
0.0172065
0.0172066
0.0172071
0.0172094
0.0172179
0.0172355
0.0172325
0.0172518
0.0172924
0.0173204
0.0173294
0.0173187
0.017246
0.0169331
0.0159685
0.0155368
0.0155097
0.0159227
0.01687
0.0171747
0.0172452
0.0172584
0.0172607
0.017261
0.0172597
0.017255
0.0172457
0.0172323
0.0172096
0.0171887
0.0171711
0.017164
0.0171622
0.0171618
0.0171617
0.0171617
0.017162
0.0171638
0.0171706
0.0171876
0.0172073
0.0172305
0.0172489
0.0172578
0.0172588
0.0172463
0.0171757
0.0168707
0.0159232
0.0155104
0.0153564
0.0157003
0.0165909
0.0168702
0.0169327
0.016944
0.0169459
0.0169465
0.0169466
0.0169457
0.0169425
0.0169353
0.0169221
0.0169075
0.0168979
0.0168942
0.0168931
0.0168929
0.0168929
0.0168929
0.0168931
0.0168941
0.0168978
0.0169072
0.0169217
0.016935
0.0169429
0.0169458
0.0169449
0.0169338
0.0168711
0.0165915
0.0157007
0.015357
0.0146676
0.0149308
0.0157004
0.015923
0.0159685
0.015976
0.0159773
0.0159777
0.0159779
0.0159778
0.0159769
0.0159741
0.0159686
0.0159617
0.0159576
0.0159559
0.0159553
0.0159552
0.0159551
0.0159552
0.0159554
0.015956
0.0159577
0.0159618
0.0159686
0.0159741
0.0159769
0.0159777
0.0159768
0.0159694
0.0159237
0.0157009
0.0149311
0.014668
0.0126916
0.0146676
0.0153567
0.0155103
0.015537
0.0155411
0.0155421
0.0155427
0.0155433
0.0155438
0.0155439
0.0155427
0.0155398
0.0155355
0.0155329
0.0155316
0.0155309
0.0155305
0.0155304
0.0155306
0.015531
0.0155316
0.0155329
0.0155355
0.0155397
0.0155425
0.0155436
0.0155435
0.0155425
0.0155382
0.0155113
0.0153574
0.014668
0.012692
0.0136921
0.0166216
0.0177493
0.0180267
0.0180795
0.0180878
0.0180889
0.0180891
0.0180891
0.0180892
0.0180892
0.0180891
0.0180891
0.018089
0.018089
0.0180889
0.0180889
0.0180889
0.0180889
0.0180889
0.0180889
0.018089
0.018089
0.0180891
0.0180891
0.0180891
0.0180891
0.018089
0.0180878
0.0180796
0.0180268
0.0177494
0.0166217
0.0136922
0.0166216
0.0163864
0.0171809
0.0174439
0.0175043
0.0175152
0.0175167
0.0175169
0.0175169
0.0175169
0.0175169
0.0175169
0.0175169
0.0175168
0.0175168
0.0175168
0.0175168
0.0175168
0.0175168
0.0175168
0.0175168
0.0175168
0.0175168
0.0175169
0.0175169
0.0175169
0.0175169
0.0175167
0.0175152
0.0175043
0.0174439
0.0171809
0.0163864
0.0166217
0.0177496
0.017181
0.0179764
0.0182701
0.0183448
0.0183597
0.0183621
0.0183625
0.0183626
0.0183626
0.0183626
0.0183626
0.0183627
0.0183627
0.0183627
0.0183627
0.0183627
0.0183627
0.0183627
0.0183627
0.0183627
0.0183627
0.0183627
0.0183627
0.0183627
0.0183626
0.0183626
0.0183622
0.0183598
0.0183449
0.0182701
0.0179765
0.0171811
0.0177498
0.0180271
0.017444
0.0182701
0.0185836
0.0186663
0.0186834
0.0186863
0.0186868
0.0186869
0.0186869
0.0186869
0.018687
0.0186871
0.0186872
0.0186873
0.0186874
0.0186875
0.0186875
0.0186875
0.0186875
0.0186874
0.0186874
0.0186873
0.0186872
0.018687
0.0186869
0.0186869
0.0186865
0.0186836
0.0186665
0.0185838
0.0182703
0.0174442
0.0180275
0.0180801
0.0175045
0.018345
0.0186664
0.0187521
0.01877
0.0187732
0.0187736
0.0187734
0.0187728
0.0187721
0.0187722
0.0187726
0.0187729
0.018773
0.0187731
0.0187732
0.0187732
0.0187732
0.0187732
0.0187732
0.018773
0.0187729
0.0187726
0.0187723
0.0187721
0.0187728
0.018773
0.0187702
0.0187523
0.0186666
0.0183452
0.0175047
0.0180806
0.0180884
0.0175154
0.0183598
0.0186835
0.01877
0.0187882
0.0187913
0.0187911
0.018789
0.0187845
0.0187798
0.0187801
0.0187819
0.0187828
0.018783
0.0187833
0.0187833
0.0187833
0.0187833
0.0187834
0.0187833
0.018783
0.0187828
0.0187819
0.0187801
0.0187798
0.0187845
0.0187886
0.0187876
0.0187701
0.0186837
0.0183601
0.0175156
0.0180891
0.0180896
0.0175169
0.0183623
0.0186864
0.0187731
0.0187913
0.0187936
0.0187903
0.0187787
0.0187553
0.0187332
0.0187346
0.0187452
0.0187499
0.0187499
0.0187516
0.0187519
0.0187519
0.0187519
0.0187519
0.0187516
0.0187499
0.0187499
0.0187453
0.0187347
0.0187333
0.0187553
0.0187783
0.0187868
0.0187724
0.0186865
0.0183625
0.0175172
0.0180903
0.0180898
0.0175171
0.0183626
0.0186868
0.0187736
0.0187911
0.0187903
0.0187747
0.0187265
0.0186333
0.0185647
0.018556
0.0186056
0.0186268
0.0186243
0.0186345
0.0186372
0.0186373
0.0186373
0.0186372
0.0186346
0.0186244
0.0186269
0.0186057
0.0185561
0.0185647
0.0186333
0.018726
0.0187712
0.0187691
0.0186863
0.0183627
0.0175174
0.0180906
0.0180898
0.0175171
0.0183626
0.0186869
0.0187734
0.0187891
0.0187793
0.0187279
0.0185766
0.0183167
0.0183618
0.0180607
0.0182149
0.0182913
0.018279
0.0183198
0.0183301
0.0183312
0.0183312
0.0183301
0.0183199
0.0182791
0.0182914
0.018215
0.0180608
0.0183618
0.0183166
0.0185762
0.0187244
0.0187581
0.0186842
0.0183624
0.0175173
0.0180906
0.0180897
0.017517
0.0183626
0.0186868
0.0187728
0.0187851
0.0187584
0.0186432
0.0183379
0.0181353
0.0238593
0.0172829
0.0174091
0.0176166
0.017615
0.0176959
0.0177146
0.017717
0.017717
0.0177146
0.017696
0.0176151
0.0176168
0.0174093
0.0172829
0.0238587
0.0181352
0.0183374
0.0186397
0.0187371
0.0186801
0.0183617
0.0175171
0.0180905
0.0180896
0.017517
0.0183625
0.0186868
0.0187724
0.0187822
0.018744
0.0186035
0.0184879
0.0244197
0.0208792
0.0169765
0.0172838
0.0174294
0.0174251
0.0174181
0.0174163
0.0174163
0.0174181
0.0174251
0.0174295
0.017284
0.0169768
0.0208802
0.0244197
0.0184874
0.0185999
0.0187226
0.0186771
0.0183611
0.0175169
0.0180903
0.0180895
0.0175169
0.0183625
0.018687
0.018773
0.0187855
0.0187587
0.0186428
0.0183351
0.0181263
0.0237541
0.017279
0.0176463
0.0180034
0.0183833
0.0180851
0.0180029
0.0179887
0.0179886
0.0180028
0.018085
0.0183832
0.0180032
0.0176462
0.0172786
0.0237526
0.0181261
0.0183346
0.0186392
0.0187373
0.0186803
0.0183616
0.0175168
0.01809
0.0180893
0.0175168
0.0183625
0.0186871
0.0187739
0.0187898
0.0187799
0.0187271
0.0185708
0.0182968
0.018316
0.0180736
0.0185361
0.0186689
0.0187568
0.0186826
0.0186536
0.0186468
0.0186468
0.0186535
0.0186825
0.0187567
0.0186687
0.0185359
0.0180733
0.0183158
0.0182966
0.0185702
0.0187236
0.0187585
0.0186846
0.0183622
0.0175167
0.0180897
0.0180891
0.0175167
0.0183625
0.0186872
0.0187743
0.0187921
0.0187912
0.0187738
0.0187186
0.0186085
0.018521
0.0185768
0.0189406
0.0189608
0.0189585
0.0189403
0.018932
0.0189296
0.0189296
0.018932
0.0189402
0.0189585
0.0189607
0.0189405
0.0185766
0.0185208
0.0186083
0.0187181
0.0187702
0.0187698
0.0186868
0.0183626
0.0175166
0.0180894
0.0180889
0.0175166
0.0183625
0.0186873
0.0187745
0.018793
0.0187952
0.0187898
0.0187702
0.0187272
0.0186845
0.0187458
0.0190614
0.0190447
0.0190222
0.0190125
0.0190091
0.0190082
0.0190081
0.0190091
0.0190125
0.0190222
0.0190446
0.0190613
0.0187456
0.0186843
0.0187271
0.0187698
0.0187863
0.0187738
0.0186876
0.0183627
0.0175165
0.0180891
0.0180887
0.0175166
0.0183625
0.0186873
0.0187746
0.0187933
0.0187962
0.018794
0.0187834
0.018758
0.0187304
0.0187869
0.0190884
0.0190626
0.0190361
0.0190276
0.0190252
0.0190245
0.0190245
0.0190252
0.0190275
0.0190361
0.0190625
0.0190884
0.0187867
0.0187303
0.0187579
0.0187829
0.0187904
0.0187748
0.0186879
0.0183627
0.0175164
0.0180888
0.0180886
0.0175165
0.0183624
0.0186873
0.0187747
0.0187934
0.0187965
0.0187949
0.0187861
0.0187642
0.0187398
0.0187949
0.0190934
0.0190658
0.0190387
0.0190302
0.019028
0.0190274
0.0190274
0.019028
0.0190302
0.0190386
0.0190657
0.0190933
0.0187947
0.0187398
0.0187642
0.0187857
0.0187913
0.0187751
0.018688
0.0183627
0.0175164
0.0180886
0.0180885
0.0175165
0.0183624
0.0186874
0.0187747
0.0187934
0.0187966
0.0187951
0.0187866
0.0187653
0.0187414
0.0187962
0.0190942
0.0190663
0.0190391
0.0190307
0.0190285
0.0190279
0.0190279
0.0190285
0.0190307
0.0190391
0.0190663
0.0190942
0.0187961
0.0187414
0.0187652
0.0187862
0.0187915
0.0187752
0.018688
0.0183627
0.0175163
0.0180885
0.0180884
0.0175165
0.0183624
0.0186874
0.0187747
0.0187934
0.0187966
0.0187951
0.0187867
0.0187654
0.0187415
0.0187963
0.0190943
0.0190664
0.0190391
0.0190307
0.0190285
0.0190279
0.0190279
0.0190285
0.0190307
0.0190391
0.0190663