/*--------------------------------*- C++ -*----------------------------------*\
| =========                 |                                                 |
| \\      /  F ield         | OpenFOAM: The Open Source CFD Toolbox           |
|  \\    /   O peration     | Version:  2112                                  |
|   \\  /    A nd           | Website:  www.openfoam.com                      |
|    \\/     M anipulation  |                                                 |
\*---------------------------------------------------------------------------*/
FoamFile
{
    version     2.0;
    format      ascii;
    arch        "LSB;label=32;scalar=64";
    class       volScalarField;
    location    "0.9";
    object      k;
}
// * * * * * * * * * * * * * * * * * * * * * * * * * * * * * * * * * * * * * //

dimensions      [0 2 -2 0 0 0 0];

internalField   nonuniform List<scalar> 
64906
(
0.00396951
0.00407349
0.00410705
0.00411378
0.00411485
0.00411501
0.00411506
0.0041151
0.00411514
0.00411518
0.00411521
0.00411525
0.00411527
0.00411529
0.0041153
0.0041153
0.0041153
0.0041153
0.0041153
0.00411529
0.00411529
0.00411529
0.00411528
0.00411526
0.00411524
0.0041152
0.00411517
0.00411513
0.00411508
0.00411491
0.00411385
0.00410711
0.00407355
0.00396956
0.00407352
0.00505161
0.00535379
0.00542154
0.00543387
0.00543578
0.00543609
0.00543618
0.00543627
0.00543635
0.00543644
0.00543652
0.00543659
0.00543666
0.00543671
0.00543675
0.00543677
0.00543679
0.00543679
0.00543678
0.00543675
0.00543672
0.00543667
0.00543661
0.00543654
0.00543646
0.00543637
0.00543627
0.00543596
0.00543403
0.0054217
0.00535394
0.00505176
0.0040736
0.00410711
0.00535388
0.00577512
0.00587923
0.00590016
0.00590375
0.00590436
0.00590455
0.00590471
0.00590489
0.00590508
0.00590527
0.00590546
0.00590563
0.00590577
0.00590588
0.00590596
0.005906
0.005906
0.00590597
0.0059059
0.0059058
0.00590566
0.0059055
0.00590532
0.00590512
0.00590494
0.00590471
0.00590407
0.00590046
0.0058795
0.00577538
0.0053541
0.00410723
0.00411387
0.00542168
0.00587928
0.00599676
0.00602133
0.00602573
0.00602652
0.00602679
0.00602702
0.00602727
0.00602755
0.00602789
0.00602822
0.0060285
0.00602874
0.00602893
0.00602905
0.00602912
0.00602912
0.00602906
0.00602895
0.00602877
0.00602854
0.00602826
0.00602795
0.00602762
0.00602733
0.00602702
0.00602618
0.00602174
0.00599713
0.00587962
0.00542196
0.00411402
0.00411496
0.00543403
0.00590024
0.00602136
0.00604703
0.00605171
0.00605259
0.00605291
0.00605316
0.00605337
0.00605363
0.0060542
0.00605475
0.00605521
0.00605558
0.00605585
0.00605602
0.00605612
0.00605612
0.00605604
0.00605587
0.00605562
0.00605526
0.00605481
0.00605426
0.0060537
0.00605345
0.00605316
0.00605226
0.00604753
0.00602181
0.00590065
0.00543437
0.00411514
0.00411514
0.00543595
0.00590384
0.00602576
0.00605171
0.00605649
0.00605741
0.00605767
0.00605758
0.00605691
0.00605621
0.00605755
0.00605886
0.00605976
0.00606036
0.00606072
0.00606095
0.00606107
0.00606107
0.00606097
0.00606075
0.00606041
0.00605981
0.00605893
0.00605763
0.00605629
0.00605699
0.00605759
0.00605702
0.0060523
0.0060263
0.00590432
0.00543634
0.00411535
0.0041152
0.00543625
0.00590445
0.00602654
0.00605258
0.00605739
0.00605822
0.00605784
0.00605533
0.0060488
0.00604132
0.0060472
0.00605252
0.00605515
0.00605642
0.00605688
0.00605712
0.00605725
0.00605726
0.00605714
0.00605692
0.00605647
0.00605521
0.0060526
0.00604728
0.0060414
0.00604889
0.00605535
0.0060572
0.0060531
0.00602716
0.005905
0.0054367
0.00411545
0.00411524
0.00543633
0.00590462
0.00602678
0.00605285
0.0060576
0.00605778
0.00605416
0.00603975
0.00600306
0.00595754
0.00599209
0.00601903
0.00602952
0.0060331
0.00603376
0.00603394
0.00603406
0.00603407
0.00603397
0.0060338
0.00603316
0.0060296
0.00601912
0.00599218
0.00595762
0.00600316
0.00603979
0.00605353
0.00605268
0.00602737
0.00590524
0.00543684
0.00411553
0.00411528
0.00543639
0.00590473
0.00602695
0.00605303
0.00605741
0.0060552
0.00603977
0.00597995
0.00581702
0.00558827
0.00578169
0.00590643
0.00594756
0.00595828
0.00595996
0.00596027
0.00596041
0.00596042
0.0059603
0.00596001
0.00595835
0.00594765
0.00590654
0.00578181
0.00558833
0.00581712
0.00597999
0.00603916
0.00605012
0.00602719
0.00590539
0.00543694
0.0041156
0.00411531
0.00543642
0.00590485
0.00602712
0.00605313
0.00605665
0.00604875
0.00600376
0.00581857
0.00524919
0.00434148
0.00518217
0.00564345
0.00577208
0.00579909
0.00580416
0.00580522
0.00580551
0.00580552
0.00580525
0.00580421
0.00579916
0.00577218
0.00564359
0.00518237
0.00434146
0.00524928
0.00581863
0.00600317
0.00604368
0.00602642
0.00590545
0.00543701
0.00411566
0.00411533
0.00543645
0.00590495
0.0060273
0.00605327
0.00605596
0.00604202
0.00596142
0.00559705
0.00434665
0.00430858
0.00532868
0.0055857
0.00563356
0.00564055
0.00564139
0.00564151
0.00564151
0.0056414
0.00564057
0.00563359
0.00558577
0.00532884
0.00430869
0.00434673
0.00559711
0.00596084
0.00603696
0.00602572
0.00590553
0.00543705
0.0041157
0.00411533
0.00543646
0.00590506
0.00602752
0.00605373
0.00605749
0.0060499
0.00600501
0.00581889
0.00524579
0.00433972
0.00516013
0.00561814
0.0057448
0.00577128
0.0057729
0.00577199
0.00577157
0.00577156
0.00577198
0.00577288
0.00577125
0.00574477
0.00561813
0.00516007
0.00433957
0.00524561
0.00581883
0.00600436
0.00604479
0.0060272
0.00590588
0.00543709
0.00411572
0.00411533
0.00543647
0.00590515
0.00602771
0.00605415
0.006059
0.00605733
0.00604228
0.00598164
0.00581471
0.00557599
0.00574516
0.00584414
0.00587264
0.0058781
0.00587705
0.00587588
0.00587538
0.00587538
0.00587586
0.00587701
0.00587804
0.00587257
0.00584404
0.00574501
0.00557572
0.00581456
0.00598156
0.0060416
0.00605219
0.00602866
0.00590621
0.00543712
0.00411571
0.00411531
0.00543646
0.00590523
0.00602788
0.00605446
0.00605984
0.00606078
0.00605782
0.00604286
0.00600167
0.00594139
0.00594357
0.00593055
0.00592233
0.00591869
0.00591659
0.00591547
0.00591499
0.00591498
0.00591543
0.00591654
0.00591862
0.00592223
0.00593043
0.00594331
0.00594119
0.00600157
0.00604278
0.00605712
0.00605562
0.00602946
0.00590643
0.00543712
0.00411569
0.00411529
0.00543645
0.00590529
0.006028
0.00605467
0.00606025
0.00606201
0.00606251
0.00605961
0.00604827
0.00602401
0.00599422
0.005954
0.0059359
0.00592954
0.00592702
0.00592581
0.00592526
0.00592524
0.00592577
0.00592696
0.00592945
0.0059358
0.00595387
0.00599398
0.00602385
0.00604818
0.00605953
0.00606181
0.00605684
0.00602984
0.00590658
0.00543712
0.00411565
0.00411525
0.00543644
0.00590534
0.0060281
0.00605482
0.00606048
0.00606247
0.00606378
0.00606347
0.00605801
0.00604011
0.00600503
0.00595919
0.00593898
0.00593194
0.00592924
0.00592789
0.0059272
0.00592717
0.00592783
0.00592916
0.00593185
0.00593887
0.00595906
0.00600479
0.00603996
0.00605793
0.00606339
0.00606308
0.00605729
0.00603005
0.00590667
0.00543712
0.0041156
0.00411522
0.00543643
0.00590537
0.00602817
0.00605492
0.00606062
0.00606268
0.00606418
0.00606437
0.00605994
0.00604306
0.00600724
0.00596029
0.00593968
0.00593248
0.00592967
0.00592818
0.00592733
0.0059273
0.0059281
0.00592957
0.00593237
0.00593956
0.00596016
0.00600702
0.00604291
0.00605986
0.00606429
0.00606348
0.0060575
0.00603018
0.00590674
0.00543711
0.00411555
0.00411519
0.00543642
0.0059054
0.00602821
0.00605498
0.0060607
0.0060628
0.00606434
0.00606464
0.00606038
0.00604367
0.00600777
0.00596056
0.00593987
0.00593261
0.00592974
0.00592816
0.00592717
0.00592713
0.00592807
0.00592964
0.0059325
0.00593975
0.00596043
0.00600755
0.00604352
0.0060603
0.00606456
0.00606364
0.00605762
0.00603026
0.00590679
0.0054371
0.0041155
0.00411517
0.00543642
0.00590541
0.00602823
0.006055
0.00606073
0.00606284
0.00606439
0.0060647
0.00606046
0.00604376
0.00600786
0.00596061
0.0059399
0.00593262
0.00592972
0.0059281
0.00592704
0.00592699
0.005928
0.00592962
0.00593251
0.00593978
0.00596047
0.00600764
0.00604362
0.00606039
0.00606463
0.0060637
0.00605766
0.0060303
0.00590681
0.0054371
0.00411547
0.00411517
0.00543642
0.0059054
0.00602822
0.00605499
0.00606071
0.0060628
0.00606433
0.00606457
0.00606018
0.00604334
0.00600752
0.00596043
0.00593977
0.0059325
0.00592961
0.00592801
0.00592699
0.00592693
0.00592791
0.0059295
0.00593239
0.00593964
0.0059603
0.00600732
0.00604321
0.00606012
0.00606451
0.00606365
0.00605764
0.00603029
0.0059068
0.00543711
0.00411547
0.00411519
0.00543643
0.00590539
0.00602819
0.00605494
0.00606063
0.00606267
0.00606404
0.00606381
0.00605843
0.0060406
0.00600553
0.00595944
0.00593914
0.005932
0.00592916
0.00592763
0.00592674
0.00592669
0.00592753
0.00592905
0.00593188
0.00593902
0.00595931
0.00600534
0.0060405
0.0060584
0.00606377
0.00606337
0.00605752
0.00603022
0.00590678
0.00543712
0.0041155
0.00411522
0.00543645
0.00590536
0.00602813
0.00605484
0.00606047
0.00606229
0.00606288
0.0060601
0.00604891
0.00602481
0.00599504
0.0059544
0.00593616
0.00592964
0.00592694
0.00592552
0.00592478
0.00592474
0.00592543
0.00592683
0.00592952
0.00593605
0.00595429
0.00599489
0.00602475
0.0060489
0.00606009
0.00606223
0.00605717
0.00603008
0.00590673
0.00543714
0.00411555
0.00411525
0.00543647
0.00590533
0.00602804
0.00605468
0.00606012
0.00606114
0.00605831
0.00604354
0.00600265
0.00594272
0.00594488
0.00593117
0.00592273
0.00591888
0.00591656
0.00591522
0.0059146
0.00591457
0.00591515
0.00591646
0.00591877
0.00592263
0.00593109
0.0059448
0.00594271
0.00600269
0.00604357
0.0060577
0.00605605
0.00602977
0.00590663
0.00543716
0.0041156
0.00411527
0.00543648
0.00590527
0.00602791
0.00605442
0.00605935
0.00605778
0.0060429
0.00598255
0.00581615
0.00557819
0.00574688
0.00584496
0.00587317
0.00587838
0.00587712
0.00587578
0.00587518
0.00587515
0.00587572
0.00587704
0.00587829
0.00587309
0.00584494
0.00574695
0.00557828
0.00581627
0.00598263
0.00604234
0.00605273
0.00602905
0.00590646
0.00543718
0.00411563
0.00411528
0.00543649
0.00590521
0.00602775
0.00605405
0.00605791
0.00605043
0.00600573
0.00581996
0.00524752
0.00434094
0.0051612
0.0056183
0.00574481
0.0057711
0.00577253
0.00577147
0.00577096
0.00577094
0.00577141
0.00577244
0.00577099
0.0057447
0.00561827
0.00516144
0.00434091
0.00524771
0.0058201
0.00600523
0.00604543
0.00602768
0.00590618
0.00543718
0.00411565
0.00411528
0.0054365
0.00590513
0.00602758
0.00605365
0.00605643
0.0060426
0.00596207
0.00559768
0.00434678
0.00430717
0.00532583
0.00558266
0.0056301
0.00563673
0.00563732
0.0056373
0.00563727
0.00563722
0.00563653
0.00562975
0.00558209
0.00532498
0.00430661
0.00434673
0.00559779
0.0059616
0.00603766
0.00602627
0.00590589
0.00543717
0.00411564
0.00411527
0.00543648
0.00590505
0.00602744
0.00605357
0.00605722
0.00604948
0.00600468
0.00581968
0.00525054
0.00434285
0.00517877
0.00563706
0.00576091
0.00578509
0.00578902
0.00578963
0.00578972
0.00578968
0.00578947
0.00578861
0.00578399
0.00575836
0.00563224
0.0051757
0.00434228
0.00525043
0.00581975
0.00600423
0.00604456
0.00602709
0.00590588
0.00543715
0.00411562
0.00411525
0.00543644
0.00590491
0.00602725
0.00605345
0.00605799
0.00605598
0.00604079
0.00598117
0.00581816
0.00558808
0.00577489
0.00588778
0.00591187
0.00591404
0.0059134
0.00591314
0.00591307
0.00591302
0.00591291
0.00591263
0.0059114
0.00590424
0.00587146
0.00576344
0.00558317
0.0058166
0.00598087
0.00604027
0.00605107
0.0060279
0.00590584
0.0054371
0.00411558
0.00411521
0.00543617
0.00590433
0.00602649
0.00605267
0.00605758
0.00605798
0.00605461
0.00604032
0.00600295
0.00595394
0.00597681
0.00597909
0.00595494
0.00594406
0.00594068
0.00593979
0.00593957
0.00593951
0.00593952
0.00593966
0.00594014
0.00594159
0.00594556
0.00595249
0.0059428
0.0059993
0.00603949
0.00605399
0.00605307
0.00602755
0.00590527
0.00543681
0.00411552
0.00411505
0.00543428
0.00590076
0.00602211
0.00604802
0.00605295
0.00605401
0.00605389
0.00605149
0.00604417
0.00603281
0.00602647
0.00600569
0.00597286
0.00595956
0.0059558
0.00595493
0.00595476
0.00595472
0.00595471
0.00595483
0.00595557
0.00595891
0.00597092
0.00600059
0.00602078
0.00604024
0.00605061
0.00605329
0.00604918
0.00602324
0.00590166
0.00543488
0.00411533
0.00411398
0.00542195
0.00587982
0.00599753
0.00602233
0.006027
0.00602811
0.00602865
0.00602875
0.00602773
0.00602476
0.00601882
0.00600478
0.00598491
0.00597597
0.00597331
0.00597281
0.00597278
0.00597277
0.00597271
0.00597266
0.00597308
0.00597559
0.00598425
0.00600363
0.00601761
0.00602549
0.00602836
0.00602821
0.00602359
0.00599861
0.00588067
0.00542252
0.00411424
0.00410723
0.00535417
0.00577567
0.00587999
0.00590114
0.00590499
0.00590591
0.00590647
0.00590696
0.00590719
0.00590665
0.00590431
0.0058987
0.00589084
0.00588704
0.00588588
0.0058857
0.00588573
0.00588575
0.00588569
0.00588561
0.00588574
0.00588683
0.00589056
0.00589831
0.00590389
0.00590647
0.005907
0.00590625
0.00590228
0.00588095
0.00577643
0.00535469
0.00410746
0.00407364
0.00505192
0.00535431
0.00542224
0.00543475
0.00543688
0.00543744
0.00543784
0.00543825
0.0054386
0.00543872
0.00543824
0.00543682
0.00543464
0.0054335
0.00543309
0.00543299
0.00543298
0.00543298
0.00543297
0.00543297
0.00543305
0.00543344
0.00543455
0.00543669
0.00543809
0.00543858
0.00543844
0.00543786
0.00543563
0.00542299
0.00535491
0.00505233
0.00407385
0.00396962
0.00407368
0.00410732
0.00411415
0.00411531
0.00411559
0.00411578
0.004116
0.00411623
0.00411648
0.0041167
0.00411685
0.00411687
0.00411673
0.00411661
0.00411649
0.00411638
0.00411628
0.00411624
0.00411629
0.00411638
0.00411647
0.00411657
0.00411667
0.00411679
0.00411675
0.00411659
0.00411635
0.0041161
0.00411574
0.0041145
0.00410761
0.0040739
0.00396978
0.00550824
0.00610455
0.00631438
0.00636329
0.00637226
0.00637364
0.00637383
0.00637388
0.0063739
0.00637392
0.00637394
0.00637395
0.00637395
0.00637395
0.00637395
0.00637394
0.00637394
0.00637393
0.00637393
0.00637393
0.00637394
0.00637394
0.00637394
0.00637394
0.00637394
0.00637393
0.00637391
0.00637387
0.00637367
0.0063723
0.00636333
0.00631442
0.00610459
0.00550828
0.00610456
0.0100744
0.0110915
0.0113534
0.0114095
0.0114195
0.0114209
0.0114211
0.0114211
0.011421
0.011421
0.0114209
0.0114208
0.0114207
0.0114206
0.0114205
0.0114205
0.0114205
0.0114205
0.0114205
0.0114205
0.0114206
0.0114207
0.0114208
0.0114209
0.011421
0.011421
0.0114209
0.0114194
0.0114094
0.0113534
0.0110915
0.0100744
0.00610461
0.00631445
0.0110917
0.0123995
0.0127659
0.0128519
0.0128687
0.0128715
0.0128719
0.012872
0.0128721
0.0128721
0.0128722
0.0128723
0.0128723
0.0128724
0.0128724
0.0128724
0.0128724
0.0128724
0.0128724
0.0128724
0.0128724
0.0128723
0.0128723
0.0128722
0.0128722
0.0128721
0.0128716
0.0128688
0.012852
0.0127661
0.0123996
0.0110918
0.00631455
0.00636341
0.0113537
0.0127661
0.013176
0.0132757
0.0132959
0.0132995
0.0133001
0.0133003
0.0133003
0.0133004
0.0133006
0.0133009
0.0133011
0.0133012
0.0133014
0.0133014
0.0133015
0.0133015
0.0133015
0.0133014
0.0133013
0.0133011
0.0133009
0.0133007
0.0133004
0.0133003
0.0132998
0.0132962
0.0132759
0.0131762
0.0127663
0.0113538
0.00636355
0.0063724
0.0114098
0.012852
0.0132757
0.0133801
0.0134016
0.0134055
0.0134061
0.0134059
0.0134053
0.0134046
0.0134051
0.0134057
0.0134062
0.0134066
0.0134068
0.0134069
0.0134069
0.0134069
0.0134069
0.0134068
0.0134066
0.0134063
0.0134058
0.0134051
0.0134047
0.0134053
0.0134054
0.0134019
0.0133804
0.013276
0.0128523
0.01141
0.00637258
0.0063738
0.0114197
0.0128688
0.013296
0.0134016
0.0134235
0.0134273
0.0134271
0.0134247
0.0134193
0.0134138
0.0134158
0.0134187
0.0134204
0.0134213
0.0134214
0.0134215
0.0134215
0.0134215
0.0134215
0.0134215
0.0134213
0.0134205
0.0134188
0.0134159
0.0134139
0.0134193
0.0134241
0.0134229
0.0134018
0.0132963
0.0128691
0.01142
0.00637401
0.00637401
0.0114212
0.0128716
0.0132995
0.0134054
0.0134272
0.0134301
0.0134262
0.013412
0.0133822
0.0133516
0.0133647
0.0133807
0.0133886
0.0133916
0.0133917
0.0133913
0.0133912
0.0133912
0.0133914
0.0133917
0.0133916
0.0133886
0.0133808
0.0133648
0.0133517
0.0133822
0.0134115
0.0134219
0.0134046
0.0132997
0.0128719
0.0114214
0.00637425
0.00637406
0.0114213
0.012872
0.0133001
0.013406
0.0134271
0.0134262
0.0134069
0.0133445
0.0132088
0.0130639
0.013146
0.0132279
0.013263
0.0132742
0.0132749
0.0132739
0.0132735
0.0132735
0.013274
0.0132749
0.0132743
0.013263
0.0132279
0.0131461
0.0130639
0.0132088
0.0133439
0.0134026
0.0134006
0.0132995
0.0128722
0.0114215
0.00637433
0.00637408
0.0114213
0.0128721
0.0133002
0.0134058
0.0134246
0.0134124
0.0133454
0.0131246
0.0126065
0.0119788
0.0124357
0.012789
0.0129211
0.0129573
0.0129622
0.0129617
0.0129613
0.0129613
0.0129618
0.0129623
0.0129573
0.0129212
0.0127892
0.0124358
0.0119789
0.0126066
0.0131241
0.0133412
0.0133868
0.013297
0.0128719
0.0114214
0.00637437
0.00637409
0.0114211
0.012872
0.0133002
0.0134051
0.0134196
0.0133843
0.0132149
0.0126165
0.0109303
0.00751152
0.0105896
0.0118814
0.0122679
0.0123567
0.0123761
0.0123794
0.0123797
0.0123797
0.0123794
0.0123762
0.0123568
0.012268
0.0118816
0.0105899
0.00751141
0.0109303
0.0126159
0.0132106
0.0133587
0.0132919
0.012871
0.011421
0.00637439
0.00637408
0.011421
0.012872
0.0133002
0.0134046
0.0134155
0.0133594
0.013088
0.012029
0.0075567
0.00728084
0.0109165
0.0116445
0.0117982
0.0118223
0.0118246
0.0118246
0.0118246
0.0118246
0.0118223
0.0117982
0.0116446
0.0109168
0.00728109
0.00755675
0.0120284
0.0130837
0.0133338
0.0132877
0.0128703
0.0114207
0.00637437
0.00637406
0.0114208
0.012872
0.0133004
0.0134055
0.0134202
0.0133848
0.0132145
0.0126124
0.0109142
0.00750036
0.0105192
0.0118001
0.0121836
0.0122811
0.0122816
0.012276
0.0122739
0.0122739
0.012276
0.0122815
0.012281
0.0121835
0.0118
0.010519
0.00749994
0.0109137
0.0126117
0.0132102
0.0133591
0.0132922
0.0128709
0.0114204
0.00637434
0.00637402
0.0114206
0.012872
0.0133006
0.0134066
0.0134257
0.0134134
0.0133452
0.0131187
0.012583
0.0119142
0.0122867
0.0125446
0.0126334
0.012656
0.0126516
0.0126471
0.0126453
0.0126453
0.012647
0.0126516
0.0126559
0.0126333
0.0125445
0.0122864
0.0119138
0.0125826
0.013118
0.0133409
0.0133878
0.0132977
0.0128717
0.0114202
0.00637428
0.00637398
0.0114205
0.012872
0.0133008
0.0134072
0.0134287
0.0134279
0.0134071
0.0133371
0.0131764
0.012968
0.0129281
0.0128596
0.0128245
0.0128119
0.0128055
0.0128024
0.0128013
0.0128013
0.0128024
0.0128054
0.0128118
0.0128244
0.0128594
0.0129279
0.0129678
0.0131762
0.0133364
0.0134027
0.0134022
0.0133006
0.0128721
0.01142
0.00637421
0.00637393
0.0114204
0.012872
0.0133009
0.0134075
0.0134298
0.0134329
0.0134273
0.0134045
0.0133454
0.0132397
0.0131118
0.012955
0.0128823
0.0128586
0.0128514
0.012849
0.0128482
0.0128482
0.012849
0.0128513
0.0128585
0.0128822
0.0129548
0.0131117
0.0132396
0.0133452
0.0134039
0.013423
0.0134072
0.0133016
0.0128723
0.0114199
0.00637414
0.00637389
0.0114203
0.012872
0.0133009
0.0134077
0.0134302
0.0134343
0.0134326
0.0134211
0.0133848
0.0133
0.0131545
0.0129778
0.0128963
0.0128699
0.0128626
0.0128604
0.0128598
0.0128598
0.0128604
0.0128625
0.0128699
0.0128962
0.0129777
0.0131544
0.0133
0.0133847
0.0134205
0.0134282
0.0134086
0.013302
0.0128723
0.0114197
0.00637407
0.00637385
0.0114202
0.0128719
0.013301
0.0134078
0.0134304
0.0134347
0.0134338
0.0134246
0.0133926
0.0133116
0.0131629
0.0129826
0.0128993
0.0128725
0.0128651
0.0128631
0.0128625
0.0128625
0.0128631
0.0128651
0.0128724
0.0128992
0.0129825
0.0131628
0.0133115
0.0133925
0.013424
0.0134295
0.013409
0.0133022
0.0128724
0.0114197
0.00637401
0.00637382
0.0114202
0.012872
0.013301
0.0134078
0.0134305
0.0134348
0.0134341
0.0134253
0.013394
0.0133136
0.0131644
0.0129836
0.0129
0.0128731
0.0128657
0.0128637
0.0128631
0.0128631
0.0128637
0.0128657
0.012873
0.0128999
0.0129835
0.0131643
0.0133135
0.0133939
0.0134247
0.0134298
0.0134091
0.0133022
0.0128724
0.0114196
0.00637397
0.0063738
0.0114202
0.012872
0.013301
0.0134078
0.0134305
0.0134349
0.0134341
0.0134253
0.0133941
0.0133136
0.0131645
0.0129837
0.0129001
0.0128731
0.0128658
0.0128637
0.0128631
0.0128631
0.0128637
0.0128657
0.0128731
0.0129
0.0129836
0.0131644
0.0133136
0.013394
0.0134247
0.0134298
0.0134092
0.0133023
0.0128724
0.0114196
0.00637394
0.00637381
0.0114202
0.012872
0.013301
0.0134078
0.0134305
0.0134348
0.0134339
0.0134247
0.0133928
0.0133118
0.0131631
0.0129829
0.0128995
0.0128726
0.0128653
0.0128632
0.0128626
0.0128626
0.0128632
0.0128652
0.0128726
0.0128994
0.0129828
0.0131631
0.0133117
0.0133927
0.0134242
0.0134296
0.0134091
0.0133022
0.0128724
0.0114196
0.00637395
0.00637383
0.0114203
0.012872
0.013301
0.0134078
0.0134304
0.0134345
0.0134328
0.0134214
0.0133851
0.0133004
0.0131549
0.0129783
0.0128966
0.0128702
0.0128629
0.0128607
0.0128601
0.0128601
0.0128607
0.0128629
0.0128702
0.0128966
0.0129782
0.0131549
0.0133004
0.0133851
0.0134208
0.0134285
0.0134088
0.0133022
0.0128724
0.0114197
0.00637398
0.00637386
0.0114203
0.012872
0.013301
0.0134077
0.01343
0.0134331
0.0134276
0.013405
0.013346
0.0132405
0.0131126
0.0129558
0.0128831
0.0128593
0.0128521
0.0128497
0.0128489
0.0128489
0.0128497
0.0128521
0.0128593
0.0128831
0.0129558
0.0131126
0.0132405
0.013346
0.0134045
0.0134234
0.0134075
0.0133019
0.0128724
0.0114198
0.00637403
0.0063739
0.0114204
0.012872
0.0133009
0.0134074
0.0134289
0.0134282
0.0134075
0.0133378
0.0131776
0.0129697
0.0129298
0.0128612
0.012826
0.0128134
0.012807
0.012804
0.0128029
0.0128029
0.012804
0.012807
0.0128135
0.0128261
0.0128613
0.0129299
0.0129698
0.0131776
0.0133373
0.0134033
0.0134026
0.0133008
0.0128722
0.0114199
0.0063741
0.00637394
0.0114206
0.012872
0.0133008
0.0134068
0.013426
0.0134139
0.0133459
0.0131198
0.012585
0.0119177
0.0122897
0.0125471
0.0126358
0.0126584
0.0126543
0.0126498
0.0126481
0.0126481
0.0126499
0.0126544
0.0126586
0.012636
0.0125474
0.0122901
0.0119179
0.0125851
0.0131193
0.0133417
0.0133883
0.013298
0.0128719
0.0114201
0.00637416
0.00637397
0.0114207
0.0128721
0.0133006
0.0134058
0.0134206
0.0133853
0.0132153
0.0126138
0.010917
0.00750355
0.0105219
0.0118013
0.0121849
0.0122825
0.0122832
0.0122777
0.0122757
0.0122757
0.0122778
0.0122833
0.0122826
0.0121849
0.0118014
0.0105225
0.00750355
0.0109172
0.0126134
0.0132112
0.0133598
0.0132927
0.0128711
0.0114203
0.00637421
0.006374
0.0114209
0.0128721
0.0133004
0.013405
0.0134159
0.01336
0.0130887
0.0120297
0.00755641
0.0072762
0.010908
0.0116344
0.0117867
0.0118103
0.0118125
0.0118123
0.0118123
0.0118124
0.0118101
0.0117859
0.0116326
0.0109047
0.00727386
0.007556
0.0120291
0.0130845
0.0133345
0.0132882
0.0128705
0.0114205
0.00637424
0.00637401
0.011421
0.0128721
0.0133004
0.0134055
0.0134201
0.0133849
0.0132156
0.0126173
0.010931
0.00751199
0.0105733
0.0118529
0.0122227
0.0123019
0.0123192
0.0123221
0.0123224
0.0123224
0.0123219
0.0123183
0.0122988
0.0122136
0.0118349
0.0105586
0.00750775
0.0109289
0.012616
0.0132113
0.0133594
0.0132924
0.0128712
0.0114208
0.00637426
0.00637399
0.0114209
0.0128717
0.0132999
0.0134056
0.0134246
0.0134125
0.0133456
0.0131244
0.012604
0.0119673
0.0123968
0.0127018
0.0127719
0.0127764
0.0127748
0.0127738
0.0127734
0.0127733
0.0127733
0.0127725
0.0127672
0.0127427
0.01264
0.0123463
0.0119419
0.0125946
0.013121
0.0133407
0.0133869
0.013297
0.0128716
0.0114209
0.00637424
0.0063738
0.0114195
0.012869
0.0132965
0.0134022
0.0134234
0.0134226
0.0134032
0.0133397
0.0131988
0.0130356
0.0130678
0.0130522
0.0129628
0.0129177
0.0129035
0.0129
0.0128992
0.0128991
0.0128992
0.0128996
0.0129013
0.0129078
0.0129279
0.0129689
0.0129854
0.0131799
0.0133335
0.0133977
0.013397
0.0132961
0.0128693
0.0114195
0.00637404
0.00637242
0.0114096
0.0128522
0.0132762
0.0133809
0.0134024
0.0134053
0.0134012
0.0133858
0.0133501
0.0132993
0.0132586
0.0131692
0.0130441
0.0129879
0.0129711
0.0129672
0.0129664
0.0129662
0.0129663
0.012967
0.0129705
0.0129854
0.0130365
0.0131527
0.0132452
0.0133296
0.0133792
0.0133957
0.0133801
0.0132767
0.0128526
0.0114096
0.00637265
0.00636345
0.0113535
0.0127663
0.0131765
0.0132764
0.0132969
0.0133004
0.0133002
0.0132969
0.0132876
0.0132688
0.0132358
0.0131713
0.0130907
0.0130522
0.01304
0.013037
0.0130364
0.0130363
0.0130364
0.013037
0.0130399
0.0130516
0.0130893
0.0131685
0.0132338
0.0132742
0.0132925
0.0132955
0.0132768
0.0131771
0.0127667
0.0113536
0.00636365
0.00631451
0.0110915
0.0123997
0.0127665
0.0128526
0.0128696
0.0128725
0.0128729
0.0128723
0.0128698
0.0128629
0.0128474
0.0128178
0.0127815
0.0127627
0.0127562
0.0127544
0.012754
0.0127539
0.012754
0.0127545
0.0127562
0.0127627
0.0127813
0.0128174
0.0128472
0.0128638
0.0128702
0.0128695
0.0128531
0.012767
0.0124
0.0110915
0.00631467
0.00610464
0.0100743
0.0110917
0.0113539
0.0114101
0.0114202
0.0114218
0.011422
0.0114218
0.011421
0.0114186
0.0114132
0.0114031
0.0113906
0.0113836
0.0113808
0.0113798
0.0113795
0.0113794
0.0113795
0.0113799
0.011381
0.0113839
0.0113909
0.0114033
0.0114135
0.011419
0.011421
0.0114202
0.0114103
0.0113541
0.0110919
0.0100742
0.00610476
0.00550833
0.00610465
0.0063146
0.00636363
0.0063727
0.0063742
0.00637453
0.00637473
0.00637491
0.00637503
0.00637498
0.00637451
0.00637339
0.00637182
0.00637089
0.00637044
0.00637022
0.00637011
0.00637007
0.00637012
0.00637024
0.00637046
0.0063709
0.00637182
0.00637336
0.00637445
0.0063749
0.00637492
0.00637461
0.00637307
0.00636393
0.00631481
0.00610478
0.00550846
0.00580231
0.00665965
0.00698793
0.00707194
0.00708893
0.0070918
0.00709222
0.00709228
0.00709229
0.0070923
0.00709229
0.00709228
0.00709227
0.00709225
0.00709223
0.00709222
0.00709221
0.0070922
0.0070922
0.00709221
0.00709222
0.00709223
0.00709224
0.00709226
0.00709227
0.00709228
0.00709228
0.00709222
0.00709181
0.00708894
0.00707195
0.00698794
0.00665967
0.00580235
0.00665965
0.0117279
0.0130872
0.013468
0.0135575
0.0135751
0.0135779
0.0135782
0.0135782
0.013578
0.0135779
0.0135777
0.0135775
0.0135773
0.0135772
0.013577
0.013577
0.0135769
0.0135769
0.0135769
0.013577
0.0135771
0.0135773
0.0135775
0.0135777
0.0135778
0.0135779
0.0135777
0.0135748
0.0135573
0.0134678
0.0130871
0.0117278
0.00665967
0.006988
0.0130874
0.0148194
0.0153442
0.0154788
0.0155077
0.0155129
0.0155137
0.0155138
0.0155138
0.0155137
0.0155136
0.0155136
0.0155135
0.0155135
0.0155135
0.0155134
0.0155134
0.0155134
0.0155134
0.0155135
0.0155135
0.0155135
0.0155136
0.0155136
0.0155137
0.0155136
0.0155129
0.0155076
0.0154788
0.0153442
0.0148194
0.0130874
0.00698806
0.00707206
0.0134683
0.0153443
0.0159326
0.0160891
0.016124
0.0161306
0.0161317
0.0161317
0.0161315
0.0161313
0.0161313
0.0161314
0.0161315
0.0161316
0.0161316
0.0161316
0.0161316
0.0161316
0.0161316
0.0161316
0.0161316
0.0161315
0.0161314
0.0161313
0.0161313
0.0161314
0.0161305
0.0161241
0.0160892
0.0159327
0.0153444
0.0134684
0.00707218
0.00708909
0.0135579
0.015479
0.0160892
0.0162538
0.0162909
0.016298
0.016299
0.0162983
0.0162966
0.0162947
0.0162945
0.0162948
0.0162952
0.0162955
0.0162955
0.0162954
0.0162954
0.0162954
0.0162954
0.0162955
0.0162955
0.0162952
0.0162949
0.0162945
0.0162947
0.0162964
0.016297
0.0162908
0.0162539
0.0160894
0.0154792
0.013558
0.00708924
0.00709198
0.0135754
0.0155079
0.016124
0.016291
0.0163287
0.0163356
0.016335
0.0163299
0.0163196
0.0163088
0.0163084
0.0163105
0.0163121
0.016313
0.0163127
0.0163122
0.016312
0.016312
0.0163122
0.0163127
0.016313
0.0163121
0.0163105
0.0163085
0.0163089
0.0163194
0.0163286
0.0163266
0.0162906
0.0161242
0.015508
0.0135755
0.00709215
0.00709241
0.0135782
0.0155131
0.0161306
0.016298
0.0163356
0.0163405
0.0163328
0.0163076
0.0162578
0.0162064
0.0162113
0.0162252
0.0162335
0.0162374
0.016236
0.0162344
0.0162337
0.0162337
0.0162344
0.016236
0.0162374
0.0162335
0.0162253
0.0162113
0.0162064
0.0162577
0.0163063
0.0163244
0.0162954
0.0161303
0.0155132
0.0135783
0.00709261
0.00709247
0.0135785
0.0155139
0.0161317
0.016299
0.016335
0.016333
0.0162992
0.0161984
0.0159941
0.0157793
0.0158372
0.0159147
0.0159523
0.0159671
0.0159642
0.0159603
0.0159587
0.0159587
0.0159603
0.0159642
0.0159671
0.0159524
0.0159148
0.0158373
0.0157793
0.015994
0.0161971
0.0162908
0.0162878
0.0161295
0.0155136
0.0135785
0.00709269
0.00709248
0.0135784
0.0155139
0.0161317
0.0162983
0.0163302
0.016309
0.0162013
0.015874
0.0151588
0.0143187
0.0147315
0.0150824
0.0152218
0.0152638
0.0152654
0.0152615
0.0152597
0.0152597
0.0152615
0.0152655
0.0152638
0.0152218
0.0150825
0.0147316
0.0143187
0.0151587
0.0158727
0.0161929
0.0162638
0.0161247
0.0155127
0.0135782
0.00709269
0.00709246
0.0135782
0.0155138
0.0161315
0.0162968
0.0163213
0.0162643
0.0160111
0.0151856
0.0129936
0.00860536
0.0120669
0.0134238
0.0138267
0.0139061
0.0139421
0.0139488
0.0139494
0.0139494
0.0139488
0.0139421
0.0139061
0.0138267
0.0134239
0.0120672
0.0086052
0.0129935
0.0151843
0.0160026
0.016219
0.0161156
0.015511
0.0135776
0.00709265
0.00709243
0.013578
0.0155137
0.0161314
0.0162958
0.0163146
0.0162282
0.0158428
0.0144529
0.00875453
0.00782621
0.0115757
0.0123205
0.0124841
0.0125035
0.0125036
0.012503
0.012503
0.0125036
0.0125035
0.0124841
0.0123207
0.011576
0.00782649
0.00875447
0.0144515
0.0158343
0.0161828
0.0161087
0.0155096
0.0135769
0.00709258
0.00709238
0.0135777
0.0155136
0.0161316
0.0162971
0.0163216
0.0162642
0.0160091
0.0151772
0.0129664
0.00857299
0.0119431
0.0133102
0.0137353
0.0139062
0.01384
0.0138141
0.0138081
0.0138081
0.0138141
0.0138399
0.013906
0.0137352
0.0133101
0.011943
0.00857259
0.0129657
0.0151757
0.0160005
0.0162188
0.0161156
0.0155105
0.0135766
0.00709251
0.00709232
0.0135774
0.0155135
0.0161318
0.0162988
0.0163308
0.0163088
0.0161972
0.0158553
0.0150962
0.0141467
0.014358
0.0144927
0.0145497
0.0145823
0.0145597
0.0145478
0.0145443
0.0145442
0.0145477
0.0145596
0.0145822
0.0145496
0.0144925
0.0143578
0.0141463
0.0150957
0.0158538
0.0161886
0.0162633
0.0161246
0.0155119
0.0135763
0.00709242
0.00709226
0.0135772
0.0155134
0.016132
0.0162998
0.0163359
0.0163329
0.0162933
0.0161703
0.0158975
0.0155139
0.0152661
0.0149857
0.0148742
0.0148469
0.0148344
0.0148292
0.0148276
0.0148276
0.0148292
0.0148343
0.0148469
0.0148741
0.0149856
0.015266
0.0155138
0.0158972
0.0161689
0.0162848
0.0162874
0.0161296
0.0155126
0.0135761
0.00709233
0.00709221
0.013577
0.0155133
0.0161321
0.0163002
0.016338
0.0163417
0.0163272
0.0162753
0.0161431
0.0158916
0.0155392
0.0151368
0.0149699
0.0149242
0.0149124
0.0149092
0.0149084
0.0149084
0.0149092
0.0149124
0.0149241
0.0149698
0.0151367
0.0155392
0.0158916
0.0161429
0.0162739