/*--------------------------------*- C++ -*----------------------------------*\
| =========                 |                                                 |
| \\      /  F ield         | OpenFOAM: The Open Source CFD Toolbox           |
|  \\    /   O peration     | Version:  2112                                  |
|   \\  /    A nd           | Website:  www.openfoam.com                      |
|    \\/     M anipulation  |                                                 |
\*---------------------------------------------------------------------------*/
FoamFile
{
    version     2.0;
    format      ascii;
    arch        "LSB;label=32;scalar=64";
    class       volScalarField;
    location    "0.9";
    object      nut;
}
// * * * * * * * * * * * * * * * * * * * * * * * * * * * * * * * * * * * * * //

dimensions      [0 2 -1 0 0 0 0];

internalField   nonuniform List<scalar> 
64906
(
0.000140913
0.000143265
0.00014409
0.000144273
0.000144305
0.000144311
0.000144312
0.000144313
0.000144313
0.000144314
0.000144315
0.000144316
0.000144316
0.000144316
0.000144317
0.000144317
0.000144317
0.000144317
0.000144316
0.000144316
0.000144316
0.000144316
0.000144316
0.000144316
0.000144315
0.000144315
0.000144314
0.000144313
0.000144312
0.000144307
0.000144275
0.000144091
0.000143266
0.000140914
0.000143265
0.000162066
0.000167997
0.000169466
0.000169765
0.000169817
0.000169825
0.000169828
0.000169829
0.000169831
0.000169832
0.000169834
0.000169835
0.000169836
0.000169837
0.000169838
0.000169838
0.000169838
0.000169838
0.000169838
0.000169838
0.000169837
0.000169836
0.000169835
0.000169834
0.000169833
0.000169831
0.000169829
0.00016982
0.000169768
0.000169468
0.000168
0.000162069
0.000143267
0.000144091
0.000167999
0.000176067
0.000178254
0.000178746
0.000178839
0.000178856
0.00017886
0.000178863
0.000178866
0.00017887
0.000178873
0.000178877
0.00017888
0.000178882
0.000178884
0.000178885
0.000178886
0.000178886
0.000178886
0.000178884
0.000178883
0.00017888
0.000178877
0.000178874
0.000178871
0.000178867
0.000178862
0.000178845
0.000178751
0.000178259
0.000176071
0.000168003
0.000144094
0.000144275
0.000169468
0.000178255
0.00018073
0.000181309
0.000181424
0.000181445
0.000181451
0.000181456
0.00018146
0.000181465
0.000181471
0.000181477
0.000181482
0.000181486
0.00018149
0.000181492
0.000181493
0.000181493
0.000181492
0.00018149
0.000181487
0.000181483
0.000181478
0.000181472
0.000181466
0.000181461
0.000181454
0.000181432
0.000181317
0.000180736
0.000178261
0.000169474
0.000144278
0.000144308
0.000169768
0.000178747
0.00018131
0.000181918
0.000182041
0.000182064
0.000182071
0.000182075
0.000182077
0.00018208
0.00018209
0.000182101
0.000182109
0.000182116
0.000182121
0.000182124
0.000182126
0.000182126
0.000182124
0.000182122
0.000182117
0.00018211
0.000182102
0.000182091
0.000182081
0.000182078
0.000182073
0.00018205
0.000181927
0.000181318
0.000178755
0.000169775
0.000144312
0.000144313
0.00016982
0.000178841
0.000181425
0.000182041
0.000182166
0.00018219
0.000182194
0.000182187
0.000182164
0.000182142
0.000182167
0.000182195
0.000182214
0.000182226
0.000182232
0.000182236
0.000182238
0.000182238
0.000182236
0.000182233
0.000182227
0.000182215
0.000182196
0.000182169
0.000182144
0.000182165
0.000182185
0.000182173
0.000182051
0.000181434
0.00017885
0.000169828
0.000144318
0.000144315
0.000169829
0.000178858
0.000181446
0.000182064
0.000182189
0.00018221
0.000182194
0.000182123
0.000181961
0.000181791
0.0001819
0.000182015
0.000182074
0.000182102
0.00018211
0.000182114
0.000182116
0.000182116
0.000182114
0.000182111
0.000182103
0.000182075
0.000182016
0.000181901
0.000181792
0.000181962
0.000182122
0.000182173
0.00018207
0.000181456
0.000178868
0.000169837
0.00014432
0.000144316
0.00016983
0.000178861
0.000181451
0.00018207
0.000182192
0.000182193
0.000182093
0.000181741
0.000180935
0.000180032
0.000180645
0.000181191
0.000181425
0.000181507
0.00018152
0.000181522
0.000181523
0.000181524
0.000181523
0.000181521
0.000181508
0.000181426
0.000181193
0.000180647
0.000180034
0.000180937
0.00018174
0.000182072
0.000182054
0.000181459
0.000178872
0.00016984
0.000144322
0.000144316
0.000169831
0.000178864
0.000181454
0.000182072
0.000182184
0.000182122
0.000181743
0.000180426
0.00017718
0.000173009
0.000176344
0.000178708
0.000179563
0.000179805
0.000179843
0.000179848
0.00017985
0.00017985
0.000179848
0.000179844
0.000179806
0.000179565
0.000178711
0.000176347
0.00017301
0.000177182
0.000180426
0.000181723
0.000181983
0.00018145
0.000178874
0.000169842
0.000144323
0.000144317
0.000169832
0.000178865
0.000181457
0.000182072
0.00018216
0.000181964
0.000180959
0.000177224
0.000166465
0.000149355
0.000164921
0.000173423
0.000175933
0.000176509
0.000176624
0.000176647
0.000176653
0.000176653
0.000176648
0.000176625
0.00017651
0.000175935
0.000173426
0.000164925
0.000149355
0.000166466
0.000177223
0.000180939
0.000181826
0.000181427
0.000178873
0.000169842
0.000144324
0.000144317
0.000169832
0.000178867
0.00018146
0.000182074
0.000182142
0.000181819
0.000180142
0.000173236
0.000149497
0.000148547
0.000167596
0.000172388
0.000173356
0.000173511
0.000173531
0.000173534
0.000173534
0.000173532
0.000173512
0.000173356
0.000172389
0.0001676
0.000148549
0.000149498
0.000173236
0.000180122
0.00018168
0.000181408
0.000178873
0.000169843
0.000144325
0.000144317
0.000169832
0.000178869
0.000181464
0.000182083
0.000182176
0.000181985
0.00018098
0.000177224
0.000166386
0.000149304
0.000164426
0.000172851
0.000175317
0.000175882
0.000175929
0.000175912
0.000175904
0.000175903
0.000175912
0.000175928
0.000175881
0.000175317
0.000172851
0.000164424
0.0001493
0.000166382
0.000177221
0.000180959
0.000181845
0.000181441
0.000178881
0.000169843
0.000144325
0.000144317
0.000169832
0.000178871
0.000181468
0.000182093
0.000182212
0.00018216
0.000181785
0.000180444
0.0001771
0.00017269
0.000175477
0.000177268
0.000177844
0.000177971
0.000177957
0.000177934
0.000177924
0.000177924
0.000177934
0.000177956
0.00017797
0.000177843
0.000177266
0.000175474
0.000172685
0.000177097
0.000180441
0.000181764
0.00018202
0.000181477
0.000178888
0.000169844
0.000144325
0.000144317
0.000169832
0.000178872
0.000181471
0.000182099
0.000182233
0.000182247
0.000182155
0.000181778
0.00018085
0.000179586
0.00017945
0.000179103
0.000178914
0.000178836
0.000178795
0.000178773
0.000178763
0.000178763
0.000178772
0.000178794
0.000178835
0.000178912
0.000179101
0.000179445
0.000179582
0.000180847
0.000181775
0.000182133
0.000182107
0.000181496
0.000178893
0.000169844
0.000144325
0.000144316
0.000169832
0.000178873
0.000181473
0.000182103
0.000182243
0.000182279
0.000182275
0.00018218
0.000181879
0.00018129
0.00018056
0.000179648
0.000179233
0.00017909
0.000179037
0.000179014
0.000179004
0.000179004
0.000179013
0.000179036
0.000179088
0.000179231
0.000179645
0.000180556
0.000181287
0.000181877
0.000182177
0.000182253
0.000182138
0.000181506
0.000178896
0.000169844
0.000144324
0.000144316
0.000169832
0.000178874
0.000181475
0.000182106
0.000182248
0.00018229
0.000182309
0.000182279
0.000182115
0.000181658
0.000180818
0.000179777
0.00017931
0.00017915
0.000179094
0.000179068
0.000179056
0.000179055
0.000179067
0.000179092
0.000179148
0.000179308
0.000179775
0.000180814
0.000181655
0.000182113
0.000182276
0.000182287
0.000182149
0.00018151
0.000178898
0.000169844
0.000144323
0.000144315
0.000169832
0.000178875
0.000181476
0.000182108
0.00018225
0.000182295
0.000182318
0.000182302
0.000182164
0.00018173
0.000180872
0.000179805
0.000179327
0.000179164
0.000179105
0.000179078
0.000179063
0.000179062
0.000179076
0.000179104
0.000179162
0.000179325
0.000179803
0.000180868
0.000181727
0.000182162
0.000182299
0.000182296
0.000182154
0.000181512
0.000178899
0.000169844
0.000144322
0.000144314
0.000169831
0.000178875
0.000181477
0.000182109
0.000182252
0.000182297
0.000182322
0.000182308
0.000182175
0.000181744
0.000180885
0.000179812
0.000179332
0.000179167
0.000179107
0.000179078
0.000179061
0.00017906
0.000179077
0.000179106
0.000179165
0.00017933
0.000179809
0.000180881
0.000181741
0.000182173
0.000182306
0.0001823
0.000182156
0.000181514
0.0001789
0.000169844
0.00014432
0.000144314
0.000169831
0.000178875
0.000181477
0.00018211
0.000182252
0.000182298
0.000182323
0.00018231
0.000182176
0.000181746
0.000180886
0.000179813
0.000179332
0.000179167
0.000179107
0.000179077
0.000179059
0.000179058
0.000179076
0.000179105
0.000179165
0.00017933
0.00017981
0.000180882
0.000181743
0.000182175
0.000182307
0.000182301
0.000182157
0.000181515
0.0001789
0.000169844
0.00014432
0.000144314
0.000169831
0.000178875
0.000181477
0.000182109
0.000182252
0.000182297
0.000182321
0.000182306
0.000182168
0.000181735
0.000180878
0.000179808
0.000179329
0.000179164
0.000179104
0.000179075
0.000179057
0.000179056
0.000179073
0.000179102
0.000179162
0.000179327
0.000179806
0.000180874
0.000181732
0.000182167
0.000182304
0.0001823
0.000182157
0.000181514
0.0001789
0.000169844
0.00014432
0.000144314
0.000169832
0.000178875
0.000181477
0.000182108
0.000182251
0.000182294
0.000182313
0.000182286
0.000182123
0.000181667
0.000180827
0.000179782
0.000179313
0.000179151
0.000179092
0.000179064
0.000179048
0.000179047
0.000179062
0.00017909
0.000179149
0.000179311
0.00017978
0.000180824
0.000181665
0.000182122
0.000182283
0.000182292
0.000182154
0.000181513
0.0001789
0.000169844
0.000144321
0.000144315
0.000169832
0.000178874
0.000181476
0.000182107
0.000182247
0.000182285
0.000182282
0.000182189
0.000181891
0.000181306
0.000180576
0.000179656
0.000179238
0.000179092
0.000179037
0.00017901
0.000178996
0.000178996
0.000179008
0.000179035
0.00017909
0.000179236
0.000179654
0.000180574
0.000181304
0.000181891
0.000182188
0.000182261
0.000182145
0.00018151
0.000178899
0.000169845
0.000144322
0.000144315
0.000169832
0.000178874
0.000181474
0.000182103
0.000182239
0.000182254
0.000182164
0.000181792
0.000180869
0.000179612
0.000179476
0.000179116
0.000178922
0.000178841
0.000178796
0.00017877
0.000178758
0.000178758
0.000178769
0.000178794
0.00017884
0.000178921
0.000179115
0.000179475
0.000179612
0.00018087
0.000181791
0.000182144
0.000182115
0.000181503
0.000178897
0.000169845
0.000144323
0.000144316
0.000169833
0.000178873
0.000181472
0.000182098
0.000182219
0.000182168
0.000181797
0.000180462
0.000177129
0.000172735
0.00017551
0.000177285
0.000177856
0.000177979
0.00017796
0.000177935
0.000177923
0.000177923
0.000177934
0.000177959
0.000177977
0.000177855
0.000177285
0.000175512
0.000172737
0.000177131
0.000180462
0.000181778
0.00018203
0.000181484
0.000178893
0.000169845
0.000144323
0.000144316
0.000169833
0.000178872
0.000181469
0.000182089
0.000182184
0.000181995
0.000180994
0.000177245
0.000166422
0.000149331
0.000164448
0.000172854
0.000175317
0.000175878
0.000175922
0.000175903
0.000175893
0.000175892
0.000175902
0.00017592
0.000175876
0.000175315
0.000172854
0.000164453
0.00014933
0.000166426
0.000177247
0.000180976
0.000181858
0.00018145
0.000178886
0.000169845
0.000144324
0.000144316
0.000169833
0.000178871
0.000181465
0.000182081
0.000182151
0.00018183
0.000180155
0.000173249
0.0001495
0.000148513
0.000167532
0.000172316
0.000173274
0.000173423
0.000173438
0.000173438
0.000173438
0.000173436
0.000173419
0.000173267
0.000172303
0.000167512
0.000148499
0.000149499
0.00017325
0.000180137
0.000181694
0.000181419
0.00017888
0.000169845
0.000144324
0.000144316
0.000169833
0.000178869
0.000181463
0.00018208
0.000182171
0.000181978
0.000180977
0.000177245
0.000166491
0.000149383
0.000164835
0.000173262
0.000175661
0.00017617
0.000176261
0.000176277
0.000176279
0.000176278
0.000176273
0.000176253
0.000176145
0.0001756
0.000173148
0.000164756
0.000149366
0.000166486
0.000177244
0.000180959
0.000181842
0.00018144
0.000178881
0.000169845
0.000144323
0.000144316
0.000169832
0.000178866
0.000181459
0.000182079
0.000182193
0.000182135
0.000181761
0.000180447
0.000177196
0.000172985
0.000176158
0.000178239
0.000178705
0.000178747
0.000178734
0.000178728
0.000178726
0.000178725
0.000178723
0.000178716
0.000178686
0.000178526
0.000177863
0.000175878
0.000172856
0.000177151
0.000180435
0.000181741
0.000181999
0.000181463
0.000178881
0.000169844
0.000144323
0.000144315
0.000169824
0.00017885
0.000181438
0.000182058
0.000182184
0.000182189
0.000182092
0.00018174
0.000180913
0.000179916
0.000180242
0.000180211
0.000179669
0.000179416
0.000179336
0.000179316
0.000179311
0.000179309
0.00017931
0.000179313
0.000179323
0.000179356
0.000179456
0.000179667
0.000179637
0.000180815
0.000181713
0.000182069
0.000182053
0.000181455
0.000178867
0.000169836
0.000144321
0.00014431
0.000169773
0.000178757
0.000181324
0.000181936
0.000182063
0.000182087
0.000182076
0.000182004
0.000181817
0.000181542
0.000181347
0.000180843
0.000180099
0.000179785
0.000179693
0.000179672
0.000179667
0.000179667
0.000179667
0.00017967
0.000179688
0.000179769
0.000180052
0.000180732
0.000181241
0.00018171
0.000181976
0.000182054
0.000181954
0.000181344
0.000178773
0.000169784
0.000144316
0.000144277
0.000169473
0.000178265
0.000180744
0.000181328
0.000181448
0.000181474
0.000181483
0.000181477
0.000181441
0.000181355
0.00018119
0.000180839
0.00018037
0.000180152
0.000180085
0.000180071
0.000180069
0.000180069
0.000180068
0.000180068
0.000180081
0.000180144
0.000180356
0.000180815
0.000181168
0.000181377
0.000181461
0.000181465
0.00018135
0.000180764
0.00017828
0.000169484
0.000144283
0.000144094
0.000168004
0.000176077
0.000178268
0.000178764
0.000178863
0.000178885
0.000178896
0.000178903
0.000178902
0.000178879
0.00017881
0.00017866
0.000178463
0.000178365
0.000178333
0.000178327
0.000178327
0.000178327
0.000178326
0.000178326
0.000178331
0.000178361
0.000178458
0.000178653
0.000178802
0.000178878
0.000178899
0.000178884
0.000178785
0.000178286
0.000176091
0.000168014
0.000144099
0.000143268
0.000162072
0.000168007
0.000169479
0.000169782
0.000169838
0.000169852
0.00016986
0.000169867
0.000169873
0.000169871
0.000169854
0.000169812
0.000169753
0.000169722
0.00016971
0.000169708
0.000169707
0.000169707
0.000169707
0.000169707
0.00016971
0.000169721
0.000169752
0.00016981
0.000169851
0.000169869
0.000169869
0.000169857
0.000169799
0.000169494
0.000168019
0.00016208
0.000143272
0.000140915
0.000143269
0.000144096
0.000144281
0.000144315
0.000144323
0.000144328
0.000144332
0.000144337
0.000144343
0.000144347
0.00014435
0.000144349
0.000144344
0.000144341
0.000144338
0.000144335
0.000144333
0.000144332
0.000144333
0.000144335
0.000144337
0.00014434
0.000144343
0.000144347
0.000144347
0.000144345
0.00014434
0.000144334
0.000144325
0.000144289
0.000144102
0.000143274
0.000140918
0.00021516
0.000228666
0.000233683
0.000234973
0.000235236
0.000235281
0.000235288
0.000235289
0.00023529
0.00023529
0.000235291
0.000235291
0.000235291
0.000235291
0.00023529
0.00023529
0.00023529
0.00023529
0.00023529
0.00023529
0.00023529
0.00023529
0.00023529
0.00023529
0.00023529
0.00023529
0.00023529
0.000235289
0.000235282
0.000235237
0.000234973
0.000233683
0.000228667
0.000215161
0.000228666
0.000611793
0.00070522
0.000728603
0.00073373
0.000734678
0.000734824
0.000734839
0.000734833
0.000734824
0.000734812
0.000734797
0.000734784
0.000734771
0.00073476
0.000734751
0.000734745
0.000734742
0.000734742
0.000734745
0.000734751
0.000734759
0.00073477
0.000734783
0.000734796
0.00073481
0.000734819
0.000734808
0.000734664
0.000733717
0.00072859
0.000705209
0.000611784
0.000228667
0.000233684
0.000705237
0.000834052
0.000869459
0.000877958
0.000879684
0.000879984
0.00088003
0.000880036
0.000880036
0.000880035
0.000880035
0.000880035
0.000880035
0.000880035
0.000880035
0.000880035
0.000880034
0.000880035
0.000880035
0.000880035
0.000880036
0.000880036
0.000880036
0.000880036
0.000880036
0.000880031
0.000879987
0.000879688
0.000877963
0.000869462
0.000834054
0.000705238
0.000233686
0.000234975
0.000728626
0.000869468
0.000909784
0.000919843
0.000921964
0.00092235
0.000922415
0.000922424
0.00092242
0.000922415
0.000922427
0.000922443
0.000922456
0.000922467
0.000922474
0.000922478
0.00092248
0.00092248
0.000922479
0.000922475
0.000922469
0.000922459
0.000922446
0.000922431
0.000922418
0.000922415
0.000922362
0.000921981
0.00091986
0.000909798
0.00086948
0.000728634
0.000234978
0.000235239
0.000733756
0.000877971
0.000919846
0.000930441
0.000932708
0.000933124
0.000933183
0.000933153
0.000933066
0.000932979
0.00093301
0.000933063
0.000933104
0.00093313
0.00093314
0.000933144
0.000933146
0.000933146
0.000933145
0.000933142
0.000933133
0.000933107
0.000933067
0.000933014
0.000932983
0.000933062
0.000933086
0.000932714
0.000930462
0.000919867
0.000877988
0.000733765
0.000235243
0.000235285
0.000734703
0.000879696
0.000921968
0.000932707
0.000935011
0.000935416
0.00093539
0.000935107
0.000934514
0.000933917
0.000934084
0.000934356
0.000934517
0.000934596
0.0009346
0.000934591
0.000934587
0.000934588
0.000934592
0.000934602
0.000934599
0.00093452
0.00093436
0.000934089
0.000933922
0.00093451
0.000935039
0.000934912
0.000932706
0.000921988
0.000879714
0.000734712
0.000235289
0.000235292
0.000734846
0.000879994
0.000922352
0.000933121
0.000935413
0.000935712
0.00093527
0.000933754
0.000930635
0.000927422
0.000928708
0.000930263
0.000931041
0.000931356
0.000931333
0.000931276
0.000931253
0.000931253
0.000931277
0.000931335
0.000931359
0.000931045
0.000930268
0.000928714
0.000927428
0.000930632
0.000933686
0.000934791
0.000932992
0.000922348
0.000880009
0.000734853
0.000235297
0.000235293
0.000734857
0.000880036
0.000922412
0.000933176
0.000935385
0.000935272
0.000933213
0.000926741
0.000912839
0.000897287
0.000906343
0.000914402
0.000917877
0.000919096
0.000919044
0.000918892
0.000918832
0.000918833
0.000918893
0.000919046
0.0009191
0.000917881
0.000914408
0.000906351
0.000897293
0.000912838
0.000926675
0.000932735
0.00093255
0.00092231
0.000880034
0.000734858
0.000235299
0.000235294
0.000734847
0.000880038
0.000922417
0.000933143
0.000935109
0.000933798
0.000926848
0.000904326
0.0008505
0.00077495
0.000834194
0.000870516
0.000883476
0.000887296
0.000887471
0.000887296
0.000887225
0.000887225
0.000887297
0.000887474
0.0008873
0.000883481
0.000870525
0.000834208
0.000774956
0.000850498
0.000904261
0.000926372
0.000931077
0.00092203
0.000879987
0.000734835
0.0002353
0.000235294
0.000734832
0.000880032
0.000922408
0.000933061
0.000934564
0.000930876
0.000913484
0.000851424
0.000664975
0.000258672
0.00063802
0.000781937
0.000820437
0.000829258
0.000830751
0.000830942
0.000830954
0.000830954
0.000830942
0.000830753
0.000829261
0.000820444
0.000781955
0.000638055
0.00025867
0.000664971
0.00085136
0.00091301
0.000928156
0.000921481
0.000879889
0.000734798
0.0002353
0.000235293
0.000734814
0.000880025
0.000922402
0.000933
0.000934122
0.000928277
0.000899723
0.000779177
0.00025978
0.000253421
0.000680405
0.000759451
0.000774007
0.000776439
0.000776739
0.000776754
0.000776754
0.000776739
0.00077644
0.000774009
0.000759459
0.000680434
0.000253427
0.00025978
0.000779112
0.000899249
0.000925555
0.000921029
0.000879806
0.000734755
0.000235299
0.000235293
0.000734794
0.00088002
0.000922417
0.000933084
0.000934595
0.000930892
0.000913399
0.000850943
0.000663223
0.000258337
0.000630932
0.000771746
0.000808579
0.000816179
0.00081775
0.000817759
0.000817662
0.000817661
0.000817755
0.000817743
0.00081617
0.000808569
0.00077174
0.000630922
0.000258328
0.000663172
0.000850861
0.000912917
0.000928163
0.000921489
0.000879863
0.000734724
0.000235299
0.000235292
0.000734777
0.000880016
0.000922435
0.00093319
0.000935171
0.000933841
0.000926731
0.000903577
0.000847871
0.000768121
0.000817362
0.000840381
0.00084774
0.00084928
0.000849364
0.000849159
0.000849046
0.000849045
0.000849156
0.000849357
0.000849271
0.000847727
0.000840364
0.000817336
0.000768087
0.000847838
0.000903498
0.000926247
0.000931107
0.000922054
0.000879943
0.000734702
0.000235297
0.000235291
0.000734761
0.000880012
0.000922448
0.000933252
0.000935485
0.000935354
0.000933088
0.000925741
0.00090903
0.000886285
0.000880749
0.000869177
0.000864585
0.000863144
0.000862635
0.000862413
0.000862331
0.00086233
0.000862411
0.000862631
0.000863138
0.000864575
0.000869163
0.000880739
0.00088627
0.000909012
0.000925667
0.000932605
0.000932616
0.000922358
0.000879986
0.000734681
0.000235296
0.00023529
0.000734749
0.000880009
0.000922455
0.000933281
0.000935606
0.000935889
0.000935216
0.000932678
0.000926196
0.000914315
0.000898703
0.000878114
0.000869872
0.000867431
0.000866767
0.000866573
0.000866517
0.000866517
0.000866572
0.000866765
0.000867427
0.000869865
0.000878102
0.000898697
0.000914308
0.000926184
0.000932607
0.000934733
0.000933149
0.000922472
0.00088
0.000734664
0.000235294
0.000235289
0.00073474
0.000880007
0.000922459
0.000933294
0.000935646
0.000936041
0.00093578
0.00093442
0.000930254
0.00092046
0.000902939
0.000880338
0.000871214
0.000868523
0.000867835
0.000867661
0.00086762
0.00086762
0.000867661
0.000867834
0.000868521
0.000871208
0.000880328
0.000902935
0.000920457
0.000930245
0.00093435
0.000935297
0.000933301
0.000922509
0.000880003
0.000734652
0.000235293
0.000235288
0.000734734
0.000880006
0.000922462
0.000933301
0.00093566
0.000936082
0.000935909
0.000934792
0.000931076
0.000921649
0.000903789
0.000880818
0.00087152
0.000868781
0.000868094
0.00086793
0.000867896
0.000867896
0.000867931
0.000868094
0.00086878
0.000871515
0.000880809
0.000903786
0.000921646
0.000931068
0.000934723
0.000935427
0.000933341
0.000922521
0.000880003
0.000734644
0.000235291
0.000235287
0.000734731
0.000880006
0.000922464
0.000933304
0.000935667
0.000936093
0.000935938
0.000934863
0.000931223
0.000921852
0.000903939
0.000880916
0.00087159
0.000868843
0.000868158
0.000867998
0.000867967
0.000867967
0.000867999
0.000868158
0.000868842
0.000871585
0.000880908
0.000903936
0.00092185
0.000931215
0.000934795
0.000935456
0.000933353
0.000922526
0.000880004
0.000734639
0.00023529
0.000235287
0.00073473
0.000880006
0.000922465
0.000933306
0.000935669
0.000936096
0.000935941
0.000934867
0.000931227
0.000921856
0.000903942
0.000880923
0.000871594
0.000868847
0.000868162
0.000868002
0.000867972
0.000867972
0.000868003
0.000868162
0.000868846
0.00087159
0.000880915
0.00090394
0.000921855
0.00093122
0.0009348
0.00093546
0.000933356
0.000922528
0.000880005
0.000734638
0.00023529
0.000235287
0.000734732
0.000880007
0.000922466
0.000933305
0.000935667
0.000936089
0.000935919
0.000934803
0.000931089
0.000921662
0.000903802
0.00088084
0.000871538
0.000868795
0.000868108
0.000867945
0.000867913
0.000867913
0.000867946
0.000868109
0.000868795
0.000871534
0.000880833
0.000903801
0.000921662
0.000931083
0.000934737
0.000935439
0.00093335
0.000922527
0.000880006
0.000734641
0.00023529
0.000235287
0.000734737
0.000880009
0.000922465
0.000933302
0.000935656
0.000936054
0.000935796
0.000934441
0.000930279
0.000920488
0.000902966
0.000880382
0.000871252
0.000868557
0.000867869
0.000867697
0.000867659
0.00086766
0.000867699
0.000867871
0.000868558
0.00087125
0.000880378
0.000902966
0.000920489
0.000930275
0.000934375
0.000935317
0.000933316
0.000922519
0.000880007
0.000734647
0.000235291
0.000235288
0.000734745
0.000880012
0.000922463
0.000933293
0.000935621
0.000935908
0.000935241
0.000932712
0.000926243
0.000914375
0.000898761
0.000878197
0.000869949
0.000867504
0.000866844
0.000866654
0.000866602
0.000866603
0.000866657
0.000866848
0.000867509
0.000869951
0.000878197
0.000898765
0.000914378
0.000926241
0.000932648
0.000934764
0.000933172
0.000922488
0.000880005
0.000734657
0.000235292
0.000235289
0.000734755
0.000880015
0.000922458
0.000933268
0.000935505
0.00093538
0.000933125
0.000925798
0.000909124
0.000886427
0.000880879
0.000869329
0.000864732
0.000863294
0.000862793
0.000862581
0.000862506
0.000862508
0.000862587
0.000862802
0.000863304
0.000864742
0.000869339
0.000880892
0.000886438
0.000909126
0.000925736
0.00093265
0.000932647
0.000922379
0.000879993
0.000734672
0.000235293
0.00023529
0.000734769
0.00088002
0.000922448
0.000933209
0.000935197
0.000933875
0.000926782
0.000903667
0.00084805
0.000768441
0.000817626
0.000840609
0.000847967
0.000849523
0.000849626
0.000849438
0.000849336
0.000849339
0.000849448
0.000849641
0.000849542
0.000847989
0.000840635
0.000817667
0.000768467
0.000848059
0.00090361
0.000926311
0.000931149
0.00092208
0.000879953
0.000734689
0.000235295
0.000235291
0.000734785
0.000880024
0.000922432
0.000933107
0.000934626
0.000930933
0.00091346
0.000851057
0.000663473
0.000258407
0.000631184
0.00077186
0.000808711
0.00081633
0.000817926
0.000817956
0.000817871
0.000817874
0.000817966
0.000817941
0.000816345
0.000808722
0.000771877
0.000631276
0.000258408
0.000663496
0.000851003
0.000912994
0.000928213
0.000921521
0.000879873
0.000734707
0.000235296
0.000235292
0.000734802
0.000880029
0.000922419
0.000933026
0.000934157
0.000928322
0.000899778
0.000779235
0.000259776
0.000253307
0.000679625
0.000758543
0.000772978
0.000775375
0.000775669
0.000775682
0.000775681
0.000775664
0.000775357
0.000772916
0.000758385
0.000679357
0.000253244
0.000259764
0.000779166
0.00089931
0.000925607
0.000921064
0.000879816
0.000734733
0.000235297
0.000235292
0.000734815
0.000880031
0.00092242
0.000933083
0.000934596
0.000930918
0.000913534
0.000851474
0.000665009
0.000258659
0.000636434
0.0007791
0.000815828
0.000823665
0.000824991
0.000825182
0.000825199
0.000825195
0.000825163
0.000824913
0.000823371
0.000814933
0.000777268
0.000635111
0.000258533
0.00066483
0.000851332
0.000913043
0.0009282
0.000921511
0.000879892
0.000734765
0.000235297
0.000235291
0.000734807
0.000879993
0.000922372
0.000933105
0.00093508
0.000933777
0.000926825
0.000904248
0.000850172
0.000773708
0.000830011
0.000860887
0.000866392
0.000866607
0.000866276
0.000866131
0.000866088
0.00086608
0.000866084
0.000866053
0.000865669
0.000863215
0.000853564
0.000824408
0.000771109
0.000849153
0.00090386
0.000926271
0.000931047
0.000922003
0.000879945
0.000734776
0.000235297
0.000235285
0.000734667
0.000879698
0.000921998
0.000932739
0.000934948
0.000934839
0.000932761
0.000926154
0.000911663
0.000894059
0.000897345
0.000893487
0.000880406
0.000875063
0.000873534
0.000873175
0.000873101
0.000873089
0.000873096
0.000873143
0.000873332
0.000874049
0.000876991
0.000885284
0.000888256
0.000909512
0.000925445
0.000932132
0.000932104
0.000921911
0.000879699
0.000734646
0.00023529
0.00023524
0.000733723
0.000877976
0.00091988
0.00093049
0.000932744
0.000933038
0.000932571
0.000930898
0.000927106
0.000921587
0.000916549
0.000905107
0.000888202
0.000881656
0.00087987
0.000879472
0.000879395
0.000879383
0.000879389
0.000879455
0.000879807
0.000881401
0.000887442
0.000903499
0.00091522
0.000924748
0.000930136
0.00093194
0.000930349
0.00091989
0.000877992
0.000733706
0.000235245
0.000234976
0.000728596
0.000869474
0.000909817
0.000919894
0.000922025
0.000922395
0.000922347
0.000921957
0.000920914
0.000918805
0.000914948
0.000907261
0.000897274
0.000892916
0.00089162
0.000891309
0.000891245
0.000891235
0.000891245
0.000891308
0.00089161
0.00089287
0.000897139
0.00090699
0.000914778
0.00091939
0.000921444
0.000921811
0.00091989
0.00090985
0.000869492
0.000728581
0.00023498
0.000233685
0.00070521
0.000834059
0.00086949
0.000878004
0.00087974
0.000880044
0.000880072
0.000879984
0.000879682
0.000878906
0.00087716
0.000873802
0.000869612
0.000867548
0.000866857
0.00086667
0.000866624
0.000866616
0.000866627
0.000866676
0.000866866
0.000867552
0.000869604
0.000873776
0.000877155
0.000879007
0.000879737
0.00087969
0.000878022
0.000869514
0.000834068
0.000705192
0.000233689
0.000228668
0.000611775
0.00070523
0.000728627
0.000733763
0.000734715
0.000734862
0.00073487
0.000734836
0.000734733
0.000734479
0.000733907
0.000732863
0.000731573
0.000730863
0.000730578
0.000730476
0.00073044
0.000730434
0.000730449
0.000730492
0.000730601
0.000730891
0.000731605
0.000732894
0.000733943
0.000734519
0.000734745
0.000734684
0.000733758
0.000728627
0.000705222
0.000611751
0.000228671
0.000215162
0.000228668
0.000233688
0.00023498
0.000235246
0.000235294
0.000235304
0.000235309
0.000235313
0.000235314
0.00023531
0.000235293
0.000235255
0.000235204
0.000235175
0.000235161
0.000235155
0.000235152
0.000235152
0.000235153
0.000235156
0.000235162
0.000235175
0.000235204
0.000235254
0.000235292
0.000235309
0.000235312
0.000235303
0.000235255
0.000234987
0.000233692
0.000228671
0.000215165
0.000221296
0.000240145
0.000247604
0.000249691
0.00025016
0.000250247
0.000250261
0.000250263
0.000250264
0.000250264
0.000250264
0.000250263
0.000250263
0.000250262
0.000250262
0.000250262
0.000250261
0.000250261
0.000250261
0.000250261
0.000250261
0.000250262
0.000250262
0.000250263
0.000250263
0.000250263
0.000250263
0.000250261
0.000250247
0.00025016
0.000249691
0.000247604
0.000240145
0.000221297
0.000240145
0.000755445
0.000897208
0.000935847
0.00094506
0.000946916
0.000947229
0.000947265
0.000947256
0.000947237
0.000947215
0.000947189
0.000947164
0.000947141
0.000947121
0.000947105
0.000947094
0.000947089
0.000947088
0.000947093
0.000947104
0.000947119
0.000947138
0.000947161
0.000947185
0.000947209
0.000947224
0.000947194
0.000946885
0.000945031
0.00093582
0.000897182
0.000755426
0.000240145
0.000247605
0.000897232
0.00109952
0.00115982
0.00117545
0.00117888
0.00117952
0.00117962
0.00117963
0.00117962
0.00117961
0.0011796
0.00117959
0.00117958
0.00117957
0.00117957
0.00117956
0.00117956
0.00117956
0.00117956
0.00117957
0.00117957
0.00117958
0.00117959
0.0011796
0.00117961
0.0011796
0.00117951
0.00117887
0.00117544
0.00115981
0.00109951
0.000897225
0.000247607
0.000249694
0.000935883
0.00115984
0.00122937
0.0012481
0.00125236
0.00125319
0.00125333
0.00125334
0.0012533
0.00125327
0.00125326
0.00125326
0.00125327
0.00125328
0.00125328
0.00125328
0.00125328
0.00125328
0.00125328
0.00125328
0.00125328
0.00125327
0.00125327
0.00125326
0.00125327
0.00125328
0.00125318
0.00125236
0.0012481
0.00122938
0.00115984
0.000935883
0.000249696
0.000250163
0.0009451
0.00117547
0.0012481
0.00126795
0.00127254
0.00127343
0.00127355
0.00127346
0.00127323
0.00127298
0.00127294
0.00127297
0.00127301
0.00127304