/*--------------------------------*- C++ -*----------------------------------*\
| =========                 |                                                 |
| \\      /  F ield         | OpenFOAM: The Open Source CFD Toolbox           |
|  \\    /   O peration     | Version:  2112                                  |
|   \\  /    A nd           | Website:  www.openfoam.com                      |
|    \\/     M anipulation  |                                                 |
\*---------------------------------------------------------------------------*/
FoamFile
{
    version     2.0;
    format      ascii;
    arch        "LSB;label=32;scalar=64";
    class       volScalarField;
    location    "0.9";
    object      p;
}
// * * * * * * * * * * * * * * * * * * * * * * * * * * * * * * * * * * * * * //

dimensions      [0 2 -2 0 0 0 0];

internalField   nonuniform List<scalar> 
64906
(
-1.33131e-05
-1.32956e-05
-1.33131e-05
-1.33706e-05
-1.34699e-05
-1.36093e-05
-1.37871e-05
-1.40016e-05
-1.42494e-05
-1.45259e-05
-1.48204e-05
-1.51226e-05
-1.54132e-05
-1.5681e-05
-1.59131e-05
-1.61026e-05
-1.62439e-05
-1.63341e-05
-1.63718e-05
-1.63574e-05
-1.62926e-05
-1.61807e-05
-1.60279e-05
-1.58411e-05
-1.56334e-05
-1.54157e-05
-1.52075e-05
-1.50184e-05
-1.48595e-05
-1.47355e-05
-1.46501e-05
-1.46053e-05
-1.45992e-05
-1.46261e-05
-1.3271e-05
-1.31439e-05
-1.30961e-05
-1.31066e-05
-1.31707e-05
-1.32781e-05
-1.34219e-05
-1.35985e-05
-1.38035e-05
-1.40335e-05
-1.42763e-05
-1.45253e-05
-1.47602e-05
-1.49755e-05
-1.51599e-05
-1.53109e-05
-1.54244e-05
-1.54997e-05
-1.5536e-05
-1.55335e-05
-1.54935e-05
-1.54172e-05
-1.53091e-05
-1.51718e-05
-1.50167e-05
-1.4849e-05
-1.46891e-05
-1.45434e-05
-1.44251e-05
-1.43404e-05
-1.43002e-05
-1.43171e-05
-1.43953e-05
-1.45747e-05
-1.3313e-05
-1.31164e-05
-1.30252e-05
-1.30027e-05
-1.30458e-05
-1.31394e-05
-1.32735e-05
-1.34447e-05
-1.36492e-05
-1.38864e-05
-1.41405e-05
-1.44073e-05
-1.46511e-05
-1.48707e-05
-1.5052e-05
-1.51984e-05
-1.53068e-05
-1.53788e-05
-1.54143e-05
-1.54136e-05
-1.53773e-05
-1.53044e-05
-1.51982e-05
-1.50557e-05
-1.48911e-05
-1.47053e-05
-1.45344e-05
-1.43824e-05
-1.42675e-05
-1.41952e-05
-1.41803e-05
-1.42402e-05
-1.43763e-05
-1.46502e-05
-1.34387e-05
-1.31981e-05
-1.30763e-05
-1.30345e-05
-1.30712e-05
-1.31689e-05
-1.33167e-05
-1.35141e-05
-1.37604e-05
-1.40635e-05
-1.44005e-05
-1.47709e-05
-1.50962e-05
-1.53809e-05
-1.56041e-05
-1.57795e-05
-1.59048e-05
-1.5985e-05
-1.60205e-05
-1.60114e-05
-1.59582e-05
-1.58563e-05
-1.57087e-05
-1.5502e-05
-1.52576e-05
-1.49705e-05
-1.47206e-05
-1.45073e-05
-1.4357e-05
-1.42689e-05
-1.42581e-05
-1.43416e-05
-1.45145e-05
-1.48613e-05
-1.3652e-05
-1.33829e-05
-1.32418e-05
-1.31943e-05
-1.32396e-05
-1.33589e-05
-1.35427e-05
-1.3797e-05
-1.41305e-05
-1.45694e-05
-1.50833e-05
-1.56828e-05
-1.61849e-05
-1.66082e-05
-1.69225e-05
-1.71636e-05
-1.73294e-05
-1.74302e-05
-1.74662e-05
-1.74379e-05
-1.73456e-05
-1.71796e-05
-1.6943e-05
-1.66001e-05
-1.61827e-05
-1.56708e-05
-1.52516e-05
-1.49101e-05
-1.4682e-05
-1.45495e-05
-1.4522e-05
-1.46129e-05
-1.48156e-05
-1.51982e-05
-1.39481e-05
-1.36526e-05
-1.34981e-05
-1.34544e-05
-1.35204e-05
-1.36758e-05
-1.39136e-05
-1.42512e-05
-1.47156e-05
-1.53726e-05
-1.61921e-05
-1.72316e-05
-1.80455e-05
-1.8702e-05
-1.91646e-05
-1.95153e-05
-1.97499e-05
-1.98863e-05
-1.99238e-05
-1.98627e-05
-1.97045e-05
-1.94318e-05
-1.90499e-05
-1.8477e-05
-1.77527e-05
-1.68061e-05
-1.60933e-05
-1.55439e-05
-1.51964e-05
-1.49949e-05
-1.49346e-05
-1.50221e-05
-1.52484e-05
-1.56656e-05
-1.43196e-05
-1.39933e-05
-1.38279e-05
-1.37951e-05
-1.38925e-05
-1.40972e-05
-1.44049e-05
-1.48479e-05
-1.54836e-05
-1.6456e-05
-1.77453e-05
-1.96399e-05
-2.0964e-05
-2.19767e-05
-2.26561e-05
-2.31703e-05
-2.35088e-05
-2.37001e-05
-2.37401e-05
-2.3629e-05
-2.33718e-05
-2.29399e-05
-2.23452e-05
-2.14192e-05
-2.01898e-05
-1.83909e-05
-1.72292e-05
-1.63765e-05
-1.58699e-05
-1.55779e-05
-1.54714e-05
-1.55478e-05
-1.57958e-05
-1.62589e-05
-1.47577e-05
-1.43946e-05
-1.42203e-05
-1.42069e-05
-1.43504e-05
-1.46228e-05
-1.50203e-05
-1.55856e-05
-1.64155e-05
-1.77476e-05
-1.96336e-05
-2.32331e-05
-2.53027e-05
-2.68313e-05
-2.7831e-05
-2.85951e-05
-2.90961e-05
-2.93745e-05
-2.94186e-05
-2.92287e-05
-2.88169e-05
-2.8142e-05
-2.72319e-05
-2.57918e-05
-2.38199e-05
-2.03077e-05
-1.85938e-05
-1.73906e-05
-1.67004e-05
-1.63e-05
-1.61292e-05
-1.61827e-05
-1.64497e-05
-1.69712e-05
-1.52512e-05
-1.48449e-05
-1.46639e-05
-1.46805e-05
-1.48894e-05
-1.52561e-05
-1.57731e-05
-1.64804e-05
-1.74846e-05
-1.92307e-05
-2.15569e-05
-2.86746e-05
-3.14568e-05
-3.36015e-05
-3.50229e-05
-3.61083e-05
-3.68253e-05
-3.72206e-05
-3.72714e-05
-3.69775e-05
-3.63624e-05
-3.53768e-05
-3.40518e-05
-3.1994e-05
-2.93134e-05
-2.22435e-05
-2.01977e-05
-1.85671e-05
-1.77072e-05
-1.71738e-05
-1.69083e-05
-1.69182e-05
-1.71981e-05
-1.77909e-05
-1.57878e-05
-1.53335e-05
-1.51519e-05
-1.52171e-05
-1.55278e-05
-1.60478e-05
-1.67695e-05
-1.76767e-05
-1.89144e-05
-2.13087e-05
-1.93177e-05
-3.55284e-05
-3.88931e-05
-4.19594e-05
-4.40443e-05
-4.56442e-05
-4.67059e-05
-4.72777e-05
-4.73379e-05
-4.68864e-05
-4.59452e-05
-4.44619e-05
-4.24846e-05
-3.95047e-05
-3.62646e-05
-1.98838e-05
-2.24062e-05
-2.01115e-05
-1.90294e-05
-1.82995e-05
-1.78514e-05
-1.77638e-05
-1.80343e-05
-1.87052e-05
-1.63477e-05
-1.58405e-05
-1.56608e-05
-1.57864e-05
-1.62265e-05
-1.69557e-05
-1.79683e-05
-1.91699e-05
-2.03539e-05
-1.80209e-05
-5.22004e-05
-4.94622e-05
-5.16918e-05
-5.41848e-05
-5.62527e-05
-5.76777e-05
-5.8425e-05
-5.84974e-05
-5.78948e-05
-5.66142e-05
-5.46856e-05
-5.2319e-05
-5.01743e-05
-5.28497e-05
-1.9685e-05
-2.18487e-05
-2.0698e-05
-1.96394e-05
-1.89125e-05
-1.86725e-05
-1.89165e-05
-1.9677e-05
-1.69129e-05
-1.63524e-05
-1.61823e-05
-1.63895e-05
-1.70112e-05
-1.80821e-05
-1.97638e-05
-2.23613e-05
-2.67144e-05
-3.30807e-05
-4.87012e-05
-4.98565e-05
-5.5515e-05
-6.05646e-05
-6.49131e-05
-6.81221e-05
-7.01877e-05
-7.12154e-05
-7.13003e-05
-7.04427e-05
-6.85497e-05
-6.55152e-05
-6.13458e-05
-5.64805e-05
-5.10294e-05
-5.02935e-05
-3.45571e-05
-2.82595e-05
-2.39851e-05
-2.15466e-05
-2.0177e-05
-1.96577e-05
-1.98306e-05
-2.06766e-05
-1.74548e-05
-1.68403e-05
-1.66716e-05
-1.69392e-05
-1.76919e-05
-1.89812e-05
-2.09992e-05
-2.4044e-05
-2.87014e-05
-3.49964e-05
-4.54847e-05
-5.24784e-05
-6.00846e-05
-6.67667e-05
-7.23711e-05
-7.63373e-05
-7.88439e-05
-8.00737e-05
-8.01682e-05
-7.91284e-05
-7.68149e-05
-7.30457e-05
-6.76453e-05
-6.1165e-05
-5.37601e-05
-4.69998e-05
-3.65869e-05
-3.03452e-05
-2.57698e-05
-2.28932e-05
-2.12131e-05
-2.05366e-05
-2.06833e-05
-2.16242e-05
-1.79559e-05
-1.7292e-05
-1.71217e-05
-1.74363e-05
-1.8289e-05
-1.97333e-05
-2.19615e-05
-2.52566e-05
-3.01399e-05
-3.67283e-05
-4.58053e-05
-5.42295e-05
-6.32783e-05
-7.11103e-05
-7.75543e-05
-8.20178e-05
-8.4813e-05
-8.61704e-05
-8.62726e-05
-8.51205e-05
-8.25343e-05
-7.82843e-05
-7.20621e-05
-6.44479e-05
-5.56255e-05
-4.73592e-05
-3.83773e-05
-3.18588e-05
-2.70719e-05
-2.39588e-05
-2.20965e-05
-2.13225e-05
-2.14623e-05
-2.24894e-05
-1.83975e-05
-1.76895e-05
-1.75114e-05
-1.7852e-05
-1.87624e-05
-2.0288e-05
-2.26067e-05
-2.59838e-05
-3.08936e-05
-3.74997e-05
-4.62023e-05
-5.52985e-05
-6.51494e-05
-7.35416e-05
-8.03851e-05
-8.50804e-05
-8.80099e-05
-8.94261e-05
-8.95341e-05
-8.83348e-05
-8.56257e-05
-8.11546e-05
-7.45425e-05
-6.63726e-05
-5.67409e-05
-4.7798e-05
-3.92058e-05
-3.26819e-05
-2.78801e-05
-2.46996e-05
-2.27735e-05
-2.19684e-05
-2.21276e-05
-2.32337e-05
-1.87695e-05
-1.80259e-05
-1.78386e-05
-1.81939e-05
-1.91391e-05
-2.07114e-05
-2.30757e-05
-2.64876e-05
-3.1398e-05
-3.801e-05
-4.66664e-05
-5.60982e-05
-6.63329e-05
-7.50095e-05
-8.20554e-05
-8.68593e-05
-8.98501e-05
-9.12932e-05
-9.14064e-05
-9.01904e-05
-8.74294e-05
-8.28582e-05
-7.60509e-05
-6.76006e-05
-5.75869e-05
-4.83076e-05
-3.97703e-05
-3.32483e-05
-2.84555e-05
-2.52534e-05
-2.33048e-05
-2.2494e-05
-2.2678e-05
-2.38478e-05
-1.90645e-05
-1.82943e-05
-1.80986e-05
-1.84612e-05
-1.94261e-05
-2.10245e-05
-2.34134e-05
-2.6845e-05
-3.1764e-05
-3.84056e-05
-4.71045e-05
-5.67189e-05
-6.71642e-05
-7.59964e-05
-8.31537e-05
-8.80189e-05
-9.10457e-05
-9.25058e-05
-9.2624e-05
-9.14009e-05
-8.8613e-05
-8.3988e-05
-7.70752e-05
-6.8473e-05
-5.82512e-05
-4.87903e-05
-4.02152e-05
-3.36687e-05
-2.88744e-05
-2.5663e-05
-2.37078e-05
-2.29012e-05
-2.31081e-05
-2.43255e-05
-1.92792e-05
-1.84928e-05
-1.82921e-05
-1.86597e-05
-1.96381e-05
-2.12555e-05
-2.36659e-05
-2.71222e-05
-3.20691e-05
-3.87593e-05
-4.7527e-05
-5.72657e-05
-6.78477e-05
-7.67894e-05
-8.40303e-05
-8.89494e-05
-9.20105e-05
-9.3489e-05
-9.36127e-05
-9.23816e-05
-8.95687e-05
-8.48976e-05
-7.79066e-05
-6.91981e-05
-5.88408e-05
-4.92557e-05
-4.06134e-05
-3.40207e-05
-2.92026e-05
-2.59732e-05
-2.4008e-05
-2.32017e-05
-2.3422e-05
-2.46684e-05
-1.94121e-05
-1.862e-05
-1.84188e-05
-1.8791e-05
-1.97795e-05
-2.14129e-05
-2.38463e-05
-2.73355e-05
-3.23285e-05
-3.90822e-05
-4.79307e-05
-5.7764e-05
-6.84423e-05
-7.74707e-05
-8.47836e-05
-8.97582e-05
-9.28581e-05
-9.4359e-05
-9.44888e-05
-9.32471e-05
-9.04058e-05
-8.56874e-05
-7.86296e-05
-6.98366e-05
-5.93827e-05
-4.97011e-05
-4.09766e-05
-3.43198e-05
-2.94565e-05
-2.61968e-05
-2.42134e-05
-2.33992e-05
-2.36209e-05
-2.48782e-05
-1.94629e-05
-1.86759e-05
-1.84787e-05
-1.88551e-05
-1.98502e-05
-2.14959e-05
-2.39532e-05
-2.74825e-05
-3.25393e-05
-3.93726e-05
-4.83175e-05
-5.8223e-05
-6.89596e-05
-7.80526e-05
-8.54251e-05
-9.04562e-05
-9.35987e-05
-9.51261e-05
-9.52632e-05
-9.40089e-05
-9.11372e-05
-8.63716e-05
-7.92596e-05
-7.04037e-05
-5.98885e-05
-5.01293e-05
-4.13041e-05
-3.45644e-05
-2.96352e-05
-2.63336e-05
-2.43242e-05
-2.34944e-05
-2.37054e-05
-2.49521e-05
-1.94345e-05
-1.86627e-05
-1.84729e-05
-1.8851e-05
-1.98458e-05
-2.14954e-05
-2.39711e-05
-2.75418e-05
-3.26789e-05
-3.96137e-05
-4.86941e-05
-5.8641e-05
-6.937e-05
-7.84835e-05
-8.58864e-05
-9.09655e-05
-9.41488e-05
-9.57047e-05
-9.58507e-05
-9.45853e-05
-9.1688e-05
-8.68866e-05
-7.9751e-05
-7.0876e-05
-6.03619e-05
-5.05508e-05
-4.15813e-05
-3.47336e-05
-2.97192e-05
-2.63705e-05
-2.43342e-05
-2.34862e-05
-2.36778e-05
-2.4899e-05
-1.93303e-05
-1.85828e-05
-1.84012e-05
-1.87739e-05
-1.97529e-05
-2.13844e-05
-2.38532e-05
-2.7444e-05
-3.26621e-05
-3.97261e-05
-4.90549e-05
-5.89689e-05
-6.95377e-05
-7.85488e-05
-8.589e-05
-9.09701e-05
-9.417e-05
-9.57473e-05
-9.59052e-05
-9.46419e-05
-9.17489e-05
-8.69644e-05
-7.99007e-05
-7.11308e-05
-6.07643e-05
-5.09636e-05
-4.17325e-05
-3.47466e-05
-2.96436e-05
-2.62659e-05
-2.42214e-05
-2.33659e-05
-2.35368e-05
-2.47163e-05
-1.91585e-05
-1.84438e-05
-1.827e-05
-1.86272e-05
-1.95693e-05
-2.11486e-05
-2.35635e-05
-2.71185e-05
-3.23765e-05
-3.954e-05
-4.94668e-05
-5.92118e-05
-6.92334e-05
-7.7887e-05
-8.49816e-05
-8.99521e-05
-9.31072e-05
-9.4683e-05
-9.4858e-05
-9.36304e-05
-9.08142e-05
-8.61687e-05
-7.93701e-05
-7.09651e-05
-6.11226e-05
-5.14396e-05
-4.15962e-05
-3.44997e-05
-2.93465e-05
-2.59915e-05
-2.39792e-05
-2.3139e-05
-2.32927e-05
-2.44151e-05
-1.89294e-05
-1.8253e-05
-1.80821e-05
-1.84057e-05
-1.92724e-05
-2.07298e-05
-2.29731e-05
-2.63168e-05
-3.13782e-05
-3.83045e-05
-4.98698e-05
-5.92909e-05
-6.80603e-05
-7.57898e-05
-8.22215e-05
-8.68442e-05
-8.98243e-05
-9.13481e-05
-9.15484e-05
-9.04243e-05
-8.78332e-05
-8.35857e-05
-7.74839e-05
-7.00219e-05
-6.14017e-05
-5.19059e-05
-4.04333e-05
-3.35648e-05
-2.85924e-05
-2.54286e-05
-2.35585e-05
-2.27919e-05
-2.29499e-05
-2.40077e-05
-1.8662e-05
-1.80295e-05
-1.78615e-05
-1.81443e-05
-1.89156e-05
-2.02052e-05
-2.21769e-05
-2.51443e-05
-3.00206e-05
-3.7325e-05
-5.264e-05
-5.81751e-05
-6.58773e-05
-7.24087e-05
-7.78607e-05
-8.1962e-05
-8.46766e-05
-8.61106e-05
-8.63467e-05
-8.53873e-05
-8.31392e-05
-7.94977e-05
-7.44361e-05
-6.82059e-05
-6.05078e-05
-5.4592e-05
-3.96222e-05
-3.23383e-05
-2.75101e-05
-2.46863e-05
-2.30453e-05
-2.23865e-05
-2.25547e-05
-2.35361e-05
-1.83726e-05
-1.77834e-05
-1.76124e-05
-1.7838e-05
-1.84721e-05
-1.94841e-05
-2.08529e-05
-2.241e-05
-2.37782e-05
-2.03187e-05
-6.77834e-05
-6.40092e-05
-6.73111e-05
-7.10748e-05
-7.43143e-05
-7.66138e-05
-7.79141e-05
-7.81958e-05
-7.74674e-05
-7.57388e-05
-7.30852e-05
-6.98163e-05
-6.69826e-05
-7.0835e-05
-2.27422e-05
-2.62867e-05
-2.49117e-05
-2.34466e-05
-2.23512e-05
-2.19001e-05
-2.21123e-05
-2.30243e-05
-1.80888e-05
-1.75443e-05
-1.73819e-05
-1.75806e-05
-1.81525e-05
-1.90813e-05
-2.04176e-05
-2.22766e-05
-2.5165e-05
-2.9928e-05
-3.34828e-05
-4.95681e-05
-5.55272e-05
-6.09811e-05
-6.51614e-05
-6.8526e-05
-7.08338e-05
-7.2166e-05
-7.24975e-05
-7.185e-05
-7.02458e-05
-6.76401e-05
-6.40984e-05
-5.92765e-05
-5.33079e-05
-3.78081e-05
-3.34149e-05
-2.82192e-05
-2.50471e-05
-2.31338e-05
-2.19815e-05
-2.15333e-05
-2.1718e-05
-2.25491e-05
-1.78246e-05
-1.73209e-05
-1.71688e-05
-1.73485e-05
-1.78727e-05
-1.87344e-05
-1.99926e-05
-2.17971e-05
-2.44196e-05
-2.82863e-05
-3.46464e-05
-4.42739e-05
-5.01083e-05
-5.54399e-05
-5.95997e-05
-6.29402e-05
-6.52041e-05
-6.65199e-05
-6.68867e-05
-6.63398e-05
-6.48857e-05
-6.24539e-05
-5.90153e-05
-5.44065e-05
-4.85627e-05
-3.89706e-05
-3.19442e-05
-2.76594e-05
-2.47102e-05
-2.27858e-05
-2.16477e-05
-2.11988e-05
-2.13545e-05
-2.21163e-05
-1.75991e-05
-1.71345e-05
-1.70001e-05
-1.71772e-05
-1.76808e-05
-1.85115e-05
-1.97307e-05
-2.14825e-05
-2.40201e-05
-2.76937e-05
-3.2893e-05
-3.97518e-05
-4.54512e-05
-5.08149e-05
-5.50595e-05
-5.84768e-05
-6.07589e-05
-6.20738e-05
-6.24596e-05
-6.19644e-05
-6.05664e-05
-5.81742e-05
-5.47082e-05
-5.01321e-05
-4.44043e-05
-3.74428e-05
-3.16209e-05
-2.74183e-05
-2.44887e-05
-2.25674e-05
-2.14213e-05
-2.09491e-05
-2.10627e-05
-2.17573e-05
-1.74234e-05
-1.69981e-05
-1.6887e-05
-1.70704e-05
-1.75618e-05
-1.83631e-05
-1.95265e-05
-2.11725e-05
-2.34886e-05
-2.67363e-05
-3.10223e-05
-3.63607e-05
-4.14694e-05
-4.6464e-05
-5.05066e-05
-5.37434e-05
-5.59007e-05
-5.7142e-05
-5.75204e-05
-5.7085e-05
-5.58031e-05
-5.35901e-05
-5.03395e-05
-4.61279e-05
-4.09873e-05
-3.54888e-05
-3.06311e-05
-2.68729e-05
-2.41771e-05
-2.23593e-05
-2.12504e-05
-2.07705e-05
-2.08463e-05
-2.14778e-05
-1.73094e-05
-1.69331e-05
-1.68587e-05
-1.70636e-05
-1.7558e-05
-1.83417e-05
-1.94537e-05
-2.09814e-05
-2.30482e-05
-2.58125e-05
-2.93212e-05
-3.35645e-05
-3.79044e-05
-4.22538e-05
-4.58471e-05
-4.87078e-05
-5.06393e-05
-5.17602e-05
-5.21133e-05
-5.17378e-05
-5.06054e-05
-4.86578e-05
-4.58123e-05
-4.21701e-05
-3.78232e-05
-3.34183e-05
-2.946e-05
-2.62905e-05
-2.39201e-05
-2.22574e-05
-2.12028e-05
-2.07128e-05
-2.0739e-05
-2.12945e-05
-1.72644e-05
-1.69624e-05
-1.6948e-05
-1.71968e-05
-1.77166e-05
-1.85077e-05
-1.95998e-05
-2.10534e-05
-2.29451e-05
-2.53643e-05
-2.83219e-05
-3.18016e-05
-3.54554e-05
-3.91383e-05
-4.22437e-05
-4.47243e-05
-4.64363e-05
-4.74444e-05
-4.77717e-05
-4.74441e-05
-4.64438e-05
-4.47421e-05
-4.22975e-05
-3.92127e-05
-3.56009e-05
-3.20106e-05
-2.87461e-05
-2.60431e-05
-2.39363e-05
-2.23927e-05
-2.13644e-05
-2.08354e-05
-2.07789e-05
-2.12191e-05
-1.72841e-05
-1.70938e-05
-1.7161e-05
-1.74751e-05
-1.80456e-05
-1.88795e-05
-2.00038e-05
-2.14644e-05
-2.33106e-05
-2.55888e-05
-2.82866e-05
-3.13635e-05
-3.45915e-05
-3.78091e-05
-4.05873e-05
-4.28309e-05
-4.44197e-05
-4.5369e-05
-4.56818e-05
-4.53718e-05
-4.44324e-05
-4.2861e-05
-4.06582e-05
-3.79296e-05
-3.48075e-05
-3.16928e-05
-2.88107e-05
-2.63455e-05
-2.43518e-05
-2.28332e-05
-2.17713e-05
-2.11602e-05
-2.09823e-05
-2.12477e-05
-1.73608e-05
-1.73666e-05
-1.75697e-05
-1.79858e-05
-1.86404e-05
-1.95601e-05
-2.07815e-05
-2.23502e-05
-2.43101e-05
-2.66932e-05
-2.94806e-05
-3.26087e-05
-3.58774e-05
-3.91025e-05
-4.19326e-05
-4.42352e-05
-4.58922e-05
-4.68859e-05
-4.72088e-05
-4.68672e-05
-4.58623e-05
-4.42058e-05
-4.19282e-05
-3.91446e-05
-3.60142e-05
-3.28777e-05
-2.99584e-05
-2.74264e-05
-2.53482e-05
-2.37343e-05
-2.25624e-05
-2.18023e-05
-2.14139e-05
-2.13699e-05
-1.34047e-05
-1.34262e-05
-1.34765e-05
-1.35603e-05
-1.36831e-05
-1.38468e-05
-1.4052e-05
-1.42985e-05
-1.45833e-05
-1.49026e-05
-1.52435e-05
-1.55955e-05
-1.59343e-05
-1.62477e-05
-1.65187e-05
-1.67395e-05
-1.69025e-05
-1.70043e-05
-1.70431e-05
-1.7019e-05
-1.69346e-05
-1.67936e-05
-1.66042e-05
-1.63741e-05
-1.61208e-05
-1.58561e-05
-1.56042e-05
-1.53752e-05
-1.51816e-05
-1.50263e-05
-1.49104e-05
-1.48303e-05
-1.47787e-05
-1.47473e-05
-1.33776e-05
-1.33331e-05
-1.33409e-05
-1.33923e-05
-1.34887e-05
-1.36274e-05
-1.38061e-05
-1.40235e-05
-1.42746e-05
-1.4557e-05
-1.48532e-05
-1.51584e-05
-1.54453e-05
-1.57111e-05
-1.59379e-05
-1.61235e-05
-1.62609e-05
-1.63492e-05
-1.63871e-05
-1.63746e-05
-1.63139e-05
-1.62063e-05
-1.60592e-05
-1.58748e-05
-1.56712e-05
-1.5451e-05
-1.52416e-05
-1.50473e-05
-1.48862e-05
-1.47614e-05
-1.46798e-05
-1.46441e-05
-1.46514e-05
-1.47085e-05
-1.34404e-05
-1.33665e-05
-1.33532e-05
-1.3387e-05
-1.34758e-05
-1.36153e-05
-1.38018e-05
-1.40359e-05
-1.43121e-05
-1.4635e-05
-1.49762e-05
-1.53432e-05
-1.5675e-05
-1.59814e-05
-1.62336e-05
-1.6438e-05
-1.65857e-05
-1.66791e-05
-1.67167e-05
-1.66988e-05
-1.66275e-05
-1.65009e-05
-1.63283e-05
-1.61034e-05
-1.58557e-05
-1.55746e-05
-1.53221e-05
-1.50896e-05
-1.49076e-05
-1.47738e-05
-1.46986e-05
-1.46848e-05
-1.47186e-05
-1.48113e-05
-1.35875e-05
-1.34926e-05
-1.34671e-05
-1.34973e-05
-1.35945e-05
-1.37548e-05
-1.39754e-05
-1.42624e-05
-1.46127e-05
-1.5046e-05
-1.55155e-05
-1.60524e-05
-1.65163e-05
-1.69411e-05
-1.72755e-05
-1.75424e-05
-1.77286e-05
-1.78418e-05
-1.78797e-05
-1.78428e-05
-1.77338e-05
-1.75457e-05
-1.72923e-05
-1.69507e-05
-1.65737e-05
-1.61259e-05
-1.57504e-05
-1.54131e-05
-1.51647e-05
-1.49886e-05
-1.4895e-05
-1.48819e-05
-1.4928e-05
-1.5047e-05
-1.38241e-05
-1.37082e-05
-1.36783e-05
-1.37175e-05
-1.38383e-05
-1.40379e-05
-1.43163e-05
-1.46901e-05
-1.51631e-05
-1.57875e-05
-1.64856e-05
-1.73435e-05
-1.80425e-05
-1.86738e-05
-1.91472e-05
-1.95206e-05
-1.97728e-05
-1.99202e-05
-1.99591e-05
-1.989e-05
-1.97172e-05
-1.94248e-05
-1.9035e-05
-1.84899e-05
-1.78824e-05
-1.71183e-05
-1.65232e-05
-1.60031e-05
-1.56422e-05
-1.53917e-05
-1.5257e-05
-1.52274e-05
-1.52771e-05
-1.542e-05
-1.41457e-05
-1.40042e-05
-1.39741e-05
-1.40323e-05
-1.41902e-05
-1.44452e-05
-1.4802e-05
-1.52919e-05
-1.5933e-05
-1.68409e-05
-1.79003e-05
-1.93296e-05
-2.04015e-05
-2.13537e-05
-2.20334e-05
-2.25679e-05
-2.292e-05
-2.31202e-05
-2.31609e-05
-2.30425e-05
-2.27733e-05
-2.23231e-05
-2.17308e-05
-2.08682e-05
-1.98935e-05
-1.85632e-05
-1.76205e-05
-1.68271e-05
-1.63105e-05
-1.59577e-05
-1.57637e-05
-1.5705e-05
-1.57537e-05
-1.59281e-05
-1.45459e-05
-1.43718e-05
-1.43443e-05
-1.44299e-05
-1.46371e-05
-1.49625e-05
-1.54145e-05
-1.6043e-05
-1.68883e-05
-1.81926e-05
-1.97935e-05
-2.22635e-05
-2.38821e-05
-2.52812e-05
-2.62283e-05
-2.69776e-05
-2.74624e-05
-2.77347e-05
-2.77782e-05
-2.75932e-05
-2.71968e-05
-2.65368e-05
-2.56815e-05
-2.43749e-05
-2.28592e-05
-2.04916e-05
-1.90305e-05
-1.78522e-05
-1.71449e-05
-1.66681e-05
-1.63998e-05
-1.63026e-05
-1.63485e-05
-1.6567e-05
-1.50171e-05
-1.48026e-05
-1.47811e-05
-1.49058e-05
-1.51804e-05
-1.55972e-05
-1.61647e-05
-1.69382e-05
-1.79784e-05
-1.96483e-05
-2.1979e-05
-2.63716e-05
-2.8651e-05
-3.06268e-05
-3.19254e-05
-3.29707e-05
-3.36441e-05
-3.40202e-05
-3.40681e-05
-3.37877e-05
-3.32112e-05
-3.22623e-05
-3.10611e-05
-2.91788e-05
-2.70043e-05
-2.27075e-05
-2.05613e-05
-1.90267e-05
-1.8138e-05
-1.75303e-05
-1.71694e-05
-1.70186e-05
-1.70564e-05
-1.73328e-05
-1.5548e-05
-1.52835e-05
-1.52707e-05
-1.54456e-05
-1.58061e-05
-1.63353e-05
-1.7034e-05
-1.79345e-05
-1.90287e-05
-2.09791e-05
-2.36461e-05
-3.25239e-05
-3.50206e-05
-3.73679e-05
-3.89539e-05
-4.02516e-05
-4.11011e-05
-4.15815e-05
-4.16357e-05
-4.12634e-05
-4.05233e-05
-3.93324e-05
-3.78504e-05
-3.55921e-05
-3.32014e-05
-2.43706e-05
-2.20141e-05
-2.01886e-05
-1.92529e-05
-1.85266e-05
-1.80556e-05
-1.78344e-05
-1.78601e-05
-1.82142e-05
-1.61268e-05
-1.58054e-05
-1.58114e-05
-1.60627e-05
-1.65569e-05
-1.7274e-05
-1.82189e-05
-1.92803e-05
-2.04265e-05
-2.26908e-05
-1.79526e-05
-3.8224e-05
-4.0907e-05
-4.39217e-05
-4.60173e-05
-4.77436e-05
-4.88831e-05
-4.95118e-05
-4.9574e-05
-4.90694e-05
-4.80562e-05
-4.64524e-05
-4.44712e-05
-4.1543e-05
-3.89855e-05
-1.84661e-05
-2.38359e-05
-2.16872e-05
-2.07189e-05
-1.98397e-05
-1.91426e-05
-1.87792e-05
-1.87593e-05
-1.92028e-05
-1.67312e-05
-1.63432e-05
-1.63673e-05
-1.67017e-05
-1.73442e-05
-1.82787e-05
-1.95177e-05
-2.08926e-05
-2.1689e-05
-1.63016e-05
-5.57287e-05
-4.89368e-05
-5.01547e-05
-5.23174e-05
-5.40438e-05
-5.52877e-05
-5.59662e-05
-5.6039e-05
-5.55058e-05
-5.44075e-05
-5.28212e-05
-5.07883e-05
-4.96436e-05
-5.63014e-05
-1.80927e-05
-2.32479e-05
-2.25011e-05
-2.12798e-05
-2.02953e-05
-1.97579e-05
-1.96908e-05
-2.0253e-05
-1.7343e-05
-1.68882e-05
-1.69471e-05
-1.74052e-05
-1.82875e-05
-1.96505e-05
-2.17016e-05
-2.4686e-05
-2.9658e-05
-3.55663e-05
-5.20238e-05
-4.79418e-05
-5.14551e-05
-5.54412e-05
-5.89764e-05
-6.15576e-05
-6.32637e-05
-6.41257e-05
-6.42095e-05
-6.35153e-05
-6.19796e-05
-5.95706e-05
-5.62154e-05
-5.24165e-05
-4.91066e-05
-5.36716e-05
-3.70502e-05
-3.12501e-05
-2.63873e-05
-2.35679e-05
-2.17874e-05
-2.08653e-05
-2.06643e-05
-2.13399e-05
-1.7929e-05
-1.7406e-05
-1.74834e-05
-1.80274e-05
-1.90663e-05
-2.06695e-05
-2.30713e-05
-2.64784e-05
-3.16006e-05
-3.74768e-05
-4.72025e-05
-5.06958e-05
-5.51417e-05
-5.93366e-05
-6.3359e-05
-6.62761e-05
-6.82249e-05
-6.92041e-05
-6.92965e-05
-6.85024e-05
-6.67411e-05
-6.40123e-05
-6.01847e-05
-5.61754e-05
-5.19197e-05
-4.86947e-05
-3.90691e-05
-3.3292e-05
-2.82841e-05
-2.50493e-05
-2.29355e-05
-2.18201e-05
-2.15665e-05
-2.23672e-05
-1.84709e-05
-1.78888e-05
-1.79842e-05
-1.86062e-05
-1.97838e-05
-2.15955e-05
-2.42808e-05
-2.80371e-05
-3.3416e-05
-3.97579e-05
-4.79085e-05
-5.33281e-05
-5.85404e-05
-6.33191e-05
-6.79248e-05
-7.11922e-05
-7.33844e-05
-7.44737e-05
-7.45739e-05
-7.36852e-05
-7.16965e-05
-6.86332e-05
-6.42387e-05
-5.96578e-05
-5.46648e-05
-4.94233e-05
-4.14124e-05
-3.51856e-05
-2.99359e-05
-2.63642e-05
-2.39883e-05
-2.271e-05
-2.24078e-05
-2.33072e-05
-1.89466e-05
-1.8313e-05
-1.84148e-05
-1.90841e-05
-2.03431e-05
-2.22647e-05
-2.5073e-05
-2.89553e-05
-3.43683e-05
-4.08566e-05
-4.87496e-05
-5.49237e-05
-6.0733e-05
-6.58444e-05
-7.0736e-05
-7.4175e-05
-7.64896e-05
-7.76336e-05
-7.77399e-05
-7.68085e-05
-7.4709e-05
-7.14844e-05
-6.68136e-05
-6.19031e-05
-5.63057e-05
-5.03075e-05
-4.25729e-05
-3.6212e-05
-3.09407e-05
-2.72563e-05
-2.478e-05
-2.34335e-05
-2.31245e-05
-2.41111e-05
-1.9346e-05
-1.86727e-05
-1.87779e-05
-1.94801e-05
-2.07951e-05
-2.27903e-05
-2.56772e-05
-2.96413e-05
-3.50891e-05
-4.16722e-05
-4.95434e-05
-5.61175e-05
-6.22644e-05
-6.76123e-05
-7.26981e-05
-7.62451e-05
-7.86334e-05
-7.98106e-05
-7.99225e-05
-7.89687e-05
-7.68059e-05
-7.34823e-05
-6.86252e-05
-6.34826e-05
-5.75501e-05
-5.11509e-05
-4.34482e-05
-3.69998e-05
-3.17038e-05
-2.79504e-05
-2.54155e-05
-2.40299e-05
-2.37214e-05
-2.47719e-05
-1.96607e-05
-1.89588e-05
-1.90643e-05
-1.97859e-05
-2.11339e-05
-2.31718e-05
-2.61028e-05
-3.01147e-05
-3.55939e-05
-4.22574e-05
-5.01828e-05
-5.69814e-05
-6.33346e-05
-6.88277e-05
-7.40307e-05
-7.76453e-05
-8.00805e-05
-8.12802e-05
-8.13974e-05
-8.04315e-05
-7.82315e-05
-7.48485e-05
-6.98809e-05
-6.45971e-05
-5.84622e-05
-5.18389e-05
-4.40878e-05
-3.75641e-05
-3.22441e-05
-2.84529e-05
-2.58897e-05
-2.44872e-05
-2.41856e-05
-2.5282e-05
-1.98874e-05
-1.91692e-05
-1.92756e-05
-2.00097e-05
-2.13795e-05
-2.34465e-05
-2.64111e-05
-3.04643e-05
-3.59865e-05
-4.27239e-05
-5.07259e-05
-5.76674e-05
-6.41569e-05
-6.97577e-05
-7.50497e-05
-7.87234e-05
-8.11993e-05
-8.24208e-05
-8.25436e-05
-8.15671e-05
-7.93362e-05
-7.59026e-05
-7.08522e-05
-6.54646e-05
-5.91956e-05
-5.24296e-05
-4.46042e-05
-3.80087e-05
-3.265e-05
-2.88237e-05
-2.62369e-05
-2.48214e-05
-2.45222e-05
-2.56444e-05
-2.00245e-05
-1.93021e-05
-1.94105e-05
-2.01519e-05
-2.15345e-05
-2.36204e-05
-2.66117e-05
-3.07022e-05
-3.62753e-05
-4.30816e-05
-5.11672e-05
-5.82041e-05
-6.47841e-05
-7.0467e-05
-7.5828e-05
-7.95561e-05
-8.20704e-05
-8.33144e-05
-8.34437e-05
-8.24571e-05
-8.01988e-05
-7.67197e-05
-7.16062e-05
-6.61398e-05
-5.97809e-05
-5.29178e-05
-4.50078e-05
-3.83427e-05
-3.29337e-05
-2.9072e-05
-2.64623e-05
-2.50341e-05
-2.47315e-05
-2.58607e-05
-2.00715e-05
-1.93575e-05
-1.94692e-05
-2.02127e-05
-2.15988e-05
-2.3693e-05
-2.67032e-05
-3.08263e-05
-3.64579e-05
-4.33302e-05
-5.15106e-05
-5.86051e-05
-6.52324e-05
-7.09728e-05
-7.63824e-05
-8.01597e-05
-8.27096e-05
-8.39774e-05
-8.41144e-05
-8.3119e-05
-8.08379e-05
-7.73199e-05
-7.21639e-05
-6.66429e-05
-6.02349e-05
-5.3309e-05
-4.52998e-05
-3.85646e-05
-3.30944e-05
-2.91977e-05
-2.65665e-05
-2.51262e-05
-2.48144e-05
-2.59312e-05
-2.00321e-05
-1.93382e-05
-1.94538e-05
-2.01925e-05
-2.15705e-05
-2.36583e-05
-2.66746e-05
-3.08203e-05
-3.65187e-05
-4.34551e-05
-5.17652e-05
-5.88696e-05
-6.54806e-05
-7.1245e-05
-7.66744e-05
-8.04929e-05
-8.30731e-05
-8.43649e-05
-8.45114e-05
-8.35104e-05
-8.12151e-05
-7.76694e-05
-7.2501e-05
-6.69594e-05
-6.05627e-05
-5.36159e-05
-4.54684e-05
-3.86618e-05
-3.31188e-05
-2.91929e-05
-2.65468e-05
-2.50992e-05
-2.47743e-05
-2.58595e-05
-1.99091e-05
-1.92466e-05
-1.93632e-05
-2.00838e-05
-2.14305e-05
-2.34794e-05
-2.6463e-05
-3.05906e-05
-3.63444e-05
-4.33392e-05
-5.1885e-05
-5.89145e-05
-6.53932e-05
-7.10953e-05
-7.64636e-05
-8.02831e-05
-8.2868e-05
-8.4176e-05
-8.43349e-05
-8.33426e-05
-8.10642e-05
-7.75369e-05
-7.244e-05
-6.69664e-05
-6.06919e-05
-5.37962e-05
-4.53997e-05
-3.85242e-05
-3.29174e-05
-2.9e-05
-2.63722e-05
-2.49403e-05
-2.46087e-05
-2.56448e-05
-1.97119e-05
-1.90928e-05
-1.92085e-05
-1.98986e-05
-2.11909e-05
-2.31655e-05
-2.60701e-05
-3.01246e-05
-3.59129e-05
-4.28806e-05
-5.19362e-05
-5.87549e-05
-6.48342e-05
-7.03945e-05
-7.56194e-05
-7.939e-05
-8.19426e-05
-8.32551e-05
-8.34314e-05
-8.247e-05
-8.02557e-05
-7.68081e-05
-7.1872e-05
-6.65533e-05
-6.06599e-05
-5.39223e-05
-4.49974e-05
-3.81385e-05
-3.2487e-05
-2.86295e-05
-2.60608e-05
-2.46701e-05
-2.43362e-05
-2.52999e-05
-1.94508e-05
-1.88827e-05
-1.89873e-05
-1.96185e-05
-2.08018e-05
-2.26055e-05
-2.52669e-05
-2.90076e-05
-3.45443e-05
-4.10799e-05
-5.19297e-05
-5.81455e-05
-6.35483e-05
-6.86842e-05
-7.34561e-05
-7.70051e-05
-7.9416e-05
-8.06904e-05
-8.08916e-05
-8.00193e-05
-7.79929e-05
-7.48156e-05
-7.03609e-05
-6.54978e-05
-6.02619e-05
-5.39837e-05
-4.32632e-05
-3.68322e-05
-3.1423e-05
-2.78626e-05
-2.5512e-05
-2.42514e-05
-2.39535e-05
-2.48341e-05
-1.91486e-05
-1.86414e-05
-1.87384e-05
-1.93106e-05
-2.03814e-05
-2.20046e-05
-2.43896e-05
-2.77632e-05
-3.32068e-05
-4.00059e-05
-5.56433e-05
-5.66616e-05
-6.19731e-05
-6.73155e-05
-7.1857e-05
-7.52845e-05
-7.76099e-05
-7.88714e-05
-7.9106e-05
-7.83173e-05
-7.64436e-05
-7.34658e-05
-6.92886e-05
-6.42769e-05
-5.90269e-05
-5.76485e-05
-4.23354e-05
-3.56133e-05
-3.0274e-05
-2.7052e-05
-2.49405e-05
-2.38088e-05
-2.35333e-05
-2.43015e-05
-1.88214e-05
-1.83734e-05
-1.84474e-05
-1.89259e-05
-1.98052e-05
-2.10658e-05
-2.27103e-05
-2.44865e-05
-2.53395e-05
-1.79677e-05
-7.2347e-05
-6.33952e-05
-6.53458e-05
-6.85695e-05
-7.13182e-05
-7.33354e-05
-7.45299e-05
-7.48041e-05
-7.41682e-05
-7.26816e-05
-7.04855e-05
-6.7684e-05
-6.62055e-05
-7.52287e-05
-2.03878e-05
-2.79672e-05
-2.71524e-05
-2.54747e-05
-2.40529e-05
-2.32271e-05
-2.30502e-05
-2.37206e-05
-1.85021e-05
-1.81147e-05
-1.81888e-05
-1.86282e-05
-1.94401e-05
-2.06293e-05
-2.2265e-05
-2.43449e-05
-2.723e-05
-3.18751e-05
-3.29619e-05
-5.2037e-05
-5.68442e-05
-6.18833e-05
-6.56946e-05
-6.8965e-05
-7.1207e-05
-7.25468e-05
-7.28674e-05
-7.21918e-05
-7.05832e-05
-6.79925e-05
-6.46236e-05
-6.01486e-05
-5.54395e-05
-3.7346e-05
-3.54028e-05
-3.04487e-05
-2.72994e-05
-2.51678e-05
-2.36639e-05
-2.28327e-05
-2.26276e-05
-2.31869e-05
-1.82037e-05
-1.78675e-05
-1.7938e-05
-1.83358e-05
-1.9072e-05
-2.01615e-05
-2.16784e-05
-2.37493e-05
-2.65751e-05
-3.06533e-05
-3.72072e-05
-4.79349e-05
-5.25831e-05
-5.7025e-05
-6.04887e-05
-6.3576e-05
-6.5693e-05
-6.69855e-05
-6.73295e-05
-6.67571e-05
-6.53165e-05
-6.29732e-05
-5.98323e-05
-5.58478e-05
-5.14202e-05
-4.12872e-05
-3.42846e-05
-2.99518e-05
-2.68397e-05
-2.46592e-05
-2.32143e-05
-2.24213e-05
-2.22153e-05
-2.26959e-05
-1.79473e-05
-1.76588e-05
-1.77371e-05
-1.81182e-05
-1.88203e-05
-1.98706e-05
-2.13509e-05
-2.34054e-05
-2.62582e-05
-3.02469e-05
-3.56583e-05
-4.26805e-05
-4.72891e-05
-5.14201e-05
-5.47645e-05
-5.78314e-05
-5.99103e-05
-6.11719e-05
-6.15242e-05
-6.10084e-05
-5.96301e-05
-5.73586e-05
-5.42475e-05
-5.043e-05
-4.61597e-05
-3.9747e-05
-3.40514e-05
-2.97599e-05
-2.65851e-05
-2.43774e-05
-2.29242e-05
-2.21196e-05
-2.18838e-05
-2.22885e-05
-1.7742e-05
-1.74962e-05
-1.75854e-05
-1.79552e-05
-1.8625e-05
-1.96235e-05
-2.10226e-05
-2.29509e-05
-2.55707e-05
-2.91484e-05
-3.35693e-05
-3.89105e-05
-4.30803e-05
-4.68587e-05
-5.00465e-05
-5.29297e-05
-5.48854e-05
-5.60696e-05
-5.64168e-05
-5.59691e-05
-5.47127e-05
-5.26379e-05
-4.9727e-05
-4.62623e-05
-4.24025e-05
-3.7578e-05
-3.29186e-05
-2.90523e-05
-2.61265e-05
-2.40435e-05
-2.2656e-05
-2.18714e-05
-2.16198e-05
-2.19617e-05
-1.75971e-05
-1.73955e-05
-1.75063e-05
-1.78785e-05
-1.853e-05
-1.94864e-05
-2.08048e-05
-2.25808e-05
-2.49185e-05
-2.79677e-05
-3.16222e-05
-3.58975e-05
-3.97151e-05
-4.33724e-05
-4.64523e-05
-4.91234e-05
-5.09587e-05
-5.20675e-05
-5.24058e-05
-5.20096e-05
-5.08607e-05
-4.89632e-05
-4.62862e-05
-4.30877e-05
-3.94572e-05
-3.54608e-05
-3.15807e-05
-2.82836e-05
-2.56941e-05
-2.37928e-05
-2.24913e-05
-2.17283e-05
-2.14535e-05
-2.17293e-05
-1.75149e-05
-1.73668e-05
-1.75135e-05
-1.79031e-05
-1.85517e-05
-1.94828e-05
-2.07409e-05
-2.23939e-05
-2.45051e-05
-2.71562e-05
-3.02647e-05
-3.38207e-05
-3.72686e-05
-4.06642e-05
-4.35378e-05
-4.59625e-05
-4.76586e-05
-4.86859e-05
-4.90118e-05
-4.86617e-05
-4.76221e-05
-4.59072e-05
-4.35037e-05
-4.06131e-05
-3.72985e-05
-3.38717e-05
-3.05803e-05
-2.77385e-05
-2.54419e-05
-2.37021e-05
-2.24721e-05
-2.17154e-05
-2.13994e-05
-2.15943e-05
-1.74854e-05
-1.74074e-05
-1.75951e-05
-1.80131e-05
-1.86759e-05
-1.96079e-05
-2.08472e-05
-2.24444e-05
-2.44414e-05
-2.6878e-05
-2.96941e-05
-3.28428e-05
-3.60213e-05
-3.91489e-05
-4.18569e-05
-4.41083e-05
-4.57163e-05
-4.6692e-05
-4.70087e-05
-4.66802e-05