/*--------------------------------*- C++ -*----------------------------------*\
| =========                 |                                                 |
| \\      /  F ield         | OpenFOAM: The Open Source CFD Toolbox           |
|  \\    /   O peration     | Version:  2112                                  |
|   \\  /    A nd           | Website:  www.openfoam.com                      |
|    \\/     M anipulation  |                                                 |
\*---------------------------------------------------------------------------*/
FoamFile
{
    version     2.0;
    format      ascii;
    arch        "LSB;label=32;scalar=64";
    class       surfaceScalarField;
    location    "0.9";
    object      phi;
}
// * * * * * * * * * * * * * * * * * * * * * * * * * * * * * * * * * * * * * //

dimensions      [0 3 -1 0 0 0 0];

oriented        oriented;

internalField   nonuniform List<scalar> 
188215
(
1.2572e-09
2.98517e-09
-4.24238e-09
3.22232e-09
2.61513e-09
-4.58025e-09
5.30514e-09
2.40304e-09
-4.48587e-09
7.33778e-09
2.42766e-09
-4.4603e-09
9.28356e-09
2.65803e-09
-4.60381e-09
1.11318e-08
3.04116e-09
-4.88944e-09
1.2865e-08
3.55557e-09
-5.28874e-09
1.44278e-08
4.21845e-09
-5.78124e-09
1.57456e-08
5.03807e-09
-6.35584e-09
1.66413e-08
6.09093e-09
-6.98669e-09
1.69991e-08
7.30347e-09
-7.66128e-09
1.6537e-08
8.79994e-09
-8.33782e-09
1.53392e-08
1.0184e-08
-8.9862e-09
1.34173e-08
1.14839e-08
-9.56204e-09
1.09203e-08
1.25507e-08
-1.00537e-08
7.96236e-09
1.33962e-08
-1.04382e-08
4.70103e-09
1.39698e-08
-1.07084e-08
1.28904e-09
1.42677e-08
-1.08557e-08
-2.11166e-09
1.42782e-08
-1.08775e-08
-5.33945e-09
1.40016e-08
-1.07738e-08
-8.24196e-09
1.345e-08
-1.05475e-08
-1.06621e-08
1.26277e-08
-1.02076e-08
-1.24876e-08
1.15869e-08
-9.76134e-09
-1.35714e-08
1.03163e-08
-9.23257e-09
-1.39069e-08
8.96891e-09
-8.63338e-09
-1.34114e-08
7.51481e-09
-8.01033e-09
-1.23748e-08
6.35893e-09
-7.39554e-09
-1.09086e-08
5.3705e-09
-6.8367e-09
-9.18849e-09
4.63556e-09
-6.35565e-09
-7.28388e-09
4.0951e-09
-5.99971e-09
-5.25259e-09
3.78599e-09
-5.81728e-09
-3.14936e-09
3.75867e-09
-5.8619e-09
-1.15717e-09
4.02741e-09
-6.01961e-09
4.49773e-09
-5.65489e-09
6.03448e-10
7.36085e-09
-4.97913e-09
2.96185e-09
7.66953e-09
-7.41279e-09
5.51964e-09
7.85523e-09
-8.00999e-09
7.87781e-09
8.33302e-09
-8.26354e-09
1.00528e-08
9.1765e-09
-8.69345e-09
1.20949e-08
1.03622e-08
-9.36311e-09
1.40199e-08
1.18881e-08
-1.02576e-08
1.57885e-08
1.38123e-08
-1.13624e-08
1.73241e-08
1.61733e-08
-1.26708e-08
1.84204e-08
1.91619e-08
-1.41672e-08
1.89221e-08
2.26195e-08
-1.58177e-08
1.84269e-08
2.68519e-08
-1.75567e-08
1.70799e-08
3.07675e-08
-1.92365e-08
1.49136e-08
3.44073e-08
-2.07571e-08
1.21126e-08
3.74011e-08
-2.20494e-08
8.80485e-09
3.9769e-08
-2.30651e-08
5.16471e-09
4.13824e-08
-2.37725e-08
1.35986e-09
4.22243e-08
-2.41517e-08
-2.4327e-09
4.22637e-08
-2.41929e-08
-6.03595e-09
4.15009e-08
-2.38961e-08
-9.28249e-09
3.99684e-08
-2.32718e-08
-1.19982e-08
3.76841e-08
-2.23407e-08
-1.40573e-08
3.4781e-08
-2.11351e-08
-1.52764e-08
3.12402e-08
-1.97048e-08
-1.56293e-08
2.74426e-08
-1.81209e-08
-1.49716e-08
2.33438e-08
-1.64866e-08
-1.37158e-08
2.00572e-08
-1.4954e-08
-1.20058e-08
1.72569e-08
-1.35964e-08
-1.00334e-08
1.5125e-08
-1.24618e-08
-7.83569e-09
1.34907e-08
-1.15934e-08
-5.39232e-09
1.23651e-08
-1.10225e-08
-2.69587e-09
1.17364e-08
-1.06742e-08
-2.57098e-10
1.14702e-08
-9.88152e-09
1.10048e-08
-6.76417e-09
3.66083e-10
1.20283e-08
-5.03352e-09
3.00196e-09
1.30774e-08
-8.04378e-09
5.98045e-09
1.37633e-08
-8.88652e-09
8.71665e-09
1.48339e-08
-9.23706e-09
1.12289e-08
1.64253e-08
-9.761e-09
1.36074e-08
1.85519e-08
-1.05682e-08
1.59082e-08
2.12457e-08
-1.16585e-08
1.81185e-08
2.46287e-08
-1.30266e-08
2.0172e-08
2.87968e-08
-1.46771e-08
2.17775e-08
3.4159e-08
-1.66027e-08
2.26979e-08
4.04684e-08
-1.87693e-08
2.21264e-08
4.85012e-08
-2.10778e-08
2.04498e-08
5.57592e-08
-2.33151e-08
1.77543e-08
6.24333e-08
-2.53305e-08
1.43373e-08
6.78541e-08
-2.7036e-08
1.03378e-08
7.21348e-08
-2.83663e-08
5.96457e-09
7.50439e-08
-2.92882e-08
1.40472e-09
7.65623e-08
-2.97782e-08
-3.14215e-09
7.6635e-08
-2.98245e-08
-7.47621e-09
7.52622e-08
-2.94272e-08
-1.14101e-08
7.2501e-08
-2.85987e-08
-1.47344e-08
6.83715e-08
-2.7363e-08
-1.73109e-08
6.31119e-08
-2.57543e-08
-1.88424e-08
5.66114e-08
-2.38397e-08
-1.92503e-08
4.95594e-08
-2.17089e-08
-1.81459e-08
4.1757e-08
-1.95177e-08
-1.63549e-08
3.57497e-08
-1.74835e-08
-1.40893e-08
3.07073e-08
-1.5716e-08
-1.16131e-08
2.69141e-08
-1.42654e-08
-8.92853e-09
2.39765e-08
-1.31703e-08
-5.9675e-09
2.1845e-08
-1.24408e-08
-2.71767e-09
2.04241e-08
-1.19375e-08
5.20684e-11
1.95007e-08
-1.08003e-08
1.80012e-08
-6.94434e-09
4.4295e-10
1.65896e-08
-5.00423e-09
3.50585e-09
1.82011e-08
-8.18661e-09
7.01205e-09
1.93398e-08
-9.08272e-09
1.02748e-08
2.10141e-08
-9.44304e-09
1.33134e-08
2.33956e-08
-1.00089e-08
1.62582e-08
2.65191e-08
-1.0912e-08
1.92216e-08
3.04452e-08
-1.21628e-08
2.22496e-08
3.53735e-08
-1.37729e-08
2.53137e-08
4.14988e-08
-1.5766e-08
2.79894e-08
4.96395e-08
-1.81562e-08
2.98361e-08
5.95329e-08
-2.09112e-08
2.90684e-08
7.31786e-08
-2.39097e-08
2.66924e-08
8.49459e-08
-2.68108e-08
2.29629e-08
9.55643e-08
-2.94015e-08
1.8395e-08
1.04e-07
-3.15784e-08
1.31242e-08
1.10657e-07
-3.32511e-08
7.41229e-09
1.15158e-07
-3.44019e-08
1.47686e-09
1.17505e-07
-3.50072e-08
-4.44498e-09
1.17612e-07
-3.50552e-08
-1.01154e-08
1.15479e-07
-3.45461e-08
-1.53157e-08
1.11193e-07
-3.34916e-08
-1.97811e-08
1.04753e-07
-3.1916e-08
-2.33752e-08
9.65432e-08
-2.98372e-08
-2.55792e-08
8.61632e-08
-2.73478e-08
-2.6148e-08
7.46808e-08
-2.45525e-08
-2.40687e-08
6.13491e-08
-2.16714e-08
-2.11716e-08
5.19022e-08
-1.90496e-08
-1.78465e-08
4.42054e-08
-1.68232e-08
-1.44795e-08
3.8589e-08
-1.50419e-08
-1.10171e-08
3.42454e-08
-1.37313e-08
-7.32596e-09
3.10397e-08
-1.2886e-08
-3.37331e-09
2.88049e-08
-1.23335e-08
-5.06017e-11
2.7285e-08
-1.1107e-08
2.49667e-08
-7.01606e-09
7.3601e-10
2.0911e-08
-5.0575e-09
4.43262e-09
2.2985e-08
-8.48042e-09
8.65362e-09
2.45535e-08
-9.43475e-09
1.26346e-08
2.68558e-08
-9.82261e-09
1.64112e-08
3.00931e-08
-1.04741e-08
2.01732e-08
3.43024e-08
-1.15454e-08
2.41258e-08
3.95583e-08
-1.30657e-08
2.84557e-08
4.61255e-08
-1.50818e-08
3.32618e-08
5.43453e-08
-1.76526e-08
3.79955e-08
6.57475e-08
-2.08417e-08
4.17783e-08
8.03639e-08
-2.46138e-08
4.04993e-08
1.03333e-07
-2.88755e-08
3.67342e-08
1.21674e-07
-3.2963e-08
3.12004e-08
1.3769e-07
-3.65917e-08
2.47701e-08
1.50056e-07
-3.96256e-08
1.74866e-08
1.59837e-07
-4.18967e-08
9.67283e-09
1.6642e-07
-4.34489e-08
1.58294e-09
1.69851e-07
-4.42564e-08
-6.49313e-09
1.69996e-07
-4.43082e-08
-1.42641e-08
1.66854e-07
-4.36043e-08
-2.14734e-08
1.60557e-07
-4.21551e-08
-2.77915e-08
1.51058e-07
-3.99868e-08
-3.31704e-08
1.38977e-07
-3.70545e-08
-3.67266e-08
1.23248e-07
-3.35289e-08
-3.77536e-08
1.05254e-07
-2.95462e-08
-3.3659e-08
8.2656e-08
-2.54015e-08
-2.86645e-08
6.86718e-08
-2.17641e-08
-2.3544e-08
5.78313e-08
-1.87465e-08
-1.87923e-08
5.02406e-08
-1.64032e-08
-1.42081e-08
4.4382e-08
-1.47208e-08
-9.50797e-09
4.0006e-08
-1.36664e-08
-4.58273e-09
3.69021e-08
-1.30225e-08
-3.82887e-10
3.47798e-08
-1.16946e-08
3.17884e-08
-7.20465e-09
1.19855e-09
2.49094e-08
-5.19692e-09
5.75596e-09
2.7408e-08
-8.9805e-09
1.09254e-08
2.94274e-08
-1.00434e-08
1.58527e-08
3.24269e-08
-1.04984e-08
2.05976e-08
3.66425e-08
-1.12942e-08
2.54293e-08
4.20966e-08
-1.26259e-08
3.06968e-08
4.88465e-08
-1.45557e-08
3.68931e-08
5.71256e-08
-1.71964e-08
4.44862e-08
6.74079e-08
-2.06557e-08
5.31204e-08
8.21977e-08
-2.50845e-08
6.10183e-08
1.02794e-07
-3.03276e-08
5.84337e-08
1.42563e-07
-3.66454e-08
5.19551e-08
1.70821e-07
-4.26683e-08
4.34295e-08
1.94265e-07
-4.80493e-08
3.41856e-08
2.11854e-07
-5.25537e-08
2.39167e-08
2.25875e-07
-5.57693e-08
1.29969e-08
2.35294e-07
-5.79545e-08
1.72623e-09
2.40202e-07
-5.90806e-08
-9.53158e-09
2.40394e-07
-5.914e-08
-2.04106e-08
2.35866e-07
-5.81326e-08
-3.06072e-08
2.26818e-07
-5.60642e-08
-3.97354e-08
2.1315e-07
-5.29637e-08
-4.80905e-08
1.95901e-07
-4.8569e-08
-5.43169e-08
1.7277e-07
-4.32956e-08
-5.65721e-08
1.44886e-07
-3.73768e-08
-4.82261e-08
1.05483e-07
-3.11726e-08
-3.93049e-08
8.58164e-08
-2.60658e-08
-3.13508e-08
7.16966e-08
-2.18193e-08
-2.46391e-08
6.21374e-08
-1.86086e-08
-1.85746e-08
5.46622e-08
-1.63447e-08
-1.25537e-08
4.89392e-08
-1.49541e-08
-6.33597e-09
4.48225e-08
-1.41381e-08
-9.56133e-10
4.20186e-08
-1.26187e-08
3.8372e-08
-7.53969e-09
1.82546e-09
2.84774e-08
-5.39339e-09
7.49674e-09
3.13857e-08
-9.64895e-09
1.38914e-08
3.39047e-08
-1.0872e-08
2.00368e-08
3.77127e-08
-1.14312e-08
2.60101e-08
4.30968e-08
-1.24276e-08
3.21638e-08
5.00562e-08
-1.41134e-08
3.90334e-08
5.8581e-08
-1.66041e-08
4.76854e-08
6.85974e-08
-2.01239e-08
5.94705e-08
8.04626e-08
-2.48399e-08
7.52525e-08
9.73715e-08
-3.09558e-08
9.22541e-08
1.23737e-07
-3.79451e-08
8.61554e-08
1.95868e-07
-4.72067e-08
7.42422e-08
2.38657e-07
-5.59224e-08
6.08819e-08
2.71621e-07
-6.39964e-08
4.75739e-08
2.96019e-07
-7.08574e-08
3.30614e-08
3.15716e-07
-7.53288e-08
1.77194e-08
3.29014e-07
-7.83772e-08
1.91448e-09
3.35946e-07
-7.99388e-08
-1.38805e-08
3.362e-07
-8.0011e-08
-2.91903e-08
3.29769e-07
-7.85933e-08
-4.36446e-08
3.16957e-07
-7.56845e-08
-5.68507e-08
2.97705e-07
-7.1349e-08
-7.00433e-08
2.73704e-07
-6.46109e-08
-8.16649e-08
2.41044e-07
-5.66518e-08
-8.73249e-08
1.98584e-07
-4.80382e-08
-6.96164e-08
1.26653e-07
-3.88788e-08
-5.3578e-08
1.01805e-07
-3.2027e-08
-4.1418e-08
8.56389e-08
-2.61023e-08
-3.21474e-08
7.45259e-08
-2.16591e-08
-2.42688e-08
6.53509e-08
-1.85673e-08
-1.659e-08
5.79629e-08
-1.67026e-08
-8.70102e-09
5.2565e-08
-1.56315e-08
-1.77393e-09
4.89175e-08
-1.38259e-08
4.45798e-08
-7.98177e-09
2.64216e-09
3.14558e-08
-5.62058e-09
9.72774e-09
3.47524e-08
-1.04523e-08
1.76908e-08
3.78229e-08
-1.18813e-08
2.5405e-08
4.25737e-08
-1.25752e-08
3.29276e-08
4.93988e-08
-1.38246e-08
4.0612e-08
5.83318e-08
-1.596e-08
4.90579e-08
6.93097e-08
-1.91746e-08
6.00515e-08
8.14778e-08
-2.3874e-08
7.65589e-08
9.41609e-08
-3.02057e-08
1.0477e-07
1.07769e-07
-3.8609e-08
1.42058e-07
1.31821e-07
-4.53712e-08
1.27433e-07
2.6748e-07
-5.69867e-08
1.05873e-07
3.29476e-07
-6.92595e-08
8.55079e-08
3.7336e-07
-8.13734e-08
6.66519e-08
4.06659e-07
-9.17836e-08
4.61866e-08
4.33741e-07
-9.75597e-08
2.45003e-08
4.52226e-07
-1.01526e-07
2.16252e-09
4.61843e-07
-1.03559e-07
-2.0171e-08
4.62181e-07
-1.03648e-07
-4.1843e-08
4.53233e-07
-1.01792e-07
-6.22849e-08
4.35395e-07
-9.79964e-08
-8.10903e-08
4.08895e-07
-9.23851e-08
-1.01348e-07
3.76078e-07
-8.21164e-08
-1.22636e-07
3.32461e-07
-7.0129e-08
-1.36669e-07
2.70588e-07
-5.79709e-08
-9.81399e-08
1.3454e-07
-4.64168e-08
-6.98739e-08
1.13319e-07
-3.97799e-08
-5.30233e-08
1.00369e-07
-3.15804e-08
-4.12874e-08
8.83446e-08
-2.55547e-08
-3.15558e-08
7.69641e-08
-2.13448e-08
-2.19008e-08
6.71679e-08
-1.88599e-08
-1.18695e-08
5.99881e-08
-1.74544e-08
-2.91242e-09
5.52333e-08
-1.5273e-08
5.01473e-08
-8.47988e-09
3.65998e-09
3.36605e-08
-5.86475e-09
1.24881e-08
3.72972e-08
-1.1373e-08
2.24161e-08
4.09476e-08
-1.30526e-08
3.21415e-08
4.67582e-08
-1.39099e-08
4.16636e-08
5.53374e-08
-1.54607e-08
5.11783e-08
6.69416e-08
-1.81245e-08
6.09883e-08
8.16885e-08
-2.21888e-08
7.32183e-08
9.75051e-08
-2.82573e-08
9.29197e-08
1.11203e-07
-3.67438e-08
1.37347e-07
1.09905e-07
-4.65636e-08
2.18635e-07
1.06707e-07
-5.61742e-08
1.83404e-07
3.63397e-07
-6.06863e-08
1.46471e-07
4.40774e-07
-7.4365e-08
1.17771e-07
4.93265e-07
-9.12045e-08
9.21117e-08
5.38042e-07
-1.05725e-07
6.3944e-08
5.73999e-07
-1.1209e-07
3.37286e-08
5.99203e-07
-1.16762e-07
2.49517e-09
6.12223e-07
-1.19146e-07
-2.87426e-08
6.12669e-07
-1.1925e-07
-5.8973e-08
6.00535e-07
-1.17072e-07
-8.7181e-08
5.76196e-07
-1.12593e-07
-1.12902e-07
5.41033e-07
-1.06417e-07
-1.41673e-07
4.96898e-07
-9.2049e-08
-1.7851e-07
4.44652e-07
-7.53538e-08
-2.1301e-07
3.66886e-07
-6.1798e-08
-1.29416e-07
1.08457e-07
-5.75109e-08
-8.55426e-08
1.17305e-07
-4.78595e-08
-6.5562e-08
1.18618e-07
-3.82297e-08
-5.24152e-08
1.05297e-07
-3.00989e-08
-4.09358e-08
9.00788e-08
-2.45941e-08
-2.88576e-08
7.64761e-08
-2.13864e-08
-1.60456e-08
6.67683e-08
-1.95922e-08
-4.4419e-09
6.05773e-08
-1.69476e-08
5.47162e-08
-9.01079e-09
4.93638e-09
3.483e-08
-6.10589e-09
1.59213e-08
3.87042e-08
-1.23918e-08
2.83864e-08
4.28449e-08
-1.43625e-08
4.09072e-08
4.96451e-08
-1.54077e-08
5.34611e-08
6.00835e-08
-1.73e-08
6.58157e-08
7.51262e-08
-2.05391e-08
7.69138e-08
9.60125e-08
-2.54221e-08
8.53474e-08
1.22123e-07
-3.30513e-08
9.14271e-08
1.4765e-07
-4.25261e-08
1.27249e-07
1.30389e-07
-5.63057e-08
3.1423e-07
-8.02742e-08
2.44055e-07
4.80847e-07
-4.72749e-08
1.97193e-07
5.44127e-07
-5.64904e-08
1.63257e-07
6.00622e-07
-7.34206e-08
1.29568e-07
6.60122e-07
-8.83914e-08
9.01564e-08
7.05988e-07
-9.25773e-08
4.7246e-08
7.3835e-07
-9.6236e-08
2.94063e-09
7.54702e-07
-9.81741e-08
-4.13751e-08
7.55252e-07
-9.82678e-08
-8.43251e-08
7.40002e-07
-9.65173e-08
-1.23848e-07
7.08744e-07
-9.30246e-08
-1.57759e-07
6.63963e-07
-8.9018e-08
-1.92167e-07
6.0548e-07
-7.41751e-08
-2.39757e-07
5.49621e-07
-5.73787e-08
-3.09763e-07
4.85356e-07
-4.84638e-08
-1.18996e-07
-8.23097e-08
-8.33135e-08
1.39065e-07
-5.74428e-08
-7.73589e-08
1.56696e-07
-4.40327e-08
-6.77015e-08
1.30692e-07
-3.50523e-08
-5.43932e-08
1.04858e-07
-2.80878e-08
-3.87272e-08
8.50309e-08
-2.42208e-08
-2.18961e-08
7.1964e-08
-2.20268e-08
-6.64101e-09
6.41605e-08
-1.88383e-08
5.7591e-08
-9.51587e-09
6.3711e-09
3.48121e-08
-6.3531e-09
1.98007e-08
3.87697e-08
-1.34951e-08
3.52375e-08
4.32118e-08
-1.58037e-08
5.12633e-08
5.06998e-08
-1.70805e-08
6.81082e-08
6.26216e-08
-1.9383e-08
8.55053e-08
8.09187e-08
-2.31896e-08
1.00919e-07
1.09268e-07
-2.86693e-08
1.06024e-07
1.52496e-07
-3.54777e-08
8.5259e-08
2.16607e-07
-4.81929e-08
2.90813e-07
-7.51651e-08
1.58451e-07
2.74629e-07
4.77663e-08
2.13459e-07
4.68471e-07
2.06487e-08
2.10254e-07
5.8691e-07
1.69165e-08
1.73481e-07
6.7649e-07
2.04059e-08
1.21896e-07
7.3781e-07
1.97631e-08
6.39767e-08
7.77444e-07
1.88249e-08
3.53499e-09
7.96701e-07
1.84423e-08
-5.69224e-08
7.9727e-07
1.84395e-08
-1.14902e-07
7.79167e-07
1.88156e-08
-1.66657e-07
7.4074e-07
1.97577e-08
-2.03835e-07
6.80744e-07
2.03979e-08
-2.08037e-07
5.92729e-07
1.6953e-08
-1.55092e-07
4.76186e-07
2.04893e-08
2.83316e-07
4.69472e-08
-8.23498e-08
2.95835e-07
-7.44202e-08
-9.99234e-08
2.23703e-07
-4.94335e-08
-9.18956e-08
1.60265e-07
-3.76007e-08
-7.31973e-08
1.17773e-07
-3.16132e-08
-5.14755e-08
9.06621e-08
-2.7353e-08
-2.91453e-08
7.44469e-08
-2.48131e-08
-9.31854e-09
6.53123e-08
-2.09786e-08
5.83235e-08
-1.0051e-08
8.0406e-09
3.3359e-08
-6.58756e-09
2.43185e-08
3.71275e-08
-1.46358e-08
4.35347e-08
4.12933e-08
-1.72977e-08
6.48348e-08
4.82278e-08
-1.88281e-08
9.00428e-08
5.90224e-08
-2.16089e-08
1.22181e-07
7.49737e-08
-2.61933e-08
1.66062e-07
9.80998e-08
-3.27124e-08
2.28679e-07
1.2984e-07
-3.9961e-08
3.22377e-07
1.68348e-07
-4.54389e-08
4.55714e-07
1.97707e-07
-4.02308e-08
3.51796e-07
8.06636e-08
2.32545e-08
3.81117e-07
2.10689e-07
3.46188e-08
3.74792e-07
3.58478e-07
1.16318e-07
3.25131e-07
4.60585e-07
1.75986e-07
2.51069e-07
5.38973e-07
2.11579e-07
1.69844e-07
5.9269e-07
2.26346e-07
8.70996e-08
6.27125e-07
2.33063e-07
4.16231e-09
6.43873e-07
2.35766e-07
-7.87627e-08
6.44363e-07
2.35832e-07
-1.61469e-07
6.28606e-07
2.33267e-07
-2.42634e-07
5.95196e-07
2.26709e-07
-3.16591e-07
5.42566e-07
2.12135e-07
-3.66118e-07
4.65353e-07
1.76903e-07
-3.71889e-07
3.64313e-07
1.17645e-07
-3.42604e-07
2.17183e-07
3.68484e-08
-4.50906e-07
8.29371e-08
2.53645e-08
-3.172e-07
2.02163e-07
-4.00329e-08
-2.2146e-07
1.74479e-07
-4.65168e-08
-1.56132e-07
1.36906e-07
-4.19698e-08
-1.08594e-07
1.0609e-07
-3.58542e-08
-7.13416e-08
8.42783e-08
-3.0869e-08
-3.94367e-08
7.03975e-08
-2.78555e-08
-1.3109e-08
6.22992e-08
-2.33145e-08
5.57749e-08
-1.05604e-08
9.50481e-09
3.06789e-08
-6.82465e-09
2.82822e-08
3.40825e-08
-1.57324e-08
5.0606e-08
3.77213e-08
-1.87517e-08
7.5741e-08
4.36515e-08
-2.05588e-08
1.0602e-07
5.2593e-08
-2.38495e-08
1.45137e-07
6.51627e-08
-2.93057e-08
1.98388e-07
8.1961e-08
-3.71128e-08
2.7205e-07
1.02777e-07
-4.65987e-08
3.71138e-07
1.241e-07
-5.48402e-08
4.85723e-07
1.38704e-07
-5.55815e-08
4.95561e-07
1.04656e-07
-3.3831e-08
5.2062e-07
1.77127e-07
8.50272e-09
4.81823e-07
2.66419e-07
1.30857e-07
4.02796e-07
3.36105e-07
2.03507e-07
3.05841e-07
3.92444e-07
2.43484e-07
2.04791e-07
4.32004e-07
2.61735e-07
1.04221e-07
4.57899e-07
2.69796e-07
4.65182e-09
4.70621e-07
2.72821e-07
-9.48968e-08
4.71031e-07
2.72881e-07
-1.95401e-07
4.59129e-07
2.69982e-07
-2.96339e-07
4.34063e-07
2.62071e-07
-3.93126e-07
3.95335e-07
2.44018e-07
-4.72014e-07
3.3982e-07
2.04421e-07
-5.10737e-07
2.70794e-07
1.32242e-07
-4.86326e-07
1.81909e-07
1.08625e-08
-4.78952e-07
1.07935e-07
-3.23724e-08
-3.64622e-07
1.43211e-07
-5.53786e-08
-2.63939e-07
1.29603e-07
-5.58071e-08
-1.87543e-07
1.09143e-07
-4.86326e-08
-1.30241e-07
8.92597e-08
-4.04713e-08
-8.52665e-08
7.37514e-08
-3.44477e-08
-4.71756e-08
6.31164e-08
-3.08098e-08
-1.59557e-08
5.66046e-08
-2.55253e-08
5.09174e-08
-1.10982e-08
1.08077e-08
2.69108e-08
-7.03967e-09
3.17861e-08
2.98183e-08
-1.67142e-08
5.67786e-08
3.27697e-08
-2.00409e-08
8.50311e-08
3.74688e-08
-2.20699e-08
1.19041e-07
4.43498e-08
-2.57666e-08
1.62497e-07
5.36367e-08
-3.19296e-08
2.19966e-07
6.53449e-08
-4.0853e-08
2.96025e-07
7.91082e-08
-5.23908e-08
3.9173e-07
9.2413e-08
-6.40182e-08
4.97435e-07
1.0382e-07
-7.08214e-08
5.57483e-07
1.00851e-07
-5.62426e-08
5.99543e-07
1.42364e-07
-7.29684e-09
5.52133e-07
1.94686e-07
1.19143e-07
4.58991e-07
2.39739e-07
1.89507e-07
3.46335e-07
2.77779e-07
2.27321e-07
2.30948e-07
3.05229e-07
2.42162e-07
1.17192e-07
3.23634e-07
2.48021e-07
5.06279e-09
3.32811e-07
2.4994e-07
-1.07043e-07
3.33159e-07
2.49977e-07
-2.20725e-07
3.24675e-07
2.48136e-07
-3.35994e-07
3.0695e-07
2.42382e-07
-4.48502e-07
2.80152e-07
2.27691e-07
-5.41621e-07
2.4272e-07
1.90219e-07
-5.89266e-07
1.98129e-07
1.20311e-07
-5.48612e-07
1.46108e-07
-4.85289e-09
-4.8999e-07
1.04285e-07
-5.49717e-08
-3.84287e-07
1.08003e-07
-7.04942e-08
-2.87047e-07
9.72772e-08
-6.49143e-08
-2.08152e-07
8.47115e-08
-5.44633e-08
-1.46289e-07
7.18029e-08
-4.44065e-08
-9.63346e-08
6.12622e-08
-3.74653e-08
-5.35595e-08
5.36617e-08
-3.33204e-08
-1.83472e-08
4.88183e-08
-2.7426e-08
4.41352e-08
-1.1565e-08
1.18166e-08
2.23389e-08
-7.24475e-09
3.45127e-08
2.46801e-08
-1.75579e-08
6.1494e-08
2.69302e-08
-2.11418e-08
9.18766e-08
3.04396e-08
-2.33533e-08
1.28136e-07
3.54678e-08
-2.73775e-08
1.73806e-07
4.20665e-08
-3.40994e-08
2.32935e-07
5.00966e-08
-4.38814e-08
3.09517e-07
5.93389e-08
-5.68125e-08
4.0391e-07
6.84591e-08
-7.04389e-08
5.095e-07
7.81248e-08
-7.98944e-08
5.92726e-07
8.43696e-08
-6.67446e-08
6.46082e-07
1.09807e-07
-2.07997e-08
5.95248e-07
1.41727e-07
1.03794e-07
4.94886e-07
1.70707e-07
1.69394e-07
3.73254e-07
1.95921e-07
2.0349e-07
2.48869e-07
2.14688e-07
2.14926e-07
1.26246e-07
2.27503e-07
2.18755e-07
5.40548e-09
2.33998e-07
2.19653e-07
-1.15416e-07
2.3431e-07
2.1967e-07
-2.37982e-07
2.28432e-07
2.18808e-07
-3.6228e-07
2.16209e-07
2.1504e-07
-4.83822e-07
1.97985e-07
2.03709e-07
-5.84271e-07
1.73252e-07
1.69917e-07
-6.35538e-07
1.44637e-07
1.04759e-07
-5.83752e-07
1.1301e-07
-1.86882e-08
-5.01515e-07
8.76121e-08
-6.55642e-08
-3.95769e-07
8.18559e-08
-7.95994e-08
-2.99793e-07
7.2678e-08
-7.13772e-08
-2.20239e-07
6.41406e-08
-5.89828e-08
-1.56412e-07
5.56049e-08
-4.76286e-08
-1.03719e-07
4.8538e-08
-3.99685e-08
-5.79454e-08
4.32973e-08
-3.54097e-08
-1.99617e-08
3.98548e-08
-2.90202e-08
3.61984e-08
-1.20249e-08
1.25783e-08
1.71844e-08
-7.42384e-09
3.65748e-08
1.89222e-08
-1.82386e-08
6.50283e-08
2.04954e-08
-2.20186e-08
9.69207e-08
2.29091e-08
-2.43619e-08
1.34683e-07
2.63263e-08
-2.86206e-08
1.81734e-07
3.07531e-08
-3.57378e-08
2.41864e-07
3.60831e-08
-4.61166e-08
3.18902e-07
4.22559e-08
-5.99552e-08
4.13478e-07
4.86972e-08
-7.48137e-08
5.21161e-07
5.62672e-08
-8.58255e-08
6.15392e-07
6.36623e-08
-7.35242e-08
6.74934e-07
7.96842e-08
-2.94188e-08
6.23227e-07
9.94104e-08
9.40235e-08
5.19051e-07
1.17865e-07
1.57018e-07
3.91809e-07
1.34176e-07
1.88986e-07
2.61442e-07
1.46603e-07
1.98453e-07
1.32692e-07
1.55201e-07
2.01052e-07
5.71482e-09
1.5964e-07
2.01335e-07
-1.21253e-07
1.59937e-07
2.01341e-07
-2.49972e-07
1.56079e-07
2.01072e-07
-3.80299e-07
1.48026e-07
1.9851e-07
-5.07519e-07
1.36081e-07
1.89124e-07
-6.11875e-07
1.20173e-07
1.57435e-07
-6.6412e-07
1.02015e-07
9.48669e-08
-6.06218e-07
8.25133e-08
-2.74048e-08
-5.12775e-07
6.66009e-08
-7.24318e-08
-4.04837e-07
5.95078e-08
-8.55896e-08
-3.08592e-07
5.22575e-08
-7.58252e-08
-2.2844e-07
4.62223e-08
-6.22329e-08
-1.63361e-07
4.05613e-08
-5.00358e-08
-1.08879e-07
3.59339e-08
-4.18774e-08
-6.10414e-08
3.24865e-08
-3.70272e-08
-2.10944e-08
3.0183e-08
-3.02753e-08
2.75234e-08
-1.24194e-08
1.3092e-08
1.1669e-08
-7.57657e-09
3.79808e-08
1.2786e-08
-1.87526e-08
6.74278e-08
1.37197e-08
-2.26714e-08
1.00309e-07
1.51326e-08
-2.51043e-08
1.39026e-07
1.71295e-08
-2.95203e-08
1.86953e-07
1.9722e-08
-3.68963e-08
2.47812e-07
2.28788e-08
-4.76546e-08
3.25472e-07
2.66288e-08
-6.20327e-08
4.20937e-07
3.08136e-08
-7.75818e-08
5.30619e-07
3.59771e-08
-8.93919e-08
6.30182e-07
4.17538e-08
-7.76545e-08
6.93082e-07
5.12035e-08
-3.44191e-08
6.41004e-07
6.24867e-08
8.9001e-08
5.34633e-07
7.31563e-08
1.51081e-07
4.03991e-07
8.26161e-08
1.82202e-07
2.69828e-07
8.99616e-08
1.90805e-07
1.37067e-07
9.51057e-08
1.92856e-07
6.00663e-09
9.78414e-08
1.92859e-07
-1.25056e-07
9.81401e-08
1.9286e-07
-2.57824e-07
9.59859e-08
1.92861e-07
-3.92008e-07
9.13732e-08
1.90836e-07
-5.22709e-07
8.44809e-08
1.82302e-07
-6.29351e-07
7.53687e-08
1.51446e-07
-6.82046e-07
6.49311e-08
8.97782e-08
-6.20825e-07
5.37782e-08
-3.24852e-08
-5.21963e-07
4.43835e-08
-7.66449e-08
-4.11961e-07
3.87402e-08
-8.92342e-08
-3.14749e-07
3.3727e-08
-7.86814e-08
-2.33862e-07
2.97535e-08
-6.4419e-08
-1.67865e-07
2.62881e-08
-5.1723e-08
-1.12218e-07
2.35372e-08
-4.32505e-08
-6.30382e-08
2.15179e-08
-3.82112e-08
-2.18051e-08
2.01612e-08
-3.12113e-08
1.84699e-08
-1.27515e-08
1.33872e-08
5.97741e-09
-7.69566e-09
3.88017e-08
6.46654e-09
-1.90951e-08
6.88347e-08
6.78294e-09
-2.30962e-08
1.02301e-07
7.24689e-09
-2.55801e-08
1.41595e-07
7.91991e-09
-3.0085e-08
1.90088e-07
8.83549e-09
-3.76062e-08
2.515e-07
1.00419e-08
-4.85754e-08
3.29756e-07
1.16167e-08
-6.32433e-08
4.26067e-07
1.36536e-08
-7.91519e-08
5.37104e-07
1.62945e-08
-9.13541e-08
6.39149e-07
1.95873e-08
-7.9878e-08
7.03645e-07
2.35932e-08
-3.68864e-08
6.51367e-07
2.78927e-08
8.68721e-08
5.43773e-07
3.19247e-08
1.48825e-07
4.11223e-07
3.54286e-08
1.79738e-07
2.74873e-07
3.82477e-08
1.88064e-07
1.39768e-07
4.02833e-08
1.89927e-07
6.2992e-09
4.14805e-08
1.8983e-07
-1.27189e-07
4.17993e-08
1.89829e-07
-2.62349e-07
4.122e-08
1.89926e-07
-3.98796e-07
3.97376e-08
1.88083e-07
-5.31507e-07
3.73727e-08
1.79819e-07
-6.3948e-07
3.41809e-08
1.49161e-07
-6.9247e-07
3.03163e-08
8.76049e-08
-6.29699e-07
2.60303e-08
-3.50232e-08
-5.28325e-07
2.1959e-08
-7.895e-08
-4.16931e-07
1.86274e-08
-9.12814e-08
-3.18818e-07
1.59562e-08
-8.0342e-08
-2.37256e-07
1.39222e-08
-6.57304e-08
-1.70586e-07
1.23847e-08
-5.27665e-08
-1.14195e-07
1.12666e-08
-4.41205e-08
-6.42044e-08
1.05032e-08
-3.89762e-08
-2.22106e-08
9.9982e-09
-3.18309e-08
9.25805e-09
-1.29987e-08
1.34726e-08
2.85284e-10
-7.78046e-09
3.9061e-08
1.45138e-10
-1.9267e-08
6.92961e-08
-1.55655e-10
-2.32965e-08
1.02979e-07
-6.3981e-10
-2.57964e-08
1.4252e-07
-1.29141e-09
-3.03291e-08
1.91308e-07
-2.05693e-09
-3.78959e-08
2.53091e-07
-2.81013e-09
-4.89305e-08
3.31816e-07
-3.42239e-09
-6.36863e-08
4.28709e-07
-3.53819e-09
-7.97016e-08
5.40394e-07
-3.37354e-09
-9.20162e-08
6.43038e-07
-2.45207e-09
-8.06047e-08
7.07806e-07
-3.57947e-09
-3.75955e-08
6.55331e-07
-6.0924e-09
8.64594e-08
5.47234e-07
-8.55931e-09
1.48582e-07
4.14009e-07
-1.09207e-08
1.79574e-07
2.76887e-07
-1.25541e-08
1.87924e-07
1.4095e-07
-1.35717e-08
1.89792e-07
6.61007e-09
-1.38729e-08
1.89694e-07
-1.2777e-07
-1.35111e-08
1.8969e-07
-2.63824e-07
-1.25092e-08
1.89784e-07
-4.01144e-07
-1.08735e-08
1.87931e-07
-5.34661e-07
-8.74535e-09
1.79635e-07
-6.43281e-07
-6.08362e-09
1.48884e-07
-6.96599e-07
-3.50814e-09
8.71419e-08
-6.33626e-07
-1.127e-09
-3.58156e-08
-5.31654e-07
-2.41441e-10
-7.97716e-08
-4.19595e-07
-1.38893e-09
-9.20418e-08
-3.20873e-07
-1.77737e-09
-8.09885e-08
-2.38805e-07
-1.87682e-09
-6.62693e-08
-1.71714e-07
-1.48539e-09
-5.32208e-08
-1.14956e-07
-9.71575e-10
-4.45197e-08
-6.46278e-08
-4.82857e-10
-3.93423e-08
-2.23449e-08
-1.39663e-10
-3.2145e-08
7.42681e-11
-1.31611e-08
1.33512e-08
-5.23699e-09
-7.82892e-09
3.87615e-08
-5.99694e-09
-1.92683e-08
6.88129e-08
-6.93308e-09
-2.3274e-08
1.02343e-07
-8.41433e-09
-2.57559e-08
1.41795e-07
-1.0486e-08
-3.0257e-08
1.90606e-07
-1.3096e-08
-3.77719e-08
2.52576e-07
-1.60503e-08
-4.87304e-08
3.31662e-07
-1.91293e-08
-6.33783e-08
4.28917e-07
-2.15369e-08
-7.92565e-08
5.40626e-07
-2.36647e-08
-9.14176e-08
6.42082e-07
-2.4011e-08
-7.98973e-08
7.05749e-07
-3.0594e-08
-3.66529e-08
6.53031e-07
-4.09987e-08
8.76248e-08
5.45109e-07
-5.08183e-08
1.50181e-07
4.12423e-07
-5.97527e-08
1.81518e-07
2.75925e-07
-6.62333e-08
1.90177e-07
1.40651e-07
-7.05281e-08
1.9223e-07
6.96178e-09
-7.2405e-08
1.92222e-07
-1.26793e-07
-7.19689e-08
1.92213e-07
-2.62263e-07
-6.92448e-08
1.92206e-07
-3.99088e-07
-6.42045e-08
1.90155e-07
-5.32243e-07
-5.71261e-08
1.81536e-07
-6.40884e-07
-4.78637e-08
1.50421e-07
-6.94641e-07
-3.79745e-08
8.82229e-08
-6.32877e-07
-2.78957e-08
-3.49951e-08
-5.32108e-07
-2.18198e-08
-7.91903e-08
-4.20022e-07
-2.19058e-08
-9.15699e-08
-3.20934e-07
-2.02069e-08
-8.06579e-08
-2.38511e-07
-1.82393e-08
-6.60605e-08
-1.71251e-07
-1.56438e-08
-5.31022e-08
-1.14504e-07
-1.32593e-08
-4.4459e-08
-6.43122e-08
-1.13571e-08
-3.93175e-08
-2.2214e-08
-1.00794e-08
-3.21584e-08
-8.90531e-09
-1.32344e-08
1.30105e-08
-1.03989e-08
-7.84859e-09
3.78786e-08
-1.1761e-08
-1.91039e-08
6.73402e-08
-1.33646e-08
-2.30301e-08
1.00311e-07
-1.59276e-08
-2.54574e-08
1.39286e-07
-1.95986e-08
-2.98625e-08
1.87793e-07
-2.43844e-08
-3.72186e-08
2.49765e-07
-3.00781e-08
-4.79441e-08
3.29212e-07
-3.63216e-08
-6.22547e-08
4.26912e-07
-4.15419e-08
-7.76948e-08
5.38298e-07
-4.57097e-08
-8.93407e-08
6.36066e-07
-4.43209e-08
-7.74591e-08
6.96687e-07
-5.77178e-08
-3.34966e-08
6.43723e-07
-7.92556e-08
9.1221e-08
5.3684e-07
-9.88145e-08
1.54879e-07
4.06119e-07
-1.16142e-07
1.8711e-07
2.71801e-07
-1.28517e-07
1.96602e-07
1.38805e-07
-1.36686e-07
1.99154e-07
7.38474e-09
-1.40372e-07
1.99388e-07
-1.24132e-07
-1.39818e-07
1.99366e-07
-2.5742e-07
-1.35045e-07
1.99089e-07
-3.92227e-07
-1.25907e-07
1.9651e-07
-5.23656e-07
-1.12726e-07
1.87029e-07
-6.31537e-07
-9.49697e-08
1.54987e-07
-6.85844e-07
-7.53289e-08
9.16615e-08
-6.27296e-07
-5.44096e-08
-3.20338e-08
-5.3022e-07
-4.19625e-08
-7.69341e-08
-4.18445e-07
-4.40078e-08
-8.96723e-08
-3.18928e-07
-4.04778e-08
-7.92467e-08
-2.36186e-07
-3.59281e-08
-6.5053e-08
-1.69009e-07
-3.04322e-08
-5.23886e-08
-1.12704e-07
-2.56365e-08
-4.39281e-08
-6.31775e-08
-2.19857e-08
-3.88974e-08
-2.17789e-08
-1.96041e-08
-3.18739e-08
-1.74466e-08
-1.32377e-08
1.24254e-08
-1.49787e-08
-7.84573e-09
3.63478e-08
-1.69031e-08
-1.87803e-08
6.47426e-08
-1.91868e-08
-2.25726e-08
9.66267e-08
-2.29046e-08
-2.49072e-08
1.34559e-07
-2.83854e-08
-2.91454e-08
1.82222e-07
-3.58301e-08
-3.62178e-08
2.43883e-07
-4.52266e-08
-4.65121e-08
3.23875e-07
-5.61603e-08
-6.01528e-08
4.22939e-07
-6.59383e-08
-7.46676e-08
5.34537e-07
-7.2204e-08
-8.5104e-08
6.23895e-07
-6.10293e-08
-7.26498e-08
6.7807e-07
-8.45991e-08
-2.72937e-08
6.24919e-07
-1.24749e-07
9.86442e-08
5.20483e-07
-1.59211e-07
1.64832e-07
3.93839e-07
-1.88545e-07
1.99048e-07
2.63805e-07
-2.08828e-07
2.10344e-07
1.35115e-07
-2.2198e-07
2.13984e-07
7.92224e-09
-2.27917e-07
2.14738e-07
-1.194e-07
-2.27182e-07
2.14685e-07
-2.48493e-07
-2.1978e-07
2.13828e-07
-3.79212e-07
-2.05287e-07
2.10098e-07
-5.06888e-07
-1.83804e-07
1.98754e-07
-6.12726e-07
-1.53804e-07
1.64673e-07
-6.67729e-07
-1.19121e-07
9.87943e-08
-6.15904e-07
-8.00823e-08
-2.61515e-08
-5.27146e-07
-5.83174e-08
-7.24032e-08
-4.15114e-07
-7.03202e-08
-8.57198e-08
-3.14262e-07
-6.48817e-08
-7.64482e-08
-2.31054e-07
-5.60229e-08
-6.3113e-08
-1.64336e-07
-4.61123e-08
-5.10378e-08
-1.09115e-07
-3.79407e-08
-4.29169e-08
-6.09729e-08
-3.20442e-08
-3.80837e-08
-2.09343e-08
-2.83433e-08
-3.12994e-08
-2.51886e-08
-1.31922e-08
1.16039e-08
-1.87615e-08
-7.82106e-09
3.41776e-08
-2.11732e-08
-1.83037e-08
6.10026e-08
-2.41069e-08
-2.19049e-08
9.11861e-08
-2.89866e-08
-2.41015e-08
1.27313e-07
-3.6423e-08
-2.80896e-08
1.73238e-07
-4.70222e-08
-3.47322e-08
2.33782e-07
-6.14052e-08
-4.43658e-08
3.14054e-07
-7.95174e-08
-5.69155e-08
4.15929e-07
-9.79843e-08
-6.98287e-08
5.31096e-07
-1.09228e-07
-7.81426e-08
6.02291e-07
-6.80169e-08
-6.42078e-08
6.43432e-07
-1.09162e-07
-1.65783e-08
5.92046e-07
-1.83866e-07
1.10504e-07
4.9328e-07
-2.41264e-07
1.80819e-07
3.73962e-07
-2.87493e-07
2.18265e-07
2.51074e-07
-3.18509e-07
2.3257e-07
1.29236e-07
-3.38086e-07
2.37944e-07
8.63591e-09
-3.46852e-07
2.39535e-07
-1.12122e-07
-3.45853e-07
2.39429e-07
-2.3447e-07
-3.35057e-07
2.37626e-07
-3.58262e-07
-3.13547e-07
2.32052e-07
-4.79037e-07
-2.80632e-07
2.17602e-07
-5.79796e-07
-2.3326e-07
1.80215e-07
-6.33935e-07
-1.75201e-07
1.1022e-07
-5.95654e-07
-1.02484e-07
-1.58796e-08
-5.24648e-07
-6.49869e-08
-6.43367e-08
-4.08949e-07
-1.06803e-07
-7.92162e-08
-3.05355e-07
-9.65124e-08
-7.19631e-08
-2.21978e-07
-7.92873e-08
-6.01131e-08
-1.56572e-07
-6.25235e-08
-4.89944e-08
-1.03417e-07
-4.97061e-08
-4.139e-08
-5.7566e-08
-4.10417e-08
-3.68535e-08
-1.96473e-08
-3.58375e-08
-3.04245e-08
-3.17396e-08
-1.30963e-08
1.05007e-08
-2.14702e-08
-7.79204e-09
3.12621e-08
-2.42329e-08
-1.77017e-08
5.58588e-08
-2.76363e-08
-2.10673e-08
8.33709e-08
-3.34051e-08
-2.30936e-08
1.16205e-07
-4.24927e-08
-2.6764e-08
1.58187e-07
-5.61598e-08
-3.28451e-08
2.14816e-07
-7.64464e-08
-4.15874e-08
2.92979e-07
-1.05255e-07
-5.24255e-08
3.9903e-07
-1.41571e-07
-6.24645e-08
5.28065e-07
-1.73193e-07
-6.50699e-08
5.6004e-07
-5.52998e-08
-4.46918e-08
5.7824e-07