/*--------------------------------*- C++ -*----------------------------------*\
| =========                 |                                                 |
| \\      /  F ield         | OpenFOAM: The Open Source CFD Toolbox           |
|  \\    /   O peration     | Version:  2112                                  |
|   \\  /    A nd           | Website:  www.openfoam.com                      |
|    \\/     M anipulation  |                                                 |
\*---------------------------------------------------------------------------*/
FoamFile
{
    version     2.0;
    format      ascii;
    arch        "LSB;label=32;scalar=64";
    class       volVectorField;
    location    "0.9";
    object      U;
}
// * * * * * * * * * * * * * * * * * * * * * * * * * * * * * * * * * * * * * //

dimensions      [0 1 -1 0 0 0 0];

internalField   nonuniform List<vector> 
64906
(
(7.27887e-07 2.12543e-06 -3.00983e-06)
(3.17005e-06 1.6584e-06 -3.12856e-06)
(6.13784e-06 1.35238e-06 -2.98017e-06)
(9.09726e-06 1.2872e-06 -2.92207e-06)
(1.19604e-05 1.41098e-06 -2.99544e-06)
(1.46881e-05 1.65845e-06 -3.16771e-06)
(1.72703e-05 2.00204e-06 -3.4135e-06)
(1.96475e-05 2.45278e-06 -3.71436e-06)
(2.17497e-05 3.01106e-06 -4.06498e-06)
(2.33654e-05 3.73924e-06 -4.43935e-06)
(2.43289e-05 4.57006e-06 -4.8427e-06)
(2.42867e-05 5.61119e-06 -5.23156e-06)
(2.3075e-05 6.56974e-06 -5.61187e-06)
(2.0824e-05 7.48144e-06 -5.94102e-06)
(1.76144e-05 8.22855e-06 -6.22628e-06)
(1.36653e-05 8.82325e-06 -6.44702e-06)
(9.15623e-06 9.22548e-06 -6.60393e-06)
(4.32216e-06 9.43376e-06 -6.68974e-06)
(-6.15586e-07 9.43879e-06 -6.70395e-06)
(-5.4181e-06 9.24074e-06 -6.64639e-06)
(-9.86326e-06 8.84921e-06 -6.51793e-06)
(-1.37173e-05 8.26597e-06 -6.32611e-06)
(-1.68025e-05 7.53234e-06 -6.07024e-06)
(-1.89016e-05 6.63631e-06 -5.7716e-06)
(-1.994e-05 5.69881e-06 -5.42289e-06)
(-1.97907e-05 4.6824e-06 -5.06858e-06)
(-1.86258e-05 3.88686e-06 -4.70349e-06)
(-1.68025e-05 3.19988e-06 -4.37578e-06)
(-1.448e-05 2.69982e-06 -4.08652e-06)
(-1.1867e-05 2.34188e-06 -3.87835e-06)
(-9.02636e-06 2.17308e-06 -3.78904e-06)
(-6.05132e-06 2.26093e-06 -3.87763e-06)
(-3.07158e-06 2.65213e-06 -4.10228e-06)
(-5.51036e-07 3.24497e-06 -4.01454e-06)
(-7.35908e-09 7.16719e-06 -3.44206e-06)
(2.2647e-06 6.94378e-06 -5.88446e-06)
(6.13245e-06 6.80105e-06 -6.3946e-06)
(9.65892e-06 7.06858e-06 -6.5714e-06)
(1.29102e-05 7.75569e-06 -6.90775e-06)
(1.59346e-05 8.79219e-06 -7.44145e-06)
(1.87956e-05 1.01522e-05 -8.15229e-06)
(2.14527e-05 1.18829e-05 -9.02577e-06)
(2.388e-05 1.40128e-05 -1.00572e-05)
(2.57954e-05 1.6714e-05 -1.12306e-05)
(2.7063e-05 1.98254e-05 -1.25263e-05)
(2.71204e-05 2.36063e-05 -1.38851e-05)
(2.57421e-05 2.71196e-05 -1.52039e-05)
(2.32099e-05 3.03984e-05 -1.6397e-05)
(1.95831e-05 3.30983e-05 -1.74145e-05)
(1.51596e-05 3.52342e-05 -1.82146e-05)
(1.0111e-05 3.66878e-05 -1.8773e-05)
(4.71251e-06 3.74448e-05 -1.90725e-05)
(-8.02976e-07 3.74772e-05 -1.9105e-05)
(-6.16644e-06 3.67853e-05 -1.88706e-05)
(-1.11448e-05 3.53987e-05 -1.83779e-05)
(-1.54628e-05 3.33327e-05 -1.76447e-05)
(-1.89517e-05 3.07094e-05 -1.66959e-05)
(-2.13134e-05 2.75155e-05 -1.55746e-05)
(-2.24977e-05 2.41052e-05 -1.43316e-05)
(-2.22231e-05 2.04418e-05 -1.3056e-05)
(-2.07276e-05 1.74826e-05 -1.18533e-05)
(-1.85746e-05 1.49526e-05 -1.07893e-05)
(-1.58764e-05 1.30383e-05 -9.89403e-06)
(-1.28833e-05 1.15985e-05 -9.20771e-06)
(-9.54813e-06 1.06808e-05 -8.7643e-06)
(-5.86265e-06 1.0334e-05 -8.52059e-06)
(-1.70333e-06 1.04911e-05 -7.84454e-06)
(5.20948e-07 1.07228e-05 -4.68942e-06)
(-3.59998e-07 1.3952e-05 -3.40606e-06)
(1.94809e-06 1.49595e-05 -6.41442e-06)
(6.50971e-06 1.56008e-05 -7.13114e-06)
(1.05989e-05 1.67089e-05 -7.3705e-06)
(1.43583e-05 1.84456e-05 -7.77611e-06)
(1.7857e-05 2.08077e-05 -8.41993e-06)
(2.12275e-05 2.3817e-05 -9.28971e-06)
(2.44558e-05 2.75992e-05 -1.03766e-05)
(2.75986e-05 3.22441e-05 -1.16847e-05)
(3.02376e-05 3.81456e-05 -1.32028e-05)
(3.22911e-05 4.50093e-05 -1.49146e-05)
(3.26328e-05 5.34746e-05 -1.67262e-05)
(3.08772e-05 6.12575e-05 -1.84932e-05)
(2.77326e-05 6.84598e-05 -2.00835e-05)
(2.32495e-05 7.43611e-05 -2.14345e-05)
(1.78878e-05 7.90248e-05 -2.24884e-05)
(1.17989e-05 8.22014e-05 -2.32203e-05)
(5.32522e-06 8.38601e-05 -2.36093e-05)
(-1.28675e-06 8.39405e-05 -2.36459e-05)
(-7.7233e-06 8.24431e-05 -2.33302e-05)
(-1.37375e-05 7.94309e-05 -2.26721e-05)
(-1.89852e-05 7.49366e-05 -2.16932e-05)
(-2.33174e-05 6.92172e-05 -2.0419e-05)
(-2.62703e-05 6.22127e-05 -1.89088e-05)
(-2.78058e-05 5.46641e-05 -1.72265e-05)
(-2.72091e-05 4.64622e-05 -1.55084e-05)
(-2.48882e-05 3.99365e-05 -1.39013e-05)
(-2.19695e-05 3.44015e-05 -1.25083e-05)
(-1.84851e-05 3.01925e-05 -1.1358e-05)
(-1.48014e-05 2.69412e-05 -1.04908e-05)
(-1.07498e-05 2.46235e-05 -9.92809e-06)
(-6.31432e-06 2.31607e-05 -9.57866e-06)
(-1.2142e-06 2.22893e-05 -8.61204e-06)
(1.04198e-06 2.08424e-05 -4.72036e-06)
(-3.71466e-07 2.05961e-05 -3.35425e-06)
(2.2898e-06 2.25221e-05 -6.49227e-06)
(7.61443e-06 2.38328e-05 -7.22815e-06)
(1.24561e-05 2.57921e-05 -7.45372e-06)
(1.69684e-05 2.86228e-05 -7.87907e-06)
(2.12386e-05 3.23629e-05 -8.58761e-06)
(2.54873e-05 3.70807e-05 -9.57188e-06)
(2.97422e-05 4.30072e-05 -1.08342e-05)
(3.42421e-05 5.03431e-05 -1.23941e-05)
(3.83243e-05 5.99098e-05 -1.42525e-05)
(4.20969e-05 7.13014e-05 -1.64041e-05)
(4.30474e-05 8.61775e-05 -1.87179e-05)
(4.04285e-05 9.93964e-05 -2.09804e-05)
(3.60539e-05 0.000111459 -2.29956e-05)
(2.99401e-05 0.000121168 -2.46974e-05)
(2.28494e-05 0.000128828 -2.60032e-05)
(1.48572e-05 0.000134023 -2.69046e-05)
(6.42646e-06 0.000136734 -2.73786e-05)
(-2.18061e-06 0.000136863 -2.7416e-05)
(-1.05722e-05 0.000134409 -2.70169e-05)
(-1.84851e-05 0.000129474 -2.61906e-05)
(-2.54514e-05 0.000122078 -2.49607e-05)
(-3.13973e-05 0.000112649 -2.33357e-05)
(-3.55479e-05 0.000100885 -2.14003e-05)
(-3.79061e-05 8.80208e-05 -1.92207e-05)
(-3.66347e-05 7.35393e-05 -1.69996e-05)
(-3.25318e-05 6.26789e-05 -1.49515e-05)
(-2.81162e-05 5.36618e-05 -1.32215e-05)
(-2.31863e-05 4.69624e-05 -1.18275e-05)
(-1.83444e-05 4.17779e-05 -1.0806e-05)
(-1.32122e-05 3.79803e-05 -1.01701e-05)
(-7.76091e-06 3.53777e-05 -9.81132e-06)
(-1.63769e-06 3.36298e-05 -8.80732e-06)
(1.08558e-06 3.08818e-05 -4.7278e-06)
(-1.59729e-07 2.69998e-05 -3.36682e-06)
(3.11657e-06 2.96612e-05 -6.7199e-06)
(9.45956e-06 3.15979e-05 -7.49307e-06)
(1.53238e-05 3.44342e-05 -7.72658e-06)
(2.08769e-05 3.84377e-05 -8.2123e-06)
(2.6244e-05 4.36625e-05 -9.04844e-06)
(3.1779e-05 5.0209e-05 -1.02388e-05)
(3.76003e-05 5.84208e-05 -1.18128e-05)
(4.435e-05 6.86765e-05 -1.38181e-05)
(5.10005e-05 8.25776e-05 -1.6289e-05)
(5.83114e-05 9.98336e-05 -1.92373e-05)
(6.04677e-05 0.000124751 -2.25088e-05)
(5.5929e-05 0.000145628 -2.56934e-05)
(4.93106e-05 0.000164243 -2.8506e-05)
(4.04641e-05 0.000178855 -3.08732e-05)
(3.06289e-05 0.000190388 -3.26383e-05)
(1.9635e-05 0.000198171 -3.38517e-05)
(8.14079e-06 0.000202229 -3.44824e-05)
(-3.5901e-06 0.000202408 -3.45225e-05)
(-1.50442e-05 0.000198709 -3.3972e-05)
(-2.59562e-05 0.000191285 -3.28382e-05)
(-3.56576e-05 0.000180108 -3.1153e-05)
(-4.43186e-05 0.000165866 -2.8865e-05)
(-5.067e-05 0.000147632 -2.61334e-05)
(-5.48934e-05 0.000127213 -2.30306e-05)
(-5.23071e-05 0.000102796 -1.98515e-05)
(-4.45747e-05 8.62984e-05 -1.70066e-05)
(-3.75409e-05 7.31207e-05 -1.46703e-05)
(-3.02607e-05 6.36862e-05 -1.28426e-05)
(-2.37028e-05 5.64085e-05 -1.15371e-05)
(-1.70491e-05 5.10135e-05 -1.07478e-05)
(-1.01965e-05 4.72178e-05 -1.03371e-05)
(-2.71599e-06 4.46245e-05 -9.26505e-06)
(8.14065e-07 4.08085e-05 -4.82408e-06)
(1.87028e-07 3.29995e-05 -3.43973e-06)
(4.33799e-06 3.62967e-05 -7.12381e-06)
(1.20421e-05 3.88593e-05 -7.98306e-06)
(1.92594e-05 4.26362e-05 -8.2588e-06)
(2.6182e-05 4.794e-05 -8.85372e-06)
(3.29859e-05 5.48163e-05 -9.89279e-06)
(4.02115e-05 6.33696e-05 -1.14027e-05)
(4.81598e-05 7.40078e-05 -1.34667e-05)
(5.83082e-05 8.73487e-05 -1.61731e-05)
(6.92905e-05 0.000106312 -1.96227e-05)
(8.39353e-05 0.000131284 -2.37443e-05)
(8.85219e-05 0.000173764 -2.86089e-05)
(7.97171e-05 0.000206065 -3.33474e-05)
(6.91585e-05 0.000233711 -3.75462e-05)
(5.60063e-05 0.000254754 -4.10868e-05)
(4.21107e-05 0.000271429 -4.35933e-05)
(2.66645e-05 0.000282636 -4.53139e-05)
(1.06526e-05 0.000288478 -4.61986e-05)
(-5.69045e-06 0.000288717 -4.62445e-05)
(-2.16643e-05 0.00028335 -4.54515e-05)
(-3.70328e-05 0.000272612 -4.38211e-05)
(-5.07935e-05 0.000256389 -4.14039e-05)
(-6.37527e-05 0.000235796 -3.79488e-05)
(-7.39982e-05 0.000208589 -3.38352e-05)
(-8.24267e-05 0.00017682 -2.91778e-05)
(-7.72219e-05 0.000134886 -2.44032e-05)
(-6.20225e-05 0.000111001 -2.03845e-05)
(-5.06437e-05 9.29255e-05 -1.70792e-05)
(-3.98567e-05 8.05638e-05 -1.45665e-05)
(-3.09944e-05 7.1021e-05 -1.2806e-05)
(-2.23481e-05 6.38429e-05 -1.17602e-05)
(-1.36489e-05 5.87217e-05 -1.12306e-05)
(-4.32637e-06 5.52255e-05 -1.00065e-05)
(3.68496e-07 5.04642e-05 -5.02094e-06)
(6.53452e-07 3.8472e-05 -3.54629e-06)
(5.95144e-06 4.23808e-05 -7.66281e-06)
(1.54215e-05 4.56303e-05 -8.65263e-06)
(2.4386e-05 5.04913e-05 -8.99906e-06)
(3.30623e-05 5.73349e-05 -9.74724e-06)
(4.16719e-05 6.61754e-05 -1.10641e-05)
(5.09624e-05 7.70545e-05 -1.3015e-05)
(6.15411e-05 9.01727e-05 -1.57836e-05)
(7.64618e-05 0.000106243 -1.95207e-05)
(9.42457e-05 0.000129427 -2.43663e-05)
(0.000124242 0.000163368 -2.9957e-05)
(0.000133897 0.000238242 -3.72363e-05)
(0.000115199 0.000287529 -4.42316e-05)
(9.77332e-05 0.000327545 -5.06328e-05)
(7.80747e-05 0.000357303 -5.61105e-05)
(5.84505e-05 0.000381155 -5.96295e-05)
(3.66501e-05 0.000397189 -6.20736e-05)
(1.42108e-05 0.000405544 -6.33199e-05)
(-8.70859e-06 0.00040586 -6.33759e-05)
(-3.11178e-05 0.000398128 -6.22411e-05)
(-5.28583e-05 0.000382702 -5.99053e-05)
(-7.23668e-05 0.000359416 -5.64923e-05)
(-9.18542e-05 0.000330187 -5.11108e-05)
(-0.000108973 0.000290625 -4.48016e-05)
(-0.000127257 0.000241866 -3.78856e-05)
(-0.000116631 0.00016744 -3.06865e-05)
(-8.58699e-05 0.000135176 -2.5198e-05)
(-6.7801e-05 0.000113006 -2.05051e-05)
(-5.2138e-05 9.80196e-05 -1.69797e-05)
(-4.04314e-05 8.61044e-05 -1.4556e-05)
(-2.93213e-05 7.67945e-05 -1.31434e-05)
(-1.82619e-05 7.00435e-05 -1.24305e-05)
(-6.5057e-06 6.54568e-05 -1.09746e-05)
(-2.42183e-07 5.97115e-05 -5.28271e-06)
(1.2577e-06 4.32164e-05 -3.66556e-06)
(8.02186e-06 4.7705e-05 -8.30768e-06)
(1.97451e-05 5.17052e-05 -9.46575e-06)
(3.09591e-05 5.78055e-05 -9.90482e-06)
(4.18841e-05 6.64732e-05 -1.08474e-05)
(5.27205e-05 7.77011e-05 -1.25215e-05)
(6.42282e-05 9.14107e-05 -1.50565e-05)
(7.7294e-05 0.000107131 -1.88276e-05)
(9.68964e-05 0.000124911 -2.40163e-05)
(0.000123324 0.000150386 -3.10574e-05)
(0.000185002 0.000190119 -3.61638e-05)
(0.000205992 0.000329695 -4.56166e-05)
(0.000166032 0.000402324 -5.61036e-05)
(0.000137982 0.000456873 -6.61195e-05)
(0.000109339 0.00049734 -7.47175e-05)
(8.18698e-05 0.000530131 -7.93521e-05)
(5.09901e-05 0.000552373 -8.26355e-05)
(1.93033e-05 0.000563978 -8.43046e-05)
(-1.30899e-05 0.000564398 -8.43746e-05)
(-4.4762e-05 0.000553621 -8.28451e-05)
(-7.56206e-05 0.000532177 -7.96954e-05)
(-0.000103033 0.000500109 -7.51918e-05)
(-0.000131596 0.000460262 -6.6706e-05)
(-0.000159346 0.000406121 -5.6794e-05)
(-0.000198973 0.000333918 -4.6399e-05)
(-0.000176295 0.000194332 -3.69807e-05)
(-0.000113488 0.000157542 -3.19664e-05)
(-8.71944e-05 0.000133075 -2.50903e-05)
(-6.67326e-05 0.000116343 -2.01378e-05)
(-5.22665e-05 0.000101812 -1.6761e-05)
(-3.8413e-05 8.97809e-05 -1.48532e-05)
(-2.43888e-05 8.09412e-05 -1.38934e-05)
(-9.44909e-06 7.50039e-05 -1.21307e-05)
(-1.08886e-06 6.82358e-05 -5.56584e-06)
(2.00483e-06 4.70024e-05 -3.79003e-06)
(1.05816e-05 5.20476e-05 -9.04535e-06)
(2.5099e-05 5.68998e-05 -1.04079e-05)
(3.91671e-05 6.45031e-05 -1.096e-05)
(5.29957e-05 7.55606e-05 -1.21353e-05)
(6.66764e-05 9.02259e-05 -1.42342e-05)
(8.05676e-05 0.000108462 -1.74767e-05)
(9.5232e-05 0.000128041 -2.2496e-05)
(0.000118111 0.000147251 -2.99172e-05)
(0.000147585 0.000160949 -3.84341e-05)
(0.000268895 0.000167577 -4.6557e-05)
(0.000316156 0.000437717 -4.94567e-05)
(0.000230562 0.000542197 -6.21553e-05)
(0.000189819 0.000614851 -7.71022e-05)
(0.000150869 0.000671068 -8.95961e-05)
(0.000113385 0.000716873 -9.49139e-05)
(7.04866e-05 0.000748227 -9.89806e-05)
(2.62382e-05 0.000764449 -0.000101025)
(-1.90709e-05 0.000765006 -0.000101108)
(-6.33295e-05 0.000749884 -9.92298e-05)
(-0.000106272 0.0007196 -9.53188e-05)
(-0.000143818 0.000674763 -9.01557e-05)
(-0.000182911 0.000619335 -7.77854e-05)
(-0.000223532 0.00054707 -6.2963e-05)
(-0.000309305 0.000442611 -5.03578e-05)
(-0.000258939 0.000170641 -4.76382e-05)
(-0.000135843 0.000169627 -3.94552e-05)
(-0.000107643 0.000156867 -3.10805e-05)
(-8.36777e-05 0.000138535 -2.39324e-05)
(-6.72224e-05 0.000120018 -1.93661e-05)
(-5.0277e-05 0.000103487 -1.68592e-05)
(-3.2434e-05 9.14645e-05 -1.56089e-05)
(-1.33452e-05 8.36178e-05 -1.34678e-05)
(-2.21285e-06 7.56691e-05 -5.86289e-06)
(2.94188e-06 4.94725e-05 -3.89903e-06)
(1.37593e-05 5.49408e-05 -9.85725e-06)
(3.17822e-05 6.05594e-05 -1.14557e-05)
(4.96613e-05 6.9606e-05 -1.2134e-05)
(6.7694e-05 8.31398e-05 -1.35679e-05)
(8.58853e-05 0.000101805 -1.61268e-05)
(0.000103 0.000126005 -2.00535e-05)
(0.000118612 0.000152383 -2.66411e-05)
(0.000130931 0.000170967 -3.5112e-05)
(0.000109052 0.000130316 -4.95448e-05)
(0.0003265 0.000167971 -5.99079e-05)
(0.00045518 0.00065453 -3.87344e-05)
(0.000303064 0.000739188 -5.10264e-05)
(0.00026006 0.000804595 -6.80723e-05)
(0.000211819 0.00087385 -8.19575e-05)
(0.000159898 0.00092992 -8.55396e-05)
(9.92218e-05 0.000970378 -8.89973e-05)
(3.63224e-05 0.000991238 -9.07701e-05)
(-2.78763e-05 0.000991964 -9.08502e-05)
(-9.08029e-05 0.000972548 -8.92385e-05)
(-0.000151585 0.000933507 -8.59226e-05)
(-0.000203721 0.000878755 -8.24976e-05)
(-0.000252436 0.000810581 -6.87219e-05)
(-0.000295934 0.000745493 -5.17914e-05)
(-0.000450665 0.000658915 -3.97846e-05)
(-0.000316469 0.000170846 -6.13802e-05)
(-9.54452e-05 0.000144003 -5.03994e-05)
(-0.000120341 0.000183648 -3.62926e-05)
(-0.000106362 0.000164475 -2.82136e-05)
(-8.83749e-05 0.000138569 -2.21523e-05)
(-6.72991e-05 0.000115906 -1.90942e-05)
(-4.3721e-05 0.000100017 -1.755e-05)
(-1.88257e-05 9.00957e-05 -1.49654e-05)
(-3.84572e-06 8.11104e-05 -6.10301e-06)
(3.98213e-06 5.03657e-05 -4.01176e-06)
(1.73309e-05 5.61251e-05 -1.07378e-05)
(3.93695e-05 6.24368e-05 -1.2611e-05)
(6.18286e-05 7.29817e-05 -1.34515e-05)
(8.53913e-05 8.95992e-05 -1.5206e-05)
(0.000110351 0.000114661 -1.82124e-05)
(0.000134714 0.000152281 -2.26111e-05)
(0.000153559 0.00020637 -2.81001e-05)
(0.000133928 0.000277129 -3.95957e-05)
(0.000136064 0.000317029 -5.52141e-05)
(0.000220122 0.000591228 4.08737e-05)
(0.000271578 0.000774773 1.58894e-05)
(0.000316356 0.000901289 9.65655e-06)
(0.00028193 0.00101333 1.25422e-05)
(0.000214789 0.00109356 1.12656e-05)
(0.000134837 0.00114768 1.02601e-05)
(4.88712e-05 0.00117442 9.87068e-06)
(-3.87172e-05 0.00117525 9.86885e-06)
(-0.000124727 0.0011502 1.02531e-05)
(-0.000204835 0.00109782 1.12618e-05)
(-0.000272323 0.00101942 1.25334e-05)
(-0.000307706 0.000909359 9.68862e-06)
(-0.000265229 0.000784741 1.57102e-05)
(-0.000215929 0.000601741 4.01297e-05)
(-0.000132438 0.000327873 -5.45819e-05)
(-0.000127857 0.000289122 -4.05436e-05)
(-0.000142695 0.000218328 -2.9781e-05)
(-0.000119545 0.000164894 -2.49308e-05)
(-8.97821e-05 0.000128903 -2.15701e-05)
(-5.78917e-05 0.000106767 -1.9788e-05)
(-2.55194e-05 9.40768e-05 -1.66729e-05)
(-5.7721e-06 8.39818e-05 -6.37935e-06)
(5.19328e-06 4.93171e-05 -4.1004e-06)
(2.14506e-05 5.50068e-05 -1.16397e-05)
(4.82852e-05 6.13501e-05 -1.37918e-05)
(7.69491e-05 7.20242e-05 -1.47891e-05)
(0.00010971 8.89762e-05 -1.68691e-05)
(0.000150209 0.000114891 -2.03975e-05)
(0.000202947 0.000154725 -2.54594e-05)
(0.000279686 0.00021475 -3.097e-05)
(0.00038049 0.00030215 -3.50508e-05)
(0.00058749 0.000400587 -2.88203e-05)
(0.000605349 0.000129879 2.74978e-05)
(0.000497311 0.000296155 2.69135e-05)
(0.000565638 0.000590682 9.79695e-05)
(0.000511695 0.000769747 0.000150169)
(0.000418251 0.000901865 0.000181978)
(0.000303143 0.000991161 0.000194663)
(0.000185167 0.00104777 0.000200828)
(6.55926e-05 0.00107507 0.000203353)
(-5.36303e-05 0.00107585 0.000203412)
(-0.000173164 0.00105012 0.000201008)
(-0.000291083 0.00099517 0.000194982)
(-0.000406049 0.000907697 0.000182458)
(-0.000499356 0.00077772 0.000150963)
(-0.00055291 0.000601144 9.90692e-05)
(-0.000482732 0.000308973 2.87185e-05)
(-0.000595108 0.000133258 2.88412e-05)
(-0.000582032 0.000405874 -2.85712e-05)
(-0.000371605 0.000311154 -3.58965e-05)
(-0.000267472 0.00022528 -3.25368e-05)
(-0.000186285 0.000166585 -2.79314e-05)
(-0.000127317 0.000128645 -2.41751e-05)
(-7.84928e-05 0.000105759 -2.21521e-05)
(-3.48153e-05 9.27958e-05 -1.84975e-05)
(-8.51883e-06 8.2708e-05 -6.57109e-06)
(6.24934e-06 4.62931e-05 -4.20224e-06)
(2.50853e-05 5.15317e-05 -1.25124e-05)
(5.60548e-05 5.71875e-05 -1.49544e-05)
(8.95814e-05 6.64776e-05 -1.61499e-05)
(0.000128563 8.06586e-05 -1.86271e-05)
(0.000177518 0.000100966 -2.28559e-05)
(0.00024164 0.000128903 -2.89443e-05)
(0.00033265 0.000164498 -3.64065e-05)
(0.00045021 0.000201492 -4.27706e-05)
(0.000633503 0.000221801 -4.3526e-05)
(0.000716418 0.000129589 -2.53317e-05)
(0.00073579 0.000279617 -1.04172e-08)
(0.000744977 0.000441141 0.000107798)
(0.000639584 0.000560253 0.000166266)
(0.000513033 0.000655007 0.000199243)
(0.000367005 0.000721106 0.000214164)
(0.000222203 0.00076395 0.000221004)
(7.80655e-05 0.000784922 0.00022362)
(-6.46945e-05 0.000785561 0.000223671)
(-0.000208766 0.000765873 0.000221158)
(-0.000353457 0.00072434 0.000214441)
(-0.000499251 0.00065958 0.000199671)
(-0.000625637 0.000566189 0.000167003)
(-0.000730722 0.000448172 0.000108879)
(-0.000721491 0.000287063 2.06127e-06)
(-0.000705154 0.000133503 -2.4196e-05)
(-0.000624747 0.000228704 -4.33891e-05)
(-0.000439979 0.000209963 -4.35465e-05)
(-0.000319274 0.000174203 -3.79997e-05)
(-0.000223448 0.000139952 -3.15891e-05)
(-0.000152285 0.000113906 -2.70136e-05)
(-9.36982e-05 9.65026e-05 -2.45194e-05)
(-4.18997e-05 8.60288e-05 -2.0256e-05)
(-1.05505e-05 7.71478e-05 -6.8385e-06)
(7.19602e-06 4.16151e-05 -4.28691e-06)
(2.83101e-05 4.62249e-05 -1.32895e-05)
(6.28965e-05 5.10032e-05 -1.59788e-05)
(0.000100511 5.86926e-05 -1.73237e-05)
(0.000144375 7.01116e-05 -2.00999e-05)
(0.000199167 8.58243e-05 -2.48633e-05)
(0.000269801 0.000106157 -3.17807e-05)
(0.000366039 0.000130573 -4.08603e-05)
(0.000485846 0.000154493 -5.00628e-05)
(0.000646518 0.000173195 -5.6758e-05)
(0.000762371 0.000154086 -4.58767e-05)
(0.000849898 0.000231261 -1.15272e-05)
(0.000855291 0.000325936 9.78032e-05)
(0.000731068 0.00040651 0.000152412)
(0.000582794 0.000473439 0.000182968)
(0.000414433 0.000520881 0.000194528)
(0.000250208 0.000552358 0.000199373)
(8.75816e-05 0.000567932 0.000201)
(-7.30285e-05 0.000568472 0.000201031)
(-0.00023558 0.000553974 0.000199467)
(-0.000399682 0.000523571 0.000194704)
(-0.000567804 0.000477182 0.000183253)
(-0.000716002 0.000411267 0.00015297)
(-0.000840097 0.000331479 9.86749e-05)
(-0.000835898 0.000237333 -9.67901e-06)
(-0.00075099 0.000159066 -4.49272e-05)
(-0.000636281 0.000179515 -5.65139e-05)
(-0.000474397 0.000161938 -5.07846e-05)
(-0.000351384 0.000139184 -4.24836e-05)
(-0.000250029 0.000116075 -3.45804e-05)
(-0.00017165 9.7533e-05 -2.93427e-05)
(-0.000106106 8.44476e-05 -2.65e-05)
(-4.78067e-05 7.62563e-05 -2.17486e-05)
(-1.22957e-05 6.86873e-05 -7.0341e-06)
(7.92578e-06 3.55555e-05 -4.37874e-06)
(3.08237e-05 3.93651e-05 -1.39595e-05)
(6.81965e-05 4.30994e-05 -1.68575e-05)
(0.000108748 4.89668e-05 -1.83295e-05)
(0.000155782 5.74372e-05 -2.1354e-05)
(0.000213833 6.86554e-05 -2.65515e-05)
(0.000287525 8.24453e-05 -3.41264e-05)
(0.000385247 9.83589e-05 -4.42928e-05)
(0.000505595 0.000113766 -5.5076e-05)
(0.000659288 0.000129213 -6.39566e-05)
(0.00079322 0.000134545 -5.4267e-05)
(0.000914343 0.000180144 -2.27666e-05)
(0.000922155 0.000237863 8.51092e-05)
(0.00078842 0.000288972 0.000135195)
(0.000628361 0.000332939 0.000162521)
(0.000446608 0.00036532 0.00017119)
(0.000269633 0.000387285 0.000174363)
(9.43003e-05 0.000398338 0.000175142)
(-7.87633e-05 0.000398807 0.000175156)
(-0.000254035 0.000388682 0.000174406)
(-0.000430921 0.000367617 0.00017128)
(-0.000612491 0.000336076 0.000162684)
(-0.000772605 0.000292873 0.000135596)
(-0.00090638 0.000242341 8.58105e-05)
(-0.000900198 0.000185067 -2.10165e-05)
(-0.00078143 0.000139378 -5.3392e-05)
(-0.000648042 0.00013491 -6.37412e-05)
(-0.000493131 0.0001203 -5.58347e-05)
(-0.000369447 0.000105849 -4.59944e-05)
(-0.000266309 9.10714e-05 -3.708e-05)
(-0.000184282 7.8829e-05 -3.13022e-05)
(-0.000114579 6.98132e-05 -2.81619e-05)
(-5.18617e-05 6.39514e-05 -2.30098e-05)
(-1.34574e-05 5.79464e-05 -7.26749e-06)
(8.47734e-06 2.85155e-05 -4.46109e-06)
(3.2726e-05 3.14747e-05 -1.44991e-05)
(7.21961e-05 3.42206e-05 -1.7556e-05)
(0.000114882 3.84598e-05 -1.91178e-05)
(0.000164106 4.44855e-05 -2.23184e-05)
(0.000224259 5.2321e-05 -2.78206e-05)
(0.00029982 6.1768e-05 -3.58532e-05)
(0.00039844 7.26387e-05 -4.67244e-05)
(0.000519583 8.36657e-05 -5.84728e-05)
(0.000672387 9.61788e-05 -6.86073e-05)
(0.000816586 0.000107087 -5.96099e-05)
(0.000953968 0.000135907 -2.97685e-05)
(0.000964399 0.000171606 7.73944e-05)
(0.000826524 0.000204766 0.000125281)
(0.000659471 0.00023394 0.000150951)
(0.000469037 0.000255955 0.000158028)
(0.000283372 0.000271103 0.000160232)
(9.91509e-05 0.000278853 0.000160523)
(-8.27266e-05 0.000279286 0.000160529)
(-0.000266912 0.000272389 0.00016025)
(-0.000452541 0.000258048 0.000158074)
(-0.00064287 0.000236762 0.00015105)
(-0.000810103 0.000208216 0.0001256)
(-0.000948147 0.000175531 7.79989e-05)
(-0.000939545 0.00014021 -2.81128e-05)
(-0.000804389 0.00011154 -5.88053e-05)
(-0.000660452 0.000101192 -6.8436e-05)
(-0.000506355 8.9256e-05 -5.92885e-05)
(-0.000381712 7.89446e-05 -4.85095e-05)
(-0.000277407 6.89592e-05 -3.89422e-05)
(-0.000193041 6.07205e-05 -3.27908e-05)
(-0.000120549 5.45742e-05 -2.94448e-05)
(-5.47197e-05 5.04894e-05 -2.39996e-05)
(-1.42756e-05 4.59316e-05 -7.468e-06)
(8.84576e-06 2.0797e-05 -4.53826e-06)
(3.40195e-05 2.28607e-05 -1.49066e-05)
(7.49229e-05 2.46546e-05 -1.80761e-05)
(0.000119028 2.73833e-05 -1.96991e-05)
(0.000169665 3.12328e-05 -2.30182e-05)
(0.00023114 3.62066e-05 -2.87202e-05)
(0.000307917 4.22002e-05 -3.70444e-05)
(0.00040738 4.92061e-05 -4.83315e-05)
(0.000529713 5.67704e-05 -6.06147e-05)
(0.000683623 6.5969e-05 -7.13765e-05)
(0.000833473 7.5853e-05 -6.28597e-05)
(0.000978871 9.37085e-05 -3.37983e-05)
(0.000991049 0.000115379 7.35044e-05)
(0.000850918 0.000135814 0.000120659)
(0.000679707 0.000153935 0.000145708)
(0.000483905 0.000167897 0.000152113)
(0.000292611 0.000177622 0.000153903)
(0.000102513 0.000182709 0.000153978)
(-8.52522e-05 0.000183132 0.000153981)
(-0.000275351 0.000178871 0.00015391)
(-0.00046668 0.00016991 0.000152139)
(-0.000662479 0.000156612 0.000145778)
(-0.000834 0.000139023 0.000120939)
(-0.000974422 0.000118968 7.40585e-05)
(-0.000964191 9.75589e-05 -3.22087e-05)
(-0.000820966 7.9844e-05 -6.21206e-05)
(-0.000671241 7.02722e-05 -7.12655e-05)
(-0.000515961 6.14147e-05 -6.14991e-05)
(-0.000389989 5.42987e-05 -5.0201e-05)
(-0.000284633 4.78719e-05 -4.02505e-05)
(-0.000198708 4.26818e-05 -3.38635e-05)
(-0.000124414 3.88289e-05 -3.03848e-05)
(-5.65457e-05 3.62391e-05 -2.4739e-05)
(-1.47776e-05 3.31155e-05 -7.65215e-06)
(9.05397e-06 1.27003e-05 -4.60341e-06)
(3.47708e-05 1.38597e-05 -1.51769e-05)
(7.65197e-05 1.47563e-05 -1.84133e-05)
(0.000121463 1.60998e-05 -2.00705e-05)
(0.00017294 1.80084e-05 -2.34563e-05)
(0.000235234 2.05132e-05 -2.92703e-05)
(0.000312835 2.36261e-05 -3.77569e-05)
(0.000413057 2.74275e-05 -4.92684e-05)
(0.000536454 3.18899e-05 -6.18322e-05)
(0.000691621 3.75046e-05 -7.29053e-05)
(0.000844392 4.41097e-05 -6.46094e-05)
(0.000993452 5.36088e-05 -3.57838e-05)
(0.00100652 6.46083e-05 7.1878e-05)
(0.000865172 7.50151e-05 0.000118939)
(0.000691633 8.4208e-05 0.000143849)
(0.000492791 9.14327e-05 0.000150044)
(0.000298222 9.65403e-05 0.000151696)
(0.000104675 9.93399e-05 0.000151697)
(-8.65767e-05 9.9778e-05 0.000151698)
(-0.000280172 9.78292e-05 0.000151698)
(-0.000474867 9.34906e-05 0.000150062)
(-0.000673837 8.69089e-05 0.000143905)
(-0.00084784 7.81846e-05 0.000119197)
(-0.000989636 6.80644e-05 7.2399e-05)
(-0.000978631 5.71745e-05 -3.4251e-05)
(-0.000831741 4.76829e-05 -6.39341e-05)
(-0.000679033 4.11479e-05 -7.28597e-05)
(-0.000522439 3.56229e-05 -6.27864e-05)
(-0.000395307 3.13177e-05 -5.12157e-05)
(-0.000289054 2.77518e-05 -4.10586e-05)
(-0.000202092 2.49981e-05 -3.45414e-05)
(-0.000126686 2.30176e-05 -3.09899e-05)
(-5.76025e-05 2.16901e-05 -2.52264e-05)
(-1.50579e-05 1.99415e-05 -7.79491e-06)
(9.10759e-06 4.4687e-06 -4.65684e-06)
(3.50012e-05 4.71924e-06 -1.5311e-05)
(7.70342e-05 4.73347e-06 -1.85703e-05)
(0.000122276 4.72335e-06 -2.02378e-05)
(0.000174082 4.74761e-06 -2.36442e-05)
(0.000236759 4.8714e-06 -2.94929e-05)
(0.000314834 5.2211e-06 -3.80298e-05)
(0.000415651 5.94007e-06 -4.96088e-05)
(0.000539808 7.32865e-06 -6.22552e-05)
(0.000695864 9.31387e-06 -7.34183e-05)
(0.000849583 1.2199e-05 -6.51747e-05)
(0.00099936 1.42653e-05 -3.63503e-05)
(0.00101247 1.56501e-05 7.1569e-05)
(0.000870564 1.68472e-05 0.000118761)
(0.000696157 1.77312e-05 0.000143735)
(0.000496265 1.86127e-05 0.000149951)
(0.000300534 1.93591e-05 0.000151608)
(0.000105757 2.00043e-05 0.000151608)
(-8.67687e-05 2.04861e-05 0.000151608)
(-0.000281654 2.07736e-05 0.000151605)
(-0.000477629 2.08548e-05 0.000149959)
(-0.000677819 2.0642e-05 0.000143777)
(-0.000852894 2.019e-05 0.000118995)
(-0.000995457 1.91882e-05 7.20529e-05)
(-0.000984566 1.77279e-05 -3.48837e-05)
(-0.000836997 1.54564e-05 -6.45733e-05)
(-0.000683321 1.2387e-05 -7.3449e-05)
(-0.000525809 1.02232e-05 -6.32841e-05)
(-0.00039787 8.68465e-06 -5.163e-05)
(-0.00029096 7.83608e-06 -4.1408e-05)
(-0.000203437 7.37971e-06 -3.48498e-05)
(-0.000127532 7.1678e-06 -3.12762e-05)
(-5.79741e-05 7.04444e-06 -2.54708e-05)
(-1.51399e-05 6.66413e-06 -7.89746e-06)
(9.01018e-06 -3.63444e-06 -4.69494e-06)
(3.47155e-05 -4.28827e-06 -1.53082e-05)
(7.64694e-05 -5.1683e-06 -1.8548e-05)
(0.000121466 -6.56073e-06 -2.02029e-05)
(0.000173086 -8.47799e-06 -2.3585e-05)
(0.000235706 -1.08335e-05 -2.93928e-05)
(0.000313902 -1.33899e-05 -3.78702e-05)
(0.000415158 -1.59102e-05 -4.93646e-05)
(0.000539814 -1.7643e-05 -6.19023e-05)
(0.000696471 -1.91196e-05 -7.29447e-05)
(0.000849335 -1.91886e-05 -6.46031e-05)
(0.000996926 -2.45477e-05 -3.55812e-05)
(0.00100913 -3.33356e-05 7.24699e-05)
(0.000867259 -4.17589e-05 0.000119994)
(0.000693395 -4.95358e-05 0.000145215)
(0.000494415 -5.51717e-05 0.000151668)
(0.000299611 -5.88775e-05 0.000153462)
(0.000105801 -6.04009e-05 0.000153531)
(-8.5807e-05 -5.98375e-05 0.000153527)
(-0.0002798 -5.72222e-05 0.000153447)
(-0.000474996 -5.25565e-05 0.000151655)
(-0.0006745 -4.61564e-05 0.000145227)
(-0.000849303 -3.7941e-05 0.000120181)
(-0.000992123 -2.93972e-05 7.28908e-05)
(-0.000982384 -2.09198e-05 -3.42108e-05)
(-0.000837071 -1.60708e-05 -6.40999e-05)
(-0.000684244 -1.64688e-05 -7.30738e-05)
(-0.000526127 -1.54585e-05 -6.30191e-05)
(-0.000397687 -1.41948e-05 -5.14617e-05)
(-0.000290355 -1.21797e-05 -4.13101e-05)
(-0.000202749 -1.02046e-05 -3.47965e-05)
(-0.000126957 -8.55652e-06 -3.12493e-05)
(-5.76675e-05 -7.42842e-06 -2.54753e-05)
(-1.50278e-05 -6.43772e-06 -7.95642e-06)
(8.75081e-06 -1.1357e-05 -4.72535e-06)
(3.38876e-05 -1.29097e-05 -1.51729e-05)
(7.47785e-05 -1.47355e-05 -1.83478e-05)
(0.000118947 -1.76288e-05 -1.99645e-05)
(0.0001698 -2.17179e-05 -2.32732e-05)
(0.000231841 -2.6951e-05 -2.89575e-05)
(0.000309741 -3.30136e-05 -3.72551e-05)
(0.000411351 -3.94928e-05 -4.84895e-05)
(0.000536486 -4.47814e-05 -6.06879e-05)
(0.000694145 -4.93749e-05 -7.13296e-05)
(0.000844039 -4.97786e-05 -6.26658e-05)
(0.000985231 -6.36378e-05 -3.30144e-05)
(0.000995273 -8.53245e-05 7.52793e-05)
(0.000854319 -0.000105619 0.000123678)
(0.000682697 -0.000123909 0.000149559)
(0.000486881 -0.000137135 0.000156658)
(0.000295279 -0.000145912 0.000158831)
(0.000104788 -0.000149842 0.000159087)
(-8.35831e-05 -0.000149144 0.000159072)
(-0.00027435 -0.000143853 0.000158785)
(-0.000466522 -0.000133875 0.000156592)
(-0.000663159 -0.000119675 0.000149495)
(-0.000836092 -0.000100866 0.000123763)
(-0.000978445 -8.04822e-05 7.55817e-05)
(-0.000971251 -5.94367e-05 -3.17967e-05)
(-0.000832422 -4.65659e-05 -6.23037e-05)
(-0.000682532 -4.69431e-05 -7.15977e-05)
(-0.000523421 -4.31173e-05 -6.19196e-05)
(-0.00039454 -3.86234e-05 -5.06746e-05)
(-0.000286945 -3.30269e-05 -4.07486e-05)
(-0.000199791 -2.80192e-05 -3.43728e-05)
(-0.000124809 -2.41127e-05 -3.09052e-05)
(-5.66003e-05 -2.15179e-05 -2.52414e-05)
(-1.46943e-05 -1.90987e-05 -7.9825e-06)
(8.31102e-06 -1.84072e-05 -4.75258e-06)
(3.24597e-05 -2.08061e-05 -1.4911e-05)
(7.18288e-05 -2.35982e-05 -1.7977e-05)
(0.000114454 -2.80846e-05 -1.95299e-05)
(0.000163744 -3.458e-05 -2.27128e-05)
(0.000224387 -4.31785e-05 -2.81773e-05)
(0.000301285 -5.36305e-05 -3.61439e-05)
(0.000403146 -6.53331e-05 -4.68581e-05)
(0.00052931 -7.53256e-05 -5.83338e-05)
(0.000690411 -8.30171e-05 -6.80026e-05)
(0.000834225 -7.69635e-05 -5.8862e-05)
(0.000961125 -0.000102122 -2.79822e-05)
(0.000967034 -0.000143941 8.11808e-05)
(0.000828523 -0.000180733 0.00013172)
(0.000661747 -0.000212835 0.000159149)
(0.000472302 -0.000235551 0.000167711)
(0.000286838 -0.000250473 0.000170742)
(0.000102546 -0.00025723 0.000171413)
(-7.98002e-05 -0.000256322 0.000171375)
(-0.000264471 -0.000247773 0.000170627)
(-0.000450713 -0.000231238 0.000167526)
(-0.000641364 -0.000207139 0.000158922)
(-0.00080996 -0.000174293 0.000131597)
(-0.000950571 -0.000137328 8.126e-05)
(-0.00094818 -9.66684e-05 -2.70189e-05)
(-0.000823693 -7.33598e-05 -5.87204e-05)
(-0.00067972 -8.05071e-05 -6.84964e-05)
(-0.000517182 -7.38787e-05 -5.97423e-05)
(-0.000387347 -6.50219e-05 -4.91669e-05)
(-0.000279656 -5.45872e-05 -3.96964e-05)
(-0.000193781 -4.56613e-05 -3.35756e-05)
(-0.000120604 -3.89962e-05 -3.02486e-05)
(-5.45312e-05 -3.47072e-05 -2.47787e-05)