/*--------------------------------*- C++ -*----------------------------------*\
| =========                 |                                                 |
| \\      /  F ield         | OpenFOAM: The Open Source CFD Toolbox           |
|  \\    /   O peration     | Version:  2112                                  |
|   \\  /    A nd           | Website:  www.openfoam.com                      |
|    \\/     M anipulation  |                                                 |
\*---------------------------------------------------------------------------*/
FoamFile
{
    version     2.0;
    format      ascii;
    arch        "LSB;label=32;scalar=64";
    class       volScalarField;
    location    "1.7";
    object      epsilon;
}
// * * * * * * * * * * * * * * * * * * * * * * * * * * * * * * * * * * * * * //

dimensions      [0 2 -3 0 0 0 0];

internalField   nonuniform List<scalar> 
64906
(
0.00163805
0.00178665
0.00185768
0.00188122
0.0018878
0.00188945
0.00188985
0.00188997
0.00189003
0.00189008
0.00189012
0.00189016
0.00189018
0.00189019
0.00189019
0.00189018
0.00189016
0.00189014
0.00189013
0.00189014
0.00189015
0.00189016
0.00189016
0.00189015
0.00189013
0.0018901
0.00189004
0.00188993
0.00188952
0.00188787
0.0018813
0.00185776
0.00178672
0.00163811
0.00178669
0.0028673
0.00337557
0.00356528
0.00362695
0.00364466
0.00364927
0.00365042
0.00365076
0.00365092
0.00365105
0.00365116
0.00365127
0.00365136
0.00365144
0.0036515
0.00365153
0.00365155
0.00365155
0.00365154
0.00365151
0.00365146
0.00365138
0.00365129
0.00365118
0.00365103
0.00365071
0.00364957
0.00364497
0.00362725
0.00356557
0.00337584
0.00286753
0.00178681
0.0018578
0.00337573
0.00415241
0.00446916
0.00458181
0.00461711
0.00462704
0.00462968
0.0046304
0.00463067
0.00463088
0.00463118
0.00463153
0.00463188
0.00463218
0.0046324
0.00463255
0.00463262
0.00463263
0.00463257
0.00463244
0.00463223
0.00463195
0.00463161
0.00463125
0.00463086
0.00463013
0.00462757
0.00461769
0.00458241
0.00446974
0.00415295
0.00337615
0.00185799
0.0018814
0.00356558
0.00446933
0.00485665
0.0050014
0.00504898
0.00506292
0.00506654
0.00506716
0.0050669
0.00506664
0.00506689
0.00506745
0.00506813
0.00506872
0.00506911
0.00506935
0.00506947
0.00506948
0.00506938
0.00506917
0.00506879
0.00506822
0.00506757
0.00506698
0.00506658
0.00506606
0.00506295
0.00504947
0.00500213
0.00485745
0.00447008
0.00356615
0.00188164
0.001888
0.00362733
0.00458207
0.0050015
0.00516224
0.00521629
0.00523211
0.00523534
0.00523398
0.00523069
0.00522772
0.00522717
0.00522798
0.00522923
0.00523032
0.00523087
0.00523111
0.00523121
0.00523123
0.00523115
0.00523094
0.00523042
0.00522936
0.00522812
0.00522729
0.00522764
0.00522966
0.00522895
0.00521535
0.00516256
0.00500231
0.00458295
0.00362801
0.0018883
0.00188967
0.00364506
0.0046174
0.00504912
0.00521633
0.00527271
0.00528793
0.0052874
0.00527816
0.00526342
0.00525041
0.00524784
0.00525004
0.00525318
0.00525556
0.00525621
0.00525621
0.00525617
0.00525619
0.00525626
0.0052563
0.00525568
0.00525334
0.00525021
0.00524799
0.00525033
0.00526232
0.00527277
0.00526613
0.00521458
0.00504939
0.00461826
0.00364583
0.00189
0.00189007
0.00364965
0.00462731
0.00506303
0.00523213
0.00528795
0.00529866
0.00528596
0.00525202
0.00520051
0.00515567
0.00515351
0.00516474
0.00517519
0.0051816
0.00518245
0.0051818
0.00518141
0.00518143
0.00518187
0.00518256
0.00518175
0.00517538
0.00516495
0.00515369
0.00515561
0.00519942
0.00524656
0.00526431
0.00522402
0.00506141
0.00462779
0.00365043
0.00189045
0.00189019
0.00365076
0.00462987
0.00506659
0.00523537
0.00528766
0.00528654
0.00524278
0.0051427
0.00498579
0.00484621
0.00487516
0.0049297
0.00496524
0.00498286
0.0049849
0.00498358
0.00498282
0.00498284
0.00498366
0.00498503
0.00498304
0.00496546
0.00492995
0.00487538
0.00484617
0.00498478
0.00513737
0.00522121
0.00521172
0.00506031
0.00462927
0.00365141
0.0018906
0.00189024
0.00365101
0.00463049
0.00506717
0.00523428
0.00527948
0.00525525
0.00514724
0.00489713
0.00446599
0.00404219
0.00426524
0.00447938
0.00458441
0.00462593
0.0046332
0.00463311
0.0046327
0.00463273
0.00463319
0.00463334
0.00462613
0.00458467
0.00447969
0.00426556
0.00404218
0.00446514
0.00489209
0.00512604
0.00518073
0.00505217
0.00462782
0.00365134
0.00189067
0.00189027
0.00365106
0.00463065
0.00506701
0.00523186
0.00526782
0.00521154
0.00500509
0.00448553
0.00343441
0.00226075
0.00318189
0.00383409
0.00408096
0.00415665
0.00417629
0.00418068
0.00418157
0.00418159
0.00418076
0.00417642
0.00415684
0.00408124
0.00383449
0.00318238
0.00226069
0.00343381
0.00448088
0.00498434
0.00513741
0.00504072
0.00462535
0.00365092
0.00189069
0.00189027
0.00365106
0.00463078
0.00506709
0.00523084
0.00526153
0.00518448
0.00490178
0.00411192
0.0022862
0.00215766
0.00331833
0.00370556
0.00380824
0.00383147
0.00383577
0.00383642
0.00383643
0.0038358
0.00383153
0.00380835
0.00370576
0.00331871
0.00215789
0.00228597
0.00410757
0.00488125
0.00511049
0.00503441
0.00462412
0.00365067
0.00189071
0.00189026
0.00365104
0.00463103
0.00506791
0.00523331
0.00526967
0.0052131
0.0050042
0.00447796
0.00341439
0.00224561
0.00308697
0.00370182
0.00392987
0.00399665
0.00400945
0.0040095
0.00400867
0.00400866
0.00400947
0.0040094
0.00399658
0.00392982
0.00370181
0.0030868
0.00224523
0.00341307
0.00447288
0.00498316
0.00513864
0.00504203
0.004626
0.00365088
0.00189071
0.00189023
0.00365102
0.00463133
0.00506905
0.00523718
0.00528298
0.0052577
0.00514383
0.00487682
0.00440943
0.00392379
0.00402541
0.00412315
0.00416753
0.00418195
0.00418235
0.00418009
0.00417883
0.00417881
0.00418003
0.00418225
0.0041818
0.00416732
0.00412285
0.00402491
0.00392287
0.00440783
0.00487129
0.00512223
0.00518263
0.00505469
0.00462917
0.00365134
0.00189069
0.00189019
0.00365098
0.00463158
0.00507003
0.00524038
0.00529347
0.00529054
0.00523734
0.0051096
0.00489031
0.00463524
0.00448573
0.00435995
0.00430382
0.00428438
0.0042768
0.00427344
0.00427212
0.0042721
0.00427336
0.00427667
0.0042842
0.00430356
0.00435959
0.00448523
0.00463439
0.00488866
0.00510383
0.00521534
0.00521495
0.00506459
0.00463175
0.0036517
0.00189064
0.00189014
0.00365094
0.00463176
0.00507068
0.00524233
0.0052994
0.00530785
0.00528303
0.00521319
0.00508008
0.00488522
0.00466586
0.0044593
0.00436192
0.00432719
0.00431566
0.00431159
0.00431013
0.0043101
0.00431149
0.00431551
0.00432698
0.00436163
0.00445893
0.00466516
0.00488445
0.00507844
0.00520733
0.00526081
0.00523193
0.00507012
0.00463326
0.00365189
0.00189057
0.00189008
0.00365089
0.00463188
0.00507107
0.00524336
0.00530218
0.00531531
0.00530137
0.00525182
0.0051453
0.00496508
0.00472617
0.00449351
0.00438212
0.00434189
0.00432878
0.00432426
0.00432257
0.00432252
0.00432413
0.0043286
0.00434167
0.00438183
0.00449314
0.00472551
0.00496436
0.00514367
0.00524591
0.00527904
0.00523922
0.00507267
0.004634
0.00365195
0.00189048
0.00189002
0.00365085
0.00463195
0.00507129
0.00524387
0.00530337
0.00531814
0.00530778
0.00526442
0.00516524
0.00498827
0.00474403
0.00450372
0.0043882
0.00434628
0.00433258
0.00432777
0.00432582
0.00432574
0.00432761
0.00433238
0.00434604
0.0043879
0.00450334
0.00474338
0.00498757
0.00516362
0.00525851
0.00528542
0.00524198
0.00507374
0.00463434
0.00365195
0.00189039
0.00188996
0.00365082
0.004632
0.00507142
0.00524411
0.00530383
0.00531911
0.00530976
0.00526802
0.00517061
0.00499427
0.00474871
0.0045064
0.00438982
0.00434742
0.00433351
0.00432853
0.00432634
0.00432624
0.00432834
0.00433329
0.00434717
0.00438952
0.00450602
0.00474807
0.00499358
0.005169
0.00526212
0.00528739
0.00524293
0.00507416
0.0046345
0.00365194
0.0018903
0.00188991
0.00365081
0.00463202
0.00507147
0.00524418
0.00530393
0.00531923
0.00530992
0.00526822
0.00517084
0.00499453
0.00474896
0.00450655
0.00438992
0.00434746
0.00433349
0.00432842
0.0043261
0.00432598
0.00432821
0.00433325
0.0043472
0.0043896
0.00450617
0.00474834
0.00499386
0.00516927
0.00526234
0.00528757
0.00524307
0.00507426
0.00463455
0.00365194
0.00189023
0.00188991
0.00365083
0.00463203
0.00507144
0.00524409
0.00530365
0.00531852
0.00530827
0.00526504
0.00516598
0.00498909
0.00474483
0.00450419
0.0043885
0.00434641
0.00433253
0.00432749
0.00432518
0.00432506
0.00432727
0.00433229
0.00434614
0.00438819
0.00450383
0.00474424
0.00498846
0.00516444
0.0052592
0.00528597
0.0052424
0.00507403
0.0046345
0.00365195
0.00189023
0.00188996
0.00365087
0.004632
0.00507132
0.00524372
0.00530267
0.00531595
0.00530221
0.00525291
0.00514664
0.00496661
0.00472769
0.00449442
0.00438271
0.00434219
0.00432878
0.00432389
0.00432178
0.00432167
0.00432368
0.00432854
0.00434193
0.00438242
0.00449408
0.00472716
0.00496604
0.00514518
0.00524715
0.00528001
0.00523994
0.00507317
0.00463428
0.00365196
0.00189031
0.00189002
0.00365092
0.00463194
0.00507103
0.00524285
0.0053001
0.00530877
0.00528428
0.00521486
0.00508224
0.0048878
0.00466846
0.00446085
0.00436296
0.00432781
0.00431588
0.00431137
0.00430952
0.00430943
0.00431118
0.00431565
0.00432757
0.00436271
0.00446058
0.00466806
0.00488735
0.0050809
0.00520924
0.00526225
0.00523298
0.00507084
0.00463366
0.00365194
0.0018904
0.00189008
0.00365099
0.00463182
0.00507048
0.00524105
0.00529438
0.00529177
0.00523903
0.00511197
0.00489361
0.00463943
0.00448973
0.00436235
0.00430545
0.00428545
0.00427739
0.00427361
0.004272
0.00427195
0.00427346
0.0042772
0.00428526
0.00430528
0.00436222
0.00448958
0.00463919
0.00489249
0.00510661
0.00521732
0.00521636
0.00506554
0.00463228
0.0036518
0.00189049
0.00189013
0.00365105
0.00463163
0.00506961
0.005238
0.0052841
0.00525922
0.00514596
0.00487993
0.00441399
0.00392999
0.00403029
0.00412588
0.00416915
0.00418288
0.00418282
0.00418024
0.0041788
0.00417876
0.00418015
0.00418268
0.00418273
0.00416902
0.00412589
0.0040306
0.00393006
0.00441323
0.00487497
0.00512473
0.00518438
0.00505587
0.00462984
0.0036515
0.00189055
0.00189017
0.00365109
0.00463138
0.00506855
0.00523425
0.00527095
0.00521482
0.0050066
0.00448141
0.00341929
0.00224837
0.00308957
0.00370083
0.00392736
0.00399311
0.00400537
0.00400513
0.00400415
0.00400412
0.00400502
0.00400516
0.00399272
0.00392673
0.00370024
0.00308998
0.00224822
0.00341895
0.00447683
0.00498588
0.00514059
0.00504339
0.00462678
0.00365108
0.00189058
0.00189019
0.00365111
0.00463109
0.00506767
0.00523173
0.00526276
0.00518603
0.00490355
0.00411363
0.00228665
0.00215239
0.0033024
0.00368307
0.00378139
0.00380281
0.00380642
0.00380676
0.00380667
0.00380607
0.00380196
0.00377942
0.00367913
0.0032967
0.0021496
0.00228579
0.00410859
0.00488277
0.0051121
0.00503571
0.00462491
0.00365088
0.00189059
0.00189018
0.00365093
0.00463051
0.00506692
0.00523198
0.00526829
0.0052124
0.00500619
0.00448645
0.00343466
0.00225986
0.00315312
0.00377663
0.00399184
0.00404813
0.00406181
0.00406489
0.00406543
0.00406526
0.00406413
0.00405937
0.00404109
0.00397521
0.0037479
0.00313057
0.00225405
0.00342791
0.00447783
0.00498383
0.00513799
0.00504138
0.00462575
0.00365098
0.00189059
0.0018901
0.00364994
0.00462813
0.00506383
0.00523055
0.00527584
0.00525179
0.00514334
0.00489061
0.00445145
0.00400728
0.00417721
0.00431315
0.00432833
0.00431946
0.00431364
0.00431173
0.00431119
0.00431092
0.00431033
0.00430846
0.00430255
0.0042836
0.0042268
0.0040985
0.00395837
0.00442349
0.00487305
0.00511766
0.0051765
0.00504945
0.00462603
0.00365048
0.00189052
0.00188972
0.00364545
0.0046184
0.00505047
0.00521682
0.00526826
0.00526681
0.00522165
0.0051157
0.0049408
0.00475634
0.0046915
0.00460019
0.00447287
0.00441138
0.00439009
0.004384
0.00438245
0.00438209
0.00438211
0.00438273
0.00438581
0.00439835
0.00443985
0.00454167
0.00465816
0.00488841
0.00508833
0.00519285
0.00519162
0.00504466
0.00461841
0.00364637
0.00189015
0.00188808
0.0036278
0.00458322
0.00500325
0.00516409
0.00521655
0.00522599
0.00521133
0.00517022
0.00509686
0.00499821
0.0048884
0.00473438
0.00456675
0.00448851
0.00446188
0.00445441
0.0044526
0.00445225
0.00445243
0.00445387
0.00446031
0.00448427
0.00455734
0.0047202
0.00488638
0.0050377
0.00514062
0.00518296
0.00515428
0.00500215
0.00458438
0.0036289
0.00188849
0.0018815
0.00356613
0.00447057
0.00485858
0.00500386
0.00505139
0.00506358
0.00506108
0.00504633
0.00501479
0.0049605
0.00487695
0.00475797
0.0046336
0.00456997
0.00454669
0.00454004
0.00453853
0.00453827
0.00453839
0.00453972
0.004546
0.00456841
0.00463076
0.0047546
0.00487752
0.00497061
0.00502395
0.00503796
0.00500135
0.00485961
0.00447217
0.00356724
0.00188189
0.00185794
0.00337633
0.00415368
0.0044711
0.00458436
0.00462014
0.00463008
0.00463127
0.00462703
0.00461507
0.0045903
0.00454672
0.00448348
0.0044179
0.00438155
0.00436725
0.00436294
0.00436193
0.00436176
0.00436187
0.00436281
0.00436699
0.00438105
0.00441709
0.0044826
0.00454679
0.00459209
0.0046151
0.00461654
0.00458502
0.00447284
0.00415527
0.00337734
0.00185829
0.00178686
0.00286787
0.00337666
0.00356686
0.00362902
0.00364722
0.00365227
0.00365358
0.00365314
0.00365022
0.00364279
0.00362822
0.00360627
0.00358292
0.0035692
0.00356343
0.00356155
0.00356105
0.00356096
0.00356106
0.00356155
0.00356341
0.00356913
0.00358279
0.00360609
0.00362819
0.00364288
0.00364939
0.00364767
0.00363049
0.00356839
0.00337788
0.00286863
0.00178715
0.00163819
0.00178692
0.00185815
0.00188188
0.00188865
0.0018905
0.00189115
0.00189152
0.00189181
0.00189198
0.00189182
0.00189104
0.00188954
0.00188768
0.0018865
0.0018859
0.00188557
0.00188536
0.00188527
0.00188537
0.00188558
0.00188589
0.00188647
0.00188762
0.00188943
0.00189091
0.00189167
0.00189176
0.00189124
0.00188935
0.00188249
0.00185863
0.00178725
0.00163839
0.00211991
0.0027434
0.00306586
0.00318795
0.00322719
0.00323826
0.00324107
0.00324173
0.00324189
0.00324192
0.00324192
0.00324191
0.00324189
0.00324187
0.00324184
0.00324182
0.0032418
0.00324179
0.00324178
0.00324179
0.00324181
0.00324183
0.00324185
0.00324187
0.00324188
0.00324187
0.00324174
0.0032411
0.0032383
0.00322724
0.003188
0.00306591
0.00274345
0.00211996
0.00274341
0.00313909
0.00351239
0.00367685
0.00373566
0.00375369
0.00375856
0.00375974
0.00375999
0.00376001
0.00375998
0.00375995
0.00375993
0.00375991
0.0037599
0.00375989
0.00375989
0.00375988
0.00375988
0.00375989
0.0037599
0.00375991
0.00375992
0.00375994
0.00375995
0.00375993
0.00375971
0.00375857
0.00375373
0.00373571
0.00367691
0.00351246
0.00313916
0.00274346
0.00306597
0.00351246
0.00396529
0.00418035
0.00426353
0.00429112
0.00429914
0.00430121
0.00430162
0.00430159
0.00430149
0.00430144
0.00430146
0.00430151
0.00430156
0.00430159
0.00430161
0.00430162
0.00430162
0.00430162
0.0043016
0.00430158
0.00430153
0.00430148
0.00430145
0.0043014
0.00430103
0.00429909
0.00429117
0.00426364
0.0041805
0.00396545
0.00351261
0.00306611
0.00318816
0.00367699
0.00418043
0.00442844
0.00452841
0.004563
0.00457344
0.00457605
0.00457626
0.00457572
0.00457512
0.00457488
0.00457493
0.00457509
0.00457525
0.00457534
0.00457538
0.0045754
0.0045754
0.00457539
0.00457536
0.00457527
0.00457512
0.00457496
0.00457489
0.00457499
0.00457493
0.0045728
0.00456281
0.00452849
0.00442865
0.00418069
0.00367722
0.00318839
0.00322746
0.00373584
0.00426366
0.00452846
0.00463746
0.00467593
0.00468746
0.00468963
0.00468828
0.00468545
0.00468284
0.00468184
0.00468195
0.0046824
0.00468278
0.00468294
0.00468296
0.00468296
0.00468297
0.00468298
0.00468296
0.00468281
0.00468244
0.00468199
0.00468185
0.00468268
0.00468451
0.00468423
0.00467447
0.00463708
0.00452858
0.00426395
0.00373613
0.00322777
0.00323857
0.00375389
0.00429126
0.00456308
0.00467595
0.0047158
0.00472673
0.00472607
0.00471906
0.00470842
0.00469922
0.00469643
0.00469745
0.00469909
0.00470014
0.00470048
0.00470044
0.00470035
0.00470036
0.00470045
0.00470052
0.00470018
0.00469915
0.00469751
0.00469645
0.00469905
0.00470741
0.00471474
0.00471
0.00467384
0.00456265
0.00429143
0.00375418
0.00323892
0.00324139
0.00375875
0.00429928
0.00457351
0.0046875
0.00472678
0.00473434
0.00472509
0.00470156
0.00466794
0.00464045
0.00463529
0.0046419
0.00464828
0.00465151
0.00465265
0.00465258
0.00465237
0.00465238
0.00465261
0.00465268
0.00465156
0.00464834
0.00464196
0.00463532
0.00464029
0.00466692
0.00469714
0.00470868
0.0046805
0.00457146
0.004299
0.00375894
0.00324174
0.00324204
0.0037599
0.00430132
0.00457613
0.00468976
0.00472639
0.00472562
0.00469571
0.00463129
0.00453928
0.00446976
0.00446364
0.00449259
0.00451449
0.00452373
0.00452779
0.00452833
0.00452811
0.00452812
0.00452835
0.00452783
0.00452379
0.00451458
0.00449269
0.0044637
0.0044696
0.00453826
0.00462686
0.00467922
0.00467149
0.00457036
0.00429999
0.00375984
0.00324232
0.00324217
0.0037601
0.0043017
0.00457639
0.00468871
0.00472033
0.00470423
0.0046349
0.00448792
0.0042736
0.00415751
0.00411959
0.00421168
0.00427373
0.00429602
0.004308
0.00431091
0.00431119
0.0043112
0.00431094
0.00430806
0.0042961
0.00427385
0.00421182
0.00411969
0.00415734
0.00427257
0.00448349
0.00461839
0.00465002
0.00456408
0.00429854
0.00375958
0.00324226
0.00324217
0.00376008
0.00430168
0.00457604
0.0046867
0.00471213
0.00467654
0.00455457
0.00429197
0.00392984
0.0046742
0.00363347
0.0038179
0.00395332
0.00399736
0.00402209
0.00402893
0.00403016
0.00403017
0.00402897
0.00402214
0.00399745
0.00395346
0.00381809
0.00363363
0.00467363
0.0039287
0.00428747
0.00453799
0.00462224
0.00455573
0.0042963
0.00375898
0.00324198
0.00324212
0.00376002
0.00430163
0.00457586
0.00468571
0.00470787
0.00466167
0.00451273
0.00423143
0.004829
0.00410846
0.00356585
0.00373086
0.00380682
0.00382058
0.00382163
0.00382142
0.00382143
0.00382164
0.00382061
0.00380687
0.00373097
0.00356602
0.00410892
0.00482619
0.00422667
0.00449601
0.00460721
0.00455127
0.00429506
0.00375857
0.00324177
0.00324205
0.00375996
0.00430167
0.00457623
0.00468705
0.00471243
0.0046762
0.00455211
0.00428418
0.00390875
0.00457611
0.00356231
0.00377353
0.00393241
0.00402541
0.00399648
0.00398129
0.00397731
0.0039773
0.00398126
0.00399642
0.00402536
0.00393237
0.00377349
0.00356208
0.00457473
0.00390729
0.00427949
0.00453536
0.00462165
0.00455565
0.00429615
0.00375869
0.00324177
0.00324198
0.00375991
0.00430178
0.00457688
0.00468951
0.00472098
0.00470343
0.00462934
0.00447025
0.00422894
0.00406089
0.00397106
0.00403533
0.00407856
0.00410465
0.00409358
0.00408613
0.0040837
0.00408369
0.0040861
0.00409353
0.00410458
0.00407847
0.00403518
0.00397077
0.00406032
0.00422759
0.00446558
0.00461258
0.0046488
0.00456403
0.00429837
0.00375912
0.00324188
0.00324189
0.00375987
0.00430189
0.00457745
0.00469162
0.00472805
0.00472505
0.00468777
0.00460473
0.00447348
0.00433622
0.00424586
0.00420687
0.00417752
0.00416656
0.00415873
0.00415496
0.00415367
0.00415366
0.00415493
0.00415868
0.00416649
0.0041774
0.00420669
0.00424558
0.00433572
0.00447217
0.00460006
0.00467095
0.0046703
0.00457092
0.00430025
0.00375948
0.00324194
0.00324181
0.00375983
0.00430195
0.00457781
0.0046929
0.00473214
0.00473695
0.00471835
0.00467123
0.00458887
0.00447957
0.00437015
0.00428658
0.00422561
0.00419985
0.00419065
0.0041876
0.00418669
0.00418668
0.00418758
0.00419061
0.00419978
0.00422549
0.00428641
0.00436986
0.00447911
0.00458759
0.00466655
0.00470148
0.0046821
0.00457485
0.00430135
0.00375969
0.00324192
0.00324172
0.00375979
0.00430198
0.00457801
0.00469353
0.00473403
0.00474218
0.00473112
0.00469762
0.00463256
0.00453307
0.00441543
0.00431583
0.00424352
0.00421265
0.00420244
0.00419941
0.00419858
0.00419857
0.00419939
0.0042024
0.00421258
0.00424341
0.00431566
0.00441516
0.00453263
0.00463129
0.00469293
0.0047142
0.00468725
0.00457665
0.00430186
0.00375976
0.00324185
0.00324165
0.00375977
0.004302
0.0045781
0.00469382
0.00473479
0.00474413
0.00473563
0.00470651
0.00464666
0.00454983
0.00442943
0.00432483
0.00424905
0.00421662
0.00420602
0.00420295
0.0042021
0.00420209
0.00420292
0.00420597
0.00421656
0.00424894
0.00432467
0.00442916
0.0045494
0.0046454
0.00470182
0.0047187
0.00468917
0.00457735
0.00430207
0.00375978
0.00324176
0.00324159
0.00375975
0.00430201
0.00457815
0.00469393
0.00473506
0.00474475
0.00473698
0.00470904
0.0046505
0.00455425
0.00443309
0.00432717
0.00425049
0.00421766
0.00420693
0.00420382
0.00420296
0.00420294
0.00420379
0.00420688
0.00421759
0.00425038
0.00432701
0.00443283
0.00455383
0.00464925
0.00470435
0.00472005
0.00468978
0.00457759
0.00430214
0.00375978
0.00324169
0.00324157
0.00375975
0.00430201
0.00457816
0.00469395
0.00473509
0.0047448
0.00473704
0.00470911
0.00465058
0.00455434
0.00443318
0.00432724
0.00425054
0.00421769
0.00420694
0.00420382
0.00420294
0.00420292
0.00420379
0.0042069
0.00421762
0.00425043
0.00432708
0.00443293
0.00455393
0.00464934
0.00470443
0.00472011
0.00468983
0.00457762
0.00430216
0.00375978
0.00324165
0.00324157
0.00375976
0.00430202
0.00457815
0.00469389
0.00473489
0.00474426
0.0047358
0.00470673
0.00464692
0.00455012
0.00442973
0.00432506
0.00424921
0.00421673
0.00420608
0.00420296
0.00420207
0.00420206
0.00420293
0.00420603
0.00421666
0.00424911
0.00432491
0.00442949
0.00454973
0.0046457
0.00470207
0.0047189
0.00468931
0.00457744
0.00430211
0.00375978
0.00324165
0.00324162
0.00375979
0.00430201
0.00457808
0.00469366
0.0047342
0.0047424
0.00473142
0.00469802
0.00463307
0.00453366
0.00441604
0.0043163
0.00424387
0.0042129
0.00420262
0.00419954
0.00419865
0.00419863
0.00419951
0.00420258
0.00421284
0.00424378
0.00431617
0.00441583
0.00453329
0.00463187
0.00469338
0.00471455
0.0046875
0.00457681
0.00430194
0.00375977
0.0032417
0.00324168
0.00375982
0.004302
0.00457792
0.00469307
0.00473238
0.00473729
0.00471882
0.00467188
0.00458974
0.00448064
0.00437127
0.00428745
0.00422629
0.00420038
0.00419111
0.00418801
0.00418705
0.00418705
0.00418799
0.00419109
0.00420035
0.00422623
0.00428737
0.00437111
0.00448032
0.00458858
0.00466729
0.00470201
0.00468247
0.00457509
0.00430146
0.0037597
0.00324175
0.00324176
0.00375986
0.00430195
0.00457759
0.00469185
0.00472838
0.00472551
0.00468842
0.0046057
0.00447488
0.00433801
0.00424768
0.00420828
0.00417862
0.00416747
0.0041596
0.00415582
0.00415452
0.00415452
0.00415582
0.00415961
0.00416748
0.00417863
0.00420829
0.00424764
0.00433777
0.00447378
0.00460117
0.0046717
0.0046708
0.00457123
0.0043004
0.00375951
0.00324176
0.00324184
0.00375991
0.00430186
0.00457705
0.00468979
0.00472138
0.004704
0.00463018
0.00447154
0.00423091
0.00406352
0.00397355
0.00403689
0.00407956
0.00410535
0.00409432
0.0040869
0.00408448
0.00408449
0.00408692
0.00409435
0.00410538
0.00407958
0.00403692
0.00397359
0.00406333
0.00422984
0.00446704
0.00461351
0.00464941
0.00456441
0.00429855
0.00375915
0.00324169
0.00324191
0.00375995
0.00430174
0.0045764
0.00468734
0.00471286
0.0046768
0.00455298
0.0042855
0.00391079
0.00458324
0.00356298
0.0037722
0.00392983
0.00402222
0.00399303
0.00397773
0.00397374
0.00397374
0.00397773
0.00399298
0.00402205
0.0039293
0.00377133
0.00356207
0.0045827
0.00390932
0.00428076
0.00453623
0.00462226
0.00455605
0.00429633
0.00375872
0.00324157
0.00324196
0.00375996
0.00430161
0.00457593
0.00468588
0.00470816
0.00466207
0.00451322
0.00423183
0.00482778
0.00408541
0.00354939
0.00370845
0.00378035
0.00379259
0.00379325
0.00379294
0.00379289
0.00379303
0.00379195
0.00377859
0.00370448
0.00354244
0.00407154
0.00482092
0.00422592
0.00449603
0.00460747
0.00455149
0.00429515
0.00375854
0.00324153
0.00324188
0.00375978
0.00430121
0.00457548
0.00468614
0.00471163
0.00467607
0.00455392
0.00429048
0.00392516
0.00464693
0.00360078
0.00376546
0.00387994
0.00391065
0.00393008
0.00393584
0.00393692
0.0039368
0.00393528
0.00392815
0.00390494
0.00386653
0.0037427
0.00357441
0.00460842
0.00391426
0.004282
0.00453579
0.00462129
0.00455519
0.00429589
0.00375868
0.00324162
0.00324129
0.00375869
0.00429928
0.00457318
0.00468508
0.00471652
0.00470022
0.00463012
0.0044805
0.00425836
0.00412177
0.00404992
0.00409584
0.00411434
0.00410825
0.00410762
0.00410762
0.00410751
0.0041073
0.00410652
0.00410356
0.00409575
0.00408489
0.00405018
0.00399911
0.00408177
0.00423689
0.00446702
0.00461019
0.00464517
0.00456067
0.00429612
0.00375814
0.00324129
0.00323852
0.00375388
0.00429138
0.00456315
0.00467502
0.00471081
0.00470943
0.00467803
0.00460898
0.00450433
0.00440592
0.00434904
0.00431155
0.00427746
0.00424206
0.00422689
0.00422218
0.00422093
0.00422064
0.00422057
0.00422076
0.00422267
0.00423222
0.0042541
0.00427977
0.00435206
0.00447304
0.00459072
0.00465655
0.00465472
0.00455698
0.00429001
0.00375379
0.00323872
0.00322747
0.00373588
0.00426388
0.00452883
0.00463755
0.00467439
0.00468066
0.00466948
0.00464056
0.00459272
0.00453393
0.00447384
0.0044084
0.0043531
0.00430668
0.00428657
0.00428021
0.00427855
0.00427822
0.00427843
0.00427976
0.00428523
0.00430338
0.00434614
0.00440021
0.00447701
0.0045591
0.00462131
0.00464842
0.00462831
0.00452632
0.00426354
0.00373604
0.00322776
0.00318821
0.00367707
0.00418073
0.00442897
0.00452901
0.00456315
0.00457169
0.00456904
0.00455751
0.0045352
0.0045005
0.00445262
0.00439273
0.00433678
0.00429763
0.00428041
0.00427471
0.00427317
0.00427288
0.00427314
0.00427459
0.00428005
0.0042967
0.00433499
0.00439101
0.00445435
0.00450815
0.00454193
0.00455117
0.00452521
0.00442822
0.00418085
0.00367732
0.00318851
0.00306606
0.00351258
0.00396563
0.00418095
0.00426432
0.00429191
0.00429941
0.00429962
0.00429533
0.00428527
0.00426674
0.00423723
0.00419801
0.00415979
0.00413464
0.00412329
0.00411935
0.00411823
0.00411801
0.00411824
0.00411936
0.00412325
0.00413447
0.00415946
0.00419777
0.0042379
0.00426862
0.00428554
0.0042869
0.00426306
0.00418095
0.00396589
0.0035128
0.00306632
0.00274354
0.00313923
0.00351272
0.00367741
0.00373642
0.00375459
0.00375942
0.00376011
0.00375873
0.00375472
0.00374631
0.0037316
0.003711
0.00369017
0.00367688
0.00367085
0.00366868
0.00366802
0.00366789
0.00366805
0.00366874
0.00367092
0.00367694
0.00369021
0.00371107
0.00373188
0.00374671
0.00375402
0.00375299
0.00373628
0.00367767
0.00351297
0.00313938
0.00274372
0.00212003
0.00274354
0.00306624
0.00318861
0.00322811
0.00323942
0.00324241
0.00324304
0.00324258
0.00324063
0.00323591
0.00322685
0.00321329
0.00319899
0.00319038
0.0031866
0.00318519
0.00318469
0.00318458
0.00318472
0.00318524
0.00318666
0.00319043
0.00319901
0.0032133
0.00322692
0.00323599
0.00324008
0.00323915
0.00322851
0.0031891
0.00306659
0.00274372
0.00212019
0.00235209
0.00331568
0.00384798
0.00406483
0.00414014
0.00416307
0.00416928
0.00417079
0.00417109
0.00417109
0.00417101
0.00417091
0.00417082
0.00417075
0.00417069
0.00417064
0.0041706
0.00417058
0.00417058
0.00417059
0.00417063
0.00417068
0.00417073
0.0041708
0.00417087
0.0041709
0.00417065
0.00416919
0.00416302
0.00414012
0.00406482
0.00384799
0.0033157
0.00235214
0.00331567
0.00358689
0.00398304
0.00417559
0.00425048
0.00427531
0.0042825
0.00428433
0.0042847
0.0042847
0.00428461
0.00428451
0.00428444
0.00428439
0.00428435
0.00428432
0.0042843
0.00428428
0.00428428
0.0042843
0.00428432
0.00428435
0.00428439
0.00428444
0.00428449
0.0042845
0.00428417
0.0042824
0.00427526
0.00425047
0.00417561
0.00398308
0.00358692
0.00331568
0.0038481
0.00398308
0.00439361
0.00461298
0.00470577
0.00473911
0.00474952
0.00475232
0.00475283
0.00475269
0.00475241
0.00475219
0.00475207
0.00475202
0.004752
0.00475199
0.00475197
0.00475196
0.00475196
0.00475197
0.00475199
0.00475201
0.00475203
0.00475207
0.00475216
0.00475221
0.0047518
0.0047492
0.00473898
0.00470576
0.00461306
0.00439374
0.00398321
0.00384819
0.00406508
0.00417571
0.00461305
0.00485583
0.0049628
0.00500288
0.00501581
0.00501916
0.0050193
0.00501839
0.00501733
0.00501667
0.0050164
0.00501635
0.00501636
0.00501637
0.00501635
0.00501633
0.00501633
0.00501635
0.00501638
0.00501638
0.00501637
0.00501641
0.00501663
0.00501707
0.00501718
0.00501453
0.00500227
0.00496264
0.00485591
0.00461325
0.00417592
0.00406528
0.00414048
0.00425065
0.00470589
0.00496286
0.00507832
0.00512235
0.0051364
0.00513907
0.00513717
0.00513337
0.0051297
0.00512768
0.00512711
0.00512711
0.00512717
0.00512722
0.00512717
0.00512712
0.00512712
0.00512718
0.00512723
0.00512719
0.00512713
0.00512713
0.00512763
0.00512938
0.00513195
0.00513165
0.00511992
0.0050774
0.00496271
0.00470607
0.00425089
0.00414075
0.00416345
0.00427549
0.00473925
0.00500296
0.00512238
0.00516783
0.005181
0.00518014
0.00517161
0.00515903
0.00514789
0.00514269
0.00514229
0.0051429
0.00514313
0.00514353
0.00514351
0.00514338
0.00514339
0.00514352
0.00514355
0.00514316
0.00514293
0.00514231
0.00514264
0.00514755
0.0051575
0.00516569
0.00515983
0.00511906
0.00500195
0.00473918
0.00427569
0.00416374
0.00416968
0.00428268
0.00474966
0.00501591
0.00513649
0.00518111
0.00519016
0.00517951
0.00515341
0.00511795
0.00508893
0.00507723
0.00508075
0.00508458
0.00508523
0.00508757
0.00508809
0.00508794
0.00508794
0.00508811
0.00508759
0.00508527
0.00508463
0.00508078
0.00507719
0.00508857
0.00511635
0.00514731
0.00515869
0.00512699
0.00501265
0.00474888
0.00428268
0.00416986
0.00417118
0.00428449
0.00475245
0.00501931
0.00513936
0.00518075
0.0051804
0.00514825
0.00508321
0.00499771
0.00493725
0.00490643
0.00492724
0.00494234
0.00494276
0.00495297
0.00495587
0.00495597
0.00495598
0.00495589
0.004953
0.0049428
0.0049424
0.0049273
0.0049064
0.00493687
0.00499606
0.005077
0.00512721
0.00511672
0.00501131
0.00475017
0.00428404
0.00417106
0.00417145
0.00428484
0.00475298
0.00501962
0.00513804
0.00517375
0.00515757
0.00508864
0.00495587
0.00479071
0.00475302
0.0045893
0.00465566
0.00470152
0.00469697
0.00473139
0.00474081
0.0047419
0.00474191
0.00474084
0.00473144
0.00469703
0.00470162
0.00465577
0.00458932
0.00475259
0.00478896
0.00494952
0.00506738
0.00509358
0.00500386
0.00474823
0.00428364
0.00417078
0.00417141
0.00428482
0.00475292
0.00501911
0.00513559
0.00516484
0.00513062
0.00502035
0.00482075
0.00467641
0.00623068
0.00417006
0.00428587
0.00439833
0.00438238
0.00446467
0.00448628
0.00448954
0.00448956
0.00448632
0.00446474
0.00438246
0.00439847
0.00428606
0.00417008
0.00622927
0.00467421
0.00481406
0.00499876
0.00506628
0.00499458
0.00474539
0.00428274
0.00417004
0.0041713
0.00428473
0.00475281
0.0050188
0.00513436
0.0051605
0.0051183
0.00499824
0.00487789
0.00662302
0.00477844
0.0040033
0.00417885
0.00427856
0.00427386
0.00426772
0.00426593
0.00426593
0.00426774
0.0042739
0.00427863
0.00417898
0.00400348
0.00477894
0.006616
0.00487056