/*--------------------------------*- C++ -*----------------------------------*\
| =========                 |                                                 |
| \\      /  F ield         | OpenFOAM: The Open Source CFD Toolbox           |
|  \\    /   O peration     | Version:  2112                                  |
|   \\  /    A nd           | Website:  www.openfoam.com                      |
|    \\/     M anipulation  |                                                 |
\*---------------------------------------------------------------------------*/
FoamFile
{
    version     2.0;
    format      ascii;
    arch        "LSB;label=32;scalar=64";
    class       volScalarField;
    location    "1.7";
    object      k;
}
// * * * * * * * * * * * * * * * * * * * * * * * * * * * * * * * * * * * * * //

dimensions      [0 2 -2 0 0 0 0];

internalField   nonuniform List<scalar> 
64906
(
0.00123899
0.00131522
0.00135141
0.00136353
0.00136699
0.00136787
0.00136809
0.00136816
0.00136819
0.00136821
0.00136823
0.00136825
0.00136826
0.00136827
0.00136826
0.00136826
0.00136825
0.00136824
0.00136824
0.00136824
0.00136825
0.00136825
0.00136825
0.00136825
0.00136824
0.00136822
0.00136819
0.00136813
0.00136791
0.00136703
0.00136357
0.00135145
0.00131526
0.00123902
0.00131524
0.00181062
0.00202362
0.00210173
0.00212738
0.00213491
0.00213691
0.00213742
0.00213757
0.00213763
0.00213768
0.00213772
0.00213777
0.0021378
0.00213783
0.00213786
0.00213787
0.00213788
0.00213788
0.00213787
0.00213786
0.00213784
0.00213781
0.00213777
0.00213773
0.00213767
0.00213753
0.00213703
0.00213503
0.0021275
0.00210184
0.00202374
0.00181072
0.0013153
0.00135147
0.00202369
0.0023297
0.00245089
0.0024942
0.00250802
0.002512
0.00251307
0.00251336
0.00251345
0.00251352
0.00251362
0.00251375
0.00251387
0.00251398
0.00251407
0.00251412
0.00251415
0.00251415
0.00251413
0.00251408
0.002514
0.0025139
0.00251377
0.00251364
0.0025135
0.00251321
0.00251218
0.00250823
0.00249442
0.0024511
0.0023299
0.00202386
0.00135157
0.00136362
0.00210185
0.00245095
0.00259555
0.00264972
0.00266783
0.00267325
0.00267468
0.00267491
0.00267478
0.00267464
0.00267469
0.00267488
0.00267511
0.00267533
0.00267547
0.00267555
0.00267559
0.00267559
0.00267556
0.00267549
0.00267535
0.00267515
0.00267492
0.00267472
0.0026746
0.00267442
0.0026732
0.00266797
0.00264997
0.00259583
0.00245123
0.00210208
0.00136375
0.00136709
0.00212753
0.0024943
0.00264976
0.00270943
0.00272983
0.00273592
0.00273717
0.00273661
0.0027353
0.0027341
0.0027338
0.00273404
0.00273447
0.00273485
0.00273504
0.00273512
0.00273516
0.00273516
0.00273514
0.00273507
0.00273489
0.00273452
0.00273409
0.00273384
0.00273406
0.00273487
0.00273459
0.00272938
0.00270949
0.00265003
0.00249462
0.00212781
0.00136724
0.00136799
0.00213507
0.00250813
0.00266788
0.00272984
0.00275107
0.0027569
0.00275669
0.00275313
0.00274752
0.00274254
0.00274136
0.00274201
0.00274309
0.00274393
0.00274415
0.00274413
0.00274411
0.00274412
0.00274415
0.00274419
0.00274398
0.00274314
0.00274207
0.00274141
0.0027425
0.00274705
0.00275097
0.00274841
0.00272906
0.00266792
0.00250843
0.00213537
0.00136816
0.00136821
0.00213707
0.0025121
0.00267329
0.00273593
0.00275692
0.002761
0.00275618
0.00274344
0.0027243
0.00270761
0.00270623
0.00270993
0.0027136
0.00271591
0.00271619
0.00271593
0.00271577
0.00271577
0.00271595
0.00271623
0.00271597
0.00271367
0.00271
0.00270629
0.00270757
0.00272384
0.00274124
0.00274774
0.00273266
0.00267256
0.00251223
0.00213737
0.0013684
0.00136827
0.00213756
0.00251314
0.0026747
0.00273719
0.00275681
0.00275643
0.00274009
0.00270312
0.00264551
0.00259403
0.00260324
0.00262232
0.00263508
0.00264153
0.00264225
0.00264173
0.00264143
0.00264143
0.00264176
0.0026423
0.0026416
0.00263516
0.00262241
0.00260332
0.002594
0.00264507
0.00270096
0.00273165
0.00272798
0.00267212
0.00251281
0.0021378
0.00136847
0.0013683
0.00213767
0.00251339
0.00267493
0.00273676
0.0027537
0.00274474
0.00270492
0.00261309
0.0024533
0.00229245
0.00237469
0.00245364
0.00249247
0.00250799
0.0025107
0.00251064
0.00251047
0.00251048
0.00251067
0.00251075
0.00250806
0.00249256
0.00245376
0.00237481
0.00229243
0.00245292
0.00261101
0.00269657
0.00271635
0.00266897
0.00251221
0.00213776
0.0013685
0.00136831
0.00213769
0.00251345
0.00267485
0.00273582
0.00274932
0.00272867
0.00265307
0.00246109
0.00205303
0.00154732
0.00194562
0.00220547
0.00230066
0.00232982
0.00233745
0.00233916
0.0023395
0.00233951
0.00233919
0.0023375
0.0023299
0.00230077
0.00220563
0.00194583
0.00154729
0.00205274
0.00245911
0.00264482
0.00270034
0.0026646
0.00251121
0.00213757
0.00136852
0.00136831
0.00213769
0.0025135
0.00267487
0.00273542
0.00274699
0.00271884
0.00261562
0.00232075
0.00155978
0.00149709
0.00199902
0.00215358
0.00219409
0.00220336
0.00220511
0.00220538
0.00220538
0.00220512
0.00220338
0.00219413
0.00215366
0.00199917
0.00149721
0.00155964
0.00231884
0.00260741
0.00269051
0.00266222
0.00251072
0.00213745
0.00136852
0.0013683
0.00213768
0.00251359
0.00267518
0.00273634
0.00274996
0.00272915
0.00265257
0.00245791
0.00204429
0.00153968
0.0019039
0.00215079
0.00223944
0.00226528
0.00227044
0.00227053
0.00227023
0.00227022
0.00227052
0.00227042
0.00226526
0.00223942
0.00215079
0.00190383
0.0015395
0.00204369
0.00245576
0.00264421
0.00270071
0.00266505
0.00251145
0.00213754
0.00136852
0.00136829
0.00213767
0.00251371
0.00267561
0.0027378
0.00275491
0.00274547
0.00270328
0.00260476
0.00243029
0.0022435
0.00227833
0.00231331
0.0023295
0.00233485
0.00233504
0.00233419
0.00233371
0.0023337
0.00233417
0.002335
0.00233479
0.00232942
0.0023132
0.00227814
0.00224313
0.00242961
0.0026025
0.00269478
0.00271687
0.00266982
0.0025127
0.00213775
0.00136851
0.00136827
0.00213766
0.00251381
0.00267599
0.00273903
0.00275888
0.00275766
0.00273752
0.00268974
0.00260791
0.00251162
0.00245272
0.00240329
0.0023811
0.0023734
0.00237043
0.00236913
0.00236863
0.00236862
0.0023691
0.00237038
0.00237333
0.002381
0.00240315
0.00245253
0.00251129
0.00260723
0.00268741
0.00272892
0.00272893
0.00267362
0.00251374
0.00213791
0.00136849
0.00136824
0.00213764
0.00251388
0.00267625
0.00273979
0.00276115
0.0027642
0.00275449
0.00272777
0.00267738
0.00260373
0.00252018
0.00244111
0.00240331
0.0023897
0.00238518
0.0023836
0.00238303
0.00238302
0.00238356
0.00238512
0.00238962
0.0024032
0.00244097
0.00251992
0.00260343
0.00267671
0.00272541
0.00274582
0.00273536
0.00267578
0.00251436
0.002138
0.00136845
0.00136821
0.00213762
0.00251393
0.0026764
0.00274019
0.00276224
0.00276706
0.00276141
0.00274215
0.00270149
0.00263334
0.00254295
0.00245429
0.00241115
0.0023954
0.00239025
0.00238848
0.00238783
0.00238781
0.00238843
0.00239018
0.00239531
0.00241103
0.00245415
0.0025427
0.00263305
0.00270082
0.00273978
0.00275271
0.00273818
0.00267679
0.00251466
0.00213803
0.00136841
0.00136818
0.00213761
0.00251396
0.00267648
0.00274039
0.0027627
0.00276816
0.00276388
0.00274692
0.00270898
0.00264207
0.00254979
0.00245828
0.00241354
0.00239712
0.00239174
0.00238986
0.00238911
0.00238908
0.0023898
0.00239166
0.00239703
0.00241343
0.00245814
0.00254955
0.00264179
0.00270832
0.00274455
0.00275516
0.00273925
0.00267721
0.0025148
0.00213804
0.00136836
0.00136815
0.00213759
0.00251397
0.00267653
0.00274048
0.00276288
0.00276854
0.00276464
0.00274831
0.00271103
0.00264436
0.00255161
0.00245934
0.00241419
0.00239758
0.00239211
0.00239016
0.00238932
0.00238929
0.00239009
0.00239203
0.00239748
0.00241407
0.0024592
0.00255136
0.00264409
0.00271037
0.00274594
0.00275593
0.00273962
0.00267737
0.00251486
0.00213803
0.00136832
0.00136813
0.00213759
0.00251398
0.00267655
0.0027405
0.00276291
0.00276859
0.0027647
0.00274838
0.00271111
0.00264445
0.0025517
0.0024594
0.00241422
0.00239759
0.0023921
0.00239012
0.00238923
0.00238919
0.00239004
0.00239201
0.00239749
0.0024141
0.00245926
0.00255146
0.00264419
0.00271047
0.00274602
0.00275599
0.00273967
0.00267741
0.00251488
0.00213803
0.00136828
0.00136812
0.0021376
0.00251398
0.00267654
0.00274047
0.0027628
0.0027683
0.00276405
0.00274715
0.00270925
0.00264237
0.00255009
0.00245847
0.00241366
0.00239717
0.00239172
0.00238975
0.00238887
0.00238882
0.00238967
0.00239163
0.00239707
0.00241354
0.00245833
0.00254986
0.00264212
0.00270862
0.0027448
0.00275536
0.00273941
0.00267732
0.00251486
0.00213804
0.00136828
0.00136815
0.00213761
0.00251398
0.00267649
0.00274032
0.00276241
0.00276729
0.00276172
0.00274254
0.00270198
0.0026339
0.00254352
0.00245464
0.00241137
0.00239552
0.00239025
0.00238835
0.00238753
0.00238749
0.00238826
0.00239016
0.00239542
0.00241126
0.00245451
0.00254332
0.00263367
0.00270138
0.00274023
0.00275306
0.00273844
0.00267697
0.00251477
0.00213804
0.00136832
0.00136818
0.00213764
0.00251395
0.00267637
0.00273998
0.0027614
0.00276453
0.00275494
0.00272837
0.00267818
0.00260469
0.00252116
0.00244171
0.00240371
0.00238995
0.00238527
0.00238352
0.0023828
0.00238277
0.00238344
0.00238518
0.00238986
0.00240362
0.0024416
0.00252101
0.00260451
0.00267762
0.00272611
0.00274634
0.00273575
0.00267604
0.00251451
0.00213802
0.00136837
0.00136821
0.00213766
0.0025139
0.00267616
0.00273927
0.00275921
0.00275811
0.00273814
0.00269061
0.00260914
0.0025132
0.00245422
0.00240422
0.00238173
0.00237381
0.00237066
0.0023692
0.00236859
0.00236856
0.00236915
0.00237059
0.00237374
0.00238167
0.00240417
0.00245417
0.0025131
0.00260866
0.00268843
0.00272964
0.00272944
0.00267397
0.00251394
0.00213796
0.00136841
0.00136824
0.00213768
0.00251382
0.00267582
0.0027381
0.00275532
0.00274602
0.00270406
0.00260592
0.00243203
0.00224597
0.00228027
0.00231438
0.00233012
0.00233519
0.0023352
0.00233423
0.00233367
0.00233366
0.00233419
0.00233514
0.00233513
0.00233006
0.00231438
0.00228039
0.00224599
0.00243168
0.00260386
0.00269569
0.00271751
0.00267026
0.00251296
0.00213781
0.00136844
0.00136825
0.0021377
0.00251372
0.00267541
0.00273667
0.00275042
0.00272978
0.00265345
0.00245923
0.00204634
0.00154101
0.00190501
0.00215033
0.00223835
0.00226377
0.0022687
0.00226868
0.00226831
0.0022683
0.00226864
0.00226862
0.0022636
0.00223809
0.00215008
0.00190518
0.00154093
0.00204615
0.00245726
0.0026452
0.00270141
0.00266554
0.00251174
0.00213763
0.00136845
0.00136827
0.0021377
0.00251361
0.00267507
0.00273573
0.00274741
0.00271938
0.00261626
0.0023214
0.00155999
0.00149444
0.00199204
0.00214405
0.0021828
0.00219135
0.00219282
0.00219297
0.00219293
0.00219268
0.00219099
0.00218198
0.00214239
0.00198954
0.00149303
0.00155953
0.00231918
0.00260792
0.00269107
0.00266268
0.002511
0.00213753
0.00136846
0.00136826
0.00213762
0.00251337
0.00267477
0.0027358
0.00274942
0.0027289
0.00265337
0.00246132
0.00205297
0.00154672
0.00193269
0.00218136
0.00226424
0.00228579
0.00229108
0.00229229
0.00229251
0.00229244
0.00229198
0.00229009
0.00228293
0.00225748
0.00216948
0.00192268
0.00154378
0.00204991
0.00245767
0.00264445
0.00270044
0.00266478
0.00251133
0.00213757
0.00136846
0.00136822
0.00213718
0.00251239
0.00267354
0.00273521
0.00275215
0.00274324
0.00270319
0.00261025
0.00244708
0.00227758
0.00233877
0.00238766
0.0023921
0.00238825
0.00238589
0.00238512
0.0023849
0.00238479
0.00238456
0.00238383
0.00238157
0.00237454
0.00235377
0.00230724
0.00225743
0.00243574
0.00260316
0.00269303
0.00271451
0.00266777
0.00251142
0.00213735
0.00136843
0.00136801
0.00213522
0.0025085
0.00266835
0.00272992
0.00274919
0.00274864
0.00273168
0.00269231
0.00262752
0.00255841
0.00253172
0.00249557
0.00244658
0.00242273
0.0024144
0.002412
0.00241139
0.00241125
0.00241125
0.0024115
0.00241273
0.00241773
0.00243419
0.00247426
0.00252047
0.00260718
0.00268154
0.00272036
0.00271999
0.00266588
0.00250838
0.00213557
0.00136822
0.00136713
0.00212773
0.00249472
0.00265038
0.00271004
0.00272977
0.00273332
0.00272765
0.00271198
0.00268424
0.00264681
0.00260463
0.00254603
0.00248232
0.00245218
0.00244181
0.00243887
0.00243815
0.00243801
0.00243808
0.00243866
0.0024412
0.00245055
0.00247878
0.00254093
0.00260428
0.00266151
0.00270039
0.00271651
0.00270598
0.00264978
0.00249509
0.00212816
0.00136733
0.00136367
0.00210207
0.00245142
0.00259626
0.00265059
0.00266865
0.00267331
0.00267225
0.00266639
0.00265405
0.00263299
0.00260079
0.00255534
0.0025079
0.00248337
0.0024743
0.00247167
0.00247106
0.00247095
0.00247101
0.00247155
0.00247403
0.00248277
0.00250684
0.00255414
0.00260114
0.00263686
0.00265749
0.00266308
0.0026494
0.00259653
0.00245199
0.00210252
0.00136387
0.00135154
0.00202394
0.00233019
0.00245162
0.00249515
0.00250914
0.00251307
0.00251348
0.00251167
0.00250672
0.00249667
0.00247927
0.00245429
0.00242851
0.00241412
0.0024084
0.00240665
0.00240623
0.00240616
0.00240621
0.0024066
0.0024083
0.00241392
0.00242821
0.00245397
0.00247933
0.0024974
0.00250672
0.00250746
0.00249527
0.00245224
0.00233079
0.00202436
0.00135172
0.00131533
0.00181087
0.00202408
0.00210237
0.00212822
0.00213594
0.00213811
0.00213865
0.0021384
0.00213704
0.0021337
0.00212731
0.00211782
0.00210781
0.00210189
0.00209938
0.00209856
0.00209834
0.0020983
0.00209834
0.00209856
0.00209938
0.00210186
0.00210775
0.00211775
0.00212731
0.00213375
0.00213667
0.00213601
0.00212878
0.00210298
0.00202458
0.0018112
0.00131547
0.00123906
0.00131536
0.00135165
0.00136387
0.00136742
0.00136841
0.00136875
0.00136894
0.00136908
0.00136914
0.00136903
0.00136858
0.00136775
0.00136674
0.00136611
0.00136578
0.00136561
0.0013655
0.00136545
0.00136551
0.00136562
0.00136578
0.00136609
0.00136671
0.0013677
0.00136852
0.00136896
0.00136903
0.00136877
0.00136777
0.00136417
0.00135189
0.00131553
0.00123917
0.00174775
0.00208254
0.00224751
0.00230952
0.00232972
0.00233555
0.00233706
0.00233742
0.00233751
0.00233753
0.00233752
0.00233752
0.00233751
0.00233749
0.00233748
0.00233747
0.00233746
0.00233745
0.00233745
0.00233746
0.00233746
0.00233747
0.00233749
0.0023375
0.0023375
0.0023375
0.00233742
0.00233707
0.00233557
0.00232974
0.00230955
0.00224754
0.00208257
0.00174778
0.00208254
0.00372948
0.00432145
0.00455778
0.00464407
0.00467211
0.0046802
0.00468225
0.00468264
0.0046826
0.00468245
0.00468229
0.00468215
0.00468205
0.00468197
0.00468191
0.00468187
0.00468184
0.00468184
0.00468187
0.00468191
0.00468198
0.00468205
0.00468215
0.00468226
0.00468232
0.00468199
0.00468003
0.00467201
0.00464401
0.00455774
0.00432142
0.00372946
0.00208257
0.00224756
0.00432158
0.00509875
0.00542949
0.00555913
0.00560449
0.00561858
0.00562239
0.00562311
0.00562294
0.00562258
0.00562232
0.00562219
0.00562216
0.00562217
0.00562216
0.00562214
0.00562214
0.00562214
0.00562215
0.00562217
0.00562218
0.00562218
0.0056222
0.00562228
0.00562233
0.00562174
0.00561819
0.00560434
0.00555913
0.00542956
0.00509883
0.00432166
0.00224764
0.00230963
0.004558
0.00542961
0.00581496
0.00597228
0.00602964
0.00604805
0.00605285
0.0060531
0.00605182
0.00605035
0.00604944
0.00604911
0.00604912
0.00604923
0.00604925
0.00604922
0.0060492
0.0060492
0.00604924
0.00604928
0.00604926
0.00604916
0.00604914
0.0060494
0.00604998
0.00605011
0.0060463
0.00602883
0.00597207
0.00581503
0.00542976
0.00455816
0.00230975
0.00232986
0.00464435
0.00555931
0.00597236
0.00614469
0.00620871
0.00622904
0.00623292
0.00623016
0.00622455
0.00621905
0.00621607
0.00621513
0.00621524
0.00621556
0.00621552
0.00621533
0.00621521
0.00621522
0.00621535
0.00621555
0.0062156
0.00621529
0.00621517
0.00621603
0.00621861
0.00622249
0.00622216
0.00620523
0.00614336
0.00597208
0.00555942
0.00464453
0.00233001
0.0023357
0.0046724
0.00560469
0.00602975
0.00620876
0.00627517
0.00629428
0.00629293
0.00628012
0.00626079
0.00624313
0.00623536
0.00623396
0.00623506
0.00623625
0.00623604
0.00623537
0.00623497
0.00623498
0.0062354
0.00623608
0.0062363
0.00623512
0.00623401
0.00623532
0.00624266
0.00625857
0.00627152
0.00626342
0.0062039
0.00602822
0.00560444
0.00467251
0.00233587
0.00233722
0.00468046
0.00561877
0.00604817
0.00622915
0.00629443
0.00630741
0.00629113
0.00625062
0.00619285
0.00614228
0.0061281
0.00613113
0.00613767
0.00614222
0.00614193
0.00614036
0.00613944
0.00613945
0.00614039
0.00614198
0.00614228
0.00613774
0.0061312
0.00612808
0.00614183
0.0061906
0.00624181
0.0062609
0.00621512
0.00604336
0.00561753
0.00468033
0.00233739
0.00233758
0.00468248
0.00562256
0.00605303
0.00623328
0.00629374
0.00629235
0.00624193
0.00613488
0.0059784
0.00584269
0.00583781
0.0058708
0.00589801
0.00591269
0.00591358
0.00591118
0.00590974
0.00590975
0.00591121
0.00591363
0.00591276
0.0058981
0.0058709
0.00583783
0.00584227
0.0059762
0.00612607
0.0062115
0.00619942
0.00604125
0.00561919
0.00468178
0.0023377
0.00233765
0.00468283
0.00562329
0.00605349
0.00623132
0.00628305
0.00625625
0.00614187
0.00589642
0.00549908
0.00512118
0.00523945
0.0053977
0.00548565
0.00552287
0.00552982
0.0055289
0.00552785
0.00552786
0.00552893
0.00552987
0.00552295
0.00548576
0.00539785
0.00523955
0.00512082
0.00549699
0.00588768
0.00611141
0.0061631
0.00603005
0.00561639
0.00468119
0.00233766
0.00233765
0.00468275
0.0056232
0.00605276
0.00622761
0.00626891
0.00621007
0.00600625
0.00552793
0.00455092
0.00299326
0.00415047
0.00472929
0.00495055
0.00502113
0.00504415
0.00504926
0.00504996
0.00504997
0.00504929
0.0050442
0.00502122
0.00495069
0.00472952
0.00415078
0.00299298
0.00454897
0.0055192
0.00597569
0.0061167
0.00601558
0.00561225
0.00467998
0.00233751
0.00233763
0.00468259
0.00562306
0.00605234
0.00622569
0.00626137
0.00618361
0.00591827
0.00522532
0.00306235
0.00273634
0.0041811
0.00454026
0.00464352
0.00466771
0.00467191
0.00467234
0.00467235
0.00467192
0.00466774
0.00464357
0.00454038
0.00418137
0.00273655
0.00306096
0.00521648
0.00588748
0.00608997
0.00600772
0.00560994
0.00467914
0.0023374
0.00233759
0.00468244
0.00562312
0.00605291
0.00622784
0.00626873
0.00620822
0.00599988
0.0055116
0.00451445
0.00294752
0.0040109
0.00456585
0.00477804
0.00485355
0.00485855
0.00485506
0.00485328
0.00485327
0.00485502
0.00485848
0.00485348
0.00477796
0.00456578
0.0040107
0.00294688
0.00451198
0.00550257
0.00596906
0.0061145
0.00601487
0.00561174
0.00467926
0.0023374
0.00233755
0.00468233
0.00562331
0.00605404
0.00623206
0.00628288
0.00625229
0.00612729
0.00585707
0.00540849
0.00493882
0.00492486
0.00496263
0.00499109
0.0050056
0.00500313
0.00499949
0.00499785
0.00499784
0.00499945
0.00500306
0.0050055
0.00499094
0.0049624
0.00492445
0.00493798
0.00540595
0.00584798
0.00609645
0.00615851
0.00602885
0.00561564
0.00467998
0.00233747
0.00233751
0.00468224
0.00562351
0.00605509
0.00623581
0.00629496
0.00628766
0.00622029
0.00607308
0.00583476
0.00555795
0.00535914
0.00519717
0.00512388
0.00509951
0.0050904
0.0050868
0.00508558
0.00508557
0.00508678
0.00509035
0.00509942
0.00512373
0.00519694
0.00535879
0.00555719
0.00583225
0.00606395
0.00618937
0.00619375
0.00604072
0.00561908
0.00468064
0.00233751
0.00233747
0.00468216
0.00562363
0.00605577
0.00623817
0.00630223
0.00630782
0.00626976
0.00617737
0.00601525
0.00578933
0.00553847
0.00530376
0.00518694
0.00514479
0.00513167
0.00512785
0.00512683
0.00512682
0.00512783
0.00513164
0.00514472
0.0051868
0.00530355
0.00553821
0.00578864
0.00601276
0.00616821
0.00623875
0.00621378
0.00604778
0.00562118
0.00468103
0.00233751
0.00233743
0.0046821
0.00562369
0.00605613
0.00623937
0.00630573
0.00631706
0.0062912
0.00621966
0.00608293
0.00587054
0.00560326
0.00534375
0.00521109
0.00516225
0.00514743
0.00514345
0.0051425
0.0051425
0.00514343
0.0051474
0.00516219
0.00521096
0.00534356
0.00560302
0.00586988
0.00608045
0.00621048
0.00626013
0.00622291
0.00605114
0.00562219
0.00468119
0.00233748
0.00233739
0.00468205
0.00562371
0.0060563
0.0062399
0.00630716
0.00632065
0.00629914
0.00623451
0.00610539
0.00589624
0.00562378
0.0053566
0.00521891
0.00516793
0.00515253
0.00514848
0.00514756
0.00514756
0.00514847
0.00515251
0.00516788
0.00521879
0.00535641
0.00562355
0.0058956
0.00610292
0.00622531
0.00626804
0.00622645
0.00605249
0.0056226
0.00468123
0.00233744
0.00233736
0.00468203
0.00562372
0.00605637
0.0062401
0.00630766
0.00632182
0.00630158
0.00623888
0.00611172
0.00590322
0.0056293
0.00536009
0.00522105
0.00516949
0.00515392
0.00514985
0.00514892
0.00514892
0.00514983
0.00515389
0.00516943
0.00522093
0.0053599
0.00562908
0.00590258
0.00610925
0.00622968
0.00627047
0.00622759
0.00605294
0.00562275
0.00468124
0.0023374
0.00233735
0.00468202
0.00562373
0.00605639
0.00624013
0.0063077
0.00632187
0.00630165
0.00623896
0.00611181
0.00590331
0.00562939
0.00536018
0.00522112
0.00516953
0.00515395
0.00514987
0.00514894
0.00514893
0.00514985
0.00515392
0.00516947
0.005221
0.00536001
0.00562918
0.00590268
0.00610935
0.00622977
0.00627055
0.00622765
0.00605298
0.00562276
0.00468123
0.00233738
0.00233735
0.00468204
0.00562373
0.00605636
0.00623998
0.00630729
0.00632081
0.00629934
0.00623476
0.00610569
0.00589656
0.00562409
0.00535693
0.00521914
0.00516809
0.00515265
0.00514858
0.00514764
0.00514764
0.00514857
0.00515263
0.00516804
0.00521904
0.00535676
0.00562389
0.00589594
0.00610325
0.0062256
0.00626827
0.00622662
0.0060526
0.00562266
0.00468122
0.00233738
0.00233737
0.00468208
0.00562372
0.00605622
0.00623952
0.00630594
0.00631734
0.00629157
0.00622014
0.00608351
0.00587118
0.00560391
0.00534443
0.00521161
0.00516265
0.00514778
0.00514377
0.00514282
0.00514281
0.00514377
0.00514777
0.00516262
0.00521153
0.0053443
0.00560373
0.0058706
0.00608111
0.00621102
0.00626055
0.00622322
0.00605133
0.00562228
0.00468118
0.0023374
0.00233741
0.00468214
0.00562368
0.0060559
0.00623839
0.00630253
0.00630823
0.00627033
0.00617814
0.00601626
0.00579055
0.00553973
0.00530502
0.00518797
0.00514567
0.00513251
0.00512868
0.00512767
0.00512767
0.00512869
0.00513253
0.00514568
0.00518794
0.00530495
0.00553962
0.00579002
0.00601393
0.0061691
0.0062394
0.00621423
0.00604807
0.00562131
0.00468102
0.00233743
0.00233745
0.00468221
0.00562357
0.00605526
0.00623609
0.00629536
0.00628822
0.00622109
0.00607425
0.00583646
0.00556017
0.00536138
0.00519924
0.0051256
0.00510107
0.00509196
0.00508842
0.00508723
0.00508725
0.00508846
0.00509203
0.00510114
0.00512566
0.00519929
0.0053614
0.00555976
0.00583423
0.00606532
0.00619029
0.00619437
0.0060411
0.00561925
0.00468063
0.00233742
0.00233749
0.00468229
0.00562339
0.00605424
0.00623239
0.00628336
0.00625297
0.00612831
0.00585866
0.00541106
0.00494262
0.00492848
0.004965
0.00499276
0.00500702
0.00500461
0.00500109
0.00499953
0.00499956
0.00500116
0.00500472
0.00500713
0.00499283
0.00496508
0.00492868
0.00494238
0.00540898
0.0058498
0.00609757
0.00615924
0.0060293
0.00561584
0.00467995
0.00233737
0.00233752
0.00468237
0.00562316
0.00605308
0.00622815
0.0062692
0.00620889
0.00600088
0.00551323
0.00451752
0.0029507
0.0040129
0.00456408
0.0047744
0.00484894
0.00485373
0.0048503
0.00484861
0.00484863
0.00485035
0.00485372
0.00484869
0.00477367
0.00456304
0.00401288
0.00295043
0.00451554
0.00550413
0.00596995
0.00611512
0.00601527
0.0056119
0.00467919
0.0023373
0.00233754
0.0046824
0.00562289
0.00605221
0.00622566
0.00626145
0.0061838
0.0059185
0.00522545
0.00306173
0.00272517
0.00415673
0.00450708
0.00460448
0.00462684
0.00463072
0.00463113
0.00463107
0.00463046
0.00462597
0.00460199
0.00450142
0.00414748
0.00271848
0.00305843
0.00521475
0.00588668
0.00608975
0.00600766
0.00560984
0.00467891
0.00233728
0.0023375
0.00468207
0.00562209
0.00605131
0.006226
0.00626724
0.00620829
0.00600393
0.0055241
0.00454379
0.00298011
0.00409608
0.00464111
0.00482607
0.00487394
0.00489105
0.00489565
0.00489651
0.00489634
0.00489483
0.00488816
0.00486516
0.00480449
0.00460217
0.00405641
0.00296217
0.00452824
0.00550779
0.00596992
0.00611375
0.00601384
0.00561107
0.00467917
0.00233732
0.00233717
0.00468013
0.00561846
0.00604697
0.00622377
0.00627492
0.00624743
0.00613111
0.00588007
0.00546803
0.00505485
0.00510642
0.0051747
0.00516515
0.00514635
0.00513927
0.00513714
0.00513648
0.00513617
0.00513548
0.00513302
0.00512614
0.00511188
0.00507315
0.00500352
0.00498169
0.00542565
0.00585223
0.00609297
0.00615219
0.00602266
0.00561134
0.00467829
0.00233713
0.00233567
0.00467214
0.0056046
0.00602929
0.00620604
0.00626459
0.00626156
0.00620748
0.00609011
0.0059069
0.00571119
0.00559657
0.00547046
0.00532535
0.0052508
0.00522424
0.00521654
0.0052146
0.00521416
0.00521415
0.00521483
0.00521892
0.00523678
0.0052937
0.00542585
0.00559125
0.00583845
0.00605069
0.00616562
0.0061668
0.00601608
0.00560085
0.0046712
0.00233575
0.00232986
0.00464416
0.00555939
0.00597246
0.00614391
0.00620437
0.00621436
0.00619342
0.0061406
0.00605159
0.00593262
0.00579434
0.00561773
0.00543387
0.00534091
0.00530734
0.00529746
0.00529495
0.00529447
0.00529478
0.00529683
0.00530549
0.0053362
0.00542464
0.00560798
0.0058013
0.00597633
0.00609852
0.00615219
0.00612397
0.00596609
0.00555774
0.00464376
0.00233
0.00230965
0.00455787
0.00542979
0.00581538
0.00597253
0.00602859
0.00604275
0.00603672
0.00601352
0.00596848
0.00589541
0.00578879
0.00564795
0.0055075
0.00543143
0.00540189
0.00539254
0.00539001
0.00538952
0.00538998
0.00539241
0.00540142
0.00543019
0.00550529
0.00564639
0.00579288
0.00590891
0.00597968
0.006002
0.00596307
0.00581267
0.00542923
0.00455774
0.0023098
0.00224761
0.0043215
0.00509899
0.00543002
0.00555979
0.00560483
0.00561744
0.00561698
0.00560748
0.00558605
0.00554663
0.00548343
0.00539852
0.00531465
0.00526613
0.00524582
0.00523892
0.00523693
0.00523654
0.00523696
0.00523897
0.00524581
0.00526597
0.00531434
0.00539855
0.00548507
0.00555016
0.00558649
0.00559267
0.00555587
0.00542912
0.0050989
0.00432144
0.00224774
0.00208261
0.00372946
0.00432171
0.00455829
0.00464477
0.00467283
0.00468055
0.00468125
0.00467798
0.00466953
0.00465262
0.00462384
0.00458424
0.00454457
0.00452056
0.00450994
0.0045061
0.00450491
0.00450467
0.00450498
0.00450625
0.00451013
0.00452076
0.00454479
0.00458459
0.00462459
0.00465351
0.00466845
0.00466846
0.00464357
0.00455815
0.00432176
0.0037294
0.00208271
0.00174782
0.00208261
0.0022477
0.00230986
0.00233018
0.00233612
0.00233772
0.00233805
0.00233776
0.00233665
0.00233404
0.00232913
0.00232188
0.00231429
0.00230971
0.00230769
0.00230693
0.00230667
0.00230661
0.00230669
0.00230696
0.00230772
0.00230974
0.0023143
0.00232189
0.00232917
0.00233409
0.00233635
0.00233591
0.00233036
0.0023101
0.00224788
0.00208271
0.00174791
0.00187492
0.00236736
0.00262108
0.00272266
0.00275825
0.00276929
0.00277236
0.00277312
0.00277327
0.00277327
0.00277323
0.00277319
0.00277314
0.00277311
0.00277308
0.00277305
0.00277303
0.00277302
0.00277302
0.00277303
0.00277305
0.00277307
0.0027731
0.00277313
0.00277317
0.00277318
0.00277305
0.00277231
0.00276927
0.00275824
0.00272266
0.00262108
0.00236737
0.00187494
0.00236736
0.0045059
0.00528659
0.0056156
0.0057436
0.00578805
0.00580173
0.0058054
0.00580611
0.00580599
0.00580565
0.00580529
0.00580499
0.00580477
0.0058046
0.00580447
0.00580438
0.00580433
0.00580433
0.00580438
0.00580447
0.0058046
0.00580476
0.00580497
0.00580521
0.00580535
0.00580476
0.00580127
0.00578773
0.00574338
0.00561542
0.00528644
0.00450579
0.00236736
0.00262113
0.00528675
0.00628925
0.00673583
0.00692114
0.00699005
0.00701276
0.00701917
0.00702033
0.00701984
0.00701897
0.00701821
0.00701773
0.00701747
0.00701734
0.00701723
0.00701714
0.00701709
0.00701709
0.00701714
0.00701724
0.00701735
0.00701748
0.00701771
0.0070181
0.00701842
0.00701755
0.00701167
0.00698945
0.00692087
0.00673572
0.00628921
0.00528673
0.00262118
0.00272278
0.00561588
0.00673597
0.00725222
0.00747465
0.00756058
0.00758971
0.00759755
0.00759775
0.0075952
0.00759212
0.00758981
0.00758852
0.00758801
0.00758785
0.00758766
0.00758746
0.00758735
0.00758735
0.00758747
0.00758768
0.00758787
0.00758803
0.00758851
0.00758966
0.00759134
0.00759199
0.00758598
0.00755858
0.00747381
0.00725197
0.00673596
0.00561593
0.00272287
0.0027584
0.00574396
0.00692138
0.00747475
0.00771811
0.00781373
0.00784561
0.00785175
0.00784688
0.00783706
0.00782687
0.00781996
0.00781643
0.00781528
0.00781506
0.00781452
0.00781391
0.00781356
0.00781357
0.00781392
0.00781455
0.00781509
0.00781531
0.00781643
0.00781978
0.00782594
0.00783324
0.00783306
0.00780693
0.00771513
0.00747373
0.00692116
0.00574399
0.00275853
0.00276947
0.00578843
0.00699033
0.00756075
0.00781382
0.00791289
0.0079426
0.00794028
0.00791967
0.0078886
0.00785853
0.0078406
0.00783274
0.00783103
0.00783125
0.00782987
0.00782817
0.00782723
0.00782724
0.00782819
0.0078299
0.00783129
0.00783107
0.00783275
0.00784042
0.00785753
0.00788446
0.00790478
0.00789239
0.00780466
0.00755737
0.00698935
0.00578826
0.00276959
0.00277254
0.0058021
0.00701304
0.00758995
0.0078459
0.00794298
0.00796296
0.00793797
0.00787681
0.0077904
0.00771037
0.00767254
0.00766108
0.00766214
0.00766552
0.00766265
0.00765878
0.00765674
0.00765675
0.0076588
0.00766268
0.00766557
0.0076622
0.00766111
0.00767237
0.00770936
0.00778615
0.00786147
0.00788875
0.00782175
0.00758085
0.00701017
0.00580139
0.00277261
0.0027733
0.00580573
0.00701949
0.00759799
0.00785266
0.00794211
0.00794049
0.00786661
0.007714
0.00749506
0.00729576
0.00724173
0.00724669
0.00726522
0.00727968
0.00727567
0.00726905
0.00726575
0.00726576
0.00726907
0.00727571
0.00727974
0.00726529
0.00724674
0.00724161
0.0072948
0.00749084
0.00769854
0.00781688
0.007798
0.00757744
0.00701282
0.00580392
0.00277321
0.00277344
0.00580642
0.00702076
0.00759876
0.00784954
0.00792581
0.00788796
0.00772741
0.00739502
0.00687105
0.00635574
0.00639185
0.00651248
0.00659153
0.0066293
0.00663195
0.00662669
0.00662374
0.00662375
0.0066267
0.00663199
0.00662936
0.00659161
0.00651257
0.00639182
0.00635489
0.00686694
0.00737951
0.00767736
0.0077448
0.00756005
0.00700815
0.00580284
0.00277306
0.00277343
0.00580632
0.00702059
0.00759749
0.00784365
0.00790483
0.00782341
0.00754761
0.0069263
0.00568661
0.0036339
0.00488811
0.00548862
0.00571062
0.00576243
0.00580632
0.00581592
0.00581686
0.00581687
0.00581594
0.00580636
0.00576249
0.00571074
0.00548883
0.00488836
0.00363326
0.00568264
0.00691058
0.00749708
0.00767961
0.0075383
0.0070014
0.00580072
0.0027727
0.00277338
0.00580606
0.0070203
0.00759668
0.00784054
0.00789376
0.00778747
0.00743576
0.0065553
0.00379001
0.00302974
0.00451842
0.00488388
0.00499327
0.00501262
0.00501429
0.005014
0.005014
0.00501431
0.00501265
0.00499334
0.00488403
0.0045187
0.00302995
0.00378691
0.00653923
0.00738471
0.00764311