/*--------------------------------*- C++ -*----------------------------------*\
| =========                 |                                                 |
| \\      /  F ield         | OpenFOAM: The Open Source CFD Toolbox           |
|  \\    /   O peration     | Version:  2112                                  |
|   \\  /    A nd           | Website:  www.openfoam.com                      |
|    \\/     M anipulation  |                                                 |
\*---------------------------------------------------------------------------*/
FoamFile
{
    version     2.0;
    format      ascii;
    arch        "LSB;label=32;scalar=64";
    class       volScalarField;
    location    "1.7";
    object      nut;
}
// * * * * * * * * * * * * * * * * * * * * * * * * * * * * * * * * * * * * * //

dimensions      [0 2 -1 0 0 0 0];

internalField   nonuniform List<scalar> 
64906
(
8.43432e-05
8.71364e-05
8.84803e-05
8.89475e-05
8.90873e-05
8.9125e-05
8.91347e-05
8.91374e-05
8.91387e-05
8.91395e-05
8.91403e-05
8.91408e-05
8.91411e-05
8.91412e-05
8.91411e-05
8.91409e-05
8.91405e-05
8.91401e-05
8.91399e-05
8.91401e-05
8.91404e-05
8.91407e-05
8.91408e-05
8.91407e-05
8.91403e-05
8.91397e-05
8.91387e-05
8.9136e-05
8.91263e-05
8.90886e-05
8.89488e-05
8.84816e-05
8.71378e-05
8.43443e-05
8.71372e-05
0.000102902
0.000109183
0.000111507
0.000112303
0.000112549
0.000112618
0.000112637
0.000112642
0.000112644
0.000112645
0.000112646
0.000112647
0.000112648
0.000112649
0.000112649
0.00011265
0.00011265
0.00011265
0.00011265
0.000112649
0.000112649
0.000112648
0.000112647
0.000112646
0.000112644
0.000112639
0.000112622
0.000112553
0.000112307
0.00011151
0.000109186
0.000102905
8.71395e-05
8.84825e-05
0.000109185
0.000117636
0.000120966
0.000122199
0.000122612
0.000122738
0.000122772
0.000122781
0.000122783
0.000122784
0.000122786
0.000122789
0.000122792
0.000122795
0.000122797
0.000122799
0.0001228
0.0001228
0.000122799
0.000122798
0.000122796
0.000122793
0.00012279
0.000122787
0.000122783
0.000122775
0.000122741
0.000122617
0.000122204
0.000120972
0.000117642
0.00010919
8.8486e-05
8.89509e-05
0.00011151
0.000120968
0.000124843
0.000126343
0.000126869
0.000127034
0.000127079
0.000127085
0.000127079
0.000127073
0.000127072
0.000127075
0.000127081
0.000127086
0.000127089
0.000127091
0.000127092
0.000127092
0.000127092
0.00012709
0.000127087
0.000127082
0.000127076
0.000127072
0.000127071
0.000127066
0.000127029
0.00012687
0.000126348
0.00012485
0.000120975
0.000111517
8.89554e-05
8.90913e-05
0.000112308
0.000122202
0.000126344
0.000127985
0.000128574
0.000128757
0.000128795
0.000128777
0.000128734
0.000128695
0.00012868
0.000128682
0.000128692
0.000128701
0.000128706
0.000128707
0.000128708
0.000128708
0.000128707
0.000128706
0.000128702
0.000128693
0.000128683
0.000128681
0.000128692
0.000128719
0.00012871
0.000128554
0.000127983
0.000126349
0.00012221
0.000112315
8.90967e-05
8.91293e-05
0.000112554
0.000122615
0.000126871
0.000128574
0.000129185
0.00012936
0.000129353
0.000129245
0.000129079
0.000128931
0.000128883
0.000128889
0.000128914
0.000128935
0.00012894
0.000128938
0.000128936
0.000128937
0.000128938
0.00012894
0.000128936
0.000128915
0.000128891
0.000128884
0.000128928
0.000129062
0.000129174
0.000129096
0.000128544
0.000126867
0.000122622
0.000112563
8.91355e-05
8.9139e-05
0.000112623
0.00012274
0.000127036
0.000128758
0.000129361
0.000129482
0.00012934
0.000128975
0.000128442
0.000127977
0.000127899
0.00012797
0.000128058
0.000128118
0.000128124
0.000128114
0.000128109
0.000128109
0.000128115
0.000128125
0.000128119
0.00012806
0.000127972
0.000127901
0.000127974
0.000128425
0.000128902
0.000129078
0.000128649
0.000127006
0.00012274
0.000112631
8.91458e-05
8.91416e-05
0.000112641
0.000122774
0.00012708
0.000128797
0.000129358
0.000129349
0.000128888
0.000127874
0.000126336
0.000124965
0.000125107
0.000125544
0.000125861
0.00012603
0.000126048
0.000126031
0.000126021
0.000126022
0.000126032
0.000126049
0.000126032
0.000125863
0.000125546
0.000125109
0.000124964
0.00012632
0.000127802
0.000128624
0.000128512
0.000126992
0.000122758
0.000112646
8.91488e-05
8.91426e-05
0.000112645
0.000122783
0.000127087
0.000128783
0.000129266
0.000129019
0.000127931
0.00012549
0.00012129
0.000117011
0.000118991
0.000120961
0.00012196
0.000122375
0.000122448
0.000122445
0.000122439
0.000122439
0.000122445
0.000122449
0.000122378
0.000121963
0.000120964
0.000118994
0.000117009
0.000121275
0.000125419
0.000127668
0.000128181
0.000126897
0.000122738
0.000112644
8.91497e-05
8.91429e-05
0.000112645
0.000122784
0.000127084
0.000128754
0.00012914
0.000128581
0.000126569
0.00012153
0.000110454
9.53132e-05
0.000107071
0.000114178
0.000116731
0.000117529
0.000117743
0.000117792
0.000117801
0.000117802
0.000117793
0.000117745
0.000117531
0.000116734
0.000114183
0.000107078
9.53117e-05
0.000110442
0.000121461
0.000126307
0.000127743
0.000126769
0.000122706
0.000112636
8.91499e-05
8.9143e-05
0.000112645
0.000122785
0.000127083
0.000128742
0.000129075
0.000128323
0.000125615
0.000117884
9.5775e-05
9.34886e-05
0.000108382
0.000112645
0.000113769
0.000114038
0.000114091
0.000114099
0.000114099
0.000114091
0.000114038
0.000113771
0.000112647
0.000108386
9.34926e-05
9.57684e-05
0.000117815
0.000125351
0.000127483
0.000126702
0.00012269
0.000112632
8.91498e-05
8.91427e-05
0.000112645
0.000122788
0.000127092
0.000128767
0.000129155
0.000128589
0.000126544
0.000121421
0.000110158
9.50104e-05
0.000105681
0.000112467
0.000114854
0.000115556
0.000115712
0.00011572
0.000115712
0.000115712
0.00011572
0.000115711
0.000115555
0.000114853
0.000112467
0.000105679
9.50036e-05
0.000110136
0.000121347
0.000126279
0.000127747
0.000126779
0.000122711
0.000112635
8.91499e-05
8.91421e-05
0.000112645
0.000122791
0.000127105
0.00012881
0.000129294
0.000129027
0.000127861
0.000125211
0.000120552
0.000115449
0.000116056
0.000116811
0.00011719
0.000117322
0.00011733
0.000117309
0.000117296
0.000117295
0.000117308
0.000117329
0.000117321
0.000117187
0.000116807
0.00011605
0.000115437
0.000120529
0.000125135
0.000127594
0.000128183
0.000126915
0.00012275
0.000112643
8.91496e-05
8.91412e-05
0.000112644
0.000122794
0.000127117
0.000128847
0.00012941
0.000129367
0.00012878
0.000127431
0.000125167
0.000122484
0.000120699
0.000119226
0.000118562
0.00011833
0.000118244
0.000118207
0.000118193
0.000118193
0.000118206
0.000118243
0.000118328
0.000118559
0.000119222
0.000120694
0.000122474
0.000125145
0.000127354
0.000128511
0.000128522
0.000127028
0.000122783
0.000112649
8.91488e-05
8.91402e-05
0.000112644
0.000122797
0.000127124
0.00012887
0.000129478
0.000129557
0.000129253
0.000128456
0.000126997
0.000124897
0.000122511
0.000120268
0.000119175
0.000118775
0.000118642
0.000118596
0.00011858
0.00011858
0.000118595
0.00011864
0.000118773
0.000119172
0.000120264
0.000122503
0.000124887
0.000126974
0.000128378
0.000128983
0.00012871
0.000127094
0.000122803
0.000112653
8.91475e-05
8.91391e-05
0.000112643
0.000122798
0.000127129
0.000128883
0.000129512
0.000129644
0.000129455
0.000128859
0.000127655
0.000125698
0.000123143
0.000120645
0.0001194
0.000118938
0.000118785
0.000118734
0.000118715
0.000118715
0.000118732
0.000118783
0.000118935
0.000119397
0.000120641
0.000123136
0.000125689
0.000127633
0.000128781
0.000129184
0.000128795
0.000127126
0.000122813
0.000112654
8.91459e-05
8.91379e-05
0.000112643
0.000122799
0.000127131
0.000128889
0.000129526
0.000129678
0.000129529
0.000128999
0.000127868
0.000125945
0.00012334
0.000120763
0.000119472
0.000118989
0.000118829
0.000118775
0.000118753
0.000118753
0.000118773
0.000118827
0.000118986
0.000119469
0.000120759
0.000123333
0.000125936
0.000127846
0.000128921
0.000129258
0.000128828
0.000127139
0.000122818
0.000112654
8.91442e-05
8.91368e-05
0.000112643
0.000122799
0.000127133
0.000128891
0.000129532
0.00012969
0.000129552
0.00012904
0.000127929
0.000126012
0.000123394
0.000120796
0.000119492
0.000119003
0.000118841
0.000118784
0.00011876
0.000118759
0.000118782
0.000118838
0.000119
0.000119488
0.000120792
0.000123387
0.000126003
0.000127907
0.000128962
0.000129282
0.00012884
0.000127144
0.00012282
0.000112654
8.91425e-05
8.91359e-05
0.000112642
0.0001228
0.000127133
0.000128892
0.000129533
0.000129691
0.000129554
0.000129042
0.000127931
0.000126014
0.000123396
0.000120797
0.000119493
0.000119003
0.00011884
0.000118783
0.000118758
0.000118757
0.000118781
0.000118838
0.000119
0.000119489
0.000120793
0.00012339
0.000126006
0.000127909
0.000128965
0.000129283
0.000128841
0.000127145
0.00012282
0.000112654
8.91412e-05
8.91359e-05
0.000112643
0.0001228
0.000127133
0.000128891
0.000129529
0.000129682
0.000129534
0.000129004
0.000127876
0.000125953
0.000123348
0.000120769
0.000119475
0.00011899
0.000118829
0.000118772
0.000118747
0.000118746
0.000118769
0.000118826
0.000118987
0.000119472
0.000120765
0.000123342
0.000125945
0.000127854
0.000128927
0.000129263
0.000128832
0.000127142
0.00012282
0.000112654
8.91412e-05
8.91369e-05
0.000112643
0.000122799
0.000127131
0.000128886
0.000129516
0.00012965
0.000129463
0.000128869
0.000127668
0.000125713
0.000123158
0.000120655
0.000119407
0.000118941
0.000118786
0.00011873
0.000118707
0.000118706
0.000118728
0.000118783
0.000118938
0.000119404
0.000120651
0.000123153
0.000125706
0.000127647
0.000128793
0.000129193
0.000128802
0.000127131
0.000122816
0.000112654
8.91427e-05
8.9138e-05
0.000112644
0.000122798
0.000127128
0.000128875
0.000129485
0.000129566
0.000129265
0.000128472
0.000127018
0.000124923
0.000122538
0.000120285
0.000119186
0.000118782
0.000118645
0.000118594
0.000118574
0.000118573
0.000118592
0.000118642
0.00011878
0.000119184
0.000120282
0.000122534
0.000124917
0.000126999
0.000128397
0.000128997
0.00012872
0.000127101
0.000122807
0.000112653
8.91444e-05
8.91391e-05
0.000112644
0.000122797
0.000127121
0.000128853
0.000129418
0.000129379
0.000128796
0.000127455
0.000125201
0.000122527
0.00012074
0.000119253
0.00011858
0.000118342
0.000118251
0.000118209
0.000118192
0.000118192
0.000118208
0.000118249
0.00011834
0.000118578
0.000119252
0.000120738
0.000122523
0.000125183
0.000127382
0.00012853
0.000128535
0.000127037
0.000122789
0.00011265
8.91459e-05
8.91401e-05
0.000112645
0.000122794
0.00012711
0.000128817
0.000129305
0.000129042
0.000127882
0.000125242
0.000120601
0.00011552
0.000116112
0.000116841
0.000117206
0.00011733
0.000117333
0.000117308
0.000117293
0.000117293
0.000117307
0.000117331
0.000117329
0.000117204
0.000116841
0.000116116
0.00011552
0.000120587
0.000125172
0.000127618
0.0001282
0.000126927
0.000122757
0.000112645
8.91469e-05
8.91408e-05
0.000112645
0.000122791
0.000127098
0.000128776
0.000129167
0.000128605
0.000126567
0.000121457
0.00011022
9.5057e-05
0.000105716
0.000112449
0.000114815
0.000115503
0.000115653
0.000115657
0.000115648
0.000115648
0.000115656
0.00011565
0.000115498
0.000114806
0.00011244
0.00010572
9.5054e-05
0.000110211
0.000121388
0.000126304
0.000127765
0.000126792
0.000122719
0.000112638
8.91473e-05
8.91412e-05
0.000112645
0.000122787
0.000127088
0.000128749
0.000129085
0.000128336
0.00012563
0.000117901
9.57819e-05
9.33858e-05
0.000108145
0.000112332
0.000113402
0.000113648
0.000113693
0.000113698
0.000113696
0.000113688
0.000113636
0.000113375
0.000112278
0.000108061
9.33304e-05
9.57621e-05
0.00011782
0.000125361
0.000127495
0.000126712
0.000122697
0.000112634
8.91475e-05
8.9141e-05
0.000112642
0.000122779
0.000127078
0.000128749
0.000129138
0.000128582
0.00012657
0.000121528
0.00011044
9.52764e-05
0.000106616
0.000113395
0.000115588
0.000116161
0.000116307
0.000116341
0.000116348
0.000116345
0.000116332
0.000116276
0.000116072
0.000115379
0.000113023
0.000106275
9.51589e-05
0.000110327
0.000121401
0.000126284
0.000127738
0.000126769
0.000122706
0.000112635
8.91476e-05
8.9139e-05
0.000112626
0.000122747
0.000127039
0.000128729
0.00012921
0.000128962
0.000127865
0.000125385
0.000121071
0.000116504
0.000117851
0.000118958
0.000118982
0.000118842
0.000118768
0.000118744
0.000118737
0.000118734
0.000118726
0.000118705
0.000118643
0.000118466
0.000117966
0.000116897
0.000115866
0.000120709
0.000125154
0.000127542
0.000128112
0.000126851
0.000122708
0.000112627
8.91462e-05
8.91299e-05
0.000112559
0.000122625
0.000126881
0.000128569
0.000129118
0.000129101
0.000128616
0.000127522
0.000125759
0.000123854
0.00012296
0.000121845
0.000120441
0.000119751
0.000119506
0.000119434
0.000119415
0.000119411
0.000119411
0.000119419
0.000119456
0.000119611
0.000120111
0.000121316
0.000122741
0.000125146
0.000127185
0.00012826
0.000128255
0.000126792
0.000122613
0.000112566
8.91372e-05
8.90924e-05
0.000112313
0.000122213
0.000126359
0.000127997
0.000128562
0.000128663
0.00012849
0.000128028
0.000127228
0.000126146
0.000124902
0.000123227
0.000121436
0.000120572
0.000120268
0.00012018
0.000120158
0.000120153
0.000120155
0.000120173
0.00012025
0.000120525
0.000121341
0.000123103
0.00012492
0.000126551
0.000127667
0.00012814
0.000127856
0.000126329
0.000122218
0.000112325
8.90997e-05
8.89526e-05
0.000111517
0.00012098
0.000124861
0.000126364
0.000126886
0.000127023
0.000126985
0.000126798
0.000126418
0.000125781
0.000124826
0.000123515
0.000122165
0.000121454
0.000121185
0.000121105
0.000121086
0.000121083
0.000121085
0.000121102
0.000121178
0.000121437
0.000122136
0.000123486
0.000124845
0.000125894
0.000126515
0.000126694
0.000126313
0.000124862
0.000120994
0.00011153
8.89595e-05
8.8485e-05
0.000109192
0.00011765
0.000120986
0.000122224
0.000122641
0.000122762
0.000122771
0.000122705
0.000122539
0.000122215
0.000121672
0.000120915
0.000120146
0.00011971
0.000119534
0.000119478
0.000119464
0.000119462
0.000119464
0.000119477
0.000119531
0.000119705
0.000120137
0.000120907
0.000121677
0.000122239
0.000122539
0.000122572
0.000122218
0.000121
0.000117666
0.000109205
8.84913e-05
8.71404e-05
0.00010291
0.000109196
0.000111526
0.000112328
0.000112579
0.000112652
0.000112669
0.000112656
0.000112602
0.00011248
0.000112256
0.000111934
0.000111601
0.000111402
0.000111316
0.000111287
0.000111279
0.000111278
0.00011128
0.000111288
0.000111316
0.000111401
0.000111599
0.000111932
0.000112257
0.000112483
0.00011259
0.000112573
0.000112341
0.000111543
0.000109211
0.00010292
8.71458e-05
8.4346e-05
8.71417e-05
8.84892e-05
8.896e-05
8.91035e-05
8.91451e-05
8.91592e-05
8.91663e-05
8.91705e-05
8.91713e-05
8.9164e-05
8.91424e-05
8.91049e-05
8.90613e-05
8.90337e-05
8.90199e-05
8.90129e-05
8.90086e-05
8.90069e-05
8.90089e-05
8.90132e-05
8.90199e-05
8.90332e-05
8.90601e-05
8.91031e-05
8.91402e-05
8.91615e-05
8.91669e-05
8.91575e-05
8.91164e-05
8.89714e-05
8.84981e-05
8.71479e-05
8.43498e-05
0.000129683
0.000142279
0.000148284
0.000150583
0.000151365
0.000151603
0.000151668
0.000151684
0.000151688
0.000151689
0.000151688
0.000151688
0.000151687
0.000151687
0.000151686
0.000151686
0.000151686
0.000151685
0.000151685
0.000151685
0.000151686
0.000151686
0.000151687
0.000151687
0.000151687
0.000151687
0.000151684
0.000151668
0.000151603
0.000151366
0.000150584
0.000148285
0.00014228
0.000129685
0.000142279
0.000398781
0.000478519
0.000508479
0.000519605
0.000523371
0.000524504
0.0005248
0.000524854
0.000524841
0.000524811
0.000524779
0.000524752
0.000524731
0.000524715
0.000524702
0.000524693
0.000524689
0.000524689
0.000524693
0.000524702
0.000524715
0.000524731
0.000524751
0.000524774
0.000524789
0.000524746
0.000524465
0.000523344
0.000519585
0.000508462
0.000478503
0.000398769
0.00014228
0.000148286
0.000478539
0.000590059
0.00063467
0.000652359
0.000658786
0.000660867
0.000661447
0.000661553
0.000661516
0.000661447
0.000661391
0.000661359
0.000661344
0.000661338
0.000661332
0.000661326
0.000661322
0.000661323
0.000661326
0.000661333
0.00066134
0.000661346
0.000661359
0.000661384
0.000661403
0.000661319
0.000660783
0.000658743
0.000652341
0.000634663
0.000590053
0.000478536
0.000148288
0.000150587
0.000508511
0.000634684
0.000687205
0.000708888
0.000717092
0.000719832
0.000720563
0.00072059
0.00072037
0.000720113
0.000719935
0.000719849
0.000719826
0.000719827
0.000719818
0.000719804
0.000719796
0.000719797
0.000719806
0.00071982
0.00071983
0.00071983
0.00071985
0.000719925
0.000720048
0.000720086
0.000719515
0.000716929
0.000708824
0.000687187
0.000634682
0.000508513
0.000150591
0.00015137
0.000519642
0.000652381
0.000708896
0.000732759
0.000741956
0.000744984
0.000745567
0.000745122
0.000744229
0.000743329
0.000742776
0.000742533
0.000742488
0.000742505
0.000742471
0.000742422
0.000742393
0.000742394
0.000742424
0.000742474
0.000742509
0.000742493
0.000742536
0.000742764
0.00074325
0.000743888
0.000743852
0.000741355
0.000732504
0.000708813
0.000652362
0.000519642
0.000151376
0.000151608
0.000523408
0.00065881
0.000717105
0.000741962
0.000751517
0.000754352
0.000754133
0.000752181
0.000749247
0.000746484
0.00074507
0.000744573
0.000744577
0.000744695
0.00074459
0.000744439
0.000744356
0.000744357
0.000744442
0.000744594
0.0007447
0.000744583
0.000744577
0.000745058
0.0007464
0.000748878
0.000750811
0.000749626
0.000741137
0.00071681
0.000658727
0.000523393
0.000151614
0.000151674
0.000524538
0.00066089
0.000719848
0.000745003
0.00075438
0.000756283
0.00075386
0.000747905
0.000739431
0.000731714
0.00072915
0.000728834
0.000729385
0.00072996
0.000729714
0.000729351
0.000729164
0.000729165
0.000729353
0.000729719
0.000729967
0.000729393
0.00072884
0.000729141
0.000731632
0.000739057
0.0007465
0.000749235
0.00074276
0.000719027
0.00066064
0.000524481
0.000151679
0.00015169
0.000524829
0.000661469
0.000720592
0.000745634
0.000754277
0.000754065
0.000746756
0.000731396
0.00070864
0.000687358
0.000687152
0.000690462
0.000693496
0.00069553
0.000695115
0.000694469
0.000694165
0.000694166
0.000694471
0.00069512
0.000695537
0.000693504
0.00069047
0.000687147
0.000687285
0.000708278
0.000729994
0.0007421
0.000740439
0.000718696
0.000660879
0.000524682
0.000151693
0.000151693
0.000524879
0.00066158
0.000720661
0.00074533
0.000752682
0.000748829
0.000732493
0.000697227
0.000636839
0.000567739
0.000599737
0.000622594
0.00063371
0.000639007
0.000638834
0.000638191
0.000637907
0.000637908
0.000638194
0.000638838
0.000639014
0.000633719
0.000622606
0.000599744
0.000567684
0.000636506
0.000695847
0.000727837
0.000735168
0.000717021
0.000660445
0.000524584
0.000151691
0.000151693
0.000524864
0.000661564
0.000720542
0.000744762
0.0007506
0.000742183
0.000712858
0.000640783
0.000474314
0.000172514
0.000426693
0.000527243
0.00055794
0.00056764
0.000569334
0.000569518
0.000569503
0.000569504
0.00056952
0.000569338
0.000567646
0.000557952
0.000527267
0.000426738
0.000172503
0.000474047
0.000639432
0.000708198
0.000728493
0.00071489
0.000659814
0.000524398
0.000151684
0.000151692
0.000524837
0.000661539
0.000720469
0.000744462
0.000749474
0.000738218
0.000698541
0.000580739
0.000174781
0.000164023
0.000441224
0.000497272
0.00050977
0.000513241
0.000514024
0.000514147
0.000514147
0.000514025
0.000513243
0.000509775
0.000497285
0.00044126
0.00016403
0.000174724
0.000579427
0.000693864
0.000724495
0.000713721
0.000659462
0.000524268
0.000151679
0.000151691
0.000524812
0.000661545
0.000720548
0.000744763
0.00075051
0.000741794
0.000711729
0.000638161
0.000469262
0.000170868
0.000406439
0.000497208
0.000522495
0.000526686
0.000531591
0.000532854
0.000532997
0.000532995
0.000532849
0.000531585
0.000526676
0.000522484
0.000497199
0.000406424
0.000170844
0.000468923
0.000636769
0.000707037
0.00072806
0.000714734
0.000659718
0.000524277
0.000151679
0.00015169
0.000524794
0.000661574
0.000720717
0.00074538
0.000752537
0.000748006
0.000729895
0.000690672
0.000622534
0.000540591
0.000549698
0.000549273
0.000549701
0.000549387
0.000550329
0.000550532
0.000550499
0.000550497
0.000550528
0.000550322
0.000549374
0.000549682
0.000549242
0.000549646
0.000540482
0.000622149
0.00068925
0.000725191
0.000734265
0.000716742
0.000660294
0.000524379
0.000151683
0.000151688
0.00052478
0.000661604
0.000720875
0.000745943
0.000754304
0.000753032
0.000742844
0.00072087
0.000684925
0.000641151
0.00060879
0.000577854
0.000565617
0.000561722
0.000560771
0.000560487
0.000560391
0.000560391
0.000560485
0.000560767
0.000561713
0.000565599
0.000577825
0.000608749
0.000641051
0.000684535
0.000719434
0.000738125
0.000739274
0.000718483
0.000660814
0.000524476
0.000151686
0.000151687
0.000524768
0.000661623
0.00072098
0.000746305
0.000755394
0.000755965
0.000749815
0.000735222
0.000709649
0.000673383
0.000631723
0.000590607
0.000573027
0.000567209
0.000565561
0.000565128
0.000565027
0.000565027
0.000565128
0.000565558
0.000567203
0.000573013
0.000590584
0.000631703
0.000673292
0.000709259
0.000733778
0.000745081
0.000742188
0.000719545
0.000661139
0.000524535
0.000151687
0.000151685
0.000524759
0.000661632
0.000721036
0.00074649
0.00075593
0.000757346
0.000752916
0.000741137
0.000718865
0.000684236
0.000639956
0.000595485
0.000575934
0.000569332
0.000567443
0.000566973
0.000566878
0.000566878
0.000566973
0.000567442
0.000569328
0.000575921
0.000595465
0.000639942
0.000684149
0.000718476
0.000739688
0.000748172
0.000743553
0.00072006
0.000661298
0.000524559
0.000151686
0.000151684
0.000524752
0.000661635
0.000721061
0.000746571
0.000756153
0.000757896
0.000754096
0.000743271
0.000721986
0.000687699
0.000642615
0.000597106
0.000576914
0.000570048
0.000568084
0.000567606
0.000567517
0.000567517
0.000567607
0.000568084
0.000570045
0.000576902
0.000597087
0.000642602
0.000687613
0.000721597
0.00074182
0.000749346
0.000744093
0.000720271
0.000661363
0.000524567
0.000151685
0.000151683
0.000524748
0.000661636
0.000721071
0.000746601
0.00075623
0.000758076
0.000754467
0.000743914
0.000722886
0.000688657
0.000643346
0.000597561
0.000577191
0.000570251
0.000568267
0.000567788
0.000567702
0.000567703
0.00056779
0.000568267
0.000570248
0.00057718
0.000597542
0.000643333
0.000688571
0.000722497
0.000742462
0.000749715
0.00074427
0.000720342
0.000661386
0.000524567
0.000151683
0.000151682
0.000524748
0.000661637
0.000721073
0.000746604
0.000756235
0.000758082
0.000754474
0.000743923
0.000722895
0.000688665
0.000643354
0.000597573
0.000577199
0.000570256
0.000568271
0.000567793
0.000567708
0.000567709
0.000567794
0.000568272
0.000570253
0.000577188
0.000597555
0.000643342
0.000688581
0.000722507
0.000742472
0.000749723
0.000744276
0.000720346
0.000661387
0.000524567
0.000151683
0.000151682
0.00052475
0.000661637
0.000721067
0.000746581
0.000756167
0.000757913
0.000754118
0.000743298
0.000722015
0.000687728
0.000642643
0.000597148
0.000576943
0.000570069
0.000568103
0.000567626
0.000567539
0.00056754
0.000567628
0.000568104
0.000570067
0.000576934
0.000597132
0.000642632
0.000687644
0.00072163
0.00074185
0.000749372
0.000744112
0.000720283
0.000661369
0.000524564
0.000151683
0.000151683
0.000524755
0.000661635
0.000721046
0.000746507
0.000755953
0.000757377
0.000752956
0.000741187
0.000718923
0.000684297
0.000640017
0.000595572
0.000576001
0.000569387
0.000567495
0.000567028
0.000566937
0.000566938
0.000567031
0.000567499
0.000569388
0.000575996
0.00059556
0.000640008
0.000684217
0.000718542
0.000739746
0.000748218
0.000743586
0.000720081
0.000661307
0.000524556
0.000151683
0.000151684
0.000524763
0.000661628
0.000720995
0.000746328
0.000755427
0.000756011
0.000749876
0.000735304
0.000709755
0.000673506
0.000631847
0.000590768
0.000573163
0.000567332
0.000565683
0.000565258
0.000565163
0.000565165
0.000565263
0.000565691
0.000567338
0.000573165
0.000590765
0.000631844
0.000673432
0.000709383
0.000733874
0.000745153
0.000742237
0.000719576
0.000661152
0.00052453
0.000151684
0.000151686
0.000524773
0.00066161
0.000720894
0.000745974
0.000754349
0.000753094
0.000742931
0.000720996
0.000685109
0.0006414
0.000609038
0.000578119
0.000565847
0.000561943
0.000560998
0.000560726
0.000560641
0.000560644
0.000560736
0.000561012
0.000561959
0.00056586
0.000578129
0.000609049
0.00064134
0.000684754
0.000719584
0.000738227
0.000739342
0.000718524
0.000660831
0.000524469
0.000151683
0.000151687
0.000524785
0.00066158
0.000720737
0.000745415
0.000752589
0.00074808
0.000730005
0.000690847
0.000622836
0.000541071
0.000550161
0.000549584
0.000549934
0.000549606
0.000550555
0.000550779
0.000550762
0.000550767
0.000550792
0.000550575
0.000549626
0.000549947
0.000549598
0.000550201
0.000541043
0.000622516
0.000689454
0.000725312
0.000734343
0.000716789
0.000660312
0.000524368
0.00015168
0.000151688
0.000524797
0.000661544
0.00072056
0.00074479
0.000750554
0.00074186
0.000711831
0.000638343
0.000469655
0.00017097
0.000406766
0.000496997
0.000522043
0.000526103
0.000530996
0.000532286
0.000532449
0.000532453
0.000532296
0.000531
0.000526071
0.000521954
0.000496886
0.000406867
0.000170958
0.000469419
0.00063694
0.000707112
0.00072811
0.000714767
0.000659727
0.000524256
0.000151676
0.000151689
0.000524802
0.000661502
0.00072043
0.000744427
0.000749447
0.0007382
0.000698521
0.000580714
0.000174755
0.000163604
0.000438119
0.000492993
0.000504745
0.000508013
0.000508779
0.000508909
0.000508904
0.00050875
0.000507908
0.000504434
0.000492283
0.000437027
0.000163356
0.000174626
0.000579148
0.000693671
0.000724401
0.000713673
0.000659424
0.000524219
0.000151674
0.000151687
0.000524753
0.000661374
0.000720286
0.000744466
0.000750281
0.000741831
0.000712408
0.000640118
0.000473394
0.000172005
0.000419357
0.000514834
0.000540263
0.000546705
0.00054783
0.000548057
0.000548099
0.000548078
0.000547952
0.000547451
0.000545535
0.000537299
0.000509311
0.000414306
0.00017136
0.000471468
0.000637603
0.000707175
0.000727937
0.00071456
0.000659601
0.000524259
0.000151676
0.000151672
0.000524471
0.000660818
0.000719615
0.000744103
0.000751342
0.000747354
0.000730683
0.000694515
0.000631921
0.000557923
0.000579466
0.000588394
0.000583591
0.000580209
0.000578701
0.000578222
0.000578091
0.00057805
0.000578004
0.000577867
0.000577416
0.000575735
0.000571904
0.000563418
0.000547203
0.000625316
0.000690028
0.000724739
0.000733331
0.000715797
0.000659628
0.000524135
0.000151667
0.000151607
0.000523352
0.000658771
0.000716986
0.000741461
0.000749778
0.00074927
0.000741328
0.00072425
0.000697159
0.000666284
0.000648176
0.00062468
0.000596696
0.000584948
0.000581123
0.000580058
0.000579796
0.00057974
0.000579746
0.000579871
0.000580519
0.00058318
0.000592861
0.000619097
0.000646495
0.000685859
0.000717747
0.000734737
0.000735309
0.000714813
0.0006581
0.000523152
0.000151608
0.00015137
0.000519594
0.000652366
0.000708865
0.000732559
0.000741162
0.000742554
0.000739324
0.000731298
0.000717648
0.000698653
0.000675413
0.000644292
0.000610468
0.000596115
0.000591409
0.000590082
0.000589754
0.00058969
0.000589731
0.000590005
0.00059118
0.000595522
0.000609369
0.000643253
0.000676559
0.000705072
0.000724314
0.000732819
0.000729267
0.000707745
0.000652031
0.000519482
0.000151374
0.000150588
0.000508469
0.000634684
0.00068722
0.000708852
0.000716817
0.000718846
0.000717827
0.000714122
0.000706925
0.000695041
0.000677332
0.000653566
0.000629483
0.000617792
0.000613548
0.000612241
0.000611887
0.000611818
0.000611884
0.000612227
0.000613494
0.000617644
0.000629238
0.000653461
0.000678027
0.000697042
0.000708531
0.000712381
0.000707203
0.000686695
0.000634533
0.000508405
0.000150593
0.000148287
0.000478504
0.000590064
0.000634703
0.000652392
0.000658744
0.000660558
0.000660416
0.000658844
0.000655352
0.000648941
0.000638653
0.000624811
0.000611111
0.000603655
0.000600654
0.00059965
0.000599357
0.000599299
0.000599364
0.00059966
0.00060066
0.000603644
0.000611089
0.000624854
0.000638935
0.000649481
0.000655412
0.000656656
0.000651667
0.000634492
0.000590004
0.000478462
0.000148292
0.000142282
0.00039876
0.000478532
0.000508516
0.000519654
0.000523407
0.000524464
0.000524525
0.000523985
0.000522652
0.000520036
0.000515648
0.000509667
0.000503711
0.000500205
0.000498675
0.000498122
0.000497947
0.000497912
0.000497959
0.000498145
0.000498707
0.000500241
0.000503755
0.000509734
0.000515775
0.00052018
0.000522507
0.000522651
0.000519407
0.000508448
0.000478507
0.000398729
0.000142285
0.000129686
0.000142282
0.000148291
0.000150595
0.000151382
0.000151624
0.000151691
0.000151704
0.000151688
0.000151635
0.000151518
0.000151305
0.000150999
0.000150684
0.000150493
0.000150408
0.000150376
0.000150365
0.000150362
0.000150366
0.000150377
0.000150409
0.000150494
0.000150684
0.000150999
0.000151307
0.00015152
0.000151622
0.000151608
0.000151386
0.000150603
0.000148297
0.000142285
0.00012969
0.000134509
0.000152124
0.000160683
0.00016413
0.000165384
0.000165793
0.000165913
0.000165944
0.000165951
0.000165951
0.000165949
0.000165947
0.000165945
0.000165944
0.000165943
0.000165942
0.000165941
0.000165941
0.000165941
0.000165941
0.000165942
0.000165943
0.000165944
0.000165945
0.000165946
0.000165946
0.000165941
0.000165911
0.000165792
0.000165383
0.00016413
0.000160683
0.000152125
0.000134511
0.000152124
0.000509434
0.000631508
0.000679698
0.00069851
0.000705244
0.000707392
0.000707984
0.000708096
0.000708067
0.000707999
0.000707927
0.000707867
0.000707821
0.000707787
0.00070776
0.000707741
0.000707731
0.000707731
0.000707741
0.000707759
0.000707785
0.000707818
0.000707862
0.000707912
0.000707945
0.000707856
0.000707296
0.000705174
0.000698457
0.000679653
0.000631466
0.000509404
0.000152124
0.000160685
0.00063154
0.00081025
0.000885203
0.000916151
0.00092791
0.000931902
0.000933059
0.000933265
0.000933165
0.000932987
0.000932829
0.000932722
0.000932664
0.000932634
0.000932607
0.000932586
0.000932574
0.000932574
0.000932586
0.000932608
0.000932634
0.000932664
0.000932717
0.000932804
0.000932878
0.00093273
0.000931676
0.000927779
0.00091608
0.000885159
0.000810214
0.000631515
0.000160686
0.000164134
0.000679749
0.000885227
0.000974813
0.0010132
0.00102833
0.0010336
0.00103504
0.00103507
0.00103456
0.00103394
0.00103345
0.00103315
0.00103302
0.00103298
0.00103293
0.00103288
0.00103285
0.00103285
0.00103288
0.00103293
0.00103298
0.00103303
0.00103315
0.00103342
0.00103378
0.00103394
0.00103285
0.00102791
0.00101301
0.000974729
0.000885185
0.000679726
0.000164137
0.000165389
0.00069857
0.00091619
0.00101322
0.00105571
0.00107273
0.00107854
0.00107967
0.00107873