/*--------------------------------*- C++ -*----------------------------------*\
| =========                 |                                                 |
| \\      /  F ield         | OpenFOAM: The Open Source CFD Toolbox           |
|  \\    /   O peration     | Version:  2112                                  |
|   \\  /    A nd           | Website:  www.openfoam.com                      |
|    \\/     M anipulation  |                                                 |
\*---------------------------------------------------------------------------*/
FoamFile
{
    version     2.0;
    format      ascii;
    arch        "LSB;label=32;scalar=64";
    class       volScalarField;
    location    "1.7";
    object      p;
}
// * * * * * * * * * * * * * * * * * * * * * * * * * * * * * * * * * * * * * //

dimensions      [0 2 -2 0 0 0 0];

internalField   nonuniform List<scalar> 
64906
(
-8.69842e-06
-8.67852e-06
-8.67702e-06
-8.69947e-06
-8.75046e-06
-8.8305e-06
-8.93978e-06
-9.07798e-06
-9.24305e-06
-9.43156e-06
-9.63515e-06
-9.84576e-06
-1.00491e-05
-1.02369e-05
-1.03998e-05
-1.05332e-05
-1.06331e-05
-1.06982e-05
-1.07274e-05
-1.0721e-05
-1.06801e-05
-1.06066e-05
-1.05046e-05
-1.03788e-05
-1.02388e-05
-1.00927e-05
-9.95499e-06
-9.83333e-06
-9.73598e-06
-9.66593e-06
-9.62469e-06
-9.61136e-06
-9.6206e-06
-9.64404e-06
-8.63592e-06
-8.53526e-06
-8.46767e-06
-8.43364e-06
-8.43945e-06
-8.48037e-06
-8.55099e-06
-8.64744e-06
-8.76535e-06
-8.90135e-06
-9.04625e-06
-9.19535e-06
-9.33528e-06
-9.46381e-06
-9.57385e-06
-9.66492e-06
-9.7349e-06
-9.78388e-06
-9.8116e-06
-9.81821e-06
-9.80425e-06
-9.76988e-06
-9.71744e-06
-9.6475e-06
-9.56735e-06
-9.4791e-06
-9.39669e-06
-9.32531e-06
-9.27613e-06
-9.25569e-06
-9.2727e-06
-9.33324e-06
-9.43033e-06
-9.5594e-06
-8.62903e-06
-8.47591e-06
-8.35847e-06
-8.28072e-06
-8.25331e-06
-8.2684e-06
-8.31793e-06
-8.39728e-06
-8.50188e-06
-8.63034e-06
-8.77023e-06
-8.91842e-06
-9.04984e-06
-9.16647e-06
-9.26029e-06
-9.33645e-06
-9.39444e-06
-9.4366e-06
-9.46328e-06
-9.47461e-06
-9.47056e-06
-9.449e-06
-9.41073e-06
-9.35067e-06
-9.27726e-06
-9.18846e-06
-9.11063e-06
-9.04794e-06
-9.01673e-06
-9.02419e-06
-9.08273e-06
-9.2011e-06
-9.36538e-06
-9.56345e-06
-8.67812e-06
-8.48341e-06
-8.32314e-06
-8.20883e-06
-8.15673e-06
-8.15846e-06
-8.2054e-06
-8.29489e-06
-8.42492e-06
-8.5999e-06
-8.80103e-06
-9.02543e-06
-9.21315e-06
-9.37115e-06
-9.48723e-06
-9.57683e-06
-9.64111e-06
-9.68583e-06
-9.71188e-06
-9.7194e-06
-9.7078e-06
-9.67155e-06
-9.60989e-06
-9.50749e-06
-9.37737e-06
-9.21246e-06
-9.07538e-06
-8.97008e-06
-8.92142e-06
-8.93326e-06
-9.01816e-06
-9.18285e-06
-9.40364e-06
-9.65742e-06
-8.79467e-06
-8.5663e-06
-8.37496e-06
-8.23689e-06
-8.17436e-06
-8.18026e-06
-8.24818e-06
-8.38181e-06
-8.58694e-06
-8.8825e-06
-9.24149e-06
-9.66466e-06
-1.00025e-05
-1.02741e-05
-1.04612e-05
-1.06003e-05
-1.0694e-05
-1.07533e-05
-1.07794e-05
-1.07723e-05
-1.07313e-05
-1.06455e-05
-1.05129e-05
-1.0297e-05
-1.00178e-05
-9.6555e-06
-9.36518e-06
-9.14535e-06
-9.03146e-06
-9.01507e-06
-9.10319e-06
-9.2958e-06
-9.55775e-06
-9.85764e-06
-8.97775e-06
-8.71585e-06
-8.50058e-06
-8.34919e-06
-8.2895e-06
-8.31643e-06
-8.42809e-06
-8.63946e-06
-8.97219e-06
-9.47547e-06
-1.01204e-05
-1.0938e-05
-1.15515e-05
-1.20256e-05
-1.23391e-05
-1.25693e-05
-1.27191e-05
-1.28072e-05
-1.28342e-05
-1.27999e-05
-1.27042e-05
-1.25282e-05
-1.22701e-05
-1.18524e-05
-1.12992e-05
-1.0544e-05
-9.97571e-06
-9.55549e-06
-9.32469e-06
-9.24696e-06
-9.31654e-06
-9.5225e-06
-9.81711e-06
-1.01637e-05
-9.22409e-06
-8.92078e-06
-8.68485e-06
-8.52781e-06
-8.48236e-06
-8.54541e-06
-8.72083e-06
-9.03881e-06
-9.54597e-06
-1.03496e-05
-1.14208e-05
-1.29858e-05
-1.40295e-05
-1.48022e-05
-1.52956e-05
-1.56585e-05
-1.58905e-05
-1.60218e-05
-1.60505e-05
-1.59765e-05
-1.58016e-05
-1.54954e-05
-1.5059e-05
-1.43431e-05
-1.33618e-05
-1.18574e-05
-1.08779e-05
-1.01648e-05
-9.76981e-06
-9.60184e-06
-9.63472e-06
-9.84412e-06
-1.01689e-05
-1.05711e-05
-9.54147e-06
-9.15883e-06
-8.91472e-06
-8.76068e-06
-8.74229e-06
-8.85866e-06
-9.11834e-06
-9.56268e-06
-1.02688e-05
-1.14027e-05
-1.29781e-05
-1.59836e-05
-1.75858e-05
-1.876e-05
-1.94997e-05
-2.00515e-05
-2.04028e-05
-2.05977e-05
-2.06295e-05
-2.04979e-05
-2.02091e-05
-1.97179e-05
-1.90374e-05
-1.79193e-05
-1.63807e-05
-1.34223e-05
-1.19749e-05
-1.09337e-05
-1.03474e-05
-1.00683e-05
-1.00461e-05
-1.02482e-05
-1.06024e-05
-1.10753e-05
-9.88069e-06
-9.45166e-06
-9.18425e-06
-9.03663e-06
-9.05817e-06
-9.24666e-06
-9.61029e-06
-1.01911e-05
-1.10601e-05
-1.25306e-05
-1.45051e-05
-2.03046e-05
-2.22467e-05
-2.38493e-05
-2.48744e-05
-2.56369e-05
-2.61244e-05
-2.63931e-05
-2.64295e-05
-2.6233e-05
-2.58161e-05
-2.51205e-05
-2.4158e-05
-2.26073e-05
-2.07329e-05
-1.49456e-05
-1.31905e-05
-1.17846e-05
-1.10378e-05
-1.0634e-05
-1.05372e-05
-1.07169e-05
-1.10823e-05
-1.16911e-05
-1.02502e-05
-9.77244e-06
-9.48443e-06
-9.35491e-06
-9.44271e-06
-9.74661e-06
-1.02748e-05
-1.10247e-05
-1.21181e-05
-1.46085e-05
-1.2484e-05
-2.52694e-05
-2.74413e-05
-2.97538e-05
-3.12145e-05
-3.23118e-05
-3.30164e-05
-3.3395e-05
-3.34373e-05
-3.31426e-05
-3.25203e-05
-3.15002e-05
-3.01088e-05
-2.78457e-05
-2.57721e-05
-1.28055e-05
-1.53146e-05
-1.28797e-05
-1.19328e-05
-1.13692e-05
-1.11381e-05
-1.12636e-05
-1.16505e-05
-1.2346e-05
-1.06374e-05
-1.01035e-05
-9.79531e-06
-9.69018e-06
-9.86225e-06
-1.03189e-05
-1.10514e-05
-1.19368e-05
-1.28152e-05
-1.04243e-05
-3.75583e-05
-3.46139e-05
-3.61353e-05
-3.77128e-05
-3.90454e-05
-3.99442e-05
-4.04123e-05
-4.04612e-05
-4.00904e-05
-3.92875e-05
-3.80455e-05
-3.65473e-05
-3.50724e-05
-3.79337e-05
-1.15775e-05
-1.37978e-05
-1.29477e-05
-1.22192e-05
-1.18055e-05
-1.18444e-05
-1.22455e-05
-1.30384e-05
-1.10286e-05
-1.04363e-05
-1.01131e-05
-1.00479e-05
-1.03471e-05
-1.10747e-05
-1.23745e-05
-1.4486e-05
-1.80491e-05
-2.29263e-05
-3.44531e-05
-3.42033e-05
-3.82627e-05
-4.16568e-05
-4.4429e-05
-4.64808e-05
-4.77694e-05
-4.84009e-05
-4.84562e-05
-4.79357e-05
-4.67594e-05
-4.48213e-05
-4.21661e-05
-3.88938e-05
-3.49617e-05
-3.54895e-05
-2.38295e-05
-1.89925e-05
-1.55018e-05
-1.3573e-05
-1.26336e-05
-1.24776e-05
-1.28574e-05
-1.375e-05
-1.14029e-05
-1.07509e-05
-1.04065e-05
-1.03631e-05
-1.07447e-05
-1.16321e-05
-1.31909e-05
-1.5633e-05
-1.92949e-05
-2.39586e-05
-3.16674e-05
-3.63698e-05
-4.11962e-05
-4.54366e-05
-4.89146e-05
-5.13646e-05
-5.28828e-05
-5.36186e-05
-5.36786e-05
-5.30633e-05
-5.16679e-05
-4.93434e-05
-4.5995e-05
-4.18778e-05
-3.71596e-05
-3.26034e-05
-2.49234e-05
-2.02689e-05
-1.66752e-05
-1.44298e-05
-1.32689e-05
-1.30248e-05
-1.34211e-05
-1.44226e-05
-1.17471e-05
-1.10404e-05
-1.06738e-05
-1.06422e-05
-1.10797e-05
-1.20711e-05
-1.37837e-05
-1.64221e-05
-2.02899e-05
-2.53206e-05
-3.19106e-05
-3.75564e-05
-4.32511e-05
-4.81106e-05
-5.2025e-05
-5.47017e-05
-5.63406e-05
-5.71242e-05
-5.71873e-05
-5.65308e-05
-5.50217e-05
-5.24782e-05
-4.87019e-05
-4.39728e-05
-3.84031e-05
-3.28435e-05
-2.62827e-05
-2.12731e-05
-1.74871e-05
-1.5065e-05
-1.37883e-05
-1.35054e-05
-1.3932e-05
-1.50325e-05
-1.20475e-05
-1.12927e-05
-1.09014e-05
-1.08671e-05
-1.13269e-05
-1.23613e-05
-1.41279e-05
-1.68225e-05
-2.07193e-05
-2.57909e-05
-3.20582e-05
-3.82018e-05
-4.44095e-05
-4.95537e-05
-5.36446e-05
-5.63955e-05
-5.80667e-05
-5.88588e-05
-5.89239e-05
-5.8263e-05
-5.67257e-05
-5.41117e-05
-5.01628e-05
-4.51521e-05
-3.9076e-05
-3.29953e-05
-2.67612e-05
-2.17176e-05
-1.7914e-05
-1.54553e-05
-1.41594e-05
-1.3889e-05
-1.43626e-05
-1.5551e-05
-1.22974e-05
-1.15038e-05
-1.10901e-05
-1.10477e-05
-1.15148e-05
-1.25667e-05
-1.43519e-05
-1.70624e-05
-2.0958e-05
-2.60425e-05
-3.22688e-05
-3.86588e-05
-4.51072e-05
-5.03888e-05
-5.45519e-05
-5.73148e-05
-5.89812e-05
-5.9766e-05
-5.98329e-05
-5.91825e-05
-5.76529e-05
-5.50295e-05
-5.101e-05
-4.58612e-05
-3.9539e-05
-3.32118e-05
-2.70234e-05
-2.19729e-05
-1.81808e-05
-1.57238e-05
-1.44383e-05
-1.41947e-05
-1.47137e-05
-1.59716e-05
-1.2492e-05
-1.16694e-05
-1.12375e-05
-1.11857e-05
-1.16523e-05
-1.27089e-05
-1.44986e-05
-1.7213e-05
-2.11094e-05
-2.62177e-05
-3.24756e-05
-3.89951e-05
-4.55738e-05
-5.09249e-05
-5.51189e-05
-5.78806e-05
-5.95389e-05
-6.03172e-05
-6.03858e-05
-5.97453e-05
-5.82268e-05
-5.56069e-05
-5.15578e-05
-4.63388e-05
-3.98845e-05
-3.34277e-05
-2.72107e-05
-2.21408e-05
-1.83561e-05
-1.59089e-05
-1.46413e-05
-1.44253e-05
-1.49816e-05
-1.6291e-05
-1.26296e-05
-1.17887e-05
-1.13451e-05
-1.12869e-05
-1.17532e-05
-1.28139e-05
-1.461e-05
-1.73348e-05
-2.12465e-05
-2.63895e-05
-3.26961e-05
-3.93004e-05
-4.5962e-05
-5.13646e-05
-5.5588e-05
-5.83599e-05
-6.00213e-05
-6.08004e-05
-6.08711e-05
-6.02336e-05
-5.87153e-05
-5.60883e-05
-5.20119e-05
-4.67411e-05
-4.02029e-05
-3.36604e-05
-2.73957e-05
-2.22935e-05
-1.84983e-05
-1.60497e-05
-1.479e-05
-1.45905e-05
-1.51702e-05
-1.65116e-05
-1.27095e-05
-1.18612e-05
-1.14131e-05
-1.13533e-05
-1.18219e-05
-1.28893e-05
-1.46977e-05
-1.74424e-05
-2.13841e-05
-2.65703e-05
-3.29308e-05
-3.95953e-05
-4.63129e-05
-5.17597e-05
-5.60201e-05
-5.88183e-05
-6.04968e-05
-6.12855e-05
-6.13586e-05
-6.07159e-05
-5.91833e-05
-5.65362e-05
-5.24268e-05
-4.71098e-05
-4.05141e-05
-3.39097e-05
-2.75904e-05
-2.24452e-05
-1.86213e-05
-1.61564e-05
-1.48907e-05
-1.46935e-05
-1.5281e-05
-1.66357e-05
-1.27322e-05
-1.18871e-05
-1.14418e-05
-1.1385e-05
-1.18584e-05
-1.29349e-05
-1.4761e-05
-1.75349e-05
-2.15215e-05
-2.67592e-05
-3.31804e-05
-3.98859e-05
-4.66354e-05
-5.21289e-05
-5.64261e-05
-5.92634e-05
-6.09719e-05
-6.17789e-05
-6.1856e-05
-6.12034e-05
-5.96497e-05
-5.69604e-05
-5.28101e-05
-4.74526e-05
-4.08243e-05
-3.41763e-05
-2.77934e-05
-2.25943e-05
-1.87257e-05
-1.62301e-05
-1.49445e-05
-1.47353e-05
-1.53153e-05
-1.66649e-05
-1.26995e-05
-1.18682e-05
-1.1432e-05
-1.13812e-05
-1.18587e-05
-1.29423e-05
-1.47856e-05
-1.75915e-05
-2.16341e-05
-2.69364e-05
-3.34458e-05
-4.01681e-05
-4.6901e-05
-5.24103e-05
-5.67422e-05
-5.96274e-05
-6.13748e-05
-6.22063e-05
-6.22872e-05
-6.16175e-05
-6.00305e-05
-5.73021e-05
-5.31231e-05
-4.77485e-05
-4.11326e-05
-3.44628e-05
-2.79881e-05
-2.27209e-05
-1.87917e-05
-1.62581e-05
-1.49457e-05
-1.47153e-05
-1.52748e-05
-1.66007e-05
-1.26141e-05
-1.18062e-05
-1.13834e-05
-1.1337e-05
-1.18106e-05
-1.2887e-05
-1.47295e-05
-1.75496e-05
-2.16436e-05
-2.7024e-05
-3.3712e-05
-4.03988e-05
-4.70104e-05
-5.24638e-05
-5.67794e-05
-5.96938e-05
-6.14739e-05
-6.23303e-05
-6.24167e-05
-6.17331e-05
-6.01235e-05
-5.73763e-05
-5.32202e-05
-4.79033e-05
-4.14002e-05
-3.47562e-05
-2.80994e-05
-2.27498e-05
-1.87635e-05
-1.62056e-05
-1.48768e-05
-1.46273e-05
-1.51594e-05
-1.64446e-05
-1.24823e-05
-1.17071e-05
-1.13004e-05
-1.12543e-05
-1.17103e-05
-1.27546e-05
-1.45595e-05
-1.73458e-05
-2.1449e-05
-2.68696e-05
-3.40244e-05
-4.05937e-05
-4.68144e-05
-5.20699e-05
-5.6269e-05
-5.91551e-05
-6.0936e-05
-6.18061e-05
-6.19012e-05
-6.12217e-05
-5.96286e-05
-5.69275e-05
-5.29004e-05
-4.77877e-05
-4.16562e-05
-3.51073e-05
-2.7986e-05
-2.25914e-05
-1.8588e-05
-1.60492e-05
-1.47328e-05
-1.44764e-05
-1.49781e-05
-1.62054e-05
-1.2312e-05
-1.15758e-05
-1.11838e-05
-1.11257e-05
-1.15341e-05
-1.24889e-05
-1.41577e-05
-1.67619e-05
-2.06478e-05
-2.56905e-05
-3.4188e-05
-4.07414e-05
-4.60526e-05
-5.07782e-05
-5.46172e-05
-5.73384e-05
-5.90459e-05
-5.9901e-05
-6.00102e-05
-5.93744e-05
-5.78839e-05
-5.53795e-05
-5.1737e-05
-4.71779e-05
-4.19633e-05
-3.53245e-05
-2.68683e-05
-2.18548e-05
-1.80609e-05
-1.56831e-05
-1.4468e-05
-1.42491e-05
-1.47339e-05
-1.58932e-05
-1.21182e-05
-1.14265e-05
-1.10508e-05
-1.09765e-05
-1.13209e-05
-1.21472e-05
-1.36033e-05
-1.59424e-05
-1.98806e-05
-2.55152e-05
-3.63028e-05
-3.91841e-05
-4.45241e-05
-4.87983e-05
-5.21148e-05
-5.45757e-05
-5.61519e-05
-5.69642e-05
-5.70956e-05
-5.65498e-05
-5.52409e-05
-5.3054e-05
-4.9974e-05
-4.58851e-05
-4.05541e-05
-3.73952e-05
-2.69005e-05
-2.12431e-05
-1.73524e-05
-1.51989e-05
-1.41472e-05
-1.39915e-05
-1.44621e-05
-1.55419e-05
-1.19135e-05
-1.12657e-05
-1.09022e-05
-1.07981e-05
-1.10415e-05
-1.16348e-05
-1.25438e-05
-1.35477e-05
-1.43825e-05
-1.06736e-05
-4.82875e-05
-4.39119e-05
-4.58423e-05
-4.80013e-05
-4.98879e-05
-5.12007e-05
-5.1934e-05
-5.20949e-05
-5.16918e-05
-5.07162e-05
-4.91926e-05
-4.73415e-05
-4.57021e-05
-5.00868e-05
-1.20519e-05
-1.5889e-05
-1.509e-05
-1.42398e-05
-1.36761e-05
-1.36772e-05
-1.41627e-05
-1.51705e-05
-1.17191e-05
-1.11158e-05
-1.07738e-05
-1.0666e-05
-1.08766e-05
-1.14278e-05
-1.23862e-05
-1.38779e-05
-1.63825e-05
-2.05678e-05
-2.26531e-05
-3.42395e-05
-3.81946e-05
-4.18689e-05
-4.45269e-05
-4.66297e-05
-4.80283e-05
-4.88256e-05
-4.9025e-05
-4.86443e-05
-4.76845e-05
-4.60756e-05
-4.38313e-05
-4.05625e-05
-3.66083e-05
-2.56919e-05
-2.30091e-05
-1.84849e-05
-1.57273e-05
-1.42246e-05
-1.35117e-05
-1.34708e-05
-1.39083e-05
-1.48365e-05
-1.15461e-05
-1.09837e-05
-1.06644e-05
-1.05579e-05
-1.07424e-05
-1.12436e-05
-1.21254e-05
-1.35057e-05
-1.5537e-05
-1.84081e-05
-2.35726e-05
-3.08066e-05
-3.46489e-05
-3.8175e-05
-4.08739e-05
-4.29928e-05
-4.44047e-05
-4.52208e-05
-4.54491e-05
-4.51176e-05
-4.42222e-05
-4.26895e-05
-4.04714e-05
-3.74378e-05
-3.36386e-05
-2.65583e-05
-2.09052e-05
-1.77559e-05
-1.54876e-05
-1.4048e-05
-1.33471e-05
-1.32866e-05
-1.36826e-05
-1.45435e-05
-1.14094e-05
-1.08889e-05
-1.06e-05
-1.05102e-05
-1.06914e-05
-1.117e-05
-1.20092e-05
-1.33276e-05
-1.53166e-05
-1.8195e-05
-2.22184e-05
-2.73146e-05
-3.12579e-05
-3.48388e-05
-3.76156e-05
-3.9821e-05
-4.12739e-05
-4.21066e-05
-4.23496e-05
-4.2041e-05
-4.11607e-05
-3.96322e-05
-3.73758e-05
-3.43427e-05
-3.04619e-05
-2.54072e-05
-2.0997e-05
-1.77182e-05
-1.54175e-05
-1.39861e-05
-1.32753e-05
-1.31796e-05
-1.35244e-05
-1.43168e-05
-1.13165e-05
-1.08437e-05
-1.05938e-05
-1.05324e-05
-1.0721e-05
-1.11807e-05
-1.19627e-05
-1.31667e-05
-1.49382e-05
-1.74463e-05
-2.07205e-05
-2.46439e-05
-2.82202e-05
-3.15835e-05
-3.42475e-05
-3.63544e-05
-3.77402e-05
-3.85347e-05
-3.87731e-05
-3.84991e-05
-3.76889e-05
-3.62716e-05
-3.41464e-05
-3.13425e-05
-2.78305e-05
-2.38814e-05
-2.02459e-05
-1.73526e-05
-1.52761e-05
-1.39497e-05
-1.32691e-05
-1.31485e-05
-1.34409e-05
-1.41606e-05
-1.12739e-05
-1.08655e-05
-1.06716e-05
-1.0659e-05
-1.08759e-05
-1.13358e-05
-1.20744e-05
-1.31619e-05
-1.46952e-05
-1.67779e-05
-1.94114e-05
-2.25035e-05
-2.55518e-05
-2.85053e-05
-3.0895e-05
-3.27711e-05
-3.40215e-05
-3.47524e-05
-3.49714e-05
-3.47304e-05
-3.40159e-05
-3.27739e-05
-3.08906e-05
-2.84546e-05
-2.54754e-05
-2.23329e-05
-1.94054e-05
-1.70101e-05
-1.52304e-05
-1.40473e-05
-1.34021e-05
-1.32432e-05
-1.34629e-05
-1.40852e-05
-1.12822e-05
-1.09653e-05
-1.08515e-05
-1.09126e-05
-1.11841e-05
-1.1675e-05
-1.24094e-05
-1.34319e-05
-1.47987e-05
-1.65736e-05
-1.87439e-05
-2.12453e-05
-2.38005e-05
-2.62995e-05
-2.83648e-05
-2.99913e-05
-3.10969e-05
-3.1744e-05
-3.19513e-05
-3.17463e-05
-3.11155e-05
-3.0025e-05
-2.84218e-05
-2.6364e-05
-2.39001e-05
-2.13661e-05
-1.89945e-05
-1.69993e-05
-1.54638e-05
-1.43835e-05
-1.37373e-05
-1.3503e-05
-1.36113e-05
-1.40918e-05
-1.13284e-05
-1.11276e-05
-1.11106e-05
-1.12621e-05
-1.16085e-05
-1.21612e-05
-1.29405e-05
-1.3974e-05
-1.52788e-05
-1.69253e-05
-1.88826e-05
-2.10754e-05
-2.33247e-05
-2.55106e-05
-2.73621e-05
-2.88346e-05
-2.98622e-05
-3.04708e-05
-3.06708e-05
-3.04766e-05
-2.98799e-05
-2.88674e-05
-2.74218e-05
-2.55992e-05
-2.34702e-05
-2.12863e-05
-1.92158e-05
-1.74193e-05
-1.60158e-05
-1.49545e-05
-1.42524e-05
-1.39032e-05
-1.38669e-05
-1.41622e-05
-1.14004e-05
-1.13468e-05
-1.14351e-05
-1.16772e-05
-1.21073e-05
-1.27502e-05
-1.36358e-05
-1.48009e-05
-1.62907e-05
-1.80697e-05
-2.01035e-05
-2.23419e-05
-2.46318e-05
-2.6843e-05
-2.87535e-05
-3.02901e-05
-3.1385e-05
-3.20372e-05
-3.2248e-05
-3.20242e-05
-3.13636e-05
-3.02658e-05
-2.87393e-05
-2.68502e-05
-2.46921e-05
-2.24822e-05
-2.03827e-05
-1.85279e-05
-1.6947e-05
-1.5757e-05
-1.49278e-05
-1.44338e-05
-1.42245e-05
-1.42789e-05
-8.7776e-06
-8.78792e-06
-8.8143e-06
-8.86042e-06
-8.93292e-06
-9.03517e-06
-9.16956e-06
-9.33728e-06
-9.53669e-06
-9.76494e-06
-1.00116e-05
-1.02679e-05
-1.05153e-05
-1.07447e-05
-1.09428e-05
-1.11042e-05
-1.12236e-05
-1.12989e-05
-1.13291e-05
-1.13142e-05
-1.12559e-05
-1.11562e-05
-1.1021e-05
-1.08558e-05
-1.06739e-05
-1.04845e-05
-1.03062e-05
-1.0147e-05
-1.00169e-05
-9.91706e-06
-9.84634e-06
-9.79973e-06
-9.76907e-06
-9.74834e-06
-8.73397e-06
-8.69496e-06
-8.68353e-06
-8.69265e-06
-8.73277e-06
-8.80519e-06
-8.90942e-06
-9.04448e-06
-9.2058e-06
-9.39066e-06
-9.58501e-06
-9.78553e-06
-9.97379e-06
-1.01492e-05
-1.0299e-05
-1.04223e-05
-1.05146e-05
-1.05758e-05
-1.0605e-05
-1.06024e-05
-1.05692e-05
-1.05056e-05
-1.04166e-05
-1.03029e-05
-1.01777e-05
-1.00415e-05
-9.913e-06
-9.79568e-06
-9.7045e-06
-9.64284e-06
-9.61498e-06
-9.61903e-06
-9.64162e-06
-9.68488e-06
-8.749e-06
-8.69063e-06
-8.66038e-06
-8.64507e-06
-8.66752e-06
-8.7303e-06
-8.83275e-06
-8.97498e-06
-9.15162e-06
-9.36515e-06
-9.592e-06
-9.83808e-06
-1.00568e-05
-1.02592e-05
-1.0423e-05
-1.05561e-05
-1.06526e-05
-1.07157e-05
-1.07445e-05
-1.07392e-05
-1.07009e-05
-1.06267e-05
-1.05228e-05
-1.03814e-05
-1.02254e-05
-1.00434e-05
-9.8836e-06
-9.74026e-06
-9.63977e-06
-9.58205e-06
-9.57328e-06
-9.608e-06
-9.65409e-06
-9.71783e-06
-8.8192e-06
-8.73918e-06
-8.68986e-06
-8.65643e-06
-8.67088e-06
-8.73833e-06
-8.86001e-06
-9.04078e-06
-9.27707e-06
-9.58364e-06
-9.91972e-06
-1.03086e-05
-1.06357e-05
-1.09338e-05
-1.11609e-05
-1.13409e-05
-1.1465e-05
-1.1542e-05
-1.15708e-05
-1.15513e-05
-1.14851e-05
-1.13638e-05
-1.11965e-05
-1.09593e-05
-1.06956e-05
-1.03718e-05
-1.01063e-05
-9.87475e-06
-9.72342e-06
-9.64116e-06
-9.63305e-06
-9.68621e-06
-9.75335e-06
-9.84065e-06
-8.95674e-06
-8.85253e-06
-8.78929e-06
-8.74857e-06
-8.76925e-06
-8.85981e-06
-9.0257e-06
-9.2814e-06
-9.62928e-06
-1.01106e-05
-1.06556e-05
-1.13298e-05
-1.18638e-05
-1.23419e-05
-1.26872e-05
-1.29558e-05
-1.31333e-05
-1.32378e-05
-1.3267e-05
-1.3221e-05
-1.31024e-05
-1.2893e-05
-1.26083e-05
-1.21917e-05
-1.1723e-05
-1.11158e-05
-1.06471e-05
-1.02472e-05
-9.99451e-06
-9.85219e-06
-9.82047e-06
-9.87503e-06
-9.95575e-06
-1.0071e-05
-9.16146e-06
-9.02795e-06
-8.95474e-06
-8.91654e-06
-8.95738e-06
-9.08924e-06
-9.32334e-06
-9.6884e-06
-1.01979e-05
-1.09439e-05
-1.18207e-05
-1.3001e-05
-1.38625e-05
-1.46233e-05
-1.51483e-05
-1.55541e-05
-1.58144e-05
-1.59626e-05
-1.59931e-05
-1.59057e-05
-1.57064e-05
-1.53616e-05
-1.48987e-05
-1.42002e-05
-1.34061e-05
-1.22943e-05
-1.15032e-05
-1.08455e-05
-1.04424e-05
-1.02062e-05
-1.01284e-05
-1.01699e-05
-1.0259e-05
-1.04098e-05
-9.43032e-06
-9.25959e-06
-9.17902e-06
-9.15147e-06
-9.22479e-06
-9.41346e-06
-9.73456e-06
-1.02334e-05
-1.09386e-05
-1.20418e-05
-1.33856e-05
-1.54469e-05
-1.67525e-05
-1.78826e-05
-1.86255e-05
-1.92014e-05
-1.95624e-05
-1.97656e-05
-1.97983e-05
-1.96601e-05
-1.93638e-05
-1.88517e-05
-1.81728e-05
-1.7105e-05
-1.58694e-05
-1.38753e-05
-1.26339e-05
-1.16258e-05
-1.10382e-05
-1.06838e-05
-1.05431e-05
-1.05615e-05
-1.06566e-05
-1.08544e-05
-9.76047e-06
-9.53784e-06
-9.45427e-06
-9.44771e-06
-9.56962e-06
-9.83475e-06
-1.02627e-05
-1.0903e-05
-1.17942e-05
-1.32025e-05
-1.5126e-05
-1.87339e-05
-2.05068e-05
-2.20781e-05
-2.30869e-05
-2.38831e-05
-2.43781e-05
-2.46557e-05
-2.46917e-05
-2.44856e-05
-2.40611e-05
-2.33328e-05
-2.23907e-05
-2.088e-05
-1.91764e-05
-1.56245e-05
-1.38385e-05
-1.25276e-05
-1.17646e-05
-1.12842e-05
-1.10632e-05
-1.10451e-05
-1.11424e-05
-1.14019e-05
-1.01337e-05
-9.85709e-06
-9.76871e-06
-9.7892e-06
-9.97184e-06
-1.03263e-05
-1.08646e-05
-1.16164e-05
-1.25389e-05
-1.41323e-05
-1.63466e-05
-2.34122e-05
-2.50876e-05
-2.68482e-05
-2.80178e-05
-2.8955e-05
-2.9541e-05
-2.98768e-05
-2.99172e-05
-2.96612e-05
-2.91534e-05
-2.82897e-05
-2.71895e-05
-2.54828e-05
-2.38772e-05
-1.68256e-05
-1.48528e-05
-1.33339e-05
-1.25447e-05
-1.19641e-05
-1.16587e-05
-1.15957e-05
-1.16939e-05
-1.20479e-05
-1.05432e-05
-1.02065e-05
-1.01206e-05
-1.01888e-05
-1.04727e-05
-1.09803e-05
-1.17253e-05
-1.26075e-05
-1.35874e-05
-1.58376e-05
-1.1648e-05
-2.7268e-05
-2.89243e-05
-3.12238e-05
-3.27185e-05
-3.3957e-05
-3.47272e-05
-3.51563e-05
-3.52014e-05
-3.48618e-05
-3.41795e-05
-3.30233e-05
-3.16035e-05
-2.93542e-05
-2.77971e-05
-1.19325e-05
-1.65824e-05
-1.44066e-05
-1.35888e-05
-1.28906e-05
-1.24064e-05
-1.2242e-05
-1.23186e-05
-1.27708e-05
-1.09726e-05
-1.05649e-05
-1.04788e-05
-1.05969e-05
-1.09887e-05
-1.16645e-05
-1.26256e-05
-1.36743e-05
-1.4178e-05
-9.16218e-06
-3.98298e-05
-3.40634e-05
-3.49103e-05
-3.62814e-05
-3.74162e-05
-3.82016e-05
-3.86317e-05
-3.86815e-05
-3.83502e-05
-3.7662e-05
-3.66188e-05
-3.53301e-05
-3.45221e-05
-4.01482e-05
-1.04249e-05
-1.52083e-05
-1.47467e-05
-1.3859e-05
-1.31759e-05
-1.28965e-05
-1.29572e-05
-1.35375e-05
-1.1408e-05
-1.09272e-05
-1.08548e-05
-1.10578e-05
-1.16403e-05
-1.2681e-05
-1.43535e-05
-1.68066e-05
-2.08294e-05
-2.51597e-05
-3.6695e-05
-3.26275e-05
-3.50955e-05
-3.77234e-05
-3.98958e-05
-4.15113e-05
-4.25646e-05
-4.30953e-05
-4.31498e-05
-4.27284e-05
-4.17855e-05
-4.02813e-05
-3.82252e-05
-3.57205e-05
-3.33781e-05
-3.77645e-05
-2.60525e-05
-2.17957e-05
-1.78683e-05
-1.5596e-05
-1.42351e-05
-1.36513e-05
-1.36211e-05
-1.4331e-05
-1.18244e-05
-1.12696e-05
-1.11969e-05
-1.14516e-05
-1.21501e-05
-1.3386e-05
-1.53521e-05
-1.81497e-05
-2.21785e-05
-2.63377e-05
-3.31069e-05
-3.49445e-05
-3.72871e-05
-3.965e-05
-4.19267e-05
-4.36329e-05
-4.47797e-05
-4.53601e-05
-4.54183e-05
-4.49544e-05
-4.39254e-05
-4.23364e-05
-4.01791e-05
-3.79234e-05
-3.56758e-05
-3.40076e-05
-2.72846e-05
-2.31693e-05
-1.92329e-05
-1.66284e-05
-1.50037e-05
-1.42829e-05
-1.42321e-05
-1.50796e-05
-1.22078e-05
-1.15887e-05
-1.15164e-05
-1.18176e-05
-1.26178e-05
-1.40225e-05
-1.62302e-05
-1.9338e-05
-2.36102e-05
-2.8279e-05
-3.37851e-05
-3.68102e-05
-3.94683e-05
-4.201e-05
-4.45283e-05
-4.63595e-05
-4.75974e-05
-4.82155e-05
-4.82769e-05
-4.77818e-05
-4.66685e-05
-4.49611e-05
-4.25687e-05
-4.0137e-05
-3.75891e-05
-3.46643e-05
-2.92217e-05
-2.46092e-05
-2.04428e-05
-1.75453e-05
-1.57102e-05
-1.48749e-05
-1.48041e-05
-1.57616e-05
-1.25413e-05
-1.1867e-05
-1.17869e-05
-1.21094e-05
-1.29613e-05
-1.44464e-05
-1.67518e-05
-1.99726e-05
-2.42901e-05
-2.91169e-05
-3.43814e-05
-3.79416e-05
-4.09059e-05
-4.3553e-05
-4.61722e-05
-4.805e-05
-4.93238e-05
-4.99542e-05
-5.00179e-05
-4.9515e-05
-4.837e-05
-4.66193e-05
-4.41289e-05
-4.15941e-05
-3.87726e-05
-3.52634e-05
-3.00687e-05
-2.53073e-05
-2.11076e-05
-1.81154e-05
-1.62123e-05
-1.5344e-05
-1.52873e-05
-1.63379e-05
-1.28176e-05
-1.2101e-05
-1.2013e-05
-1.23476e-05
-1.32315e-05
-1.47668e-05
-1.71309e-05
-2.04218e-05
-2.47763e-05
-2.96955e-05
-3.49254e-05
-3.87532e-05
-4.19097e-05
-4.46546e-05
-4.73471e-05
-4.92489e-05
-5.05368e-05
-5.11699e-05
-5.12357e-05
-5.07341e-05
-4.95786e-05
-4.78066e-05
-4.5245e-05
-4.26091e-05
-3.95669e-05
-3.58129e-05
-3.06615e-05
-2.58138e-05
-2.15884e-05
-1.85427e-05
-1.66065e-05
-1.57263e-05
-1.56858e-05
-1.68034e-05
-1.30312e-05
-1.22842e-05
-1.21881e-05
-1.25265e-05
-1.34255e-05
-1.49852e-05
-1.7377e-05
-2.07033e-05
-2.50822e-05
-3.00701e-05
-3.53339e-05
-3.93131e-05
-4.25864e-05
-4.539e-05
-4.81213e-05
-5.0034e-05
-5.13282e-05
-5.19623e-05
-5.20302e-05
-5.15314e-05
-5.03731e-05
-4.85928e-05
-4.59941e-05
-4.32988e-05
-4.01367e-05
-3.62332e-05
-3.10525e-05
-2.61409e-05
-2.18997e-05
-1.88318e-05
-1.68877e-05
-1.6011e-05
-1.59887e-05
-1.71536e-05
-1.31803e-05
-1.24155e-05
-1.23144e-05
-1.26548e-05
-1.35631e-05
-1.51386e-05
-1.75509e-05
-2.09057e-05
-2.5315e-05
-3.03594e-05
-3.56742e-05
-3.97473e-05
-4.30964e-05
-4.59475e-05
-4.87123e-05
-5.06419e-05
-5.19465e-05
-5.25855e-05
-5.26557e-05
-5.21566e-05
-5.09919e-05
-4.91981e-05
-4.65679e-05
-4.38256e-05
-4.05877e-05
-3.659e-05
-3.13601e-05
-2.63943e-05
-2.21276e-05
-1.90397e-05
-1.70877e-05
-1.62126e-05
-1.62008e-05
-1.7393e-05
-1.32645e-05
-1.24941e-05
-1.23916e-05
-1.27336e-05
-1.36474e-05
-1.52334e-05
-1.76622e-05
-2.10422e-05
-2.54864e-05
-3.05787e-05
-3.59485e-05
-4.00808e-05
-4.34783e-05
-4.63696e-05
-4.91665e-05
-5.11206e-05
-5.24419e-05
-5.30906e-05
-5.31637e-05
-5.26603e-05
-5.14835e-05
-4.96696e-05
-4.70101e-05
-4.42288e-05
-4.09423e-05
-3.68844e-05
-3.15993e-05
-2.65853e-05
-2.22839e-05
-1.91749e-05
-1.72114e-05
-1.63327e-05
-1.63229e-05
-1.75243e-05
-1.32842e-05
-1.25203e-05
-1.24201e-05
-1.27632e-05
-1.36787e-05
-1.52692e-05
-1.77101e-05
-2.1111e-05
-2.55949e-05
-3.07283e-05
-3.616e-05
-4.03244e-05
-4.37444e-05
-4.66692e-05
-4.94939e-05
-5.14786e-05
-5.28219e-05
-5.34851e-05
-5.35619e-05
-5.30516e-05
-5.18595e-05
-5.00184e-05
-4.73335e-05
-4.45215e-05
-4.12126e-05
-3.71202e-05
-3.17708e-05
-2.67135e-05
-2.23733e-05
-1.92385e-05
-1.72597e-05
-1.63726e-05
-1.63566e-05
-1.75494e-05
-1.32412e-05
-1.24964e-05
-1.24016e-05
-1.27439e-05
-1.36549e-05
-1.52403e-05
-1.76838e-05
-2.10957e-05
-2.56216e-05
-3.07872e-05
-3.63082e-05
-4.04737e-05
-4.3876e-05
-4.68202e-05
-4.96646e-05
-5.16842e-05
-5.30527e-05
-5.37342e-05
-5.38156e-05
-5.32961e-05
-5.20867e-05
-5.02187e-05
-4.7519e-05
-4.46906e-05
-4.13978e-05
-3.72992e-05
-3.18569e-05
-2.67623e-05
-2.23737e-05
-1.9222e-05
-1.72308e-05
-1.63343e-05
-1.63049e-05
-1.74695e-05
-1.31382e-05
-1.24243e-05
-1.23349e-05
-1.26682e-05
-1.35573e-05
-1.51103e-05
-1.75214e-05
-2.09027e-05
-2.54501e-05
-3.06315e-05
-3.6334e-05
-4.04584e-05
-4.37728e-05
-4.66921e-05
-4.95121e-05
-5.15489e-05
-5.29323e-05
-5.36305e-05
-5.37182e-05
-5.31947e-05
-5.19817e-05
-5.01081e-05
-4.74397e-05
-4.46416e-05
-4.14301e-05
-3.73633e-05
-3.17361e-05
-2.662e-05
-2.22034e-05
-1.90715e-05
-1.70961e-05
-1.6207e-05
-1.61666e-05
-1.72843e-05
-1.29827e-05
-1.23124e-05
-1.22293e-05
-1.25463e-05
-1.33963e-05
-1.48881e-05
-1.72263e-05
-2.05251e-05
-2.50662e-05
-3.01644e-05
-3.62869e-05
-4.03455e-05
-4.33721e-05
-4.62599e-05
-4.90325e-05
-5.10708e-05
-5.24532e-05
-5.31635e-05
-5.32605e-05
-5.27441e-05
-5.15496e-05
-4.96938e-05
-4.70852e-05
-4.43281e-05
-4.13618e-05
-3.73658e-05
-3.13196e-05
-2.62836e-05
-2.18662e-05
-1.8802e-05
-1.68755e-05
-1.60111e-05
-1.59594e-05
-1.70044e-05
-1.27828e-05
-1.21649e-05
-1.20806e-05
-1.23583e-05
-1.31214e-05
-1.44646e-05
-1.65817e-05
-1.95813e-05
-2.38462e-05
-2.84003e-05
-3.5988e-05
-3.99129e-05
-4.25476e-05
-4.52908e-05
-4.78559e-05
-4.981e-05
-5.11362e-05
-5.1837e-05
-5.19472e-05
-5.1468e-05
-5.03547e-05
-4.86126e-05
-4.62313e-05
-4.36515e-05
-4.11213e-05
-3.71146e-05
-2.96157e-05
-2.51347e-05
-2.09928e-05
-1.82104e-05
-1.64745e-05
-1.57122e-05
-1.56807e-05
-1.66387e-05
-1.2557e-05
-1.20015e-05
-1.19211e-05
-1.21622e-05
-1.28389e-05
-1.40299e-05
-1.59103e-05
-1.86094e-05
-2.2943e-05
-2.7991e-05
-3.82971e-05
-3.79807e-05
-4.15291e-05
-4.4884e-05
-4.75e-05
-4.94782e-05
-5.07924e-05
-5.14961e-05
-5.16262e-05
-5.11866e-05
-5.01249e-05
-4.84067e-05
-4.60048e-05
-4.28533e-05
-3.93508e-05
-3.93451e-05
-2.93817e-05
-2.43768e-05
-2.01463e-05
-1.76329e-05
-1.60877e-05
-1.54177e-05
-1.53905e-05
-1.62328e-05
-1.23182e-05
-1.18238e-05
-1.17341e-05
-1.19083e-05
-1.2427e-05
-1.3297e-05
-1.45013e-05
-1.57347e-05
-1.60525e-05
-8.8703e-06
-5.13048e-05
-4.31347e-05
-4.40753e-05
-4.58245e-05
-4.73656e-05
-4.84659e-05
-4.91189e-05
-4.92716e-05
-4.89312e-05
-4.81257e-05
-4.69074e-05
-4.54067e-05
-4.47359e-05
-5.28923e-05
-1.02507e-05
-1.76795e-05
-1.74477e-05
-1.63613e-05
-1.54344e-05
-1.50174e-05
-1.50617e-05
-1.5801e-05
-1.20921e-05
-1.16587e-05
-1.15808e-05
-1.17388e-05
-1.22182e-05
-1.30532e-05
-1.43172e-05
-1.5999e-05
-1.84379e-05
-2.24175e-05
-2.25559e-05
-3.58697e-05
-3.88222e-05
-4.20413e-05
-4.43303e-05
-4.63865e-05
-4.77091e-05
-4.84959e-05
-4.86847e-05
-4.82911e-05
-4.7341e-05
-4.57059e-05
-4.36841e-05
-4.07079e-05
-3.78792e-05
-2.55947e-05
-2.48546e-05
-2.06747e-05
-1.80231e-05
-1.63343e-05
-1.52503e-05
-1.47866e-05
-1.47857e-05
-1.54167e-05
-1.18888e-05
-1.15073e-05
-1.14372e-05
-1.15745e-05
-1.19995e-05
-1.27528e-05
-1.39081e-05
-1.55486e-05
-1.77619e-05
-2.07026e-05
-2.58581e-05
-3.35567e-05
-3.61775e-05
-3.87626e-05
-4.0817e-05
-4.26369e-05
-4.38934e-05
-4.46758e-05
-4.48862e-05
-4.45443e-05
-4.36795e-05
-4.22433e-05
-4.03402e-05
-3.79363e-05
-3.5536e-05
-2.85077e-05
-2.31148e-05
-2.00915e-05
-1.77015e-05
-1.60144e-05
-1.49794e-05
-1.45329e-05
-1.45189e-05
-1.50745e-05
-1.17249e-05
-1.1393e-05
-1.13429e-05
-1.14838e-05
-1.18939e-05
-1.2621e-05
-1.37461e-05
-1.53727e-05
-1.76462e-05
-2.07018e-05
-2.47464e-05
-2.96544e-05
-3.24276e-05
-3.47989e-05
-3.67341e-05
-3.8581e-05
-3.98385e-05
-4.06185e-05
-4.0836e-05
-4.05179e-05
-3.96693e-05
-3.82732e-05
-3.63769e-05
-3.40795e-05
-3.1609e-05
-2.73399e-05
-2.32717e-05
-2.00956e-05
-1.76228e-05
-1.59091e-05
-1.4856e-05
-1.43806e-05
-1.43264e-05
-1.4808e-05
-1.16059e-05
-1.13219e-05
-1.1297e-05
-1.1448e-05
-1.18448e-05
-1.25314e-05
-1.3578e-05
-1.50796e-05
-1.71405e-05
-1.98854e-05
-2.3141e-05
-2.68076e-05
-2.93446e-05
-3.15329e-05
-3.34085e-05
-3.51679e-05
-3.63711e-05
-3.7118e-05
-3.73328e-05
-3.70525e-05
-3.62696e-05
-3.49858e-05
-3.31986e-05
-3.10976e-05
-2.88128e-05
-2.56875e-05
-2.24491e-05
-1.95967e-05
-1.73485e-05
-1.57527e-05
-1.47546e-05
-1.42809e-05
-1.41976e-05
-1.46119e-05
-1.15354e-05
-1.13044e-05
-1.13165e-05
-1.14937e-05
-1.1894e-05
-1.25543e-05
-1.35284e-05
-1.48872e-05
-1.6696e-05
-1.90134e-05
-2.16869e-05
-2.46195e-05
-2.70158e-05
-2.92187e-05
-3.11075e-05
-3.27789e-05
-3.39482e-05
-3.47099e-05
-3.49023e-05
-3.46329e-05
-3.38856e-05
-3.26681e-05
-3.10006e-05
-2.9009e-05
-2.67937e-05
-2.42075e-05
-2.1519e-05
-1.90966e-05
-1.71281e-05
-1.56899e-05
-1.47574e-05
-1.42806e-05
-1.41566e-05
-1.44925e-05
-1.15093e-05
-1.13404e-05
-1.14e-05
-1.16166e-05
-1.20358e-05
-1.26872e-05
-1.36108e-05
-1.48544e-05
-1.64552e-05
-1.8442e-05
-2.07044e-05
-2.31663e-05
-2.54163e-05
-2.755e-05
-2.93592e-05
-3.09103e-05
-3.20023e-05
-3.2674e-05
-3.28834e-05
-3.26579e-05
-3.19877e-05
-3.08852e-05
-2.93471e-05
-2.7513e-05
-2.54182e-05
-2.31532e-05
-2.08558e-05
-1.87755e-05
-1.70549e-05
-1.57575e-05
-1.48765e-05
-1.43818e-05
-1.42024e-05
-1.44433e-05
-1.15113e-05
-1.14056e-05
-1.15025e-05
-1.17571e-05
-1.22021e-05
-1.28627e-05
-1.37702e-05
-1.49575e-05
-1.64443e-05
-1.82453e-05
-2.02854e-05
-2.24888e-05
-2.46345e-05
-2.6684e-05
-2.84443e-05
-2.99101e-05
-3.09561e-05
-3.15926e-05
-3.17996e-05
-3.15887e-05
-3.09549e-05
-2.99112e-05