/*--------------------------------*- C++ -*----------------------------------*\
| =========                 |                                                 |
| \\      /  F ield         | OpenFOAM: The Open Source CFD Toolbox           |
|  \\    /   O peration     | Version:  2112                                  |
|   \\  /    A nd           | Website:  www.openfoam.com                      |
|    \\/     M anipulation  |                                                 |
\*---------------------------------------------------------------------------*/
FoamFile
{
    version     2.0;
    format      ascii;
    arch        "LSB;label=32;scalar=64";
    class       surfaceScalarField;
    location    "1.7";
    object      phi;
}
// * * * * * * * * * * * * * * * * * * * * * * * * * * * * * * * * * * * * * //

dimensions      [0 3 -1 0 0 0 0];

oriented        oriented;

internalField   nonuniform List<scalar> 
188215
(
1.04211e-09
2.50083e-09
-3.54294e-09
3.15574e-09
1.78209e-09
-3.89571e-09
5.59476e-09
1.18734e-09
-3.62635e-09
8.06612e-09
8.30737e-10
-3.30209e-09
1.04723e-08
7.5587e-10
-3.16204e-09
1.27878e-08
8.85271e-10
-3.20077e-09
1.49881e-08
1.17017e-09
-3.37046e-09
1.7001e-08
1.61684e-09
-3.62981e-09
1.8718e-08
2.2371e-09
-3.95407e-09
1.99008e-08
3.13172e-09
-4.31452e-09
2.03794e-08
4.22349e-09
-4.70211e-09
1.98163e-08
5.65146e-09
-5.08828e-09
1.83489e-08
6.90469e-09
-5.43738e-09
1.60202e-08
8.05086e-09
-5.7221e-09
1.30406e-08
8.93177e-09
-5.95218e-09
9.55205e-09
9.61363e-09
-6.12508e-09
5.73884e-09
1.00585e-08
-6.24531e-09
1.76674e-09
1.02844e-08
-6.31225e-09
-2.19147e-09
1.02847e-08
-6.32646e-09
-5.9635e-09
1.00597e-08
-6.28768e-09
-9.38448e-09
9.61643e-09
-6.19545e-09
-1.22714e-08
8.93732e-09
-6.05039e-09
-1.44858e-08
8.06238e-09
-5.84797e-09
-1.58201e-08
6.92585e-09
-5.59156e-09
-1.62391e-08
5.69152e-09
-5.2725e-09
-1.56073e-08
4.29016e-09
-4.92195e-09
-1.42719e-08
3.24601e-09
-4.5814e-09
-1.23967e-08
2.41708e-09
-4.29236e-09
-1.02192e-08
1.90998e-09
-4.0874e-09
-7.8489e-09
1.66797e-09
-4.0383e-09
-5.38415e-09
1.75895e-09
-4.2237e-09
-2.95827e-09
2.25103e-09
-4.67691e-09
-8.98086e-10
3.04557e-09
-5.10574e-09
3.84317e-09
-4.74126e-09
-1.74437e-10
7.20156e-09
-4.52629e-09
2.21989e-09
7.32981e-09
-7.94205e-09
5.26984e-09
7.0974e-09
-8.96001e-09
8.20186e-09
7.13975e-09
-9.24104e-09
1.09112e-08
7.65227e-09
-9.60571e-09
1.34399e-08
8.60958e-09
-1.0253e-08
1.5825e-08
9.99312e-09
-1.12081e-08
1.80335e-08
1.18685e-08
-1.24602e-08
1.99643e-08
1.4306e-08
-1.39997e-08
2.13481e-08
1.75673e-08
-1.58194e-08
2.19615e-08
2.14791e-08
-1.7869e-08
2.13485e-08
2.63292e-08
-2.00647e-08
1.97305e-08
3.06798e-08
-2.21572e-08
1.71824e-08
3.46209e-08
-2.4022e-08
1.39548e-08
3.77334e-08
-2.5574e-08
1.01972e-08
4.01518e-08
-2.67806e-08
6.10199e-09
4.17651e-08
-2.76114e-08
1.84214e-09
4.25983e-08
-2.80541e-08
-2.40253e-09
4.26285e-08
-2.80992e-08
-6.45227e-09
4.18563e-08
-2.77469e-08
-1.01351e-08
4.03061e-08
-2.70068e-08
-1.32599e-08
3.79541e-08
-2.5892e-08
-1.56809e-08
3.4917e-08
-2.44337e-08
-1.71502e-08
3.10623e-08
-2.26671e-08
-1.76015e-08
2.6824e-08
-2.06812e-08
-1.68124e-08
2.21081e-08
-1.86071e-08
-1.52465e-08
1.83857e-08
-1.67057e-08
-1.31017e-08
1.53496e-08
-1.50773e-08
-1.06128e-08
1.32219e-08
-1.38008e-08
-7.82493e-09
1.17933e-08
-1.29132e-08
-4.74308e-09
1.1073e-08
-1.23959e-08
-1.50721e-09
1.10148e-08
-1.19997e-08
9.42827e-10
1.12896e-08
-1.06941e-08
1.09675e-08
-6.18153e-09
-1.03631e-09
1.27648e-08
-4.52695e-09
1.64498e-09
1.37874e-08
-9.13887e-09
5.2129e-09
1.41951e-08
-1.06656e-08
8.62398e-09
1.49513e-08
-1.12226e-08
1.17434e-08
1.63415e-08
-1.18087e-08
1.4658e-08
1.84044e-08
-1.27094e-08
1.74696e-08
2.11833e-08
-1.40017e-08
2.01972e-08
2.48482e-08
-1.57073e-08
2.27535e-08
2.95869e-08
-1.78372e-08
2.47555e-08
3.59682e-08
-2.04029e-08
2.58261e-08
4.37457e-08
-2.33372e-08
2.50636e-08
5.36038e-08
-2.65121e-08
2.3017e-08
6.22732e-08
-2.95467e-08
1.98636e-08
7.00184e-08
-3.22441e-08
1.60031e-08
7.60759e-08
-3.4482e-08
1.15824e-08
8.07844e-08
-3.62119e-08
6.81374e-09
8.39303e-08
-3.73965e-08
1.87336e-09
8.5562e-08
-3.80233e-08
-3.05091e-09
8.56325e-08
-3.80797e-08
-7.77105e-09
8.4142e-08
-3.75655e-08
-1.21113e-08
8.11401e-08
-3.64937e-08
-1.58592e-08
7.65797e-08
-3.48777e-08
-1.88706e-08
7.0684e-08
-3.27555e-08
-2.07465e-08
6.31173e-08
-3.01791e-08
-2.1319e-08
5.46717e-08
-2.72753e-08
-2.00335e-08
4.50734e-08
-2.42508e-08
-1.7805e-08
3.76567e-08
-2.14994e-08
-1.49596e-08
3.16728e-08
-1.91686e-08
-1.18193e-08
2.74335e-08
-1.73519e-08
-8.38331e-09
2.44121e-08
-1.60548e-08
-4.60717e-09
2.24872e-08
-1.51904e-08
-6.73798e-10
2.14698e-08
-1.43884e-08
2.0976e-09
2.09065e-08
-1.23883e-08
1.93802e-08
-6.31508e-09
-1.37226e-09
1.83931e-08
-4.25603e-09
1.67289e-09
2.00824e-08
-9.34015e-09
5.84197e-09
2.10752e-08
-1.10493e-08
9.8918e-09
2.25769e-08
-1.16754e-08
1.36494e-08
2.49182e-08
-1.23343e-08
1.7248e-08
2.81693e-08
-1.33636e-08
2.08797e-08
3.24267e-08
-1.48752e-08
2.46629e-08
3.799e-08
-1.69249e-08
2.85482e-08
4.52485e-08
-1.95469e-08
3.19406e-08
5.53609e-08
-2.27851e-08
3.40627e-08
6.81708e-08
-2.65472e-08
3.29179e-08
8.54576e-08
-3.07089e-08
2.98801e-08
9.99773e-08
-3.46663e-08
2.54215e-08
1.12638e-07
-3.81609e-08
2.02413e-08
1.22294e-07
-4.10383e-08
1.44502e-08
1.29807e-07
-4.32318e-08
8.28828e-09
1.34811e-07
-4.4719e-08
1.9374e-09
1.37412e-07
-4.5499e-08
-4.39656e-09
1.37526e-07
-4.55595e-08
-1.0507e-08
1.35153e-07
-4.49002e-08
-1.62112e-08
1.30377e-07
-4.3533e-08
-2.12658e-08
1.23094e-07
-4.14593e-08
-2.55605e-08
1.1368e-07
-3.87017e-08
-2.83915e-08
1.01279e-07
-3.53305e-08
-2.92982e-08
8.70837e-08
-3.15052e-08
-2.68947e-08
7.01665e-08
-2.74966e-08
-2.32174e-08
5.79049e-08
-2.39255e-08
-1.89545e-08
4.83483e-08
-2.09384e-08
-1.46182e-08
4.17537e-08
-1.86565e-08
-1.01522e-08
3.69983e-08
-1.70522e-08
-5.43908e-09
3.37735e-08
-1.59994e-08
-6.8197e-10
3.17662e-08
-1.50535e-08
2.56995e-09
3.04486e-08
-1.2794e-08
2.80228e-08
-6.07264e-09
-1.32714e-09
2.37573e-08
-4.037e-09
2.30346e-09
2.59699e-08
-9.51806e-09
7.2745e-09
2.74811e-08
-1.13769e-08
1.21761e-08
2.97236e-08
-1.20483e-08
1.6822e-08
3.30658e-08
-1.27936e-08
2.1426e-08
3.75753e-08
-1.40099e-08
2.63321e-08
4.33716e-08
-1.58511e-08
3.18768e-08
5.08702e-08
-1.84249e-08
3.81506e-08
6.07653e-08
-2.17906e-08
4.4289e-08
7.52718e-08
-2.60493e-08
4.86258e-08
9.48805e-08
-3.10465e-08
4.65586e-08
1.24328e-07
-3.68036e-08
4.15037e-08
1.47246e-07
-4.22135e-08
3.46742e-08
1.66465e-07
-4.69981e-08
2.7262e-08
1.80632e-07
-5.09252e-08
1.91973e-08
1.91712e-07
-5.38397e-08
1.0731e-08
1.99067e-07
-5.57897e-08
2.04624e-09
2.02899e-07
-5.68019e-08
-6.62145e-09
2.03061e-07
-5.68678e-08
-1.50347e-08
1.99553e-07
-5.59867e-08
-2.30081e-08
1.92516e-07
-5.41657e-08
-3.02819e-08
1.81745e-07
-5.1378e-08
-3.69212e-08
1.67894e-07
-4.75738e-08
-4.17193e-08
1.48989e-07
-4.29122e-08
-4.34765e-08
1.26471e-07
-3.76306e-08
-3.87532e-08
9.74671e-08
-3.20239e-08
-3.22705e-08
7.86453e-08
-2.72231e-08
-2.55318e-08
6.48404e-08
-2.32308e-08
-1.92935e-08
5.57517e-08
-2.02363e-08
-1.33397e-08
4.92058e-08
-1.81614e-08
-7.35651e-09
4.46365e-08
-1.68462e-08
-1.48306e-09
4.16464e-08
-1.57536e-08
2.56141e-09
3.96522e-08
-1.3248e-08
3.64961e-08
-5.91191e-09
-1.02938e-09
2.87058e-08
-3.91912e-09
3.45048e-09
3.13771e-08
-9.88705e-09
9.49476e-09
3.33926e-08
-1.19558e-08
1.55093e-08
3.64199e-08
-1.27108e-08
2.13088e-08
4.08733e-08
-1.3607e-08
2.72265e-08
4.67821e-08
-1.51246e-08
3.38489e-08
5.42236e-08
-1.74744e-08
4.19682e-08
6.35882e-08
-2.08373e-08
5.21132e-08
7.58895e-08
-2.52692e-08
6.3423e-08
9.48942e-08
-3.09322e-08
7.24399e-08
1.23237e-07
-3.73731e-08
6.82526e-08
1.73918e-07
-4.54027e-08
5.9357e-08
2.09053e-07
-5.29114e-08
4.86007e-08
2.36953e-07
-5.97312e-08
3.78027e-08
2.56802e-07
-6.53721e-08
2.63338e-08
2.72524e-07
-6.93434e-08
1.44058e-08
2.8295e-07
-7.19551e-08
2.20369e-09
2.88397e-07
-7.32967e-08
-9.98291e-09
2.8862e-07
-7.33724e-08
-2.18618e-08
2.83613e-07
-7.2181e-08
-3.32433e-08
2.73613e-07
-6.97152e-08
-4.39001e-08
2.58287e-07
-6.5885e-08
-5.44469e-08
2.38815e-07
-6.03743e-08
-6.30285e-08
2.1125e-07
-5.36794e-08
-6.68031e-08
1.76542e-07
-4.62961e-08
-5.72239e-08
1.26295e-07
-3.84075e-08
-4.55313e-08
9.91231e-08
-3.21704e-08
-3.4847e-08
8.09479e-08
-2.67918e-08
-2.58833e-08
6.95592e-08
-2.27711e-08
-1.79613e-08
6.12604e-08
-1.99766e-08
-1.0325e-08
5.52434e-08
-1.82432e-08
-2.95356e-09
5.1181e-08
-1.69061e-08
2.25635e-09
4.84803e-08
-1.4038e-08
4.46564e-08
-5.90396e-09
-4.96352e-10
3.30702e-08
-3.86805e-09
5.08587e-09
3.62502e-08
-1.04554e-08
1.25259e-08
3.87831e-08
-1.28305e-08
1.99645e-08
4.27079e-08
-1.37266e-08
2.72004e-08
4.84889e-08
-1.48515e-08
3.46993e-08
5.60799e-08
-1.67967e-08
4.33687e-08
6.53968e-08
-1.98426e-08
5.48265e-08
7.63876e-08
-2.42572e-08
7.06889e-08
9.00495e-08
-3.00225e-08
9.11099e-08
1.11702e-07
-3.72291e-08
1.10391e-07
1.48634e-07
-4.46787e-08
1.01086e-07
2.38556e-07
-5.53328e-08
8.4981e-08
2.90361e-07
-6.52034e-08
6.81263e-08
3.28716e-07
-7.49086e-08
5.25908e-08
3.55486e-07
-8.31488e-08
3.63863e-08
3.77083e-07
-8.83544e-08
1.95929e-08
3.91485e-07
-9.17409e-08
2.41931e-09
3.99036e-07
-9.34647e-08
-1.47436e-08
3.99338e-07
-9.35552e-08
-3.15018e-08
3.92382e-07
-9.20109e-08
-4.76417e-08
3.7855e-07
-8.87966e-08
-6.30595e-08
3.5746e-07
-8.3755e-08
-7.97138e-08
3.31127e-07
-7.56576e-08
-9.54556e-08
2.93076e-07
-6.60839e-08
-1.0421e-07
2.41637e-07
-5.63401e-08
-8.40367e-08
1.51932e-07
-4.58099e-08
-6.32759e-08
1.1694e-07
-3.8578e-08
-4.68395e-08
9.61812e-08
-3.16696e-08
-3.43664e-08
8.34499e-08
-2.63638e-08
-2.40734e-08
7.35675e-08
-2.26001e-08
-1.43928e-08
6.58398e-08
-2.02769e-08
-5.08213e-09
6.04388e-08
-1.85684e-08
1.70366e-09
5.68676e-08
-1.51731e-08
5.23585e-08
-5.99846e-09
1.80775e-10
3.66964e-08
-3.80702e-09
7.25508e-09
4.03942e-08
-1.12183e-08
1.65218e-08
4.34983e-08
-1.3982e-08
2.58054e-08
4.84969e-08
-1.50726e-08
3.4833e-08
5.5964e-08
-1.65027e-08
4.40917e-08
6.58193e-08
-1.89981e-08
5.466e-08
7.77427e-08
-2.29141e-08
6.91665e-08
9.05027e-08
-2.86216e-08
9.1214e-08
1.03826e-07
-3.5824e-08
1.26725e-07
1.20966e-07
-4.47748e-08
1.68872e-07
1.55985e-07
-4.94978e-08
1.4819e-07
3.20113e-07
-6.08748e-08
1.20385e-07
3.91426e-07
-7.32596e-08
9.52513e-08
4.41081e-07
-8.72308e-08
7.35449e-08
4.76475e-07
-9.92819e-08
5.08135e-08
5.05406e-07
-1.05592e-07
2.70625e-08
5.24902e-07
-1.09666e-07
2.71432e-09
5.3511e-07
-1.11726e-07
-2.1632e-08
5.35519e-07
-1.11834e-07
-4.53764e-08
5.26114e-07
-1.09988e-07
-6.80976e-08
5.07387e-07
-1.06116e-07
-8.97655e-08
4.79128e-07
-1e-07
-1.14793e-07
4.44263e-07
-8.81094e-08
-1.42271e-07
3.94839e-07
-7.42848e-08
-1.62221e-07
3.2365e-07
-6.2063e-08
-1.18511e-07
1.58976e-07
-5.07542e-08
-8.29501e-08
1.27625e-07
-4.62461e-08
-6.0322e-08
1.11164e-07
-3.76105e-08
-4.45788e-08
9.86442e-08
-3.09376e-08
-3.1954e-08
8.69256e-08
-2.59829e-08
-1.98824e-08
7.6685e-08
-2.29169e-08
-8.08387e-09
6.93532e-08
-2.07129e-08
7.33241e-10
6.46478e-08
-1.65973e-08
5.92138e-08
-6.122e-09
9.13324e-10
3.94515e-08
-3.66843e-09
9.98654e-09
4.35154e-08
-1.21944e-08
2.1598e-08
4.72827e-08
-1.53959e-08
3.32685e-08
5.35505e-08
-1.67241e-08
4.4592e-08
6.31611e-08
-1.85206e-08
5.58406e-08
7.62165e-08
-2.16458e-08
6.77707e-08
9.23437e-08
-2.65311e-08
8.35445e-08
1.08353e-07
-3.36238e-08
1.09386e-07
1.20818e-07
-4.28325e-08
1.648e-07
1.17952e-07
-5.24005e-08
2.5512e-07
1.24459e-07
-5.87943e-08
2.0881e-07
4.25342e-07
-5.89195e-08
1.63653e-07
5.073e-07
-7.07166e-08
1.29525e-07
5.65092e-07
-8.98833e-08
1.0068e-07
6.11757e-07
-1.06439e-07
6.97889e-08
6.49361e-07
-1.13063e-07
3.69631e-08
6.75496e-07
-1.17769e-07
3.12179e-09
6.89047e-07
-1.20096e-07
-3.07308e-08
6.89586e-07
-1.20215e-07
-6.35948e-08
6.77102e-07
-1.18124e-07
-9.45699e-08
6.52001e-07
-1.13639e-07
-1.23542e-07
6.15327e-07
-1.07228e-07
-1.57818e-07
5.69377e-07
-9.08368e-08
-2.02895e-07
5.11759e-07
-7.18436e-08
-2.48254e-07
4.29266e-07
-6.02573e-08
-1.55153e-07
1.26331e-07
-6.0456e-08
-1.00581e-07
1.27116e-07
-5.40631e-08
-7.40886e-08
1.29433e-07
-4.47617e-08
-5.67637e-08
1.17509e-07
-3.61893e-08
-4.21758e-08
1.02316e-07
-2.99781e-08
-2.72485e-08
8.78618e-08
-2.61041e-08
-1.2163e-08
7.761e-08
-2.33423e-08
-4.68778e-10
7.13147e-08
-1.83611e-08
6.49017e-08
-6.15667e-09
1.98235e-09
4.0961e-08
-3.49187e-09
1.3551e-08
4.52689e-08
-1.33222e-08
2.82701e-08
4.96155e-08
-1.70519e-08
4.33838e-08
5.71055e-08
-1.86686e-08
5.83971e-08
6.90455e-08
-2.08978e-08
7.30195e-08
8.63181e-08
-2.47239e-08
8.64211e-08
1.09513e-07
-3.05707e-08
9.80013e-08
1.36265e-07
-3.94928e-08
1.08331e-07
1.60363e-07
-4.98757e-08
1.5357e-07
1.38523e-07
-6.58096e-08
3.64019e-07
-8.59898e-08
2.81633e-07
5.44472e-07
-3.67445e-08
2.2182e-07
6.08956e-07
-4.18422e-08
1.80798e-07
6.66907e-07
-6.07929e-08
1.43034e-07
7.27851e-07
-7.83294e-08
9.93669e-08
7.74789e-07
-8.17611e-08
5.21875e-08
8.07809e-07
-8.51333e-08
3.68847e-09
8.24424e-07
-8.6878e-08
-4.48304e-08
8.2508e-07
-8.69751e-08
-9.20836e-08
8.0978e-07
-8.54248e-08
-1.35935e-07
7.78074e-07
-8.2221e-08
-1.74052e-07
7.32428e-07
-7.89841e-08
-2.15756e-07
6.72662e-07
-6.15811e-08
-2.76621e-07
6.15421e-07
-4.27975e-08
-3.58811e-07
5.49622e-07
-3.81651e-08
-1.43902e-07
-8.85779e-08
-9.83769e-08
1.48683e-07
-6.70921e-08
-8.82272e-08
1.70994e-07
-5.17106e-08
-7.47238e-08
1.46293e-07
-4.22875e-08
-5.78614e-08
1.19919e-07
-3.44652e-08
-3.84502e-08
9.83082e-08
-2.98577e-08
-1.83411e-08
8.40173e-08
-2.65164e-08
-2.27451e-09
7.57953e-08
-2.05472e-08
6.86167e-08
-5.98957e-09
3.23878e-09
4.10311e-08
-3.3088e-09
1.76726e-08
4.54173e-08
-1.45822e-08
3.60921e-08
5.0126e-08
-1.893e-08
5.56312e-08
5.84694e-08
-2.09029e-08
7.6062e-08
7.22698e-08
-2.3655e-08
9.69096e-08
9.36135e-08
-2.81431e-08
1.14947e-07
1.26097e-07
-3.46215e-08
1.19476e-07
1.73965e-07
-4.22283e-08
9.497e-08
2.43032e-07
-5.81629e-08
3.27183e-07
-9.36903e-08
1.74272e-07
3.03287e-07
6.6913e-08
2.36411e-07
5.16947e-07
2.98693e-08
2.33196e-07
6.46874e-07
2.32486e-08
1.91823e-07
7.4388e-07
2.5344e-08
1.34108e-07
8.09538e-07
2.2966e-08
7.04058e-08
8.51342e-07
2.0169e-08
4.44298e-09
8.71453e-07
1.89343e-08
-6.15454e-08
8.72131e-07
1.89377e-08
-1.25343e-07
8.53401e-07
2.01768e-08
-1.83309e-07
8.13053e-07
2.29873e-08
-2.25271e-07
7.49013e-07
2.5378e-08
-2.29888e-07
6.53924e-07
2.33539e-08
-1.70423e-07
5.2625e-07
2.97067e-08
3.13457e-07
6.57419e-08
-9.20988e-08
3.32703e-07
-9.19213e-08
-1.12602e-07
2.51106e-07
-5.9609e-08
-1.03822e-07
1.82812e-07
-4.52992e-08
-8.07437e-08
1.35937e-07
-3.90961e-08
-5.35988e-08
1.0531e-07
-3.41471e-08
-2.64081e-08
8.71375e-08
-3.03108e-08
-4.75626e-09
7.73002e-08
-2.31567e-08
6.96831e-08
-5.82266e-09
4.80524e-09
3.93441e-08
-3.11827e-09
2.26441e-08
4.35065e-08
-1.5928e-08
4.58289e-08
4.78859e-08
-2.09447e-08
7.21e-08
5.55476e-08
-2.33494e-08
1.03242e-07
6.79492e-08
-2.68219e-08
1.42926e-07
8.6431e-08
-3.2501e-08
1.96974e-07
1.1266e-07
-4.06115e-08
2.72869e-07
1.46973e-07
-4.89029e-08
3.84028e-07
1.86275e-07
-5.44024e-08
5.3313e-07
2.21313e-07
-4.32313e-08
4.14669e-07
8.14856e-08
3.69759e-08
4.37634e-07
2.24481e-07
5.58414e-08
4.26298e-07
3.9269e-07
1.35594e-07
3.66499e-07
5.07508e-07
1.99165e-07
2.80676e-07
5.94367e-07
2.35337e-07
1.88097e-07
6.52933e-07
2.49183e-07
9.61351e-08
6.89912e-07
2.53393e-07
5.22622e-09
7.0774e-07
2.54622e-07
-8.56652e-08
7.08325e-07
2.54697e-07
-1.77572e-07
6.91684e-07
2.53623e-07
-2.7006e-07
6.55944e-07
2.49597e-07
-3.55757e-07
5.98694e-07
2.36015e-07
-4.15436e-07
5.13242e-07
2.00361e-07
-4.26228e-07
3.9962e-07
1.37421e-07
-4.04041e-07
2.32351e-07
5.89194e-08
-5.27959e-07
8.38865e-08
4.0031e-08
-3.78655e-07
2.26007e-07
-4.26079e-08
-2.6485e-07
1.93135e-07
-5.58334e-08
-1.84996e-07
1.54998e-07
-5.20404e-08
-1.25322e-07
1.21921e-07
-4.56581e-08
-7.81339e-08
9.76358e-08
-3.9514e-08
-3.85214e-08
8.22811e-08
-3.47561e-08
-8.72307e-09
7.36908e-08
-2.6189e-08
6.66196e-08
-5.65951e-09
6.10888e-09
3.61795e-08
-2.94434e-09
2.68853e-08
3.99275e-08
-1.71975e-08
5.39531e-08
4.36836e-08
-2.28654e-08
8.50987e-08
5.00938e-08
-2.56918e-08
1.22764e-07
6.01279e-08
-2.98437e-08
1.71548e-07
7.43291e-08
-3.66825e-08
2.37834e-07
9.28457e-08
-4.64716e-08
3.27558e-07
1.14563e-07
-5.7313e-08
4.44161e-07
1.34652e-07
-6.49802e-08
5.76913e-07
1.48105e-07
-5.95442e-08
5.85549e-07
1.04394e-07
-3.15449e-08
5.99432e-07
1.86412e-07
2.41863e-08
5.51557e-07
2.88465e-07
1.52099e-07
4.56966e-07
3.67167e-07
2.34933e-07
3.43584e-07
4.2921e-07
2.78539e-07
2.27763e-07
4.71522e-07
2.97232e-07
1.15405e-07
4.98752e-07
3.03518e-07
5.82779e-09
5.11978e-07
3.05339e-07
-1.03717e-07
5.1246e-07
3.05411e-07
-2.15976e-07
5.00203e-07
3.0374e-07
-3.31629e-07
4.73954e-07
2.97642e-07
-4.44801e-07
4.32627e-07
2.7924e-07
-5.39323e-07
3.71545e-07
2.36219e-07
-5.87442e-07
2.93568e-07
1.5417e-07
-5.74698e-07
1.91897e-07
2.77112e-08
-5.69484e-07
1.07905e-07
-2.92333e-08
-4.37481e-07
1.53047e-07
-5.9043e-08
-3.18781e-07
1.40828e-07
-6.6393e-08
-2.24969e-07
1.21831e-07
-6.06447e-08
-1.52393e-07
1.01378e-07
-5.20327e-08
-9.49503e-08
8.4756e-08
-4.45631e-08
-4.7263e-08
7.34437e-08
-3.88498e-08
-1.14476e-08
6.67966e-08
-2.89211e-08
6.06814e-08
-5.50947e-09
7.23622e-09
3.17269e-08
-2.78354e-09
3.05519e-08
3.49242e-08
-1.83123e-08
6.08844e-08
3.78976e-08
-2.45466e-08
9.58688e-08
4.28294e-08
-2.77199e-08
1.38118e-07
5.03128e-08
-3.24337e-08
1.92297e-07
6.04534e-08
-4.03037e-08
2.64104e-07
7.28739e-08
-5.18352e-08
3.57876e-07
8.66543e-08
-6.58633e-08
4.72401e-07
9.83941e-08
-7.8267e-08
5.93332e-07
1.07917e-07
-8.07434e-08
6.55969e-07
1.01497e-07
-5.97394e-08
6.88132e-07
1.48074e-07
6.17504e-09
6.30318e-07
2.07832e-07
1.38446e-07
5.19277e-07
2.57921e-07
2.20287e-07
3.87489e-07
2.98828e-07
2.6217e-07
2.55585e-07
3.27244e-07
2.76182e-07
1.29059e-07
3.45985e-07
2.79292e-07
6.31564e-09
3.55217e-07
2.79504e-07
-1.16391e-07
3.55622e-07
2.79544e-07
-2.42801e-07
3.47196e-07
2.79418e-07
-3.74524e-07
3.29246e-07
2.76431e-07
-5.06124e-07
3.01583e-07
2.62644e-07
-6.17249e-07
2.61375e-07
2.21295e-07
-6.7572e-07
2.11804e-07
1.40236e-07
-6.45641e-07
1.5241e-07
9.4081e-09
-5.85324e-07
1.05289e-07
-5.77009e-08
-4.64725e-07
1.1257e-07
-8.01226e-08
-3.48173e-07
1.03898e-07
-7.96217e-08
-2.50136e-07
9.31078e-08
-6.93137e-08
-1.7148e-07
8.0501e-08
-5.77788e-08
-1.07666e-07
6.97899e-08
-4.88478e-08
-5.41037e-08
6.21397e-08
-4.22587e-08
-1.35761e-08
5.74454e-08
-3.11764e-08
5.24376e-08
-5.33229e-09
8.03721e-09
2.63583e-08
-2.6686e-09
3.32679e-08
2.89364e-08
-1.92429e-08
6.59535e-08
3.11533e-08
-2.59413e-08
1.03436e-07
3.47325e-08
-2.93855e-08
1.48234e-07
4.00381e-08
-3.45238e-08
2.0484e-07
4.70112e-08
-4.31637e-08
2.78454e-07
5.52331e-08
-5.59727e-08
3.73034e-07
6.4198e-08
-7.21239e-08
4.86602e-07
7.21383e-08
-8.73125e-08
6.0689e-07
8.06363e-08
-9.30071e-08
6.95186e-07
8.58976e-08
-7.26976e-08
7.39312e-07
1.14319e-07
-1.03708e-08
6.76824e-07
1.5037e-07
1.19951e-07
5.57211e-07
1.8196e-07
1.95575e-07
4.1532e-07
2.08448e-07
2.32271e-07
2.73828e-07
2.27403e-07
2.41333e-07
1.3821e-07
2.4015e-07
2.41453e-07
6.71397e-09
2.46545e-07
2.40169e-07
-1.24752e-07
2.46908e-07
2.40179e-07
-2.60275e-07
2.4123e-07
2.41489e-07
-4.01624e-07
2.29167e-07
2.41428e-07
-5.43398e-07
2.10834e-07
2.32523e-07
-6.63215e-07
1.84891e-07
1.96302e-07
-7.26565e-07
1.537e-07
1.21453e-07
-6.84882e-07
1.17961e-07
-7.23354e-09
-5.98326e-07
8.95268e-08
-7.07939e-08
-4.78144e-07
8.48413e-08
-9.24536e-08
-3.62466e-07
7.69542e-08
-8.87342e-08
-2.63399e-07
6.9775e-08
-7.57343e-08
-1.82455e-07
6.17941e-08
-6.22364e-08
-1.15434e-07
5.49845e-08
-5.22158e-08
-5.83455e-08
5.00012e-08
-4.49503e-08
-1.47642e-08
4.68297e-08
-3.29656e-08
4.29262e-08
-5.25277e-09
8.60635e-09
2.03466e-08
-2.59465e-09
3.52508e-08
2.22732e-08
-1.99813e-08
6.9637e-08
2.38011e-08
-2.7034e-08
1.08829e-07
2.62146e-08
-3.06736e-08
1.55226e-07
2.97516e-08
-3.61105e-08
2.13174e-07
3.43464e-08
-4.52841e-08
2.87637e-07
3.97312e-08
-5.8961e-08
3.82578e-07
4.57311e-08
-7.64739e-08
4.96482e-07
5.16097e-08
-9.3375e-08
6.19243e-07
5.88164e-08
-1.00942e-07
7.19913e-07
6.62613e-08
-8.10335e-08
7.70467e-07
8.4235e-08
-2.04695e-08
7.06383e-07
1.06461e-07
1.07992e-07
5.82104e-07
1.26508e-07
1.79731e-07
4.33959e-07
1.43586e-07
2.13007e-07
2.86254e-07
1.56132e-07
2.18977e-07
1.44545e-07
1.64692e-07
2.17167e-07
7.07336e-09
1.69084e-07
2.14932e-07
-1.30379e-07
1.69433e-07
2.14927e-07
-2.72028e-07
1.65724e-07
2.17155e-07
-4.19649e-07
1.57798e-07
2.1899e-07
-5.67762e-07
1.45809e-07
2.13137e-07
-6.92359e-07
1.29188e-07
1.803e-07
-7.57436e-07
1.09468e-07
1.0931e-07
-7.09416e-07
8.74827e-08
-1.75423e-08
-6.10235e-07
6.96012e-08
-7.92558e-08
-4.87435e-07
6.25112e-08
-1.0047e-07
-3.71289e-07
5.57053e-08
-9.48967e-08
-2.7164e-07
5.03672e-08
-8.02414e-08
-1.89455e-07
4.50938e-08
-6.54848e-08
-1.20499e-07
4.0749e-08
-5.47209e-08
-6.11083e-08
3.75895e-08
-4.69786e-08
-1.54808e-08
3.55368e-08
-3.43346e-08
3.26801e-08
-5.23464e-09
8.96102e-09
1.3953e-08
-2.56749e-09
3.65553e-08
1.52142e-08
-2.05353e-08
7.20703e-08
1.61239e-08
-2.78378e-08
1.12357e-07
1.75358e-08
-3.16077e-08
1.59734e-07
1.96106e-08
-3.72362e-08
2.1849e-07
2.23321e-08
-4.67414e-08
2.93554e-07
2.56051e-08
-6.09377e-08
3.8906e-07
2.94377e-08
-7.92128e-08
5.04055e-07
3.36417e-08
-9.70275e-08
6.29299e-07
3.90716e-08
-1.05499e-07
7.36062e-07
4.5458e-08
-8.59595e-08
7.90139e-07
5.63901e-08
-2.62313e-08
7.25186e-07
6.93783e-08
1.02035e-07
5.98145e-07
8.12859e-08
1.72263e-07
4.46206e-07
9.14832e-08
2.04042e-07
2.94569e-07
9.91677e-08
2.086e-07
1.48872e-07
1.04483e-07
2.05906e-07
7.41579e-09
1.07306e-07
2.03235e-07
-1.34038e-07
1.07662e-07
2.03225e-07
-2.79723e-07
1.05531e-07
2.05879e-07
-4.31352e-07
1.00844e-07
2.08584e-07
-5.83359e-07
9.36895e-08
2.04126e-07
-7.10831e-07
8.3895e-08
1.72765e-07
-7.76876e-07
7.22451e-08
1.03268e-07
-7.25376e-07
5.939e-08
-2.34079e-08
-6.19983e-07
4.84918e-08
-8.42829e-08
-4.94601e-07
4.22565e-08
-1.05128e-07
-3.77245e-07
3.70169e-08
-9.86675e-08
-2.7685e-07
3.31067e-08
-8.31343e-08
-1.93775e-07
2.96978e-08
-6.76794e-08
-1.23597e-07
2.70471e-08
-5.64753e-08
-6.27575e-08
2.51836e-08
-4.84337e-08
-1.58466e-08
2.39704e-08
-3.53445e-08
2.21183e-08
-5.28481e-09
9.1538e-09
7.37984e-09
-2.58061e-09
3.73083e-08
7.96983e-09
-2.09101e-08
7.34956e-08
8.30016e-09
-2.83636e-08
1.14444e-07
8.79615e-09
-3.22083e-08
1.62439e-07
9.55939e-09
-3.7944e-08
2.21764e-07
1.06376e-08
-4.76312e-08
2.9738e-07
1.20965e-08
-6.21067e-08
3.93543e-07
1.40481e-08
-8.07732e-08
5.096e-07
1.66266e-08
-9.9042e-08
6.36558e-07
2.00458e-08
-1.07933e-07
7.46219e-07
2.43465e-08
-8.8549e-08
8.01971e-07
2.9592e-08
-2.89543e-08
7.36527e-07
3.51012e-08
9.97216e-08
6.07896e-07
4.02138e-08
1.69703e-07
4.53757e-07
4.4545e-08
2.01077e-07
2.99775e-07
4.7972e-08
2.05178e-07
1.51662e-07
5.04142e-08
2.02182e-07
7.76377e-09
5.18452e-08
1.99358e-07
-1.36152e-07
5.2229e-08
1.99348e-07
-2.84315e-07
5.15411e-08
2.02153e-07
-4.38388e-07
4.97582e-08
2.05158e-07
-5.92716e-07
4.6866e-08
2.01152e-07
-7.21914e-07
4.29125e-08
1.70181e-07
-7.8857e-07
3.79909e-08
1.0091e-07
-7.35445e-07
3.24705e-08
-2.62053e-08
-6.27105e-07
2.71177e-08
-8.69659e-08
-4.99946e-07
2.27638e-08
-1.07667e-07
-3.8144e-07
1.93131e-08
-1.00802e-07
-2.80263e-07
1.67646e-08
-8.48352e-08
-1.9645e-07
1.49094e-08
-6.90248e-08
-1.25449e-07
1.3633e-08
-5.75871e-08
-6.37112e-08
1.28263e-08
-4.93802e-08
-1.60366e-08
1.23215e-08
-3.60257e-08
1.14519e-08
-5.37026e-09
9.20105e-09
8.12386e-10
-2.63359e-09
3.75531e-08
7.29068e-10
-2.11113e-08
7.39948e-08
4.798e-10
-2.86213e-08
1.15224e-07
5.81335e-11
-3.24911e-08
1.63538e-07
-4.9417e-10
-3.82609e-08
2.23253e-07
-1.0717e-09
-4.8005e-08
2.99365e-07
-1.45068e-09
-6.25655e-08
3.9617e-07
-1.41163e-09
-8.13448e-08
5.13021e-07
-4.83731e-10
-9.97407e-08
6.4084e-07
9.73071e-10
-1.08746e-07
7.5124e-07
3.35867e-09
-8.94127e-08
8.07246e-07
3.33584e-09
-2.97498e-08
7.41484e-07
1.53457e-09
9.93287e-08
6.12154e-07
-2.62661e-11
1.69571e-07
4.57136e-07
-1.49367e-09
2.01056e-07
3.02192e-07
-2.27749e-09
2.05194e-07
1.53073e-07
-2.66952e-09
2.02202e-07
8.13714e-09
-2.59703e-09
1.99378e-07
-1.36843e-07
-2.15955e-09
1.99369e-07
-2.86092e-07
-1.38544e-09
2.02175e-07
-4.41252e-07
-2.59772e-10
2.05178e-07
-5.96604e-07
1.08506e-09
2.01133e-07
-7.26685e-07
2.97335e-09
1.7002e-07
-7.93832e-07
4.6745e-09
1.00463e-07
-7.4053e-07
6.26021e-09
-2.70921e-08
-6.31438e-07
5.96524e-09
-8.79396e-08
-5.03389e-07
3.31868e-09
-1.08604e-07
-3.8404e-07
1.59296e-09
-1.01629e-07
-2.82156e-07
4.18701e-10
-8.55385e-08
-1.97763e-07
1.40146e-10
-6.96234e-08
-1.26271e-07
2.5843e-10
-5.81176e-08
-6.41012e-08
5.1516e-10
-4.98583e-08
-1.60994e-08
7.19868e-10
-3.64002e-08
8.37033e-10
-5.48452e-09
9.10343e-09
-5.56431e-09
-2.72673e-09
3.729e-08
-6.31643e-09
-2.11411e-08
7.35673e-08
-7.18292e-09
-2.86146e-08
1.14692e-07
-8.60478e-09
-3.24615e-08
1.63021e-07
-1.06285e-08
-3.81947e-08
2.22934e-07
-1.31107e-08
-4.78748e-08
2.99488e-07
-1.56707e-08
-6.23334e-08
3.9694e-07
-1.79052e-08
-8.09583e-08
5.14376e-07
-1.87492e-08
-9.91711e-08
6.4229e-07
-1.89348e-08
-1.08006e-07
7.51402e-07
-1.71102e-08
-8.86429e-08
8.0619e-07
-2.26596e-08
-2.87921e-08
7.40164e-07
-3.3032e-08
1.00592e-07
6.10964e-07
-4.23496e-08
1.71523e-07
4.56381e-07
-5.05225e-08
2.03611e-07
3.01856e-07
-5.60028e-08
2.08251e-07
1.5314e-07
-5.95049e-08
2.05552e-07
8.56517e-09
-6.08851e-08
2.02863e-07
-1.36084e-07
-6.03552e-08
2.02845e-07
-2.85021e-07
-5.7945e-08
2.05496e-07
-4.39919e-07
-5.35399e-08
2.08179e-07
-5.95103e-07
-4.73358e-08
2.03605e-07
-7.25282e-07
-3.87504e-08
1.71902e-07
-7.92891e-07
-2.93524e-08
1.01637e-07
-7.40944e-07
-1.94062e-08
-2.62813e-08
-6.33154e-07
-1.45009e-08
-8.73236e-08
-5.04977e-07
-1.68357e-08
-1.08022e-07
-3.8503e-07
-1.71409e-08
-1.01213e-07
-2.82518e-07
-1.67963e-08
-8.52973e-08
-1.97718e-07
-1.51375e-08
-6.95223e-08
-1.26067e-07
-1.33003e-08
-5.80924e-08
-6.3927e-08
-1.17428e-08
-4.98821e-08
-1.60341e-08
-1.06958e-08
-3.64772e-08
-9.56684e-09
-5.63023e-09
8.84361e-09
-1.15435e-08
-2.86445e-09
3.64767e-08
-1.29503e-08
-2.09992e-08
7.21305e-08
-1.44967e-08
-2.83401e-08
1.12707e-07
-1.70692e-08
-3.2112e-08
1.60664e-07
-2.08541e-08
-3.77317e-08
2.20505e-07
-2.57411e-08
-4.72104e-08
2.97416e-07
-3.12349e-08
-6.13464e-08
3.95625e-07
-3.66373e-08
-7.94768e-08
5.13771e-07
-3.9812e-08
-9.70834e-08
6.41411e-07
-4.12599e-08
-1.05315e-07
7.46439e-07
-3.63639e-08
-8.5774e-08
7.9782e-07
-4.87559e-08
-2.52853e-08
7.3169e-07
-7.16735e-08
1.04772e-07
6.03693e-07
-9.17772e-08
1.77425e-07
4.51095e-07
-1.08953e-07
2.11029e-07
2.98548e-07
-1.2047e-07
2.17014e-07
1.51778e-07
-1.27851e-07
2.15116e-07
9.07595e-09
-1.30987e-07
2.12804e-07
-1.33738e-07
-1.30309e-07
2.12768e-07
-2.80847e-07
-1.25841e-07
2.15005e-07
-4.33965e-07
-1.17272e-07
2.16849e-07
-5.87432e-07
-1.04757e-07
2.10889e-07
-7.1675e-07
-8.70405e-08
1.77608e-07
-7.84842e-07
-6.6843e-08
1.05582e-07
-7.36488e-07
-4.47175e-08
-2.30425e-08
-6.32769e-07
-3.35262e-08
-8.46935e-08
-5.04849e-07
-3.91799e-08
-1.05576e-07
-3.84211e-07
-3.84409e-08
-9.93384e-08
-2.81005e-07
-3.6019e-08
-8.39829e-08
-1.95979e-07
-3.15233e-08
-6.86408e-08
-1.24598e-07
-2.72055e-08
-5.74751e-08
-6.30541e-08
-2.38521e-08
-4.9435e-08
-1.57884e-08
-2.17093e-08
-3.62523e-08
-1.95315e-08
-5.82371e-09
8.37209e-09
-1.68605e-08
-3.05501e-09
3.49933e-08
-1.88857e-08
-2.06858e-08
6.94517e-08
-2.11605e-08
-2.77946e-08
1.08851e-07
-2.50347e-08
-3.14335e-08
1.55777e-07
-3.09374e-08
-3.68432e-08
2.14936e-07
-3.89624e-08
-4.59374e-08
2.91864e-07
-4.87299e-08
-5.94326e-08
3.91016e-07
-5.92714e-08
-7.65184e-08
5.10877e-07
-6.68838e-08
-9.27895e-08
6.39036e-07
-6.98912e-08
-9.95274e-08
7.3488e-07
-5.2351e-08
-7.98573e-08
7.79078e-07
-7.47653e-08
-1.81882e-08
7.12951e-07
-1.19039e-07
1.13493e-07
5.87861e-07
-1.56412e-07
1.89725e-07
4.39674e-07
-1.87194e-07
2.26429e-07
2.91371e-07
-2.07387e-07
2.3522e-07
1.48616e-07
-2.20113e-07
2.35017e-07
9.72541e-09
-2.256e-07
2.33504e-07
-1.29317e-07
-2.24688e-07
2.33422e-07
-2.72542e-07
-2.17383e-07
2.34767e-07
-4.21647e-07
-2.02983e-07
2.34816e-07
-5.7108e-07
-1.81279e-07
2.25954e-07
-6.97969e-07
-1.4964e-07
1.89489e-07
-7.6666e-07
-1.12006e-07
1.13854e-07
-7.25806e-07
-6.91626e-08
-1.64087e-08
-6.31129e-07
-4.9051e-08
-7.91526e-08
-5.02636e-07
-6.74869e-08
-1.00186e-07
-3.80333e-07
-6.5366e-08
-9.53786e-08
-2.76316e-07
-5.87715e-08
-8.12643e-08
-1.91513e-07
-4.94795e-08
-6.68464e-08
-1.21172e-07
-4.13449e-08
-5.62018e-08
-6.10842e-08
-3.54586e-08
-4.84813e-08
-1.51944e-08
-3.18856e-08
-3.57136e-08
-2.86218e-08
-6.10404e-09
7.68345e-09
-2.1251e-08
-3.29303e-09
3.28141e-08
-2.38177e-08
-2.01987e-08
6.54455e-08
-2.68177e-08
-2.69741e-08
1.02884e-07
-3.20585e-08
-3.04145e-08
1.47794e-07
-4.03419e-08
-3.55059e-08
2.05069e-07
-5.22277e-08
-4.40099e-08
2.80796e-07
-6.79502e-08
-5.65062e-08
3.80082e-07
-8.66764e-08
-7.18806e-08
5.02787e-07
-1.03714e-07
-8.58758e-08
6.35932e-07
-1.12946e-07
-9.00905e-08
7.12388e-07
-5.94316e-08
-6.93752e-08
7.41854e-07
-9.84294e-08
-5.80162e-09
6.78106e-07
-1.82383e-07
1.27092e-07
5.59795e-07
-2.46324e-07
2.08223e-07
4.19828e-07
-2.96458e-07
2.49232e-07
2.79025e-07
-3.28879e-07
2.62294e-07
1.43106e-07
-3.48775e-07
2.64581e-07
1.05991e-08
-3.57357e-07
2.64264e-07
-1.22092e-07
-3.56094e-07
2.64097e-07
-2.58603e-07
-3.44944e-07
2.64072e-07
-4.00453e-07
-3.22585e-07
2.61453e-07
-5.42159e-07
-2.87738e-07
2.48164e-07
-6.6296e-07
-2.36119e-07
2.0728e-07
-7.3033e-07
-1.71391e-07
1.26755e-07
-7.0481e-07
-9.0005e-08
-4.67758e-09
-6.28963e-07
-5.5707e-08
-6.91912e-08
-4.954e-07
-1.09645e-07
-9.14041e-08
-3.70371e-07
-1.01408e-07
-8.89875e-08
-2.66419e-07
-8.5748e-08
-7.69755e-08
-1.83147e-07
-6.86936e-08
-6.40577e-08
-1.15188e-07
-5.50961e-08
-5.42085e-08
-5.77473e-08
-4.59347e-08
-4.69642e-08
-1.41739e-08
-4.06384e-08
-3.48206e-08
-3.63326e-08
-6.46311e-09
6.68784e-09
-2.43531e-08
-3.58566e-09
2.97376e-08
-2.73144e-08
-1.9553e-08
5.96673e-08
-3.08433e-08
-2.59041e-08
9.38305e-08
-3.71404e-08
-2.90813e-08
1.34676e-07
-4.74542e-08
-3.37332e-08
1.86969e-07
-6.31137e-08
-4.14067e-08
2.57379e-07
-8.58899e-08
-5.24702e-08
3.52674e-07
-1.16872e-07
-6.50995e-08
4.781e-07
-1.54124e-07
-7.50166e-08
6.3048e-07
-1.9353e-07
-7.17957e-08
6.67284e-07
-5.07687e-08
-4.54668e-08
6.67652e-07
-1.07648e-07
8.85155e-09
6.11841e-07
-2.62323e-07