/*--------------------------------*- C++ -*----------------------------------*\
| =========                 |                                                 |
| \\      /  F ield         | OpenFOAM: The Open Source CFD Toolbox           |
|  \\    /   O peration     | Version:  2112                                  |
|   \\  /    A nd           | Website:  www.openfoam.com                      |
|    \\/     M anipulation  |                                                 |
\*---------------------------------------------------------------------------*/
FoamFile
{
    version     2.0;
    format      ascii;
    arch        "LSB;label=32;scalar=64";
    class       volVectorField;
    location    "1.7";
    object      U;
}
// * * * * * * * * * * * * * * * * * * * * * * * * * * * * * * * * * * * * * //

dimensions      [0 1 -1 0 0 0 0];

internalField   nonuniform List<vector> 
64906
(
(4.42716e-07 1.49432e-06 -2.27111e-06)
(2.8398e-06 4.3485e-07 -2.32643e-06)
(6.28422e-06 -4.22807e-07 -1.94428e-06)
(9.82458e-06 -1.01016e-06 -1.5772e-06)
(1.334e-05 -1.2909e-06 -1.36781e-06)
(1.67335e-05 -1.37343e-06 -1.28425e-06)
(1.99896e-05 -1.33793e-06 -1.27346e-06)
(2.30294e-05 -1.1995e-06 -1.29398e-06)
(2.57572e-05 -9.67531e-07 -1.32876e-06)
(2.78789e-05 -5.56865e-07 -1.3457e-06)
(2.91623e-05 -4.68161e-08 -1.36337e-06)
(2.91378e-05 7.14987e-07 -1.34855e-06)
(2.76427e-05 1.33809e-06 -1.3274e-06)
(2.48966e-05 1.92148e-06 -1.2717e-06)
(2.10321e-05 2.34196e-06 -1.22179e-06)
(1.63485e-05 2.66747e-06 -1.17314e-06)
(1.10524e-05 2.86929e-06 -1.14216e-06)
(5.41373e-06 2.96807e-06 -1.12793e-06)
(-3.34199e-07 2.9595e-06 -1.13396e-06)
(-5.93376e-06 2.84371e-06 -1.15984e-06)
(-1.11518e-05 2.62518e-06 -1.20218e-06)
(-1.57199e-05 2.28341e-06 -1.26188e-06)
(-1.94356e-05 1.8486e-06 -1.32216e-06)
(-2.20026e-05 1.25247e-06 -1.38819e-06)
(-2.32983e-05 6.22519e-07 -1.4196e-06)
(-2.31069e-05 -1.42452e-07 -1.44772e-06)
(-2.16023e-05 -6.39608e-07 -1.44938e-06)
(-1.92584e-05 -1.02116e-06 -1.46829e-06)
(-1.62977e-05 -1.17483e-06 -1.50389e-06)
(-1.30175e-05 -1.12964e-06 -1.62662e-06)
(-9.52016e-06 -7.73195e-07 -1.91264e-06)
(-5.98922e-06 6.8323e-09 -2.42953e-06)
(-2.61893e-06 1.13606e-06 -3.0058e-06)
(-2.20292e-07 2.36465e-06 -3.03247e-06)
(-1.11879e-06 6.41693e-06 -2.89288e-06)
(8.05186e-07 5.60853e-06 -6.31664e-06)
(5.43077e-06 4.74407e-06 -7.23027e-06)
(9.72368e-06 4.27111e-06 -7.39436e-06)
(1.37721e-05 4.37378e-06 -7.6433e-06)
(1.75212e-05 4.95898e-06 -8.13888e-06)
(2.10614e-05 5.94984e-06 -8.88412e-06)
(2.43666e-05 7.37584e-06 -9.85936e-06)
(2.74159e-05 9.27913e-06 -1.10549e-05)
(2.98415e-05 1.18925e-05 -1.24628e-05)
(3.14389e-05 1.50374e-05 -1.40546e-05)
(3.1491e-05 1.89881e-05 -1.57603e-05)
(2.9803e-05 2.25099e-05 -1.73914e-05)
(2.67892e-05 2.57101e-05 -1.88411e-05)
(2.25584e-05 2.82121e-05 -2.00508e-05)
(1.75007e-05 3.01496e-05 -2.09914e-05)
(1.17909e-05 3.143e-05 -2.16406e-05)
(5.73488e-06 3.20859e-05 -2.19869e-05)
(-4.39531e-07 3.21e-05 -2.20227e-05)
(-6.45201e-06 3.14729e-05 -2.17479e-05)
(-1.20755e-05 3.02231e-05 -2.11704e-05)
(-1.70048e-05 2.83193e-05 -2.03025e-05)
(-2.10704e-05 2.58593e-05 -1.91671e-05)
(-2.38837e-05 2.27107e-05 -1.77953e-05)
(-2.53487e-05 1.92638e-05 -1.62484e-05)
(-2.50505e-05 1.5408e-05 -1.46387e-05)
(-2.31953e-05 1.24099e-05 -1.31633e-05)
(-2.04909e-05 9.98632e-06 -1.19065e-05)
(-1.7091e-05 8.37826e-06 -1.09223e-05)
(-1.33081e-05 7.43831e-06 -1.02533e-05)
(-9.08588e-06 7.26068e-06 -9.90299e-06)
(-4.54914e-06 7.8894e-06 -9.66885e-06)
(2.8834e-07 8.99679e-06 -8.49941e-06)
(1.9108e-06 9.7966e-06 -3.97326e-06)
(-2.0194e-06 1.43386e-05 -2.74284e-06)
(-3.80293e-07 1.5228e-05 -7.36869e-06)
(5.01111e-06 1.53987e-05 -8.7601e-06)
(1.00001e-05 1.59817e-05 -9.14389e-06)
(1.4681e-05 1.73427e-05 -9.56591e-06)
(1.89839e-05 1.95015e-05 -1.02673e-05)
(2.3099e-05 2.24799e-05 -1.12929e-05)
(2.70609e-05 2.64422e-05 -1.26472e-05)
(3.09668e-05 3.15583e-05 -1.43354e-05)
(3.42842e-05 3.83692e-05 -1.63659e-05)
(3.68139e-05 4.6554e-05 -1.86968e-05)
(3.71173e-05 5.66803e-05 -2.12183e-05)
(3.48943e-05 6.57407e-05 -2.36371e-05)
(3.11344e-05 7.39089e-05 -2.57822e-05)
(2.59703e-05 8.03587e-05 -2.75653e-05)
(1.99902e-05 8.53722e-05 -2.89437e-05)
(1.33035e-05 8.87252e-05 -2.98899e-05)
(6.2735e-06 9.0462e-05 -3.03912e-05)
(-8.88559e-07 9.05343e-05 -3.04365e-05)
(-7.87209e-06 8.89427e-05 -3.00259e-05)
(-1.44667e-05 8.57388e-05 -2.91705e-05)
(-2.03073e-05 8.08806e-05 -2.78837e-05)
(-2.52897e-05 7.46031e-05 -2.61941e-05)
(-2.88215e-05 6.66281e-05 -2.41468e-05)
(-3.07872e-05 5.78118e-05 -2.18333e-05)
(-3.01865e-05 4.79719e-05 -1.94331e-05)
(-2.73393e-05 4.01808e-05 -1.7249e-05)
(-2.36644e-05 3.38208e-05 -1.54085e-05)
(-1.92628e-05 2.9291e-05 -1.39792e-05)
(-1.45777e-05 2.61171e-05 -1.29796e-05)
(-9.39642e-06 2.42256e-05 -1.23573e-05)
(-3.8874e-06 2.34393e-05 -1.17993e-05)
(1.97364e-06 2.31704e-05 -9.98614e-06)
(3.15462e-06 2.17626e-05 -3.86704e-06)
(-2.47403e-06 2.24217e-05 -2.44131e-06)
(-7.45444e-07 2.43952e-05 -7.44838e-06)
(5.48982e-06 2.54134e-05 -8.96315e-06)
(1.13607e-05 2.70307e-05 -9.3618e-06)
(1.69546e-05 2.96923e-05 -9.80687e-06)
(2.21839e-05 3.3483e-05 -1.05791e-05)
(2.73641e-05 3.85094e-05 -1.17474e-05)
(3.26232e-05 4.5108e-05 -1.33418e-05)
(3.83e-05 5.36711e-05 -1.53834e-05)
(4.35496e-05 6.53398e-05 -1.79099e-05)
(4.82166e-05 7.97381e-05 -2.08595e-05)
(4.9068e-05 9.8315e-05 -2.41228e-05)
(4.55573e-05 0.000114395 -2.72388e-05)
(4.01458e-05 0.000128627 -2.99779e-05)
(3.30162e-05 0.000139656 -3.22354e-05)
(2.51319e-05 0.000148225 -3.39528e-05)
(1.64306e-05 0.000153944 -3.51204e-05)
(7.38732e-06 0.000156914 -3.57338e-05)
(-1.8184e-06 0.000157046 -3.57816e-05)
(-1.08126e-05 0.000154339 -3.52635e-05)
(-1.94158e-05 0.000148887 -3.41906e-05)
(-2.71469e-05 0.000140589 -3.2568e-05)
(-3.40721e-05 0.000129854 -3.04054e-05)
(-3.92121e-05 0.000115941 -2.77642e-05)
(-4.241e-05 0.000100259 -2.47522e-05)
(-4.11716e-05 8.21386e-05 -2.161e-05)
(-3.60954e-05 6.83854e-05 -1.88105e-05)
(-3.0394e-05 5.74031e-05 -1.64856e-05)
(-2.40572e-05 4.96785e-05 -1.47248e-05)
(-1.78282e-05 4.41244e-05 -1.35212e-05)
(-1.12404e-05 4.0447e-05 -1.27966e-05)
(-4.49125e-06 3.82805e-05 -1.21799e-05)
(2.50013e-06 3.69177e-05 -1.01957e-05)
(3.78684e-06 3.40611e-05 -3.54438e-06)
(-2.61775e-06 3.03595e-05 -2.19431e-06)
(-4.34018e-07 3.31885e-05 -7.5387e-06)
(6.97687e-06 3.49875e-05 -9.16044e-06)
(1.40238e-05 3.76625e-05 -9.55898e-06)
(2.08588e-05 4.17155e-05 -1.00426e-05)
(2.7413e-05 4.72535e-05 -1.09393e-05)
(3.41993e-05 5.44429e-05 -1.23481e-05)
(4.153e-05 6.3813e-05 -1.43447e-05)
(5.02677e-05 7.61178e-05 -1.69695e-05)
(5.91064e-05 9.36204e-05 -2.03169e-05)
(6.82214e-05 0.000116328 -2.42708e-05)
(7.0145e-05 0.000148116 -2.88389e-05)
(6.37886e-05 0.00017407 -3.31439e-05)
(5.52446e-05 0.000196389 -3.69257e-05)
(4.4684e-05 0.000213182 -4.00308e-05)
(3.36423e-05 0.000226264 -4.23197e-05)
(2.16029e-05 0.000234964 -4.38582e-05)
(9.23452e-06 0.000239491 -4.46581e-05)
(-3.35305e-06 0.000239687 -4.47097e-05)
(-1.56713e-05 0.000235552 -4.40126e-05)
(-2.76099e-05 0.000227243 -4.2575e-05)
(-3.8486e-05 0.000214548 -4.03856e-05)
(-4.88189e-05 0.000198158 -3.73767e-05)
(-5.70337e-05 0.000176259 -3.36915e-05)
(-6.3002e-05 0.000150834 -2.94858e-05)
(-6.05455e-05 0.000119638 -2.50345e-05)
(-5.08956e-05 9.78683e-05 -2.12323e-05)
(-4.15233e-05 8.127e-05 -1.80975e-05)
(-3.19591e-05 7.00265e-05 -1.57787e-05)
(-2.34109e-05 6.19264e-05 -1.42221e-05)
(-1.48661e-05 5.63583e-05 -1.33269e-05)
(-6.44412e-06 5.27926e-05 -1.26436e-05)
(2.14331e-06 5.04245e-05 -1.04817e-05)
(4.02761e-06 4.64007e-05 -3.29638e-06)
(-2.60885e-06 3.7794e-05 -2.02089e-06)
(3.67586e-07 4.13212e-05 -7.81214e-06)
(9.40381e-06 4.38394e-05 -9.60608e-06)
(1.80078e-05 4.75881e-05 -1.00408e-05)
(2.64597e-05 5.31272e-05 -1.06209e-05)
(3.47375e-05 6.05367e-05 -1.17443e-05)
(4.36417e-05 6.99844e-05 -1.35569e-05)
(5.3834e-05 8.21256e-05 -1.621e-05)
(6.72575e-05 9.82175e-05 -1.97405e-05)
(8.22293e-05 0.000122488 -2.43157e-05)
(0.000100438 0.000156329 -2.95011e-05)
(0.000104536 0.000210696 -3.60656e-05)
(9.21449e-05 0.00025098 -4.22353e-05)
(7.81386e-05 0.000284045 -4.77992e-05)
(6.21649e-05 0.000308009 -5.24004e-05)
(4.64378e-05 0.000326814 -5.5589e-05)
(2.93771e-05 0.00033928 -5.77029e-05)
(1.2011e-05 0.000345785 -5.87893e-05)
(-5.67771e-06 0.000346058 -5.88491e-05)
(-2.29974e-05 0.000340093 -5.78814e-05)
(-3.99651e-05 0.000328156 -5.58825e-05)
(-5.55273e-05 0.000309854 -5.28054e-05)
(-7.12657e-05 0.000286388 -4.83067e-05)
(-8.48833e-05 0.000253803 -4.28413e-05)
(-9.68029e-05 0.000214134 -3.6767e-05)
(-9.19272e-05 0.000160418 -3.03081e-05)
(-7.3009e-05 0.000127938 -2.52771e-05)
(-5.74745e-05 0.00010477 -2.09282e-05)
(-4.30555e-05 8.99238e-05 -1.77359e-05)
(-3.13688e-05 7.92436e-05 -1.55847e-05)
(-2.02727e-05 7.17052e-05 -1.43743e-05)
(-9.64324e-06 6.67076e-05 -1.35332e-05)
(1.16923e-06 6.33808e-05 -1.10723e-05)
(4.09845e-06 5.83741e-05 -3.15445e-06)
(-2.50068e-06 4.45283e-05 -1.8714e-06)
(1.58391e-06 4.8764e-05 -8.2633e-06)
(1.2766e-05 5.20178e-05 -1.03151e-05)
(2.33857e-05 5.69716e-05 -1.08333e-05)
(3.38854e-05 6.42522e-05 -1.15762e-05)
(4.42806e-05 7.38551e-05 -1.30406e-05)
(5.57017e-05 8.58127e-05 -1.54386e-05)
(6.93616e-05 0.000100519 -1.90342e-05)
(8.92325e-05 0.000119594 -2.38105e-05)
(0.000113668 0.000149427 -2.98837e-05)
(0.00015032 0.000196572 -3.60391e-05)
(0.00015904 0.000291178 -4.52089e-05)
(0.000133556 0.000351896 -5.36778e-05)
(0.000110458 0.000399185 -6.19565e-05)
(8.65903e-05 0.000432458 -6.89796e-05)
(6.44595e-05 0.000459028 -7.32849e-05)
(4.03346e-05 0.000476667 -7.61326e-05)
(1.59305e-05 0.000485894 -7.758e-05)
(-8.97904e-06 0.000486265 -7.76531e-05)
(-3.33495e-05 0.000477769 -7.63508e-05)
(-5.74102e-05 0.000460835 -7.36417e-05)
(-7.94081e-05 0.000434904 -6.94693e-05)
(-0.000103078 0.000402216 -6.25606e-05)
(-0.00012575 0.000355403 -5.43873e-05)
(-0.000150716 0.000295284 -4.60139e-05)
(-0.000140772 0.0002012 -3.69278e-05)
(-0.000103143 0.000156179 -3.09372e-05)
(-7.82778e-05 0.000127585 -2.50985e-05)
(-5.7242e-05 0.000109866 -2.06971e-05)
(-4.1751e-05 9.67511e-05 -1.76746e-05)
(-2.75594e-05 8.69775e-05 -1.59806e-05)
(-1.41264e-05 8.02791e-05 -1.48672e-05)
(-3.38262e-07 7.58334e-05 -1.19519e-05)
(4.0768e-06 6.98355e-05 -3.05582e-06)
(-2.22809e-06 5.03165e-05 -1.66997e-06)
(3.30181e-06 5.52944e-05 -8.88464e-06)
(1.71998e-05 5.93179e-05 -1.12579e-05)
(3.04571e-05 6.56509e-05 -1.18993e-05)
(4.35841e-05 7.5009e-05 -1.28708e-05)
(5.65375e-05 8.72646e-05 -1.47967e-05)
(7.05253e-05 0.00010212 -1.79768e-05)
(8.72696e-05 0.000118965 -2.28535e-05)
(0.00011314 0.000138691 -2.91742e-05)
(0.000149213 0.000171018 -3.73636e-05)
(0.000222977 0.000227981 -4.03992e-05)
(0.00024269 0.000398698 -5.07638e-05)
(0.00019084 0.000484374 -6.23188e-05)
(0.000155039 0.00054675 -7.50603e-05)
(0.000120862 0.000590281 -8.59365e-05)
(9.02614e-05 0.000625567 -9.13301e-05)
(5.61033e-05 0.000649212 -9.4907e-05)
(2.15689e-05 0.000661636 -9.67043e-05)
(-1.37719e-05 0.000662139 -9.6794e-05)
(-4.82974e-05 0.000650701 -9.51749e-05)
(-8.24522e-05 0.000627997 -9.17668e-05)
(-0.000113011 0.000593536 -8.65361e-05)
(-0.000147131 0.00055068 -7.57929e-05)
(-0.000182584 0.000488685 -6.31735e-05)
(-0.000234048 0.000403489 -5.17514e-05)
(-0.000212211 0.000232749 -4.13896e-05)
(-0.000137025 0.00017956 -3.85196e-05)
(-0.000101056 0.000148362 -3.05743e-05)
(-7.37949e-05 0.000129926 -2.46834e-05)
(-5.47733e-05 0.000114648 -2.04667e-05)
(-3.72348e-05 0.000102159 -1.81116e-05)
(-2.02987e-05 9.32938e-05 -1.66094e-05)
(-2.57193e-06 8.74931e-05 -1.30706e-05)
(3.90108e-06 8.03622e-05 -2.91538e-06)
(-1.77016e-06 5.49827e-05 -1.38949e-06)
(5.5757e-06 6.06392e-05 -9.66987e-06)
(2.28003e-05 6.56003e-05 -1.2416e-05)
(3.94612e-05 7.37011e-05 -1.32116e-05)
(5.59947e-05 8.59336e-05 -1.44611e-05)
(7.21524e-05 0.000102243 -1.69241e-05)
(8.866e-05 0.00012206 -2.10112e-05)
(0.000106818 0.000142141 -2.73646e-05)
(0.000136273 0.000161453 -3.61802e-05)
(0.000176808 0.00018199 -4.53542e-05)
(0.000319971 0.000196896 -5.11478e-05)
(0.000365902 0.000516414 -5.04464e-05)
(0.00025863 0.000635747 -6.25401e-05)
(0.000210082 0.000718073 -8.15113e-05)
(0.000165041 0.000777372 -9.72291e-05)
(0.000124013 0.000826218 -0.000103248)
(7.69643e-05 0.000859217 -0.000107665)
(2.90696e-05 0.000876375 -0.000109808)
(-2.01044e-05 0.000877047 -0.00010991)
(-6.8028e-05 0.000861214 -0.000107972)
(-0.00011517 0.000829494 -0.000103744)
(-0.00015633 0.000781773 -9.7911e-05)
(-0.00020164 0.00072334 -8.23355e-05)
(-0.000250082 0.000641338 -6.35214e-05)
(-0.000357657 0.000522064 -5.16007e-05)
(-0.00030781 0.000200105 -5.25497e-05)
(-0.000162527 0.000192106 -4.67116e-05)
(-0.000123602 0.000172649 -3.76962e-05)
(-9.22886e-05 0.000154521 -2.93975e-05)
(-7.12153e-05 0.000135865 -2.38116e-05)
(-5.00882e-05 0.000118505 -2.07024e-05)
(-2.86272e-05 0.00010605 -1.87596e-05)
(-5.83872e-06 9.81884e-05 -1.44844e-05)
(3.40594e-06 8.95772e-05 -2.63375e-06)
(-1.11921e-06 5.81047e-05 -1.04367e-06)
(8.57694e-06 6.42102e-05 -1.05705e-05)
(3.00794e-05 7.00629e-05 -1.3767e-05)
(5.14189e-05 7.99244e-05 -1.47491e-05)
(7.31053e-05 9.52353e-05 -1.6322e-05)
(9.47131e-05 0.000116402 -1.93724e-05)
(0.000115014 0.000142843 -2.43329e-05)
(0.000134425 0.00016866 -3.27304e-05)
(0.000154468 0.000181581 -4.28427e-05)
(0.000127243 0.000122681 -6.20684e-05)
(0.000388188 0.000192675 -6.90706e-05)
(0.000532342 0.000757396 -3.06977e-05)
(0.000339918 0.000836905 -4.02392e-05)
(0.000289975 0.000904032 -6.15688e-05)
(0.000233836 0.000974409 -7.94924e-05)
(0.000176725 0.00103157 -8.26865e-05)
(0.000109308 0.00107275 -8.61587e-05)
(4.04761e-05 0.00109402 -8.78546e-05)
(-2.9884e-05 0.00109489 -8.79439e-05)
(-9.8769e-05 0.00107535 -8.64283e-05)
(-0.000166369 0.00103586 -8.3109e-05)
(-0.000223826 0.000980245 -8.00966e-05)
(-0.00028069 0.000911068 -6.22973e-05)
(-0.000331265 0.000844114 -4.11285e-05)
(-0.000527414 0.00076187 -3.2095e-05)
(-0.000376489 0.000195865 -7.10677e-05)
(-0.000110949 0.000139505 -6.30132e-05)
(-0.000141824 0.000196722 -4.42426e-05)
(-0.000119158 0.000182929 -3.49563e-05)
(-9.60501e-05 0.000157729 -2.75088e-05)
(-6.97763e-05 0.00013356 -2.37345e-05)
(-4.11401e-05 0.000116544 -2.13466e-05)
(-1.1122e-05 0.000106291 -1.62135e-05)
(2.23674e-06 9.64546e-05 -2.10891e-06)
(-3.89498e-07 5.93319e-05 -6.79657e-07)
(1.2029e-05 6.5747e-05 -1.15825e-05)
(3.85133e-05 7.24421e-05 -1.53066e-05)
(6.55789e-05 8.41866e-05 -1.6525e-05)
(9.42316e-05 0.000103404 -1.84886e-05)
(0.000124287 0.000132549 -2.20295e-05)
(0.000153237 0.000175253 -2.74413e-05)
(0.000175439 0.000233839 -3.38195e-05)
(0.000147762 0.000308456 -4.98192e-05)
(0.000153988 0.000353186 -7.32252e-05)
(0.000250032 0.000667675 5.95741e-05)
(0.000294479 0.000862546 2.30593e-05)
(0.000353185 0.000995616 1.19577e-05)
(0.000312209 0.00111368 1.29911e-05)
(0.00023698 0.00119743 9.56416e-06)
(0.000148145 0.00125336 6.55562e-06)
(5.41945e-05 0.00128077 5.31096e-06)
(-4.14335e-05 0.00128177 5.31462e-06)
(-0.000135456 0.00125638 6.56293e-06)
(-0.000224525 0.00120254 9.58245e-06)
(-0.000300261 0.00112102 1.30142e-05)
(-0.000342584 0.00100532 1.20413e-05)
(-0.000287076 0.000874527 2.28114e-05)
(-0.000245232 0.000680135 5.83947e-05)
(-0.000150433 0.0003658 -7.15797e-05)
(-0.000141566 0.000322466 -5.0862e-05)
(-0.000162533 0.00024767 -3.63085e-05)
(-0.000133916 0.000189969 -3.11165e-05)
(-9.68614e-05 0.000149714 -2.71561e-05)
(-5.75749e-05 0.000125014 -2.44673e-05)
(-1.7966e-05 0.000111372 -1.83095e-05)
(7.72157e-07 0.000100294 -1.57628e-06)
(5.61975e-07 5.81803e-05 -2.77934e-07)
(1.62026e-05 6.44993e-05 -1.26554e-05)
(4.87112e-05 7.12376e-05 -1.69408e-05)
(8.36288e-05 8.31545e-05 -1.84327e-05)
(0.000124029 0.000102824 -2.09014e-05)
(0.00017397 0.000133152 -2.53176e-05)
(0.000239043 0.000178961 -3.19849e-05)
(0.000332949 0.000245678 -3.87143e-05)
(0.000451799 0.000340773 -4.35906e-05)
(0.000694503 0.000460873 -3.0882e-05)
(0.000717634 0.000137808 4.23512e-05)
(0.00057378 0.000308478 4.8503e-05)
(0.000643693 0.000648696 0.000116794)
(0.000581328 0.000850519 0.000175082)
(0.000469127 0.000996582 0.000208685)
(0.000337132 0.00109427 0.000220306)
(0.000204285 0.00115515 0.000224032)
(7.2751e-05 0.00118421 0.000225227)
(-5.77305e-05 0.00118514 0.000225298)
(-0.000189208 0.00115797 0.000224247)
(-0.000321965 0.0010991 0.000220686)
(-0.000453768 0.00100366 0.000209292)
(-0.000565811 0.000860227 0.000176149)
(-0.000627905 0.000661449 0.000118361)
(-0.000556011 0.000324056 5.10888e-05)
(-0.000706093 0.000141563 4.44655e-05)
(-0.000689275 0.000465908 -3.01604e-05)
(-0.000442242 0.000350724 -4.46932e-05)
(-0.000318807 0.000257581 -4.12145e-05)
(-0.000218229 0.000192667 -3.61343e-05)
(-0.000143751 0.000149675 -3.1326e-05)
(-8.25449e-05 0.000123943 -2.80525e-05)
(-2.82752e-05 0.000109942 -2.07139e-05)
(-1.79535e-06 9.89013e-05 -9.22247e-07)
(1.29759e-06 5.46149e-05 9.06097e-08)
(1.97331e-05 6.04052e-05 -1.36714e-05)
(5.7398e-05 6.63096e-05 -1.851e-05)
(9.84191e-05 7.64805e-05 -2.0286e-05)
(0.000146742 9.26108e-05 -2.32537e-05)
(0.000207581 0.000115886 -2.85751e-05)
(0.000287556 0.000147141 -3.65668e-05)
(0.00039973 0.000184683 -4.56168e-05)
(0.000540756 0.000218972 -5.22449e-05)
(0.000754181 0.000235214 -4.74003e-05)
(0.000853903 0.000124518 -2.48577e-05)
(0.00085868 0.000296413 1.24002e-05)
(0.000852994 0.000479636 0.000128757)
(0.000730584 0.000614765 0.000200348)
(0.00057859 0.000720216 0.000237589)
(0.000409946 0.000792133 0.000252976)
(0.000245984 0.000838023 0.000258122)
(8.67414e-05 0.000860275 0.000259679)
(-6.99892e-05 0.000861035 0.000259743)
(-0.000229134 0.000840313 0.000258317)
(-0.00039292 0.000795991 0.000253327)
(-0.000561242 0.000725676 0.00023817)
(-0.000713071 0.000621822 0.000201419)
(-0.000835387 0.000487854 0.000130452)
(-0.000841456 0.000304849 1.54915e-05)
(-0.000841091 0.000128557 -2.29399e-05)
(-0.000745126 0.000242908 -4.69712e-05)
(-0.000530102 0.000228529 -5.3364e-05)
(-0.000384597 0.000195749 -4.82901e-05)
(-0.000265099 0.000160008 -4.1156e-05)
(-0.000174426 0.000131535 -3.53468e-05)
(-0.000100425 0.00011262 -3.13928e-05)
(-3.5606e-05 0.000101697 -2.28973e-05)
(-3.33822e-06 9.2081e-05 -3.73066e-07)
(1.93336e-06 4.90815e-05 4.4212e-07)
(2.27832e-05 5.41632e-05 -1.45541e-05)
(6.4888e-05 5.90456e-05 -1.98713e-05)
(0.000110914 6.72469e-05 -2.18692e-05)
(0.00016523 7.98733e-05 -2.52287e-05)
(0.000233234 9.73377e-05 -3.13273e-05)
(0.000321453 0.000119337 -4.0685e-05)
(0.000440954 0.00014429 -5.25829e-05)
(0.000587674 0.00016597 -6.38965e-05)
(0.000775009 0.000182206 -6.8347e-05)
(0.000907266 0.000156255 -5.37752e-05)
(0.000987854 0.0002421 -3.45411e-06)
(0.000977183 0.000349658 0.000116208)
(0.000832896 0.000439761 0.000184369)
(0.000655061 0.000512535 0.00021868)
(0.000460698 0.000562253 0.000228928)
(0.000275529 0.000594687 0.000230886)
(9.67378e-05 0.000610542 0.00023086)
(-7.85819e-05 0.000611172 0.000230896)
(-0.000257258 0.000596574 0.00023099)
(-0.00044223 0.000565396 0.000229127)
(-0.000636253 0.000516906 0.000219042)
(-0.000814033 0.000445302 0.000185162)
(-0.000958468 0.00035607 0.00011761)
(-0.000971148 0.000249078 -6.09014e-07)
(-0.00089456 0.000161721 -5.21376e-05)
(-0.000764383 0.000189177 -6.77977e-05)
(-0.000575726 0.00017435 -6.49632e-05)
(-0.000424429 0.000154161 -5.53482e-05)
(-0.000297105 0.000130991 -4.55945e-05)
(-0.000197089 0.000111618 -3.86774e-05)
(-0.000114328 9.80538e-05 -3.41181e-05)
(-4.134e-05 8.98859e-05 -2.46562e-05)
(-4.54951e-06 8.17536e-05 2.03809e-07)
(2.34806e-06 4.19335e-05 7.18193e-07)
(2.50073e-05 4.61254e-05 -1.52918e-05)
(7.04455e-05 4.9839e-05 -2.10025e-05)
(0.00011993 5.58923e-05 -2.31735e-05)
(0.00017791 6.49322e-05 -2.68277e-05)
(0.000249534 7.69223e-05 -3.35016e-05)
(0.000341099 9.11911e-05 -4.38435e-05)
(0.000462243 0.000106721 -5.75381e-05)
(0.00061029 0.000120017 -7.13911e-05)
(0.000789916 0.000133256 -7.90901e-05)
(0.000941339 0.00013598 -6.50722e-05)
(0.00105917 0.000186854 -1.74582e-05)
(0.00105041 0.000252211 9.96805e-05)
(0.000894251 0.000308116 0.000161247)
(0.000702682 0.000354548 0.000190373)
(0.000493622 0.000387472 0.000195929)
(0.000295205 0.000409479 0.000195153)
(0.000103533 0.000420435 0.000193763)
(-8.42332e-05 0.000420979 0.000193772)
(-0.000275808 0.000411098 0.000195178)
(-0.00047407 0.000390129 0.000195991)
(-0.000682858 0.000358167 0.000190535)
(-0.000874523 0.0003126 0.000161786)
(-0.00103099 0.000257333 0.000100821)
(-0.00104241 0.000192492 -1.47207e-05)
(-0.000928315 0.000141358 -6.35426e-05)
(-0.000778171 0.000139642 -7.8602e-05)
(-0.000597187 0.000127445 -7.25154e-05)
(-0.00044436 0.000115388 -6.04351e-05)
(-0.000314915 0.000101428 -4.90214e-05)
(-0.000210646 8.9425e-05 -4.12944e-05)
(-0.000123019 8.0671e-05 -3.62707e-05)
(-4.47555e-05 7.51666e-05 -2.60545e-05)
(-5.09389e-06 6.87643e-05 5.9661e-07)
(2.62878e-06 3.36939e-05 9.27818e-07)
(2.66119e-05 3.69614e-05 -1.58745e-05)
(7.45116e-05 3.96418e-05 -2.18861e-05)
(0.000126441 4.39096e-05 -2.418e-05)
(0.000186841 5.01815e-05 -2.804e-05)
(0.000260608 5.83466e-05 -3.51125e-05)
(0.000353922 6.78958e-05 -4.61249e-05)
(0.000475665 7.8388e-05 -6.09526e-05)
(0.000624587 8.81925e-05 -7.63152e-05)
(0.000803446 9.96975e-05 -8.5807e-05)
(0.00096644 0.000110129 -7.20799e-05)
(0.00110236 0.000142286 -2.62634e-05)
(0.00109576 0.00018235 8.95442e-05)
(0.000934069 0.000218206 0.00014745)
(0.00073434 0.000248623 0.00017352)
(0.000515921 0.000270716 0.000176299)
(0.00030873 0.000285699 0.000173836)
(0.000108321 0.000293301 0.000171614)
(-8.79895e-05 0.000293807 0.000171611)
(-0.000288334 0.000287198 0.000173821)
(-0.000495437 0.000273151 0.000176292)
(-0.000713684 0.000251893 0.00017358)
(-0.000913662 0.000222188 0.000147854)
(-0.00107582 0.000186854 9.05215e-05)
(-0.00108533 0.000147197 -2.37518e-05)
(-0.000952992 0.000115155 -7.06584e-05)
(-0.000790903 0.000105382 -8.53819e-05)
(-0.000610567 9.45976e-05 -7.75188e-05)
(-0.000456613 8.57354e-05 -6.3975e-05)
(-0.00032615 7.64871e-05 -5.15176e-05)
(-0.000219424 6.87157e-05 -4.3238e-05)
(-0.000128732 6.30216e-05 -3.78871e-05)
(-4.69064e-05 5.93437e-05 -2.71178e-05)
(-5.37301e-06 5.44755e-05 8.76177e-07)
(2.78319e-06 2.47178e-05 1.05684e-06)
(2.76446e-05 2.702e-05 -1.6312e-05)
(7.7204e-05 2.87561e-05 -2.25361e-05)
(0.00013073 3.1467e-05 -2.4911e-05)
(0.000192649 3.54299e-05 -2.89018e-05)
(0.000267703 4.05764e-05 -3.62193e-05)
(0.000362092 4.66469e-05 -4.76266e-05)
(0.000484461 5.35573e-05 -6.30657e-05)
(0.000634666 6.0753e-05 -7.91927e-05)
(0.000815018 6.99445e-05 -8.94909e-05)
(0.000984659 8.03937e-05 -7.60877e-05)
(0.00112962 0.000100618 -3.1081e-05)
(0.00112444 0.000125143 8.47448e-05)
(0.000959559 0.000147484 0.000141322)
(0.00075493 0.000166601 0.00016615)
(0.000530741 0.00018085 0.000167729)
(0.000317871 0.000190649 0.000164538)
(0.000111677 0.000195755 0.000161955)
(-9.03632e-05 0.000196255 0.000161947)
(-0.000296539 0.000192124 0.000164511)
(-0.000509413 0.000183221 0.0001677)
(-0.000733557 0.000169742 0.000166174)
(-0.000938598 0.000151236 0.000141674)
(-0.00110409 0.000129315 8.56532e-05)
(-0.00111233 0.000105069 -2.86649e-05)
(-0.000970876 8.49642e-05 -7.475e-05)
(-0.000801944 7.48771e-05 -8.91459e-05)
(-0.00061999 6.61133e-05 -8.04904e-05)
(-0.000464541 5.9523e-05 -6.62108e-05)
(-0.000333129 5.34486e-05 -5.31981e-05)
(-0.000224819 4.85816e-05 -4.45997e-05)
(-0.00013221 4.50871e-05 -3.90481e-05)
(-4.81155e-05 4.28035e-05 -2.79049e-05)
(-5.44734e-06 3.94341e-05 1.01602e-06)
(2.8543e-06 1.53515e-05 1.11318e-06)
(2.82263e-05 1.6687e-05 -1.66071e-05)
(7.87727e-05 1.75746e-05 -2.296e-05)
(0.000133255 1.89362e-05 -2.5381e-05)
(0.000196102 2.09591e-05 -2.94449e-05)
(0.000272002 2.36653e-05 -3.68975e-05)
(0.000367213 2.70365e-05 -4.85188e-05)
(0.000490341 3.11691e-05 -6.4271e-05)
(0.000641802 3.6052e-05 -8.07744e-05)
(0.00082379 4.24391e-05 -9.14374e-05)
(0.000996979 5.02245e-05 -7.81669e-05)
(0.00114612 6.16342e-05 -3.33042e-05)
(0.00114164 7.46791e-05 8.29899e-05)
(0.000974979 8.67253e-05 0.000139375)
(0.000767515 9.70304e-05 0.000163893)
(0.000539954 0.000104932 0.000165102)
(0.000323654 0.000110453 0.000161673)
(0.000113939 0.000113481 0.000158972)
(-9.16282e-05 0.000114006 0.000158964)
(-0.000301385 0.000111994 0.000161647)
(-0.000517804 0.000107386 0.000165072)
(-0.000745482 0.000100238 0.000163914)
(-0.00095355 9.04875e-05 0.000139712)
(-0.00112102 7.87638e-05 8.38666e-05)
(-0.00112871 6.58157e-05 -3.09499e-05)
(-0.00098305 5.43729e-05 -7.69039e-05)
(-0.000810471 4.66597e-05 -9.11747e-05)
(-0.000626786 4.03897e-05 -8.21652e-05)
(-0.000469928 3.57425e-05 -6.75261e-05)
(-0.000337541 3.19886e-05 -5.42324e-05)
(-0.000228091 2.92005e-05 -4.54648e-05)
(-0.000134255 2.73088e-05 -3.9803e-05)
(-4.87868e-05 2.60892e-05 -2.84359e-05)
(-5.45901e-06 2.41348e-05 1.06057e-06)
(2.85311e-06 5.8545e-06 1.09628e-06)
(2.83975e-05 6.21631e-06 -1.67649e-05)
(7.93035e-05 6.2781e-06 -2.31662e-05)
(0.000134165 6.34187e-06 -2.56023e-05)
(0.000197438 6.51016e-06 -2.96894e-05)
(0.000273837 6.89888e-06 -3.71846e-05)
(0.000369676 7.71445e-06 -4.88721e-05)
(0.000493609 9.18418e-06 -6.47152e-05)
(0.000646114 1.17098e-05 -8.13243e-05)
(0.000829304 1.51619e-05 -9.20872e-05)
(0.00100373 1.97526e-05 -7.8861e-05)
(0.0011537 2.34745e-05 -3.39545e-05)
(0.00114914 2.63066e-05 8.27164e-05)
(0.00098168 2.89502e-05 0.000139324)
(0.000773039 3.10707e-05 0.000163937)
(0.000544145 3.3005e-05 0.000165175)
(0.00032642 3.44972e-05 0.000161752)
(0.000115233 3.5581e-05 0.000159051)
(-9.18525e-05 3.61651e-05 0.000159045)
(-0.000303159 3.62127e-05 0.00016173)
(-0.000521152 3.57239e-05 0.000165152)
(-0.000750362 3.45965e-05 0.000163965)
(-0.000959851 3.29678e-05 0.000139645)
(-0.00112839 3.05254e-05 8.35542e-05)
(-0.00113635 2.75787e-05 -3.16736e-05)
(-0.000989896 2.35752e-05 -7.76847e-05)
(-0.000816037 1.87528e-05 -9.19214e-05)
(-0.000631098 1.51064e-05 -8.28135e-05)
(-0.000473112 1.24452e-05 -6.8071e-05)
(-0.000339817 1.0871e-05 -5.46954e-05)
(-0.000229607 9.98587e-06 -4.5879e-05)
(-0.000135119 9.55741e-06 -4.01835e-05)
(-4.90442e-05 9.32807e-06 -2.87282e-05)
(-5.43904e-06 8.78796e-06 1.01552e-06)
(2.78077e-06 -3.49691e-06 1.00771e-06)
(2.81589e-05 -4.10541e-06 -1.67863e-05)
(7.87967e-05 -4.89219e-06 -2.31567e-05)
(0.000133457 -6.179e-06 -2.55786e-05)
(0.000196644 -7.96142e-06 -2.96409e-05)
(0.000273183 -1.00448e-05 -3.70897e-05)
(0.000369447 -1.19924e-05 -4.87018e-05)
(0.000494237 -1.33897e-05 -6.44235e-05)
(0.000647631 -1.32479e-05 -8.0882e-05)
(0.000831683 -1.24603e-05 -9.14974e-05)
(0.00100524 -1.00801e-05 -7.82465e-05)
(0.00115275 -1.39244e-05 -3.31809e-05)
(0.00114719 -2.20029e-05 8.36969e-05)
(0.000979765 -2.92872e-05 0.000140883)
(0.000771557 -3.57936e-05 0.000165969)
(0.000543365 -4.00514e-05 0.000167613)
(0.000326216 -4.27126e-05 0.000164419)
(0.000115602 -4.36013e-05 0.000161826)
(-9.09941e-05 -4.29158e-05 0.000161814)
(-0.000301815 -4.06974e-05 0.000164377)
(-0.000519408 -3.68661e-05 0.000167549)
(-0.000748229 -3.16768e-05 0.000165932)
(-0.000957646 -2.46612e-05 0.000141146)
(-0.00112648 -1.72606e-05 8.44686e-05)
(-0.00113571 -9.58274e-06 -3.10182e-05)
(-0.000991798 -6.38706e-06 -7.71927e-05)
(-0.000818773 -9.32732e-06 -9.14579e-05)
(-0.000632939 -1.06424e-05 -8.24945e-05)
(-0.000474065 -1.13029e-05 -6.78959e-05)
(-0.000339953 -1.04959e-05 -5.46264e-05)
(-0.000229372 -9.27004e-06 -4.58631e-05)
(-0.000134804 -8.0856e-06 -4.01998e-05)
(-4.88866e-05 -7.24615e-06 -2.87876e-05)
(-5.38612e-06 -6.36266e-06 8.81835e-07)
(2.62343e-06 -1.24353e-05 8.44016e-07)
(2.74699e-05 -1.40178e-05 -1.6671e-05)
(7.71678e-05 -1.57453e-05 -2.29287e-05)
(0.000130978 -1.85842e-05 -2.5304e-05)
(0.000193466 -2.26855e-05 -2.92896e-05)
(0.00026966 -2.78416e-05 -3.65924e-05)
(0.000366041 -3.3399e-05 -4.79657e-05)
(0.000491787 -3.85946e-05 -6.32966e-05)
(0.00064616 -4.12864e-05 -7.92501e-05)
(0.000831548 -4.25858e-05 -8.93228e-05)
(0.00100192 -3.91734e-05 -7.58981e-05)
(0.00114219 -5.15883e-05 -3.02283e-05)
(0.00113429 -7.38938e-05 8.71221e-05)
(0.000968145 -9.39217e-05 0.000145821)
(0.000762327 -0.000111347 0.000172165)
(0.000537195 -0.00012311 0.000174949)
(0.000322831 -0.000130675 0.000172412)
(0.000115013 -0.000133822 0.000170131)
(-8.89409e-05 -0.000132973 0.000170106)
(-0.00029708 -0.00012817 0.000172328)
(-0.000512107 -0.000119146 0.000174813)
(-0.000738214 -0.000106196 0.000172026)
(-0.000945681 -8.81226e-05 0.00014593)
(-0.0011138 -6.79942e-05 8.77073e-05)
(-0.00112582 -4.65108e-05 -2.82857e-05)
(-0.000989222 -3.53383e-05 -7.50375e-05)
(-0.000819322 -3.96593e-05 -8.94815e-05)
(-0.000632158 -3.9228e-05 -8.10292e-05)
(-0.00047236 -3.74356e-05 -6.68955e-05)
(-0.00033743 -3.33039e-05 -5.3965e-05)
(-0.00022697 -2.91097e-05 -4.53882e-05)
(-0.000133046 -2.57184e-05 -3.98381e-05)
(-4.8185e-05 -2.34877e-05 -2.86101e-05)
(-5.26369e-06 -2.10892e-05 6.47181e-07)
(2.34086e-06 -2.06136e-05 5.97452e-07)
(2.62169e-05 -2.31217e-05 -1.64197e-05)
(7.41795e-05 -2.5856e-05 -2.24807e-05)
(0.000126283 -3.04347e-05 -2.47728e-05)
(0.000187132 -3.72592e-05 -2.86155e-05)
(0.000262045 -4.62438e-05 -3.56351e-05)
(0.000357745 -5.66489e-05 -4.65213e-05)
(0.000484352 -6.72472e-05 -6.09887e-05)
(0.000640257 -7.40068e-05 -7.57624e-05)
(0.000829782 -7.73032e-05 -8.4378e-05)
(0.000993939 -6.48229e-05 -7.08664e-05)
(0.00111824 -8.84207e-05 -2.40912e-05)
(0.00110569 -0.000133696 9.46108e-05)
(0.000942726 -0.000172273 0.00015672)
(0.0007424 -0.000204807 0.000185849)
(0.000523915 -0.000226573 0.000191164)
(0.000315389 -0.000240494 0.000190112)
(0.000113255 -0.000246486 0.000188534)
(-8.53185e-05 -0.000245372 0.000188471)
(-0.000287897 -0.000237176 0.000189913)
(-0.000497329 -0.000221263 0.00019083)
(-0.000717238 -0.000197775 0.000185434)
(-0.000919815 -0.000164297 0.000156479)
(-0.00108558 -0.000125518 9.48207e-05)
(-0.00110306 -8.17166e-05 -2.25397e-05)
(-0.000982438 -6.04567e-05 -7.0322e-05)
(-0.000818528 -7.4174e-05 -8.48733e-05)
(-0.000627255 -7.20461e-05 -7.78134e-05)
(-0.00046605 -6.65559e-05 -6.47764e-05)
(-0.000330522 -5.75009e-05 -5.26048e-05)
(-0.00022117 -4.91114e-05 -4.44072e-05)
(-0.00012908 -4.27667e-05 -3.90724e-05)
(-4.65547e-05 -3.8788e-05 -2.81901e-05)
(-4.93395e-06 -3.48692e-05 2.65349e-07)
(1.93494e-06 -2.76808e-05 2.83829e-07)