/*--------------------------------*- C++ -*----------------------------------*\
| =========                 |                                                 |
| \\      /  F ield         | OpenFOAM: The Open Source CFD Toolbox           |
|  \\    /   O peration     | Version:  2112                                  |
|   \\  /    A nd           | Website:  www.openfoam.com                      |
|    \\/     M anipulation  |                                                 |
\*---------------------------------------------------------------------------*/
FoamFile
{
    version     2.0;
    format      ascii;
    arch        "LSB;label=32;scalar=64";
    class       volScalarField;
    location    "1.6";
    object      epsilon;
}
// * * * * * * * * * * * * * * * * * * * * * * * * * * * * * * * * * * * * * //

dimensions      [0 2 -3 0 0 0 0];

internalField   nonuniform List<scalar> 
64906
(
0.00195052
0.00211553
0.00219194
0.00221621
0.00222266
0.0022242
0.00222457
0.00222468
0.00222475
0.0022248
0.00222485
0.00222489
0.00222491
0.00222493
0.00222493
0.00222492
0.0022249
0.00222488
0.00222487
0.00222488
0.00222489
0.0022249
0.0022249
0.00222489
0.00222486
0.00222482
0.00222477
0.00222466
0.00222429
0.00222275
0.0022163
0.00219203
0.00211562
0.00195059
0.00211558
0.00334845
0.00391178
0.00411358
0.00417602
0.00419302
0.00419721
0.00419823
0.00419855
0.00419872
0.00419886
0.00419899
0.00419911
0.00419922
0.00419931
0.00419937
0.00419941
0.00419943
0.00419943
0.00419942
0.00419938
0.00419932
0.00419924
0.00419914
0.00419902
0.00419886
0.00419856
0.00419755
0.00419336
0.00417635
0.00411389
0.00391207
0.0033487
0.00211571
0.00219206
0.00391196
0.00476951
0.00510602
0.00522017
0.00525413
0.00526321
0.00526554
0.00526622
0.00526654
0.00526683
0.00526719
0.00526759
0.00526797
0.0052683
0.00526854
0.0052687
0.00526878
0.00526879
0.00526872
0.00526858
0.00526835
0.00526804
0.00526767
0.00526727
0.00526684
0.00526614
0.00526385
0.0052548
0.00522083
0.00510665
0.00477009
0.00391241
0.00219226
0.00221639
0.0041139
0.0051062
0.0055154
0.00566126
0.00570677
0.00571945
0.00572267
0.00572331
0.00572324
0.00572319
0.00572363
0.00572432
0.00572507
0.00572571
0.00572614
0.00572641
0.00572654
0.00572656
0.00572644
0.0057262
0.00572579
0.00572518
0.00572445
0.00572375
0.00572319
0.00572262
0.00571981
0.00570747
0.00566212
0.00551628
0.00510701
0.00411451
0.00221665
0.00222288
0.00417642
0.00522045
0.00566136
0.00582239
0.00587378
0.00588813
0.00589104
0.00588999
0.00588724
0.00588483
0.00588479
0.00588594
0.00588735
0.00588851
0.00588913
0.00588942
0.00588957
0.00588958
0.00588947
0.0058892
0.00588861
0.00588748
0.00588609
0.00588494
0.00588483
0.00588649
0.00588584
0.00587339
0.00582301
0.00566233
0.00522142
0.00417717
0.00222319
0.00222444
0.00419344
0.00525443
0.00570691
0.00587381
0.00592726
0.00594111
0.00594071
0.00593243
0.00591885
0.00590691
0.00590566
0.00590873
0.00591223
0.00591474
0.0059155
0.0059156
0.00591563
0.00591565
0.00591566
0.00591559
0.00591487
0.00591239
0.00590891
0.00590583
0.00590693
0.00591805
0.00592801
0.00592204
0.00587277
0.00570751
0.00525544
0.00419428
0.0022248
0.00222481
0.00419762
0.00526348
0.00571956
0.00588813
0.00594111
0.00595093
0.00593922
0.00590698
0.00585651
0.00581232
0.00581353
0.00582731
0.00583875
0.00584542
0.00584643
0.00584594
0.00584565
0.00584567
0.00584601
0.00584654
0.00584558
0.00583894
0.00582752
0.00581373
0.00581235
0.00585574
0.00590253
0.00592026
0.00588157
0.00571864
0.00526424
0.00419851
0.00222521
0.00222492
0.00419858
0.00526573
0.00572269
0.00589101
0.00594084
0.00593964
0.00589756
0.00579792
0.00563636
0.00549051
0.00552979
0.00559275
0.00563153
0.00564994
0.00565219
0.00565105
0.00565039
0.00565042
0.00565113
0.00565233
0.00565012
0.00563176
0.00559302
0.00553005
0.00549056
0.00563565
0.00579357
0.00587869
0.00587015
0.00571772
0.00526563
0.0041994
0.00222537
0.00222498
0.00419881
0.0052663
0.00572325
0.00589009
0.00593335
0.00590958
0.00580185
0.00554291
0.00508157
0.00461856
0.0048806
0.00512355
0.00523898
0.00528298
0.00529066
0.00529071
0.00529038
0.00529041
0.0052908
0.00529081
0.00528319
0.00523925
0.00512388
0.00488095
0.0046186
0.00508097
0.0055388
0.00578329
0.00584036
0.00571028
0.00526441
0.00419938
0.00222545
0.002225
0.00419886
0.00526648
0.00572318
0.00588797
0.00592229
0.00586593
0.00565381
0.00509998
0.00394626
0.00263115
0.00368701
0.00442618
0.00470073
0.00478255
0.00480324
0.00480781
0.00480875
0.00480878
0.00480789
0.00480337
0.00478275
0.00470102
0.0044266
0.00368752
0.0026311
0.00394584
0.00509619
0.00563564
0.00579706
0.0056994
0.00526222
0.00419904
0.00222549
0.00222501
0.00419886
0.00526664
0.00572332
0.0058871
0.00591615
0.00583795
0.00554254
0.0046864
0.00265652
0.00252512
0.00385438
0.00429119
0.00440417
0.00442877
0.00443314
0.00443379
0.0044338
0.00443317
0.00442884
0.00440428
0.00429141
0.00385478
0.00252537
0.00265637
0.00468286
0.00552456
0.0057692
0.00569323
0.00526113
0.00419883
0.00222551
0.002225
0.00419884
0.00526689
0.00572414
0.00588953
0.00592435
0.00586795
0.00565378
0.00509366
0.00392726
0.00261693
0.00359229
0.00429453
0.00455058
0.00462411
0.00463698
0.00463664
0.00463567
0.00463566
0.0046366
0.00463692
0.00462404
0.00455052
0.00429452
0.00359211
0.00261655
0.00392608
0.00508942
0.00563533
0.00579876
0.00570094
0.00526298
0.00419902
0.00222552
0.00222497
0.00419882
0.00526718
0.00572521
0.00589316
0.00593724
0.00591297
0.00580044
0.00552617
0.00503016
0.00450587
0.0046444
0.00476695
0.00482003
0.00483659
0.00483679
0.00483424
0.00483286
0.00483284
0.00483418
0.00483669
0.00483644
0.00481981
0.00476665
0.00464389
0.00450496
0.00502878
0.00552157
0.0057815
0.00584324
0.00571323
0.00526594
0.00419942
0.0022255
0.00222493
0.00419878
0.00526742
0.00572611
0.00589607
0.00594704
0.00594488
0.00589518
0.0057709
0.00555056
0.00529108
0.00514894
0.00502529
0.00496983
0.00495055
0.00494278
0.00493926
0.00493787
0.00493784
0.00493918
0.00494265
0.00495036
0.00496955
0.00502492
0.0051484
0.00529027
0.00554917
0.00576611
0.0058759
0.00587469
0.00572249
0.00526827
0.00419971
0.00222544
0.00222487
0.00419873
0.00526759
0.00572671
0.00589782
0.00595238
0.00596104
0.00593966
0.0058758
0.00574915
0.00555847
0.00534048
0.0051301
0.00503135
0.00499639
0.00498476
0.00498059
0.00497906
0.00497903
0.00498048
0.0049846
0.00499617
0.00503105
0.00512971
0.00533977
0.00555775
0.00574779
0.00587094
0.0059202
0.00589058
0.00572749
0.0052696
0.00419985
0.00222536
0.00222481
0.00419868
0.0052677
0.00572707
0.00589873
0.00595483
0.00596775
0.00595678
0.00591331
0.00581471
0.00564061
0.00540229
0.00516487
0.00505193
0.00501153
0.00499838
0.00499377
0.00499199
0.00499194
0.00499362
0.00499818
0.00501129
0.00505163
0.00516448
0.00540161
0.00563993
0.00581337
0.00590843
0.00593724
0.00589716
0.00572974
0.00527025
0.00419988
0.00222527
0.00222475
0.00419864
0.00526778
0.00572729
0.0058992
0.00595587
0.00597024
0.00596255
0.00592507
0.00583394
0.00566349
0.00541993
0.00517487
0.00505792
0.00501588
0.00500218
0.00499727
0.00499521
0.00499513
0.0049971
0.00500196
0.00501563
0.0050576
0.00517448
0.00541926
0.00566284
0.00583261
0.00592018
0.00594299
0.00589959
0.00573068
0.00527055
0.00419988
0.00222517
0.00222469
0.00419861
0.00526783
0.00572741
0.00589943
0.00595629
0.00597109
0.0059643
0.00592833
0.00583895
0.00566921
0.00542442
0.00517742
0.00505948
0.00501699
0.00500308
0.00499798
0.00499567
0.00499557
0.00499778
0.00500284
0.00501673
0.00505915
0.00517703
0.00542376
0.00566858
0.00583764
0.00592346
0.00594474
0.00590043
0.00573106
0.0052707
0.00419986
0.00222508
0.00222464
0.0041986
0.00526785
0.00572747
0.0058995
0.00595639
0.00597122
0.00596447
0.00592854
0.00583919
0.00566948
0.00542468
0.00517758
0.00505957
0.00501703
0.00500305
0.00499787
0.00499541
0.00499528
0.00499765
0.0050028
0.00501676
0.00505924
0.00517718
0.00542404
0.00566887
0.00583791
0.00592369
0.00594493
0.00590057
0.00573116
0.00527076
0.00419986
0.002225
0.00222464
0.00419862
0.00526786
0.00572744
0.00589942
0.00595617
0.00597063
0.00596306
0.0059257
0.00583471
0.00566434
0.00542076
0.00517535
0.00505822
0.00501601
0.00500212
0.00499695
0.00499452
0.00499439
0.00499672
0.00500186
0.00501573
0.0050579
0.00517497
0.00542015
0.00566376
0.00583347
0.0059209
0.00594356
0.00590002
0.00573099
0.00527072
0.00419987
0.00222501
0.00222469
0.00419866
0.00526784
0.00572733
0.00589911
0.00595534
0.00596841
0.00595765
0.00591443
0.0058161
0.00564219
0.00540387
0.00516579
0.00505253
0.00501183
0.00499836
0.00499336
0.00499113
0.00499101
0.00499313
0.00499811
0.00501155
0.00505223
0.00516544
0.00540332
0.00564168
0.00581493
0.0059097
0.00593823
0.0058979
0.00573026
0.00527054
0.0041999
0.00222509
0.00222475
0.00419872
0.00526778
0.00572707
0.00589835
0.0059531
0.00596199
0.00594093
0.00587751
0.00575138
0.00556114
0.00534318
0.00513167
0.00503242
0.00499702
0.00498496
0.00498032
0.00497837
0.00497828
0.00498011
0.00498472
0.00499677
0.00503215
0.00513139
0.00534278
0.00556075
0.00575033
0.00587291
0.00592167
0.00589166
0.00572824
0.00527002
0.0041999
0.00222518
0.00222481
0.00419879
0.00526767
0.00572658
0.00589677
0.00594797
0.00594614
0.00589692
0.00577334
0.00555397
0.00529544
0.00515319
0.00502776
0.00497152
0.00495166
0.00494339
0.00493941
0.00493771
0.00493765
0.00493926
0.00494319
0.00495146
0.00497133
0.00502762
0.00515305
0.00529526
0.00555313
0.00576896
0.00587794
0.00587614
0.00572348
0.00526883
0.00419981
0.00222527
0.00222486
0.00419885
0.0052675
0.0057258
0.00589401
0.0059384
0.00591454
0.00580263
0.00552939
0.0050349
0.00451237
0.00464948
0.00476984
0.00482181
0.00483768
0.0048374
0.0048345
0.00483292
0.00483289
0.0048344
0.00483726
0.00483753
0.00482168
0.00476986
0.00464981
0.0045125
0.0050344
0.00552537
0.00578408
0.00584505
0.00571446
0.00526664
0.00419958
0.00222534
0.0022249
0.0041989
0.00526726
0.00572483
0.00589052
0.00592569
0.00586974
0.00565627
0.00509724
0.00393237
0.00261984
0.00359508
0.00429377
0.00454844
0.004621
0.00463334
0.00463269
0.00463156
0.00463153
0.00463258
0.00463312
0.00462062
0.00454784
0.00429325
0.00359555
0.0026197
0.00393223
0.00509357
0.00563819
0.00580082
0.00570239
0.00526381
0.00419924
0.00222538
0.00222492
0.00419893
0.005267
0.005724
0.0058881
0.0059175
0.00583966
0.00554448
0.00468829
0.00265701
0.00251995
0.00383898
0.00426966
0.0043785
0.00440135
0.004405
0.00440532
0.00440522
0.00440465
0.00440051
0.00437659
0.00426585
0.00383344
0.00251724
0.00265628
0.00468422
0.00552641
0.00577105
0.00569468
0.005262
0.00419907
0.00222539
0.00222491
0.00419879
0.0052665
0.00572335
0.00588841
0.00592312
0.00586722
0.00565543
0.00510156
0.00394728
0.00263097
0.00365991
0.00437127
0.00461439
0.00467707
0.00469184
0.00469506
0.00469561
0.00469545
0.00469432
0.00468948
0.00467017
0.00459797
0.0043427
0.00363798
0.00262558
0.00394144
0.00509444
0.00563604
0.00579823
0.00570044
0.00526283
0.00419918
0.00222539
0.00222484
0.00419794
0.00526442
0.00572066
0.0058873
0.00593078
0.00590732
0.0057994
0.00553835
0.00506987
0.00458778
0.00479801
0.00496269
0.00498668
0.00497987
0.00497442
0.00497259
0.00497208
0.00497182
0.00497123
0.00496934
0.00496305
0.00494166
0.00487515
0.00471998
0.00454094
0.00504431
0.00552322
0.00577714
0.00583758
0.0057085
0.00526319
0.00419875
0.00222533
0.0022245
0.00419386
0.00525553
0.00570849
0.00587486
0.00592416
0.00592289
0.00587985
0.00577525
0.0055974
0.00540904
0.005356
0.00527139
0.00514259
0.0050805
0.00505921
0.00505319
0.00505168
0.00505133
0.00505136
0.00505197
0.00505494
0.00506696
0.00510698
0.00520552
0.00531353
0.00554855
0.00575113
0.00585482
0.00585318
0.00570426
0.00525614
0.00419497
0.00222498
0.00222298
0.00417693
0.00522168
0.00566328
0.00582459
0.00587486
0.00588386
0.00587074
0.00583247
0.0057623
0.00566738
0.00556326
0.00541071
0.00523983
0.00516074
0.00513424
0.00512695
0.00512523
0.00512489
0.00512505
0.00512642
0.00513269
0.00515643
0.00522989
0.00539478
0.00555881
0.0057072
0.00580636
0.00584604
0.00581712
0.00566316
0.00522322
0.00417817
0.00222343
0.00221652
0.00411448
0.00510752
0.00551747
0.00566394
0.00570964
0.00572111
0.00571931
0.00570653
0.00567813
0.00562802
0.00554898
0.00543229
0.00530744
0.00524409
0.0052213
0.00521496
0.00521358
0.00521335
0.00521343
0.00521463
0.00522059
0.00524249
0.00530447
0.00542848
0.0055488
0.00563768
0.0056871
0.00569917
0.00566278
0.00551906
0.00510936
0.00411571
0.00221694
0.00219222
0.0039126
0.00477086
0.00510807
0.00522289
0.00525742
0.00526674
0.00526814
0.00526488
0.00525473
0.0052327
0.00519242
0.00513189
0.00506773
0.00503246
0.00501882
0.00501483
0.00501394
0.0050138
0.00501387
0.00501468
0.00501854
0.00503193
0.00506687
0.00513088
0.00519224
0.00523427
0.0052548
0.00525532
0.00522422
0.00511012
0.00477261
0.00391369
0.0021926
0.00211577
0.00334905
0.00391295
0.00411527
0.00417822
0.00419575
0.00420046
0.00420181
0.00420169
0.00419946
0.00419316
0.00418014
0.00415982
0.00413769
0.00412478
0.00411942
0.00411772
0.00411729
0.00411721
0.00411729
0.00411772
0.0041194
0.0041247
0.00413754
0.0041596
0.00418005
0.0041932
0.0041987
0.00419674
0.00417995
0.00411694
0.00391427
0.00334988
0.00211608
0.00195068
0.00211584
0.00219244
0.00221691
0.00222356
0.00222532
0.00222595
0.00222634
0.00222669
0.00222693
0.00222689
0.00222628
0.00222497
0.00222327
0.00222219
0.00222162
0.0022213
0.00222108
0.00222098
0.00222109
0.00222131
0.00222161
0.00222215
0.0022232
0.00222485
0.00222613
0.00222673
0.0022267
0.00222615
0.00222433
0.00221756
0.00219295
0.00211619
0.0019509
0.0025183
0.00322443
0.0035793
0.00370841
0.00374795
0.00375854
0.00376109
0.00376166
0.0037618
0.00376183
0.00376184
0.00376183
0.00376182
0.00376179
0.00376177
0.00376175
0.00376173
0.00376171
0.00376171
0.00376172
0.00376174
0.00376176
0.00376178
0.00376179
0.0037618
0.00376179
0.00376168
0.00376113
0.00375859
0.00374801
0.00370846
0.00357936
0.00322449
0.00251835
0.00322444
0.00365737
0.00406899
0.00424436
0.00430441
0.00432194
0.00432643
0.00432747
0.00432768
0.0043277
0.00432768
0.00432766
0.00432764
0.00432763
0.00432762
0.00432761
0.0043276
0.0043276
0.0043276
0.00432761
0.00432762
0.00432763
0.00432764
0.00432765
0.00432766
0.00432765
0.00432746
0.00432646
0.00432199
0.00430447
0.00424443
0.00406907
0.00365744
0.0032245
0.00357941
0.00406906
0.00456753
0.00479678
0.00488185
0.00490875
0.0049162
0.00491803
0.0049184
0.0049184
0.00491833
0.00491832
0.00491836
0.00491843
0.00491848
0.00491852
0.00491855
0.00491856
0.00491856
0.00491855
0.00491853
0.0049185
0.00491845
0.00491839
0.00491833
0.00491827
0.00491794
0.00491621
0.00490884
0.00488198
0.00479695
0.00456771
0.00406923
0.00357957
0.00370863
0.00424451
0.00479686
0.00506029
0.00516216
0.00519579
0.00520545
0.00520778
0.00520799
0.00520755
0.00520708
0.00520695
0.00520707
0.00520727
0.00520744
0.00520755
0.0052076
0.00520762
0.00520763
0.00520761
0.00520757
0.00520747
0.0052073
0.0052071
0.00520697
0.00520699
0.00520692
0.00520501
0.00519572
0.00516231
0.00506054
0.00479715
0.00424476
0.00370888
0.00374824
0.0043046
0.00488198
0.00516222
0.00527281
0.00531004
0.0053207
0.00532266
0.00532146
0.00531893
0.00531663
0.00531592
0.00531622
0.00531675
0.00531716
0.00531734
0.00531739
0.0053174
0.00531741
0.00531741
0.00531737
0.00531719
0.00531679
0.00531626
0.00531595
0.00531652
0.00531819
0.00531801
0.00530893
0.00527262
0.00516242
0.00488231
0.00430492
0.00374857
0.00375886
0.00432215
0.0049089
0.00519586
0.00531006
0.00534854
0.00535867
0.00535804
0.00535152
0.00534141
0.00533272
0.00533063
0.00533215
0.005334
0.00533511
0.00533549
0.00533547
0.00533541
0.00533541
0.00533549
0.00533552
0.00533515
0.00533405
0.00533221
0.00533066
0.00533261
0.00534062
0.00534785
0.00534356
0.0053084
0.00519563
0.00490916
0.00432247
0.00375925
0.00376142
0.00432662
0.00491634
0.00520552
0.00532073
0.00535871
0.00536574
0.0053569
0.00533401
0.00530047
0.00527305
0.00526952
0.00527763
0.00528466
0.00528805
0.00528923
0.00528921
0.00528903
0.00528904
0.00528923
0.00528927
0.0052881
0.00528472
0.0052777
0.00526957
0.00527294
0.00529966
0.00533026
0.00534215
0.00531467
0.00520391
0.00491624
0.00432689
0.00376183
0.00376199
0.00432763
0.00491814
0.00520784
0.00532273
0.00535828
0.00535733
0.00532789
0.00526264
0.00516691
0.00509453
0.00509221
0.00512592
0.00514997
0.00515972
0.00516391
0.0051645
0.00516432
0.00516433
0.00516453
0.00516395
0.00515979
0.00515006
0.00512602
0.00509228
0.00509443
0.0051661
0.00525889
0.00531308
0.00530604
0.0052029
0.00491715
0.00432769
0.00376234
0.0037621
0.00432779
0.00491847
0.00520807
0.00532177
0.00535253
0.0053363
0.0052659
0.00511197
0.00488169
0.00475862
0.00472458
0.00483012
0.0048986
0.00492251
0.00493491
0.00493789
0.00493819
0.0049382
0.00493792
0.00493496
0.00492259
0.00489872
0.00483027
0.0047247
0.00475851
0.00488086
0.00510822
0.00525108
0.00528495
0.00519696
0.00491583
0.00432746
0.00376231
0.00376209
0.00432777
0.00491845
0.00520776
0.00531991
0.00534455
0.00530817
0.00518124
0.00489956
0.0045033
0.00536558
0.00419434
0.00440334
0.00455355
0.00460179
0.00462727
0.00463419
0.00463542
0.00463543
0.00463422
0.00462733
0.00460187
0.0045537
0.00440355
0.00419451
0.00536509
0.00450238
0.00489573
0.00516635
0.00525673
0.00518884
0.00491375
0.00432691
0.00376208
0.00376205
0.0043277
0.0049184
0.00520761
0.00531897
0.0053403
0.00529264
0.00513599
0.00483259
0.00552497
0.00476948
0.00413071
0.00431337
0.00439585
0.00441057
0.00441164
0.00441141
0.00441141
0.00441165
0.0044106
0.00439591
0.00431348
0.00413089
0.00476999
0.00552269
0.00482855
0.00512097
0.00524106
0.00518441
0.00491257
0.00432653
0.00376188
0.00376198
0.00432763
0.00491844
0.00520796
0.00532029
0.00534495
0.00530806
0.00517926
0.00489266
0.0044839
0.00527186
0.00412512
0.00436095
0.00453518
0.00463355
0.00460407
0.00458841
0.0045843
0.00458429
0.00458837
0.00460401
0.0046335
0.00453514
0.00436092
0.00412489
0.00527052
0.00448266
0.00488864
0.00516422
0.0052564
0.00518888
0.00491363
0.00432663
0.00376186
0.0037619
0.00432758
0.00491854
0.00520856
0.00532262
0.00535336
0.00533598
0.00526141
0.00509631
0.00484031
0.00466649
0.00458043
0.00465917
0.00470896
0.00473709
0.00472573
0.00471799
0.00471546
0.00471545
0.00471795
0.00472567
0.00473702
0.00470885
0.00465901
0.00458014
0.00466597
0.00483915
0.00509232
0.00524635
0.00528424
0.00519712
0.00491571
0.00432699
0.00376193
0.00376181
0.00432753
0.00491862
0.00520906
0.00532454
0.00536007
0.00535737
0.00532152
0.00523922
0.00510618
0.00496755
0.00488144
0.00484818
0.00482071
0.00481026
0.00480235
0.00479848
0.00479715
0.00479715
0.00479846
0.0048023
0.00481019
0.00482059
0.00484801
0.00488116
0.0049671
0.00510509
0.00523524
0.00530641
0.00530552
0.00520365
0.00491741
0.00432728
0.00376195
0.00376171
0.00432749
0.00491867
0.00520938
0.00532567
0.0053638
0.00536869
0.00535181
0.00530745
0.00522778
0.00512064
0.00501378
0.00493284
0.00487234
0.00484676
0.00483761
0.00483456
0.00483364
0.00483363
0.00483453
0.00483757
0.00484669
0.00487222
0.00493267
0.0050135
0.00512023
0.00522672
0.00530347
0.00533666
0.00531675
0.00520724
0.00491837
0.00432743
0.00376189
0.00376162
0.00432745
0.00491869
0.00520955
0.00532622
0.00536547
0.00537346
0.00536394
0.00533347
0.00527214
0.00517583
0.00506035
0.00496274
0.00489074
0.00486009
0.00485001
0.00484702
0.00484618
0.00484617
0.00484699
0.00484996
0.00486002
0.00489063
0.00496258
0.00506008
0.00517545
0.0052711
0.00532949
0.00534877
0.00532146
0.00520882
0.0049188
0.00432748
0.0037618
0.00376155
0.00432742
0.00491871
0.00520963
0.00532647
0.00536612
0.00537518
0.00536806
0.00534189
0.00528588
0.00519246
0.00507422
0.0049716
0.0048962
0.00486406
0.00485362
0.0048506
0.00484976
0.00484974
0.00485057
0.00485358
0.00486399
0.00489609
0.00497144
0.00507396
0.00519209
0.00528486
0.00533791
0.00535288
0.00532316
0.00520943
0.00491897
0.00432749
0.0037617
0.00376149
0.0043274
0.00491871
0.00520968
0.00532657
0.00536635
0.00537572
0.00536926
0.00534419
0.00528949
0.00519669
0.00507772
0.00497383
0.00489758
0.00486507
0.00485452
0.00485146
0.00485059
0.00485058
0.00485143
0.00485447
0.00486499
0.00489747
0.00497367
0.00507747
0.00519633
0.00528847
0.00534022
0.00535407
0.00532369
0.00520963
0.00491903
0.00432748
0.00376162
0.00376146
0.0043274
0.00491872
0.00520969
0.00532659
0.00536639
0.00537577
0.00536931
0.00534427
0.00528957
0.00519679
0.00507782
0.0049739
0.00489763
0.00486509
0.00485453
0.00485146
0.00485057
0.00485055
0.00485142
0.00485448
0.00486502
0.00489752
0.00497374
0.00507757
0.00519643
0.00528856
0.0053403
0.00535414
0.00532373
0.00520967
0.00491905
0.00432748
0.00376158
0.00376146
0.00432741
0.00491873
0.00520968
0.00532654
0.00536622
0.00537532
0.00536823
0.00534211
0.00528615
0.00519276
0.00507452
0.00497183
0.00489637
0.00486417
0.00485368
0.00485062
0.00484972
0.0048497
0.00485058
0.00485364
0.0048641
0.00489626
0.00497168
0.00507429
0.00519242
0.00528515
0.00533816
0.00535308
0.0053233
0.00520952
0.00491902
0.00432749
0.00376159
0.00376151
0.00432744
0.00491873
0.00520963
0.00532635
0.00536564
0.00537369
0.00536424
0.00533387
0.00527265
0.00517643
0.00506097
0.00496321
0.0048911
0.00486034
0.00485019
0.00484714
0.00484625
0.00484623
0.00484711
0.00485015
0.00486028
0.00489101
0.00496308
0.00506076
0.00517612
0.00527168
0.00532995
0.00534911
0.00532171
0.00520899
0.00491888
0.00432749
0.00376164
0.00376158
0.00432748
0.00491872
0.00520949
0.00532585
0.00536405
0.00536903
0.00535227
0.0053081
0.00522866
0.00512172
0.00501491
0.00493371
0.00487303
0.00484731
0.00483809
0.00483498
0.00483401
0.004834
0.00483496
0.00483806
0.00484728
0.00487298
0.00493363
0.00501477
0.00512146
0.00522773
0.00530422
0.0053372
0.00531712
0.00520748
0.00491849
0.00432745
0.00376171
0.00376167
0.00432752
0.00491868
0.00520921
0.00532478
0.0053604
0.00535783
0.00532218
0.0052402
0.00510761
0.00496939
0.00488331
0.00484963
0.00482187
0.00481123
0.00480329
0.00479941
0.00479806
0.00479806
0.00479941
0.00480329
0.00481125
0.00482188
0.00484965
0.00488329
0.00496921
0.00510673
0.00523637
0.00530717
0.00530602
0.00520397
0.00491757
0.00432731
0.00376175
0.00376175
0.00432758
0.00491862
0.00520874
0.0053229
0.00535377
0.00533656
0.00526226
0.00509764
0.00484234
0.00466922
0.00458302
0.00466085
0.00471012
0.00473798
0.00472667
0.00471896
0.00471645
0.00471646
0.00471899
0.00472671
0.00473802
0.00471015
0.0046609
0.00458309
0.00466909
0.00484149
0.00509383
0.00524732
0.00528487
0.00519751
0.00491591
0.00432702
0.00376172
0.00376183
0.00432763
0.00491852
0.00520816
0.00532061
0.0053454
0.00530869
0.00518017
0.00489403
0.00448604
0.00527943
0.00412597
0.00435989
0.00453296
0.00463081
0.00460109
0.00458533
0.00458122
0.00458122
0.00458534
0.00460105
0.00463067
0.00453249
0.00435909
0.00412513
0.00527901
0.00448485
0.00489003
0.00516516
0.00525706
0.0051893
0.00491384
0.00432666
0.00376165
0.00376188
0.00432766
0.00491842
0.00520773
0.00531921
0.00534066
0.00529313
0.00513658
0.00483314
0.00552401
0.00474724
0.00411512
0.00429203
0.00437064
0.00438392
0.0043846
0.00438427
0.00438422
0.0043844
0.0043833
0.00436896
0.0042882
0.00410837
0.00473369
0.00551807
0.00482812
0.00512121
0.00524146
0.00518471
0.00491271
0.00432651
0.00376164
0.00376183
0.00432752
0.00491809
0.00520737
0.00531955
0.00534429
0.00530798
0.00518094
0.00489858
0.00449955
0.00534162
0.00416382
0.00435331
0.00448284
0.00451796
0.00453829
0.00454414
0.00454522
0.00454511
0.00454361
0.00453644
0.00451242
0.00446968
0.00433093
0.0041382
0.00530483
0.00448971
0.00489126
0.00516476
0.00525617
0.00518855
0.00491348
0.00432668
0.00376173
0.00376132
0.00432657
0.00491639
0.00520535
0.00531874
0.00534941
0.00533308
0.00526206
0.00510585
0.00486847
0.00472611
0.00465883
0.00471858
0.00474383
0.00473957
0.00473935
0.00473942
0.00473932
0.00473912
0.00473836
0.0047354
0.00472724
0.00471459
0.00467347
0.00460888
0.00468756
0.00484853
0.00509393
0.00524428
0.00528102
0.00519418
0.0049138
0.00432623
0.00376145
0.00375882
0.00432215
0.00490906
0.00519605
0.00530946
0.00534435
0.00534296
0.00531229
0.00524296
0.00513559
0.00503568
0.0049837
0.00495167
0.00492105
0.00488631
0.00487133
0.00486672
0.00486551
0.00486523
0.00486517
0.00486535
0.00486711
0.00487607
0.00489581
0.00491557
0.00498344
0.00510615
0.00522654
0.00529306
0.00529117
0.00519087
0.00490808
0.00432219
0.00375911
0.00374825
0.00430465
0.00488223
0.00516266
0.0052731
0.00530899
0.00531501
0.00530459
0.00527695
0.00523034
0.00517316
0.0051161
0.00505314
0.00500003
0.00495404
0.00493419
0.00492799
0.0049264
0.0049261
0.00492629
0.00492757
0.00493288
0.00495069
0.00499264
0.00504377
0.00511801
0.0051987
0.00525961
0.0052857
0.00526528
0.00516077
0.00488212
0.00430489
0.0037486
0.00370868
0.0042446
0.00479718
0.00506087
0.00516287
0.00519619
0.0052043
0.00520206
0.00519162
0.00517095
0.00513831
0.00509274
0.00503454
0.00497977
0.0049412
0.00492438
0.00491892
0.00491747
0.0049172
0.00491744
0.0049188
0.00492403
0.00494026
0.0049779
0.00503252
0.00509403
0.00514578
0.00517772
0.005186
0.00515992
0.00506047
0.00479744
0.00424489
0.00370903
0.00357952
0.00406919
0.00456789
0.00479742
0.0048827
0.00490967
0.00491675
0.00491709
0.00491341
0.00490448
0.00488755
0.00485988
0.00482223
0.00478513
0.00476073
0.00474985
0.00474614
0.0047451
0.0047449
0.00474511
0.00474614
0.00474981
0.00476056
0.00478478
0.00482192
0.00486041
0.00488932
0.00490484
0.00490566
0.00488188
0.00479759
0.00456822
0.00406944
0.0035798
0.00322458
0.00365751
0.00406934
0.00424496
0.00430522
0.0043229
0.00432742
0.0043281
0.004327
0.00432358
0.00431614
0.00430268
0.00428334
0.00426349
0.00425088
0.0042452
0.0042432
0.00424259
0.00424248
0.00424263
0.00424326
0.00424528
0.00425094
0.00426353
0.0042834
0.00430292
0.00431651
0.00432299
0.00432175
0.00430526
0.00424529
0.00406962
0.00365767
0.00322478
0.00251843
0.00322459
0.00357971
0.00370911
0.00374893
0.00375977
0.00376253
0.00376317
0.0037629
0.00376133
0.00375729
0.00374918
0.00373665
0.00372314
0.00371506
0.00371152
0.0037102
0.00370973
0.00370962
0.00370976
0.00371026
0.00371159
0.0037151
0.00372316
0.00373664
0.00374922
0.00375734
0.00376083
0.00375978
0.00374945
0.00370966
0.00358009
0.00322479
0.00251861
0.00278591
0.00387395
0.00445976
0.00468966
0.00476593
0.00478799
0.00479365
0.00479496
0.00479521
0.0047952
0.00479514
0.00479505
0.00479497
0.0047949
0.00479484
0.00479479
0.00479475
0.00479473
0.00479473
0.00479474
0.00479478
0.00479483
0.00479488
0.00479495
0.00479502
0.00479505
0.00479484
0.00479359
0.00478795
0.00476591
0.00468966
0.00445976
0.00387397
0.00278597
0.00387394
0.0041648
0.00460147
0.00480729
0.00488418
0.00490851
0.00491521
0.00491683
0.00491714
0.00491713
0.00491706
0.00491697
0.00491691
0.00491686
0.00491682
0.00491679
0.00491677
0.00491676
0.00491676
0.00491677
0.00491679
0.00491682
0.00491686
0.00491691
0.00491696
0.00491697
0.00491669
0.00491513
0.00490847
0.00488417
0.00480731
0.00460152
0.00416484
0.00387395
0.00445988
0.00460152
0.00505441
0.00528935
0.00538503
0.00541791
0.0054277
0.00543021
0.00543066
0.00543054
0.00543031
0.00543014
0.00543005
0.00543002
0.00543001
0.00543
0.00542998
0.00542998
0.00542998
0.00542999
0.00543
0.00543002
0.00543003
0.00543006
0.00543012
0.00543016
0.0054298
0.00542746
0.00541782
0.00538504
0.00528945
0.00505455
0.00460166
0.00445998
0.00468992
0.00480741
0.00528942
0.00554908
0.00565923
0.00569873
0.0057109
0.00571393
0.00571406
0.00571326
0.00571235
0.00571181
0.00571163
0.00571163
0.00571166
0.00571168
0.00571167
0.00571166
0.00571166
0.00571168
0.00571169
0.00571168
0.00571165
0.00571165
0.00571179
0.00571215
0.00571226
0.00570986
0.00569827
0.00565915
0.0055492
0.00528966
0.00480764
0.00469014
0.00476628
0.00488435
0.00538515
0.00565929
0.00577783
0.0058211
0.00583433
0.00583675
0.005835
0.00583149
0.00582812
0.0058264
0.00582604
0.00582615
0.00582625
0.00582633
0.00582629
0.00582625
0.00582625
0.0058263
0.00582634
0.00582627
0.00582617
0.00582606
0.00582638
0.00582788
0.00583032
0.00583017
0.00581908
0.00577713
0.00565924
0.00538538
0.00488463
0.00476659
0.00478839
0.0049087
0.00541805
0.00569881
0.00582113
0.00586574
0.00587816
0.00587728
0.00586913
0.00585694
0.00584616
0.00584154
0.00584164
0.0058425
0.00584282
0.00584326
0.00584326
0.00584315
0.00584315
0.00584327
0.00584328
0.00584285
0.00584253
0.00584167
0.00584152
0.00584591
0.00585568
0.00586398
0.00585862
0.00581834
0.00569806
0.0054181
0.00490895
0.00478873
0.00479408
0.00491539
0.00542784
0.00571099
0.0058344
0.00587826
0.00588679
0.00587634
0.00585043
0.00581452
0.00578518
0.00577446
0.00577932
0.00578383
0.00578463
0.00578708
0.00578765
0.00578751
0.00578752
0.00578766
0.0057871
0.00578467
0.00578387
0.00577936
0.00577444
0.00578491
0.0058132
0.00584513
0.00585726
0.0058259
0.00570826
0.00542729
0.00491549
0.00479434
0.00479537
0.00491699
0.00543034
0.00571405
0.00583697
0.00587778
0.00587711
0.00584477
0.00577785
0.00568795
0.00562483
0.00559482
0.00561948
0.00563653
0.0056372
0.0056479
0.00565096
0.0056511
0.0056511
0.00565098
0.00564793
0.00563724
0.0056366
0.00561955
0.00559482
0.00562454
0.00568658
0.00577246
0.00582551
0.00581581
0.00570695
0.00542847
0.00491671
0.00479541
0.00479559
0.00491727
0.00543079
0.00571431
0.00583571
0.00587097
0.00585419
0.00578297
0.00564218
0.00546329
0.00542647
0.00525161
0.00532702
0.00537816
0.00537411
0.00541002
0.0054198
0.00542095
0.00542096
0.00541982
0.00541007
0.00537417
0.00537826
0.00532715
0.00525166
0.00542613
0.00546183
0.00563666
0.00576353
0.00579262
0.00569976
0.00542667
0.00491634
0.00479516
0.00479554
0.00491724
0.00543072
0.00571383
0.00583336
0.00586212
0.00582637
0.00571
0.00549357
0.00533377
0.00709885
0.00479067
0.00491418
0.0050386
0.0050264
0.00510953
0.00513117
0.00513443
0.00513444
0.00513121
0.0051096
0.00502648
0.00503875
0.00491438
0.00479072
0.00709766
0.00533194
0.00548775
0.00569026
0.00576449
0.00569057
0.00542396
0.00491551
0.0047945
0.00479542
0.00491715
0.00543061
0.00571355
0.00583218
0.00585774
0.00581342
0.00568585
0.00555564
0.00751434
0.00552684
0.00461862
0.00481142
0.00491872
0.0049143
0.00490791
0.00490604
0.00490605
0.00490793
0.00491434
0.00491879
0.00481155
0.0046188
0.00552739
0.00750851