/*--------------------------------*- C++ -*----------------------------------*\
| =========                 |                                                 |
| \\      /  F ield         | OpenFOAM: The Open Source CFD Toolbox           |
|  \\    /   O peration     | Version:  2112                                  |
|   \\  /    A nd           | Website:  www.openfoam.com                      |
|    \\/     M anipulation  |                                                 |
\*---------------------------------------------------------------------------*/
FoamFile
{
    version     2.0;
    format      ascii;
    arch        "LSB;label=32;scalar=64";
    class       volScalarField;
    location    "1.6";
    object      k;
}
// * * * * * * * * * * * * * * * * * * * * * * * * * * * * * * * * * * * * * //

dimensions      [0 2 -2 0 0 0 0];

internalField   nonuniform List<scalar> 
64906
(
0.00138726
0.00146721
0.00150409
0.00151597
0.0015192
0.00151999
0.00152018
0.00152024
0.00152027
0.0015203
0.00152032
0.00152034
0.00152035
0.00152035
0.00152035
0.00152035
0.00152034
0.00152033
0.00152033
0.00152033
0.00152034
0.00152034
0.00152034
0.00152034
0.00152032
0.00152031
0.00152028
0.00152022
0.00152003
0.00151924
0.00151601
0.00150414
0.00146725
0.00138729
0.00146723
0.00200212
0.00222662
0.00230595
0.00233084
0.00233778
0.00233954
0.00233997
0.00234011
0.00234017
0.00234022
0.00234027
0.00234032
0.00234036
0.00234039
0.00234042
0.00234043
0.00234044
0.00234044
0.00234043
0.00234042
0.0023404
0.00234037
0.00234033
0.00234028
0.00234022
0.0023401
0.00233967
0.00233791
0.00233097
0.00230607
0.00222674
0.00200223
0.00146729
0.00150415
0.00222669
0.00254895
0.00267229
0.00271449
0.00272731
0.00273083
0.00273175
0.00273201
0.00273212
0.00273221
0.00273233
0.00273247
0.0027326
0.00273272
0.0027328
0.00273286
0.00273289
0.00273289
0.00273287
0.00273282
0.00273274
0.00273263
0.0027325
0.00273236
0.00273221
0.00273194
0.00273105
0.00272755
0.00271472
0.00267251
0.00254916
0.00222687
0.00150425
0.00151606
0.00230608
0.00267235
0.00281902
0.00287164
0.0028884
0.00289318
0.00289441
0.00289464
0.00289458
0.00289452
0.00289464
0.00289487
0.00289513
0.00289535
0.0028955
0.00289559
0.00289563
0.00289564
0.0028956
0.00289552
0.00289538
0.00289516
0.00289491
0.00289468
0.00289451
0.00289432
0.00289325
0.00288862
0.00287193
0.00281932
0.00267264
0.00230631
0.00151618
0.00151931
0.002331
0.00271459
0.00287168
0.00292939
0.00294818
0.00295355
0.00295464
0.00295421
0.00295313
0.00295218
0.00295207
0.00295242
0.0029529
0.0029533
0.0029535
0.0029536
0.00295364
0.00295365
0.00295361
0.00295353
0.00295333
0.00295294
0.00295247
0.00295212
0.00295216
0.00295282
0.00295258
0.00294795
0.00292955
0.002872
0.00271493
0.00233128
0.00151946
0.0015201
0.00233795
0.00272742
0.00288845
0.00294819
0.00296771
0.00297286
0.00297269
0.00296959
0.00296456
0.00296014
0.00295946
0.00296039
0.00296157
0.00296244
0.00296269
0.00296271
0.00296271
0.00296272
0.00296273
0.00296273
0.00296249
0.00296163
0.00296046
0.00295951
0.00296013
0.00296423
0.00296785
0.00296562
0.0029477
0.00288861
0.00272777
0.00233827
0.00152028
0.0015203
0.0023397
0.00273093
0.00289322
0.00295355
0.00297286
0.0029765
0.00297217
0.00296043
0.00294229
0.00292642
0.00292624
0.0029307
0.00293461
0.00293694
0.00293727
0.00293707
0.00293695
0.00293695
0.00293709
0.00293731
0.002937
0.00293467
0.00293078
0.00292631
0.00292642
0.00294196
0.00295867
0.00296497
0.00295094
0.00289277
0.00273116
0.00234003
0.00152049
0.00152035
0.00234011
0.00273182
0.00289442
0.00295464
0.00297276
0.00297235
0.00295711
0.00292152
0.00286437
0.00281269
0.00282502
0.00284629
0.00285972
0.00286622
0.002867
0.00286655
0.00286629
0.0028663
0.00286658
0.00286704
0.00286629
0.0028598
0.00284638
0.00282511
0.0028127
0.00286406
0.0029198
0.00294992
0.00294672
0.0028924
0.00273169
0.00234041
0.00152056
0.00152038
0.00234021
0.00273204
0.00289463
0.00295428
0.00296998
0.00296146
0.00292304
0.00283143
0.00266729
0.00249919
0.00259164
0.00267739
0.00271832
0.00273413
0.00273689
0.00273688
0.00273675
0.00273676
0.00273692
0.00273694
0.00273421
0.00271842
0.00267751
0.00259177
0.0024992
0.00266702
0.00282977
0.00291593
0.00293589
0.0028896
0.0027312
0.00234039
0.0015206
0.00152039
0.00234023
0.0027321
0.00289458
0.00295347
0.00296595
0.00294593
0.002871
0.00267439
0.00224599
0.0017067
0.00214051
0.00242098
0.00252202
0.00255218
0.00255988
0.00256159
0.00256194
0.00256195
0.00256162
0.00255993
0.00255226
0.00252213
0.00242114
0.00214072
0.00170667
0.00224578
0.00267281
0.00286398
0.00292043
0.00288559
0.00273033
0.00234024
0.00152062
0.0015204
0.00234023
0.00273215
0.00289462
0.00295313
0.00296375
0.00293614
0.00283226
0.0025257
0.00171856
0.00165749
0.00220313
0.00236906
0.00241157
0.00242096
0.00242266
0.00242292
0.00242292
0.00242268
0.00242099
0.00241162
0.00236914
0.00220329
0.00165761
0.00171847
0.00252419
0.00282527
0.00291063
0.00288334
0.0027299
0.00234014
0.00152063
0.00152039
0.00234022
0.00273225
0.00289492
0.002954
0.00296664
0.00294657
0.00287084
0.00267179
0.00223804
0.00169983
0.00210076
0.0023689
0.00246375
0.00249094
0.0024959
0.00249585
0.0024955
0.0024955
0.00249584
0.00249588
0.00249091
0.00246373
0.00236889
0.00210068
0.00169965
0.00223753
0.00267006
0.00286371
0.00292095
0.0028861
0.00273059
0.00234022
0.00152063
0.00152038
0.00234021
0.00273235
0.00289532
0.00295534
0.00297129
0.0029625
0.00292218
0.0028247
0.00264706
0.00245433
0.00250051
0.00254263
0.0025612
0.0025671
0.00256722
0.0025663
0.0025658
0.00256579
0.00256628
0.00256718
0.00256704
0.00256112
0.00254252
0.00250032
0.00245398
0.0026465
0.00282286
0.00291493
0.00293674
0.00289058
0.00273173
0.00234039
0.00152062
0.00152035
0.00234019
0.00273245
0.00289565
0.00295642
0.00297489
0.00297398
0.00295572
0.00291077
0.00283154
0.00273741
0.00268321
0.00263647
0.00261543
0.00260811
0.00260521
0.00260391
0.0026034
0.00260339
0.00260388
0.00260516
0.00260804
0.00261533
0.00263633
0.00268302
0.0027371
0.00283099
0.00290888
0.00294839
0.0029481
0.00289403
0.00273263
0.00234052
0.00152059
0.00152033
0.00234018
0.00273251
0.00289587
0.00295708
0.00297688
0.00297991
0.00297173
0.00294798
0.00290157
0.00283199
0.00275202
0.00267471
0.00263796
0.00262484
0.00262047
0.00261892
0.00261836
0.00261834
0.00261888
0.00262041
0.00262476
0.00263785
0.00267457
0.00275176
0.00283172
0.00290103
0.00294608
0.00296434
0.00295395
0.00289592
0.00273316
0.00234059
0.00152056
0.0015203
0.00234016
0.00273255
0.00289601
0.00295742
0.00297781
0.00298242
0.00297801
0.00296152
0.00292498
0.00286132
0.00277446
0.00268759
0.00264563
0.00263046
0.00262552
0.0026238
0.00262315
0.00262312
0.00262375
0.00262545
0.00263038
0.00264552
0.00268745
0.00277421
0.00286106
0.00292445
0.00295961
0.0029706
0.00295641
0.00289678
0.00273341
0.00234061
0.00152051
0.00152027
0.00234014
0.00273258
0.00289609
0.00295759
0.0029782
0.00298336
0.00298017
0.00296584
0.00293197
0.00286963
0.00278097
0.00269135
0.0026479
0.00263211
0.00262695
0.00262512
0.00262437
0.00262434
0.00262506
0.00262687
0.00263202
0.00264778
0.00269121
0.00278073
0.00286939
0.00293145
0.00296393
0.00297275
0.00295734
0.00289714
0.00273353
0.00234061
0.00152046
0.00152024
0.00234013
0.0027326
0.00289613
0.00295768
0.00297836
0.00298368
0.00298083
0.00296706
0.00293382
0.00287175
0.00278265
0.00269233
0.00264849
0.00263254
0.0026273
0.0026254
0.00262455
0.00262451
0.00262533
0.00262721
0.00263244
0.00264838
0.00269219
0.00278241
0.00287151
0.00293331
0.00296515
0.00297341
0.00295765
0.00289728
0.00273359
0.0023406
0.00152042
0.00152021
0.00234013
0.00273261
0.00289615
0.0029577
0.00297839
0.00298372
0.00298089
0.00296713
0.00293391
0.00287184
0.00278274
0.00269239
0.00264853
0.00263255
0.00262729
0.00262536
0.00262446
0.00262441
0.00262528
0.0026272
0.00263245
0.00264841
0.00269224
0.00278251
0.00287161
0.0029334
0.00296524
0.00297348
0.0029577
0.00289732
0.00273361
0.0023406
0.00152038
0.00152021
0.00234013
0.00273261
0.00289614
0.00295767
0.0029783
0.00298349
0.00298034
0.00296607
0.00293224
0.00286993
0.00278126
0.00269153
0.00264801
0.00263216
0.00262693
0.00262501
0.00262412
0.00262407
0.00262492
0.00262684
0.00263206
0.00264789
0.00269139
0.00278104
0.00286971
0.00293175
0.00296418
0.00297295
0.00295749
0.00289725
0.00273359
0.0023406
0.00152038
0.00152024
0.00234015
0.0027326
0.0028961
0.00295755
0.00297798
0.00298265
0.00297832
0.00296191
0.00292546
0.00286187
0.00277502
0.00268793
0.00264585
0.00263058
0.00262552
0.00262365
0.00262283
0.00262279
0.00262357
0.00262542
0.00263048
0.00264574
0.0026878
0.00277483
0.00286168
0.002925
0.00296005
0.00297095
0.00295667
0.00289696
0.00273352
0.00234061
0.00152042
0.00152027
0.00234017
0.00273258
0.002896
0.00295726
0.00297713
0.00298024
0.00297218
0.00294858
0.00290235
0.00283294
0.00275299
0.0026753
0.00263836
0.00262508
0.00262055
0.00261883
0.00261811
0.00261808
0.00261875
0.00262046
0.00262498
0.00263826
0.0026752
0.00275284
0.00283279
0.00290192
0.00294677
0.00296486
0.00295433
0.00289618
0.00273331
0.00234061
0.00152047
0.0015203
0.0023402
0.00273254
0.00289582
0.00295666
0.00297521
0.00297442
0.00295633
0.00291163
0.00283276
0.00273899
0.00268475
0.00263738
0.00261605
0.00260852
0.00260544
0.00260397
0.00260335
0.00260332
0.00260391
0.00260536
0.00260845
0.00261599
0.00263733
0.0026847
0.00273891
0.00283241
0.00290989
0.0029491
0.00294861
0.00289438
0.00273283
0.00234056
0.00152051
0.00152032
0.00234022
0.00273247
0.00289552
0.00295563
0.00297169
0.00296304
0.00292295
0.00282585
0.0026488
0.0024568
0.00250243
0.00254371
0.00256185
0.00256749
0.00256742
0.00256638
0.00256581
0.00256579
0.00256634
0.00256737
0.00256743
0.0025618
0.00254372
0.00250256
0.00245684
0.00264857
0.00282422
0.00291584
0.00293737
0.00289102
0.00273198
0.00234046
0.00152055
0.00152034
0.00234024
0.00273238
0.00289516
0.00295435
0.00296711
0.00294719
0.00287172
0.00267311
0.00224007
0.00170115
0.00210189
0.00236855
0.00246285
0.00248965
0.00249441
0.00249424
0.00249383
0.00249382
0.0024942
0.00249433
0.0024895
0.00246261
0.00236833
0.00210208
0.00170109
0.00223998
0.00267157
0.00286472
0.00292167
0.0028866
0.00273089
0.00234031
0.00152056
0.00152035
0.00234025
0.00273228
0.00289485
0.00295347
0.0029642
0.00293672
0.00283293
0.0025264
0.00171878
0.00165502
0.00219668
0.00236032
0.00240123
0.00240994
0.00241137
0.0024115
0.00241146
0.00241123
0.00240961
0.00240047
0.00235878
0.00219436
0.00165371
0.00171841
0.00252465
0.00282588
0.00291125
0.00288384
0.00273021
0.00234023
0.00152057
0.00152035
0.00234019
0.00273208
0.0028946
0.00295357
0.00296618
0.00294632
0.00287149
0.00267486
0.00224625
0.00170645
0.00212883
0.00239886
0.00248815
0.00251109
0.00251657
0.00251778
0.00251799
0.00251793
0.00251749
0.00251565
0.00250841
0.00248175
0.00238755
0.00211951
0.00170383
0.00224368
0.00267192
0.00286397
0.00292074
0.00288589
0.00273052
0.00234027
0.00152057
0.00152031
0.00233982
0.00273125
0.00289356
0.00295312
0.00296888
0.00296045
0.00292191
0.00282942
0.00266238
0.00248648
0.00255916
0.00261596
0.00262328
0.00262032
0.00261819
0.00261748
0.00261728
0.00261718
0.00261696
0.00261625
0.00261395
0.00260633
0.00258303
0.00252913
0.00246789
0.00265236
0.00282349
0.00291334
0.00293464
0.0028888
0.00273064
0.00234009
0.00152054
0.00152013
0.00233811
0.00272781
0.00288898
0.00294847
0.00296637
0.00296588
0.00295021
0.00291264
0.0028492
0.00278139
0.00275966
0.00272716
0.00267958
0.00265648
0.00264849
0.00264622
0.00264564
0.00264551
0.00264552
0.00264575
0.00264688
0.0026515
0.00266677
0.00270416
0.00274579
0.00283084
0.00290343
0.00294063
0.00294012
0.00288718
0.00272793
0.00233851
0.00152036
0.00151935
0.0023312
0.00271503
0.00287234
0.00293011
0.00294842
0.0029517
0.00294676
0.00293261
0.00290695
0.00287216
0.00283344
0.00277751
0.00271513
0.00268588
0.00267597
0.00267321
0.00267255
0.00267242
0.00267249
0.00267301
0.00267539
0.00268429
0.00271154
0.002772
0.00283228
0.00288643
0.00292266
0.00293731
0.00292703
0.00287212
0.00271553
0.00233166
0.00151956
0.00151612
0.0023063
0.00267283
0.00281975
0.00287256
0.00288935
0.0028936
0.00289283
0.00288788
0.0028771
0.00285826
0.00282878
0.0027858
0.00274
0.00271651
0.00270796
0.00270555
0.00270501
0.00270492
0.00270496
0.00270543
0.0027077
0.00271592
0.00273893
0.00278449
0.00282886
0.00286183
0.00288036
0.00288506
0.00287191
0.00282022
0.00267347
0.00230677
0.00151632
0.00150423
0.00222695
0.00254944
0.00267303
0.00271546
0.00272848
0.00273204
0.00273253
0.00273114
0.00272705
0.00271839
0.00270282
0.00267976
0.00265549
0.00264204
0.00263678
0.00263522
0.00263486
0.0026348
0.00263484
0.00263517
0.00263668
0.00264184
0.00265518
0.00267941
0.0027028
0.00271901
0.00272707
0.00272743
0.00271583
0.00267373
0.00255008
0.00222738
0.00150441
0.00146732
0.00200238
0.00222709
0.00230661
0.0023317
0.00233884
0.00234079
0.00234132
0.00234121
0.00234018
0.00233744
0.00233192
0.00232346
0.00231433
0.00230898
0.00230674
0.00230602
0.00230583
0.0023058
0.00230583
0.00230602
0.00230673
0.00230895
0.00231427
0.00232338
0.0023319
0.00233747
0.00233986
0.00233913
0.00233234
0.00230725
0.0022276
0.00200272
0.00146747
0.00138734
0.00146736
0.00150433
0.00151631
0.00151963
0.00152053
0.00152084
0.00152103
0.00152119
0.00152129
0.00152124
0.0015209
0.0015202
0.00151932
0.00151876
0.00151847
0.00151831
0.0015182
0.00151816
0.00151821
0.00151832
0.00151847
0.00151874
0.00151929
0.00152015
0.00152083
0.00152117
0.00152118
0.00152091
0.00152
0.00151662
0.00150458
0.00146753
0.00138744
0.00195389
0.00231224
0.00248455
0.00254703
0.00256649
0.00257183
0.00257314
0.00257345
0.00257352
0.00257354
0.00257354
0.00257353
0.00257353
0.00257351
0.0025735
0.00257349
0.00257348
0.00257348
0.00257347
0.00257348
0.00257349
0.0025735
0.00257351
0.00257352
0.00257352
0.00257351
0.00257346
0.00257316
0.00257185
0.00256651
0.00254706
0.00248458
0.00231226
0.00195392
0.00231224
0.00411453
0.00474622
0.00499029
0.00507585
0.00510236
0.00510963
0.00511138
0.0051117
0.00511166
0.00511152
0.00511138
0.00511126
0.00511116
0.00511108
0.00511102
0.00511098
0.00511095
0.00511095
0.00511098
0.00511102
0.00511109
0.00511116
0.00511126
0.00511136
0.00511143
0.00511117
0.00510949
0.00510228
0.0050758
0.00499026
0.00474619
0.00411451
0.00231227
0.00248461
0.00474636
0.00557492
0.00591702
0.00604606
0.00608924
0.00610202
0.00610533
0.00610594
0.00610581
0.00610554
0.00610535
0.00610527
0.00610527
0.00610529
0.00610529
0.00610528
0.00610528
0.00610528
0.00610529
0.0061053
0.0061053
0.00610529
0.00610529
0.00610533
0.00610535
0.00610485
0.00610176
0.00608916
0.0060461
0.00591711
0.00557501
0.00474644
0.00248469
0.00254714
0.00499053
0.00591714
0.00631479
0.00647108
0.00652561
0.00654232
0.00654651
0.00654674
0.00654569
0.00654449
0.00654382
0.00654365
0.00654374
0.00654388
0.00654392
0.00654391
0.0065439
0.00654391
0.00654393
0.00654395
0.00654391
0.00654377
0.00654368
0.00654381
0.00654423
0.00654432
0.00654098
0.00652505
0.006471
0.00631491
0.00591732
0.00499069
0.00254726
0.00256663
0.00507613
0.00604624
0.00647115
0.00664178
0.00670245
0.00672089
0.0067243
0.00672188
0.00671693
0.00671214
0.0067098
0.00670927
0.00670957
0.00670997
0.00670999
0.00670984
0.00670975
0.00670976
0.00670986
0.00671002
0.00671001
0.00670962
0.00670932
0.00670979
0.00671183
0.00671531
0.00671514
0.00669969
0.00664084
0.00647104
0.00604641
0.00507633
0.00256678
0.00257198
0.00510265
0.00608943
0.0065257
0.00670249
0.00676532
0.0067827
0.0067814
0.00676967
0.00675172
0.00673544
0.00672914
0.00672876
0.00673031
0.00673165
0.00673153
0.00673096
0.00673061
0.00673062
0.00673098
0.00673157
0.0067317
0.00673037
0.00672882
0.00672914
0.00673511
0.00674998
0.00676246
0.00675529
0.00669857
0.0065246
0.00608935
0.00510281
0.00257216
0.00257331
0.0051099
0.0061022
0.00654242
0.00672097
0.00678281
0.00679463
0.00677933
0.00674073
0.00668459
0.00663556
0.00662454
0.00663005
0.00663765
0.0066425
0.00664235
0.00664091
0.00664007
0.00664008
0.00664094
0.00664239
0.00664256
0.00663772
0.00663013
0.00662456
0.00663524
0.00668283
0.00673337
0.00675265
0.00670892
0.00653854
0.00610132
0.00510987
0.00257349
0.00257361
0.00511161
0.00610548
0.00654664
0.00672455
0.00678202
0.00678032
0.00673165
0.00662588
0.00646769
0.00633006
0.00633264
0.00637211
0.00640203
0.0064174
0.00641846
0.0064162
0.00641486
0.00641487
0.00641623
0.00641851
0.00641747
0.00640212
0.00637221
0.00633269
0.00632977
0.00646597
0.00661852
0.00670483
0.00669412
0.00653659
0.0061028
0.00511113
0.00257376
0.00257366
0.00511187
0.00610607
0.00654701
0.00672274
0.00677203
0.00674551
0.00663206
0.00638208
0.00596793
0.00557022
0.00571169
0.00588846
0.00598358
0.00602255
0.00602976
0.00602893
0.00602793
0.00602794
0.00602896
0.00602982
0.00602263
0.00598369
0.00588861
0.00571181
0.00556997
0.00596629
0.00637478
0.00660523
0.00665915
0.00652619
0.00610029
0.0051106
0.00257374
0.00257366
0.00511178
0.00610599
0.00654636
0.00671934
0.00675853
0.00669972
0.00649312
0.00599509
0.00495553
0.00327298
0.00455329
0.00518729
0.00542609
0.00550077
0.00552431
0.00552944
0.00553014
0.00553015
0.00552947
0.00552436
0.00550085
0.00542623
0.00518752
0.00455361
0.00327275
0.00495399
0.00598781
0.00646621
0.00661319
0.00651241
0.00609651
0.00510952
0.00257361
0.00257364
0.00511162
0.00610586
0.00654599
0.00671757
0.00675119
0.00667288
0.00640091
0.00567077
0.00334117
0.00301451
0.00460554
0.00499564
0.00510562
0.00513059
0.00513473
0.00513512
0.00513512
0.00513474
0.00513061
0.00510567
0.00499576
0.00460582
0.00301473
0.00334007
0.00566339
0.00637382
0.00658611
0.00650478
0.00609436
0.00510874
0.00257351
0.0025736
0.00511146
0.0061059
0.00654652
0.00671962
0.00675853
0.00669836
0.00648782
0.00598071
0.004922
0.00323096
0.00441956
0.0050299
0.00525991
0.00534015
0.00534497
0.00534111
0.00533921
0.0053392
0.00534107
0.0053449
0.00534008
0.00525983
0.00502983
0.00441937
0.00323036
0.00491995
0.00597314
0.00646068
0.00661151
0.00651192
0.00609607
0.00510881
0.00257351
0.00257357
0.00511134
0.00610605
0.00654752
0.00672352
0.00677218
0.00674257
0.00661989
0.00634739
0.00588505
0.00539853
0.00540852
0.00546351
0.00549879
0.00551528
0.00551273
0.0055089
0.00550718
0.00550717
0.00550886
0.00551267
0.00551518
0.00549865
0.00546328
0.00540813
0.00539779
0.00588297
0.00633978
0.00659271
0.00665564
0.00652538
0.00609965
0.0051094
0.00257355
0.00257352
0.00511124
0.0061062
0.00654842
0.00672688
0.00678344
0.00677692
0.00671357
0.00657137
0.00633613
0.00606144
0.00587096
0.00571364
0.00564268
0.00561924
0.00561029
0.00560668
0.00560544
0.00560544
0.00560665
0.00561024
0.00561916
0.00564253
0.00571341
0.00587063
0.00606081
0.00633409
0.00656373
0.00668632
0.00668988
0.00653644
0.00610269
0.00510992
0.00257357
0.00257348
0.00511115
0.00610629
0.00654899
0.00672892
0.00678997
0.00679581
0.00676174
0.00667629
0.00652218
0.00630322
0.00605738
0.005824
0.00570847
0.00566719
0.00565444
0.00565071
0.00564972
0.00564971
0.00565069
0.0056544
0.00566712
0.00570834
0.0058238
0.00605714
0.00630266
0.00652018
0.00666863
0.00673442
0.00670864
0.00654278
0.00610448
0.0051102
0.00257355
0.00257344
0.00511108
0.00610633
0.00654928
0.00672992
0.006793
0.00680413
0.00678183
0.00671734
0.00658966
0.00638541
0.00612268
0.00586406
0.00573275
0.00568496
0.00567062
0.0056668
0.00566589
0.00566589
0.00566678
0.0056706
0.0056849
0.00573262
0.00586387
0.00612247
0.00638489
0.00658768
0.00670966
0.00675447
0.00671687
0.00654567
0.00610531
0.00511029
0.00257351
0.0025734
0.00511103
0.00610634
0.00654942
0.00673036
0.0067942
0.00680725
0.00678898
0.00673118
0.00661122
0.00641049
0.00614265
0.00587649
0.00574034
0.00569053
0.00567568
0.00567182
0.00567094
0.00567093
0.0056718
0.00567566
0.00569048
0.00574022
0.00587631
0.00614245
0.00640998
0.00660925
0.00672351
0.00676159
0.00671994
0.0065468
0.00610563
0.00511031
0.00257346
0.00257337
0.00511101
0.00610635
0.00654948
0.00673052
0.00679462
0.00680823
0.00679111
0.00673512
0.00661708
0.00641705
0.00614785
0.00587976
0.00574236
0.00569202
0.00567703
0.00567314
0.00567226
0.00567226
0.00567313
0.005677
0.00569196
0.00574224
0.00587959
0.00614765
0.00641655
0.00661512
0.00672744
0.00676371
0.00672091
0.00654718
0.00610575
0.0051103
0.00257343
0.00257336
0.005111
0.00610635
0.0065495
0.00673055
0.00679466
0.00680828
0.00679117
0.0067352
0.00661717
0.00641715
0.00614794
0.00587986
0.00574242
0.00569206
0.00567705
0.00567316
0.00567228
0.00567227
0.00567315
0.00567703
0.00569201
0.00574231
0.00587969
0.00614775
0.00641665
0.00661522
0.00672753
0.00676379
0.00672096
0.00654722
0.00610576
0.0051103
0.00257341
0.00257336
0.00511102
0.00610636
0.00654947
0.00673044
0.00679432
0.0068074
0.00678918
0.00673143
0.00661151
0.00641079
0.00614295
0.00587681
0.00574057
0.00569069
0.0056758
0.00567192
0.00567102
0.00567101
0.0056719
0.00567578
0.00569064
0.00574047
0.00587665
0.00614278
0.00641031
0.00660957
0.00672379
0.00676182
0.00672011
0.00654691
0.00610568
0.0051103
0.00257341
0.00257338
0.00511106
0.00610636
0.00654937
0.00673007
0.0067932
0.0068044
0.00678219
0.00671779
0.00659022
0.00638604
0.00612331
0.00586472
0.00573326
0.00568536
0.00567097
0.00566713
0.0056662
0.0056662
0.00566712
0.00567097
0.00568533
0.00573318
0.00586459
0.00612317
0.00638559
0.00658832
0.00671019
0.00675487
0.00671717
0.00654586
0.0061054
0.00511028
0.00257343
0.00257342
0.00511113
0.00610634
0.00654912
0.00672913
0.00679027
0.00679621
0.00676229
0.00667704
0.00652317
0.00630441
0.0060586
0.00582524
0.0057095
0.00566808
0.00565529
0.00565156
0.00565056
0.00565057
0.00565157
0.0056553
0.00566809
0.00570948
0.00582518
0.00605852
0.00630402
0.00652133
0.0066695
0.00673506
0.00670908
0.00654306
0.00610461
0.00511018
0.00257346
0.00257346
0.00511121
0.00610627
0.00654859
0.00672716
0.00678384
0.00677747
0.00671435
0.00657252
0.0063378
0.00606365
0.00587315
0.0057157
0.00564443
0.00562084
0.00561191
0.00560835
0.00560716
0.00560717
0.0056084
0.00561198
0.00562093
0.0056445
0.00571576
0.0058732
0.00606336
0.00633605
0.00656507
0.00668723
0.00669048
0.00653681
0.00610286
0.0051099
0.00257348
0.0025735
0.0051113
0.00610613
0.00654773
0.00672385
0.00677266
0.00674325
0.00662089
0.00634897
0.00588762
0.00540235
0.00541215
0.00546597
0.00550063
0.00551692
0.00551446
0.00551074
0.00550912
0.00550914
0.00551082
0.00551457
0.00551705
0.00550073
0.00546608
0.0054124
0.00540222
0.00588601
0.0063416
0.00659385
0.00665638
0.00652583
0.00609984
0.00510937
0.00257345
0.00257353
0.0051114
0.00610595
0.00654671
0.00671996
0.00675903
0.00669907
0.00648886
0.00598238
0.0049251
0.00323418
0.00442171
0.00502855
0.00525692
0.00533635
0.00534101
0.00533722
0.00533541
0.00533544
0.00533728
0.00534102
0.00533615
0.00525629
0.00502765
0.00442178
0.00323397
0.00492358
0.00597482
0.00646167
0.00661219
0.00651236
0.00609625
0.00510874
0.0025734
0.00257356
0.00511146
0.00610575
0.00654597
0.00671765
0.00675141
0.00667323
0.00640133
0.00567113
0.0033407
0.00300421
0.00458301
0.00496489
0.00506941
0.00509268
0.00509653
0.00509689
0.00509684
0.0050963
0.00509188
0.0050671
0.00495959
0.00457427
0.00299795
0.00333794
0.00566223
0.00637343
0.00658616
0.00650489
0.00609434
0.00510854
0.00257339
0.00257353
0.00511122
0.00610511
0.00654526
0.00671816
0.00675736
0.00669851
0.00649151
0.00599225
0.00494985
0.00326178
0.00450328
0.00510477
0.0053082
0.00536091
0.00537881
0.00538344
0.00538428
0.00538413
0.00538269
0.00537611
0.00535258
0.00528744
0.00506709
0.0044655
0.00324529
0.00493622
0.00597843
0.00646174
0.00661104
0.00651117
0.00609562
0.00510884
0.00257344
0.00257326
0.00510958
0.00610199
0.00654154
0.00671647
0.00676535
0.00673834
0.00662332
0.00636853
0.00594119
0.00551062
0.00558782
0.00567592
0.00567398
0.00565759
0.00565108
0.00564909
0.00564847
0.00564817
0.00564753
0.00564513
0.00563797
0.00562163
0.00557554
0.00548757
0.00544117
0.00590243
0.00634421
0.00658989
0.00665024
0.00652011
0.00609607
0.00510813
0.00257329
0.00257196
0.00510241
0.0060894
0.00652547
0.00670042
0.00675636
0.0067534
0.00670171
0.00658691
0.00640435
0.00621005
0.00610579
0.00598705
0.00584392
0.00577041
0.00574444
0.00573702
0.00573517
0.00573476
0.00573476
0.0057354
0.00573922
0.00575607
0.00581037
0.00593732
0.00609445
0.00634057
0.00655182
0.00666486
0.00666564
0.00651436
0.00608647
0.0051017
0.00257208
0.00256663
0.00507595
0.00604635
0.00647138
0.00664137
0.0066991
0.00670853
0.00668939
0.00664005
0.00655547
0.00644194
0.00631043
0.00613779
0.00595464
0.00586265
0.00582989
0.00582041
0.00581806
0.00581761
0.0058179
0.00581983
0.00582811
0.00585793
0.00594495
0.00612657
0.00631535
0.00648529
0.0066025
0.00665302
0.00662456
0.00646635
0.00604519
0.00507568
0.00256679
0.00254716
0.00499039
0.00591734
0.00631526
0.00647151
0.00652505
0.00653828
0.00653315
0.0065125
0.00647152
0.00640377
0.00630289
0.00616614
0.00602767
0.00595324
0.00592475
0.00591591
0.00591357
0.00591312
0.00591354
0.00591578
0.00592431
0.00595201
0.00602536
0.00616415
0.00630622
0.0064167
0.00648265
0.00650254
0.00646394
0.0063133
0.00591703
0.00499032
0.00254732
0.00248466
0.00474627
0.00557517
0.00591758
0.00604679
0.00608978
0.00610144
0.00610127
0.0060932
0.00607442
0.00603888
0.00598028
0.0058995
0.0058185
0.00577195
0.00575274
0.00574634
0.00574452
0.00574417
0.00574456
0.00574639
0.00575275
0.0057718
0.00581816
0.0058994
0.00598165
0.00604217
0.00607504
0.00607989
0.00604384
0.00591703
0.00557519
0.00474624
0.0024848
0.00231231
0.0041145
0.00474649
0.00499082
0.00507656
0.00510314
0.00511017
0.00511088
0.00510822
0.00510106
0.00508628
0.00506036
0.00502375
0.0049865
0.00496407
0.00495426
0.00495077
0.00494969
0.00494948
0.00494976
0.00495091
0.00495446
0.00496428
0.00498672
0.00502406
0.00506102
0.00508711
0.0051002
0.00509973
0.00507574
0.0049908
0.00474656
0.00411445
0.00231241
0.00195396
0.00231231
0.00248475
0.00254737
0.00256695
0.00257241
0.00257383
0.00257414
0.00257396
0.0025731
0.00257094
0.00256671
0.00256027
0.0025534
0.00254927
0.00254746
0.00254678
0.00254655
0.00254649
0.00254656
0.00254681
0.00254749
0.0025493
0.00255341
0.00256027
0.00256674
0.00257097
0.00257284
0.00257235
0.00256718
0.00254762
0.00248494
0.00231241
0.00195406
0.00209204
0.00261844
0.00288405
0.00298691
0.00302144
0.00303165
0.00303435
0.00303498
0.00303511
0.00303511
0.00303508
0.00303503
0.003035
0.00303496
0.00303494
0.00303491
0.0030349
0.00303489
0.00303489
0.00303489
0.00303491
0.00303493
0.00303496
0.00303499
0.00303502
0.00303503
0.00303493
0.00303431
0.00303164
0.00302143
0.0029869
0.00288405
0.00261845
0.00209207
0.00261844
0.00495556
0.00578949
0.0061305
0.00625822
0.00630064
0.00631307
0.00631624
0.00631681
0.00631669
0.00631639
0.00631607
0.00631581
0.0063156
0.00631544
0.00631531
0.00631522
0.00631517
0.00631517
0.00631522
0.00631531
0.00631543
0.00631559
0.00631578
0.00631601
0.00631616
0.00631569
0.00631267
0.00630035
0.00625801
0.00613033
0.00578934
0.00495544
0.00261844
0.0028841
0.00578965
0.00686042
0.00732434
0.00751013
0.00757637
0.00759722
0.00760286
0.00760384
0.00760344
0.00760272
0.00760211
0.00760173
0.00760153
0.00760143
0.00760134
0.00760126
0.00760121
0.00760121
0.00760126
0.00760134
0.00760144
0.00760154
0.00760172
0.00760202
0.00760229
0.00760156
0.00759637
0.00757591
0.00750993
0.00732427
0.00686039
0.00578964
0.00288415
0.00298702
0.0061308
0.00732449
0.00785994
0.00808273
0.00816532
0.00819213
0.00819907
0.00819924
0.00819705
0.00819444
0.00819256
0.00819157
0.00819122
0.00819114
0.008191
0.00819083
0.00819074
0.00819074
0.00819084
0.00819101
0.00819116
0.00819124
0.00819157
0.00819246
0.00819385
0.00819443
0.0081891
0.00816378
0.00808213
0.00785981
0.00732452
0.00613086
0.00298712
0.0030216
0.00625858
0.00751036
0.00808283
0.00832591
0.00841762
0.00844697
0.00845243
0.00844803
0.0084392
0.00843011
0.00842423
0.00842143
0.00842067
0.00842062
0.00842019
0.00841965
0.00841935
0.00841935
0.00841966
0.00842021
0.00842065
0.0084207
0.00842145
0.00842411
0.00842941
0.0084361
0.00843619
0.008412
0.00832358
0.00808211
0.00751027
0.00625865
0.00302173
0.00303183
0.00630102
0.00757664
0.00816548
0.00841769
0.0085126
0.00854003
0.00853772
0.00851852
0.0084893
0.00846115
0.00844535
0.00843909
0.0084382
0.00843877
0.00843756
0.00843599
0.00843513
0.00843514
0.00843601
0.00843759
0.00843881
0.00843825
0.00843911
0.00844524
0.0084604
0.00848595
0.00850581
0.0084947
0.00841004
0.00816283
0.00757596
0.00630095
0.00303197
0.00303454
0.00631344
0.00759749
0.00819233
0.00844719
0.00854032
0.00855875
0.00853484
0.00847581
0.00839109
0.00831283
0.00827895
0.00827083
0.00827358
0.00827759
0.00827494
0.00827124
0.0082693
0.00826931
0.00827126
0.00827498
0.00827764
0.00827364
0.00827088
0.00827885
0.00831207
0.00838767
0.00846276
0.00849074
0.00842602
0.00818474
0.00759525
0.00631294
0.00303464
0.00303517
0.00631657
0.00760314
0.00819941
0.00845313
0.0085392
0.00853697
0.00846464
0.00831239
0.00808986
0.0078872
0.00784098
0.00785341
0.00787552
0.00789116
0.00788738
0.0078809
0.00787769
0.0078777
0.00788092
0.00788742
0.00789122
0.00787559
0.00785347
0.00784091
0.00788648
0.00808647
0.00829926
0.00842016
0.0084032
0.0081815
0.00759762
0.00631515
0.00303515
0.00303528
0.0063171
0.00760418
0.00820002
0.00845016
0.00852368
0.00848559
0.00832461
0.00798377
0.0074359
0.00689413
0.00695274
0.00709261
0.00717976
0.00721991
0.00722276
0.0072175
0.0072146
0.00721461
0.00721752
0.00722279
0.00721997
0.00717984
0.00709271
0.00695276
0.00689348
0.00743259
0.00797061
0.00827989
0.00835131
0.00816508
0.00759335
0.00631417
0.00303503
0.00303526
0.00631697
0.007604
0.00819885
0.00844466
0.00850339
0.00842097
0.00813912
0.00748921
0.0061677
0.0039546
0.00534673
0.00600356
0.00624391
0.00630073
0.00634471
0.00635419
0.00635512
0.00635513
0.00635421
0.00634474
0.00630078
0.00624403
0.00600377
0.005347
0.00395409
0.00616451
0.00747588
0.00809402
0.00828614
0.00814413
0.0075871
0.00631226
0.00303471
0.00303521
0.00631671
0.00760373
0.00819812
0.00844173
0.00849255
0.0083844
0.00802173
0.0070915
0.00411324
0.00332993
0.00496896
0.00536591
0.00548244
0.00550238
0.00550392
0.00550357
0.00550358
0.00550394
0.00550242
0.00548251
0.00536605
0.00496925
0.00333015
0.00411074
0.00707787
0.00797618