/*--------------------------------*- C++ -*----------------------------------*\
| =========                 |                                                 |
| \\      /  F ield         | OpenFOAM: The Open Source CFD Toolbox           |
|  \\    /   O peration     | Version:  2112                                  |
|   \\  /    A nd           | Website:  www.openfoam.com                      |
|    \\/     M anipulation  |                                                 |
\*---------------------------------------------------------------------------*/
FoamFile
{
    version     2.0;
    format      ascii;
    arch        "LSB;label=32;scalar=64";
    class       volScalarField;
    location    "1.6";
    object      nut;
}
// * * * * * * * * * * * * * * * * * * * * * * * * * * * * * * * * * * * * * //

dimensions      [0 2 -1 0 0 0 0];

internalField   nonuniform List<scalar> 
64906
(
8.87986e-05
9.15815e-05
9.28891e-05
9.33284e-05
9.34543e-05
9.34868e-05
9.34948e-05
9.34972e-05
9.34983e-05
9.34992e-05
9.34999e-05
9.35005e-05
9.35008e-05
9.3501e-05
9.35009e-05
9.35007e-05
9.35004e-05
9.35e-05
9.34998e-05
9.35e-05
9.35003e-05
9.35005e-05
9.35005e-05
9.35004e-05
9.35e-05
9.34994e-05
9.34984e-05
9.34962e-05
9.34881e-05
9.34557e-05
9.33297e-05
9.28904e-05
9.15829e-05
8.87997e-05
9.15822e-05
0.000107741
0.000114067
0.000116338
0.000117086
0.000117307
0.000117366
0.000117381
0.000117385
0.000117387
0.000117389
0.00011739
0.000117391
0.000117392
0.000117393
0.000117393
0.000117394
0.000117394
0.000117394
0.000117394
0.000117394
0.000117393
0.000117392
0.000117391
0.00011739
0.000117388
0.000117384
0.000117369
0.000117311
0.00011709
0.000116342
0.000114071
0.000107744
9.15844e-05
9.28912e-05
0.00011407
0.0001226
0.000125871
0.000127038
0.000127413
0.000127521
0.00012755
0.000127558
0.00012756
0.000127562
0.000127565
0.000127568
0.000127571
0.000127574
0.000127576
0.000127578
0.000127578
0.000127578
0.000127578
0.000127577
0.000127575
0.000127572
0.000127569
0.000127565
0.000127561
0.000127554
0.000127526
0.000127418
0.000127044
0.000125877
0.000122605
0.000114074
9.28946e-05
9.33315e-05
0.000116342
0.000125873
0.000129677
0.000131096
0.000131573
0.000131716
0.000131754
0.00013176
0.000131756
0.000131752
0.000131753
0.000131758
0.000131764
0.000131769
0.000131773
0.000131775
0.000131776
0.000131776
0.000131775
0.000131773
0.00013177
0.000131765
0.000131759
0.000131754
0.000131751
0.000131747
0.000131715
0.000131576
0.000131102
0.000129684
0.00012588
0.000116349
9.33359e-05
9.34581e-05
0.000117091
0.000127041
0.000131097
0.000132646
0.000133178
0.000133338
0.00013337
0.000133355
0.000133321
0.000133289
0.00013328
0.000133286
0.000133297
0.000133306
0.000133311
0.000133313
0.000133314
0.000133314
0.000133313
0.000133312
0.000133307
0.000133298
0.000133287
0.000133281
0.000133288
0.000133309
0.000133302
0.000133166
0.000132647
0.000131104
0.000127049
0.000117098
9.34633e-05
9.34908e-05
0.000117312
0.000127416
0.000131574
0.000133179
0.00013373
0.000133882
0.000133876
0.000133783
0.000133637
0.000133507
0.000133474
0.00013349
0.000133517
0.000133539
0.000133544
0.000133543
0.000133542
0.000133543
0.000133544
0.000133545
0.00013354
0.000133518
0.000133491
0.000133476
0.000133506
0.000133625
0.000133726
0.00013366
0.000133157
0.000131575
0.000127423
0.00011732
9.34969e-05
9.34989e-05
0.000117371
0.000127524
0.000131718
0.000133338
0.000133883
0.000133989
0.000133863
0.000133532
0.000133038
0.000132607
0.000132563
0.000132653
0.000132746
0.000132806
0.000132813
0.000132806
0.000132801
0.000132801
0.000132806
0.000132814
0.000132807
0.000132748
0.000132655
0.000132565
0.000132606
0.000133026
0.000133474
0.000133642
0.000133251
0.000131697
0.000127527
0.000117379
9.35056e-05
9.35012e-05
0.000117385
0.000127552
0.000131755
0.000133371
0.00013388
0.000133869
0.000133446
0.000132492
0.000131009
0.00012968
0.000129891
0.000130369
0.000130696
0.000130863
0.000130882
0.000130868
0.00013086
0.00013086
0.000130869
0.000130883
0.000130865
0.000130698
0.000130371
0.000129893
0.00012968
0.000130998
0.000132435
0.000133224
0.000133128
0.000131685
0.000127542
0.000117392
9.35083e-05
9.35021e-05
0.000117388
0.000127559
0.00013176
0.000133359
0.000133798
0.000133566
0.000132539
0.000130172
0.000126005
0.000121712
0.000123856
0.00012592
0.00012694
0.000127351
0.000127423
0.000127421
0.000127416
0.000127417
0.000127422
0.000127424
0.000127353
0.000126942
0.000125924
0.00012386
0.000121712
0.000125994
0.000130116
0.000132319
0.000132825
0.000131602
0.000127526
0.00011739
9.35094e-05
9.35025e-05
0.000117389
0.00012756
0.000131758
0.000133334
0.000133684
0.000133153
0.00013121
0.000126218
0.000115046
9.96347e-05
0.000111842
0.000119178
0.00012178
0.000122576
0.000122786
0.000122833
0.000122842
0.000122843
0.000122834
0.000122787
0.000122578
0.000121783
0.000119182
0.000111848
9.96336e-05
0.000115037
0.000126164
0.000130991
0.000132412
0.000131487
0.000127498
0.000117385
9.35098e-05
9.35026e-05
0.000117389
0.000127561
0.000131758
0.000133324
0.000133624
0.000132903
0.000130257
0.000122509
0.000100059
9.79184e-05
0.000113336
0.000117711
0.000118845
0.000119107
0.000119156
0.000119164
0.000119164
0.000119157
0.000119107
0.000118846
0.000117713
0.000113341
9.79223e-05
0.000100055
0.000122455
0.000130037
0.00013216
0.000131424
0.000127485
0.000117381
9.35099e-05
9.35023e-05
0.000117389
0.000127564
0.000131766
0.000133347
0.0001337
0.000133165
0.000131196
0.00012613
0.000114785
9.93712e-05
0.000110566
0.000117603
0.000120052
0.000120765
0.00012091
0.000120914
0.000120906
0.000120905
0.000120914
0.00012091
0.000120764
0.000120052
0.000117603
0.000110564
9.9365e-05
0.000114768
0.000126071
0.000130973
0.00013242
0.000131498
0.000127504
0.000117384
9.35099e-05
9.35018e-05
0.000117388
0.000127567
0.000131778
0.000133385
0.000133828
0.000133583
0.000132493
0.000129946
0.000125368
0.000120318
0.000121163
0.000122059
0.000122484
0.000122628
0.000122634
0.000122611
0.000122598
0.000122598
0.00012261
0.000122633
0.000122626
0.000122482
0.000122056
0.000121158
0.000120307
0.00012535
0.000129885
0.000132269
0.000132837
0.000131623
0.000127539
0.00011739
9.35096e-05
9.3501e-05
0.000117388
0.00012757
0.000131788
0.000133417
0.000133931
0.000133899
0.000133374
0.000132134
0.000130003
0.000127461
0.000125845
0.000124488
0.000123876
0.000123663
0.000123582
0.000123547
0.000123533
0.000123533
0.000123546
0.000123581
0.000123661
0.000123873
0.000124484
0.00012584
0.000127452
0.000129985
0.000132072
0.000133149
0.00013315
0.000131723
0.000127567
0.000117395
9.35088e-05
9.35e-05
0.000117387
0.000127572
0.000131794
0.000133437
0.000133991
0.000134069
0.000133813
0.000133114
0.000131797
0.000129859
0.000127633
0.000125508
0.000124479
0.000124106
0.000123982
0.000123938
0.000123923
0.000123923
0.000123937
0.00012398
0.000124104
0.000124476
0.000125504
0.000127626
0.000129851
0.000131779
0.000133053
0.000133587
0.000133319
0.00013178
0.000127583
0.000117397
9.35075e-05
9.34989e-05
0.000117387
0.000127573
0.000131798
0.000133447
0.000134019
0.000134143
0.000133994
0.000133488
0.000132422
0.000130631
0.000128239
0.000125866
0.000124693
0.000124262
0.00012412
0.000124072
0.000124055
0.000124054
0.000124071
0.000124119
0.000124259
0.00012469
0.000125862
0.000128233
0.000130624
0.000132404
0.000133426
0.000133766
0.000133392
0.000131807
0.000127592
0.000117398
9.35059e-05
9.34978e-05
0.000117386
0.000127574
0.000131801
0.000133453
0.000134031
0.000134172
0.000134058
0.000133612
0.000132617
0.000130861
0.000128422
0.000125975
0.000124759
0.000124309
0.000124162
0.000124111
0.00012409
0.000124089
0.000124109
0.00012416
0.000124307
0.000124756
0.000125971
0.000128416
0.000130854
0.0001326
0.00013355
0.00013383
0.00013342
0.000131818
0.000127595
0.000117398
9.35042e-05
9.34968e-05
0.000117386
0.000127574
0.000131802
0.000133455
0.000134035
0.000134182
0.000134078
0.000133648
0.000132671
0.000130922
0.000128471
0.000126004
0.000124777
0.000124322
0.000124172
0.000124119
0.000124096
0.000124095
0.000124117
0.00012417
0.000124319
0.000124774
0.000126
0.000128465
0.000130915
0.000132654
0.000133586
0.00013385
0.00013343
0.000131822
0.000127597
0.000117398
9.35026e-05
9.34959e-05
0.000117386
0.000127574
0.000131802
0.000133455
0.000134036
0.000134183
0.000134079
0.00013365
0.000132673
0.000130924
0.000128474
0.000126006
0.000124778
0.000124322
0.000124172
0.000124118
0.000124094
0.000124093
0.000124116
0.000124169
0.00012432
0.000124775
0.000126002
0.000128467
0.000130917
0.000132656
0.000133588
0.000133852
0.000133431
0.000131823
0.000127598
0.000117398
9.35014e-05
9.34959e-05
0.000117386
0.000127574
0.000131802
0.000133454
0.000134033
0.000134175
0.000134062
0.000133618
0.000132624
0.000130869
0.00012843
0.00012598
0.000124762
0.000124311
0.000124161
0.000124108
0.000124084
0.000124083
0.000124105
0.000124159
0.000124308
0.000124759
0.000125976
0.000128424
0.000130862
0.000132608
0.000133557
0.000133835
0.000133424
0.000131821
0.000127597
0.000117398
9.35014e-05
9.34968e-05
0.000117387
0.000127574
0.000131801
0.000133451
0.000134023
0.000134149
0.000134001
0.000133498
0.000132434
0.000130646
0.000128254
0.000125875
0.000124699
0.000124265
0.000124121
0.000124069
0.000124047
0.000124046
0.000124067
0.000124118
0.000124262
0.000124696
0.000125872
0.000128249
0.00013064
0.000132418
0.000133437
0.000133775
0.000133399
0.000131812
0.000127594
0.000117399
9.35028e-05
9.34979e-05
0.000117387
0.000127573
0.000131798
0.000133442
0.000133997
0.000134077
0.000133825
0.00013313
0.000131817
0.000129884
0.000127659
0.000125524
0.00012449
0.000124112
0.000123984
0.000123936
0.000123917
0.000123916
0.000123935
0.000123982
0.00012411
0.000124487
0.000125522
0.000127655
0.000129879
0.000131802
0.00013307
0.0001336
0.000133328
0.000131787
0.000127587
0.000117398
9.35044e-05
9.34989e-05
0.000117388
0.000127572
0.000131792
0.000133423
0.00013394
0.00013391
0.00013339
0.000132156
0.000130034
0.000127503
0.000125885
0.000124513
0.000123893
0.000123675
0.000123589
0.000123549
0.000123532
0.000123532
0.000123547
0.000123587
0.000123673
0.000123891
0.000124512
0.000125883
0.0001275
0.000130022
0.000132098
0.000133167
0.000133163
0.000131732
0.000127572
0.000117396
9.35059e-05
9.34999e-05
0.000117389
0.00012757
0.000131783
0.000133393
0.000133839
0.000133597
0.000132513
0.000129976
0.000125415
0.000120387
0.000121217
0.000122088
0.000122501
0.000122637
0.000122638
0.000122612
0.000122597
0.000122597
0.000122611
0.000122637
0.000122635
0.000122499
0.000122088
0.00012122
0.000120387
0.000125406
0.000129921
0.000132293
0.000132853
0.000131634
0.000127545
0.000117392
9.3507e-05
9.35006e-05
0.000117389
0.000127567
0.000131772
0.000133356
0.000133712
0.000133181
0.000131218
0.000126165
0.000114845
9.94158e-05
0.0001106
0.00011759
0.000120021
0.000120721
0.000120861
0.000120861
0.000120851
0.000120851
0.00012086
0.000120858
0.000120716
0.000120013
0.000117582
0.000110605
9.94133e-05
0.00011484
0.000126111
0.000130999
0.000132438
0.00013151
0.000127512
0.000117386
9.35075e-05
9.35009e-05
0.000117389
0.000127564
0.000131764
0.000133331
0.000133635
0.000132917
0.000130273
0.000122527
0.000100067
9.78266e-05
0.000113126
0.000117433
0.000118518
0.00011876
0.000118802
0.000118806
0.000118805
0.000118798
0.00011875
0.000118495
0.000117384
0.00011305
9.77773e-05
0.000100051
0.000122464
0.000130049
0.000132174
0.000131436
0.000127492
0.000117384
9.35078e-05
9.35008e-05
0.000117387
0.000127558
0.000131756
0.000133333
0.000133686
0.000133159
0.000131218
0.000126224
0.000115043
9.96122e-05
0.000111444
0.00011848
0.000120749
0.000121337
0.000121483
0.000121517
0.000121523
0.000121521
0.000121508
0.000121455
0.000121256
0.000120557
0.000118137
0.000111136
9.95106e-05
0.00011495
0.000126123
0.00013098
0.000132414
0.000131491
0.000127501
0.000117385
9.35078e-05
9.34992e-05
0.000117374
0.000127531
0.000131723
0.000133318
0.000133757
0.000133526
0.000132493
0.000130094
0.000125831
0.000121286
0.00012285
0.000124105
0.0001242
0.000124089
0.000124023
0.000124002
0.000123996
0.000123993
0.000123986
0.000123966
0.000123905
0.000123717
0.000123172
0.000121968
0.000120711
0.000125518
0.000129904
0.000132224
0.000132776
0.000131569
0.000127504
0.000117378
9.35066e-05
9.34916e-05
0.000117316
0.000127425
0.000131586
0.00013318
0.00013368
0.000133665
0.000133224
0.000132205
0.000130527
0.00012872
0.000127971
0.000126981
0.00012566
0.000125011
0.000124783
0.000124717
0.000124701
0.000124697
0.000124697
0.000124704
0.000124737
0.000124875
0.000125329
0.000126428
0.000127701
0.000129985
0.00013192
0.000132926
0.000132917
0.000131519
0.000127421
0.000117326
9.34991e-05
9.34594e-05
0.000117096
0.000127052
0.000131113
0.000132661
0.000133175
0.000133268
0.000133118
0.000132708
0.000131984
0.000131002
0.000129879
0.000128322
0.000126621
0.000125807
0.000125525
0.000125444
0.000125424
0.00012542
0.000125422
0.000125438
0.000125508
0.000125763
0.000126527
0.00012819
0.000129877
0.000131384
0.000132403
0.000132825
0.000132553
0.000131096
0.000127061
0.000117108
9.34666e-05
9.33333e-05
0.000116348
0.000125885
0.000129695
0.000131118
0.000131593
0.000131716
0.000131687
0.000131531
0.000131204
0.000130644
0.000129786
0.000128576
0.000127309
0.000126647
0.0001264
0.000126329
0.000126312
0.000126309
0.000126311
0.000126325
0.000126393
0.000126631
0.00012728
0.000128545
0.000129797
0.000130746
0.000131295
0.000131444
0.000131085
0.000129701
0.0001259
0.000116361
9.33401e-05
9.28937e-05
0.000114077
0.000122613
0.00012589
0.000127063
0.000127442
0.000127549
0.00012756
0.000127509
0.000127373
0.000127098
0.000126621
0.000125938
0.000125233
0.000124836
0.000124678
0.000124629
0.000124617
0.000124615
0.000124617
0.000124628
0.000124675
0.000124831
0.000125224
0.00012593
0.000126624
0.000127118
0.000127374
0.000127395
0.000127065
0.000125907
0.00012263
0.000114089
9.28999e-05
9.15853e-05
0.000107749
0.000114081
0.000116357
0.00011711
0.000117337
0.0001174
0.000117416
0.000117408
0.000117368
0.000117268
0.000117079
0.000116798
0.000116502
0.000116327
0.000116253
0.000116228
0.000116221
0.00011622
0.000116222
0.000116228
0.000116252
0.000116326
0.000116501
0.000116796
0.000117079
0.00011727
0.000117357
0.000117338
0.000117126
0.000116375
0.000114095
0.000107759
9.15906e-05
8.88013e-05
9.15866e-05
9.28976e-05
9.33403e-05
9.34697e-05
9.3506e-05
9.35183e-05
9.35251e-05
9.35298e-05
9.35321e-05
9.35277e-05
9.35111e-05
9.34804e-05
9.34435e-05
9.34201e-05
9.34083e-05
9.34021e-05
9.33981e-05
9.33964e-05
9.33984e-05
9.34023e-05
9.34082e-05
9.34196e-05
9.34423e-05
9.34786e-05
9.35088e-05
9.35252e-05
9.3528e-05
9.35187e-05
9.34824e-05
9.33512e-05
9.29062e-05
9.15926e-05
8.88051e-05
0.000136438
0.000149229
0.000155218
0.000157443
0.000158171
0.000158382
0.000158437
0.000158451
0.000158454
0.000158454
0.000158454
0.000158454
0.000158454
0.000158453
0.000158453
0.000158452
0.000158452
0.000158452
0.000158452
0.000158452
0.000158452
0.000158452
0.000158453
0.000158453
0.000158453
0.000158453
0.000158451
0.000158438
0.000158383
0.000158172
0.000157444
0.000155219
0.00014923
0.000136439
0.000149229
0.000416594
0.000498255
0.000528059
0.000538699
0.000542134
0.000543115
0.000543358
0.000543399
0.000543386
0.00054336
0.000543332
0.000543309
0.00054329
0.000543274
0.000543262
0.000543254
0.000543249
0.000543249
0.000543254
0.000543262
0.000543274
0.000543289
0.000543308
0.000543329
0.000543344
0.000543313
0.000543082
0.00054211
0.00053868
0.000528043
0.00049824
0.000416583
0.00014923
0.00015522
0.000498275
0.000612405
0.0006569
0.000673912
0.000679825
0.000681648
0.000682133
0.000682219
0.000682191
0.000682138
0.000682097
0.000682075
0.000682065
0.000682061
0.000682057
0.000682052
0.000682049
0.000682049
0.000682053
0.000682058
0.000682063
0.000682067
0.000682076
0.000682093
0.000682106
0.000682038
0.000681588
0.000679796
0.000673902
0.000656896
0.000612401
0.000498273
0.000155222
0.000157447
0.00052809
0.000656914
0.000709226
0.00073007
0.00073762
0.000740027
0.000740644
0.000740667
0.00074049
0.000740285
0.000740154
0.000740097
0.000740089
0.000740096
0.000740092
0.000740082
0.000740077
0.000740077
0.000740084
0.000740094
0.000740099
0.000740093
0.0007401
0.000740148
0.000740239
0.000740271
0.000739787
0.000737504
0.00073003
0.000709219
0.000656916
0.000528094
0.000157451
0.000158176
0.000538734
0.000673933
0.000730078
0.000752955
0.000761399
0.00076406
0.000764555
0.000764175
0.000763413
0.000762654
0.000762224
0.000762063
0.000762055
0.000762086
0.000762063
0.000762024
0.000762002
0.000762002
0.000762026
0.000762067
0.00076209
0.00076206
0.000762066
0.000762218
0.000762599
0.00076315
0.000763139
0.000760931
0.000752769
0.000730025
0.000673926
0.000538738
0.000158181
0.000158388
0.000542169
0.000679848
0.000737632
0.000761404
0.000770166
0.000772664
0.000772459
0.000770727
0.000768096
0.000765642
0.000764511
0.000764205
0.000764293
0.000764437
0.000764357
0.000764229
0.000764159
0.000764159
0.000764231
0.000764361
0.000764443
0.000764299
0.00076421
0.000764505
0.000765583
0.000767814
0.000769615
0.000768599
0.000760753
0.000737415
0.000679794
0.000542163
0.000158394
0.000158443
0.000543148
0.000681669
0.00074004
0.000764073
0.000772684
0.000774362
0.000772151
0.000766661
0.000758713
0.000751511
0.00074952
0.000749614
0.000750333
0.000750948
0.000750746
0.000750424
0.00075026
0.000750261
0.000750427
0.000750751
0.000750954
0.000750341
0.000749621
0.000749517
0.000751454
0.000758429
0.000765525
0.000768201
0.000762205
0.000739392
0.000681486
0.000543109
0.000158449
0.000158456
0.000543385
0.000682152
0.000740664
0.000764601
0.000772566
0.000772313
0.000765474
0.000750802
0.000728635
0.00070787
0.000708771
0.000712914
0.000716265
0.000718346
0.000718002
0.000717414
0.000717139
0.00071714
0.000717416
0.000718006
0.000718353
0.000716273
0.000712922
0.000708771
0.00070782
0.00072836
0.000749671
0.000761503
0.000760078
0.000739093
0.00068169
0.000543276
0.00015846
0.000158459
0.000543421
0.000682239
0.000740716
0.000764327
0.000771118
0.000767418
0.000751738
0.000717097
0.00065663
0.000586821
0.000621453
0.000646082
0.000657799
0.000663157
0.000663078
0.000662493
0.000662234
0.000662235
0.000662496
0.000663082
0.000663164
0.000657807
0.000646094
0.000621463
0.000586784
0.000656379
0.000715985
0.000747773
0.000755161
0.000737586
0.000681313
0.000543192
0.000158459
0.000158459
0.000543405
0.000682223
0.000740613
0.000763821
0.000769193
0.000761047
0.000732345
0.000660201
0.000490784
0.000179685
0.000444866
0.000549973
0.000581923
0.000591783
0.000593573
0.000593787
0.000593781
0.000593781
0.000593789
0.000593576
0.000591789
0.000581935
0.000549997
0.000444911
0.000179676
0.000490582
0.000659114
0.00072838
0.00074877
0.000735624
0.000680756
0.000543031
0.000158453
0.000158458
0.000543378
0.0006822
0.00074055
0.000763552
0.000768135
0.000757176
0.000717963
0.000598889
0.000181848
0.000171477
0.000462147
0.000520724
0.000533698
0.000537133
0.000537871
0.00053798
0.000537981
0.000537872
0.000537135
0.000533703
0.000520737
0.000462182
0.000171484
0.000181804
0.000597833
0.000713986
0.000744872
0.000734529
0.000680441
0.000542914
0.000158449
0.000158456
0.000543354
0.000682203
0.000740619
0.000763831
0.000769138
0.000760753
0.00073143
0.000657966
0.000486263
0.000178214
0.000426152
0.00052213
0.00054904
0.000553906
0.000558459
0.000559555
0.000559659
0.000559657
0.000559551
0.000558452
0.000553896
0.000549028
0.000522122
0.000426138
0.000178193
0.00048599
0.000656841
0.000727435
0.000748438
0.000735508
0.000680675
0.000542917
0.000158449
0.000158455
0.000543335
0.000682225
0.000740763
0.000764383
0.000771033
0.000766794
0.000749621
0.000711504
0.000643977
0.000562087
0.000574769
0.000576604
0.0005779
0.000577918
0.000578773
0.000578915
0.000578866
0.000578864
0.000578911
0.000578765
0.000577906
0.000577881
0.000576575
0.000574722
0.000561996
0.000643674
0.000710353
0.000745612
0.000754467
0.000737382
0.000681185
0.000542996
0.000158452
0.000158454
0.000543319
0.000682246
0.000740893
0.00076487
0.000772632
0.000771536
0.00076228
0.000741802
0.00070761
0.00066566
0.000635495
0.000606023
0.000594433
0.000590784
0.000589874
0.00058959
0.000589493
0.000589493
0.000589588
0.000589869
0.000590775
0.000594416
0.000605997
0.000635461
0.000665582
0.000707307
0.00074064
0.000758257
0.000759191
0.000738952
0.00068163
0.000543069
0.000158453
0.000158452
0.000543306
0.000682259
0.000740977
0.000765171
0.000773581
0.000774206
0.000768881
0.000755836
0.000732336
0.000698302
0.000658638
0.000618854
0.000601928
0.000596385
0.000594827
0.000594418
0.000594322
0.000594322
0.000594418
0.000594824
0.000596379
0.000601915
0.000618833
0.000658623
0.000698233
0.000732036
0.000754667
0.000764845
0.000761843
0.000739876
0.000681897
0.000543109
0.000158453
0.000158451
0.000543296
0.000682264
0.00074102
0.00076532
0.00077403
0.000775414
0.000771708
0.000761424
0.000741279
0.00070899
0.000666722
0.000623617
0.000604774
0.000598484
0.000596708
0.00059627
0.000596182
0.000596183
0.00059627
0.000596707
0.00059848
0.000604762
0.000623598
0.000666712
0.000708926
0.00074098
0.000760253
0.000767664
0.000763037
0.000740307
0.000682022
0.000543124
0.000158452
0.000158449
0.000543289
0.000682266
0.000741039
0.000765384
0.000774211
0.000775876
0.00077274
0.000763362
0.000744197
0.000712282
0.000669245
0.000625147
0.000605701
0.000599169
0.000597328
0.000596886
0.000596804
0.000596805
0.000596887
0.000597328
0.000599166
0.000605691
0.000625129
0.000669236
0.000712219
0.000743899
0.00076219
0.000768692
0.000763491
0.000740476
0.000682071
0.000543127
0.000158451
0.000158448
0.000543285
0.000682266
0.000741046
0.000765407
0.000774272
0.000776022
0.000773053
0.000763925
0.000745008
0.00071316
0.000669915
0.000625563
0.000605956
0.000599358
0.0005975
0.000597059
0.000596981
0.000596981
0.00059706
0.000597501
0.000599355
0.000605946
0.000625546
0.000669906
0.000713098
0.00074471
0.000762752
0.000769004
0.000763635
0.000740532
0.000682088
0.000543126
0.00015845
0.000158448
0.000543285
0.000682267
0.000741048
0.00076541
0.000774276
0.000776028
0.00077306
0.000763933
0.000745016
0.000713168
0.000669922
0.000625575
0.000605964
0.000599363
0.000597504
0.000597063
0.000596986
0.000596987
0.000597065
0.000597505
0.000599361
0.000605954
0.000625558
0.000669914
0.000713107
0.00074472
0.000762761
0.000769011
0.000763641
0.000740536
0.000682089
0.000543125
0.000158449
0.000158448
0.000543287
0.000682268
0.000741044
0.000765393
0.000774223
0.000775892
0.000772761
0.000763387
0.000744225
0.000712308
0.000669271
0.000625186
0.000605729
0.000599189
0.000597346
0.000596905
0.000596826
0.000596827
0.000596907
0.000597347
0.000599188
0.000605721
0.000625172
0.000669264
0.000712248
0.00074393
0.000762218
0.000768716
0.000763509
0.000740487
0.000682076
0.000543124
0.000158449
0.000158449
0.000543293
0.000682267
0.000741029
0.000765336
0.000774052
0.000775442
0.000771745
0.000761471
0.000741334
0.000709048
0.000666779
0.000623699
0.000604838
0.000598537
0.000596759
0.000596324
0.00059624
0.000596242
0.000596327
0.000596762
0.000598538
0.000604833
0.000623688
0.000666774
0.000708991
0.000741043
0.000760307
0.000767706
0.000763068
0.000740326
0.00068203
0.00054312
0.00015845
0.00015845
0.000543301
0.000682264
0.00074099
0.000765194
0.000773613
0.000774249
0.000768938
0.000755913
0.000732436
0.000698419
0.000658755
0.000619008
0.000602059
0.000596504
0.000594946
0.000594545
0.000594455
0.000594457
0.00059455
0.000594953
0.00059651
0.000602061
0.000619005
0.000658756
0.000698367
0.000732153
0.000754759
0.000764912
0.000761889
0.000739905
0.000681909
0.000543104
0.000158451
0.000158451
0.000543312
0.000682252
0.000740911
0.000764899
0.000772674
0.000771594
0.000762362
0.000741922
0.000707786
0.000665898
0.000635727
0.000606279
0.000594658
0.000591002
0.000590099
0.000589829
0.000589742
0.000589745
0.000589838
0.000590113
0.000591018
0.000594671
0.00060629
0.000635741
0.000665859
0.000707517
0.000740783
0.000758353
0.000759255
0.000738991
0.000681646
0.000543061
0.00015845
0.000158453
0.000543326
0.000682231
0.000740783
0.000764417
0.000771083
0.000766865
0.000749726
0.000711673
0.000644269
0.000562553
0.000575216
0.000576915
0.000578144
0.000578154
0.000579019
0.000579183
0.00057915
0.000579154
0.000579197
0.000579039
0.000578174
0.00057816
0.000576932
0.000575259
0.000562542
0.000644029
0.000710553
0.000745732
0.000754543
0.000737427
0.000681203
0.000542985
0.000158449
0.000158454
0.00054334
0.000682205
0.000740635
0.000763862
0.000769185
0.000760823
0.000731535
0.000658148
0.000486642
0.000178314
0.000426478
0.00052198
0.000548685
0.000553444
0.000557992
0.000559117
0.00055924
0.000559244
0.000559127
0.000558
0.00055342
0.000548612
0.000521887
0.000426579
0.000178305
0.000486471
0.000657023
0.000727526
0.000748498
0.000735547
0.000680687
0.000542897
0.000158446
0.000158455
0.00054335
0.000682175
0.000740528
0.000763539
0.000768133
0.000757185
0.000717976
0.000598897
0.000181829
0.000171104
0.000459368
0.000516892
0.000529192
0.000532443
0.000533166
0.000533281
0.000533277
0.000533141
0.000532351
0.000528913
0.000516248
0.00045837
0.000170881
0.000181724
0.000597638
0.000713866
0.000744825
0.00073451
0.000680418
0.000542872
0.000158445
0.000158453
0.000543316
0.000682077
0.00074042
0.000763604
0.000768965
0.000760799
0.000732026
0.000659709
0.000490069
0.000179258
0.000438337
0.000538736
0.000565699
0.000572502
0.000573749
0.000573999
0.000574042
0.000574023
0.000573905
0.000573407
0.000571425
0.000562933
0.000533555
0.000433681
0.00017868
0.000488442
0.000657652
0.000727599
0.000748363
0.000735385
0.000680596
0.000542916
0.000158446
0.000158441
0.000543087
0.000681614
0.000739864
0.000763336
0.000770047
0.000766251
0.000750306
0.000714913
0.000652525
0.000578282
0.000603185
0.000614475
0.000610786
0.000607809
0.000606439
0.000606001
0.000605881
0.000605844
0.000605803
0.000605666
0.000605174
0.000603285
0.000598655
0.00058804
0.000568435
0.000646686
0.000711124
0.000745269
0.000753701
0.000736607
0.000680651
0.000542821
0.00015844
0.000158387
0.000542117
0.00067982
0.000737552
0.00076102
0.00076873
0.000768254
0.000760907
0.000744781
0.000718789
0.000689246
0.000673248
0.000651502
0.000624588
0.000613303
0.000609664
0.000608666
0.000608424
0.000608373
0.00060838
0.000608494
0.000609084
0.00061154
0.000620618
0.00064543
0.000670783
0.000708607
0.000739182
0.000755297
0.000755744
0.000735777
0.0006793
0.000541963
0.000158389
0.000158176
0.000538689
0.000673925
0.000730068
0.000752822
0.000760789
0.000762068
0.000759212
0.000751974
0.000739469
0.000721971
0.000700521
0.000670974
0.000638236
0.000624411
0.000619937
0.000618699
0.000618399
0.000618342
0.000618379
0.000618629
0.000619722
0.00062383
0.000637103
0.000669765
0.000701352
0.000728125
0.000745945
0.000753663
0.000750127
0.000729199
0.000673679
0.000538603
0.000158181
0.000157448
0.00052805
0.000656916
0.000709251
0.000730066
0.000737438
0.000739277
0.000738436
0.000735251
0.000728928
0.000718279
0.000702053
0.000679688
0.000656647
0.00064553
0.00064155
0.000640348
0.000640029
0.000639969
0.000640027
0.000640336
0.0006415
0.000645386
0.000656392
0.000679522
0.000702617
0.000720137
0.000730481
0.000733797
0.000728776
0.000708866
0.000656812
0.000527999
0.000157453
0.000155222
0.000498241
0.000612411
0.000656936
0.000673956
0.000679819
0.000681443
0.000681357
0.000680066
0.00067711
0.000671529
0.000662308
0.000649568
0.000636752
0.000629817
0.000627064
0.000626159
0.0006259
0.000625849
0.000625907
0.000626169
0.000627071
0.000629807
0.000636726
0.000649588
0.00066254
0.000672016
0.000677199
0.000678168
0.000673413
0.000656791
0.000612372
0.000498204
0.000155226
0.000149232
0.000416574
0.000498268
0.000528096
0.000538749
0.000542178
0.000543106
0.000543171
0.000542743
0.000541652
0.000539445
0.000535631
0.000530293
0.00052489
0.000521724
0.000520358
0.00051987
0.000519717
0.000519687
0.000519729
0.000519893
0.000520389
0.000521759
0.000524931
0.000530352
0.000535741
0.000539576
0.000541542
0.000541598
0.000538569
0.00052805
0.000498249
0.000416544
0.000149236
0.000136441
0.000149232
0.000155225
0.000157455
0.000158187
0.000158403
0.000158461
0.000158472
0.000158462
0.000158421
0.000158326
0.000158147
0.000157882
0.000157605
0.000157438
0.000157364
0.000157336
0.000157327
0.000157325
0.000157328
0.000157337
0.000157365
0.000157439
0.000157606
0.000157882
0.000158148
0.000158328
0.000158411
0.000158394
0.000158193
0.000157463
0.000155231
0.000149236
0.000136445
0.000141389
0.000159285
0.000167856
0.000171216
0.000172394
0.000172762
0.000172865
0.00017289
0.000172896
0.000172896
0.000172894
0.000172893
0.000172891
0.00017289
0.000172889
0.000172888
0.000172888
0.000172887
0.000172887
0.000172888
0.000172888
0.000172889
0.00017289
0.000172891
0.000172892
0.000172892
0.000172888
0.000172863
0.000172761
0.000172394
0.000171216
0.000167856
0.000159285
0.00014139
0.000159285
0.000530681
0.00065558
0.000703615
0.000721694
0.000727884
0.000729764
0.000730255
0.000730342
0.000730314
0.000730256
0.000730195
0.000730143
0.000730102
0.000730071
0.000730046
0.000730028
0.000730019
0.000730019
0.000730028
0.000730045
0.000730069
0.000730099
0.000730138
0.000730183
0.000730215
0.000730149
0.000729683
0.000727824
0.000721646
0.000703572
0.00065554
0.000530652
0.000159285
0.000167857
0.000655611
0.000838058
0.000912803
0.000942647
0.000953525
0.000957052
0.00095803
0.000958198
0.000958118
0.000957977
0.000957855
0.000957773
0.00095773
0.000957706
0.000957685
0.000957667
0.000957658
0.000957658
0.000957667
0.000957685
0.000957707
0.00095773
0.00095777
0.000957837
0.000957896
0.000957776
0.000956881
0.000953427
0.000942594
0.000912769
0.000838026
0.000655588
0.000167859
0.00017122
0.000703663
0.000912827
0.00100198
0.00103896
0.00105296
0.00105762
0.00105886
0.00105888
0.00105846
0.00105795
0.00105757
0.00105734
0.00105725
0.00105723
0.00105719
0.00105715
0.00105712
0.00105713
0.00105715
0.00105719
0.00105723
0.00105726
0.00105734
0.00105755
0.00105784
0.00105797
0.00105703
0.00105264
0.00103883
0.00100193
0.000912796
0.000703645
0.000171223
0.000172399
0.000721751
0.000942685
0.00103898
0.0010798
0.00109551
0.00110066
0.00110163
0.00110081