/*--------------------------------*- C++ -*----------------------------------*\
| =========                 |                                                 |
| \\      /  F ield         | OpenFOAM: The Open Source CFD Toolbox           |
|  \\    /   O peration     | Version:  2112                                  |
|   \\  /    A nd           | Website:  www.openfoam.com                      |
|    \\/     M anipulation  |                                                 |
\*---------------------------------------------------------------------------*/
FoamFile
{
    version     2.0;
    format      ascii;
    arch        "LSB;label=32;scalar=64";
    class       volScalarField;
    location    "1.6";
    object      p;
}
// * * * * * * * * * * * * * * * * * * * * * * * * * * * * * * * * * * * * * //

dimensions      [0 2 -2 0 0 0 0];

internalField   nonuniform List<scalar> 
64906
(
-9.04248e-06
-9.02077e-06
-9.02017e-06
-9.04468e-06
-9.09875e-06
-9.18289e-06
-9.29712e-06
-9.44093e-06
-9.61208e-06
-9.80706e-06
-1.00173e-05
-1.02347e-05
-1.04443e-05
-1.0638e-05
-1.08059e-05
-1.09434e-05
-1.10464e-05
-1.11135e-05
-1.11436e-05
-1.1137e-05
-1.10948e-05
-1.10191e-05
-1.09139e-05
-1.07842e-05
-1.06398e-05
-1.0489e-05
-1.03466e-05
-1.02206e-05
-1.01193e-05
-1.00459e-05
-1.00023e-05
-9.98746e-06
-9.99616e-06
-1.00198e-05
-8.98345e-06
-8.8727e-06
-8.80786e-06
-8.77704e-06
-8.78704e-06
-8.83266e-06
-8.90832e-06
-9.0102e-06
-9.13399e-06
-9.27635e-06
-9.42791e-06
-9.58382e-06
-9.73019e-06
-9.86461e-06
-9.97969e-06
-1.00749e-05
-1.01479e-05
-1.01988e-05
-1.02274e-05
-1.02338e-05
-1.02186e-05
-1.0182e-05
-1.01264e-05
-1.00525e-05
-9.96791e-06
-9.87485e-06
-9.78774e-06
-9.71183e-06
-9.65839e-06
-9.63397e-06
-9.64763e-06
-9.7062e-06
-9.80351e-06
-9.93586e-06
-8.97596e-06
-8.81765e-06
-8.70065e-06
-8.62597e-06
-8.60325e-06
-8.62379e-06
-8.67915e-06
-8.76467e-06
-8.87588e-06
-9.0115e-06
-9.15888e-06
-9.31486e-06
-9.45355e-06
-9.57682e-06
-9.67624e-06
-9.75693e-06
-9.81823e-06
-9.86251e-06
-9.89008e-06
-9.90108e-06
-9.89552e-06
-9.87129e-06
-9.82935e-06
-9.76467e-06
-9.68605e-06
-9.59152e-06
-9.50818e-06
-9.44009e-06
-9.40371e-06
-9.40624e-06
-9.46058e-06
-9.57651e-06
-9.74127e-06
-9.94397e-06
-9.02946e-06
-8.83047e-06
-8.67089e-06
-8.56057e-06
-8.5144e-06
-8.52282e-06
-8.57668e-06
-8.67332e-06
-8.81085e-06
-8.99406e-06
-9.2039e-06
-9.43778e-06
-9.63419e-06
-9.80012e-06
-9.92279e-06
-1.00177e-05
-1.00859e-05
-1.0133e-05
-1.016e-05
-1.01669e-05
-1.01533e-05
-1.01137e-05
-1.00474e-05
-9.93924e-06
-9.80267e-06
-9.63052e-06
-9.48683e-06
-9.37503e-06
-9.32011e-06
-9.32571e-06
-9.40501e-06
-9.56599e-06
-9.78681e-06
-1.00456e-05
-9.15341e-06
-8.92037e-06
-8.73046e-06
-8.59774e-06
-8.54258e-06
-8.55644e-06
-8.63221e-06
-8.7736e-06
-8.98672e-06
-9.29134e-06
-9.66029e-06
-1.00952e-05
-1.04436e-05
-1.07246e-05
-1.09195e-05
-1.10648e-05
-1.1163e-05
-1.12251e-05
-1.12521e-05
-1.12442e-05
-1.12006e-05
-1.11106e-05
-1.09723e-05
-1.07493e-05
-1.0462e-05
-1.00905e-05
-9.79259e-06
-9.56552e-06
-9.44475e-06
-9.42114e-06
-9.50238e-06
-9.68995e-06
-9.95128e-06
-1.02567e-05
-9.34706e-06
-9.07743e-06
-8.86486e-06
-8.72047e-06
-8.6696e-06
-8.70551e-06
-8.82547e-06
-9.0446e-06
-9.38527e-06
-9.89851e-06
-1.05555e-05
-1.13895e-05
-1.20168e-05
-1.2503e-05
-1.28259e-05
-1.30638e-05
-1.32192e-05
-1.33106e-05
-1.33384e-05
-1.33028e-05
-1.32036e-05
-1.3022e-05
-1.27568e-05
-1.23295e-05
-1.17653e-05
-1.09965e-05
-1.04189e-05
-9.99075e-06
-9.75309e-06
-9.66784e-06
-9.72968e-06
-9.92945e-06
-1.02229e-05
-1.05766e-05
-9.61316e-06
-9.28395e-06
-9.05812e-06
-8.91048e-06
-8.87521e-06
-8.94799e-06
-9.13176e-06
-9.45705e-06
-9.97204e-06
-1.07878e-05
-1.18765e-05
-1.34698e-05
-1.45354e-05
-1.53259e-05
-1.58322e-05
-1.62056e-05
-1.64451e-05
-1.65808e-05
-1.66105e-05
-1.65341e-05
-1.63538e-05
-1.60392e-05
-1.55922e-05
-1.48612e-05
-1.38609e-05
-1.23315e-05
-1.13381e-05
-1.06153e-05
-1.02137e-05
-1.00383e-05
-1.00629e-05
-1.02647e-05
-1.0587e-05
-1.10026e-05
-9.92876e-06
-9.5436e-06
-9.3015e-06
-9.1565e-06
-9.14917e-06
-9.27589e-06
-9.54393e-06
-9.99521e-06
-1.07095e-05
-1.18597e-05
-1.34629e-05
-1.65252e-05
-1.81673e-05
-1.93705e-05
-2.01304e-05
-2.06987e-05
-2.10614e-05
-2.12628e-05
-2.12957e-05
-2.11596e-05
-2.08616e-05
-2.03561e-05
-1.96577e-05
-1.85133e-05
-1.6938e-05
-1.39267e-05
-1.24562e-05
-1.14018e-05
-1.08087e-05
-1.05224e-05
-1.04911e-05
-1.06829e-05
-1.1023e-05
-1.15408e-05
-1.02782e-05
-9.84837e-06
-9.58407e-06
-9.44668e-06
-9.48076e-06
-9.68086e-06
-1.00537e-05
-1.06419e-05
-1.15216e-05
-1.30191e-05
-1.50255e-05
-2.09528e-05
-2.29656e-05
-2.46138e-05
-2.56718e-05
-2.64605e-05
-2.69661e-05
-2.72451e-05
-2.72827e-05
-2.70783e-05
-2.66457e-05
-2.59261e-05
-2.4933e-05
-2.33391e-05
-2.13972e-05
-1.54857e-05
-1.37059e-05
-1.22773e-05
-1.15216e-05
-1.111e-05
-1.10035e-05
-1.11741e-05
-1.15385e-05
-1.21556e-05
-1.06602e-05
-1.0181e-05
-9.89773e-06
-9.78052e-06
-9.8833e-06
-1.02014e-05
-1.07417e-05
-1.15007e-05
-1.26057e-05
-1.50945e-05
-1.29715e-05
-2.60882e-05
-2.8357e-05
-3.0735e-05
-3.22494e-05
-3.33886e-05
-3.41221e-05
-3.45166e-05
-3.45604e-05
-3.42527e-05
-3.36043e-05
-3.25446e-05
-3.11015e-05
-2.8775e-05
-2.66072e-05
-1.33105e-05
-1.58342e-05
-1.3405e-05
-1.24474e-05
-1.18739e-05
-1.163e-05
-1.17442e-05
-1.21285e-05
-1.28284e-05
-1.10605e-05
-1.05245e-05
-1.02227e-05
-1.01324e-05
-1.03227e-05
-1.07979e-05
-1.15495e-05
-1.24579e-05
-1.33595e-05
-1.09593e-05
-3.87761e-05
-3.58246e-05
-3.74025e-05
-3.90566e-05
-4.04507e-05
-4.13926e-05
-4.18835e-05
-4.19344e-05
-4.15446e-05
-4.0702e-05
-3.94015e-05
-3.78287e-05
-3.62983e-05
-3.91662e-05
-1.21581e-05
-1.43873e-05
-1.35141e-05
-1.27613e-05
-1.2327e-05
-1.235e-05
-1.27454e-05
-1.35427e-05
-1.14649e-05
-1.08702e-05
-1.0555e-05
-1.05077e-05
-1.08292e-05
-1.15808e-05
-1.29082e-05
-1.50586e-05
-1.86932e-05
-2.37039e-05
-3.56082e-05
-3.54728e-05
-3.96685e-05
-4.32076e-05
-4.61156e-05
-4.82668e-05
-4.96202e-05
-5.02843e-05
-5.03421e-05
-4.97939e-05
-4.85573e-05
-4.65239e-05
-4.37361e-05
-4.03219e-05
-3.62594e-05
-3.66893e-05
-2.46556e-05
-1.96899e-05
-1.61283e-05
-1.41584e-05
-1.31884e-05
-1.30099e-05
-1.33806e-05
-1.42774e-05
-1.18518e-05
-1.11972e-05
-1.08622e-05
-1.08395e-05
-1.12469e-05
-1.21624e-05
-1.37544e-05
-1.62447e-05
-1.99945e-05
-2.48042e-05
-3.27642e-05
-3.76656e-05
-4.2733e-05
-4.71876e-05
-5.08504e-05
-5.34309e-05
-5.50317e-05
-5.58082e-05
-5.58712e-05
-5.52213e-05
-5.3749e-05
-5.12993e-05
-4.77709e-05
-4.34444e-05
-3.84924e-05
-3.37478e-05
-2.58237e-05
-2.10288e-05
-1.73483e-05
-1.50517e-05
-1.38536e-05
-1.35821e-05
-1.39665e-05
-1.49721e-05
-1.22077e-05
-1.14983e-05
-1.11424e-05
-1.11339e-05
-1.16001e-05
-1.26229e-05
-1.4372e-05
-1.70615e-05
-2.10176e-05
-2.61898e-05
-3.3005e-05
-3.88916e-05
-4.48764e-05
-4.99959e-05
-5.41299e-05
-5.69596e-05
-5.86946e-05
-5.95251e-05
-5.95919e-05
-5.88956e-05
-5.72974e-05
-5.46076e-05
-5.0618e-05
-4.5635e-05
-3.97828e-05
-3.39917e-05
-2.72143e-05
-2.20687e-05
-1.81949e-05
-1.57179e-05
-1.43997e-05
-1.40856e-05
-1.44981e-05
-1.56024e-05
-1.25187e-05
-1.17609e-05
-1.13812e-05
-1.13719e-05
-1.18629e-05
-1.29309e-05
-1.47354e-05
-1.74812e-05
-2.14645e-05
-2.66754e-05
-3.31617e-05
-3.95627e-05
-4.60845e-05
-5.15116e-05
-5.58397e-05
-5.87556e-05
-6.05304e-05
-6.1373e-05
-6.14424e-05
-6.07393e-05
-5.91067e-05
-5.63356e-05
-5.21569e-05
-4.68697e-05
-4.04827e-05
-3.41585e-05
-2.7715e-05
-2.25374e-05
-1.86473e-05
-1.61326e-05
-1.47927e-05
-1.44886e-05
-1.49466e-05
-1.61388e-05
-1.27776e-05
-1.19807e-05
-1.15795e-05
-1.15636e-05
-1.20636e-05
-1.31507e-05
-1.49747e-05
-1.77363e-05
-2.17168e-05
-2.69387e-05
-3.33827e-05
-4.00382e-05
-4.68115e-05
-5.23866e-05
-5.6796e-05
-5.973e-05
-6.15041e-05
-6.23417e-05
-6.24135e-05
-6.172e-05
-6.00921e-05
-5.73067e-05
-5.30498e-05
-4.76157e-05
-4.09764e-05
-3.43936e-05
-2.79959e-05
-2.28123e-05
-1.89346e-05
-1.64208e-05
-1.50898e-05
-1.48105e-05
-1.53127e-05
-1.65746e-05
-1.29795e-05
-1.21536e-05
-1.17346e-05
-1.17103e-05
-1.22111e-05
-1.33041e-05
-1.51333e-05
-1.78988e-05
-2.18792e-05
-2.71243e-05
-3.35999e-05
-4.03887e-05
-4.72979e-05
-5.2948e-05
-5.7393e-05
-6.03292e-05
-6.20977e-05
-6.29303e-05
-6.30045e-05
-6.23207e-05
-6.07026e-05
-5.79181e-05
-5.36281e-05
-4.81199e-05
-4.13445e-05
-3.46271e-05
-2.81998e-05
-2.29967e-05
-1.91265e-05
-1.66217e-05
-1.53072e-05
-1.50541e-05
-1.55929e-05
-1.69063e-05
-1.31226e-05
-1.22783e-05
-1.1848e-05
-1.1818e-05
-1.23194e-05
-1.34172e-05
-1.52535e-05
-1.80297e-05
-2.20255e-05
-2.73053e-05
-3.38305e-05
-4.07068e-05
-4.77023e-05
-5.34078e-05
-5.78851e-05
-6.08339e-05
-6.26073e-05
-6.3442e-05
-6.3519e-05
-6.28385e-05
-6.12199e-05
-5.84259e-05
-5.41069e-05
-4.85443e-05
-4.16822e-05
-3.48762e-05
-2.83996e-05
-2.31633e-05
-1.9282e-05
-1.67746e-05
-1.5467e-05
-1.52294e-05
-1.5791e-05
-1.71365e-05
-1.32062e-05
-1.23545e-05
-1.192e-05
-1.18888e-05
-1.23929e-05
-1.3498e-05
-1.5347e-05
-1.81438e-05
-2.21703e-05
-2.74941e-05
-3.40749e-05
-4.10137e-05
-4.80677e-05
-5.38217e-05
-5.83373e-05
-6.13142e-05
-6.31062e-05
-6.39518e-05
-6.40321e-05
-6.33471e-05
-6.17146e-05
-5.88936e-05
-5.45441e-05
-4.89338e-05
-4.20116e-05
-3.51409e-05
-2.86075e-05
-2.33265e-05
-1.94151e-05
-1.68896e-05
-1.55758e-05
-1.53398e-05
-1.59087e-05
-1.72673e-05
-1.32307e-05
-1.23826e-05
-1.19508e-05
-1.19228e-05
-1.24317e-05
-1.3546e-05
-1.54131e-05
-1.82398e-05
-2.23127e-05
-2.76908e-05
-3.43342e-05
-4.13155e-05
-4.84027e-05
-5.42007e-05
-5.87574e-05
-6.17757e-05
-6.35993e-05
-6.44642e-05
-6.45492e-05
-6.38541e-05
-6.22002e-05
-5.93519e-05
-5.49516e-05
-4.92975e-05
-4.23403e-05
-3.54229e-05
-2.88224e-05
-2.34848e-05
-1.95266e-05
-1.69711e-05
-1.56349e-05
-1.53862e-05
-1.59473e-05
-1.73003e-05
-1.3198e-05
-1.2364e-05
-1.19413e-05
-1.19189e-05
-1.24317e-05
-1.35529e-05
-1.54375e-05
-1.82973e-05
-2.24285e-05
-2.78738e-05
-3.46086e-05
-4.16074e-05
-4.86784e-05
-5.4494e-05
-5.90843e-05
-6.21507e-05
-6.40139e-05
-6.49046e-05
-6.49948e-05
-6.42843e-05
-6.25992e-05
-5.9707e-05
-5.5283e-05
-4.96129e-05
-4.26681e-05
-3.57258e-05
-2.90281e-05
-2.36181e-05
-1.95962e-05
-1.70005e-05
-1.56377e-05
-1.53676e-05
-1.5908e-05
-1.72369e-05
-1.31109e-05
-1.23007e-05
-1.18911e-05
-1.18725e-05
-1.23805e-05
-1.34939e-05
-1.53779e-05
-1.82531e-05
-2.24386e-05
-2.79657e-05
-3.48835e-05
-4.18438e-05
-4.879e-05
-5.45459e-05
-5.91156e-05
-6.2209e-05
-6.41042e-05
-6.50204e-05
-6.5118e-05
-6.43964e-05
-6.26923e-05
-5.97846e-05
-5.53898e-05
-4.97838e-05
-4.29579e-05
-3.60378e-05
-2.91491e-05
-2.36507e-05
-1.95676e-05
-1.69458e-05
-1.55663e-05
-1.52776e-05
-1.57906e-05
-1.70784e-05
-1.29759e-05
-1.21987e-05
-1.18048e-05
-1.17854e-05
-1.22746e-05
-1.33547e-05
-1.52006e-05
-1.8043e-05
-2.22404e-05
-2.78103e-05
-3.52048e-05
-4.20357e-05
-4.85795e-05
-5.41228e-05
-5.85634e-05
-6.16205e-05
-6.35127e-05
-6.44422e-05
-6.45509e-05
-6.38385e-05
-6.21588e-05
-5.93079e-05
-5.5057e-05
-4.96734e-05
-4.32414e-05
-3.64104e-05
-2.90394e-05
-2.34904e-05
-1.93863e-05
-1.67822e-05
-1.54156e-05
-1.5121e-05
-1.56043e-05
-1.68336e-05
-1.28009e-05
-1.20632e-05
-1.16833e-05
-1.16504e-05
-1.20899e-05
-1.30786e-05
-1.47864e-05
-1.74455e-05
-2.14283e-05
-2.66299e-05
-3.53908e-05
-4.21824e-05
-4.77787e-05
-5.27535e-05
-5.68034e-05
-5.96771e-05
-6.14861e-05
-6.23983e-05
-6.25241e-05
-6.18641e-05
-6.03024e-05
-5.76705e-05
-5.38355e-05
-4.90389e-05
-4.35437e-05
-3.6652e-05
-2.79229e-05
-2.2743e-05
-1.88443e-05
-1.64022e-05
-1.51393e-05
-1.48844e-05
-1.53519e-05
-1.65128e-05
-1.26013e-05
-1.19086e-05
-1.15443e-05
-1.14934e-05
-1.18668e-05
-1.27241e-05
-1.42146e-05
-1.65986e-05
-2.06143e-05
-2.63926e-05
-3.75706e-05
-4.06584e-05
-4.61911e-05
-5.06444e-05
-5.41257e-05
-5.67116e-05
-5.83761e-05
-5.92418e-05
-5.93934e-05
-5.88347e-05
-5.74752e-05
-5.5193e-05
-5.19692e-05
-4.7712e-05
-4.21786e-05
-3.87897e-05
-2.78887e-05
-2.20806e-05
-1.81048e-05
-1.58978e-05
-1.48036e-05
-1.46152e-05
-1.507e-05
-1.61508e-05
-1.23899e-05
-1.17418e-05
-1.13886e-05
-1.13061e-05
-1.15758e-05
-1.21968e-05
-1.31356e-05
-1.41764e-05
-1.50433e-05
-1.13224e-05
-4.9867e-05
-4.54804e-05
-4.74966e-05
-4.97661e-05
-5.17451e-05
-5.3131e-05
-5.39128e-05
-5.4097e-05
-5.3693e-05
-5.269e-05
-5.11062e-05
-4.91729e-05
-4.74666e-05
-5.1859e-05
-1.2815e-05
-1.6655e-05
-1.58135e-05
-1.49163e-05
-1.43149e-05
-1.42872e-05
-1.47589e-05
-1.57669e-05
-1.21886e-05
-1.15857e-05
-1.12533e-05
-1.11655e-05
-1.14003e-05
-1.1976e-05
-1.29572e-05
-1.44703e-05
-1.7003e-05
-2.12397e-05
-2.34328e-05
-3.54109e-05
-3.95146e-05
-4.33168e-05
-4.60794e-05
-4.82668e-05
-4.97286e-05
-5.05699e-05
-5.07923e-05
-5.04158e-05
-4.94399e-05
-4.77759e-05
-4.54699e-05
-4.2104e-05
-3.7978e-05
-2.66371e-05
-2.38028e-05
-1.92067e-05
-1.64098e-05
-1.48772e-05
-1.41347e-05
-1.40683e-05
-1.44932e-05
-1.54206e-05
-1.20087e-05
-1.14472e-05
-1.11368e-05
-1.10489e-05
-1.12563e-05
-1.1781e-05
-1.26864e-05
-1.40943e-05
-1.61693e-05
-1.91175e-05
-2.43808e-05
-3.1816e-05
-3.58059e-05
-3.94613e-05
-4.22698e-05
-4.45053e-05
-4.59429e-05
-4.67907e-05
-4.70366e-05
-4.67076e-05
-4.58062e-05
-4.42336e-05
-4.19506e-05
-3.88165e-05
-3.48452e-05
-2.75314e-05
-2.17471e-05
-1.8496e-05
-1.61669e-05
-1.46889e-05
-1.39576e-05
-1.38726e-05
-1.42566e-05
-1.51157e-05
-1.18654e-05
-1.1346e-05
-1.10651e-05
-1.09927e-05
-1.11957e-05
-1.16977e-05
-1.25609e-05
-1.39066e-05
-1.59327e-05
-1.88697e-05
-2.29898e-05
-2.82298e-05
-3.23032e-05
-3.60126e-05
-3.88973e-05
-4.11964e-05
-4.2695e-05
-4.35581e-05
-4.38197e-05
-4.35183e-05
-4.26289e-05
-4.106e-05
-3.87304e-05
-3.55891e-05
-3.15587e-05
-2.63353e-05
-2.17958e-05
-1.84369e-05
-1.60843e-05
-1.46157e-05
-1.38747e-05
-1.3755e-05
-1.40879e-05
-1.48783e-05
-1.17668e-05
-1.12944e-05
-1.10516e-05
-1.10061e-05
-1.12154e-05
-1.1698e-05
-1.25045e-05
-1.37365e-05
-1.55445e-05
-1.81073e-05
-2.1461e-05
-2.54959e-05
-2.91857e-05
-3.26678e-05
-3.54319e-05
-3.76207e-05
-3.90558e-05
-3.988e-05
-4.01382e-05
-3.9872e-05
-3.90454e-05
-3.75844e-05
-3.53869e-05
-3.2481e-05
-2.88415e-05
-2.47638e-05
-2.10234e-05
-1.80567e-05
-1.59303e-05
-1.45674e-05
-1.3857e-05
-1.37132e-05
-1.39944e-05
-1.47126e-05
-1.17196e-05
-1.13102e-05
-1.11226e-05
-1.11242e-05
-1.13603e-05
-1.18423e-05
-1.26054e-05
-1.37211e-05
-1.52896e-05
-1.74224e-05
-2.01233e-05
-2.33049e-05
-2.64504e-05
-2.95077e-05
-3.19853e-05
-3.39307e-05
-3.52256e-05
-3.598e-05
-3.62227e-05
-3.59955e-05
-3.52534e-05
-3.39626e-05
-3.20234e-05
-2.94978e-05
-2.64124e-05
-2.3168e-05
-2.01551e-05
-1.76966e-05
-1.5871e-05
-1.46525e-05
-1.39785e-05
-1.37979e-05
-1.40069e-05
-1.46294e-05
-1.17248e-05
-1.14056e-05
-1.12977e-05
-1.13715e-05
-1.16605e-05
-1.21725e-05
-1.29312e-05
-1.39817e-05
-1.53804e-05
-1.72057e-05
-1.94374e-05
-2.20151e-05
-2.4655e-05
-2.72448e-05
-2.93885e-05
-3.10777e-05
-3.22258e-05
-3.28991e-05
-3.31221e-05
-3.29193e-05
-3.22673e-05
-3.11368e-05
-2.94754e-05
-2.73403e-05
-2.47865e-05
-2.21677e-05
-1.97237e-05
-1.76725e-05
-1.60939e-05
-1.49789e-05
-1.43049e-05
-1.40502e-05
-1.41479e-05
-1.46307e-05
-1.17699e-05
-1.15658e-05
-1.1556e-05
-1.17195e-05
-1.20823e-05
-1.26555e-05
-1.34592e-05
-1.45211e-05
-1.58436e-05
-1.75574e-05
-1.95746e-05
-2.1837e-05
-2.41633e-05
-2.64302e-05
-2.83535e-05
-2.98846e-05
-3.09541e-05
-3.1589e-05
-3.18013e-05
-3.16042e-05
-3.09869e-05
-2.99363e-05
-2.84354e-05
-2.65432e-05
-2.43354e-05
-2.20764e-05
-1.99404e-05
-1.8092e-05
-1.66438e-05
-1.55464e-05
-1.48175e-05
-1.44484e-05
-1.43976e-05
-1.46988e-05
-1.18437e-05
-1.17947e-05
-1.18879e-05
-1.21411e-05
-1.25873e-05
-1.32511e-05
-1.41635e-05
-1.53648e-05
-1.69205e-05
-1.87248e-05
-2.0814e-05
-2.31232e-05
-2.54923e-05
-2.77856e-05
-2.97699e-05
-3.13674e-05
-3.25067e-05
-3.31866e-05
-3.34088e-05
-3.31796e-05
-3.2496e-05
-3.13574e-05
-2.97732e-05
-2.78128e-05
-2.55754e-05
-2.32888e-05
-2.11205e-05
-1.92067e-05
-1.75798e-05
-1.63574e-05
-1.55024e-05
-1.49908e-05
-1.4776e-05
-1.48199e-05
-9.12299e-06
-9.13326e-06
-9.16108e-06
-9.20975e-06
-9.28578e-06
-9.39244e-06
-9.53201e-06
-9.70553e-06
-9.91126e-06
-1.01463e-05
-1.04e-05
-1.06634e-05
-1.09177e-05
-1.11534e-05
-1.13569e-05
-1.15228e-05
-1.16455e-05
-1.1723e-05
-1.17541e-05
-1.17389e-05
-1.1679e-05
-1.15768e-05
-1.14381e-05
-1.12685e-05
-1.10819e-05
-1.08874e-05
-1.0704e-05
-1.05402e-05
-1.04059e-05
-1.03025e-05
-1.02291e-05
-1.01805e-05
-1.01485e-05
-1.01268e-05
-9.0806e-06
-9.03874e-06
-9.02837e-06
-9.04027e-06
-9.08431e-06
-9.16143e-06
-9.27094e-06
-9.41181e-06
-9.57946e-06
-9.77124e-06
-9.97283e-06
-1.01808e-05
-1.0376e-05
-1.05579e-05
-1.0713e-05
-1.08408e-05
-1.09363e-05
-1.09995e-05
-1.10297e-05
-1.10268e-05
-1.09921e-05
-1.0926e-05
-1.08335e-05
-1.07155e-05
-1.05854e-05
-1.04437e-05
-1.031e-05
-1.01877e-05
-1.00921e-05
-1.00265e-05
-9.99547e-06
-9.99754e-06
-1.00198e-05
-1.00643e-05
-9.09797e-06
-9.03705e-06
-9.00708e-06
-8.99456e-06
-9.0214e-06
-9.08952e-06
-9.19782e-06
-9.34638e-06
-9.52981e-06
-9.75082e-06
-9.98546e-06
-1.02399e-05
-1.04662e-05
-1.06756e-05
-1.08453e-05
-1.09832e-05
-1.10832e-05
-1.11485e-05
-1.11782e-05
-1.11725e-05
-1.11326e-05
-1.10554e-05
-1.09476e-05
-1.08012e-05
-1.06397e-05
-1.04515e-05
-1.0286e-05
-1.01371e-05
-1.00315e-05
-9.96909e-06
-9.9566e-06
-9.98923e-06
-1.00357e-05
-1.01018e-05
-9.17336e-06
-9.091e-06
-9.04211e-06
-9.01226e-06
-9.0322e-06
-9.10614e-06
-9.23469e-06
-9.42266e-06
-9.66657e-06
-9.98174e-06
-1.03269e-05
-1.07262e-05
-1.10625e-05
-1.13691e-05
-1.16033e-05
-1.17891e-05
-1.19175e-05
-1.19971e-05
-1.20267e-05
-1.20065e-05
-1.1938e-05
-1.18128e-05
-1.16405e-05
-1.1397e-05
-1.11263e-05
-1.07944e-05
-1.0522e-05
-1.02838e-05
-1.01263e-05
-1.00382e-05
-1.00253e-05
-1.00754e-05
-1.01428e-05
-1.02329e-05
-9.31846e-06
-9.21166e-06
-9.14932e-06
-9.11335e-06
-9.14084e-06
-9.23909e-06
-9.41275e-06
-9.67638e-06
-1.00326e-05
-1.0524e-05
-1.10801e-05
-1.17684e-05
-1.23144e-05
-1.28034e-05
-1.31575e-05
-1.34335e-05
-1.36162e-05
-1.37239e-05
-1.3754e-05
-1.37067e-05
-1.35848e-05
-1.33702e-05
-1.30789e-05
-1.26537e-05
-1.21755e-05
-1.15567e-05
-1.10795e-05
-1.06715e-05
-1.04119e-05
-1.02627e-05
-1.0225e-05
-1.02754e-05
-1.03561e-05
-1.04745e-05
-9.53291e-06
-9.39562e-06
-9.32399e-06
-9.29191e-06
-9.34092e-06
-9.48151e-06
-9.72401e-06
-1.00974e-05
-1.0616e-05
-1.13747e-05
-1.22668e-05
-1.34692e-05
-1.4348e-05
-1.51243e-05
-1.5661e-05
-1.60768e-05
-1.63441e-05
-1.64965e-05
-1.65279e-05
-1.64384e-05
-1.6234e-05
-1.58814e-05
-1.54091e-05
-1.46976e-05
-1.38891e-05
-1.27581e-05
-1.19546e-05
-1.12866e-05
-1.08758e-05
-1.0632e-05
-1.05473e-05
-1.05836e-05
-1.06724e-05
-1.08274e-05
-9.8141e-06
-9.63587e-06
-9.55844e-06
-9.53862e-06
-9.62141e-06
-9.81973e-06
-1.01497e-05
-1.06575e-05
-1.13735e-05
-1.24948e-05
-1.38634e-05
-1.59653e-05
-1.72996e-05
-1.8454e-05
-1.92144e-05
-1.9805e-05
-2.01764e-05
-2.03856e-05
-2.04192e-05
-2.02771e-05
-1.99726e-05
-1.94478e-05
-1.87541e-05
-1.76646e-05
-1.64034e-05
-1.43721e-05
-1.31096e-05
-1.20861e-05
-1.14893e-05
-1.11266e-05
-1.0978e-05
-1.099e-05
-1.10845e-05
-1.12891e-05
-1.01529e-05
-9.92733e-06
-9.84624e-06
-9.84814e-06
-9.98063e-06
-1.02563e-05
-1.06937e-05
-1.13437e-05
-1.22479e-05
-1.36814e-05
-1.56462e-05
-1.93342e-05
-2.11546e-05
-2.27647e-05
-2.38003e-05
-2.4619e-05
-2.51295e-05
-2.5416e-05
-2.54532e-05
-2.52403e-05
-2.48026e-05
-2.4054e-05
-2.30875e-05
-2.15407e-05
-1.9793e-05
-1.61649e-05
-1.43427e-05
-1.30098e-05
-1.22358e-05
-1.17461e-05
-1.15161e-05
-1.149e-05
-1.15848e-05
-1.18581e-05
-1.05372e-05
-1.02588e-05
-1.01737e-05
-1.02041e-05
-1.03989e-05
-1.07655e-05
-1.1315e-05
-1.20781e-05
-1.3016e-05
-1.46448e-05
-1.69055e-05
-2.41503e-05
-2.58956e-05
-2.77102e-05
-2.89181e-05
-2.98868e-05
-3.04948e-05
-3.08434e-05
-3.0885e-05
-3.06188e-05
-3.00914e-05
-2.91986e-05
-2.80623e-05
-2.63042e-05
-2.46321e-05
-1.74048e-05
-1.53936e-05
-1.38438e-05
-1.30413e-05
-1.24496e-05
-1.21336e-05
-1.20618e-05
-1.21588e-05
-1.25195e-05
-1.09594e-05
-1.06209e-05
-1.05393e-05
-1.06194e-05
-1.09179e-05
-1.14403e-05
-1.21997e-05
-1.30949e-05
-1.40882e-05
-1.63448e-05
-1.20949e-05
-2.81607e-05
-2.98974e-05
-3.2263e-05
-3.38129e-05
-3.50936e-05
-3.58945e-05
-3.63411e-05
-3.63878e-05
-3.60337e-05
-3.53236e-05
-3.41275e-05
-3.26546e-05
-3.03407e-05
-2.87057e-05
-1.23955e-05
-1.71247e-05
-1.49465e-05
-1.41171e-05
-1.34058e-05
-1.29073e-05
-1.27315e-05
-1.28056e-05
-1.32625e-05
-1.14019e-05
-1.09923e-05
-1.09117e-05
-1.1044e-05
-1.14534e-05
-1.2148e-05
-1.31301e-05
-1.42046e-05
-1.47296e-05
-9.65676e-06
-4.11624e-05
-3.52681e-05
-3.61385e-05
-3.75728e-05
-3.87557e-05
-3.95777e-05
-4.0028e-05
-4.00798e-05
-3.97321e-05
-3.90107e-05
-3.79222e-05
-3.65721e-05
-3.57401e-05
-4.14908e-05
-1.0967e-05
-1.58073e-05
-1.5325e-05
-1.44109e-05
-1.3706e-05
-1.34109e-05
-1.3467e-05
-1.40516e-05
-1.18507e-05
-1.1368e-05
-1.13025e-05
-1.15225e-05
-1.21266e-05
-1.31916e-05
-1.48952e-05
-1.73963e-05
-2.15093e-05
-2.59778e-05
-3.79481e-05
-3.38474e-05
-3.63858e-05
-3.91193e-05
-4.13979e-05
-4.30949e-05
-4.42012e-05
-4.47584e-05
-4.48155e-05
-4.43723e-05
-4.33808e-05
-4.1799e-05
-3.96397e-05
-3.7031e-05
-3.46222e-05
-3.90621e-05
-2.69203e-05
-2.2532e-05
-1.85158e-05
-1.61938e-05
-1.47993e-05
-1.41929e-05
-1.41552e-05
-1.48689e-05
-1.22797e-05
-1.17231e-05
-1.16583e-05
-1.19324e-05
-1.26554e-05
-1.39191e-05
-1.59212e-05
-1.87747e-05
-2.29075e-05
-2.72191e-05
-3.4241e-05
-3.61942e-05
-3.86845e-05
-4.11862e-05
-4.35999e-05
-4.54043e-05
-4.66147e-05
-4.72266e-05
-4.72878e-05
-4.67983e-05
-4.57113e-05
-4.40293e-05
-4.17396e-05
-3.93493e-05
-3.69601e-05
-3.51893e-05
-2.82224e-05
-2.39624e-05
-1.9924e-05
-1.7261e-05
-1.55965e-05
-1.48492e-05
-1.4789e-05
-1.564e-05
-1.26748e-05
-1.2054e-05
-1.19907e-05
-1.23134e-05
-1.31408e-05
-1.45759e-05
-1.68225e-05
-1.99895e-05
-2.43686e-05
-2.91919e-05
-3.49232e-05
-3.81215e-05
-4.09594e-05
-4.36705e-05
-4.63536e-05
-4.82997e-05
-4.96127e-05
-5.02678e-05
-5.03328e-05
-4.98079e-05
-4.86265e-05
-4.68108e-05
-4.426e-05
-4.16648e-05
-3.8943e-05
-3.58574e-05
-3.01997e-05
-2.54399e-05
-2.11681e-05
-1.82077e-05
-1.63289e-05
-1.54638e-05
-1.5382e-05
-1.63427e-05
-1.30186e-05
-1.23427e-05
-1.22724e-05
-1.26182e-05
-1.3499e-05
-1.50162e-05
-1.73614e-05
-2.06415e-05
-2.50648e-05
-3.00472e-05
-3.55359e-05
-3.92888e-05
-4.24538e-05
-4.52866e-05
-4.80842e-05
-5.00856e-05
-5.14407e-05
-5.2111e-05
-5.2179e-05
-5.16445e-05
-5.04265e-05
-4.856e-05
-4.58991e-05
-4.31839e-05
-4.01511e-05
-3.64788e-05
-3.10717e-05
-2.61611e-05
-2.18566e-05
-1.88006e-05
-1.68521e-05
-1.59519e-05
-1.58832e-05
-1.69369e-05
-1.33039e-05
-1.25856e-05
-1.2508e-05
-1.28672e-05
-1.37816e-05
-1.53501e-05
-1.77546e-05
-2.11047e-05
-2.55639e-05
-3.06393e-05
-3.6095e-05
-4.01289e-05
-4.34946e-05
-4.64344e-05
-4.93134e-05
-5.1344e-05
-5.27169e-05
-5.3392e-05
-5.34627e-05
-5.29287e-05
-5.16977e-05
-4.98061e-05
-4.70673e-05
-4.42449e-05
-4.10009e-05
-3.70529e-05
-3.16853e-05
-2.66868e-05
-2.23567e-05
-1.92465e-05
-1.72637e-05
-1.635e-05
-1.62968e-05
-1.74177e-05
-1.35247e-05
-1.2776e-05
-1.26907e-05
-1.30547e-05
-1.39853e-05
-1.55792e-05
-1.80119e-05
-2.13974e-05
-2.58806e-05
-3.10254e-05
-3.65164e-05
-4.07081e-05
-4.41964e-05
-4.72004e-05
-5.01227e-05
-5.21673e-05
-5.35489e-05
-5.42264e-05
-5.42998e-05
-5.37687e-05
-5.25338e-05
-5.06317e-05
-4.78524e-05
-4.49666e-05
-4.15993e-05
-3.74933e-05
-3.2094e-05
-2.70301e-05
-2.26839e-05
-1.95508e-05
-1.75589e-05
-1.66476e-05
-1.6612e-05
-1.77803e-05
-1.36793e-05
-1.29129e-05
-1.28229e-05
-1.31895e-05
-1.41301e-05
-1.57406e-05
-1.81942e-05
-2.16085e-05
-2.61224e-05
-3.13246e-05
-3.68684e-05
-4.11576e-05
-4.47259e-05
-4.77811e-05
-5.07402e-05
-5.2804e-05
-5.41979e-05
-5.48815e-05
-5.49581e-05
-5.44268e-05
-5.31847e-05
-5.12674e-05
-4.84543e-05
-4.55187e-05
-4.20721e-05
-3.78679e-05
-3.24171e-05
-2.72974e-05
-2.2925e-05
-1.97707e-05
-1.77699e-05
-1.68592e-05
-1.68337e-05
-1.80293e-05
-1.37673e-05
-1.29953e-05
-1.29041e-05
-1.32726e-05
-1.42192e-05
-1.58406e-05
-1.83113e-05
-2.17513e-05
-2.6301e-05
-3.15519e-05
-3.71529e-05
-4.15037e-05
-4.51231e-05
-4.82213e-05
-5.12146e-05
-5.33049e-05
-5.47171e-05
-5.54117e-05
-5.54919e-05
-5.49568e-05
-5.37025e-05
-5.17632e-05
-4.89199e-05
-4.59431e-05
-4.24453e-05
-3.81779e-05
-3.26696e-05
-2.75e-05
-2.30924e-05
-1.99149e-05
-1.79017e-05
-1.69867e-05
-1.69628e-05
-1.81675e-05
-1.37889e-05
-1.30235e-05
-1.29347e-05
-1.33044e-05
-1.42527e-05
-1.58788e-05
-1.83622e-05
-2.1824e-05
-2.64148e-05
-3.17096e-05
-3.73735e-05
-4.17572e-05
-4.53999e-05
-4.85327e-05
-5.15558e-05
-5.36785e-05
-5.5114e-05
-5.58243e-05
-5.59091e-05
-5.53674e-05
-5.40983e-05
-5.21353e-05
-4.92641e-05
-4.62544e-05
-4.27322e-05
-3.8428e-05
-3.28524e-05
-2.76368e-05
-2.31862e-05
-1.99844e-05
-1.79551e-05
-1.70311e-05
-1.70006e-05
-1.81965e-05
-1.37461e-05
-1.29999e-05
-1.29165e-05
-1.32852e-05
-1.42287e-05
-1.58497e-05
-1.83361e-05
-2.18101e-05
-2.64451e-05
-3.17735e-05
-3.75292e-05
-4.19132e-05
-4.55377e-05
-4.86902e-05
-5.17329e-05
-5.38912e-05
-5.53528e-05
-5.60826e-05
-5.61733e-05
-5.56238e-05
-5.43388e-05
-5.23486e-05
-4.94641e-05
-4.64384e-05
-4.29327e-05
-3.8621e-05
-3.29483e-05
-2.76926e-05
-2.31919e-05
-1.99704e-05
-1.79279e-05
-1.69943e-05
-1.69501e-05
-1.81174e-05
-1.36417e-05
-1.29264e-05
-1.28481e-05
-1.32072e-05
-1.41283e-05
-1.57167e-05
-1.81711e-05
-2.1616e-05
-2.6275e-05
-3.1621e-05
-3.75606e-05
-4.18962e-05
-4.54308e-05
-4.85554e-05
-5.15702e-05
-5.37445e-05
-5.52205e-05
-5.59679e-05
-5.60667e-05
-5.55158e-05
-5.42305e-05
-5.22376e-05
-4.93894e-05
-4.63988e-05
-4.29816e-05
-3.86996e-05
-3.28353e-05
-2.75545e-05
-2.30223e-05
-1.98185e-05
-1.77912e-05
-1.6865e-05
-1.68098e-05
-1.79298e-05
-1.3483e-05
-1.28115e-05
-1.27391e-05
-1.3081e-05
-1.3962e-05
-1.54885e-05
-1.78703e-05
-2.12337e-05
-2.5889e-05
-3.11522e-05
-3.75149e-05
-4.1747e-05
-4.50082e-05
-4.80942e-05
-5.10524e-05
-5.32233e-05
-5.46957e-05
-5.54554e-05
-5.55659e-05
-5.50267e-05
-5.37669e-05
-5.17996e-05
-4.90219e-05
-4.60858e-05
-4.29572e-05
-3.87182e-05
-3.24211e-05
-2.72171e-05
-2.26803e-05
-1.95429e-05
-1.75643e-05
-1.66636e-05
-1.65973e-05
-1.76443e-05
-1.32784e-05
-1.26595e-05
-1.25854e-05
-1.28866e-05
-1.36792e-05
-1.50555e-05
-1.72144e-05
-2.02769e-05
-2.46554e-05
-2.9377e-05
-3.72321e-05
-4.13175e-05
-4.41445e-05
-4.70593e-05
-4.97855e-05
-5.18589e-05
-5.32672e-05
-5.40158e-05
-5.41429e-05
-5.36492e-05
-5.24848e-05
-5.06488e-05
-4.81233e-05
-4.53831e-05
-4.26671e-05
-3.84822e-05
-3.07074e-05
-2.60538e-05
-2.17915e-05
-1.89377e-05
-1.71518e-05
-1.6355e-05
-1.63098e-05
-1.72698e-05
-1.30468e-05
-1.24905e-05
-1.24196e-05
-1.26828e-05
-1.33871e-05
-1.46089e-05
-1.65273e-05
-1.92811e-05
-2.37122e-05
-2.89068e-05
-3.96531e-05
-3.94152e-05
-4.30826e-05
-4.65775e-05
-4.93267e-05
-5.14097e-05
-5.27999e-05
-5.35509e-05
-5.37018e-05
-5.32572e-05
-5.21602e-05
-5.03682e-05
-4.7852e-05
-4.45706e-05
-4.09371e-05
-4.08244e-05
-3.0408e-05
-2.52515e-05
-2.0917e-05
-1.83407e-05
-1.67503e-05
-1.60486e-05
-1.60087e-05
-1.68525e-05
-1.28012e-05
-1.23062e-05
-1.22252e-05
-1.24195e-05
-1.2963e-05
-1.38601e-05
-1.50951e-05
-1.63669e-05
-1.67164e-05
-9.46867e-06
-5.30326e-05
-4.47061e-05
-4.56895e-05
-4.75283e-05
-4.91367e-05
-5.03049e-05
-5.1004e-05
-5.11814e-05
-5.08477e-05
-5.00304e-05
-4.87723e-05
-4.72086e-05
-4.65171e-05
-5.48181e-05
-1.09597e-05
-1.84485e-05
-1.8175e-05
-1.70414e-05
-1.60775e-05
-1.56335e-05
-1.56669e-05
-1.64075e-05
-1.25679e-05
-1.21343e-05
-1.20646e-05
-1.22411e-05
-1.27433e-05
-1.36024e-05
-1.48916e-05
-1.6601e-05
-1.9074e-05
-2.31129e-05
-2.33102e-05
-3.71242e-05
-4.02012e-05
-4.35415e-05
-4.5927e-05
-4.80264e-05
-4.94315e-05
-5.02684e-05
-5.04821e-05
-5.00963e-05
-4.91381e-05
-4.74286e-05
-4.537e-05
-4.23334e-05
-3.93369e-05
-2.65174e-05
-2.56755e-05
-2.14162e-05
-1.87179e-05
-1.69927e-05
-1.58774e-05
-1.53898e-05
-1.53787e-05
-1.601e-05
-1.23574e-05
-1.1976e-05
-1.19134e-05
-1.20678e-05
-1.2514e-05
-1.32901e-05
-1.447e-05
-1.61423e-05
-1.84052e-05
-2.14401e-05
-2.67158e-05
-3.46711e-05
-3.74262e-05
-4.01236e-05
-4.22642e-05
-4.42987e-05
-4.5493e-05
-4.63132e-05
-4.65376e-05
-4.61866e-05
-4.53321e-05
-4.38647e-05
-4.19095e-05
-3.94197e-05
-3.68467e-05
-2.95334e-05
-2.39879e-05
-2.08462e-05
-1.83886e-05
-1.66584e-05
-1.55926e-05
-1.51235e-05
-1.51e-05
-1.56551e-05
-1.21866e-05
-1.18549e-05
-1.18117e-05
-1.19682e-05
-1.23982e-05
-1.31474e-05
-1.42965e-05
-1.5954e-05
-1.82735e-05
-2.14069e-05
-2.55676e-05
-3.06463e-05
-3.35387e-05
-3.60132e-05
-3.80352e-05
-3.9975e-05
-4.1267e-05
-4.20733e-05
-4.23087e-05
-4.2002e-05
-4.1154e-05
-3.97232e-05
-3.77584e-05
-3.53662e-05
-3.27667e-05
-2.83206e-05
-2.41088e-05
-2.08327e-05
-1.82957e-05
-1.65399e-05
-1.54568e-05
-1.49598e-05
-1.48965e-05
-1.5377e-05
-1.20614e-05
-1.17773e-05
-1.17584e-05
-1.19238e-05
-1.23392e-05
-1.30472e-05
-1.41176e-05
-1.56494e-05
-1.77535e-05
-2.05678e-05
-2.39199e-05
-2.77172e-05
-3.03602e-05
-3.26423e-05
-3.45992e-05
-3.6434e-05
-3.76802e-05
-3.84512e-05
-3.86852e-05
-3.84162e-05
-3.76215e-05
-3.62997e-05
-3.44433e-05
-3.2254e-05
-2.98663e-05
-2.66129e-05
-2.32564e-05
-2.03147e-05
-1.80065e-05
-1.63704e-05
-1.53434e-05
-1.48492e-05
-1.47572e-05
-1.51704e-05
-1.19857e-05
-1.17543e-05
-1.17718e-05
-1.19618e-05
-1.23796e-05
-1.30603e-05
-1.40581e-05
-1.54459e-05
-1.72943e-05
-1.96714e-05
-2.24253e-05
-2.54635e-05
-2.79592e-05
-3.02577e-05
-3.22238e-05
-3.39679e-05
-3.51736e-05
-3.59325e-05
-3.61631e-05
-3.59378e-05
-3.51536e-05
-3.39021e-05
-3.21632e-05
-3.00826e-05
-2.77695e-05
-2.50768e-05
-2.22902e-05
-1.97925e-05
-1.77709e-05
-1.62954e-05
-1.53356e-05
-1.48395e-05
-1.47072e-05
-1.50424e-05
-1.19561e-05
-1.17865e-05
-1.18513e-05
-1.20798e-05
-1.25153e-05
-1.31867e-05
-1.41338e-05
-1.54062e-05
-1.70437e-05
-1.90845e-05
-2.14163e-05
-2.39658e-05
-2.63062e-05
-2.85321e-05
-3.04184e-05
-3.20336e-05
-3.31673e-05
-3.38627e-05
-3.40877e-05
-3.38652e-05
-3.31739e-05
-3.20328e-05
-3.04334e-05
-2.85216e-05
-2.6336e-05
-2.39799e-05
-2.16003e-05
-1.94558e-05
-1.76878e-05
-1.63552e-05
-1.54478e-05
-1.49346e-05
-1.47466e-05
-1.49872e-05
-1.19562e-05
-1.18509e-05
-1.1954e-05
-1.22205e-05
-1.26815e-05
-1.33623e-05
-1.42943e-05
-1.55115e-05
-1.70334e-05
-1.88887e-05
-2.09924e-05
-2.3272e-05
-2.54993e-05
-2.76326e-05
-2.9466e-05
-3.09919e-05
-3.20802e-05
-3.27431e-05
-3.29616e-05
-3.27471e-05
-3.2092e-05
-3.10095e-05