/*--------------------------------*- C++ -*----------------------------------*\
| =========                 |                                                 |
| \\      /  F ield         | OpenFOAM: The Open Source CFD Toolbox           |
|  \\    /   O peration     | Version:  2112                                  |
|   \\  /    A nd           | Website:  www.openfoam.com                      |
|    \\/     M anipulation  |                                                 |
\*---------------------------------------------------------------------------*/
FoamFile
{
    version     2.0;
    format      ascii;
    arch        "LSB;label=32;scalar=64";
    class       surfaceScalarField;
    location    "1.6";
    object      phi;
}
// * * * * * * * * * * * * * * * * * * * * * * * * * * * * * * * * * * * * * //

dimensions      [0 3 -1 0 0 0 0];

oriented        oriented;

internalField   nonuniform List<scalar> 
188215
(
1.06198e-09
2.57283e-09
-3.6348e-09
3.17152e-09
1.87041e-09
-3.97995e-09
5.57665e-09
1.32296e-09
-3.72808e-09
8.00215e-09
1.01064e-09
-3.43614e-09
1.03583e-08
9.72415e-10
-3.32855e-09
1.26213e-08
1.13367e-09
-3.39672e-09
1.4768e-08
1.44745e-09
-3.59408e-09
1.67285e-08
1.92065e-09
-3.88121e-09
1.83989e-08
2.56442e-09
-4.23475e-09
1.95478e-08
3.47724e-09
-4.62616e-09
2.00118e-08
4.58183e-09
-5.04588e-09
1.94586e-08
6.01742e-09
-5.46418e-09
1.80205e-08
7.28451e-09
-5.84639e-09
1.57362e-08
8.44776e-09
-6.16347e-09
1.28095e-08
9.34947e-09
-6.42282e-09
9.37892e-09
1.005e-08
-6.61938e-09
5.62578e-09
1.05095e-08
-6.75639e-09
1.71449e-09
1.07436e-08
-6.83234e-09
-2.18321e-09
1.07452e-08
-6.84749e-09
-5.89603e-09
1.05144e-08
-6.80159e-09
-9.26045e-09
1.00589e-08
-6.69452e-09
-1.20963e-08
9.36365e-09
-6.52784e-09
-1.42683e-08
8.47039e-09
-6.29832e-09
-1.55757e-08
7.31921e-09
-6.0118e-09
-1.59871e-08
6.07322e-09
-5.66187e-09
-1.5372e-08
4.66602e-09
-5.28116e-09
-1.40721e-08
3.60977e-09
-4.90967e-09
-1.22445e-08
2.76157e-09
-4.58915e-09
-1.01195e-08
2.22611e-09
-4.35111e-09
-7.80088e-09
1.94653e-09
-4.26512e-09
-5.38204e-09
1.98891e-09
-4.40774e-09
-2.98695e-09
2.42117e-09
-4.81626e-09
-9.27714e-10
3.15835e-09
-5.21758e-09
3.92718e-09
-4.85489e-09
-6.35926e-11
7.23797e-09
-4.60154e-09
2.31752e-09
7.38617e-09
-7.89687e-09
5.32006e-09
7.19924e-09
-8.87883e-09
8.19242e-09
7.29429e-09
-9.15601e-09
1.08418e-08
7.85018e-09
-9.52712e-09
1.33139e-08
8.83908e-09
-1.01775e-08
1.5645e-08
1.02426e-08
-1.11263e-08
1.78021e-08
1.21248e-08
-1.23613e-08
1.96869e-08
1.4552e-08
-1.38724e-08
2.10375e-08
1.77783e-08
-1.56516e-08
2.16379e-08
2.16322e-08
-1.76507e-08
2.10366e-08
2.64083e-08
-1.97896e-08
1.94474e-08
3.07042e-08
-2.18305e-08
1.69401e-08
3.46078e-08
-2.36528e-08
1.37583e-08
3.77043e-08
-2.5173e-08
1.00486e-08
4.01163e-08
-2.63566e-08
6.0016e-09
4.17293e-08
-2.71727e-08
1.78978e-09
4.25635e-08
-2.7608e-08
-2.40717e-09
4.2595e-08
-2.76529e-08
-6.40963e-09
4.18243e-08
-2.73074e-08
-1.00461e-08
4.02769e-08
-2.65815e-08
-1.31271e-08
3.79338e-08
-2.54891e-08
-1.55095e-08
3.4915e-08
-2.40622e-08
-1.69525e-08
3.10998e-08
-2.23375e-08
-1.73946e-08
2.69173e-08
-2.0402e-08
-1.66214e-08
2.22756e-08
-1.83828e-08
-1.50924e-08
1.86088e-08
-1.6528e-08
-1.29996e-08
1.56021e-08
-1.49333e-08
-1.05721e-08
1.34728e-08
-1.36742e-08
-7.85139e-09
1.20158e-08
-1.279e-08
-4.83594e-09
1.12433e-08
-1.22698e-08
-1.64855e-09
1.11171e-08
-1.18833e-08
8.07073e-10
1.13341e-08
-1.06314e-08
1.09936e-08
-6.25933e-09
-8.78632e-10
1.27146e-08
-4.59797e-09
1.81007e-09
1.37368e-08
-9.03931e-09
5.32622e-09
1.41799e-08
-1.04968e-08
8.66872e-09
1.49787e-08
-1.10269e-08
1.17204e-08
1.63999e-08
-1.16014e-08
1.45719e-08
1.84768e-08
-1.24892e-08
1.73224e-08
2.12495e-08
-1.37574e-08
1.99885e-08
2.48811e-08
-1.54224e-08
2.24859e-08
2.9548e-08
-1.74935e-08
2.44426e-08
3.58019e-08
-1.99803e-08
2.54964e-08
4.3398e-08
-2.28196e-08
2.47536e-08
5.30401e-08
-2.58889e-08
2.27465e-08
6.15374e-08
-2.88261e-08
1.96422e-08
6.91527e-08
-3.14406e-08
1.58292e-08
7.51313e-08
-3.36139e-08
1.14526e-08
7.97888e-08
-3.52959e-08
6.7247e-09
8.29065e-08
-3.64493e-08
1.8231e-09
8.45251e-08
-3.70601e-08
-3.06273e-09
8.45963e-08
-3.71154e-08
-7.74313e-09
8.31201e-08
-3.66154e-08
-1.20409e-08
8.01476e-08
-3.55729e-08
-1.57435e-08
7.56394e-08
-3.4003e-08
-1.87084e-08
6.98235e-08
-3.19436e-08
-2.05477e-08
6.23871e-08
-2.9448e-08
-2.1104e-08
5.41125e-08
-2.6639e-08
-1.98398e-08
4.47275e-08
-2.37161e-08
-1.76634e-08
3.74857e-08
-2.10534e-08
-1.48883e-08
3.1619e-08
-1.8792e-08
-1.18282e-08
2.74342e-08
-1.70216e-08
-8.47824e-09
2.44189e-08
-1.5753e-08
-4.786e-09
2.24632e-08
-1.49122e-08
-9.10371e-10
2.13931e-08
-1.41517e-08
1.88339e-09
2.0786e-08
-1.22456e-08
1.92656e-08
-6.38857e-09
-1.16337e-09
1.82306e-08
-4.35264e-09
1.89862e-09
1.99043e-08
-9.22952e-09
6.0104e-09
2.0922e-08
-1.08539e-08
9.98017e-09
2.24523e-08
-1.14435e-08
1.36566e-08
2.48072e-08
-1.20837e-08
1.71766e-08
2.80499e-08
-1.30931e-08
2.07267e-08
3.22703e-08
-1.45709e-08
2.4419e-08
3.77546e-08
-1.65658e-08
2.82084e-08
4.48681e-08
-1.91095e-08
3.1521e-08
5.47333e-08
-2.2244e-08
3.36149e-08
6.71877e-08
-2.58836e-08
3.25103e-08
8.40519e-08
-2.99073e-08
2.95443e-08
9.8242e-08
-3.37387e-08
2.51649e-08
1.10657e-07
-3.71254e-08
2.00514e-08
1.20164e-07
-3.99188e-08
1.43148e-08
1.27576e-07
-4.20501e-08
8.19847e-09
1.3252e-07
-4.34976e-08
1.88876e-09
1.35092e-07
-4.42572e-08
-4.40438e-09
1.35206e-07
-4.43163e-08
-1.04703e-08
1.32861e-07
-4.36749e-08
-1.61217e-08
1.28144e-07
-4.23451e-08
-2.1112e-08
1.20961e-07
-4.03313e-08
-2.53306e-08
1.11698e-07
-3.76554e-08
-2.80939e-08
9.95401e-08
-3.43897e-08
-2.89654e-08
8.56712e-08
-3.06872e-08
-2.65971e-08
6.91713e-08
-2.68121e-08
-2.301e-08
5.72545e-08
-2.33559e-08
-1.88605e-08
4.79313e-08
-2.04618e-08
-1.46428e-08
4.14609e-08
-1.82443e-08
-1.02941e-08
3.67536e-08
-1.66833e-08
-5.68817e-09
3.35248e-08
-1.56675e-08
-9.99703e-10
3.14826e-08
-1.47779e-08
2.28751e-09
3.01328e-08
-1.2634e-08
2.77309e-08
-6.17789e-09
-1.07742e-09
2.3478e-08
-4.16998e-09
2.57327e-09
2.5667e-08
-9.41343e-09
7.47745e-09
2.71955e-08
-1.11776e-08
1.22836e-08
2.94543e-08
-1.18081e-08
1.68292e-08
3.27927e-08
-1.25313e-08
2.13295e-08
3.72722e-08
-1.37226e-08
2.61169e-08
4.30039e-08
-1.55211e-08
3.15149e-08
5.03828e-08
-1.80262e-08
3.76196e-08
6.00605e-08
-2.1297e-08
4.36072e-08
7.41792e-08
-2.54335e-08
4.78918e-08
9.31969e-08
-3.02938e-08
4.591e-08
1.21923e-07
-3.58897e-08
4.09945e-08
1.44314e-07
-4.11564e-08
3.43066e-08
1.6316e-07
-4.58146e-08
2.70036e-08
1.7711e-07
-4.96431e-08
1.90223e-08
1.88043e-07
-5.24859e-08
1.06232e-08
1.95312e-07
-5.43924e-08
1.99805e-09
1.991e-07
-5.53826e-08
-6.6103e-09
1.99261e-07
-5.5447e-08
-1.49575e-08
1.95793e-07
-5.45852e-08
-2.28491e-08
1.88841e-07
-5.28051e-08
-3.00163e-08
1.78215e-07
-5.00867e-08
-3.65179e-08
1.64578e-07
-4.63788e-08
-4.11819e-08
1.46045e-07
-4.18412e-08
-4.28606e-08
1.2405e-07
-3.66998e-08
-3.81999e-08
9.576e-08
-3.12495e-08
-3.18817e-08
7.75134e-08
-2.65771e-08
-2.53353e-08
6.40799e-08
-2.26949e-08
-1.92797e-08
5.51852e-08
-1.97799e-08
-1.34901e-08
4.8725e-08
-1.77611e-08
-7.64625e-09
4.4174e-08
-1.64931e-08
-1.85857e-09
4.11619e-08
-1.54669e-08
2.22633e-09
3.91411e-08
-1.30932e-08
3.60202e-08
-6.06292e-09
-7.37407e-10
2.83081e-08
-4.0927e-09
3.7519e-09
3.09671e-08
-9.78935e-09
9.71266e-09
3.29912e-08
-1.17565e-08
1.56111e-08
3.60232e-08
-1.24674e-08
2.12855e-08
4.04568e-08
-1.33384e-08
2.7066e-08
4.63169e-08
-1.48251e-08
3.35173e-08
5.36749e-08
-1.71222e-08
4.14059e-08
6.28982e-08
-2.04039e-08
5.12644e-08
7.49355e-08
-2.47335e-08
6.22999e-08
9.3421e-08
-3.02773e-08
7.12184e-08
1.2089e-07
-3.66113e-08
6.72041e-08
1.7043e-07
-4.44921e-08
5.8564e-08
2.04826e-07
-5.18724e-08
4.80481e-08
2.32238e-07
-5.85622e-08
3.74244e-08
2.51832e-07
-6.40985e-08
2.60851e-08
2.6738e-07
-6.79978e-08
1.42621e-08
2.77706e-07
-7.05712e-08
2.15466e-09
2.83101e-07
-7.1894e-08
-9.93743e-09
2.83321e-07
-7.19681e-08
-2.17121e-08
2.78361e-07
-7.07927e-08
-3.29654e-08
2.68457e-07
-6.83626e-08
-4.34502e-08
2.53302e-07
-6.46018e-08
-5.37604e-08
2.34082e-07
-5.91938e-08
-6.20932e-08
2.07005e-07
-5.26269e-08
-6.57042e-08
1.73029e-07
-4.53686e-08
-5.6238e-08
1.23918e-07
-3.76241e-08
-4.4836e-08
9.75955e-08
-3.14841e-08
-3.44666e-08
7.99216e-08
-2.62111e-08
-2.57783e-08
6.87718e-08
-2.2275e-08
-1.80839e-08
6.05776e-08
-1.9547e-08
-1.06302e-08
5.45908e-08
-1.78706e-08
-3.37156e-09
5.0513e-08
-1.66098e-08
1.87285e-09
4.77863e-08
-1.38896e-08
4.39991e-08
-6.10603e-09
-1.53186e-10
3.25443e-08
-4.08303e-09
5.4079e-09
3.57664e-08
-1.03604e-08
1.27416e-08
3.82836e-08
-1.26261e-08
2.00388e-08
4.21992e-08
-1.34731e-08
2.7121e-08
4.79429e-08
-1.45683e-08
3.44454e-08
5.54678e-08
-1.64754e-08
4.28853e-08
6.46949e-08
-1.946e-08
5.40117e-08
7.55613e-08
-2.37895e-08
6.94316e-08
8.89842e-08
-2.94686e-08
8.94012e-08
1.10057e-07
-3.6606e-08
1.08489e-07
1.45869e-07
-4.40664e-08
9.95238e-08
2.34051e-07
-5.46565e-08
8.3846e-08
2.84985e-07
-6.44807e-08
6.73578e-08
3.22804e-07
-7.40777e-08
5.20705e-08
3.49341e-07
-8.22219e-08
3.60475e-08
3.70777e-07
-8.73737e-08
1.94038e-08
3.85092e-07
-9.07416e-08
2.36801e-09
3.92595e-07
-9.24579e-08
-1.4657e-08
3.92893e-07
-9.25469e-08
-3.12657e-08
3.85977e-07
-9.10074e-08
-4.72243e-08
3.72225e-07
-8.78092e-08
-6.23949e-08
3.51292e-07
-8.28193e-08
-7.86857e-08
3.25189e-07
-7.48162e-08
-9.40078e-08
2.87676e-07
-6.53489e-08
-1.02434e-07
2.37103e-07
-5.56473e-08
-8.24753e-08
1.49136e-07
-4.51763e-08
-6.21822e-08
1.15224e-07
-3.79216e-08
-4.62217e-08
9.50285e-08
-3.10674e-08
-3.41351e-08
8.2512e-08
-2.58268e-08
-2.41424e-08
7.27152e-08
-2.21304e-08
-1.46963e-08
6.50168e-08
-1.98721e-08
-5.53713e-09
5.9605e-08
-1.82511e-08
1.25793e-09
5.60132e-08
-1.50219e-08
5.15149e-08
-6.25793e-09
4.34642e-10
3.61289e-08
-4.01919e-09
7.56676e-09
3.97951e-08
-1.11608e-08
1.67142e-08
4.29048e-08
-1.37687e-08
2.58255e-08
4.78857e-08
-1.47978e-08
3.46658e-08
5.52934e-08
-1.61908e-08
4.37143e-08
6.50596e-08
-1.86403e-08
5.40071e-08
7.68923e-08
-2.24901e-08
6.81027e-08
8.95872e-08
-2.81215e-08
8.95641e-08
1.02806e-07
-3.52834e-08
1.24379e-07
1.19497e-07
-4.42541e-08
1.66113e-07
1.53401e-07
-4.92656e-08
1.46071e-07
3.1486e-07
-6.07674e-08
1.18885e-07
3.85419e-07
-7.32481e-08
9.42409e-08
4.34575e-07
-8.71262e-08
7.28485e-08
4.69823e-07
-9.909e-08
5.03553e-08
4.98643e-07
-1.05373e-07
2.68108e-08
5.18092e-07
-1.09456e-07
2.65872e-09
5.28271e-07
-1.11524e-07
-2.14911e-08
5.28674e-07
-1.11631e-07
-4.50279e-08
5.19287e-07
-1.09774e-07
-6.7509e-08
5.00598e-07
-1.05893e-07
-8.88607e-08
4.72445e-07
-9.98017e-08
-1.13398e-07
4.37722e-07
-8.79968e-08
-1.40262e-07
3.88803e-07
-7.42631e-08
-1.59586e-07
3.18365e-07
-6.19384e-08
-1.16322e-07
1.56372e-07
-5.0501e-08
-8.14662e-08
1.2606e-07
-4.56911e-08
-5.94649e-08
1.10046e-07
-3.70185e-08
-4.42017e-08
9.76092e-08
-3.03604e-08
-3.19425e-08
8.59161e-08
-2.54601e-08
-2.01616e-08
7.56986e-08
-2.24627e-08
-8.56409e-09
6.83676e-08
-2.03602e-08
2.10932e-10
6.36713e-08
-1.64331e-08
5.81715e-08
-6.44566e-09
1.22567e-09
3.88266e-08
-3.92336e-09
1.03051e-08
4.28499e-08
-1.21342e-08
2.17527e-08
4.66155e-08
-1.51583e-08
3.32052e-08
5.28471e-08
-1.64139e-08
4.43005e-08
6.23636e-08
-1.81654e-08
5.53099e-08
7.52886e-08
-2.12384e-08
6.69525e-08
9.13068e-08
-2.60571e-08
8.23083e-08
1.07322e-07
-3.30904e-08
1.07518e-07
1.19893e-07
-4.22958e-08
1.61819e-07
1.1718e-07
-5.19847e-08
2.51397e-07
1.2262e-07
-5.87969e-08
2.06212e-07
4.1946e-07
-5.94158e-08
1.61884e-07
5.01262e-07
-7.15155e-08
1.28329e-07
5.5869e-07
-9.05591e-08
9.98375e-08
6.05326e-07
-1.07011e-07
6.92282e-08
6.42886e-07
-1.13634e-07
3.66557e-08
6.69015e-07
-1.18351e-07
3.05925e-09
6.82558e-07
-1.20691e-07
-3.05477e-08
6.8309e-07
-1.20809e-07
-6.31555e-08
6.706e-07
-1.18704e-07
-9.38434e-08
6.45493e-07
-1.14207e-07
-1.22455e-07
6.08853e-07
-1.07796e-07
-1.5615e-07
5.62927e-07
-9.15091e-08
-2.00394e-07
5.05683e-07
-7.26362e-08
-2.44654e-07
4.23362e-07
-6.07365e-08
-1.52338e-07
1.24484e-07
-6.04281e-08
-9.8859e-08
1.26189e-07
-5.36073e-08
-7.30569e-08
1.28413e-07
-4.41698e-08
-5.62379e-08
1.16359e-07
-3.55685e-08
-4.20526e-08
1.0112e-07
-2.93894e-08
-2.74698e-08
8.66993e-08
-2.55834e-08
-1.26243e-08
7.64664e-08
-2.29443e-08
-8.77555e-10
7.01566e-08
-1.8232e-08
6.37797e-08
-6.4857e-09
2.32517e-09
4.02983e-08
-3.79691e-09
1.38592e-08
4.45663e-08
-1.32504e-08
2.83489e-08
4.89022e-08
-1.67763e-08
4.31681e-08
5.63346e-08
-1.83067e-08
5.78725e-08
6.8139e-08
-2.04798e-08
7.21857e-08
8.52186e-08
-2.42432e-08
8.52594e-08
1.08248e-07
-3.00149e-08
9.64233e-08
1.35014e-07
-3.88564e-08
1.06308e-07
1.59221e-07
-4.92124e-08
1.50694e-07
1.37786e-07
-6.49928e-08
3.59072e-07
-8.57578e-08
2.77722e-07
5.38838e-07
-3.80269e-08
2.1929e-07
6.03398e-07
-4.37038e-08
1.79061e-07
6.61475e-07
-6.25571e-08
1.41745e-07
7.22564e-07
-7.99221e-08
9.85037e-08
7.69572e-07
-8.3445e-08
5.17288e-08
8.02644e-07
-8.68542e-08
3.61456e-09
8.1929e-07
-8.86175e-08
-4.45184e-08
8.19938e-07
-8.8715e-08
-9.13633e-08
8.04592e-07
-8.71473e-08
-1.34781e-07
7.72819e-07
-8.39079e-08
-1.72436e-07
7.27088e-07
-8.05798e-08
-2.13327e-07
6.67166e-07
-6.33483e-08
-2.72777e-07
6.09793e-07
-4.46597e-08
-3.53933e-07
5.43951e-07
-3.9432e-08
-1.41153e-07
-8.82973e-08
-9.65375e-08
1.47832e-07
-6.62584e-08
-8.68547e-08
1.69735e-07
-5.10043e-08
-7.3865e-08
1.44925e-07
-4.15556e-08
-5.74748e-08
1.18503e-07
-3.37734e-08
-3.85168e-08
9.69782e-08
-2.92369e-08
-1.87663e-08
8.27538e-08
-2.6038e-08
-2.76327e-09
7.4541e-08
-2.03874e-08
6.74087e-08
-6.39229e-09
3.60436e-09
4.03588e-08
-3.6649e-09
1.79571e-08
4.4707e-08
-1.44935e-08
3.60655e-08
4.93991e-08
-1.86053e-08
5.52056e-08
5.76693e-08
-2.04749e-08
7.52035e-08
7.12982e-08
-2.31571e-08
9.5628e-08
9.23699e-08
-2.75757e-08
1.13359e-07
1.24505e-07
-3.3988e-08
1.17976e-07
1.71981e-07
-4.15832e-08
9.39097e-08
2.40568e-07
-5.7281e-08
3.2369e-07
-9.19937e-08
1.72732e-07
3.00791e-07
6.53152e-08
2.34301e-07
5.13016e-07
2.88121e-08
2.31094e-07
6.42281e-07
2.24015e-08
1.90159e-07
7.38905e-07
2.45951e-08
1.33017e-07
8.04356e-07
2.23578e-08
6.98369e-08
8.46081e-07
1.97437e-08
4.35495e-09
8.66169e-07
1.86026e-08
-6.11515e-08
8.66839e-07
1.86055e-08
-1.24424e-07
8.48114e-07
1.97501e-08
-1.81807e-07
8.07826e-07
2.23768e-08
-2.23313e-07
7.43969e-07
2.46245e-08
-2.27878e-07
6.49233e-07
2.24987e-08
-1.68926e-07
5.22194e-07
2.86463e-08
3.10852e-07
6.41726e-08
-9.10454e-08
3.29204e-07
-9.03268e-08
-1.11206e-07
2.48589e-07
-5.86933e-08
-1.02498e-07
1.80754e-07
-4.45369e-08
-7.99268e-08
1.34221e-07
-3.82894e-08
-5.34037e-08
1.03851e-07
-3.33962e-08
-2.67449e-08
8.58132e-08
-2.97183e-08
-5.27422e-09
7.60123e-08
-2.2942e-08
6.84409e-08
-6.30638e-09
5.18504e-09
3.8698e-08
-3.52418e-09
2.2883e-08
4.28264e-08
-1.58173e-08
4.56487e-08
4.71941e-08
-2.05608e-08
7.13614e-08
5.47951e-08
-2.28384e-08
1.0182e-07
6.70507e-08
-2.62107e-08
1.4066e-07
8.53074e-08
-3.17774e-08
1.93652e-07
1.11284e-07
-3.97715e-08
2.68269e-07
1.45408e-07
-4.80445e-08
3.77889e-07
1.84601e-07
-5.36527e-08
5.25803e-07
2.18856e-07
-4.308e-08
4.08687e-07
8.12898e-08
3.58262e-08
4.32534e-07
2.23344e-07
5.36001e-08
4.21866e-07
3.89918e-07
1.33766e-07
3.62995e-07
5.03885e-07
1.97267e-07
2.78169e-07
5.90199e-07
2.33531e-07
1.86562e-07
6.4848e-07
2.47484e-07
9.53785e-08
6.85323e-07
2.51941e-07
5.12521e-09
7.03097e-07
2.53326e-07
-8.51112e-08
7.03675e-07
2.534e-07
-1.76241e-07
6.87073e-07
2.52171e-07
-2.67761e-07
6.51451e-07
2.47895e-07
-3.5246e-07
5.94468e-07
2.34199e-07
-4.1121e-07
5.09544e-07
1.98439e-07
-4.21328e-07
3.96766e-07
1.35547e-07
-3.98169e-07
2.31096e-07
5.65981e-08
-5.20656e-07
8.3694e-08
3.87926e-08
-3.72529e-07
2.23568e-07
-4.24916e-08
-2.60345e-07
1.91431e-07
-5.50253e-08
-1.81927e-07
1.53369e-07
-5.10332e-08
-1.23537e-07
1.20427e-07
-4.45955e-08
-7.7438e-08
9.63025e-08
-3.85504e-08
-3.86637e-08
8.10406e-08
-3.40018e-08
-9.22661e-09
7.24685e-08
-2.58933e-08
6.54342e-08
-6.21993e-09
6.50816e-09
3.5588e-08
-3.39821e-09
2.70964e-08
3.93068e-08
-1.70686e-08
5.36581e-08
4.30606e-08
-2.24283e-08
8.41253e-08
4.94349e-08
-2.51069e-08
1.20938e-07
5.93733e-08
-2.91351e-08
1.68642e-07
7.34327e-08
-3.58294e-08
2.33582e-07
9.1817e-08
-4.5474e-08
3.21809e-07
1.13492e-07
-5.63109e-08
4.36949e-07
1.33694e-07
-6.42334e-08
5.68219e-07
1.47144e-07
-5.95577e-08
5.77325e-07
1.04372e-07
-3.21877e-08
5.92716e-07
1.85647e-07
2.23062e-08
5.45775e-07
2.86649e-07
1.50209e-07
4.52471e-07
3.64657e-07
2.32533e-07
3.4043e-07
4.26297e-07
2.75944e-07
2.25843e-07
4.68458e-07
2.94608e-07
1.1447e-07
4.95639e-07
3.01058e-07
5.71706e-09
5.08854e-07
3.02996e-07
-1.03005e-07
5.0933e-07
3.03067e-07
-2.14282e-07
4.97073e-07
3.01277e-07
-3.28706e-07
4.70862e-07
2.95013e-07
-4.4054e-07
4.29673e-07
2.76629e-07
-5.33763e-07
3.68984e-07
2.33782e-07
-5.80906e-07
2.91695e-07
1.52214e-07
-5.66601e-07
1.91064e-07
2.57271e-08
-5.60831e-07
1.07878e-07
-2.99549e-08
-4.30264e-07
1.52074e-07
-5.90725e-08
-3.13102e-07
1.39837e-07
-6.55682e-08
-2.20963e-07
1.20695e-07
-5.94651e-08
-1.49996e-07
1.00231e-07
-5.07716e-08
-9.39256e-08
8.36555e-08
-4.34231e-08
-4.72914e-08
7.23665e-08
-3.79601e-08
-1.19651e-08
6.57059e-08
-2.85637e-08
5.9618e-08
-6.14885e-09
7.65713e-09
3.12121e-08
-3.28119e-09
3.07493e-08
3.4385e-08
-1.81704e-08
6.05101e-08
3.73654e-08
-2.40656e-08
9.47321e-08
4.22859e-08
-2.7073e-08
1.36024e-07
4.97222e-08
-3.16404e-08
1.88988e-07
5.97947e-08
-3.93263e-08
2.59285e-07
7.21712e-08
-5.06514e-08
3.51383e-07
8.59835e-08
-6.45892e-08
4.64372e-07
9.78858e-08
-7.71806e-08
5.84301e-07
1.07541e-07
-8.03267e-08
6.47269e-07
1.01427e-07
-6.0024e-08
6.8076e-07
1.47553e-07
4.60423e-09
6.2398e-07
2.06703e-07
1.36727e-07
5.14358e-07
2.56375e-07
2.17904e-07
3.84113e-07
2.97078e-07
2.59463e-07
2.5357e-07
3.25469e-07
2.73533e-07
1.2809e-07
3.4423e-07
2.76888e-07
6.19875e-09
3.53484e-07
2.77261e-07
-1.15657e-07
3.53885e-07
2.77301e-07
-2.41026e-07
3.45429e-07
2.77013e-07
-3.71394e-07
3.2745e-07
2.7378e-07
-5.01453e-07
2.99806e-07
2.59926e-07
-6.11144e-07
2.59795e-07
2.18881e-07
-6.68542e-07
2.10635e-07
1.38458e-07
-6.37033e-07
1.51843e-07
7.71202e-09
-5.76304e-07
1.05202e-07
-5.8053e-08
-4.56687e-07
1.12174e-07
-7.97167e-08
-3.41751e-07
1.03351e-07
-7.84504e-08
-2.45578e-07
9.23691e-08
-6.7847e-08
-1.68722e-07
7.96819e-08
-5.63065e-08
-1.06453e-07
6.894e-08
-4.75532e-08
-5.40836e-08
6.1259e-08
-4.12622e-08
-1.41257e-08
5.65267e-08
-3.07787e-08
5.15389e-08
-6.04658e-09
8.48322e-09
2.59326e-08
-3.20368e-09
3.34712e-08
2.84908e-08
-1.90938e-08
6.55455e-08
3.07193e-08
-2.54283e-08
1.02222e-07
3.43029e-08
-2.86932e-08
1.4602e-07
3.9593e-08
-3.36695e-08
2.01369e-07
4.65433e-08
-4.20969e-08
2.73427e-07
5.47655e-08
-5.46527e-08
3.6628e-07
6.37811e-08
-7.06508e-08
4.78302e-07
7.18489e-08
-8.59851e-08
5.97746e-07
8.04415e-08
-9.2344e-08
6.86208e-07
8.57751e-08
-7.28095e-08
7.31684e-07
1.13919e-07
-1.18429e-08
6.70307e-07
1.49592e-07
1.18488e-07
5.52198e-07
1.80948e-07
1.93536e-07
4.11929e-07
2.07351e-07
2.29997e-07
2.71829e-07
2.26328e-07
2.3924e-07
1.37256e-07
2.39116e-07
2.39688e-07
6.59295e-09
2.45539e-07
2.38607e-07
-1.2404e-07
2.45899e-07
2.38619e-07
-2.58523e-07
2.40185e-07
2.39726e-07
-3.98486e-07
2.28074e-07
2.39338e-07
-5.38639e-07
2.09714e-07
2.30245e-07
-6.56939e-07
1.83854e-07
1.94241e-07
-7.19135e-07
1.52899e-07
1.19933e-07
-6.75972e-07
1.1755e-07
-8.87022e-09
-5.89185e-07
8.93882e-08
-7.09731e-08
-4.69837e-07
8.46208e-08
-9.17947e-08
-3.55794e-07
7.66238e-08
-8.73162e-08
-2.58657e-07
6.92918e-08
-7.40589e-08
-1.79582e-07
6.12195e-08
-6.06125e-08
-1.14177e-07
5.43488e-08
-5.08141e-08
-5.83459e-08
4.93113e-08
-4.38836e-08
-1.53646e-08
4.60936e-08
-3.25483e-08
4.22054e-08
-6.03104e-09
9.07581e-09
2.00161e-08
-3.15936e-09
3.5468e-08
2.1927e-08
-1.98283e-08
6.92195e-08
2.34661e-08
-2.64983e-08
1.07582e-07
2.58892e-08
-2.9949e-08
1.52964e-07
2.94246e-08
-3.52135e-08
2.09649e-07
3.40141e-08
-4.41554e-08
2.82554e-07
3.9407e-08
-5.75469e-08
3.75759e-07
4.54391e-08
-7.48632e-08
4.88104e-07
5.13821e-08
-9.18783e-08
6.10032e-07
5.86176e-08
-1.00104e-07
7.10787e-07
6.6043e-08
-8.10224e-08
7.62701e-07
8.38227e-08
-2.18177e-08
6.99793e-07
1.05807e-07
1.06692e-07
5.77085e-07
1.25705e-07
1.77952e-07
4.30611e-07
1.4273e-07
2.11095e-07
2.84305e-07
1.55289e-07
2.17344e-07
1.4362e-07
1.63876e-07
2.15925e-07
6.94878e-09
1.68285e-07
2.13925e-07
-1.29704e-07
1.68631e-07
2.13921e-07
-2.70333e-07
1.64897e-07
2.15917e-07
-4.16559e-07
1.56938e-07
2.17362e-07
-5.62999e-07
1.4493e-07
2.11225e-07
-6.86007e-07
1.28359e-07
1.78502e-07
-7.49855e-07
1.08789e-07
1.07959e-07
-7.00366e-07
8.70482e-08
-1.89874e-08
-6.0103e-07
6.93602e-08
-7.93079e-08
-4.79059e-07
6.22834e-08
-9.96334e-08
-3.64568e-07
5.54379e-08
-9.33056e-08
-2.6687e-07
5.00162e-08
-7.84223e-08
-1.86573e-07
4.46799e-08
-6.37576e-08
-1.19258e-07
4.02818e-08
-5.32473e-08
-6.11533e-08
3.70723e-08
-4.58663e-08
-1.61315e-08
3.498e-08
-3.39082e-08
3.21361e-08
-6.06223e-09
9.44993e-09
1.37197e-08
-3.15349e-09
3.67883e-08
1.49687e-08
-2.03801e-08
7.16554e-08
1.58857e-08
-2.72867e-08
1.11102e-07
1.73045e-08
-3.08617e-08
1.57459e-07
1.93788e-08
-3.63118e-08
2.14954e-07
2.20949e-08
-4.5575e-08
2.88465e-07
2.53643e-08
-5.94685e-08
3.82231e-07
2.91965e-08
-7.75241e-08
4.95647e-07
3.34034e-08
-9.54364e-08
6.20028e-07
3.88043e-08
-1.04568e-07
7.26827e-07
4.51239e-08
-8.58799e-08
7.82263e-07
5.59063e-08
-2.75192e-08
7.18537e-07
6.87279e-08
1.00805e-07
5.93119e-07
8.05186e-08
1.70604e-07
4.42883e-07
9.06567e-08
2.02309e-07
2.92651e-07
9.83231e-08
2.07198e-07
1.47965e-07
1.03635e-07
2.04928e-07
7.28746e-09
1.06457e-07
2.02506e-07
-1.33388e-07
1.06809e-07
2.02497e-07
-2.78064e-07
1.0467e-07
2.04903e-07
-4.28292e-07
9.99792e-08
2.07187e-07
-5.78593e-07
9.28369e-08
2.02394e-07
-7.04419e-07
8.30964e-08
1.71089e-07
-7.69181e-07
7.15633e-08
1.01987e-07
-7.16219e-07
5.88761e-08
-2.47893e-08
-6.10723e-07
4.81295e-08
-8.42659e-08
-4.86202e-07
4.19587e-08
-1.04196e-07
-3.70528e-07
3.67423e-08
-9.69783e-08
-2.72098e-07
3.28176e-08
-8.12319e-08
-1.90917e-07
2.93898e-08
-6.58901e-08
-1.22392e-07
2.67139e-08
-5.49571e-08
-6.28485e-08
2.48212e-08
-4.72928e-08
-1.65392e-08
2.3584e-08
-3.49133e-08
2.17434e-08
-6.14647e-09
9.6556e-09
7.24351e-09
-3.17944e-09
3.75523e-08
7.82489e-09
-2.07529e-08
7.30838e-08
8.15666e-09
-2.78025e-08
1.13184e-07
8.65315e-09
-3.14487e-08
1.60155e-07
9.41088e-09
-3.70029e-08
2.18217e-07
1.0476e-08
-4.64431e-08
2.92276e-07
1.19121e-08
-6.06076e-08
3.8669e-07
1.38276e-08
-7.90443e-08
5.01144e-07
1.6353e-08
-9.74037e-08
6.27211e-07
1.96938e-08
-1.06956e-07
7.36877e-07
2.38956e-08
-8.84382e-08
7.93989e-07
2.9019e-08
-3.02243e-08
7.29804e-07
3.44114e-08
9.85017e-08
6.02831e-07
3.94273e-08
1.68064e-07
4.50422e-07
4.36824e-08
1.99383e-07
2.97856e-07
4.70566e-08
2.03833e-07
1.50754e-07
4.9465e-08
2.01271e-07
7.63116e-09
5.08769e-08
1.98703e-07
-1.3551e-07
5.12555e-08
1.98694e-07
-2.82662e-07
5.05769e-08
2.01245e-07
-4.35321e-07
4.8821e-08
2.03817e-07
-5.87915e-07
4.59742e-08
1.99457e-07
-7.15428e-07
4.20842e-08
1.68524e-07
-7.80766e-07
3.72634e-08
9.96382e-08
-7.26182e-07
3.18621e-08
-2.757e-08
-6.1777e-07
2.66353e-08
-8.69175e-08
-4.91505e-07
2.23815e-08
-1.06688e-07
-3.74708e-07
1.90074e-08
-9.90619e-08
-2.75511e-07
1.65082e-08
-8.28874e-08
-1.93605e-07
1.46834e-08
-6.72e-08
-1.24266e-07
1.3416e-08
-5.60415e-08
-6.38317e-08
1.2608e-08
-4.82207e-08
-1.67559e-08
1.20985e-08
-3.55903e-08
1.12393e-08
-6.25183e-09
9.70831e-09
7.72042e-10
-3.23684e-09
3.78011e-08
6.83784e-10
-2.09517e-08
7.35822e-08
4.30138e-10
-2.80546e-08
1.13957e-07
3.3417e-12
-3.17246e-08
1.61239e-07
-5.59474e-10
-3.7312e-08
2.1968e-07
-1.15679e-09
-4.68078e-08
2.94223e-07
-1.57603e-09
-6.10556e-08
3.89261e-07
-1.60648e-09
-7.96034e-08
5.04487e-07
-7.83651e-10
-9.80896e-08
6.31397e-07
5.41171e-10
-1.07758e-07
7.41793e-07
2.79275e-09
-8.92924e-08
7.99161e-07
2.66486e-09
-3.10146e-08
7.34678e-07
7.85937e-10
9.81085e-08
6.07019e-07
-8.27969e-10
1.67915e-07
4.53751e-07
-2.39461e-09
1.99345e-07
3.0024e-07
-3.26168e-09
2.0383e-07
1.52147e-07
-3.71569e-09
2.01273e-07
7.99952e-09
-3.67946e-09
1.98704e-07
-1.36192e-07
-3.24812e-09
1.98695e-07
-2.84412e-07
-2.44913e-09
2.01247e-07
-4.38142e-07
-1.2612e-09
2.03812e-07
-5.91746e-07
1.59599e-10
1.99418e-07
-7.20112e-07
2.09883e-09
1.68351e-07
-7.85924e-07
3.88862e-09
9.9187e-08
-7.31158e-07
5.54891e-09
-2.84525e-08
-6.22007e-07
5.36541e-09
-8.78814e-08
-4.94872e-07
2.85816e-09
-1.07612e-07
-3.77255e-07
1.26139e-09
-9.98713e-08
-2.77369e-07
1.92952e-10
-8.35702e-08
-1.94905e-07
2.34996e-12
-6.77836e-08
-1.25086e-07
1.54564e-10
-5.65575e-08
-6.4229e-08
4.38605e-10
-4.86871e-08
-1.68287e-08
6.57431e-10
-3.59593e-08
7.8332e-10
-6.37267e-09
9.60886e-09
-5.51098e-09
-3.32584e-09
3.7535e-08
-6.26387e-09
-2.09785e-08
7.31498e-08
-7.13834e-09
-2.80463e-08
1.13415e-07
-8.56803e-09
-3.16941e-08
1.60701e-07
-1.05994e-08
-3.72463e-08
2.19324e-07
-1.30989e-08
-4.66804e-08
2.94285e-07
-1.5706e-08
-6.08307e-08
3.89944e-07
-1.80353e-08
-7.92306e-08
5.05739e-07
-1.90406e-08
-9.75385e-08
6.32733e-07
-1.94128e-08
-1.07039e-07
7.41847e-07
-1.77884e-08
-8.85329e-08
7.98009e-07
-2.34384e-08
-3.00594e-08
7.3325e-07
-3.38124e-08
9.93574e-08
6.05741e-07
-4.31672e-08
1.69849e-07
4.52915e-07
-5.14213e-08
2.01852e-07
2.99842e-07
-5.70071e-08
2.06819e-07
1.52178e-07
-6.05948e-08
2.04543e-07
8.41982e-09
-6.20272e-08
2.02106e-07
-1.35412e-07
-6.15051e-08
2.02089e-07
-2.83297e-07
-5.90579e-08
2.04493e-07
-4.36735e-07
-5.45791e-08
2.06756e-07
-5.90139e-07
-4.82819e-08
2.01846e-07
-7.18612e-07
-3.963e-08
1.70202e-07
-7.84886e-07
-3.01896e-08
1.00352e-07
-7.31462e-07
-2.02329e-08
-2.76424e-08
-6.23605e-07
-1.52168e-08
-8.72741e-08
-4.96353e-07
-1.73458e-08
-1.07048e-07
-3.78159e-07
-1.74597e-08
-9.94734e-08
-2.77674e-07
-1.69455e-08
-8.33462e-08
-1.94814e-07
-1.51758e-08
-6.7682e-08
-1.24857e-07
-1.32723e-08
-5.65304e-08
-6.40406e-08
-1.16715e-08
-4.87058e-08
-1.6757e-08
-1.05971e-08
-3.60291e-08
-9.46233e-09
-6.51135e-09
9.34077e-09
-1.14009e-08
-3.4509e-09
3.67145e-08
-1.28038e-08
-2.08337e-08
7.17096e-08
-1.43583e-08
-2.77752e-08
1.11427e-07
-1.69335e-08
-3.13514e-08
1.58332e-07
-2.07115e-08
-3.67935e-08
2.16862e-07
-2.55952e-08
-4.60334e-08
2.92151e-07
-3.11215e-08
-5.9874e-08
3.88538e-07
-3.66247e-08
-7.77978e-08
5.05021e-07
-4.0009e-08
-9.55142e-08
6.31725e-07
-4.17051e-08
-1.04411e-07
7.36774e-07
-3.7133e-08
-8.57049e-08
7.89558e-07
-4.96454e-08
-2.65763e-08
7.24687e-07
-7.2445e-08
1.03504e-07
5.98358e-07
-9.24976e-08
1.75659e-07
4.47518e-07
-1.09706e-07
2.09125e-07
2.96446e-07
-1.21325e-07
2.1539e-07
1.50765e-07
-1.288e-07
2.13886e-07
8.92338e-09
-1.31998e-07
2.11813e-07
-1.33029e-07
-1.31331e-07
2.11778e-07
-2.79046e-07
-1.26822e-07
2.13781e-07
-4.3068e-07
-1.18178e-07
2.15233e-07
-5.82372e-07
-1.05578e-07
2.08988e-07
-7.09988e-07
-8.78409e-08
1.75827e-07
-7.76751e-07
-6.76932e-08
1.04267e-07
-7.26895e-07
-4.56668e-08
-2.44227e-08
-6.23091e-07
-3.43395e-08
-8.46814e-08
-4.9611e-07
-3.9666e-08
-1.0466e-07
-3.77243e-07
-3.86727e-08
-9.76548e-08
-2.76088e-07
-3.60297e-08
-8.20706e-08
-1.93028e-07
-3.14092e-08
-6.68266e-08
-1.23353e-07
-2.70218e-08
-5.59253e-08
-6.3139e-08
-2.36236e-08
-4.82618e-08
-1.64909e-08
-2.14487e-08
-3.57965e-08
-1.92697e-08
-6.68354e-09
8.85713e-09
-1.66378e-08
-3.62016e-09
3.52257e-08
-1.86542e-08
-2.05183e-08
6.90399e-08
-2.0933e-08
-2.72395e-08
1.07591e-07
-2.4796e-08
-3.0689e-08
1.5347e-07
-3.06617e-08
-3.59288e-08
2.11313e-07
-3.86379e-08
-4.47995e-08
2.86604e-07
-4.83871e-08
-5.80262e-08
3.83916e-07
-5.89927e-08
-7.49437e-08
5.02081e-07
-6.68209e-08
-9.13531e-08
6.29235e-07
-7.00969e-08
-9.87619e-08
7.25127e-07
-5.31517e-08
-7.9874e-08
7.70782e-07
-7.57591e-08
-1.95408e-08
7.05902e-07
-1.19715e-07
1.1215e-07
5.82443e-07
-1.56852e-07
1.87813e-07
4.35988e-07
-1.87546e-07
2.24295e-07
2.89172e-07
-2.0779e-07
2.33281e-07
1.47543e-07
-2.2059e-07
2.33418e-07
9.56362e-09
-2.26136e-07
2.32118e-07
-1.28567e-07
-2.2524e-07
2.32039e-07
-2.70661e-07
-2.17906e-07
2.33178e-07
-4.1827e-07
-2.03461e-07
2.32893e-07
-5.65949e-07
-1.81734e-07
2.23836e-07
-6.91165e-07
-1.50202e-07
1.87577e-07
-7.58533e-07
-1.12804e-07
1.12478e-07
-7.16127e-07
-7.02376e-08
-1.78352e-08
-6.21341e-07
-4.99069e-08
-7.92193e-08
-4.93852e-07
-6.77555e-08
-9.93992e-08
-3.73345e-07
-6.53621e-08
-9.38176e-08
-2.71389e-07
-5.85381e-08
-7.94476e-08
-1.88556e-07
-4.91485e-08
-6.50933e-08
-1.19913e-07
-4.09771e-08
-5.46876e-08
-6.11436e-08
-3.5068e-08
-4.73252e-08
-1.58693e-08
-3.14704e-08
-3.52526e-08
-2.8212e-08
-6.92696e-09
8.15431e-09
-2.09633e-08
-3.8288e-09
3.30479e-08
-2.35163e-08
-2.00315e-08
6.50646e-08
-2.65133e-08
-2.64363e-08
1.01688e-07
-3.17228e-08
-2.96969e-08
1.45585e-07
-3.99279e-08
-3.46304e-08
2.0158e-07
-5.16986e-08
-4.29341e-08
2.75712e-07
-6.73176e-08
-5.5202e-08
3.732e-07
-8.60181e-08
-7.04623e-08
4.94183e-07
-1.03177e-07
-8.46278e-08
6.26094e-07
-1.12507e-07
-8.9501e-08
7.0262e-07
-6.01542e-08
-6.9523e-08
7.3369e-07
-9.9482e-08
-7.34718e-09
6.71148e-07
-1.82812e-07
1.25638e-07
5.54395e-07
-2.46279e-07
2.06179e-07
4.16095e-07
-2.96162e-07
2.46916e-07
2.76762e-07
-3.28534e-07
2.60078e-07
1.41986e-07
-3.48458e-07
2.62644e-07
1.04236e-08
-3.57083e-07
2.62509e-07
-1.21321e-07
-3.55843e-07
2.62349e-07
-2.56684e-07
-3.44699e-07
2.62155e-07
-3.97055e-07
-3.2236e-07
2.5927e-07
-5.37069e-07
-2.87608e-07
2.45887e-07
-6.56261e-07
-2.36274e-07
2.05264e-07
-7.22329e-07
-1.72035e-07
1.25299e-07
-6.95128e-07
-9.12221e-08
-6.21621e-09
-6.19155e-07
-5.65077e-08
-6.93719e-08
-4.86814e-07
-1.0932e-07
-9.07761e-08
-3.63598e-07
-1.00979e-07
-8.75996e-08
-2.6165e-07
-8.51804e-08
-7.53055e-08
-1.8029e-07
-6.81051e-08
-6.24038e-08
-1.13973e-07
-5.45361e-08
-5.2758e-08
-5.78027e-08
-4.53937e-08
-4.58444e-08
-1.48203e-08
-4.00909e-08
-3.43618e-08
-3.57981e-08
-7.23427e-09
7.14716e-09
-2.40252e-08
-4.08529e-09
2.99896e-08
-2.69686e-08
-1.93901e-08
5.93585e-08
-3.04891e-08
-2.53931e-08
9.2779e-08
-3.67392e-08
-2.84042e-08
1.32707e-07
-4.69393e-08
-3.29166e-08
1.83854e-07
-6.24212e-08
-4.04241e-08
2.52848e-07
-8.49983e-08
-5.13137e-08
3.46557e-07
-1.1582e-07
-6.39072e-08
4.70363e-07
-1.52931e-07
-7.40511e-08
6.20751e-07
-1.91323e-07
-7.15716e-08
6.57495e-07
-5.10469e-08
-4.58519e-08
6.60104e-07
-1.09433e-07
7.34244e-09