/*--------------------------------*- C++ -*----------------------------------*\
| =========                 |                                                 |
| \\      /  F ield         | OpenFOAM: The Open Source CFD Toolbox           |
|  \\    /   O peration     | Version:  2112                                  |
|   \\  /    A nd           | Website:  www.openfoam.com                      |
|    \\/     M anipulation  |                                                 |
\*---------------------------------------------------------------------------*/
FoamFile
{
    version     2.0;
    format      ascii;
    arch        "LSB;label=32;scalar=64";
    class       volVectorField;
    location    "1.6";
    object      U;
}
// * * * * * * * * * * * * * * * * * * * * * * * * * * * * * * * * * * * * * //

dimensions      [0 1 -1 0 0 0 0];

internalField   nonuniform List<vector> 
64906
(
(4.71055e-07 1.58101e-06 -2.36511e-06)
(2.88006e-06 5.70731e-07 -2.42315e-06)
(6.28479e-06 -2.19958e-07 -2.06468e-06)
(9.76663e-06 -7.4075e-07 -1.73189e-06)
(1.32122e-05 -9.67363e-07 -1.55561e-06)
(1.65321e-05 -1.00627e-06 -1.50289e-06)
(1.97116e-05 -9.31896e-07 -1.52318e-06)
(2.26747e-05 -7.55286e-07 -1.57748e-06)
(2.53296e-05 -4.84064e-07 -1.65011e-06)
(2.73918e-05 -3.50877e-08 -1.70946e-06)
(2.86375e-05 5.13405e-07 -1.77249e-06)
(2.86094e-05 1.30989e-06 -1.80472e-06)
(2.71443e-05 1.97399e-06 -1.83037e-06)
(2.44524e-05 2.59801e-06 -1.81947e-06)
(2.06597e-05 3.05859e-06 -1.80866e-06)
(1.60564e-05 3.41724e-06 -1.79131e-06)
(1.0846e-05 3.64358e-06 -1.78213e-06)
(5.29473e-06 3.75575e-06 -1.77949e-06)
(-3.65378e-07 3.74882e-06 -1.78651e-06)
(-5.87843e-06 3.62295e-06 -1.80281e-06)
(-1.10123e-05 3.38324e-06 -1.82541e-06)
(-1.55024e-05 3.01173e-06 -1.85597e-06)
(-1.91492e-05 2.54028e-06 -1.87944e-06)
(-2.16653e-05 1.90706e-06 -1.90309e-06)
(-2.29342e-05 1.23961e-06 -1.89023e-06)
(-2.27496e-05 4.43342e-07 -1.87375e-06)
(-2.12855e-05 -8.98749e-08 -1.83207e-06)
(-1.90029e-05 -5.09461e-07 -1.80942e-06)
(-1.6116e-05 -7.07499e-07 -1.80539e-06)
(-1.29113e-05 -7.15856e-07 -1.8876e-06)
(-9.48561e-06 -4.287e-07 -2.12866e-06)
(-6.01158e-06 2.65059e-07 -2.59711e-06)
(-2.6749e-06 1.30869e-06 -3.13674e-06)
(-2.55175e-07 2.47926e-06 -3.15397e-06)
(-1.01518e-06 6.52886e-06 -2.97362e-06)
(9.57785e-07 5.76628e-06 -6.29123e-06)
(5.53681e-06 4.98437e-06 -7.16808e-06)
(9.75267e-06 4.60193e-06 -7.33249e-06)
(1.37145e-05 4.78055e-06 -7.59158e-06)
(1.73806e-05 5.4252e-06 -8.09363e-06)
(2.08415e-05 6.463e-06 -8.83738e-06)
(2.40707e-05 7.92569e-06 -9.80268e-06)
(2.70476e-05 9.85407e-06 -1.09799e-05)
(2.94138e-05 1.2475e-05 -1.23603e-05)
(3.09736e-05 1.56116e-05 -1.39163e-05)
(3.10253e-05 1.95406e-05 -1.55805e-05)
(2.93695e-05 2.3058e-05 -1.71744e-05)
(2.64073e-05 2.62657e-05 -1.85941e-05)
(2.22413e-05 2.87891e-05 -1.9782e-05)
(1.72514e-05 3.07494e-05 -2.07071e-05)
(1.16117e-05 3.20497e-05 -2.13465e-05)
(5.62499e-06 3.27173e-05 -2.16879e-05)
(-4.80088e-07 3.27337e-05 -2.17235e-05)
(-6.42412e-06 3.20994e-05 -2.14532e-05)
(-1.19793e-05 3.08343e-05 -2.08853e-05)
(-1.68434e-05 2.89124e-05 -2.00326e-05)
(-2.08474e-05 2.64354e-05 -1.89188e-05)
(-2.36125e-05 2.32837e-05 -1.75766e-05)
(-2.50488e-05 1.98449e-05 -1.60662e-05)
(-2.47551e-05 1.60136e-05 -1.44967e-05)
(-2.29421e-05 1.3024e-05 -1.30542e-05)
(-2.03036e-05 1.05886e-05 -1.18195e-05)
(-1.69872e-05 8.9419e-06 -1.08441e-05)
(-1.32966e-05 7.93636e-06 -1.01718e-05)
(-9.17165e-06 7.66416e-06 -9.81192e-06)
(-4.71938e-06 8.17643e-06 -9.57991e-06)
(7.09646e-08 9.18019e-06 -8.45942e-06)
(1.77051e-06 9.92953e-06 -4.06988e-06)
(-1.8539e-06 1.43331e-05 -2.83272e-06)
(-1.28875e-07 1.52329e-05 -7.28801e-06)
(5.21079e-06 1.54585e-05 -8.61321e-06)
(1.01129e-05 1.61082e-05 -8.977e-06)
(1.46949e-05 1.75218e-05 -9.39394e-06)
(1.89055e-05 1.97127e-05 -1.00886e-05)
(2.29322e-05 2.27e-05 -1.10975e-05)
(2.68063e-05 2.66421e-05 -1.24216e-05)
(3.06225e-05 3.1699e-05 -1.40647e-05)
(3.38607e-05 3.83962e-05 -1.60333e-05)
(3.63378e-05 4.64165e-05 -1.82884e-05)
(3.66449e-05 5.63446e-05 -2.07239e-05)
(3.44709e-05 6.52475e-05 -2.30639e-05)
(3.07774e-05 7.32977e-05 -2.51427e-05)
(2.56862e-05 7.96786e-05 -2.68746e-05)
(1.97717e-05 8.46499e-05 -2.82151e-05)
(1.31466e-05 8.79815e-05 -2.91365e-05)
(6.17345e-06 8.97092e-05 -2.9625e-05)
(-9.32915e-07 8.97828e-05 -2.96695e-05)
(-7.86068e-06 8.8203e-05 -2.927e-05)
(-1.43955e-05 8.50232e-05 -2.84379e-05)
(-2.01733e-05 8.02098e-05 -2.71875e-05)
(-2.50861e-05 7.40033e-05 -2.55475e-05)
(-2.85557e-05 6.61481e-05 -2.35649e-05)
(-3.04769e-05 5.74891e-05 -2.13282e-05)
(-2.98784e-05 4.78455e-05 -1.90106e-05)
(-2.70917e-05 4.02123e-05 -1.68972e-05)
(-2.35082e-05 3.39545e-05 -1.51106e-05)
(-1.92175e-05 2.94625e-05 -1.37148e-05)
(-1.46509e-05 2.62735e-05 -1.27327e-05)
(-9.59326e-06 2.4324e-05 -1.21233e-05)
(-4.18779e-06 2.3454e-05 -1.1596e-05)
(1.61841e-06 2.31173e-05 -9.87115e-06)
(2.92839e-06 2.17057e-05 -3.97204e-06)
(-2.25843e-06 2.22698e-05 -2.56004e-06)
(-4.09572e-07 2.42309e-05 -7.36115e-06)
(5.77258e-06 2.52912e-05 -8.79724e-06)
(1.15446e-05 2.69588e-05 -9.16955e-06)
(1.70217e-05 2.96518e-05 -9.6056e-06)
(2.2139e-05 3.3446e-05 -1.03674e-05)
(2.72061e-05 3.84402e-05 -1.15128e-05)
(3.23428e-05 4.4957e-05 -1.30664e-05)
(3.78802e-05 5.33645e-05 -1.50477e-05)
(4.29951e-05 6.47703e-05 -1.74912e-05)
(4.75675e-05 7.87989e-05 -2.03412e-05)
(4.84317e-05 9.69399e-05 -2.34889e-05)
(4.50158e-05 0.000112673 -2.65004e-05)
(3.97178e-05 0.000126642 -2.91513e-05)
(3.26986e-05 0.000137506 -3.13411e-05)
(2.48993e-05 0.000145967 -3.30087e-05)
(1.62704e-05 0.000151623 -3.41444e-05)
(7.28809e-06 0.000154563 -3.47413e-05)
(-1.85891e-06 0.000154695 -3.4788e-05)
(-1.07931e-05 0.000152019 -3.42843e-05)
(-1.93259e-05 0.00014663 -3.32414e-05)
(-2.6975e-05 0.000138442 -3.16668e-05)
(-3.37937e-05 0.00012787 -2.95699e-05)
(-3.88256e-05 0.000114219 -2.70151e-05)
(-4.19351e-05 9.88816e-05 -2.41051e-05)
(-4.06926e-05 8.11916e-05 -2.1075e-05)
(-3.57232e-05 6.77956e-05 -1.8369e-05)
(-3.01754e-05 5.7059e-05 -1.61179e-05)
(-2.40099e-05 4.94623e-05 -1.44045e-05)
(-1.79484e-05 4.39485e-05 -1.32287e-05)
(-1.15233e-05 4.02479e-05 -1.25256e-05)
(-4.90073e-06 3.80206e-05 -1.19498e-05)
(2.03086e-06 3.66053e-05 -1.00711e-05)
(3.49216e-06 3.37712e-05 -3.68572e-06)
(-2.3655e-06 3.00402e-05 -2.34771e-06)
(-3.76025e-08 3.28401e-05 -7.46127e-06)
(7.31555e-06 3.46682e-05 -8.99668e-06)
(1.42466e-05 3.73747e-05 -9.36714e-06)
(2.09404e-05 4.14341e-05 -9.84118e-06)
(2.73525e-05 4.69433e-05 -1.07251e-05)
(3.39834e-05 5.40573e-05 -1.21046e-05)
(4.11276e-05 6.32804e-05 -1.40483e-05)
(4.96304e-05 7.53212e-05 -1.65962e-05)
(5.82219e-05 9.23726e-05 -1.98392e-05)
(6.71549e-05 0.000114422 -2.3674e-05)
(6.91123e-05 0.000145423 -2.80946e-05)
(6.29484e-05 0.000170775 -3.22713e-05)
(5.46151e-05 0.000192653 -3.59417e-05)
(4.42431e-05 0.000209178 -3.89616e-05)
(3.3334e-05 0.00022208 -4.11893e-05)
(2.14029e-05 0.000230673 -4.26909e-05)
(9.12279e-06 0.000235147 -4.34717e-05)
(-3.37975e-06 0.000235342 -4.35221e-05)
(-1.56107e-05 0.000231258 -4.28417e-05)
(-2.74429e-05 0.000223054 -4.14389e-05)
(-3.81895e-05 0.000210537 -3.93087e-05)
(-4.83381e-05 0.000194413 -3.63832e-05)
(-5.6349e-05 0.000172953 -3.28077e-05)
(-6.21333e-05 0.000148122 -2.87282e-05)
(-5.9656e-05 0.000117705 -2.44209e-05)
(-5.02053e-05 9.65754e-05 -2.0731e-05)
(-4.11046e-05 8.04065e-05 -1.76904e-05)
(-3.18175e-05 6.93951e-05 -1.5434e-05)
(-2.35138e-05 6.13955e-05 -1.39159e-05)
(-1.51871e-05 5.58408e-05 -1.30487e-05)
(-6.92489e-06 5.22365e-05 -1.2412e-05)
(1.59213e-06 4.98278e-05 -1.03678e-05)
(3.68259e-06 4.58479e-05 -3.48373e-06)
(-2.32384e-06 3.73051e-05 -2.20913e-06)
(8.10264e-07 4.0806e-05 -7.74645e-06)
(9.77451e-06 4.33427e-05 -9.44663e-06)
(1.82373e-05 4.71068e-05 -9.85221e-06)
(2.6516e-05 5.26297e-05 -1.04219e-05)
(3.46124e-05 5.99828e-05 -1.15283e-05)
(4.33033e-05 6.93218e-05 -1.33017e-05)
(5.32167e-05 8.12681e-05 -1.58857e-05)
(6.62584e-05 9.70027e-05 -1.93238e-05)
(8.0795e-05 0.000120616 -2.37824e-05)
(9.86605e-05 0.000153427 -2.8862e-05)
(0.000102834 0.0002065 -3.52638e-05)
(9.08153e-05 0.000245888 -4.12969e-05)
(7.71787e-05 0.000278333 -4.67265e-05)
(6.15147e-05 0.000301952 -5.12225e-05)
(4.5992e-05 0.000320524 -5.43413e-05)
(2.90999e-05 0.000332855 -5.64175e-05)
(1.18728e-05 0.00033929 -5.74851e-05)
(-5.68027e-06 0.00033956 -5.75435e-05)
(-2.28617e-05 0.000333659 -5.6592e-05)
(-3.96621e-05 0.000321853 -5.46285e-05)
(-5.50228e-05 0.000303781 -5.16192e-05)
(-7.04555e-05 0.000280657 -4.72241e-05)
(-8.37113e-05 0.000248688 -4.18914e-05)
(-9.52688e-05 0.000209908 -3.59517e-05)
(-9.03366e-05 0.000157476 -2.96525e-05)
(-7.17837e-05 0.000125998 -2.47195e-05)
(-5.67133e-05 0.000103463 -2.0476e-05)
(-4.27282e-05 8.89389e-05 -1.73596e-05)
(-3.13926e-05 7.84027e-05 -1.52606e-05)
(-2.05882e-05 7.09017e-05 -1.40871e-05)
(-1.01659e-05 6.58779e-05 -1.32995e-05)
(5.53889e-07 6.25137e-05 -1.09695e-05)
(3.70867e-06 5.75585e-05 -3.39095e-06)
(-2.16998e-06 4.38616e-05 -2.08956e-06)
(2.07527e-06 4.81177e-05 -8.21043e-06)
(1.31474e-05 5.13668e-05 -1.01546e-05)
(2.35932e-05 5.63182e-05 -1.064e-05)
(3.38814e-05 6.35592e-05 -1.13696e-05)
(4.40508e-05 7.30803e-05 -1.28097e-05)
(5.51957e-05 8.49093e-05 -1.51559e-05)
(6.84729e-05 9.94091e-05 -1.86672e-05)
(8.77789e-05 0.000118092 -2.33487e-05)
(0.00011152 0.000147112 -2.93283e-05)
(0.000147556 0.000192805 -3.54699e-05)
(0.000156423 0.000285403 -4.45127e-05)
(0.000131626 0.000344946 -5.28913e-05)
(0.00010911 0.000391469 -6.10237e-05)
(8.56969e-05 0.000424364 -6.79233e-05)
(6.38463e-05 0.000450676 -7.21637e-05)
(3.99615e-05 0.000468168 -7.49849e-05)
(1.57574e-05 0.000477317 -7.64202e-05)
(-8.95317e-06 0.000477683 -7.64918e-05)
(-3.31238e-05 0.000469255 -7.51989e-05)
(-5.69443e-05 0.00045246 -7.25138e-05)
(-7.86631e-05 0.000426783 -6.84043e-05)
(-0.000101881 0.000394468 -6.16176e-05)
(-0.000123979 0.000348421 -5.35892e-05)
(-0.000148267 0.00028947 -4.53032e-05)
(-0.000138203 0.000197387 -3.63421e-05)
(-0.00010122 0.000153775 -3.03557e-05)
(-7.70787e-05 0.000125969 -2.45985e-05)
(-5.66712e-05 0.000108606 -2.02728e-05)
(-4.16522e-05 9.56425e-05 -1.73147e-05)
(-2.78376e-05 8.59155e-05 -1.56688e-05)
(-1.46725e-05 7.91981e-05 -1.46198e-05)
(-1.01691e-06 7.47182e-05 -1.18551e-05)
(3.63455e-06 6.87549e-05 -3.34444e-06)
(-1.80959e-06 4.9527e-05 -1.90072e-06)
(3.86627e-06 5.45119e-05 -8.8593e-06)
(1.75557e-05 5.85293e-05 -1.109e-05)
(3.06074e-05 6.48459e-05 -1.16901e-05)
(4.34762e-05 7.41399e-05 -1.26426e-05)
(5.61553e-05 8.62919e-05 -1.45343e-05)
(6.98129e-05 0.000101025 -1.76493e-05)
(8.6097e-05 0.00011773 -2.24324e-05)
(0.000111263 0.00013719 -2.86794e-05)
(0.000146362 0.000168694 -3.68268e-05)
(0.000219001 0.000223861 -4.01457e-05)
(0.000238946 0.000391626 -5.05278e-05)
(0.0001883 0.000476133 -6.20985e-05)
(0.000153271 0.000537772 -7.46639e-05)
(0.000119682 0.000581037 -8.53882e-05)
(8.94291e-05 0.000616145 -9.07333e-05)
(5.55995e-05 0.000639705 -9.43049e-05)
(2.13461e-05 0.000652078 -9.61032e-05)
(-1.37087e-05 0.000652573 -9.61916e-05)
(-4.79522e-05 0.000641174 -9.45689e-05)
(-8.1776e-05 0.000618544 -9.11637e-05)
(-0.000111984 0.000584254 -8.59796e-05)
(-0.000145513 0.000541661 -7.53869e-05)
(-0.000180198 0.000480407 -6.29418e-05)
(-0.000230463 0.000396373 -5.14981e-05)
(-0.000208438 0.000228584 -4.11196e-05)
(-0.000134414 0.000177111 -3.79553e-05)
(-9.94394e-05 0.000146726 -3.00391e-05)
(-7.29628e-05 0.000128522 -2.41988e-05)
(-5.45139e-05 0.000113328 -2.00522e-05)
(-3.74359e-05 0.000100869 -1.77568e-05)
(-2.08403e-05 9.19893e-05 -1.63354e-05)
(-3.32746e-06 8.61757e-05 -1.29816e-05)
(3.37837e-06 7.90047e-05 -3.25346e-06)
(-1.31336e-06 5.41199e-05 -1.66743e-06)
(6.17976e-06 5.9723e-05 -9.64276e-06)
(2.31327e-05 6.4687e-05 -1.22276e-05)
(3.95225e-05 7.27499e-05 -1.29743e-05)
(5.57335e-05 8.48744e-05 -1.41986e-05)
(7.15642e-05 0.000101031 -1.66186e-05)
(8.77094e-05 0.000120709 -2.0631e-05)
(0.000105418 0.000140748 -2.68901e-05)
(0.000134134 0.000159988 -3.56358e-05)
(0.000173548 0.000179577 -4.48434e-05)
(0.000314606 0.000193735 -5.09685e-05)
(0.000360838 0.000508785 -5.07054e-05)
(0.000255787 0.000626955 -6.30246e-05)
(0.000208007 0.000708476 -8.174e-05)
(0.000163623 0.000767613 -9.72536e-05)
(0.00012299 0.000816296 -0.000103237)
(7.6347e-05 0.00084923 -0.000107646)
(2.87992e-05 0.000866349 -0.000109793)
(-2.00135e-05 0.000867011 -0.000109895)
(-6.75878e-05 0.000851201 -0.00010795)
(-0.000114318 0.000819529 -0.000103729)
(-0.000155076 0.00077196 -9.79295e-05)
(-0.000199714 0.000713686 -8.25573e-05)
(-0.000247387 0.000632498 -6.39961e-05)
(-0.000352731 0.000514377 -5.18398e-05)
(-0.000302661 0.000196938 -5.23408e-05)
(-0.000159517 0.00018958 -4.61649e-05)
(-0.0001217 0.000171058 -3.71087e-05)
(-9.12374e-05 0.000152957 -2.88507e-05)
(-7.07568e-05 0.000134284 -2.33305e-05)
(-5.0159e-05 0.000116958 -2.02884e-05)
(-2.91078e-05 0.000104512 -1.84464e-05)
(-6.70692e-06 9.66447e-05 -1.44209e-05)
(2.74208e-06 8.80138e-05 -3.00431e-06)
(-6.29369e-07 5.71721e-05 -1.37713e-06)
(9.20376e-06 6.32179e-05 -1.05353e-05)
(3.03505e-05 6.90616e-05 -1.35467e-05)
(5.13178e-05 7.88564e-05 -1.44704e-05)
(7.25675e-05 9.40063e-05 -1.60095e-05)
(9.37316e-05 0.000114955 -1.90061e-05)
(0.000113588 0.000141243 -2.38796e-05)
(0.000132487 0.000167213 -3.21446e-05)
(0.000151542 0.000180739 -4.21536e-05)
(0.000124959 0.000123662 -6.09472e-05)
(0.000381899 0.000190388 -6.84049e-05)
(0.000524478 0.000747874 -3.17633e-05)
(0.000336154 0.000828272 -4.18087e-05)
(0.000286956 0.000895551 -6.28766e-05)
(0.000231701 0.000966128 -8.05147e-05)
(0.000175141 0.00102338 -8.37823e-05)
(0.00010837 0.00106464 -8.72751e-05)
(4.00886e-05 0.00108594 -8.89864e-05)
(-2.97086e-05 0.0010868 -8.90759e-05)
(-9.80396e-05 0.00106721 -8.75448e-05)
(-0.000164986 0.00102762 -8.42057e-05)
(-0.000221878 0.000971897 -8.11189e-05)
(-0.000277831 0.000902515 -6.36043e-05)
(-0.00032765 0.000835428 -4.26929e-05)
(-0.000519591 0.000752374 -3.31333e-05)
(-0.000370342 0.000193555 -7.03536e-05)
(-0.000108912 0.000140217 -6.18831e-05)
(-0.000139125 0.000195677 -4.3526e-05)
(-0.000117581 0.000181295 -3.42925e-05)
(-9.51496e-05 0.0001559 -2.69356e-05)
(-6.95363e-05 0.000131775 -2.32344e-05)
(-4.14804e-05 0.000114805 -2.09646e-05)
(-1.20194e-05 0.000104544 -1.61272e-05)
(1.51211e-06 9.47686e-05 -2.56812e-06)
(1.36844e-07 5.83625e-05 -1.07122e-06)
(1.26717e-05 6.47183e-05 -1.15346e-05)
(3.86944e-05 7.13897e-05 -1.50443e-05)
(6.52578e-05 8.30321e-05 -1.61929e-05)
(9.33112e-05 0.000102014 -1.81132e-05)
(0.000122747 0.0001308 -2.15976e-05)
(0.000151143 0.000173096 -2.69335e-05)
(0.000172971 0.000231338 -3.32831e-05)
(0.000146163 0.000305549 -4.89055e-05)
(0.000152274 0.0003498 -7.14917e-05)
(0.000247205 0.000660877 5.7987e-05)
(0.000292423 0.000855162 2.22369e-05)
(0.000349722 0.000988205 1.15124e-05)
(0.000309457 0.00110619 1.27011e-05)
(0.000234984 0.0011899 9.4522e-06)
(0.00014697 0.00124584 6.64274e-06)
(5.37195e-05 0.00127328 5.49141e-06)
(-4.12112e-05 0.00127426 5.49451e-06)
(-0.00013453 0.00124883 6.64867e-06)
(-0.00022277 0.00119494 9.46847e-06)
(-0.000297733 0.00111343 1.27206e-05)
(-0.000339305 0.000997788 1.15901e-05)
(-0.000285111 0.000866985 2.19928e-05)
(-0.000242452 0.000673199 5.68479e-05)
(-0.000148711 0.000362299 -6.99527e-05)
(-0.000140002 0.000319419 -4.99307e-05)
(-0.000160325 0.000245029 -3.5672e-05)
(-0.000132331 0.000187615 -3.04539e-05)
(-9.61248e-05 0.000147643 -2.6548e-05)
(-5.7666e-05 0.00012311 -2.39866e-05)
(-1.8848e-05 0.000109513 -1.81798e-05)
(-6.68518e-09 9.85082e-05 -2.13239e-06)
(1.12045e-06 5.72226e-05 -7.29082e-07)
(1.68438e-05 6.34864e-05 -1.25904e-05)
(4.87575e-05 7.01994e-05 -1.66284e-05)
(8.29915e-05 8.20097e-05 -1.8033e-05)
(0.000122513 0.00010143 -2.04342e-05)
(0.000171377 0.000131364 -2.47535e-05)
(0.000235111 0.000176666 -3.12862e-05)
(0.000327316 0.000242806 -3.79555e-05)
(0.000444533 0.000337083 -4.28436e-05)
(0.000684196 0.0004547 -3.07564e-05)
(0.000706767 0.000137012 4.11343e-05)
(0.000566901 0.000307815 4.62672e-05)
(0.000636879 0.000644137 0.000115148)
(0.000575342 0.000844365 0.000173259)
(0.000464831 0.000989551 0.000206903)
(0.00033426 0.00108673 0.000218675)
(0.00020269 0.00114738 0.00022267)
(7.21455e-05 0.00117635 0.000224019)
(-5.74155e-05 0.00117726 0.000224089)
(-0.000187905 0.00115016 0.000222884)
(-0.000319389 0.00109149 0.000219052)
(-0.000449771 0.00099653 0.0002075)
(-0.000560125 0.000853931 0.000174304)
(-0.00062137 0.000656699 0.000116671)
(-0.00054941 0.000323167 4.87801e-05)
(-0.000695317 0.000140754 4.3175e-05)
(-0.000678933 0.000459827 -3.00778e-05)
(-0.000435045 0.000347008 -4.39038e-05)
(-0.000313407 0.000254622 -4.03315e-05)
(-0.000214801 0.000190203 -3.52376e-05)
(-0.000142012 0.000147582 -3.05333e-05)
(-8.21645e-05 0.000122047 -2.74314e-05)
(-2.90508e-05 0.000108102 -2.05185e-05)
(-2.59938e-06 9.71301e-05 -1.57877e-06)
(1.89536e-06 5.3718e-05 -4.18158e-07)
(2.03896e-05 5.94609e-05 -1.3593e-05)
(5.73463e-05 6.53542e-05 -1.8153e-05)
(9.75422e-05 7.54539e-05 -1.98279e-05)
(0.000144789 9.14088e-05 -2.27124e-05)
(0.00020427 0.000114421 -2.79114e-05)
(0.000282526 0.000145414 -3.57413e-05)
(0.000392628 0.000182852 -4.47276e-05)
(0.000531582 0.000217422 -5.15007e-05)
(0.000742492 0.00023387 -4.73645e-05)
(0.000840892 0.000124834 -2.52828e-05)
(0.000847888 0.000294838 1.08018e-05)
(0.000844062 0.000476486 0.000127074)
(0.00072301 0.000610443 0.000197936)
(0.000573128 0.000715127 0.000234948)
(0.000406355 0.000786681 0.000250336)
(0.000244008 0.000832403 0.000255666)
(8.60103e-05 0.00085459 0.000257341)
(-6.95766e-05 0.00085534 0.000257404)
(-0.00022748 0.000834665 0.000255859)
(-0.000389657 0.00079049 0.000250682)
(-0.000556115 0.000720517 0.000235516)
(-0.000705828 0.000617413 0.000198975)
(-0.000826753 0.000484615 0.000128708)
(-0.000830912 0.000303199 1.37957e-05)
(-0.000828192 0.000128888 -2.34413e-05)
(-0.000733431 0.000241537 -4.69561e-05)
(-0.000520951 0.000226924 -5.25593e-05)
(-0.000377699 0.000193823 -4.7251e-05)
(-0.000260582 0.00015811 -4.00952e-05)
(-0.000172037 0.000129771 -3.44097e-05)
(-9.97391e-05 0.000110937 -3.06582e-05)
(-3.63541e-05 0.000100017 -2.26547e-05)
(-4.20232e-06 9.04508e-05 -1.12806e-06)
(2.56992e-06 4.82809e-05 -1.20381e-07)
(2.34645e-05 5.33227e-05 -1.4467e-05)
(6.47711e-05 5.82083e-05 -1.94782e-05)
(0.000109868 6.63759e-05 -2.13633e-05)
(0.000162975 7.89009e-05 -2.46245e-05)
(0.000229454 9.62175e-05 -3.05687e-05)
(0.000315732 0.000118097 -3.9703e-05)
(0.000432902 0.000143057 -5.14227e-05)
(0.000577216 0.000164966 -6.27473e-05)
(0.000762573 0.00018133 -6.76839e-05)
(0.000893946 0.000155988 -5.36133e-05)
(0.000976094 0.000241164 -4.74404e-06)
(0.000967323 0.000347672 0.000114735)
(0.000824564 0.000437004 0.000182051)
(0.00064914 0.000509361 0.000216079)
(0.000456909 0.000558986 0.000226456)
(0.000273475 0.000591422 0.000228698)
(9.59841e-05 0.000607298 0.000228842)
(-7.81644e-05 0.00060792 0.000228877)
(-0.000255545 0.000593289 0.000228802)
(-0.000438788 0.000562096 0.000226654)
(-0.00063069 0.000513686 0.000216433)
(-0.000806053 0.000442487 0.00018282)
(-0.000948929 0.000354018 0.000116082)
(-0.000959606 0.000248062 -1.99141e-06)
(-0.0008813 0.000161433 -5.20427e-05)
(-0.000751928 0.00018828 -6.71528e-05)
(-0.000565289 0.000173297 -6.37488e-05)
(-0.000416589 0.000152833 -5.40261e-05)
(-0.000291934 0.000129582 -4.4355e-05)
(-0.000194315 0.000110211 -3.76169e-05)
(-0.000113475 9.66374e-05 -3.3298e-05)
(-4.21135e-05 8.84309e-05 -2.43867e-05)
(-5.48147e-06 8.03347e-05 -6.45203e-07)
(3.0236e-06 4.12547e-05 1.09952e-07)
(2.57262e-05 4.54147e-05 -1.52006e-05)
(7.03075e-05 4.91432e-05 -2.05835e-05)
(0.000118805 5.51949e-05 -2.26336e-05)
(0.000175512 6.41965e-05 -2.61807e-05)
(0.000245552 7.6132e-05 -3.26796e-05)
(0.000335111 9.03855e-05 -4.2756e-05)
(0.00045386 0.000105993 -5.61977e-05)
(0.000599405 0.000119514 -6.99849e-05)
(0.000777223 0.000132928 -7.81183e-05)
(0.000927835 0.000135868 -6.46883e-05)
(0.00104699 0.000186258 -1.84986e-05)
(0.00104019 0.00025095 9.85079e-05)
(0.000885708 0.000306446 0.000159364)
(0.000696687 0.000352715 0.000188341)
(0.000489847 0.000385661 0.000194177)
(0.000293179 0.000407726 0.000193779)
(0.00010279 0.000418723 0.000192605)
(-8.3838e-05 0.000419262 0.000192614)
(-0.000274134 0.000409329 0.000193806)
(-0.000470653 0.000388293 0.000194242)
(-0.00067723 0.0003563 0.000188503)
(-0.000866341 0.000310891 0.000159888)
(-0.0010211 0.000256031 9.95991e-05)
(-0.00103043 0.000191857 -1.58946e-05)
(-0.000914848 0.000141222 -6.32241e-05)
(-0.000765458 0.000139279 -7.76423e-05)
(-0.000586333 0.000126884 -7.10391e-05)
(-0.000436212 0.000114562 -5.89245e-05)
(-0.000309525 0.00010046 -4.76625e-05)
(-0.000207756 8.83742e-05 -4.01532e-05)
(-0.000122145 7.95481e-05 -3.53967e-05)
(-4.56081e-05 7.39775e-05 -2.57748e-05)
(-6.10271e-06 6.75991e-05 -3.29851e-07)
(3.33797e-06 3.31488e-05 2.83179e-07)
(2.73694e-05 3.63907e-05 -1.57817e-05)
(7.43749e-05 3.90888e-05 -2.14489e-05)
(0.000125283 4.33691e-05 -2.36162e-05)
(0.000184382 4.96333e-05 -2.73634e-05)
(0.000256551 5.77845e-05 -3.42472e-05)
(0.000347851 6.73469e-05 -4.49664e-05)
(0.0004672 7.79033e-05 -5.94933e-05)
(0.000613593 8.78437e-05 -7.47411e-05)
(0.000790663 9.94329e-05 -8.46377e-05)
(0.00095281 0.000109886 -7.1553e-05)
(0.00108996 0.000141716 -2.71555e-05)
(0.00108536 0.000181369 8.85557e-05)
(0.00092546 0.000216979 0.000145864)
(0.000728375 0.000247318 0.000171905)
(0.000512221 0.000269451 0.000175071)
(0.000306765 0.000284491 0.000173053)
(0.000107599 0.00029213 0.000171081)
(-8.76257e-05 0.000292631 0.000171078)
(-0.000286731 0.000285975 0.000173043)
(-0.000492105 0.000271861 0.00017507)
(-0.000708092 0.000250557 0.000171969)
(-0.000905416 0.000220925 0.000146258)
(-0.00106574 0.000185839 8.94914e-05)
(-0.00107312 0.000146604 -2.47337e-05)
(-0.000939406 0.000114883 -7.01912e-05)
(-0.00077811 0.000105077 -8.42222e-05)
(-0.000599619 9.419e-05 -7.58713e-05)
(-0.000448414 8.51598e-05 -6.23401e-05)
(-0.000320728 7.57955e-05 -5.00791e-05)
(-0.000216536 6.79345e-05 -4.20435e-05)
(-0.000127898 6.21592e-05 -3.69791e-05)
(-4.78476e-05 5.84162e-05 -2.68355e-05)
(-6.44919e-06 5.35669e-05 -1.09655e-07)
(3.51902e-06 2.43121e-05 3.86414e-07)
(2.84359e-05 2.65944e-05 -1.62186e-05)
(7.70789e-05 2.83449e-05 -2.20866e-05)
(0.000129566 3.10695e-05 -2.43314e-05)
(0.000190172 3.50342e-05 -2.82065e-05)
(0.000263626 4.01773e-05 -3.53286e-05)
(0.000356008 4.62553e-05 -4.64289e-05)
(0.000475991 5.3191e-05 -6.15443e-05)
(0.000623646 6.04327e-05 -7.75344e-05)
(0.00080218 6.96191e-05 -8.82289e-05)
(0.000970915 7.99988e-05 -7.54912e-05)
(0.00111703 9.99837e-05 -3.19132e-05)
(0.00111389 0.00012423 8.38247e-05)
(0.000950901 0.000146392 0.000139858)
(0.000748983 0.000165436 0.000164717)
(0.000527087 0.000179686 0.000166735)
(0.000315943 0.000189503 0.00016402)
(0.000110965 0.000194622 0.000161701)
(-9.00212e-05 0.000195117 0.000161694)
(-0.000294983 0.000190962 0.000163997)
(-0.000506135 0.000182031 0.000166711)
(-0.000727989 0.000168543 0.000164745)
(-0.000930303 0.000150103 0.000140201)
(-0.00109387 0.000128362 8.4693e-05)
(-0.00109994 0.000104397 -2.95821e-05)
(-0.00095718 8.45324e-05 -7.42118e-05)
(-0.000789106 7.45087e-05 -8.78913e-05)
(-0.000609032 6.57379e-05 -7.87554e-05)
(-0.000456363 5.90795e-05 -6.45092e-05)
(-0.000327735 5.29437e-05 -5.17141e-05)
(-0.000221972 4.80158e-05 -4.33729e-05)
(-0.000131431 4.44603e-05 -3.8119e-05)
(-4.9134e-05 4.21286e-05 -2.76221e-05)
(-6.57676e-06 3.87753e-05 -9.89772e-09)
(3.60752e-06 1.50857e-05 4.27505e-07)
(2.90403e-05 1.64064e-05 -1.65128e-05)
(7.86569e-05 1.73005e-05 -2.25025e-05)
(0.000132088 1.86679e-05 -2.47912e-05)
(0.000193613 2.06872e-05 -2.87379e-05)
(0.00026791 2.3381e-05 -3.59919e-05)
(0.000361111 2.67338e-05 -4.72997e-05)
(0.000481848 3.08397e-05 -6.27183e-05)
(0.000630733 3.56846e-05 -7.90758e-05)
(0.000810869 4.19926e-05 -9.01341e-05)
(0.000983104 4.96576e-05 -7.75419e-05)
(0.00113337 6.08759e-05 -3.41228e-05)
(0.00113095 7.37216e-05 8.20733e-05)
(0.000966238 8.56165e-05 0.000137924)
(0.000761533 9.58253e-05 0.00016249)
(0.000536293 0.000103676 0.000164154)
(0.000321727 0.00010917 0.000161213)
(0.000113225 0.000112184 0.000158779)
(-9.12955e-05 0.000112702 0.000158773)
(-0.00029984 0.000110692 0.00016119)
(-0.000514528 0.000106101 0.000164129)
(-0.000739886 9.89942e-05 0.000162514)
(-0.000945176 8.93272e-05 0.000138251)
(-0.00111065 7.77574e-05 8.29093e-05)
(-0.00111614 6.50108e-05 -3.18541e-05)
(-0.000969224 5.37631e-05 -7.63366e-05)
(-0.000797554 4.61696e-05 -8.98771e-05)
(-0.000615789 3.99733e-05 -8.03869e-05)
(-0.000461743 3.53532e-05 -6.57891e-05)
(-0.000332155 3.16079e-05 -5.27222e-05)
(-0.000225268 2.88077e-05 -4.42179e-05)
(-0.000133511 2.68932e-05 -3.88597e-05)
(-4.9855e-05 2.56526e-05 -2.81514e-05)
(-6.62234e-06 2.37134e-05 1.14542e-08)
(3.61388e-06 5.72774e-06 4.05914e-07)
(2.92209e-05 6.07996e-06 -1.66689e-05)
(7.91901e-05 6.13939e-06 -2.2704e-05)
(0.000132993 6.19848e-06 -2.50071e-05)
(0.000194933 6.35492e-06 -2.89766e-05)
(0.000269716 6.71849e-06 -3.62723e-05)
(0.000363529 7.48697e-06 -4.76447e-05)
(0.000485049 8.87935e-06 -6.31523e-05)
(0.000634949 1.12898e-05 -7.96144e-05)
(0.000816258 1.45982e-05 -9.07726e-05)
(0.000989705 1.90246e-05 -7.8227e-05)
(0.0011408 2.25872e-05 -3.47693e-05)
(0.00113832 2.52844e-05 8.1795e-05)
(0.000972827 2.77883e-05 0.000137855)
(0.000766971 2.97946e-05 0.000162514)
(0.000540425 3.16312e-05 0.000164207)
(0.000324455 3.30539e-05 0.00016127)
(0.000114501 3.40972e-05 0.000158838)
(-9.15169e-05 3.46718e-05 0.000158832)
(-0.000301589 3.47412e-05 0.000161249)
(-0.000517826 3.4304e-05 0.000164184)
(-0.000744694 3.32638e-05 0.000162541)
(-0.00095137 3.17527e-05 0.000138168)
(-0.00111789 2.94455e-05 8.25903e-05)
(-0.00112363 2.66379e-05 -3.25743e-05)
(-0.000975919 2.28008e-05 -7.7108e-05)
(-0.000802997 1.81469e-05 -9.0611e-05)
(-0.000620009 1.46469e-05 -8.10203e-05)
(-0.000464866 1.20984e-05 -6.63185e-05)
(-0.000334398 1.05957e-05 -5.3174e-05)
(-0.000226773 9.75437e-06 -4.46207e-05)
(-0.000134379 9.34507e-06 -3.92309e-05)
(-5.01296e-05 9.1232e-06 -2.84398e-05)
(-6.61615e-06 8.59672e-06 -4.09847e-08)
(3.53945e-06 -3.48688e-06 3.23322e-07)
(2.89786e-05 -4.09949e-06 -1.66876e-05)
(7.86786e-05 -4.89606e-06 -2.26931e-05)
(0.000132276 -6.19491e-06 -2.49822e-05)
(0.000194121 -7.99309e-06 -2.89275e-05)
(0.000269024 -1.0108e-05 -3.6178e-05)
(0.000363231 -1.21242e-05 -4.7478e-05)
(0.00048557 -1.36443e-05 -6.28697e-05)
(0.000636329 -1.36961e-05 -7.91866e-05)
(0.000818476 -1.31272e-05 -9.02011e-05)
(0.000991048 -1.09758e-05 -7.76208e-05)
(0.0011397 -1.4963e-05 -3.39954e-05)
(0.00113623 -2.31027e-05 8.27682e-05)
(0.00097077 -3.04948e-05 0.000139394)
(0.000765366 -3.71273e-05 0.0001645)
(0.000539539 -4.15252e-05 0.00016658)
(0.00032418 -4.4295e-05 0.000163864)
(0.000114838 -4.52487e-05 0.000161535)
(-9.06493e-05 -4.45745e-05 0.000161524)
(-0.000300198 -4.23134e-05 0.000163826)
(-0.000515994 -3.83947e-05 0.000166525)
(-0.000742431 -3.30787e-05 0.00016447)
(-0.000949019 -2.59353e-05 0.000139641)
(-0.00111583 -1.84309e-05 8.34989e-05)
(-0.00112285 -1.0683e-05 -3.19173e-05)
(-0.000977649 -7.33322e-06 -7.66228e-05)
(-0.000805565 -1.00373e-05 -9.01634e-05)
(-0.000621709 -1.11259e-05 -8.07149e-05)
(-0.000465715 -1.15864e-05 -6.61525e-05)
(-0.000334462 -1.06465e-05 -5.31012e-05)
(-0.00022649 -9.33185e-06 -4.46013e-05)
(-0.000134038 -8.09308e-06 -3.9242e-05)
(-4.99574e-05 -7.22127e-06 -2.84928e-05)
(-6.55753e-06 -6.32656e-06 -1.66104e-07)
(3.37091e-06 -1.22924e-05 1.75927e-07)
(2.82751e-05 -1.38725e-05 -1.65693e-05)
(7.70436e-05 -1.56125e-05 -2.24677e-05)
(0.000129794 -1.84612e-05 -2.4712e-05)
(0.000190934 -2.2567e-05 -2.85819e-05)
(0.000265472 -2.77393e-05 -3.56906e-05)
(0.000359762 -3.33615e-05 -4.67611e-05)
(0.00048301 -3.87043e-05 -6.17795e-05)
(0.00063471 -4.16642e-05 -7.76099e-05)
(0.000818159 -4.32759e-05 -8.80896e-05)
(0.000987538 -4.02148e-05 -7.53151e-05)
(0.00112901 -5.2778e-05 -3.10694e-05)
(0.00112322 -7.50285e-05 8.61531e-05)
(0.000959004 -9.50734e-05 0.000144231)
(0.000755973 -0.0001126 0.00017054)
(0.000533221 -0.000124526 0.000173713)
(0.000320694 -0.000132228 0.000171625)
(0.000114206 -0.000135461 0.000169596)
(-8.85736e-05 -0.000134624 0.000169572)
(-0.000295379 -0.000129761 0.000171545)
(-0.000508561 -0.00012062 0.000173584)
(-0.000732271 -0.000107528 0.000170408)
(-0.000936918 -8.93707e-05 0.000144333)
(-0.00110304 -6.92204e-05 8.67019e-05)
(-0.00111282 -4.77736e-05 -2.92064e-05)
(-0.000974882 -3.64361e-05 -7.45067e-05)
(-0.000805931 -4.03993e-05 -8.82452e-05)
(-0.000620776 -3.9647e-05 -7.92986e-05)
(-0.000463887 -3.75718e-05 -6.51822e-05)
(-0.000331857 -3.32641e-05 -5.24567e-05)
(-0.000224033 -2.8965e-05 -4.41331e-05)
(-0.000132238 -2.55049e-05 -3.88811e-05)
(-4.92157e-05 -2.32284e-05 -2.83072e-05)
(-6.41115e-06 -2.08244e-05 -3.75695e-07)
(3.0704e-06 -2.03477e-05 -4.384e-08)
(2.7003e-05 -2.28463e-05 -1.63154e-05)
(7.40595e-05 -2.55905e-05 -2.20274e-05)
(0.000125123 -3.01659e-05 -2.41921e-05)
(0.000184637 -3.69646e-05 -2.79229e-05)
(0.000257893 -4.5922e-05 -3.47587e-05)
(0.000351489 -5.63531e-05 -4.53647e-05)
(0.000475568 -6.70909e-05 -5.95605e-05)
(0.000628775 -7.41807e-05 -7.42544e-05)
(0.00081627 -7.78726e-05 -8.33048e-05)
(0.000979371 -6.59866e-05 -7.03906e-05)
(0.00110497 -8.97969e-05 -2.501e-05)
(0.00109459 -0.000134786 9.35398e-05)
(0.000933501 -0.000173214 0.000154936)
(0.000735904 -0.000205751 0.000183929)
(0.000519784 -0.000227651 0.000189536)
(0.000313135 -0.000241705 0.000188876)
(0.000112396 -0.000247787 0.000187522)
(-8.49261e-05 -0.00024669 0.000187462)
(-0.000286105 -0.00023844 0.000188686)
(-0.000493649 -0.000222427 0.000189218)
(-0.000711176 -0.000198837 0.000183531)
(-0.00091098 -0.000165376 0.000154702)
(-0.00107479 -0.000126744 9.37276e-05)
(-0.00108996 -8.31896e-05 -2.35239e-05)
(-0.000967915 -6.16918e-05 -6.98905e-05)
(-0.000805021 -7.48148e-05 -8.37874e-05)
(-0.000615838 -7.22826e-05 -7.62054e-05)
(-0.000457557 -6.64436e-05 -6.31449e-05)
(-0.000324944 -5.7208e-05 -5.1141e-05)
(-0.000218223 -4.87268e-05 -4.31762e-05)
(-0.000128248 -4.2324e-05 -3.81266e-05)
(-4.75367e-05 -3.82998e-05 -2.78798e-05)