/*--------------------------------*- C++ -*----------------------------------*\
| =========                 |                                                 |
| \\      /  F ield         | OpenFOAM: The Open Source CFD Toolbox           |
|  \\    /   O peration     | Version:  2112                                  |
|   \\  /    A nd           | Website:  www.openfoam.com                      |
|    \\/     M anipulation  |                                                 |
\*---------------------------------------------------------------------------*/
FoamFile
{
    version     2.0;
    format      ascii;
    arch        "LSB;label=32;scalar=64";
    class       volScalarField;
    location    "3.4";
    object      epsilon;
}
// * * * * * * * * * * * * * * * * * * * * * * * * * * * * * * * * * * * * * //

dimensions      [0 2 -3 0 0 0 0];

internalField   nonuniform List<scalar> 
64906
(
0.00022083
0.000258189
0.000281691
0.000293013
0.000297965
0.000299982
0.000300748
0.000301017
0.000301096
0.000301103
0.000301089
0.000301073
0.000301057
0.000301043
0.000301029
0.000301015
0.000301001
0.00030099
0.000300984
0.000300991
0.000301003
0.000301016
0.000301029
0.000301041
0.000301048
0.000301038
0.000300972
0.000300722
0.000299971
0.000297966
0.000293021
0.000281707
0.000258209
0.000220844
0.000258213
0.000472368
0.000601027
0.000668872
0.00070268
0.000718405
0.000725134
0.000727703
0.000728476
0.000728525
0.000728327
0.000728091
0.000727913
0.000727809
0.000727759
0.000727732
0.000727715
0.000727706
0.000727706
0.000727716
0.000727733
0.000727759
0.000727802
0.000727875
0.000727951
0.000727871
0.000727173
0.000724755
0.000718195
0.000702611
0.000668896
0.000601097
0.000472439
0.000258254
0.000281756
0.000601086
0.000802941
0.000915632
0.000975225
0.00100461
0.00101781
0.00102291
0.00102419
0.00102383
0.00102291
0.00102201
0.00102138
0.00102103
0.00102089
0.00102082
0.00102078
0.00102076
0.00102076
0.00102079
0.00102083
0.0010209
0.00102103
0.00102129
0.00102167
0.00102183
0.00102075
0.00101617
0.00100359
0.000974733
0.000915504
0.000803003
0.00060121
0.000281828
0.000293108
0.000668998
0.000915711
0.00105889
0.00113751
0.00117755
0.00119575
0.00120224
0.00120277
0.00120055
0.00119753
0.00119488
0.00119307
0.00119211
0.00119168
0.00119145
0.0011913
0.00119123
0.00119123
0.00119132
0.00119148
0.00119171
0.0011921
0.00119293
0.00119432
0.00119579
0.00119576
0.0011907
0.00117425
0.00113573
0.00105817
0.000915579
0.00066911
0.000293203
0.000298078
0.000702852
0.000975375
0.0011376
0.0012287
0.00127559
0.00129616
0.00130158
0.00129854
0.00129139
0.00128344
0.00127705
0.00127289
0.00127081
0.00126993
0.00126937
0.00126896
0.00126874
0.00126875
0.00126898
0.0012694
0.00126996
0.00127079
0.00127269
0.0012763
0.00128117
0.00128523
0.00128333
0.00126706
0.0012239
0.00113541
0.000974682
0.000702835
0.000298185
0.000300104
0.000718604
0.00100483
0.00117776
0.00127578
0.00132557
0.00134495
0.00134516
0.00133338
0.00131549
0.00129753
0.00128455
0.00127679
0.00127336
0.00127215
0.00127113
0.00127024
0.00126977
0.00126978
0.00127027
0.00127117
0.00127219
0.00127335
0.00127658
0.00128372
0.00129497
0.0013085
0.00131618
0.00130646
0.00126493
0.0011726
0.00100293
0.000718252
0.000300205
0.000300873
0.000725354
0.00101813
0.0011962
0.00129683
0.00134569
0.00135946
0.00134826
0.00131902
0.00127997
0.00124353
0.00122193
0.00121105
0.00120756
0.00120712
0.00120568
0.00120417
0.00120336
0.00120337
0.0012042
0.00120573
0.00120717
0.00120757
0.00121087
0.00122114
0.00124095
0.00127274
0.00130095
0.00130742
0.00127526
0.00118582
0.0010141
0.000724364
0.000300941
0.000301139
0.000727958
0.00102341
0.00120324
0.00130342
0.00134794
0.00135112
0.00132006
0.00125942
0.0011802
0.00110992
0.00108569
0.00107958
0.00108128
0.00108447
0.00108323
0.00108131
0.0010803
0.00108031
0.00108135
0.00108329
0.00108454
0.00108133
0.00107949
0.00108508
0.00110764
0.0011733
0.00124139
0.00127859
0.0012652
0.00118495
0.00101617
0.000725985
0.000301138
0.000301213
0.000728806
0.00102507
0.00120484
0.00130278
0.00134064
0.00132887
0.00126836
0.00115553
0.000998099
0.000856754
0.000868795
0.000895883
0.00091479
0.000925677
0.000926446
0.000925333
0.000924672
0.000924685
0.00092537
0.000926507
0.000925761
0.000914876
0.000895904
0.000868495
0.000855157
0.000992132
0.00113825
0.00122719
0.00124262
0.00117659
0.00101384
0.000725603
0.000301113
0.000301219
0.000728996
0.00102535
0.00120447
0.00129986
0.00133093
0.00130334
0.0012078
0.00101872
0.000709085
0.000409957
0.000573554
0.000695267
0.000746856
0.000766608
0.000771985
0.000773192
0.000773389
0.0007734
0.000773225
0.000772042
0.000766693
0.00074697
0.000695405
0.000573653
0.000409518
0.000704851
0.00100264
0.00116728
0.00121729
0.00116667
0.00101041
0.000724644
0.000301007
0.000301205
0.000729017
0.00102537
0.00120417
0.00129825
0.00132572
0.00128913
0.00117004
0.00091282
0.000427255
0.000353263
0.000556846
0.000631808
0.00065514
0.00066276
0.000664908
0.000665393
0.000665398
0.000664926
0.000662793
0.000655196
0.000631903
0.000556995
0.000353347
0.000425494
0.000897928
0.00112997
0.00120319
0.00116137
0.00100856
0.000724082
0.000300924
0.000301188
0.000729053
0.00102562
0.00120482
0.00129973
0.00132921
0.00129821
0.00119676
0.000999658
0.000682905
0.000391871
0.000506702
0.000606219
0.000646601
0.000658422
0.000665099
0.000666949
0.00066722
0.000667218
0.000666943
0.000665091
0.000658409
0.000646589
0.0006062
0.000506546
0.00039129
0.000678488
0.00098354
0.00115618
0.00121194
0.00116451
0.00100965
0.000724339
0.000300925
0.000301177
0.000729139
0.00102612
0.00120627
0.0013034
0.00133796
0.00131866
0.00124429
0.00110963
0.00092233
0.00074615
0.000700949
0.000682217
0.000676699
0.000674789
0.000675329
0.000675374
0.000675233
0.000675227
0.000675355
0.000675295
0.000674729
0.000676597
0.000682011
0.000700403
0.000744392
0.000916386
0.00109244
0.00120301
0.00123182
0.00117273
0.00101277
0.000725225
0.000300979
0.000301165
0.000729242
0.00102668
0.00120794
0.00130754
0.0013474
0.0013389
0.00128541
0.00118778
0.00105488
0.000915945
0.000811233
0.000735984
0.000701956
0.000689506
0.00068557
0.000684237
0.000683776
0.000683766
0.000684207
0.000685517
0.000689418
0.000701809
0.000735703
0.000810551
0.00091374
0.00104821
0.00116986
0.00124344
0.00125143
0.00118154
0.00101628
0.000726251
0.000301036
0.000301147
0.000729327
0.00102717
0.00120936
0.00131095
0.00135481
0.00135372
0.00131266
0.00123314
0.00112036
0.000989735
0.000864398
0.000765408
0.00071733
0.000698842
0.000692514
0.000690404
0.000689726
0.000689711
0.000690362
0.000692447
0.00069874
0.000717164
0.000765102
0.000863661
0.000987349
0.00111334
0.00121475
0.00127016
0.00126568
0.00118837
0.0010191
0.000727083
0.000301066
0.000301126
0.000729378
0.00102751
0.00121034
0.00131325
0.00135961
0.00136278
0.00132814
0.00125662
0.00115088
0.00102139
0.000888015
0.000779197
0.000724957
0.000703612
0.000696157
0.000693645
0.000692812
0.00069279
0.00069359
0.000696079
0.000703501
0.000724782
0.000778879
0.000887172
0.00101892
0.00114367
0.00123794
0.00128526
0.00127432
0.00119272
0.00102095
0.000727617
0.000301068
0.000301102
0.000729399
0.00102772
0.00121092
0.00131457
0.00136226
0.00136757
0.00133584
0.00126754
0.00116408
0.00103431
0.000897711
0.000784897
0.000728179
0.000705645
0.000697705
0.000694989
0.000694038
0.000694008
0.000694923
0.000697619
0.000705527
0.000727999
0.000784573
0.000896832
0.0010318
0.00115678
0.0012487
0.00129275
0.00127884
0.00119508
0.00102197
0.000727899
0.000301049
0.000301079
0.000729399
0.00102781
0.00121119
0.00131516
0.00136341
0.00136957
0.00133895
0.00127175
0.00116892
0.00103886
0.000901084
0.000786877
0.000729301
0.000706343
0.000698218
0.000695403
0.000694362
0.000694324
0.000695327
0.000698124
0.000706221
0.000729118
0.00078655
0.000900201
0.00103633
0.00116158
0.00125284
0.00129576
0.00128072
0.0011961
0.00102242
0.00072801
0.00030102
0.00030106
0.00072939
0.00102782
0.00121122
0.0013152
0.00136347
0.00136966
0.00133906
0.00127187
0.00116906
0.00103901
0.000901225
0.000786974
0.000729358
0.000706366
0.000698212
0.000695363
0.00069427
0.000694223
0.00069528
0.000698113
0.00070624
0.000729173
0.000786648
0.000900349
0.00103649
0.00116173
0.00125298
0.00129587
0.00128081
0.00119615
0.00102245
0.000728005
0.00030099
0.000301057
0.000729378
0.00102775
0.001211
0.00131469
0.00136244
0.00136781
0.00133616
0.00126794
0.00116453
0.00103479
0.000898164
0.000785206
0.000728363
0.000705725
0.0006977
0.000694886
0.000693798
0.000693747
0.000694798
0.000697598
0.000705598
0.000728181
0.000784888
0.000897309
0.00103231
0.00115726
0.00124913
0.00129309
0.00127909
0.00119525
0.00102207
0.000727893
0.000300979
0.000301073
0.000729357
0.00102758
0.00121048
0.00131346
0.00135991
0.0013632
0.00132868
0.0012573
0.00115169
0.00102228
0.000888864
0.00077977
0.000725307
0.000703783
0.000696184
0.000693518
0.000692512
0.000692467
0.000693431
0.000696082
0.00070366
0.000725135
0.000779474
0.000888058
0.00101988
0.00114455
0.00123868
0.00128585
0.00127475
0.00119301
0.00102111
0.000727623
0.000300988
0.000301092
0.000729313
0.00102726
0.00120954
0.00131123
0.00135522
0.00135429
0.00131344
0.00123416
0.00112162
0.000991171
0.00086564
0.000766319
0.000717887
0.00069913
0.000692596
0.000690296
0.000689454
0.000689419
0.000690218
0.000692501
0.000699018
0.000717736
0.000766066
0.000864963
0.000988927
0.00111473
0.00121586
0.00127099
0.00126627
0.00118877
0.00101932
0.000727111
0.000300984
0.000301109
0.000729232
0.00102677
0.00120814
0.00130785
0.00134786
0.00133958
0.00128638
0.00118914
0.0010567
0.000918131
0.000813058
0.00073721
0.000702604
0.000689768
0.000685559
0.000684026
0.000683437
0.000683411
0.000683962
0.000685474
0.000689666
0.000702476
0.000737021
0.00081257
0.00091618
0.00105024
0.00117132
0.00124444
0.0012521
0.00118199
0.00101653
0.000726298
0.000300953
0.00030112
0.000729112
0.00102615
0.00120638
0.00130359
0.00133829
0.00131922
0.00124523
0.00111115
0.000924646
0.000749158
0.000703421
0.00068311
0.000676588
0.000674103
0.000674272
0.000674116
0.000673877
0.000673857
0.000674059
0.000674178
0.00067396
0.000676398
0.000682921
0.000703192
0.000747791
0.000918976
0.00109396
0.00120381
0.00123229
0.00117304
0.00101296
0.000725259
0.000300894
0.000301124
0.000728936
0.00102543
0.00120454
0.0012994
0.00132891
0.00129808
0.00119703
0.00100076
0.000685263
0.000393196
0.000507378
0.000603633
0.000642125
0.000652776
0.000658855
0.000660475
0.000660655
0.000660629
0.000660383
0.000658643
0.000652332
0.000641394
0.000602832
0.000507203
0.000392666
0.000681053
0.000984069
0.00115578
0.00121145
0.00116422
0.00100953
0.000724263
0.000300832
0.000301116
0.000728598
0.00102446
0.00120272
0.00129636
0.00132352
0.00128672
0.00116757
0.000910823
0.000426626
0.000347718
0.000541482
0.000610502
0.000630077
0.000636299
0.000638031
0.000638375
0.000638302
0.000637749
0.000635571
0.000628414
0.000607349
0.00053707
0.000345155
0.000423622
0.000893211
0.00112532
0.00119985
0.00115933
0.00100749
0.000723646
0.000300804
0.000301048
0.000727694
0.00102245
0.00119998
0.00129403
0.00132406
0.00129556
0.00119901
0.00100899
0.000699612
0.000402949
0.000541674
0.000643463
0.000677033
0.000685018
0.000687224
0.000687894
0.000688015
0.000687868
0.000687262
0.000685379
0.000680276
0.000666822
0.000626363
0.000525109
0.000395876
0.000685461
0.000984209
0.00115327
0.00120773
0.00116063
0.00100703
0.000723238
0.000300788
0.000300801
0.000725145
0.00101724
0.00119307
0.00128779
0.00132311
0.00130892
0.00124504
0.00112651
0.000959381
0.000801593
0.000779338
0.000766791
0.000744861
0.000731532
0.000726217
0.000724498
0.000723967
0.000723733
0.000723429
0.000722831
0.000722031
0.000722013
0.00072365
0.000731868
0.000761529
0.000923939
0.00109024
0.00119434
0.00122041
0.00116195
0.0010051
0.000721739
0.000300639
0.000300054
0.000718518
0.00100429
0.00117553
0.00126902
0.00130853
0.00130718
0.00126995
0.00119828
0.00109874
0.000993748
0.000915684
0.000842249
0.00077695
0.000745334
0.000733533
0.000729738
0.000728635
0.000728342
0.000728353
0.000728913
0.000731584
0.000741355
0.000770076
0.000835867
0.000924922
0.00104462
0.00115231
0.00121615
0.0012205
0.00115329
0.000995815
0.000716277
0.000299988
0.000298051
0.000702901
0.000975253
0.00113649
0.00122471
0.0012649
0.00127179
0.00125236
0.00120905
0.00114424
0.00106436
0.000978455
0.000888158
0.000808921
0.000770269
0.000755529
0.000750671
0.000749251
0.000748925
0.000749113
0.000750298
0.000754717
0.000768818
0.000807121
0.000888295
0.000986377
0.0010845
0.00116143
0.00120094
0.001192
0.00112199
0.000970016
0.000701668
0.000298061
0.000293101
0.00066916
0.000915936
0.00105873
0.00113588
0.00117219
0.00118242
0.00117385
0.00114879
0.00110742
0.00105051
0.000981258
0.000906191
0.000840571
0.000805475
0.000791031
0.000785934
0.000784386
0.000784064
0.000784316
0.000785791
0.000790745
0.000805007
0.000840127
0.000906993
0.00098508
0.00105715
0.00110914
0.00113147
0.00111597
0.0010504
0.000913217
0.000668674
0.000293163
0.000281774
0.000601319
0.00080337
0.000916062
0.000975151
0.00100291
0.0010123
0.00100966
0.000996951
0.000973785
0.000939495
0.000895306
0.000846543
0.00080393
0.000779281
0.000768245
0.000764153
0.000762863
0.000762583
0.00076284
0.000764095
0.000768134
0.000779126
0.000803878
0.000846996
0.000896669
0.000940901
0.000970948
0.000981066
0.000965154
0.000912293
0.000802398
0.000601301
0.000281867
0.000258257
0.000472582
0.000601449
0.000669455
0.000703258
0.000718589
0.000724106
0.000723921
0.00071929
0.0007099
0.000694999
0.000674843
0.000652023
0.000631728
0.00061933
0.000613455
0.000611161
0.000610399
0.000610232
0.000610405
0.000611168
0.000613456
0.000619327
0.000631769
0.000652211
0.000675231
0.000695057
0.000707683
0.000710507
0.00069995
0.000668491
0.000601411
0.00047275
0.000258345
0.000220871
0.000258304
0.000281913
0.000293336
0.000298379
0.000300465
0.000301243
0.000301388
0.000301074
0.000300227
0.000298802
0.000296675
0.000294061
0.000291584
0.000290014
0.000289228
0.000288876
0.000288709
0.000288651
0.000288717
0.000288884
0.000289232
0.00029001
0.000291573
0.000294049
0.000296669
0.000298756
0.000299982
0.000300062
0.000298394
0.000293502
0.000282087
0.000258423
0.00022093
0.000293722
0.000425954
0.000512883
0.000559096
0.000581738
0.000592046
0.000596364
0.000597977
0.000598445
0.000598456
0.000598308
0.000598132
0.000597987
0.000597887
0.000597822
0.000597777
0.000597746
0.000597728
0.000597727
0.000597741
0.000597769
0.000597811
0.000597869
0.000597949
0.000598029
0.000598009
0.000597595
0.000596078
0.000591864
0.000581642
0.000559058
0.000512878
0.000425965
0.000293737
0.00042596
0.000526474
0.000624324
0.000682063
0.000712278
0.000726726
0.000733019
0.000735434
0.000736135
0.00073613
0.000735881
0.000735597
0.000735373
0.000735227
0.000735141
0.000735088
0.000735055
0.000735039
0.000735039
0.000735057
0.00073509
0.000735141
0.000735218
0.000735331
0.000735451
0.00073542
0.000734793
0.000732529
0.000726407
0.000712104
0.000681989
0.000624306
0.000526479
0.000425975
0.000512929
0.000624349
0.000743904
0.000818571
0.000859798
0.000880524
0.000889919
0.000893538
0.000894405
0.000894068
0.000893326
0.000892595
0.000892052
0.000891719
0.000891537
0.000891432
0.000891367
0.000891336
0.000891337
0.000891371
0.000891436
0.000891538
0.000891702
0.000891973
0.000892324
0.000892505
0.000891788
0.000888548
0.000879607
0.000859278
0.000818332
0.000743828
0.000624349
0.000512959
0.000559189
0.000682122
0.000818609
0.00090661
0.000956813
0.000982775
0.000994635
0.000998846
0.000999141
0.00099764
0.000995621
0.000993843
0.000992606
0.000991894
0.000991525
0.000991316
0.000991182
0.000991114
0.000991116
0.000991187
0.000991323
0.000991527
0.000991868
0.000992486
0.000993437
0.000994422
0.000994409
0.000991107
0.000980377
0.000955418
0.00090593
0.000818353
0.000682071
0.000559211
0.000581871
0.000712367
0.000859876
0.000956864
0.00101323
0.00104261
0.00105555
0.00105895
0.00105706
0.00105265
0.00104781
0.00104393
0.00104143
0.0010401
0.00103946
0.00103908
0.00103883
0.00103869
0.00103869
0.00103883
0.00103909
0.00103946
0.00104007
0.00104128
0.00104342
0.00104631
0.00104865
0.00104729
0.00103696
0.0010099
0.000955184
0.000859179
0.000712156
0.00058182
0.000592206
0.00072684
0.00088065
0.000982909
0.00104273
0.00107346
0.00108549
0.00108574
0.00107873
0.0010682
0.00105784
0.00105034
0.00104605
0.00104403
0.00104316
0.00104264
0.00104222
0.00104197
0.00104198
0.00104223
0.00104265
0.00104316
0.001044
0.00104588
0.00104977
0.00105614
0.00106369
0.00106778
0.00106137
0.0010356
0.000979255
0.000879058
0.000726277
0.000591964
0.000596547
0.00073316
0.000890123
0.000994941
0.00105599
0.00108596
0.00109458
0.00108814
0.00107119
0.00104906
0.00102895
0.00101623
0.00101054
0.00100858
0.00100793
0.00100759
0.00100707
0.00100672
0.00100672
0.00100709
0.0010076
0.00100795
0.00100856
0.00101039
0.00101566
0.00102719
0.0010443
0.00105961
0.00106241
0.00104221
0.000987878
0.000886977
0.000731964
0.000595936
0.000598189
0.000735625
0.000893895
0.000999521
0.00106013
0.00108744
0.00108985
0.00107213
0.00103807
0.000995504
0.000959973
0.000940708
0.000937222
0.000938149
0.000938872
0.000939788
0.000939623
0.000939286
0.000939291
0.000939639
0.000939813
0.000938899
0.000938151
0.000937111
0.0009402
0.000958265
0.000990715
0.00102622
0.00104572
0.00103621
0.000987369
0.000888445
0.000733476
0.000597004
0.000598709
0.000736423
0.000895054
0.00100053
0.00105972
0.0010831
0.00107704
0.00104347
0.000983595
0.00090858
0.00085867
0.000823137
0.0008324
0.000842919
0.00084644
0.000851455
0.000852858
0.000852923
0.000852929
0.000852876
0.000851485
0.000846477
0.000842951
0.000832358
0.00082275
0.000857022
0.000903815
0.000971624
0.00101672
0.00102277
0.000982064
0.00088679
0.000733103
0.0005968
0.000598805
0.000736587
0.000895209
0.00100024
0.00105787
0.00107737
0.00106287
0.0010126
0.000923685
0.000817738
0.000948448
0.000680284
0.000715277
0.000744572
0.000750873
0.00076399
0.000768294
0.00076911
0.000769117
0.000768315
0.000764025
0.000750918
0.000744635
0.00071532
0.000680059
0.000945559
0.000812519
0.00091144
0.000985567
0.00100822
0.00097584
0.00088435
0.000732183
0.000596218
0.000598784
0.000736583
0.000895171
0.000999951
0.0010568
0.00107432
0.00105553
0.000997502
0.000905967
0.00102611
0.000702464
0.000621714
0.000660387
0.000681202
0.000684718
0.000685157
0.000685191
0.000685194
0.000685167
0.000684736
0.000681237
0.000660442
0.000621778
0.000702556
0.00101511
0.000893011
0.000970182
0.00100063
0.000972506
0.000882968
0.000731606
0.000595835
0.000598763
0.000736597
0.000895282
0.00100027
0.00105753
0.00107598
0.00105929
0.00100503
0.000909257
0.000789625
0.000858536
0.000623164
0.000677921
0.000721373
0.000758872
0.000739269
0.000731595
0.000729894
0.000729889
0.000731581
0.000739242
0.000758858
0.000721352
0.000677864
0.0006228
0.000855456
0.00078431
0.000896904
0.000977823
0.00100435
0.000974046
0.000883537
0.000731776
0.00059591
0.000598767
0.000736667
0.000895574
0.00100111
0.00105964
0.00108091
0.00107025
0.0010281
0.000953664
0.000854963
0.000769319
0.000706379
0.000698742
0.00069941
0.000705423
0.000699268
0.000696211
0.000695332
0.000695329
0.000696201
0.000699251
0.000705403
0.000699357
0.000698594
0.000705881
0.000767593
0.000850104
0.000941508
0.00100097
0.0010153
0.000978905
0.00088554
0.000732537
0.000596339
0.000598782
0.000736763
0.000895934
0.00100212
0.00106211
0.00108647
0.00108192
0.00105099
0.000994744
0.000918405
0.000837732
0.00077116
0.000729823
0.000704682
0.000695214
0.00069063
0.000688849
0.000688299
0.000688296
0.000688838
0.000690611
0.000695176
0.0007046
0.000729627
0.000770598
0.000835988
0.000913509
0.00098255
0.00102381
0.0010269
0.000984352
0.000887885
0.000733459
0.000596854
0.000598791
0.00073685
0.00089625
0.00100299
0.00106418
0.00109095
0.00109082
0.00106723
0.00102152
0.000956636
0.000880984
0.000808204
0.000752298
0.000715079
0.000699047
0.000693268
0.000691402
0.000690875
0.000690871
0.000691391
0.000693246
0.000699002
0.000714984
0.000752085
0.000807609
0.000879178
0.000951651
0.00100922
0.00103993
0.00103566
0.00098868
0.000889813
0.000734228
0.000597266
0.000598786
0.000736909
0.000896474
0.00100359
0.00106559
0.00109388
0.00109638
0.00107678
0.0010362
0.000976176
0.000902281
0.000826167
0.000764033
0.000721564
0.000702738
0.000696066
0.000693991
0.000693425
0.000693421
0.000693978
0.000696042
0.00070269
0.000721466
0.000763813
0.000825547
0.000900433
0.000971119
0.0010238
0.00104937
0.00104108
0.000991468
0.000891087
0.000734737
0.000597517
0.000598771
0.000736941
0.000896605
0.00100395
0.00106639
0.0010955
0.00109933
0.00108162
0.00104323
0.000985016
0.00091151
0.000833826
0.000769111
0.000724516
0.000704559
0.000697467
0.000695269
0.000694672
0.000694666
0.000695256
0.000697442
0.00070451
0.000724415
0.000768886
0.000833185
0.000909637
0.000979914
0.00103076
0.00105412
0.00104393
0.000992984
0.000891793
0.000735016
0.000597636
0.000598752
0.000736953
0.000896665
0.00100411
0.00106675
0.00109619
0.00110056
0.00108357
0.00104595
0.000988305
0.000914825
0.000836529
0.000770896
0.000725565
0.000705215
0.000697967
0.000695717
0.0006951
0.000695094
0.000695702
0.000697941
0.000705165
0.000725463
0.00077067
0.000835883
0.000912944
0.000983183
0.00103346
0.00105602
0.00104512
0.000993628
0.000892096
0.000735134
0.000597669
0.000598737
0.000736952
0.000896668
0.00100412
0.00106676
0.00109622
0.00110059
0.00108362
0.00104601
0.00098837
0.000914898
0.000836602
0.000770955
0.000725605
0.000705236
0.000697977
0.000695719
0.000695094
0.000695087
0.000695703
0.00069795
0.000705186
0.000725503
0.00077073
0.000835958
0.000913019
0.000983252
0.00103351
0.00105607
0.00104515
0.000993647
0.000892106
0.000735135
0.00059765
0.000598732
0.000736938
0.000896616
0.00100397
0.00106644
0.00109556
0.00109942
0.00108175
0.00104339
0.00098522
0.00091174
0.00083406
0.000769301
0.000724645
0.000704632
0.000697506
0.000695287
0.000694669
0.000694662
0.00069527
0.00069748
0.000704584
0.000724547
0.000769083
0.000833429
0.000909882
0.000980131
0.00103094
0.00105425
0.00104403
0.000993043
0.000891824
0.000735022
0.000597587
0.000598734
0.000736907
0.000896492
0.00100364
0.00106566
0.00109399
0.00109654
0.00107701
0.00103649
0.000976546
0.000902711
0.000826605
0.000764394
0.000721814
0.000702888
0.000696162
0.000694054
0.000693464
0.000693457
0.00069404
0.00069614
0.000702846
0.000721725
0.000764192
0.000826003
0.000900894
0.000971516
0.00102411
0.00104959
0.00104124
0.000991566
0.000891139
0.00073475
0.000597454
0.000598732
0.000736848
0.000896273
0.00100304
0.00106428
0.0010911
0.00109104
0.00106755
0.00102196
0.000957217
0.000881684
0.000808903
0.000752871
0.00071546
0.000699272
0.000693422
0.00069152
0.000690971
0.000690967
0.00069151
0.000693405
0.000699239
0.000715388
0.000752699
0.000808361
0.000879939
0.000952277
0.00100968
0.00104025
0.00103587
0.000988807
0.000889881
0.000734248
0.000597196
0.000598716
0.000736755
0.000895946
0.00100216
0.0010622
0.00108662
0.00108216
0.00105136
0.000995314
0.000919221
0.000838767
0.000772181
0.000730525
0.000705011
0.000695274
0.000690616
0.000688806
0.000688243
0.000688241
0.000688799
0.000690602
0.000695243
0.000704947
0.000730383
0.000771714
0.000837118
0.000914375
0.000983112
0.00102414
0.0010271
0.000984466
0.000887944
0.000733476
0.000596775
0.000598681
0.00073663
0.00089553
0.00100107
0.00105962
0.00108094
0.00107036
0.00102837
0.000954206
0.000855901
0.00077066
0.000707508
0.000698905
0.000698777
0.000704259
0.000698036
0.00069495
0.000694059
0.000694056
0.000694935
0.000697994
0.000704173
0.000698621
0.000698678
0.000707057
0.000769029
0.000850995
0.000941881
0.00100106
0.00101529
0.000978878
0.000885517
0.000732514
0.000596231
0.000598612
0.000736455
0.000895047
0.000999938
0.00105714
0.00107556
0.00105889
0.00100472
0.000909168
0.000790011
0.000861459
0.000622257
0.000674931
0.000716825
0.000753363
0.000733401
0.000725577
0.000723851
0.000723845
0.000725538
0.000733259
0.000753048
0.000716131
0.000673913
0.00062108
0.000858443
0.000783998
0.000896019
0.000976898
0.00100362
0.00097355
0.000883237
0.000731614
0.000595712
0.000598436
0.000736126
0.000894383
0.000998819
0.00105537
0.00107264
0.00105363
0.000995307
0.000903246
0.00101987
0.000679703
0.000604001
0.000638199
0.000655713
0.000657914
0.000658019
0.000657988
0.000657933
0.000657787
0.000657252
0.000654104
0.000634915
0.000598587
0.000669618
0.0010025
0.000887432
0.000966301
0.000997982
0.000970786
0.000881933
0.000731054
0.000595388
0.000597893
0.000735249
0.000892953
0.000997045
0.00105387
0.00107266
0.00105741
0.00100601
0.000914966
0.00080361
0.000904808
0.000642765
0.000665765
0.000682416
0.000680599
0.000689824
0.000693285
0.000694014
0.000693892
0.000692742
0.00068818
0.000676304
0.000673175
0.000650337
0.000622968
0.000870994
0.000786316
0.000895892
0.000975361
0.00100142
0.00097136
0.000881556
0.000730635
0.000595135
0.000596286
0.000732811
0.000889209
0.000992503
0.00104984
0.00107164
0.0010639
0.00102777
0.00096309
0.000878464
0.00080998
0.000752583
0.000735028
0.000720894
0.000708498
0.000706377
0.000706073
0.000705924
0.00070572
0.000705131
0.000703393
0.00070039
0.000702967
0.000706434
0.000718603
0.000777566
0.000853243
0.000939116
0.000995107
0.00100796
0.000971853
0.000880059
0.000729152
0.000594136
0.000592018
0.000726586
0.000879962
0.000981028
0.00103793
0.00106229
0.00106181
0.00103995
0.000998438
0.000942039
0.000883054
0.000831125
0.00078965
0.000758063
0.000734631
0.000724893
0.000721664
0.000720701
0.000720427
0.000720369
0.000720661
0.000722755
0.000731666
0.000753108
0.000786974
0.000842767
0.000910172
0.000970647
0.00100629
0.00100725
0.000965958
0.000873358
0.000724006
0.000590545
0.000581765
0.000712227
0.000859474
0.000955694
0.00101011
0.00103519
0.0010396
0.00102789
0.00100205
0.000964115
0.000918188
0.00086916
0.00082144
0.000783195
0.000755132
0.000742529
0.000738068
0.000736705
0.000736387
0.00073658
0.000737716
0.000741795
0.000754018
0.000781988
0.00082225
0.000875739
0.000930601
0.000973931
0.000995796
0.000988958
0.000945518
0.000855129
0.000710596
0.00058088
0.000559155
0.000682079
0.000818454
0.000906059
0.000955159
0.000978547
0.000985149
0.000979733
0.000964128
0.000938924
0.000905028
0.000864577
0.000821938
0.000785308
0.000760555
0.000748867
0.000744431
0.000742993
0.000742668
0.000742957
0.000744328
0.000748657
0.00076026
0.000785183
0.000822889
0.000867696
0.000909536
0.000939798
0.000952333
0.000941564
0.000899756
0.000815877
0.00068117
0.00055871
0.00051295
0.00062437
0.000743916
0.000818446
0.000859163
0.000878563
0.000885071
0.000883117
0.000874266
0.000858553
0.000835808
0.000806977
0.000775505
0.000747836
0.00072961
0.000720638
0.000717046
0.000715825
0.000715548
0.000715826
0.000717039
0.000720612
0.000729586
0.000747947
0.000776069
0.000808227
0.000836926
0.000856429
0.000862702
0.000851313
0.000814998
0.000742598
0.000623951
0.000512793
0.000426009
0.000526519
0.000624414
0.000682159
0.000712213
0.000726104
0.000731037
0.000730623
0.000726058
0.000717206
0.00070361
0.000685606
0.000665449
0.0006475
0.00063584
0.000630019
0.000627628
0.000626792
0.000626603
0.000626808
0.000627655
0.000630055
0.000635893
0.000647621
0.000665739
0.000686079
0.000703703
0.000715084
0.000717729
0.00070833
0.000680594
0.000623884
0.000526384
0.000426006
0.000293764
0.000426008
0.000513027
0.000559324
0.000581955
0.00059201
0.000595568
0.000595451
0.000592505
0.000586513
0.000576979
0.000563989
0.000549182
0.000535979
0.000527827
0.000523905
0.000522308
0.000521736
0.000521602
0.000521751
0.000522334
0.000523937
0.000527866
0.00053605
0.000549341
0.000564245
0.000576984
0.000585052
0.000586786
0.000579728
0.000558552
0.000512839
0.000425997
0.000293818
0.000337941
0.000547579
0.000690639
0.000770275
0.000811373
0.000831101
0.000839789
0.000843167
0.000844149
0.000844118
0.000843716
0.000843251
0.000842866
0.000842601
0.000842434
0.000842327
0.000842259
0.000842225
0.000842224
0.000842256
0.000842322
0.000842423
0.000842572
0.000842784
0.000843009
0.000843012
0.000842158
0.000839012
0.000830578
0.000811067
0.000770121
0.000690575
0.000547564
0.000337957
0.000547579
0.000622588
0.000726587
0.000792689
0.000829198
0.000847492
0.000855806
0.000859119
0.000860105
0.000860088
0.000859708
0.00085927
0.000858914
0.000858673
0.000858527
0.000858438
0.000858384
0.000858358
0.000858358
0.000858385
0.000858438
0.000858523
0.000858653
0.000858839
0.000859029
0.000858992
0.000858111
0.000855016
0.000846954
0.00082888
0.000792527
0.000726517
0.000622559
0.000547561
0.00069069
0.000726603
0.000832512
0.000905582
0.000948401
0.000970943
0.00098157
0.000985798
0.000986833
0.000986415
0.000985483
0.000984539
0.000983811
0.000983337
0.000983059
0.000982897
0.000982801
0.000982755
0.000982755
0.000982803
0.000982898
0.000983052
0.000983303
0.000983688
0.000984157
0.000984393
0.000983534
0.000979757
0.000969682
0.000947638
0.000905184
0.000832337
0.000726539
0.000690653
0.000770391
0.000792737
0.000905614
0.000986562
0.00103557
0.00106205
0.00107458
0.00107917
0.00107952
0.00107787
0.00107561
0.00107356
0.00107207
0.00107115
0.00107063
0.00107034
0.00107017
0.00107008
0.00107008
0.00107017
0.00107034
0.00107062
0.0010711
0.0010719
0.00107302
0.00107412
0.00107405
0.00107042
0.00105912
0.00103377
0.000985601
0.000905174
0.000792566
0.000770275
0.00081155
0.00082928
0.000948474
0.00103562
0.00108923
0.00111834
0.00113159
0.00113523
0.00113338
0.00112889
0.0011239
0.00111977
0.00111701
0.00111537
0.00111448
0.00111402
0.00111374
0.00111359
0.0011136
0.00111374
0.00111402
0.00111447
0.00111531
0.00111679
0.00111911
0.00112207
0.00112428
0.0011226
0.00111197
0.00108528
0.00103347
0.000947451
0.000828844
0.0008112
0.000831331
0.000847611
0.000971078
0.0010622
0.00111849
0.00114852
0.00116071
0.00116126
0.00115461
0.00114455
0.00113456
0.00112703
0.00112257
0.00112006
0.00111867
0.00111816
0.0011178
0.00111758
0.00111758
0.00111781
0.00111816
0.00111866
0.00112
0.00112233
0.00112629
0.00113251
0.00113936
0.00114261
0.0011357
0.00111053
0.00105783
0.000968939
0.000846638
0.000830475
0.000840079
0.000855977
0.000981816