/*--------------------------------*- C++ -*----------------------------------*\
| =========                 |                                                 |
| \\      /  F ield         | OpenFOAM: The Open Source CFD Toolbox           |
|  \\    /   O peration     | Version:  2112                                  |
|   \\  /    A nd           | Website:  www.openfoam.com                      |
|    \\/     M anipulation  |                                                 |
\*---------------------------------------------------------------------------*/
FoamFile
{
    version     2.0;
    format      ascii;
    arch        "LSB;label=32;scalar=64";
    class       volScalarField;
    location    "3.4";
    object      k;
}
// * * * * * * * * * * * * * * * * * * * * * * * * * * * * * * * * * * * * * //

dimensions      [0 2 -2 0 0 0 0];

internalField   nonuniform List<scalar> 
64906
(
0.000334852
0.000372003
0.000394541
0.000405235
0.000409902
0.000411811
0.000412542
0.0004128
0.000412876
0.000412882
0.000412867
0.000412851
0.000412835
0.000412821
0.000412808
0.000412794
0.000412781
0.000412771
0.000412766
0.000412772
0.000412783
0.000412796
0.000412808
0.000412819
0.000412827
0.000412818
0.000412755
0.000412515
0.0004118
0.000409902
0.000405242
0.000394556
0.000372022
0.000334867
0.000372027
0.00055732
0.000655024
0.000703933
0.000727832
0.000738899
0.000743648
0.00074547
0.00074602
0.000746053
0.000745907
0.000745734
0.000745602
0.000745524
0.000745485
0.000745465
0.000745452
0.000745445
0.000745445
0.000745452
0.000745466
0.000745486
0.000745518
0.000745574
0.00074563
0.000745576
0.000745079
0.000743365
0.000738739
0.000727775
0.000703945
0.000655074
0.000557376
0.000372067
0.000394603
0.000655068
0.000795288
0.000868689
0.000906489
0.000924965
0.000933266
0.000936482
0.000937293
0.000937053
0.00093646
0.000935879
0.000935463
0.000935234
0.000935133
0.000935085
0.000935058
0.000935045
0.000935047
0.000935064
0.000935095
0.000935142
0.00093523
0.000935406
0.000935656
0.000935759
0.000935081
0.000932196
0.000924288
0.000906154
0.000868592
0.000795323
0.000655157
0.000394672
0.000405324
0.000704023
0.00086874
0.000957793
0.00100522
0.00102909
0.00103992
0.00104379
0.00104411
0.00104277
0.00104094
0.00103933
0.00103822
0.00103762
0.00103735
0.00103721
0.00103711
0.00103706
0.00103707
0.00103712
0.00103722
0.00103737
0.00103761
0.00103813
0.00103898
0.00103987
0.00103986
0.00103685
0.00102706
0.0010041
0.000957318
0.000868638
0.000704097
0.000405414
0.000410008
0.000727954
0.000906584
0.00100527
0.00105888
0.00108611
0.00109801
0.00110115
0.00109939
0.00109523
0.00109058
0.00108682
0.00108434
0.00108309
0.00108255
0.00108221
0.00108196
0.00108183
0.00108183
0.00108197
0.00108222
0.00108256
0.00108307
0.00108422
0.00108636
0.00108922
0.00109159
0.00109047
0.00108105
0.00105598
0.0010039
0.000906113
0.000727928
0.000410107
0.000411926
0.00073904
0.000925103
0.00102922
0.00108622
0.00111476
0.00112583
0.00112597
0.00111925
0.00110899
0.00109862
0.00109103
0.00108644
0.00108438
0.00108364
0.00108302
0.0010825
0.00108222
0.00108223
0.00108251
0.00108304
0.00108366
0.00108437
0.00108631
0.00109053
0.00109708
0.00110487
0.00110924
0.00110365
0.0010798
0.00102606
0.000923861
0.000738769
0.000412017
0.000412659
0.000743803
0.000933468
0.0010402
0.00109842
0.00112626
0.0011341
0.00112779
0.00111118
0.00108878
0.00106762
0.00105485
0.00104829
0.00104611
0.00104578
0.0010449
0.001044
0.00104352
0.00104353
0.00104402
0.00104493
0.00104581
0.00104612
0.00104818
0.00105436
0.00106606
0.00108448
0.00110061
0.00110424
0.00108579
0.00103391
0.000930869
0.000743073
0.000412717
0.000412914
0.000745653
0.000936808
0.00104441
0.00110225
0.00112759
0.00112945
0.00111189
0.0010772
0.00103104
0.000989155
0.000974177
0.000970127
0.000970949
0.000972789
0.000971993
0.000970811
0.00097019
0.000970197
0.000970833
0.000972028
0.000972832
0.000970975
0.000970062
0.000973781
0.000987717
0.00102682
0.00106649
0.00108778
0.00108001
0.00103341
0.000932174
0.000744218
0.000412905
0.000412987
0.00074626
0.000937863
0.00104538
0.00110191
0.00112348
0.0011169
0.00108244
0.00101676
0.000921563
0.000831695
0.00083881
0.000855717
0.000867548
0.000874389
0.000874824
0.000874092
0.000873663
0.000873671
0.000874116
0.000874863
0.000874442
0.000867601
0.000855725
0.000838597
0.000830596
0.000917696
0.00100619
0.00105817
0.00106695
0.00102846
0.000930718
0.000743948
0.000412881
0.000412993
0.000746398
0.000938042
0.00104517
0.00110024
0.00111797
0.00110241
0.00104748
0.000934504
0.000733231
0.000508061
0.000635056
0.000721736
0.000756959
0.000770281
0.000773857
0.000774651
0.000774779
0.000774786
0.000774673
0.000773895
0.000770339
0.000757037
0.000721831
0.000635126
0.000507675
0.000730153
0.000924236
0.00102318
0.00105223
0.00102257
0.000928561
0.000743271
0.00041278
0.00041298
0.000746414
0.000938061
0.00104498
0.0010993
0.001115
0.00109427
0.00102537
0.000868311
0.000522541
0.000459173
0.000621702
0.000676324
0.000692902
0.000698304
0.000699834
0.000700181
0.000700185
0.000699847
0.000698328
0.000692942
0.000676393
0.000621815
0.000459245
0.000521024
0.000858444
0.00100107
0.00104397
0.0010194
0.000927389
0.000742871
0.0004127
0.000412963
0.00074644
0.000938216
0.00104537
0.00110014
0.00111694
0.00109936
0.00104083
0.000922409
0.000714526
0.000492555
0.000583563
0.000657362
0.000686157
0.000694435
0.000699204
0.000700541
0.000700742
0.000700741
0.000700537
0.000699199
0.000694426
0.000686149
0.000657347
0.000583437
0.000492043
0.000711285
0.000912054
0.00101642
0.00104899
0.00102123
0.000928061
0.000743049
0.0004127
0.000412954
0.000746503
0.000938527
0.00104623
0.00110224
0.00112187
0.0011109
0.0010682
0.000988823
0.000873093
0.000756869
0.000724826
0.000711109
0.00070695
0.000705491
0.000705874
0.000705919
0.000705826
0.000705821
0.000705906
0.00070585
0.000705448
0.000706877
0.00071096
0.000724431
0.000755616
0.000869149
0.000978169
0.00104369
0.00106047
0.00102607
0.000930004
0.000743672
0.000412753
0.000412942
0.000746578
0.000938887
0.00104722
0.00110461
0.0011272
0.00112231
0.00109167
0.00103478
0.000954951
0.000867908
0.000799234
0.00074809
0.000724374
0.000715588
0.000712806
0.000711867
0.000711543
0.000711536
0.000711845
0.000712768
0.000715526
0.00072427
0.000747892
0.000798762
0.000866438
0.000950722
0.00102392
0.00106703
0.00107178
0.00103128
0.000932199
0.000744398
0.000412808
0.000412927
0.00074664
0.000939197
0.00104806
0.00110658
0.0011314
0.00113066
0.00110714
0.00106107
0.000994207
0.000914085
0.000833968
0.00076802
0.000734952
0.000722023
0.000717568
0.000716079
0.000715601
0.00071559
0.000716049
0.00071752
0.000721951
0.000734835
0.000767807
0.000833467
0.000912533
0.000989843
0.00105007
0.00108238
0.00108
0.00103532
0.000933974
0.00074499
0.00041284
0.000412907
0.000746678
0.000939416
0.00104865
0.00110791
0.00113413
0.00113579
0.00111593
0.00107461
0.0010123
0.000933611
0.000849218
0.000777313
0.000740202
0.000725325
0.000720086
0.000718314
0.000717727
0.000717711
0.000718276
0.000720031
0.000725247
0.00074008
0.000777093
0.000848655
0.00093202
0.00100786
0.00106351
0.00109105
0.001085
0.00103791
0.000935141
0.000745372
0.000412843
0.000412885
0.000746694
0.000939546
0.001049
0.00110868
0.00113565
0.0011385
0.00112031
0.00108091
0.00102012
0.000941559
0.000855471
0.000781158
0.000742427
0.00072674
0.000721163
0.000719248
0.000718577
0.000718556
0.000719202
0.000721102
0.000726657
0.000742302
0.000780933
0.000854883
0.000939949
0.00101564
0.00106974
0.00109535
0.00108762
0.00103932
0.00093579
0.000745576
0.000412827
0.000412863
0.000746695
0.000939607
0.00104916
0.00110903
0.00113631
0.00113964
0.00112209
0.00108334
0.00102299
0.000944362
0.00085765
0.000782497
0.000743206
0.000727228
0.000721521
0.000719537
0.000718803
0.000718776
0.000719483
0.000721455
0.000727141
0.000743077
0.00078227
0.00085706
0.000942744
0.00101849
0.00107215
0.00109709
0.00108871
0.00103993
0.000936075
0.000745656
0.0004128
0.000412846
0.000746689
0.000939615
0.00104918
0.00110905
0.00113634
0.00113969
0.00112215
0.00108342
0.00102308
0.000944456
0.000857742
0.000782563
0.000743245
0.000727244
0.000721517
0.000719509
0.000718738
0.000718705
0.00071945
0.000721448
0.000727155
0.000743116
0.000782337
0.000857156
0.000942844
0.00101859
0.00107223
0.00109715
0.00108876
0.00103996
0.000936094
0.000745653
0.000412772
0.000412843
0.00074668
0.000939569
0.00104905
0.00110875
0.00113575
0.00113864
0.0011205
0.00108114
0.00102039
0.000941857
0.000855765
0.000781368
0.000742556
0.000726796
0.000721159
0.000719175
0.000718408
0.000718372
0.000719113
0.000721087
0.000726707
0.000742428
0.000781148
0.000855193
0.000940267
0.00101593
0.00106999
0.00109555
0.00108776
0.00103942
0.000935848
0.000745571
0.000412762
0.000412857
0.000746664
0.000939454
0.00104873
0.00110803
0.0011343
0.00113602
0.00111624
0.00107501
0.00101279
0.000934162
0.000849771
0.000777704
0.000740447
0.000725445
0.000720104
0.000718225
0.000717515
0.000717482
0.000718163
0.000720033
0.000725358
0.000740326
0.000777498
0.000849229
0.000932614
0.00100839
0.00106394
0.00109138
0.00108525
0.00103808
0.000935239
0.000745377
0.000412768
0.000412875
0.00074663
0.000939249
0.00104817
0.00110674
0.00113163
0.00113099
0.00110759
0.00106167
0.000994966
0.000914987
0.000834779
0.000768644
0.00073534
0.000722224
0.000717624
0.000716001
0.000715406
0.000715381
0.000715945
0.000717556
0.000722145
0.000735234
0.000768467
0.000834321
0.000913523
0.00099068
0.00105072
0.00108285
0.00108034
0.00103555
0.000934109
0.00074501
0.000412763
0.00041289
0.00074657
0.000938941
0.00104733
0.00110479
0.00112746
0.00112269
0.00109222
0.00103558
0.000956071
0.000869315
0.000800459
0.000748938
0.000724826
0.000715767
0.00071279
0.000711709
0.000711294
0.000711276
0.000711664
0.000712729
0.000715694
0.000724734
0.000748803
0.000800116
0.000868008
0.00095197
0.00102478
0.00106761
0.00107216
0.00103153
0.000932353
0.00074443
0.000412731
0.0004129
0.000746481
0.000938545
0.00104628
0.00110233
0.00112205
0.0011112
0.00106873
0.000989735
0.000874575
0.000758938
0.000726564
0.000711734
0.000706855
0.000704982
0.000705098
0.000704998
0.000704833
0.000704819
0.000704957
0.000705029
0.000704878
0.000706717
0.000711595
0.000726391
0.000757954
0.000870807
0.000979071
0.00104414
0.00106072
0.00102624
0.000930115
0.000743693
0.000412673
0.000412904
0.000746353
0.000938083
0.00104518
0.00109992
0.00111674
0.00109925
0.00104095
0.000923068
0.00071619
0.000493686
0.000584079
0.000655415
0.000682869
0.000690316
0.000694664
0.000695838
0.000695974
0.000695956
0.000695771
0.00069451
0.000689993
0.000682334
0.000654816
0.000583934
0.000493215
0.000713093
0.000912344
0.00101613
0.00104866
0.00102102
0.000927965
0.000742988
0.000412613
0.000412895
0.000746107
0.000937461
0.00104408
0.00109816
0.00111367
0.0010928
0.00102381
0.000866943
0.000521987
0.00045419
0.000609871
0.0006606
0.000674623
0.000679082
0.000680331
0.000680581
0.000680528
0.000680125
0.000678549
0.000673404
0.000658265
0.000606471
0.000451891
0.000519414
0.000855268
0.000998164
0.0010419
0.00101811
0.000926683
0.000742548
0.000412585
0.000412828
0.000745458
0.000936181
0.00104243
0.00109677
0.00111392
0.00109777
0.00104212
0.000928241
0.000726374
0.000502007
0.000610619
0.000684515
0.000707933
0.000713401
0.000714892
0.000715346
0.000715427
0.000715322
0.000714896
0.00071358
0.000710034
0.000700653
0.000672103
0.000597832
0.000495937
0.000716193
0.000912404
0.00101459
0.00104643
0.00101884
0.000926367
0.000742249
0.000412568
0.000412589
0.000743646
0.000932884
0.00103829
0.0010931
0.00111327
0.00110523
0.00106859
0.000999002
0.000896746
0.000794555
0.000778783
0.000769659
0.000754426
0.000745156
0.000741443
0.000740238
0.000739866
0.000739702
0.000739492
0.000739085
0.000738564
0.000738648
0.000740043
0.000746262
0.000767298
0.000873927
0.000976742
0.00103848
0.00105368
0.00101955
0.000925119
0.000741178
0.000412425
0.000411878
0.000738969
0.000924737
0.00102784
0.0010822
0.00110484
0.00110407
0.00108267
0.00104094
0.000981664
0.00091713
0.00086744
0.000819511
0.000775878
0.000754312
0.000746176
0.000743545
0.000742778
0.000742574
0.000742582
0.000742975
0.000744839
0.000751614
0.000771318
0.000815493
0.000873515
0.000948415
0.00101337
0.00105097
0.00105359
0.00101432
0.000919265
0.000737326
0.000411805
0.000409982
0.000727981
0.000906486
0.00100456
0.00105645
0.00107975
0.0010837
0.00107238
0.001047
0.00100852
0.000960141
0.000906812
0.000849216
0.00079717
0.000771156
0.000761107
0.000757773
0.000756795
0.00075657
0.000756699
0.000757517
0.000760555
0.000770184
0.000796007
0.000849376
0.000911827
0.000972321
0.00101855
0.00104196
0.00103686
0.000995597
0.000903043
0.000727057
0.000409984
0.000405317
0.000704134
0.000868871
0.000957659
0.00100417
0.00102577
0.00103181
0.00102665
0.00101159
0.000986559
0.000951724
0.000908611
0.00086087
0.000818135
0.000794811
0.0007851
0.000781649
0.000780594
0.000780375
0.000780548
0.000781553
0.000784908
0.000794506
0.000817858
0.000861415
0.000911026
0.000955758
0.000987482
0.00100104
0.000991888
0.000952358
0.000867024
0.000703751
0.000405371
0.00039462
0.000655238
0.000795569
0.000868947
0.000906399
0.000923817
0.000929671
0.000927962
0.000919886
0.000905148
0.000883214
0.000854669
0.00082273
0.000794372
0.000777731
0.00077021
0.000767405
0.000766518
0.000766324
0.000766502
0.000767366
0.000770136
0.000777629
0.000794344
0.00082304
0.000855558
0.000884088
0.000903283
0.000909779
0.000899867
0.000866398
0.000794859
0.000655205
0.000394706
0.000372069
0.00055749
0.000655334
0.000704343
0.000728222
0.000738989
0.000742852
0.000742692
0.000739377
0.000732682
0.000722057
0.000707633
0.000691193
0.000676443
0.000667351
0.000663013
0.000661311
0.000660744
0.000660619
0.000660748
0.000661316
0.000663015
0.000667349
0.000676475
0.000691333
0.000707913
0.000722087
0.000731084
0.000733141
0.000725781
0.000703597
0.000655282
0.000557617
0.000372155
0.000334895
0.000372117
0.000394753
0.00040554
0.000410289
0.00041226
0.000412996
0.000413128
0.00041282
0.000412002
0.000410634
0.000408603
0.000406112
0.000403752
0.000402252
0.0004015
0.000401162
0.000401003
0.000400947
0.000401011
0.00040117
0.000401504
0.000402249
0.000403743
0.000406102
0.000408598
0.00041059
0.000411766
0.000411853
0.000410289
0.000405689
0.000394917
0.000372233
0.000334956
0.000480868
0.000616998
0.000699001
0.00074089
0.000761118
0.000770308
0.000774172
0.000775625
0.000776049
0.000776057
0.000775921
0.000775759
0.000775625
0.000775532
0.000775471
0.00077543
0.000775402
0.000775386
0.000775384
0.000775397
0.000775423
0.000775462
0.000775515
0.000775589
0.000775663
0.000775645
0.000775271
0.000773906
0.000770136
0.000761026
0.000740852
0.000698995
0.000617009
0.000480885
0.000617005
0.00117294
0.00142102
0.00155122
0.00161857
0.00165162
0.00166659
0.00167254
0.00167426
0.00167412
0.00167329
0.00167236
0.00167159
0.00167107
0.00167075
0.00167054
0.00167042
0.00167036
0.00167036
0.00167042
0.00167055
0.00167074
0.00167103
0.00167145
0.0016719
0.00167196
0.00167047
0.00166497
0.00165051
0.0016179
0.00155087
0.00142086
0.00117288
0.000617019
0.000699044
0.00142112
0.00174872
0.00192746
0.00202387
0.0020732
0.00209631
0.00210549
0.00210764
0.00210654
0.00210424
0.00210191
0.0021001
0.00209894
0.00209827
0.00209787
0.00209762
0.00209751
0.00209751
0.00209763
0.00209787
0.00209826
0.00209886
0.00209982
0.00210104
0.00210178
0.0021001
0.00209203
0.00207023
0.00202208
0.00192653
0.00174833
0.00142101
0.00069907
0.000740974
0.00155139
0.00192755
0.0021385
0.00225545
0.00231663
0.00234533
0.00235573
0.00235627
0.00235199
0.00234612
0.00234072
0.00233674
0.00233431
0.00233299
0.0023322
0.0023317
0.00233146
0.00233146
0.00233171
0.00233221
0.00233297
0.0023342
0.00233632
0.00233944
0.00234259
0.002343
0.00233511
0.00230949
0.00225108
0.00213618
0.00192653
0.00155108
0.000740989
0.000761236
0.0016188
0.00202406
0.00225558
0.00238596
0.00245442
0.00248517
0.00249329
0.00248823
0.00247647
0.00246304
0.00245161
0.00244366
0.00243914
0.00243683
0.00243538
0.00243442
0.00243394
0.00243394
0.00243444
0.0024354
0.00243681
0.002439
0.00244314
0.00245
0.00245864
0.00246544
0.00246274
0.00243871
0.00237629
0.00225036
0.00202166
0.00161795
0.000761181
0.00077045
0.00165191
0.00207352
0.00231701
0.00245478
0.0025258
0.00255398
0.0025543
0.00253674
0.00250972
0.0024818
0.00246002
0.002446
0.00243881
0.00243553
0.00243321
0.00243151
0.00243062
0.00243063
0.00243152
0.00243323
0.00243551
0.00243867
0.00244544
0.00245823
0.00247685
0.0024973
0.00250825
0.00249398
0.00243525
0.00230638
0.0020685
0.00165
0.000770217
0.000774335
0.00166697
0.00209689
0.00234625
0.0024865
0.00255536
0.00257527
0.00255974
0.00251837
0.00246246
0.00240848
0.002372
0.00235147
0.00234278
0.0023398
0.00233668
0.002334
0.00233259
0.00233259
0.00233402
0.00233671
0.0023398
0.00234267
0.00235093
0.00237021
0.00240335
0.00244933
0.00248807
0.00249583
0.00245044
0.00232672
0.00208754
0.00166326
0.000773765
0.000775816
0.0016731
0.00210659
0.00235781
0.00249683
0.00255927
0.00256458
0.00252243
0.00243938
0.00232973
0.00222871
0.00217991
0.002161
0.00215733
0.0021585
0.00215555
0.00215219
0.00215039
0.0021504
0.00215221
0.00215559
0.00215853
0.00215727
0.00216058
0.00217833
0.00222378
0.00231645
0.00240814
0.00245642
0.00243618
0.00232542
0.00209106
0.00166678
0.000774723
0.000776288
0.00167515
0.00210971
0.00236055
0.0024961
0.00254922
0.00253456
0.00245389
0.00230252
0.00208817
0.00188578
0.00186382
0.00188397
0.00190322
0.00191498
0.00191562
0.00191355
0.00191223
0.00191223
0.00191357
0.00191566
0.00191504
0.00190324
0.00188376
0.00186273
0.00188155
0.00207522
0.0022708
0.00238655
0.00240402
0.00231246
0.0020868
0.00166572
0.000774541
0.000776377
0.00167557
0.00211017
0.00235988
0.00249165
0.00253546
0.00250011
0.00237462
0.00212464
0.00168675
0.00105593
0.0013851
0.00155965
0.00163171
0.00165707
0.00166807
0.00167067
0.00167094
0.00167095
0.0016707
0.00166812
0.00165715
0.0016318
0.00155971
0.0013849
0.00105366
0.00167471
0.00209255
0.00230625
0.00236815
0.00229701
0.00208051
0.00166327
0.000774018
0.00077636
0.00167553
0.00211006
0.00235912
0.00248882
0.00252754
0.00248037
0.00232601
0.00199114
0.00111357
0.000861903
0.00129681
0.00141532
0.00145367
0.00146538
0.00146848
0.00146912
0.00146913
0.0014685
0.00146541
0.00145373
0.00141543
0.00129698
0.000861975
0.00110523
0.00195881
0.00225696
0.00234763
0.00228823
0.00207676
0.00166166
0.000773673
0.000776341
0.00167554
0.00211032
0.00235979
0.00249026
0.00253087
0.00248922
0.00235292
0.00208607
0.00162312
0.000986561
0.0012301
0.00138731
0.00145268
0.00147874
0.0014823
0.00148241
0.0014822
0.0014822
0.00148239
0.00148228
0.00147871
0.00145263
0.0013872
0.00122961
0.000984079
0.00161086
0.00205373
0.00228411
0.00235654
0.0022914
0.00207788
0.0016619
0.000773738
0.000776346
0.0016757
0.00211107
0.00236179
0.00249501
0.0025417
0.00251386
0.00240963
0.00221981
0.00194651
0.00166309
0.00154515
0.00148794
0.00146902
0.00146452
0.00146292
0.00146208
0.00146166
0.00146166
0.00146206
0.00146289
0.00146445
0.00146887
0.00148755
0.00154391
0.00165881
0.00193344
0.00218764
0.00234126
0.00238154
0.00230241
0.00208259
0.00166366
0.000774122
0.000776362
0.00167595
0.00211203
0.00236427
0.00250072
0.00255407
0.00253949
0.0024609
0.00231786
0.00211816
0.00189674
0.00171103
0.00156787
0.00149948
0.00147456
0.00146666
0.00146424
0.00146353
0.00146353
0.00146422
0.00146662
0.00147448
0.00149928
0.00156736
0.00170953
0.00189197
0.00210474
0.0022857
0.00239274
0.00240741
0.00231491
0.00208827
0.00166591
0.000774585
0.000776372
0.00167619
0.00211289
0.00236647
0.00250564
0.00256419
0.00255902
0.00249618
0.00237674
0.00220528
0.0019998
0.00179247
0.0016153
0.00152334
0.00148748
0.00147565
0.00147215
0.00147124
0.00147124
0.00147213
0.00147562
0.0014874
0.00152313
0.00161477
0.00179088
0.00199483
0.00219164
0.00234447
0.00242801
0.00242697
0.00232502
0.00209308
0.00166786
0.000774958
0.000776369
0.00167637
0.00211353
0.00236806
0.00250908
0.002571
0.00257142
0.00251695
0.00240829
0.00224733
0.00204574
0.00182979
0.00163885
0.00153655
0.00149554
0.00148177
0.00147771
0.00147669
0.00147669
0.0014777
0.00148173
0.00149546
0.00153634
0.00163831
0.00182821
0.00204067
0.00223355
0.00237588
0.00244867
0.00243927
0.0023317
0.00209635
0.00166919
0.000775188
0.000776357
0.00167647
0.00211391
0.00236901
0.00251111
0.00257488
0.00257818
0.00252766
0.0024235
0.00226621
0.00206522
0.00184551
0.00164904
0.0015425
0.00149932
0.0014847
0.0014804
0.00147933
0.00147933
0.00148039
0.00148467
0.00149923
0.00154229
0.0016485
0.0018439
0.00206009
0.00225234
0.00239099
0.00245926
0.00244591
0.00233545
0.00209822
0.00166996
0.000775298
0.000776341
0.00167652
0.00211409
0.00236945
0.00251202
0.00257659
0.00258107
0.00253207
0.0024295
0.00227331
0.00207225
0.0018511
0.00165268
0.00154464
0.00150068
0.00148576
0.00148137
0.00148027
0.00148027
0.00148135
0.00148573
0.0015006
0.00154443
0.00165214
0.00184947
0.00206709
0.00225939
0.00239692
0.0024636
0.00244872
0.00233707
0.00209905
0.00167029
0.00077533
0.000776328
0.00167651
0.0021141
0.00236947
0.00251205
0.00257663
0.00258113
0.00253215
0.0024296
0.00227342
0.00207237
0.00185122
0.0016528
0.00154472
0.00150072
0.00148579
0.00148138
0.00148028
0.00148027
0.00148136
0.00148575
0.00150064
0.00154451
0.00165226
0.0018496
0.00206722
0.00225951
0.00239703
0.00246369
0.00244878
0.00233712
0.00209907
0.00167029
0.000775313
0.000776323
0.00167647
0.00211394
0.00236907
0.0025112
0.00257501
0.00257837
0.00252791
0.00242382
0.00226658
0.00206562
0.00184591
0.00164943
0.00154276
0.00149947
0.0014848
0.00148047
0.00147939
0.00147938
0.00148046
0.00148477
0.00149939
0.00154256
0.00164891
0.00184431
0.00206051
0.00225273
0.00239131
0.00245951
0.00244609
0.00233557
0.00209829
0.00166997
0.000775255
0.000776324
0.00167636
0.00211357
0.00236815
0.00250922
0.00257122
0.00257173
0.00251737
0.00240884
0.00224801
0.0020465
0.00183056
0.0016396
0.00153707
0.00149588
0.00148202
0.00147793
0.0014769
0.00147689
0.00147792
0.001482
0.00149582
0.0015369
0.00163911
0.00182902
0.00204147
0.00223426
0.00237645
0.00244909
0.00243956
0.0023319
0.00209645
0.00166922
0.000775132
0.00077632
0.00167618
0.00211293
0.00236657
0.0025058
0.00256446
0.00255942
0.00249675
0.00237754
0.00220635
0.00200109
0.00179385
0.00161655
0.00152422
0.00148809
0.00147614
0.0014726
0.00147169
0.00147169
0.00147261
0.00147614
0.00148806
0.00152408
0.00161613
0.00179241
0.00199622
0.00219278
0.00234529
0.00242857
0.00242733
0.00232524
0.0020932
0.00166788
0.000774896
0.000776303
0.00167591
0.00211201
0.00236429
0.0025008
0.00255425
0.00253984
0.00246151
0.00231888
0.00211972
0.0018988
0.00171323
0.00156954
0.00150046
0.00147514
0.00146708
0.00146462
0.00146392
0.00146393
0.00146464
0.0014671
0.00147513
0.00150036
0.0015692
0.00171198
0.00189422
0.00210638
0.00228665
0.00239322
0.00240764
0.00231502
0.00208833
0.00166589
0.000774515
0.000776269
0.00167555
0.00211086
0.00236152
0.00249471
0.00254144
0.00251374
0.00240985
0.00222069
0.0019485
0.00166614
0.00154795
0.00148876
0.00146834
0.00146308
0.00146117
0.00146027
0.00145987
0.00145988
0.00146028
0.00146116
0.00146297
0.00146807
0.00148831
0.001547
0.00166215
0.00193543
0.00218809
0.00234097
0.00238108
0.00230203
0.00208234
0.00166349
0.000774024
0.000776203
0.00167506
0.00210952
0.00235864
0.00248882
0.00252924
0.00248753
0.00235145
0.00208546
0.00162483
0.000988829
0.00122986
0.00138099
0.00144282
0.00146686
0.00146965
0.00146961
0.00146942
0.00146941
0.00146955
0.00146939
0.00146613
0.00144135
0.00137905
0.0012288
0.00098639
0.00161206
0.00205137
0.00228103
0.00235394
0.00228957
0.00207675
0.00166128
0.000773557
0.000776041
0.00167416
0.00210764
0.00235565
0.00248443
0.00252234
0.00247443
0.00231941
0.00198437
0.00110883
0.000842629
0.00125942
0.00136758
0.00139893
0.00140858
0.0014114
0.00141205
0.00141195
0.00141094
0.00140722
0.00139554
0.0013607
0.00124877
0.000834078
0.00109571
0.00194587
0.002246
0.0023396
0.00228283
0.00207345
0.0016599
0.000773263
0.000775545
0.00167186
0.00210372
0.00235086
0.00248035
0.00252208
0.00248447
0.00235594
0.0021015
0.00165726
0.0010223
0.00130137
0.00144612
0.0014888
0.00149451
0.00150065
0.00150308
0.00150364
0.00150338
0.00150191
0.00149706
0.00148504
0.00146794
0.00140995
0.00126001
0.000996075
0.00162082
0.00205243
0.00227783
0.0023486
0.00228393
0.00207225
0.00165879
0.000773029
0.000774096
0.00166577
0.00209403
0.00233923
0.00246998
0.00251878
0.00249929
0.00241141
0.00224748
0.00201027
0.00176775
0.00168674
0.00164041
0.00159155
0.00156214
0.00155222
0.00154935
0.0015485
0.00154806
0.00154731
0.00154566
0.00154374
0.0015478
0.00156044
0.00159685
0.00168836
0.00194439
0.00218341
0.00232746
0.00236334
0.00228435
0.00206821
0.00165514
0.000772125
0.000770276
0.00165094
0.00207123
0.00231131
0.00244131
0.00249613
0.00249338
0.00243947
0.0023358
0.00218916
0.00202634
0.00188819
0.00175823
0.00164084
0.00158049
0.00155766
0.00155033
0.0015482
0.00154763
0.00154762
0.00154865
0.00155401
0.00157421
0.00163135
0.00175394
0.00191183
0.00210007
0.00225972
0.00235219
0.00236051
0.00226982
0.0020519
0.00164313
0.000768914
0.000761136
0.00161814
0.00202255
0.00225172
0.00237659
0.00243349
0.00244213
0.00241164
0.00234515
0.00224539
0.00211989
0.00198015
0.0018314
0.00169529
0.00162377
0.00159543
0.00158586
0.00158299
0.00158233
0.00158274
0.00158518
0.00159404
0.00162158
0.00169335
0.00183452
0.00199593
0.00215008
0.0022674
0.00232783
0.00231831
0.00222238
0.00200921
0.0016129
0.000760305
0.00074094
0.00155101
0.00192675
0.00213634
0.0022499
0.00230368
0.00231788
0.00230234
0.00226031
0.00219212
0.00209877
0.0019847
0.00186011
0.00174904
0.00168613
0.00165888
0.00164892
0.00164572
0.00164499
0.00164564
0.0016487
0.00165846
0.00168561
0.00174919
0.00186291
0.00199234
0.00210921
0.00219286
0.00223026
0.0022106
0.00211721
0.00191838
0.00154784
0.000740511
0.000699061
0.00142094
0.00174845
0.00192658
0.00202123
0.00206642
0.00208105
0.0020744
0.00204949
0.00200597
0.00194314
0.00186331
0.00177552
0.00169807
0.00165138
0.00162959
0.00162102
0.0016181
0.00161743
0.00161811
0.00162103
0.00162958
0.00165144
0.00169855
0.00177713
0.00186645
0.00194558
0.00199997
0.00202034
0.0019975
0.00191554
0.00174387
0.00141928
0.000698901
0.000617052
0.0011729
0.00142108
0.00155114
0.00161781
0.00164903
0.00165994
0.00165788
0.00164519
0.00162147
0.00158576
0.00153912
0.00148733
0.00144151
0.00141282
0.00139879
0.00139303
0.00139099
0.00139052
0.00139104
0.00139313
0.00139893
0.00141305
0.00144196
0.00148823
0.00154042
0.00158598
0.00161616
0.00162516
0.00160614
0.00154606
0.00141912
0.00117223
0.000617044
0.000480915
0.000617051
0.000699133
0.00074109
0.000761297
0.000770245
0.000773408
0.000773281
0.000770609
0.000765195
0.00075659
0.000744847
0.000731403
0.00071934
0.000711839
0.000708212
0.000706728
0.000706196
0.000706071
0.00070621
0.000706752
0.000708241
0.000711875
0.000719406
0.00073155
0.000745079
0.000756585
0.000763862
0.000765462
0.000759226
0.00074035
0.00069894
0.000617035
0.000480975
0.000528278
0.000730038
0.000853084
0.000918134
0.000951012
0.000966704
0.000973627
0.000976331
0.000977121
0.000977094
0.000976767
0.000976387
0.000976071
0.000975854
0.000975717
0.000975629
0.000975573
0.000975545
0.000975545
0.000975571
0.000975624
0.000975707
0.000975829
0.000976003
0.000976186
0.000976189
0.000975503
0.000972986
0.00096627
0.000950754
0.000918001
0.000853027
0.000730023
0.000528295
0.000730038
0.00146194
0.00178712
0.0019632
0.0020576
0.00210568
0.00212827
0.00213753
0.00214022
0.00213989
0.00213838
0.00213667
0.00213524
0.00213425
0.00213362
0.00213322
0.00213298
0.00213286
0.00213286
0.00213298
0.00213321
0.00213359
0.00213416
0.00213496
0.00213582
0.00213601
0.00213372
0.00212523
0.00210353
0.00205625
0.00196242
0.00178671
0.00146175
0.00073002
0.000853127
0.00178724
0.00220506
0.00243876
0.00256883
0.00263751
0.00267068
0.00268416
0.00268728
0.00268537
0.00268152
0.00267754
0.00267438
0.00267227
0.00267101
0.00267025
0.00266979
0.00266957
0.00266957
0.00266979
0.00267024
0.00267097
0.00267211
0.00267385
0.00267601
0.00267741
0.0026751
0.00266339
0.00263233
0.00256556
0.00243694
0.00220417
0.00178689
0.000853092
0.000918228
0.00196342
0.00243889
0.00271101
0.00286611
0.00294953
0.00298965
0.00300442
0.003005
0.00299836
0.00298914
0.0029804
0.00297377
0.00296957
0.00296718
0.00296574
0.00296486
0.00296444
0.00296444
0.00296487
0.00296573
0.00296712
0.00296933
0.002973
0.00297822
0.0029834
0.00298439
0.00297342
0.00293794
0.00285876
0.00270688
0.00243686
0.00196262
0.000918124
0.000951153
0.00205792
0.0025691
0.00286631
0.00303791
0.00313025
0.0031726
0.00318388
0.00317647
0.00315916
0.00313894
0.00312107
0.00310815
0.00310048
0.00309637
0.00309383
0.00309221
0.0030914
0.00309141
0.00309221
0.00309383
0.0030963
0.00310018
0.00310721
0.00311836
0.00313188
0.00314221
0.0031388
0.0031061
0.00302255
0.0028576
0.00256475
0.00205612
0.000950854
0.000966887
0.00210611
0.00263803
0.00295015
0.00313085
0.00322603
0.00326452
0.003265
0.0032405
0.00320218
0.00316137
0.00312763
0.00310469
0.00309222
0.00308622
0.00308211
0.00307926
0.00307784
0.00307784
0.00307927
0.00308211
0.00308615
0.00309192
0.00310366
0.00312462
0.00315343
0.00318312
0.00319844
0.00317918
0.00310119
0.00293328
0.00262948
0.00210244
0.000966173
0.000973859
0.00212889
0.00267167
0.00299121
0.00317479
0.00326673
0.00329394
0.00327328
0.00321729
0.0031405
0.00306333
0.00300549
0.00296954
0.00295271
0.00294616
0.00294019
0.00293558
0.00293327
0.00293327
0.00293559
0.0029402
0.00294612
0.00295244
0.00296855
0.00300244
0.00305501
0.00312018
0.00317236
0.00318212
0.00312195
0.00296132
0.00265642
0.00212218
0.00097242
0.000976641
0.00213853
0.00268609
0.00300795
0.00318962
0.00327282
0.00328074
0.00322562
0.00311634
0.00297061
0.00282959
0.00274453
0.00270115
0.00268642
0.00268411
0.00267694
0.0026706
0.00266749
0.0026675
0.00267062
0.00267696
0.0026841
0.00268624
0.00270033
0.00274175
0.00282141
0.00294974
0.00306959
0.00313095
0.00310325
0.00295976
0.00266154
0.00212755
0.000974131
0.000977566
0.00214189
0.0026909
0.00301212