/*--------------------------------*- C++ -*----------------------------------*\
| =========                 |                                                 |
| \\      /  F ield         | OpenFOAM: The Open Source CFD Toolbox           |
|  \\    /   O peration     | Version:  2112                                  |
|   \\  /    A nd           | Website:  www.openfoam.com                      |
|    \\/     M anipulation  |                                                 |
\*---------------------------------------------------------------------------*/
FoamFile
{
    version     2.0;
    format      ascii;
    arch        "LSB;label=32;scalar=64";
    class       volScalarField;
    location    "3.4";
    object      nut;
}
// * * * * * * * * * * * * * * * * * * * * * * * * * * * * * * * * * * * * * //

dimensions      [0 2 -1 0 0 0 0];

internalField   nonuniform List<scalar> 
64906
(
4.56974e-05
4.8239e-05
4.97342e-05
5.04394e-05
5.07502e-05
5.08797e-05
5.09303e-05
5.09484e-05
5.09538e-05
5.09542e-05
5.09529e-05
5.09515e-05
5.09503e-05
5.09492e-05
5.09483e-05
5.09474e-05
5.09465e-05
5.09458e-05
5.09455e-05
5.09459e-05
5.09466e-05
5.09475e-05
5.09483e-05
5.09492e-05
5.09498e-05
5.09493e-05
5.09449e-05
5.09281e-05
5.08786e-05
5.075e-05
5.04398e-05
4.9735e-05
4.82403e-05
4.56985e-05
4.82407e-05
5.91794e-05
6.42485e-05
6.66748e-05
6.78497e-05
6.83981e-05
6.86371e-05
6.87304e-05
6.87589e-05
6.87602e-05
6.87521e-05
6.87424e-05
6.87349e-05
6.87303e-05
6.87279e-05
6.87266e-05
6.87259e-05
6.87254e-05
6.87255e-05
6.87259e-05
6.87267e-05
6.87279e-05
6.87299e-05
6.87332e-05
6.87366e-05
6.87339e-05
6.87083e-05
6.86208e-05
6.83884e-05
6.78456e-05
6.66748e-05
6.42508e-05
5.91824e-05
4.82434e-05
4.97384e-05
6.42508e-05
7.08937e-05
7.41737e-05
7.58338e-05
7.66472e-05
7.70169e-05
7.71621e-05
7.71988e-05
7.71871e-05
7.71587e-05
7.71305e-05
7.71099e-05
7.70981e-05
7.70926e-05
7.70898e-05
7.70882e-05
7.70875e-05
7.70876e-05
7.70885e-05
7.70902e-05
7.70929e-05
7.70977e-05
7.71068e-05
7.71193e-05
7.71247e-05
7.70942e-05
7.69644e-05
7.66131e-05
7.5816e-05
7.41676e-05
7.08944e-05
6.42551e-05
4.97429e-05
5.04453e-05
6.66794e-05
7.4176e-05
7.79715e-05
7.99482e-05
8.09419e-05
8.13963e-05
8.15604e-05
8.15735e-05
8.15153e-05
8.14349e-05
8.1363e-05
8.13123e-05
8.12842e-05
8.12708e-05
8.12635e-05
8.12589e-05
8.12566e-05
8.12567e-05
8.12593e-05
8.12641e-05
8.12712e-05
8.12834e-05
8.13076e-05
8.13463e-05
8.13859e-05
8.13858e-05
8.12584e-05
8.08487e-05
7.98949e-05
7.79472e-05
7.41694e-05
6.66822e-05
5.04511e-05
5.07572e-05
6.78557e-05
7.58381e-05
7.99506e-05
8.21283e-05
8.32298e-05
8.37142e-05
8.38433e-05
8.37711e-05
8.35986e-05
8.34036e-05
8.32428e-05
8.31351e-05
8.30786e-05
8.30531e-05
8.30374e-05
8.30264e-05
8.30207e-05
8.30209e-05
8.30269e-05
8.30381e-05
8.30536e-05
8.30776e-05
8.31291e-05
8.32219e-05
8.33427e-05
8.34404e-05
8.33938e-05
8.30107e-05
8.19987e-05
7.98857e-05
7.58132e-05
6.78527e-05
5.07635e-05
5.08872e-05
6.84051e-05
7.66535e-05
8.09477e-05
8.32348e-05
8.43729e-05
8.48166e-05
8.48243e-05
8.45558e-05
8.41416e-05
8.37176e-05
8.34002e-05
8.32031e-05
8.31109e-05
8.30753e-05
8.30475e-05
8.30252e-05
8.30135e-05
8.30137e-05
8.30258e-05
8.30484e-05
8.3076e-05
8.31101e-05
8.31967e-05
8.33769e-05
8.36493e-05
8.39641e-05
8.41357e-05
8.3909e-05
8.29583e-05
8.08044e-05
7.6592e-05
6.83885e-05
5.08927e-05
5.0938e-05
6.8645e-05
7.70264e-05
8.14092e-05
8.37322e-05
8.48356e-05
8.51492e-05
8.4904e-05
8.42476e-05
8.33533e-05
8.24936e-05
8.19549e-05
8.16664e-05
8.15626e-05
8.15408e-05
8.15011e-05
8.14626e-05
8.14424e-05
8.14426e-05
8.14634e-05
8.15023e-05
8.15419e-05
8.15623e-05
8.16606e-05
8.19319e-05
8.24228e-05
8.31656e-05
8.38015e-05
8.39366e-05
8.32021e-05
8.11322e-05
7.69021e-05
6.86038e-05
5.09409e-05
5.0956e-05
6.874e-05
7.71779e-05
8.15887e-05
8.38916e-05
8.48939e-05
8.49736e-05
8.42899e-05
8.29205e-05
8.10666e-05
7.93375e-05
7.86703e-05
7.84592e-05
7.8469e-05
7.85347e-05
7.8496e-05
7.84441e-05
7.84171e-05
7.84174e-05
7.8445e-05
7.84975e-05
7.85364e-05
7.84697e-05
7.84554e-05
7.86506e-05
7.92697e-05
8.08766e-05
8.24599e-05
8.32904e-05
8.29729e-05
8.11133e-05
7.69608e-05
6.86618e-05
5.09539e-05
5.09613e-05
6.87718e-05
7.72267e-05
8.16317e-05
8.38807e-05
8.47348e-05
8.44864e-05
8.31399e-05
8.05193e-05
7.65806e-05
7.26633e-05
7.28874e-05
7.35617e-05
7.4047e-05
7.43348e-05
7.4347e-05
7.4312e-05
7.42921e-05
7.42925e-05
7.4313e-05
7.43488e-05
7.43371e-05
7.40492e-05
7.35614e-05
7.28756e-05
7.26066e-05
7.6396e-05
8.00501e-05
8.21179e-05
8.24509e-05
8.09088e-05
7.68966e-05
6.86482e-05
5.09522e-05
5.09619e-05
6.87793e-05
7.72355e-05
8.16237e-05
8.38141e-05
8.45185e-05
8.39201e-05
8.17595e-05
7.71527e-05
6.82379e-05
5.66678e-05
6.32838e-05
6.74292e-05
6.90479e-05
6.96575e-05
6.98159e-05
6.98501e-05
6.98554e-05
6.98558e-05
6.98512e-05
6.98177e-05
6.96602e-05
6.90515e-05
6.74336e-05
6.32866e-05
5.66423e-05
6.80727e-05
7.66765e-05
8.07182e-05
8.18594e-05
8.06641e-05
7.68008e-05
6.86138e-05
5.09451e-05
5.0961e-05
6.87803e-05
7.72364e-05
8.16159e-05
8.37759e-05
8.43997e-05
8.3598e-05
8.08724e-05
7.43374e-05
5.7517e-05
5.37151e-05
6.24702e-05
6.5158e-05
6.59556e-05
6.6218e-05
6.62935e-05
6.63109e-05
6.63111e-05
6.62941e-05
6.62192e-05
6.59577e-05
6.51615e-05
6.24761e-05
5.37194e-05
5.74201e-05
7.38626e-05
7.98195e-05
8.15234e-05
8.05307e-05
7.67478e-05
6.85932e-05
5.09396e-05
5.09599e-05
6.87818e-05
7.72433e-05
8.16315e-05
8.3808e-05
8.44718e-05
8.37876e-05
8.14691e-05
7.66017e-05
6.72849e-05
5.57199e-05
6.04874e-05
6.41537e-05
6.55321e-05
6.59176e-05
6.61552e-05
6.62242e-05
6.62354e-05
6.62353e-05
6.62241e-05
6.6155e-05
6.59172e-05
6.55316e-05
6.41528e-05
6.048e-05
5.56865e-05
6.71101e-05
7.61188e-05
8.04194e-05
8.1715e-05
8.06016e-05
7.67756e-05
6.86018e-05
5.09395e-05
5.09592e-05
6.87852e-05
7.72574e-05
8.16672e-05
8.3891e-05
8.46616e-05
8.42285e-05
8.2532e-05
7.93055e-05
7.43836e-05
6.90967e-05
6.74565e-05
6.67101e-05
6.64698e-05
6.63831e-05
6.64021e-05
6.64061e-05
6.64024e-05
6.64021e-05
6.64055e-05
6.64009e-05
6.63809e-05
6.64661e-05
6.67024e-05
6.74355e-05
6.90308e-05
7.41912e-05
7.88262e-05
8.14927e-05
8.21656e-05
8.07975e-05
7.686e-05
6.8633e-05
5.09433e-05
5.09586e-05
6.87893e-05
7.72738e-05
8.1709e-05
8.39864e-05
8.48695e-05
8.46681e-05
8.34413e-05
8.11343e-05
7.78042e-05
7.40152e-05
7.08672e-05
6.84356e-05
6.72757e-05
6.6839e-05
6.67011e-05
6.66551e-05
6.66394e-05
6.66391e-05
6.66541e-05
6.66992e-05
6.6836e-05
6.72705e-05
6.84254e-05
7.0843e-05
7.39425e-05
7.76072e-05
8.06574e-05
8.24088e-05
8.26126e-05
8.10107e-05
7.69567e-05
6.86698e-05
5.09474e-05
5.09576e-05
6.87928e-05
7.72882e-05
8.1745e-05
8.40663e-05
8.50352e-05
8.49927e-05
8.40424e-05
8.21714e-05
7.9403e-05
7.59795e-05
7.24149e-05
6.93578e-05
6.77706e-05
6.71376e-05
6.69175e-05
6.68438e-05
6.68202e-05
6.68196e-05
6.68423e-05
6.69151e-05
6.7134e-05
6.77647e-05
6.93469e-05
7.23897e-05
7.59047e-05
7.92037e-05
8.16945e-05
8.30121e-05
8.29404e-05
8.11785e-05
7.70359e-05
6.87004e-05
5.09499e-05
5.09564e-05
6.8795e-05
7.72985e-05
8.17706e-05
8.41214e-05
8.51445e-05
8.51943e-05
8.43863e-05
8.27068e-05
8.01374e-05
7.68038e-05
7.30904e-05
6.9789e-05
6.80192e-05
6.72938e-05
6.70354e-05
6.69475e-05
6.69183e-05
6.69176e-05
6.69456e-05
6.70326e-05
6.72899e-05
6.8013e-05
6.97779e-05
7.30629e-05
7.67278e-05
7.99365e-05
8.22288e-05
8.33557e-05
8.31419e-05
8.12872e-05
7.70888e-05
6.87205e-05
5.09504e-05
5.0955e-05
6.8796e-05
7.73046e-05
8.17859e-05
8.41535e-05
8.52059e-05
8.53024e-05
8.45601e-05
8.29586e-05
8.04569e-05
7.71414e-05
7.33696e-05
6.99692e-05
6.8126e-05
6.73618e-05
6.70868e-05
6.69918e-05
6.69585e-05
6.69575e-05
6.69895e-05
6.70838e-05
6.73577e-05
6.81196e-05
6.99579e-05
7.33406e-05
7.70647e-05
8.02549e-05
8.24793e-05
8.35284e-05
8.32489e-05
8.13472e-05
7.71186e-05
6.87313e-05
5.09495e-05
5.09536e-05
6.87961e-05
7.73076e-05
8.17931e-05
8.41682e-05
8.52331e-05
8.53485e-05
8.46313e-05
8.30568e-05
8.05754e-05
7.72616e-05
7.34679e-05
7.00327e-05
6.81638e-05
6.73856e-05
6.71042e-05
6.70057e-05
6.69693e-05
6.6968e-05
6.70031e-05
6.71009e-05
6.73814e-05
6.81573e-05
7.00213e-05
7.34388e-05
7.71847e-05
8.03729e-05
8.25768e-05
8.35988e-05
8.32943e-05
8.13734e-05
7.71318e-05
6.87357e-05
5.09479e-05
5.09525e-05
6.87958e-05
7.73079e-05
8.17937e-05
8.41692e-05
8.52345e-05
8.53503e-05
8.46337e-05
8.30598e-05
8.0579e-05
7.72657e-05
7.34721e-05
7.00359e-05
6.81657e-05
6.73864e-05
6.7104e-05
6.70044e-05
6.69661e-05
6.69645e-05
6.70015e-05
6.71006e-05
6.7382e-05
6.81593e-05
7.00246e-05
7.34432e-05
7.71891e-05
8.03768e-05
8.25801e-05
8.36014e-05
8.32962e-05
8.13748e-05
7.71327e-05
6.87356e-05
5.09461e-05
5.09523e-05
6.87953e-05
7.73056e-05
8.17879e-05
8.41565e-05
8.521e-05
8.53079e-05
8.45674e-05
8.29678e-05
8.04682e-05
7.71544e-05
7.33831e-05
6.99794e-05
6.81323e-05
6.73646e-05
6.70866e-05
6.69882e-05
6.69501e-05
6.69484e-05
6.69852e-05
6.70831e-05
6.73602e-05
6.81259e-05
6.99683e-05
7.33547e-05
7.70786e-05
8.0267e-05
8.24893e-05
8.35362e-05
8.32548e-05
8.13515e-05
7.71211e-05
6.87311e-05
5.09453e-05
5.09532e-05
6.87942e-05
7.73001e-05
8.17738e-05
8.41262e-05
8.51513e-05
8.52035e-05
8.43987e-05
8.2723e-05
8.01577e-05
7.68278e-05
7.31157e-05
6.98079e-05
6.80312e-05
6.72997e-05
6.70362e-05
6.6943e-05
6.69078e-05
6.69062e-05
6.694e-05
6.70327e-05
6.72954e-05
6.80252e-05
6.97975e-05
7.30887e-05
7.67537e-05
7.99586e-05
8.22464e-05
8.33692e-05
8.31518e-05
8.12942e-05
7.70931e-05
6.87207e-05
5.09455e-05
5.09542e-05
6.87922e-05
7.72904e-05
8.17492e-05
8.40727e-05
8.50442e-05
8.50054e-05
8.40599e-05
8.21955e-05
7.9435e-05
7.60192e-05
7.24518e-05
6.93879e-05
6.77896e-05
6.71474e-05
6.692e-05
6.68396e-05
6.68102e-05
6.68089e-05
6.68369e-05
6.69166e-05
6.71434e-05
6.77843e-05
6.93788e-05
7.24289e-05
7.59482e-05
7.92389e-05
8.17208e-05
8.3031e-05
8.29539e-05
8.11879e-05
7.70417e-05
6.87013e-05
5.09448e-05
5.09551e-05
6.87888e-05
7.7276e-05
8.17132e-05
8.39929e-05
8.48792e-05
8.46825e-05
8.3463e-05
8.11669e-05
7.78521e-05
7.40785e-05
7.09249e-05
6.84767e-05
6.72976e-05
6.68472e-05
6.66993e-05
6.66461e-05
6.66258e-05
6.66249e-05
6.66438e-05
6.66962e-05
6.68435e-05
6.72928e-05
6.84696e-05
7.09068e-05
7.40131e-05
7.76604e-05
8.06923e-05
8.24311e-05
8.26275e-05
8.10209e-05
7.69631e-05
6.86713e-05
5.09422e-05
5.09556e-05
6.87839e-05
7.72576e-05
8.16684e-05
8.38936e-05
8.46671e-05
8.42391e-05
8.25519e-05
7.93427e-05
7.44495e-05
6.91962e-05
6.75422e-05
6.67401e-05
6.64628e-05
6.63548e-05
6.63599e-05
6.63565e-05
6.63491e-05
6.63483e-05
6.63544e-05
6.63563e-05
6.63494e-05
6.64556e-05
6.67326e-05
6.75319e-05
6.9143e-05
7.42646e-05
7.88624e-05
8.15089e-05
8.21739e-05
8.08031e-05
7.68639e-05
6.86336e-05
5.09379e-05
5.09559e-05
6.87767e-05
7.7236e-05
8.16215e-05
8.37963e-05
8.44602e-05
8.3779e-05
8.14699e-05
7.6627e-05
6.73662e-05
5.57872e-05
6.05139e-05
6.40476e-05
6.53579e-05
6.57014e-05
6.59178e-05
6.59786e-05
6.59864e-05
6.59854e-05
6.59751e-05
6.59097e-05
6.56845e-05
6.53299e-05
6.40155e-05
6.05047e-05
5.5756e-05
6.71976e-05
7.61262e-05
8.04017e-05
8.16965e-05
8.05894e-05
7.67692e-05
6.85977e-05
5.09334e-05
5.09552e-05
6.87633e-05
7.72068e-05
8.15738e-05
8.37233e-05
8.43388e-05
8.35296e-05
8.07974e-05
7.4266e-05
5.74797e-05
5.33937e-05
6.18207e-05
6.43327e-05
6.50088e-05
6.52268e-05
6.52892e-05
6.5302e-05
6.52993e-05
6.52785e-05
6.51991e-05
6.49454e-05
6.42105e-05
6.16356e-05
5.32471e-05
5.73181e-05
7.37044e-05
7.96836e-05
8.14275e-05
8.04692e-05
7.67119e-05
6.85748e-05
5.09315e-05
5.09501e-05
6.8729e-05
7.71472e-05
8.1501e-05
8.36624e-05
8.43416e-05
8.37162e-05
8.15178e-05
7.68556e-05
6.78745e-05
5.62875e-05
6.19506e-05
6.55367e-05
6.66219e-05
6.68664e-05
6.69306e-05
6.69504e-05
6.69538e-05
6.69485e-05
6.69277e-05
6.68648e-05
6.66984e-05
6.6258e-05
6.49064e-05
6.12564e-05
5.5916e-05
6.73473e-05
7.61253e-05
8.03338e-05
8.16006e-05
8.04938e-05
7.66949e-05
6.85583e-05
5.09301e-05
5.09331e-05
6.86357e-05
7.69972e-05
8.13228e-05
8.35067e-05
8.4304e-05
8.3991e-05
8.25423e-05
7.97332e-05
7.5438e-05
7.08821e-05
7.00406e-05
6.95284e-05
6.87703e-05
6.83131e-05
6.81289e-05
6.80688e-05
6.80502e-05
6.80421e-05
6.80321e-05
6.80135e-05
6.79928e-05
6.801e-05
6.81126e-05
6.84846e-05
6.958e-05
7.4396e-05
7.87554e-05
8.12669e-05
8.18758e-05
8.05138e-05
7.66352e-05
6.85026e-05
5.09198e-05
5.08838e-05
6.84001e-05
7.6634e-05
8.08831e-05
8.30598e-05
8.39578e-05
8.39258e-05
8.30707e-05
8.13842e-05
7.89357e-05
7.61778e-05
7.39564e-05
7.17649e-05
6.97326e-05
6.87059e-05
6.83133e-05
6.81853e-05
6.81477e-05
6.81376e-05
6.81381e-05
6.81577e-05
6.825e-05
6.85813e-05
6.95305e-05
7.16054e-05
7.42468e-05
7.74963e-05
8.02072e-05
8.17402e-05
8.18562e-05
8.0289e-05
7.6374e-05
6.83094e-05
5.08771e-05
5.07553e-05
6.78559e-05
7.58311e-05
7.99146e-05
8.20176e-05
8.29535e-05
8.31087e-05
8.26441e-05
8.16003e-05
8.00005e-05
7.79513e-05
7.56372e-05
7.30784e-05
7.07032e-05
6.9484e-05
6.90053e-05
6.88449e-05
6.87973e-05
6.87863e-05
6.87927e-05
6.88326e-05
6.89793e-05
6.94397e-05
7.06541e-05
7.30946e-05
7.5862e-05
7.84572e-05
8.03921e-05
8.13628e-05
8.11724e-05
7.951e-05
7.56625e-05
6.78027e-05
5.07541e-05
5.04447e-05
6.66843e-05
7.41802e-05
7.79616e-05
7.98956e-05
8.07883e-05
8.10344e-05
8.08113e-05
8.01691e-05
7.90998e-05
7.76003e-05
7.57208e-05
7.36035e-05
7.16668e-05
7.05859e-05
7.01292e-05
6.99649e-05
6.99139e-05
6.99033e-05
6.99119e-05
6.99604e-05
7.01203e-05
7.05727e-05
7.16561e-05
7.36314e-05
7.58285e-05
7.7768e-05
7.91248e-05
7.97074e-05
7.9344e-05
7.77117e-05
7.40851e-05
6.666e-05
5.04473e-05
4.97393e-05
6.42593e-05
7.09059e-05
7.41829e-05
7.58244e-05
7.65862e-05
7.68407e-05
7.67585e-05
7.63899e-05
7.57214e-05
7.47274e-05
7.34289e-05
7.19628e-05
7.06434e-05
6.98566e-05
6.94963e-05
6.93605e-05
6.9317e-05
6.93075e-05
6.93163e-05
6.93586e-05
6.94928e-05
6.98521e-05
7.0643e-05
7.19785e-05
7.34699e-05
7.47636e-05
7.56301e-05
7.59304e-05
7.55096e-05
7.40531e-05
7.08652e-05
6.42548e-05
4.97446e-05
4.82435e-05
5.91888e-05
6.42643e-05
6.66944e-05
6.78664e-05
6.83971e-05
6.85876e-05
6.85754e-05
6.84023e-05
6.80577e-05
6.75152e-05
6.67815e-05
6.59444e-05
6.51891e-05
6.47186e-05
6.44918e-05
6.4402e-05
6.43717e-05
6.4365e-05
6.4372e-05
6.44022e-05
6.44919e-05
6.47186e-05
6.51911e-05
6.59521e-05
6.67958e-05
6.75151e-05
6.79733e-05
6.80847e-05
6.77308e-05
6.66492e-05
6.42581e-05
5.91948e-05
4.82492e-05
4.57005e-05
4.82468e-05
4.97484e-05
5.04595e-05
5.07755e-05
5.09086e-05
5.09585e-05
5.09666e-05
5.09436e-05
5.08852e-05
5.07889e-05
5.06482e-05
5.04773e-05
5.03163e-05
5.02135e-05
5.01618e-05
5.01385e-05
5.01276e-05
5.01239e-05
5.01282e-05
5.01391e-05
5.01621e-05
5.02133e-05
5.03157e-05
5.04769e-05
5.06481e-05
5.07858e-05
5.08685e-05
5.08765e-05
5.07728e-05
5.04682e-05
4.97589e-05
4.82547e-05
4.57048e-05
7.0853e-05
8.04355e-05
8.57392e-05
8.83616e-05
8.96228e-05
9.02018e-05
9.04496e-05
9.05444e-05
9.05724e-05
9.05728e-05
9.05633e-05
9.05521e-05
9.05427e-05
9.05362e-05
9.0532e-05
9.05292e-05
9.05272e-05
9.05262e-05
9.0526e-05
9.05269e-05
9.05287e-05
9.05314e-05
9.05351e-05
9.05402e-05
9.05454e-05
9.05443e-05
9.05196e-05
9.04307e-05
9.01895e-05
8.9616e-05
8.83586e-05
8.57386e-05
8.04362e-05
7.08543e-05
8.0436e-05
0.000235188
0.000291096
0.000317518
0.000331021
0.000337824
0.000341023
0.000342336
0.000342713
0.000342658
0.000342436
0.000342184
0.000341976
0.00034183
0.000341738
0.00034168
0.000341644
0.000341626
0.000341626
0.000341644
0.00034168
0.000341736
0.00034182
0.000341938
0.000342068
0.000342105
0.000341788
0.000340588
0.000337518
0.000330828
0.000317406
0.000291037
0.000235163
8.04369e-05
8.57421e-05
0.000291121
0.000369972
0.000408466
0.000428758
0.000439322
0.000444429
0.000446514
0.000446996
0.000446694
0.00044609
0.000445466
0.000444972
0.000444646
0.000444452
0.000444335
0.000444264
0.00044423
0.00044423
0.000444265
0.000444335
0.000444447
0.000444623
0.000444894
0.000445234
0.000445457
0.000445104
0.000443299
0.000438523
0.000428259
0.000408191
0.000369842
0.000291078
8.57435e-05
8.83669e-05
0.00031756
0.000408487
0.000453983
0.0004785
0.000491477
0.000497721
0.000500029
0.000500109
0.000499045
0.000497566
0.000496161
0.000495092
0.00049442
0.000494042
0.000493811
0.000493668
0.000493598
0.000493599
0.000493669
0.000493811
0.000494034
0.000494385
0.000494975
0.00049582
0.000496664
0.000496846
0.000495151
0.000489647
0.000477345
0.000453341
0.000408181
0.000317453
8.83671e-05
8.96302e-05
0.000331075
0.0004288
0.000478528
0.000505664
0.000520019
0.000526595
0.000528338
0.000527137
0.00052435
0.000521077
0.00051817
0.000516053
0.000514803
0.000514145
0.000513721
0.000513442
0.000513305
0.000513306
0.000513444
0.000513721
0.000514136
0.00051476
0.000515907
0.000517746
0.000519964
0.000521673
0.000521211
0.00051618
0.000503226
0.000477153
0.000428128
0.000330825
8.96251e-05
9.02108e-05
0.000337891
0.000439397
0.000491568
0.000520111
0.000534876
0.000540817
0.000540833
0.000536889
0.000530688
0.000524029
0.000518548
0.000514761
0.000512725
0.000511774
0.000511055
0.000510545
0.000510293
0.000510294
0.000510548
0.000511057
0.000511766
0.00051268
0.000514602
0.000518078
0.000522781
0.000527681
0.000530276
0.000527422
0.000515392
0.000488889
0.000438062
0.000337371
9.01931e-05
9.046e-05
0.000341114
0.000444575
0.000497958
0.000526938
0.000541169
0.000545309
0.000541938
0.000532861
0.000520214
0.000507383
0.000498287
0.000492454
0.000489774
0.000488839
0.000487708
0.000486837
0.000486419
0.00048642
0.00048684
0.000487711
0.000488834
0.000489734
0.000492303
0.000497817
0.000506088
0.000517023
0.000525802
0.00052769
0.000518532
0.000493205
0.000442181
0.000340151
9.04193e-05
9.05569e-05
0.000342476
0.000446803
0.000500576
0.00052925
0.000542086
0.000543135
0.000534116
0.00051591
0.000490695
0.000465683
0.000454636
0.000448445
0.000446484
0.000446622
0.00044497
0.000443658
0.000443078
0.00044308
0.000443661
0.000444973
0.000446622
0.000446457
0.000448326
0.000454225
0.000464451
0.000487462
0.000508589
0.000519316
0.000515482
0.000492907
0.000442938
0.000340891
9.04812e-05
9.05884e-05
0.000342944
0.000447546
0.000501231
0.000529145
0.000539995
0.000536804
0.000519365
0.0004851
0.000431927
0.000372735
0.000379819
0.000383758
0.000386755
0.000389921
0.000387881
0.000386406
0.000385843
0.000385844
0.000386409
0.000387885
0.000389926
0.000386746
0.000383693
0.000379553
0.000371776
0.000428837
0.000477644
0.000504177
0.00050856
0.000490063
0.000441962
0.000340629
9.04696e-05
9.05946e-05
0.000343039
0.000447663
0.000501096
0.000528181
0.00053702
0.000529271
0.000501177
0.000439836
0.000313135
0.000105803
0.000253812
0.000306069
0.000321827
0.000329124
0.00032778
0.000326963
0.000326719
0.00032672
0.000326965
0.000327785
0.000329133
0.000321836
0.000306078
0.000253824
0.000105671
0.000310662
0.000432379
0.0004857
0.000500617
0.000486621
0.000440513
0.000340056
9.04358e-05
9.05937e-05
0.000343025
0.000447639
0.000500914
0.000527521
0.00053519
0.000524571
0.000488147
0.000393854
0.000108764
9.51777e-05
0.000243447
0.000272995
0.000279189
0.000282248
0.000283263
0.000283495
0.000283496
0.000283266
0.000282254
0.000279198
0.000273012
0.000243485
9.51811e-05
0.000108302
0.000386695
0.00047254
0.00049571
0.00048456
0.000439615
0.000339664
9.04131e-05
9.05926e-05
0.00034302
0.000447694
0.000501041
0.000527765
0.000535769
0.000526448
0.000495767
0.000430738
0.000300276
0.000102031
0.000218533
0.000255511
0.000263281
0.000259333
0.000267494
0.000270337
0.000270893
0.000270893
0.000270338
0.000267496
0.000259327
0.000263272
0.000255492
0.000218489
0.000101884
0.000297762
0.000423236
0.000480195
0.00049763
0.000485137
0.000439804
0.000339682
9.04169e-05
9.05932e-05
0.000343055
0.000447865
0.000501468
0.00052872
0.0005379
0.000531423
0.000508288
0.000465026
0.000398851
0.00032357
0.000304192
0.000285165
0.000277693
0.000273641
0.000275448
0.000276339
0.000276532
0.000276531
0.000276336
0.000275442
0.000273624
0.000277658
0.000285077
0.000303917
0.00032263
0.000395762
0.000457478
0.000492859
0.000502763
0.00048738
0.000440801
0.000340049
9.04414e-05
9.05945e-05
0.000343114
0.00044809
0.000502015
0.000529908
0.000540365
0.000536462
0.000518599
0.000486078
0.000439669
0.000386504
0.000341676
0.00030314
0.000287163
0.000281481
0.000280321
0.000280118
0.000280073
0.000280072
0.000280116
0.000280315
0.000281465
0.000287122
0.000303027
0.000341324
0.000385365
0.000436441
0.000478549
0.000503286
0.000507942
0.000489958
0.000442039
0.00034054
9.04716e-05
9.05955e-05
0.000343172
0.0004483
0.000502516
0.00053096
0.000542426
0.000540303
0.000525454
0.000497689
0.000457532
0.000408552
0.000357787
0.000312147
0.000292067
0.000284865
0.000282689
0.000282108
0.000281976
0.000281976
0.000282107
0.000282685
0.000284851
0.000292026
0.000312029
0.000357417
0.000407358
0.000454258
0.000490168
0.000510198
0.00051186
0.000492084
0.000443113
0.00034098
9.04964e-05
9.05957e-05
0.000343216
0.000448457
0.000502887
0.000531718
0.00054385
0.000542788
0.000529496
0.000503753
0.000465638
0.000417446
0.000364735
0.000316379
0.000294482
0.000286447
0.000283891
0.000283183
0.000283025
0.000283025
0.000283183
0.000283888
0.000286435
0.000294442
0.000316263
0.000364378
0.000416231
0.00046234
0.000496223
0.000514253
0.00051437
0.000493527
0.000443865
0.00034129
9.0512e-05
9.05952e-05
0.000343243
0.000448555
0.000503115
0.000532177
0.000544685
0.00054418
0.000531624
0.000506701
0.000469246
0.000421126
0.000367619
0.000318212
0.000295559
0.000287152
0.000284445
0.000283692
0.000283527
0.000283527
0.000283693
0.000284443
0.00028714
0.00029552
0.000318095
0.00036726
0.000419899
0.000465931
0.000499158
0.000516374
0.000515761
0.000494357
0.000444306
0.000341472
9.05198e-05
9.05943e-05
0.000343255
0.000448601
0.000503222
0.000532388
0.000545061
0.000544789
0.000532519
0.000507884
0.000470617
0.000422461
0.000368654
0.000318878
0.000295952
0.000287407
0.000284647
0.00028388
0.000283713
0.000283713
0.00028388
0.000284645
0.000287395
0.000295913
0.000318761
0.000368292
0.000421229
0.000467294
0.000500332
0.000517262
0.000516364
0.000494725
0.000444503
0.000341553
9.05221e-05
9.05934e-05
0.000343255
0.000448602
0.000503225
0.000532394
0.000545068
0.0005448
0.000532532
0.0005079
0.000470634
0.000422479
0.000368672
0.0003189
0.000295966
0.000287414
0.000284652
0.000283883
0.000283717
0.000283718
0.000283885
0.00028465
0.000287403
0.000295927
0.000318784
0.00036831
0.000421247
0.000467312
0.000500348
0.000517276
0.000516374
0.000494732
0.000444507
0.000341554
9.05211e-05
9.0593e-05
0.000343243
0.00044856
0.000503125
0.000532193
0.000544707
0.000544211
0.000531664
0.000506751
0.000469302
0.000421183
0.000367676
0.000318284
0.000295606
0.00028718
0.000284466
0.000283712
0.000283549
0.00028355
0.000283714
0.000284465
0.00028717
0.000295569
0.000318171
0.000367318
0.000419958
0.000465989
0.000499209
0.000516415
0.000515791
0.000494378
0.000444317
0.000341474
9.05171e-05
9.05929e-05
0.000343215
0.000448464
0.000502902
0.000531742
0.000543885
0.000542837
0.000529562
0.000503838
0.000465741
0.000417557
0.000364847
0.000316521
0.000294582
0.000286517
0.000283949
0.000283241
0.000283086
0.000283088
0.000283244
0.000283951
0.000286511
0.00029455
0.000316415
0.000364499
0.000416348
0.000462447
0.00049631
0.000514318
0.000514417
0.000493559
0.000443882
0.000341293
9.05086e-05
9.05923e-05
0.000343167
0.000448304
0.000502529
0.000530982
0.000542462
0.00054036
0.000525539
0.000497812
0.000457698
0.000408754
0.00035803
0.000312393
0.000292248
0.000285007
0.000282814
0.000282234
0.000282107
0.000282109
0.000282239
0.000282821
0.000285007
0.000292225
0.000312301
0.000357694
0.000407576
0.000454432
0.000490288
0.000510275
0.000511909
0.000492115
0.000443129
0.00034098
9.04925e-05
9.05908e-05
0.000343099
0.000448077
0.000502004
0.000529901
0.000540368
0.000536489
0.000518672
0.000486226
0.000439925
0.000386865
0.000342102
0.000303496
0.000287407
0.000281679
0.000280487
0.000280283
0.000280245
0.000280249
0.000280292
0.000280499
0.000281687
0.000287393
0.000303423
0.000341807
0.000385761
0.000436708
0.000478674
0.000503322
0.000507942
0.00048995
0.000442031
0.000340526
9.04672e-05
9.05881e-05
0.000343012
0.000447797
0.000501374
0.000528606
0.000537777
0.000531316
0.000508243
0.000465132
0.000399226
0.000324191
0.000304809
0.000285412
0.000277687
0.000273555
0.000275274
0.000276155
0.000276359
0.000276363
0.000276167
0.000275286
0.000273549
0.000277648
0.000285335
0.000304627
0.000323324
0.000396159
0.000457486
0.000492689
0.000502573
0.000487234
0.000440707
0.000339991
9.0435e-05
9.05833e-05
0.000342893
0.000447468
0.000500716
0.000527351
0.000535287
0.000525932
0.000495298
0.00043053
0.000300763
0.000102153
0.000218768
0.000254312
0.000261369
0.00025705
0.000265052
0.000267894
0.000268463
0.000268462
0.000267885
0.000265009
0.000256901
0.00026109
0.00025398
0.000218806
0.000102007
0.000298325
0.00042268
0.000479351
0.000496893
0.00048461
0.000439475
0.000339506
9.04046e-05
9.05719e-05
0.000342677
0.000447004
0.000500008
0.00052637
0.00053382
0.000523004
0.000486452
0.000392358
0.0001085
9.40147e-05
0.000236343
0.000263748
0.000268609
0.000271418
0.000272461
0.000272725
0.000272707
0.000272378
0.000271166
0.000267965
0.000262454
0.000234467
9.35037e-05
0.000107782
0.000384003
0.00046984
0.000493632
0.000483133
0.000438725
0.0003392
9.03852e-05
9.05385e-05
0.000342142
0.000446059
0.000498862
0.000525388
0.0005337
0.000525373
0.000496558
0.000434408
0.000307594
0.000103955
0.000237135
0.000282703
0.000292324
0.000295358
0.000293809
0.000293289
0.000293201
0.000293151
0.000293061
0.000293104
0.000293481
0.000288091
0.000275112
0.000229365
0.000102521
0.000300688
0.000423177
0.000478762
0.00049573
0.000483312
0.000438408
0.000338942
9.03687e-05
9.04436e-05
0.000340783
0.000443819
0.000496202
0.000523005
0.000532813
0.000528413
0.000509201
0.000472026
0.000414027
0.000347222
0.00034024
0.000329491
0.000316235
0.000309987
0.00030698
0.00030598
0.000305709
0.000305624
0.000305582
0.000305683
0.000306232
0.000306718
0.000310218
0.000319362
0.000329939
0.000398781
0.000456871
0.000489933
0.000498715
0.000483246
0.00043744
0.000338138
9.03091e-05
9.01986e-05
0.000337613
0.000438769
0.000490094
0.000516795
0.000527878
0.000526954
0.000515016
0.000491804
0.000457856
0.000418487
0.000386072
0.000352338
0.000319647
0.000306026
0.000301242
0.000299747
0.000299323
0.000299217
0.000299236
0.000299516
0.000300717
0.000304828
0.000318037
0.000351811
0.00039033
0.000436099
0.000473469
0.000494843
0.000497871
0.000480028
0.000433874
0.000335616
9.0104e-05
8.9623e-05
0.000330869
0.000428358
0.000477476
0.000503247
0.000514853
0.000516316
0.000509238
0.000493965
0.000470649
0.00044049
0.000406013
0.000367478
0.000330263
0.000314246
0.000308521
0.000306673
0.000306129
0.000306005
0.000306085
0.000306558
0.000308287
0.000313861
0.000330018
0.000368371
0.000409411
0.000447084
0.000475083
0.000489751
0.000489111
0.00047012
0.000424876
0.000329483
8.95638e-05
8.83642e-05
0.000317421
0.000408225
0.000453344
0.000476971
0.000488097
0.000490821
0.000486938
0.000476918
0.000460618
0.000438037
0.000410042
0.000378863
0.000350592
0.000336428
0.000330726
0.000328713
0.000328072
0.000327923
0.000328059
0.000328672
0.000330651
0.000336352
0.000350707
0.000379566
0.00041172
0.000440212
0.000460502
0.000470073
0.000467103
0.00044838
0.000405962
0.000316546
8.83323e-05
8.57429e-05
0.000291038
0.000369851
0.000408158
0.000427955
0.00043743
0.000440381
0.000438539
0.000432405
0.000421819
0.000406576
0.000387213
0.000365853
0.000347013
0.000336392
0.000331649
0.000329817
0.00032919
0.000329045
0.000329195
0.000329823
0.000331658
0.000336426
0.000347157
0.000366254
0.00038792
0.000407057
0.000420337
0.000425825
0.000421818
0.0004052
0.000368566
0.000290553
8.57299e-05
8.04392e-05
0.000235154
0.000291076
0.00031744
0.000330741
0.000337055
0.000339226
0.000338575
0.00033551
0.000329926
0.00032165
0.000310966
0.000299188
0.000288828
0.000282534
0.000279508
0.000278266
0.000277821
0.000277719
0.000277835
0.000278293
0.000279549
0.000282599
0.000288952
0.000299417
0.000311279
0.000321699
0.000328741
0.000331188
0.000327773
0.000316086
0.000290522
0.000234946
8.04376e-05
7.08566e-05
8.04391e-05
8.57475e-05
8.83733e-05
8.96316e-05
9.01927e-05
9.03916e-05
9.03797e-05
9.02024e-05
8.98481e-05
8.92902e-05
8.85332e-05
8.76676e-05
8.68886e-05
8.64002e-05
8.6162e-05
8.60638e-05
8.60284e-05
8.602e-05
8.60293e-05
8.60654e-05
8.61639e-05
8.64027e-05
8.68932e-05
8.76776e-05
8.85481e-05
8.92883e-05
8.97589e-05
8.98692e-05
8.94871e-05
8.83188e-05
8.57316e-05
8.04369e-05
7.08611e-05
7.43235e-05
8.75964e-05
9.48364e-05
9.84938e-05
0.000100321
0.000101199
0.000101592
0.000101747
0.000101794
0.000101792
0.000101772
0.000101749
0.00010173
0.000101716
0.000101708
0.000101702
0.000101699
0.000101697
0.000101697
0.000101699
0.000101702
0.000101707
0.000101715
0.000101725
0.000101736
0.000101737
0.000101697
0.000101552
0.000101172
0.000100305
9.84851e-05
9.48325e-05
8.75953e-05
7.43247e-05
8.75965e-05
0.000308961
0.000395608
0.000437592
0.000459524
0.000470859
0.000476342
0.000478646
0.000479302
0.000479161
0.000478698
0.000478176
0.000477736
0.000477423
0.000477223
0.000477095
0.000477016
0.000476978
0.000476978
0.000477015
0.000477092
0.000477213
0.000477394
0.000477649
0.000477928
0.000478036
0.000477502
0.000475424
0.000470199
0.000459093
0.000437333
0.000395464
0.000308895
8.75951e-05
9.48389e-05
0.00039565
0.000525647
0.00059109
0.000626211
0.00064482
0.00065398
0.000657766
0.000658603
0.000657945
0.000656682
0.000655364
0.0006543
0.000653584
0.000653152
0.000652887
0.000652727
0.00065265
0.000652651
0.000652727
0.000652883
0.000653135
0.000653526
0.000654123
0.000654869
0.000655394
0.000654836
0.000651617
0.000643123
0.000625122
0.000590464
0.000525331
0.000395529
9.48362e-05
9.84991e-05
0.000437664
0.00059113
0.000670472
0.00071392
0.000737232
0.000748587
0.000752793
0.000752836
0.00075066
0.000747621
0.000744677
0.000742392
0.000740935
0.000740102
0.000739585
0.000739266
0.000739113
0.000739114
0.000739266
0.00073958
0.000740078
0.000740849
0.000742132
0.000743955
0.000745783
0.000746329
0.000743363
0.000733473
0.0007115
0.000669081
0.000590434
0.000437399
9.84917e-05
0.000100329
0.000459621
0.000626297
0.000713983
0.000762558