/*--------------------------------*- C++ -*----------------------------------*\
| =========                 |                                                 |
| \\      /  F ield         | OpenFOAM: The Open Source CFD Toolbox           |
|  \\    /   O peration     | Version:  2112                                  |
|   \\  /    A nd           | Website:  www.openfoam.com                      |
|    \\/     M anipulation  |                                                 |
\*---------------------------------------------------------------------------*/
FoamFile
{
    version     2.0;
    format      ascii;
    arch        "LSB;label=32;scalar=64";
    class       volScalarField;
    location    "3.4";
    object      p;
}
// * * * * * * * * * * * * * * * * * * * * * * * * * * * * * * * * * * * * * //

dimensions      [0 2 -2 0 0 0 0];

internalField   nonuniform List<scalar> 
64906
(
-5.53261e-06
-5.51393e-06
-5.50015e-06
-5.50075e-06
-5.52109e-06
-5.56416e-06
-5.63777e-06
-5.7354e-06
-5.85488e-06
-5.99293e-06
-6.14076e-06
-6.31704e-06
-6.47897e-06
-6.62764e-06
-6.75519e-06
-6.85848e-06
-6.93486e-06
-6.98323e-06
-7.00311e-06
-6.99464e-06
-6.9587e-06
-6.89666e-06
-6.81151e-06
-6.70665e-06
-6.58988e-06
-6.46164e-06
-6.35856e-06
-6.26904e-06
-6.19961e-06
-6.16178e-06
-6.14811e-06
-6.15926e-06
-6.17041e-06
-6.18864e-06
-5.47622e-06
-5.40437e-06
-5.34834e-06
-5.30881e-06
-5.29506e-06
-5.30663e-06
-5.3423e-06
-5.39862e-06
-5.47172e-06
-5.55802e-06
-5.65176e-06
-5.73592e-06
-5.83006e-06
-5.91895e-06
-5.99512e-06
-6.05804e-06
-6.10619e-06
-6.1396e-06
-6.15807e-06
-6.16175e-06
-6.15115e-06
-6.12653e-06
-6.08974e-06
-6.04156e-06
-5.98999e-06
-5.94957e-06
-5.90368e-06
-5.86645e-06
-5.84634e-06
-5.84948e-06
-5.87889e-06
-5.93271e-06
-6.01785e-06
-6.10919e-06
-5.45006e-06
-5.33979e-06
-5.23588e-06
-5.14991e-06
-5.09813e-06
-5.079e-06
-5.08936e-06
-5.1262e-06
-5.18527e-06
-5.26398e-06
-5.35194e-06
-5.44427e-06
-5.52831e-06
-5.60359e-06
-5.66353e-06
-5.71187e-06
-5.74852e-06
-5.7753e-06
-5.79258e-06
-5.8005e-06
-5.799e-06
-5.78651e-06
-5.76353e-06
-5.72661e-06
-5.68302e-06
-5.63363e-06
-5.59301e-06
-5.56686e-06
-5.56869e-06
-5.60433e-06
-5.68041e-06
-5.7994e-06
-5.94166e-06
-6.08492e-06
-5.45607e-06
-5.3106e-06
-5.16241e-06
-5.03307e-06
-4.94802e-06
-4.90712e-06
-4.90825e-06
-4.95056e-06
-5.03151e-06
-5.15177e-06
-5.29473e-06
-5.45482e-06
-5.58812e-06
-5.6986e-06
-5.77722e-06
-5.83603e-06
-5.87697e-06
-5.90495e-06
-5.9211e-06
-5.92555e-06
-5.91745e-06
-5.89212e-06
-5.84816e-06
-5.77391e-06
-5.67966e-06
-5.56222e-06
-5.46888e-06
-5.40694e-06
-5.3979e-06
-5.44559e-06
-5.55567e-06
-5.72856e-06
-5.92633e-06
-6.1164e-06
-5.5083e-06
-5.33307e-06
-5.14963e-06
-4.98795e-06
-4.88299e-06
-4.83806e-06
-4.85483e-06
-4.9382e-06
-5.09111e-06
-5.32325e-06
-5.6093e-06
-5.94258e-06
-6.20806e-06
-6.41804e-06
-6.55939e-06
-6.66066e-06
-6.7262e-06
-6.76571e-06
-6.7811e-06
-6.77245e-06
-6.7381e-06
-6.66849e-06
-6.56004e-06
-6.38463e-06
-6.15752e-06
-5.86718e-06
-5.63497e-06
-5.46851e-06
-5.40002e-06
-5.42552e-06
-5.5455e-06
-5.75285e-06
-5.99391e-06
-6.22373e-06
-5.60882e-06
-5.40532e-06
-5.19257e-06
-5.00874e-06
-4.89743e-06
-4.86677e-06
-4.92419e-06
-5.08398e-06
-5.35967e-06
-5.78011e-06
-6.31524e-06
-6.97844e-06
-7.47497e-06
-7.85424e-06
-8.10178e-06
-8.27775e-06
-8.3883e-06
-8.4499e-06
-8.46496e-06
-8.43347e-06
-8.35318e-06
-8.20758e-06
-7.99147e-06
-7.64514e-06
-7.18656e-06
-6.56618e-06
-6.09131e-06
-5.74463e-06
-5.56638e-06
-5.53493e-06
-5.64109e-06
-5.86605e-06
-6.14178e-06
-6.41017e-06
-5.7558e-06
-5.5224e-06
-5.28158e-06
-5.0837e-06
-4.97777e-06
-4.9774e-06
-5.09642e-06
-5.36064e-06
-5.79947e-06
-6.48109e-06
-7.36252e-06
-8.6176e-06
-9.44486e-06
-1.00543e-05
-1.04395e-05
-1.07146e-05
-1.08852e-05
-1.0977e-05
-1.09922e-05
-1.09306e-05
-1.07901e-05
-1.05445e-05
-1.01894e-05
-9.61071e-06
-8.82116e-06
-7.60591e-06
-6.79616e-06
-6.19599e-06
-5.86708e-06
-5.75074e-06
-5.8241e-06
-6.05526e-06
-6.36183e-06
-6.67336e-06
-5.94433e-06
-5.67333e-06
-5.41086e-06
-5.20265e-06
-5.11305e-06
-5.15859e-06
-5.3574e-06
-5.74184e-06
-6.3598e-06
-7.317e-06
-8.56966e-06
-1.09193e-05
-1.2117e-05
-1.3008e-05
-1.35592e-05
-1.39609e-05
-1.42092e-05
-1.43408e-05
-1.43566e-05
-1.42563e-05
-1.40386e-05
-1.36662e-05
-1.31436e-05
-1.22797e-05
-1.11195e-05
-8.79795e-06
-7.64244e-06
-6.77059e-06
-6.27273e-06
-6.05491e-06
-6.0795e-06
-6.3076e-06
-6.6443e-06
-7.00828e-06
-6.17324e-06
-5.85288e-06
-5.56556e-06
-5.35151e-06
-5.28796e-06
-5.39264e-06
-5.68308e-06
-6.18897e-06
-6.92415e-06
-8.07587e-06
-9.68996e-06
-1.40575e-05
-1.53333e-05
-1.64898e-05
-1.72014e-05
-1.77201e-05
-1.80411e-05
-1.82107e-05
-1.82274e-05
-1.80907e-05
-1.78017e-05
-1.73124e-05
-1.66284e-05
-1.54918e-05
-1.42547e-05
-9.899e-06
-8.44923e-06
-7.35656e-06
-6.74375e-06
-6.4203e-06
-6.3862e-06
-6.60703e-06
-6.97048e-06
-7.40391e-06
-6.43242e-06
-6.05184e-06
-5.73912e-06
-5.52743e-06
-5.50885e-06
-5.70304e-06
-6.12858e-06
-6.78843e-06
-7.72853e-06
-1.00675e-05
-8.11536e-06
-1.73004e-05
-1.85911e-05
-2.02469e-05
-2.11942e-05
-2.18971e-05
-2.23327e-05
-2.25582e-05
-2.25759e-05
-2.23853e-05
-2.19838e-05
-2.13119e-05
-2.03931e-05
-1.87519e-05
-1.75276e-05
-8.22225e-06
-1.04161e-05
-8.13378e-06
-7.35163e-06
-6.89176e-06
-6.75788e-06
-6.94817e-06
-7.33417e-06
-7.85459e-06
-6.69991e-06
-6.25663e-06
-5.91621e-06
-5.70979e-06
-5.7471e-06
-6.05067e-06
-6.6029e-06
-7.2529e-06
-7.88773e-06
-5.74346e-06
-2.55008e-05
-2.29141e-05
-2.39197e-05
-2.47982e-05
-2.55605e-05
-2.60641e-05
-2.63195e-05
-2.63379e-05
-2.61188e-05
-2.56507e-05
-2.49208e-05
-2.40685e-05
-2.30706e-05
-2.55781e-05
-6.41127e-06
-8.43082e-06
-7.85749e-06
-7.38808e-06
-7.15438e-06
-7.29798e-06
-7.70943e-06
-8.36016e-06
-6.97096e-06
-6.46166e-06
-6.09539e-06
-5.90557e-06
-6.03372e-06
-6.55121e-06
-7.56855e-06
-9.23935e-06
-1.19824e-05
-1.54689e-05
-2.31547e-05
-2.20149e-05
-2.47771e-05
-2.67876e-05
-2.83063e-05
-2.94396e-05
-3.01382e-05
-3.04715e-05
-3.04903e-05
-3.01949e-05
-2.95351e-05
-2.84419e-05
-2.69664e-05
-2.50064e-05
-2.22932e-05
-2.35587e-05
-1.58245e-05
-1.23968e-05
-9.76844e-06
-8.32058e-06
-7.67338e-06
-7.67878e-06
-8.07923e-06
-8.87382e-06
-7.25412e-06
-6.63703e-06
-6.25411e-06
-6.06895e-06
-6.25206e-06
-6.89075e-06
-8.10414e-06
-9.99531e-06
-1.26818e-05
-1.58265e-05
-2.09994e-05
-2.383e-05
-2.64131e-05
-2.86542e-05
-3.04382e-05
-3.17021e-05
-3.24818e-05
-3.28534e-05
-3.28721e-05
-3.25382e-05
-3.17973e-05
-3.05737e-05
-2.88327e-05
-2.66315e-05
-2.4077e-05
-2.13181e-05
-1.61847e-05
-1.30689e-05
-1.0493e-05
-8.84355e-06
-8.04271e-06
-7.99768e-06
-8.43013e-06
-9.34104e-06
-7.49472e-06
-6.81582e-06
-6.40084e-06
-6.21001e-06
-6.42616e-06
-7.14244e-06
-8.47892e-06
-1.05327e-05
-1.34038e-05
-1.69196e-05
-2.1222e-05
-2.45469e-05
-2.75728e-05
-3.00409e-05
-3.19681e-05
-3.3278e-05
-3.40754e-05
-3.445e-05
-3.44682e-05
-3.41304e-05
-3.33712e-05
-3.21014e-05
-3.02177e-05
-2.77907e-05
-2.48082e-05
-2.15164e-05
-1.7229e-05
-1.37522e-05
-1.10049e-05
-9.21559e-06
-8.33278e-06
-8.2744e-06
-8.74963e-06
-9.76174e-06
-7.70102e-06
-6.9726e-06
-6.52509e-06
-6.3178e-06
-6.54076e-06
-7.28634e-06
-8.66795e-06
-1.07754e-05
-1.36801e-05
-1.7233e-05
-2.1275e-05
-2.49252e-05
-2.82391e-05
-3.08093e-05
-3.27807e-05
-3.4084e-05
-3.48672e-05
-3.52303e-05
-3.52479e-05
-3.49206e-05
-3.41745e-05
-3.29102e-05
-3.09816e-05
-2.84516e-05
-2.51819e-05
-2.15496e-05
-1.75209e-05
-1.40092e-05
-1.12378e-05
-9.41572e-06
-8.52387e-06
-8.48993e-06
-9.01787e-06
-1.01181e-05
-7.87097e-06
-7.10297e-06
-6.6277e-06
-6.40198e-06
-6.62101e-06
-7.37552e-06
-8.77324e-06
-1.09007e-05
-1.38158e-05
-1.73898e-05
-2.13967e-05
-2.52051e-05
-2.86663e-05
-3.12958e-05
-3.32827e-05
-3.45672e-05
-3.53286e-05
-3.56771e-05
-3.56946e-05
-3.53814e-05
-3.46566e-05
-3.34104e-05
-3.14657e-05
-2.88764e-05
-2.5468e-05
-2.16621e-05
-1.76661e-05
-1.41357e-05
-1.13632e-05
-9.53908e-06
-8.66082e-06
-8.66017e-06
-9.23592e-06
-1.04056e-05
-8.00152e-06
-7.20382e-06
-6.70698e-06
-6.4645e-06
-6.67521e-06
-7.42867e-06
-8.82937e-06
-1.09642e-05
-1.38871e-05
-1.74872e-05
-2.15205e-05
-2.54243e-05
-2.89651e-05
-3.16275e-05
-3.36203e-05
-3.48914e-05
-3.5638e-05
-3.59771e-05
-3.59949e-05
-3.56918e-05
-3.49821e-05
-3.37493e-05
-3.17978e-05
-2.91718e-05
-2.56693e-05
-2.17787e-05
-1.77586e-05
-1.42051e-05
-1.14323e-05
-9.61489e-06
-8.7558e-06
-8.78657e-06
-9.40054e-06
-1.0621e-05
-8.09139e-06
-7.27464e-06
-6.76406e-06
-6.51043e-06
-6.71529e-06
-7.46798e-06
-8.87213e-06
-1.10167e-05
-1.39546e-05
-1.75841e-05
-2.16545e-05
-2.56187e-05
-2.92122e-05
-3.19019e-05
-3.39052e-05
-3.51753e-05
-3.59182e-05
-3.62547e-05
-3.62736e-05
-3.5975e-05
-3.52707e-05
-3.40399e-05
-3.20784e-05
-2.94253e-05
-2.58714e-05
-2.19157e-05
-1.78571e-05
-1.42751e-05
-1.14921e-05
-9.67418e-06
-8.82549e-06
-8.87587e-06
-9.51376e-06
-1.07658e-05
-8.14024e-06
-7.31522e-06
-6.79917e-06
-6.54137e-06
-6.74507e-06
-7.50013e-06
-8.91063e-06
-1.10708e-05
-1.40304e-05
-1.76902e-05
-2.17964e-05
-2.57983e-05
-2.94235e-05
-3.21365e-05
-3.41557e-05
-3.54369e-05
-3.61868e-05
-3.65275e-05
-3.6548e-05
-3.62486e-05
-3.55401e-05
-3.43006e-05
-3.23245e-05
-2.96486e-05
-2.60621e-05
-2.2066e-05
-1.79697e-05
-1.43568e-05
-1.15535e-05
-9.72491e-06
-8.87437e-06
-8.92989e-06
-9.5765e-06
-1.08417e-05
-8.14858e-06
-7.32597e-06
-6.81269e-06
-6.55764e-06
-6.76512e-06
-7.52738e-06
-8.95222e-06
-1.11263e-05
-1.41123e-05
-1.78029e-05
-2.19451e-05
-2.59657e-05
-2.96008e-05
-3.23313e-05
-3.437e-05
-3.56727e-05
-3.64394e-05
-3.67906e-05
-3.68136e-05
-3.65083e-05
-3.57872e-05
-3.45297e-05
-3.25365e-05
-2.98437e-05
-2.62454e-05
-2.22285e-05
-1.80935e-05
-1.44473e-05
-1.16149e-05
-9.76669e-06
-8.90273e-06
-8.94944e-06
-9.58994e-06
-1.08502e-05
-8.11816e-06
-7.30825e-06
-6.8054e-06
-6.55837e-06
-6.77109e-06
-7.53796e-06
-8.97108e-06
-1.11638e-05
-1.41819e-05
-1.79069e-05
-2.21013e-05
-2.61216e-05
-2.97371e-05
-3.24754e-05
-3.45339e-05
-3.58674e-05
-3.66599e-05
-3.70277e-05
-3.7054e-05
-3.67387e-05
-3.5998e-05
-3.47153e-05
-3.2706e-05
-3.00071e-05
-2.64242e-05
-2.24061e-05
-1.82166e-05
-1.45327e-05
-1.16641e-05
-9.79174e-06
-8.9076e-06
-8.93501e-06
-9.5561e-06
-1.07932e-05
-8.05137e-06
-7.26363e-06
-6.77737e-06
-6.53976e-06
-6.75272e-06
-7.51278e-06
-8.93854e-06
-1.11301e-05
-1.41704e-05
-1.7933e-05
-2.22479e-05
-2.62329e-05
-2.9778e-05
-3.24929e-05
-3.45537e-05
-3.59174e-05
-3.67395e-05
-3.7128e-05
-3.71587e-05
-3.68318e-05
-3.607e-05
-3.47655e-05
-3.27611e-05
-3.00932e-05
-2.6592e-05
-2.25874e-05
-1.82732e-05
-1.45486e-05
-1.16524e-05
-9.77023e-06
-8.87462e-06
-8.88243e-06
-9.4757e-06
-1.06729e-05
-7.95172e-06
-7.19753e-06
-6.73269e-06
-6.50305e-06
-6.70654e-06
-7.44002e-06
-8.82793e-06
-1.09786e-05
-1.40157e-05
-1.78079e-05
-2.24509e-05
-2.63442e-05
-2.96749e-05
-3.23186e-05
-3.43517e-05
-3.57338e-05
-3.65792e-05
-3.69867e-05
-3.7024e-05
-3.66915e-05
-3.592e-05
-3.46112e-05
-3.26458e-05
-3.00571e-05
-2.6752e-05
-2.28348e-05
-1.82049e-05
-1.44456e-05
-1.15437e-05
-9.68598e-06
-8.80086e-06
-8.79631e-06
-9.35636e-06
-1.04971e-05
-7.81613e-06
-7.1214e-06
-6.67273e-06
-6.44104e-06
-6.61136e-06
-7.27278e-06
-8.54439e-06
-1.05284e-05
-1.33345e-05
-1.67021e-05
-2.24724e-05
-2.66285e-05
-2.93122e-05
-3.17128e-05
-3.36157e-05
-3.49666e-05
-3.58094e-05
-3.6227e-05
-3.62741e-05
-3.59515e-05
-3.52029e-05
-3.3948e-05
-3.2132e-05
-2.98089e-05
-2.71659e-05
-2.29072e-05
-1.71578e-05
-1.38356e-05
-1.11666e-05
-9.45542e-06
-8.64962e-06
-8.66503e-06
-9.19919e-06
-1.02731e-05
-7.65504e-06
-7.0491e-06
-6.60921e-06
-6.37117e-06
-6.49577e-06
-7.05763e-06
-8.17561e-06
-1.0018e-05
-1.30504e-05
-1.71313e-05
-2.40072e-05
-2.49774e-05
-2.83615e-05
-3.08681e-05
-3.26211e-05
-3.39173e-05
-3.47313e-05
-3.51429e-05
-3.52057e-05
-3.49228e-05
-3.42382e-05
-3.30764e-05
-3.14356e-05
-2.90243e-05
-2.56526e-05
-2.44099e-05
-1.78383e-05
-1.37475e-05
-1.08e-05
-9.1782e-06
-8.47143e-06
-8.52182e-06
-9.03105e-06
-1.00197e-05
-7.51087e-06
-6.95688e-06
-6.53512e-06
-6.2829e-06
-6.3309e-06
-6.69666e-06
-7.32967e-06
-7.9748e-06
-8.49433e-06
-5.15985e-06
-3.22706e-05
-2.84481e-05
-2.95614e-05
-3.06382e-05
-3.16049e-05
-3.22746e-05
-3.26459e-05
-3.27278e-05
-3.25266e-05
-3.20325e-05
-3.12594e-05
-3.03428e-05
-2.94034e-05
-3.31759e-05
-5.82693e-06
-9.30874e-06
-8.88183e-06
-8.44127e-06
-8.16513e-06
-8.34015e-06
-8.8663e-06
-9.7023e-06
-7.37939e-06
-6.87357e-06
-6.47871e-06
-6.23495e-06
-6.26915e-06
-6.62641e-06
-7.3813e-06
-8.64271e-06
-1.0743e-05
-1.41802e-05
-1.5223e-05
-2.26982e-05
-2.51073e-05
-2.74377e-05
-2.89849e-05
-3.01773e-05
-3.09578e-05
-3.13959e-05
-3.15049e-05
-3.1297e-05
-3.07603e-05
-2.98441e-05
-2.85218e-05
-2.64765e-05
-2.40576e-05
-1.72329e-05
-1.58372e-05
-1.21509e-05
-9.87324e-06
-8.6432e-06
-8.14198e-06
-8.24788e-06
-8.72024e-06
-9.47498e-06
-7.25295e-06
-6.80486e-06
-6.43944e-06
-6.20794e-06
-6.22779e-06
-6.54273e-06
-7.20972e-06
-8.28821e-06
-9.81831e-06
-1.18365e-05
-1.58029e-05
-2.08226e-05
-2.31493e-05
-2.53233e-05
-2.69237e-05
-2.81676e-05
-2.89797e-05
-2.94417e-05
-2.95701e-05
-2.9384e-05
-2.887e-05
-2.79766e-05
-2.66471e-05
-2.4806e-05
-2.25319e-05
-1.77089e-05
-1.33572e-05
-1.12332e-05
-9.59967e-06
-8.53939e-06
-8.07406e-06
-8.15964e-06
-8.59219e-06
-9.29203e-06
-7.18276e-06
-6.7709e-06
-6.44053e-06
-6.23483e-06
-6.25882e-06
-6.5548e-06
-7.18301e-06
-8.22442e-06
-9.80223e-06
-1.20059e-05
-1.49075e-05
-1.84194e-05
-2.09987e-05
-2.32496e-05
-2.49228e-05
-2.62224e-05
-2.70618e-05
-2.75357e-05
-2.76713e-05
-2.74934e-05
-2.69813e-05
-2.60829e-05
-2.47284e-05
-2.28682e-05
-2.04078e-05
-1.69804e-05
-1.38762e-05
-1.14197e-05
-9.64578e-06
-8.56069e-06
-8.08111e-06
-8.13102e-06
-8.51531e-06
-9.16388e-06
-7.15168e-06
-6.77845e-06
-6.49272e-06
-6.32498e-06
-6.36332e-06
-6.64255e-06
-7.21313e-06
-8.14436e-06
-9.52057e-06
-1.14132e-05
-1.38022e-05
-1.65259e-05
-1.89173e-05
-2.10602e-05
-2.26861e-05
-2.39331e-05
-2.47351e-05
-2.51874e-05
-2.53207e-05
-2.51612e-05
-2.46884e-05
-2.38526e-05
-2.25735e-05
-2.08362e-05
-1.85619e-05
-1.58689e-05
-1.32835e-05
-1.11511e-05
-9.58439e-06
-8.5954e-06
-8.1428e-06
-8.16568e-06
-8.49889e-06
-9.09155e-06
-7.16115e-06
-6.83636e-06
-6.61341e-06
-6.50417e-06
-6.57772e-06
-6.85918e-06
-7.38456e-06
-8.20262e-06
-9.36824e-06
-1.09192e-05
-1.28242e-05
-1.49669e-05
-1.70058e-05
-1.88945e-05
-2.03703e-05
-2.14864e-05
-2.22147e-05
-2.26332e-05
-2.27576e-05
-2.26142e-05
-2.21944e-05
-2.14516e-05
-2.03188e-05
-1.88005e-05
-1.68703e-05
-1.47366e-05
-1.26736e-05
-1.09281e-05
-9.6082e-06
-8.74574e-06
-8.32368e-06
-8.30526e-06
-8.56649e-06
-9.08113e-06
-7.21075e-06
-6.94432e-06
-6.80982e-06
-6.78295e-06
-6.91664e-06
-7.22845e-06
-7.74284e-06
-8.49091e-06
-9.50193e-06
-1.07909e-05
-1.23229e-05
-1.40236e-05
-1.57004e-05
-1.72698e-05
-1.85236e-05
-1.94841e-05
-2.01217e-05
-2.04881e-05
-2.06038e-05
-2.04856e-05
-2.01208e-05
-1.94818e-05
-1.85244e-05
-1.72628e-05
-1.56985e-05
-1.4016e-05
-1.23845e-05
-1.09678e-05
-9.85643e-06
-9.08828e-06
-8.66606e-06
-8.57295e-06
-8.72368e-06
-9.13718e-06
-7.26564e-06
-7.09827e-06
-7.04995e-06
-7.11229e-06
-7.32094e-06
-7.69077e-06
-8.2389e-06
-8.98274e-06
-9.93423e-06
-1.109e-05
-1.24259e-05
-1.38827e-05
-1.53259e-05
-1.66742e-05
-1.77811e-05
-1.86412e-05
-1.92293e-05
-1.95723e-05
-1.9683e-05
-1.95713e-05
-1.9229e-05
-1.8642e-05
-1.77886e-05
-1.66888e-05
-1.53633e-05
-1.39487e-05
-1.2561e-05
-1.13391e-05
-1.03381e-05
-9.59677e-06
-9.12934e-06
-8.9324e-06
-8.95635e-06
-9.21664e-06
-7.33136e-06
-7.26467e-06
-7.29941e-06
-7.44132e-06
-7.72501e-06
-8.17195e-06
-8.80332e-06
-9.63716e-06
-1.06817e-05
-1.19267e-05
-1.33254e-05
-1.48035e-05
-1.62611e-05
-1.76199e-05
-1.87628e-05
-1.96656e-05
-2.02994e-05
-2.06724e-05
-2.079e-05
-2.06578e-05
-2.02714e-05
-1.96257e-05
-1.87163e-05
-1.7572e-05
-1.62308e-05
-1.48101e-05
-1.34143e-05
-1.21317e-05
-1.10559e-05
-1.02289e-05
-9.66195e-06
-9.34472e-06
-9.23289e-06
-9.31949e-06
-5.58842e-06
-5.59205e-06
-5.60447e-06
-5.62921e-06
-5.6738e-06
-5.74264e-06
-5.8342e-06
-5.95506e-06
-6.1042e-06
-6.27882e-06
-6.47151e-06
-6.6753e-06
-6.86571e-06
-7.04056e-06
-7.19193e-06
-7.31494e-06
-7.40516e-06
-7.46097e-06
-7.48151e-06
-7.46696e-06
-7.41855e-06
-7.33824e-06
-7.23082e-06
-7.10136e-06
-6.95836e-06
-6.80396e-06
-6.66278e-06
-6.54137e-06
-6.44657e-06
-6.37242e-06
-6.32363e-06
-6.29499e-06
-6.27494e-06
-6.26126e-06
-5.54586e-06
-5.51853e-06
-5.50663e-06
-5.50279e-06
-5.51928e-06
-5.55963e-06
-5.62513e-06
-5.71601e-06
-5.82841e-06
-5.95913e-06
-6.09744e-06
-6.23767e-06
-6.37255e-06
-6.49971e-06
-6.60891e-06
-6.69897e-06
-6.76596e-06
-6.80966e-06
-6.82936e-06
-6.82521e-06
-6.79826e-06
-6.74902e-06
-6.68178e-06
-6.59792e-06
-6.50814e-06
-6.41465e-06
-6.32601e-06
-6.24684e-06
-6.18832e-06
-6.15239e-06
-6.1413e-06
-6.15127e-06
-6.17036e-06
-6.19858e-06
-5.53654e-06
-5.50045e-06
-5.47553e-06
-5.44917e-06
-5.447e-06
-5.4753e-06
-5.53714e-06
-5.63377e-06
-5.76056e-06
-5.91769e-06
-6.08608e-06
-6.26815e-06
-6.43158e-06
-6.58355e-06
-6.70642e-06
-6.80567e-06
-6.87671e-06
-6.92205e-06
-6.94116e-06
-6.93417e-06
-6.90195e-06
-6.8422e-06
-6.76002e-06
-6.65012e-06
-6.53104e-06
-6.39571e-06
-6.27832e-06
-6.17639e-06
-6.11061e-06
-6.08084e-06
-6.08887e-06
-6.12664e-06
-6.16013e-06
-6.19642e-06
-5.5589e-06
-5.50699e-06
-5.4639e-06
-5.41487e-06
-5.39793e-06
-5.42352e-06
-5.49804e-06
-5.62698e-06
-5.80654e-06
-6.04492e-06
-6.30819e-06
-6.61062e-06
-6.86607e-06
-7.09822e-06
-7.27384e-06
-7.41108e-06
-7.50383e-06
-7.5596e-06
-7.57808e-06
-7.55936e-06
-7.50406e-06
-7.40485e-06
-7.26852e-06
-7.07711e-06
-6.86558e-06
-6.6104e-06
-6.40142e-06
-6.22434e-06
-6.11653e-06
-6.0702e-06
-6.08508e-06
-6.14535e-06
-6.19716e-06
-6.25e-06
-5.62782e-06
-5.55629e-06
-5.49763e-06
-5.43396e-06
-5.41419e-06
-5.45396e-06
-5.56481e-06
-5.76002e-06
-6.03864e-06
-6.42675e-06
-6.86533e-06
-7.39918e-06
-7.82316e-06
-8.20126e-06
-8.47226e-06
-8.6792e-06
-8.81262e-06
-8.88856e-06
-8.90666e-06
-8.86691e-06
-8.76998e-06
-8.59986e-06
-8.36695e-06
-8.0283e-06
-7.64818e-06
-7.16226e-06
-6.78297e-06
-6.46348e-06
-6.2689e-06
-6.17356e-06
-6.17327e-06
-6.24121e-06
-6.30643e-06
-6.38024e-06
-5.74647e-06
-5.65006e-06
-5.57842e-06
-5.50858e-06
-5.49889e-06
-5.57037e-06
-5.74051e-06
-6.03298e-06
-6.45163e-06
-7.05669e-06
-7.75823e-06
-8.68358e-06
-9.35838e-06
-9.95346e-06
-1.03611e-05
-1.06694e-05
-1.08621e-05
-1.09682e-05
-1.09863e-05
-1.09161e-05
-1.07594e-05
-1.04869e-05
-1.01162e-05
-9.55879e-06
-8.92762e-06
-8.05013e-06
-7.41507e-06
-6.88626e-06
-6.56486e-06
-6.39062e-06
-6.35433e-06
-6.41613e-06
-6.49024e-06
-6.59191e-06
-5.91454e-06
-5.78694e-06
-5.70424e-06
-5.63563e-06
-5.6474e-06
-5.76479e-06
-6.01021e-06
-6.41802e-06
-6.99684e-06
-7.87812e-06
-8.92217e-06
-1.0498e-05
-1.14833e-05
-1.23392e-05
-1.28961e-05
-1.33177e-05
-1.35744e-05
-1.37144e-05
-1.37327e-05
-1.3629e-05
-1.34084e-05
-1.30218e-05
-1.25004e-05
-1.16794e-05
-1.07374e-05
-9.20725e-06
-8.242e-06
-7.44406e-06
-6.97576e-06
-6.70504e-06
-6.619e-06
-6.66545e-06
-6.74603e-06
-6.88511e-06
-6.12798e-06
-5.96092e-06
-5.87064e-06
-5.81147e-06
-5.85871e-06
-6.03917e-06
-6.37627e-06
-6.90399e-06
-7.63204e-06
-8.7364e-06
-1.01771e-05
-1.28601e-05
-1.41298e-05
-1.52746e-05
-1.5997e-05
-1.65574e-05
-1.68952e-05
-1.70787e-05
-1.70976e-05
-1.69515e-05
-1.66504e-05
-1.61243e-05
-1.54358e-05
-1.43212e-05
-1.30922e-05
-1.04457e-05
-9.10843e-06
-8.09012e-06
-7.4855e-06
-7.11389e-06
-6.96437e-06
-6.98468e-06
-7.06827e-06
-7.25737e-06
-6.37517e-06
-6.1622e-06
-6.06434e-06
-6.01953e-06
-6.11061e-06
-6.3607e-06
-6.78452e-06
-7.39857e-06
-8.13007e-06
-9.31343e-06
-1.09982e-05
-1.61064e-05
-1.71412e-05
-1.83535e-05
-1.91399e-05
-1.97637e-05
-2.01368e-05
-2.03442e-05
-2.03637e-05
-2.01945e-05
-1.98585e-05
-1.92684e-05
-1.85136e-05
-1.73223e-05
-1.63257e-05
-1.12338e-05
-9.72698e-06
-8.60728e-06
-8.00533e-06
-7.56308e-06
-7.35541e-06
-7.34868e-06
-7.43773e-06
-7.69925e-06
-6.64824e-06
-6.38415e-06
-6.28433e-06
-6.2708e-06
-6.43869e-06
-6.80965e-06
-7.39895e-06
-8.12767e-06
-8.94287e-06
-1.10164e-05
-7.62017e-06
-1.85531e-05
-1.95079e-05
-2.11136e-05
-2.20761e-05
-2.2885e-05
-2.33542e-05
-2.36071e-05
-2.36267e-05
-2.34124e-05
-2.29811e-05
-2.22063e-05
-2.12748e-05
-1.96842e-05
-1.87962e-05
-7.70497e-06
-1.13812e-05
-9.38303e-06
-8.7321e-06
-8.19449e-06
-7.85395e-06
-7.77563e-06
-7.85048e-06
-8.20292e-06
-6.94151e-06
-6.61157e-06
-6.50594e-06
-6.52341e-06
-6.76936e-06
-7.26139e-06
-7.98575e-06
-8.74392e-06
-9.03527e-06
-4.87799e-06
-2.67056e-05
-2.25293e-05
-2.31979e-05
-2.40116e-05
-2.46901e-05
-2.51363e-05
-2.53755e-05
-2.53943e-05
-2.51923e-05
-2.4782e-05
-2.41363e-05
-2.335e-05
-2.26849e-05
-2.67433e-05
-5.63585e-06
-9.59963e-06
-9.37759e-06
-8.79799e-06
-8.34453e-06
-8.19413e-06
-8.26097e-06
-8.72069e-06
-7.24145e-06
-6.84131e-06
-6.74035e-06
-6.81749e-06
-7.21164e-06
-7.99507e-06
-9.28744e-06
-1.11527e-05
-1.41393e-05
-1.71203e-05
-2.44695e-05
-2.11215e-05
-2.30347e-05
-2.47348e-05
-2.60188e-05
-2.68927e-05
-2.74647e-05
-2.77523e-05
-2.77706e-05
-2.75196e-05
-2.69845e-05
-2.61479e-05
-2.49033e-05
-2.32498e-05
-2.13809e-05
-2.48571e-05
-1.74404e-05
-1.4537e-05
-1.16891e-05
-1.00418e-05
-9.06691e-06
-8.68639e-06
-8.68408e-06
-9.27241e-06
-7.5339e-06
-7.05469e-06
-6.94903e-06
-7.06011e-06
-7.54195e-06
-8.47758e-06
-9.9896e-06
-1.20805e-05
-1.49281e-05
-1.75861e-05
-2.19753e-05
-2.29698e-05
-2.41654e-05
-2.54049e-05
-2.65482e-05
-2.74056e-05
-2.79995e-05
-2.83004e-05
-2.83179e-05
-2.80517e-05
-2.74924e-05
-2.66677e-05
-2.55559e-05
-2.43395e-05
-2.31562e-05
-2.22415e-05
-1.79023e-05
-1.52947e-05
-1.2581e-05
-1.07257e-05
-9.56515e-06
-9.08759e-06
-9.07341e-06
-9.78918e-06
-7.7988e-06
-7.25787e-06
-7.14634e-06
-7.2868e-06
-7.84632e-06
-8.91787e-06
-1.06239e-05
-1.29563e-05
-1.59767e-05
-1.90572e-05
-2.24621e-05
-2.40864e-05
-2.53885e-05
-2.65832e-05
-2.77378e-05
-2.85959e-05
-2.91952e-05
-2.94951e-05
-2.9512e-05
-2.92457e-05
-2.86799e-05
-2.78528e-05
-2.67284e-05
-2.5554e-05
-2.42757e-05
-2.2689e-05
-1.93212e-05
-1.63023e-05
-1.34262e-05
-1.135e-05
-1.00296e-05
-9.46823e-06
-9.44251e-06
-1.02586e-05
-8.02663e-06
-7.43588e-06
-7.31216e-06
-7.46182e-06
-8.05813e-06
-9.19453e-06
-1.09821e-05
-1.34074e-05
-1.64542e-05
-1.96423e-05
-2.28146e-05
-2.47595e-05
-2.62326e-05
-2.74237e-05
-2.85809e-05
-2.94283e-05
-3.00234e-05
-3.03185e-05
-3.0335e-05
-3.00727e-05
-2.951e-05
-2.86919e-05
-2.7563e-05
-2.63884e-05
-2.49383e-05
-2.30177e-05
-1.98831e-05
-1.67624e-05
-1.38692e-05
-1.17194e-05
-1.03475e-05
-9.7658e-06
-9.75545e-06
-1.06537e-05
-8.21358e-06
-7.58555e-06
-7.45067e-06
-7.60311e-06
-8.22099e-06
-9.39784e-06
-1.12365e-05
-1.37235e-05
-1.67988e-05
-2.00501e-05
-2.31737e-05
-2.53007e-05
-2.68611e-05
-2.80845e-05
-2.92608e-05
-3.01045e-05
-3.06948e-05
-3.09844e-05
-3.1001e-05
-3.07442e-05
-3.01861e-05
-2.93712e-05
-2.82226e-05
-2.70135e-05
-2.54669e-05
-2.33655e-05
-2.02803e-05
-1.70998e-05
-1.41872e-05
-1.19926e-05
-1.05952e-05
-1.00088e-05
-1.00149e-05
-1.09709e-05
-8.35607e-06
-7.70156e-06
-7.55648e-06
-7.70619e-06
-8.332e-06
-9.5271e-06
-1.13894e-05
-1.39079e-05
-1.70029e-05
-2.0304e-05
-2.34443e-05
-2.56793e-05
-2.7297e-05
-2.8544e-05
-2.97323e-05
-3.05742e-05
-3.11618e-05
-3.14485e-05
-3.14656e-05
-3.12127e-05
-3.06579e-05
-2.9845e-05
-2.86839e-05
-2.74495e-05
-2.58508e-05
-2.36325e-05
-2.05318e-05
-1.7305e-05
-1.43804e-05
-1.21677e-05
-1.07658e-05
-1.0187e-05
-1.02106e-05
-1.12066e-05
-8.45327e-06
-7.78306e-06
-7.63148e-06
-7.77872e-06
-8.4085e-06
-9.61435e-06
-1.14926e-05
-1.40346e-05
-1.71528e-05
-2.04949e-05
-2.36667e-05
-2.5956e-05
-2.76227e-05
-2.88922e-05
-3.00932e-05
-3.09395e-05
-3.15291e-05
-3.18164e-05
-3.18347e-05
-3.15833e-05
-3.10285e-05
-3.02125e-05
-2.90397e-05
-2.7785e-05
-2.61557e-05
-2.38622e-05
-2.07278e-05
-1.74612e-05
-1.45181e-05
-1.22903e-05
-1.08846e-05
-1.03107e-05
-1.0345e-05
-1.1364e-05
-8.50504e-06
-7.82931e-06
-7.67536e-06
-7.82166e-06
-8.4535e-06
-9.66536e-06
-1.15545e-05
-1.41144e-05
-1.72571e-05
-2.06321e-05
-2.38392e-05
-2.6163e-05
-2.78557e-05
-2.91429e-05
-3.03562e-05
-3.12122e-05
-3.18084e-05
-3.21e-05
-3.21201e-05
-3.18682e-05
-3.13099e-05
-3.0487e-05
-2.93036e-05
-2.8032e-05
-2.63737e-05
-2.40468e-05
-2.08761e-05
-1.75761e-05
-1.46099e-05
-1.23673e-05
-1.09551e-05
-1.03808e-05
-1.0418e-05
-1.14453e-05
-8.51193e-06
-7.84086e-06
-7.68865e-06
-7.83546e-06
-8.46745e-06
-9.68067e-06
-1.1576e-05
-1.41462e-05
-1.73135e-05
-2.07145e-05
-2.39629e-05
-2.63058e-05
-2.80023e-05
-2.9301e-05
-3.05249e-05
-3.13947e-05
-3.20015e-05
-3.23007e-05
-3.23235e-05
-3.20692e-05
-3.15051e-05
-3.06726e-05
-2.94816e-05
-2.82003e-05
-2.65389e-05
-2.41898e-05
-2.09761e-05
-1.76476e-05
-1.46547e-05
-1.23987e-05
-1.09779e-05
-1.03985e-05
-1.0431e-05
-1.14521e-05
-8.47556e-06
-7.81985e-06
-7.67314e-06
-7.82066e-06
-8.44838e-06
-9.65408e-06
-1.15451e-05
-1.41157e-05
-1.73083e-05
-2.07278e-05
-2.40406e-05
-2.63906e-05
-2.80593e-05
-2.93644e-05
-3.05967e-05
-3.14853e-05
-3.21064e-05
-3.24166e-05
-3.24432e-05
-3.21853e-05
-3.16138e-05
-3.07691e-05
-2.95743e-05
-2.82885e-05
-2.6636e-05
-2.42951e-05
-2.10169e-05
-1.76665e-05
-1.46439e-05
-1.23802e-05
-1.09531e-05
-1.03666e-05
-1.0388e-05
-1.13862e-05
-8.39796e-06
-7.76836e-06
-7.62818e-06
-7.77089e-06
-8.38027e-06
-9.55458e-06
-1.141e-05
-1.39441e-05
-1.71447e-05
-2.05715e-05
-2.40245e-05
-2.63419e-05
-2.79696e-05
-2.92679e-05
-3.04938e-05
-3.13983e-05
-3.20334e-05
-3.23567e-05
-3.23882e-05
-3.21275e-05
-3.15516e-05
-3.07007e-05
-2.952e-05
-2.82481e-05
-2.66283e-05
-2.43201e-05
-2.09015e-05
-1.754e-05
-1.45049e-05
-1.22666e-05
-1.08575e-05
-1.02776e-05
-1.02896e-05
-1.12482e-05
-8.28405e-06
-7.69388e-06
-7.56216e-06
-7.69531e-06
-8.27345e-06
-9.39385e-06
-1.11829e-05
-1.36422e-05
-1.68406e-05
-2.02099e-05
-2.39936e-05
-2.62415e-05
-2.77389e-05
-2.90658e-05
-3.03026e-05
-3.12327e-05
-3.18832e-05
-3.22209e-05
-3.22596e-05
-3.19993e-05
-3.1422e-05
-3.05612e-05
-2.93818e-05
-2.8096e-05
-2.66187e-05
-2.43489e-05
-2.06048e-05
-1.72974e-05
-1.42591e-05
-1.20796e-05
-1.07119e-05
-1.01504e-05
-1.01518e-05
-1.10476e-05
-8.13796e-06
-7.60125e-06
-7.47163e-06
-7.57643e-06
-8.0843e-06
-9.07992e-06
-1.06842e-05
-1.28982e-05
-1.58684e-05
-1.87434e-05
-2.373e-05
-2.61978e-05
-2.73288e-05
-2.86454e-05
-2.98517e-05
-3.07825e-05
-3.14352e-05
-3.17839e-05
-3.18316e-05
-3.15791e-05
-3.10171e-05
-3.01769e-05
-2.90455e-05
-2.77978e-05
-2.6708e-05
-2.41335e-05
-1.92058e-05
-1.64093e-05
-1.36065e-05
-1.16542e-05
-1.04385e-05
-9.9563e-06
-9.97247e-06
-1.0791e-05
-7.97537e-06
-7.50524e-06
-7.38126e-06
-7.46149e-06
-7.9032e-06
-8.78052e-06
-1.02155e-05
-1.22547e-05
-1.54658e-05
-1.90168e-05
-2.51672e-05
-2.43229e-05
-2.67447e-05
-2.87921e-05
-3.02236e-05
-3.12275e-05
-3.19011e-05
-3.22633e-05
-3.23256e-05
-3.20907e-05
-3.15366e-05
-3.06552e-05
-2.93168e-05
-2.73717e-05
-2.49821e-05
-2.55308e-05
-1.97025e-05
-1.61838e-05
-1.31121e-05
-1.1295e-05
-1.02007e-05
-9.78061e-06
-9.79681e-06
-1.05116e-05
-7.81232e-06
-7.40031e-06
-7.27347e-06
-7.30577e-06
-7.62226e-06
-8.23581e-06
-9.10849e-06
-9.92701e-06
-9.9585e-06
-3.90002e-06
-3.38705e-05
-2.77978e-05
-2.83616e-05
-2.92175e-05
-2.99936e-05
-3.05476e-05
-3.08773e-05
-3.09537e-05
-3.07819e-05
-3.03748e-05
-2.97595e-05
-2.90111e-05
-2.85945e-05
-3.46104e-05
-4.59892e-06
-1.08583e-05
-1.09648e-05
-1.03377e-05
-9.74804e-06
-9.52726e-06
-9.60265e-06
-1.02331e-05
-7.66584e-06
-7.30779e-06
-7.19614e-06
-7.22539e-06
-7.5232e-06
-8.13451e-06
-9.12384e-06
-1.04735e-05
-1.24574e-05
-1.56398e-05
-1.52719e-05
-2.35525e-05
-2.53075e-05
-2.72197e-05
-2.8458e-05
-2.9543e-05
-3.02461e-05
-3.06629e-05
-3.0762e-05
-3.05522e-05
-3.00365e-05
-2.91535e-05
-2.79976e-05
-2.62677e-05
-2.46614e-05
-1.72509e-05
-1.72019e-05
-1.39116e-05
-1.17998e-05
-1.04995e-05
-9.70445e-06
-9.41411e-06
-9.44133e-06
-9.97254e-06
-7.55315e-06
-7.22934e-06
-7.12848e-06
-7.1495e-06
-7.40934e-06
-7.95543e-06
-8.84354e-06
-1.00975e-05
-1.17113e-05
-1.36309e-05
-1.73988e-05
-2.24353e-05
-2.38198e-05
-2.52549e-05
-2.63318e-05
-2.73437e-05
-2.80229e-05
-2.84446e-05
-2.85583e-05
-2.83763e-05
-2.79039e-05
-2.71122e-05
-2.60574e-05
-2.4726e-05
-2.34846e-05
-1.89785e-05
-1.50465e-05
-1.31593e-05
-1.15061e-05
-1.02923e-05
-9.55207e-06
-9.27042e-06
-9.2823e-06
-9.74637e-06
-7.45645e-06
-7.17999e-06
-7.1026e-06
-7.13729e-06
-7.39362e-06
-7.92458e-06
-8.79517e-06
-1.00533e-05
-1.17662e-05
-1.39369e-05
-1.67053e-05
-1.98762e-05
-2.15669e-05
-2.29789e-05
-2.40731e-05
-2.51165e-05
-2.58146e-05
-2.62431e-05
-2.63616e-05
-2.61854e-05
-2.5706e-05
-2.49115e-05
-2.38258e-05
-2.24806e-05
-2.09672e-05
-1.82365e-05
-1.55139e-05
-1.33215e-05
-1.15433e-05
-1.02882e-05
-9.52206e-06
-9.20668e-06
-9.18043e-06
-9.58288e-06
-7.39775e-06
-7.16478e-06
-7.11506e-06
-7.16892e-06
-7.42144e-06
-7.92092e-06
-8.72466e-06
-9.87967e-06
-1.14225e-05
-1.33724e-05
-1.55964e-05
-1.79691e-05
-1.95665e-05
-2.09317e-05
-2.20395e-05
-2.30494e-05
-2.37265e-05
-2.41401e-05
-2.42602e-05
-2.4102e-05
-2.36539e-05
-2.29141e-05
-2.18643e-05
-2.0592e-05
-1.91342e-05
-1.70948e-05
-1.49445e-05
-1.2988e-05
-1.13886e-05
-1.02252e-05
-9.49999e-06
-9.17977e-06
-9.12744e-06
-9.47501e-06
-7.37727e-06
-7.18831e-06
-7.17529e-06
-7.26177e-06
-7.525e-06
-8.00487e-06
-8.74645e-06
-9.78422e-06
-1.11335e-05
-1.27796e-05
-1.45953e-05
-1.64809e-05
-1.79669e-05
-1.9306e-05
-2.04078e-05
-2.13771e-05
-2.20371e-05
-2.24328e-05
-2.25604e-05
-2.24164e-05
-2.19946e-05
-2.12952e-05
-2.03036e-05
-1.91095e-05
-1.77301e-05
-1.60872e-05
-1.43293e-05
-1.26774e-05
-1.12806e-05
-1.02337e-05
-9.55554e-06
-9.22637e-06
-9.1401e-06
-9.42411e-06
-7.38736e-06
-7.24513e-06
-7.27522e-06
-7.40364e-06
-7.68849e-06
-8.16062e-06
-8.85307e-06
-9.78851e-06
-1.09693e-05
-1.2373e-05
-1.38984e-05
-1.54703e-05
-1.68476e-05
-1.81087e-05
-1.91596e-05
-2.00563e-05
-2.06819e-05
-2.10627e-05
-2.1183e-05
-2.10525e-05
-2.06623e-05
-2.00192e-05
-1.91152e-05
-1.80304e-05
-1.67728e-05
-1.53651e-05
-1.38819e-05
-1.24729e-05
-1.12589e-05
-1.03213e-05
-9.68416e-06
-9.33845e-06
-9.21014e-06
-9.4217e-06
-7.4065e-06
-7.30942e-06
-7.36325e-06
-7.52234e-06
-7.82692e-06
-8.30071e-06
-8.96728e-06
-9.841e-06
-1.09192e-05
-1.21773e-05
-1.35451e-05
-1.4956e-05
-1.62753e-05
-1.74904e-05
-1.85131e-05
-1.93587e-05
-1.99585e-05
-2.03227e-05
-2.04396e-05
-2.03161e-05
-1.99468e-05
-1.93395e-05