/*--------------------------------*- C++ -*----------------------------------*\
| =========                 |                                                 |
| \\      /  F ield         | OpenFOAM: The Open Source CFD Toolbox           |
|  \\    /   O peration     | Version:  2112                                  |
|   \\  /    A nd           | Website:  www.openfoam.com                      |
|    \\/     M anipulation  |                                                 |
\*---------------------------------------------------------------------------*/
FoamFile
{
    version     2.0;
    format      ascii;
    arch        "LSB;label=32;scalar=64";
    class       surfaceScalarField;
    location    "3.4";
    object      phi;
}
// * * * * * * * * * * * * * * * * * * * * * * * * * * * * * * * * * * * * * //

dimensions      [0 3 -1 0 0 0 0];

oriented        oriented;

internalField   nonuniform List<scalar> 
188215
(
6.83105e-10
1.48814e-09
-2.17124e-09
2.75118e-09
5.33032e-10
-2.6011e-09
5.51392e-09
-6.92463e-10
-2.07027e-09
8.60498e-09
-1.8535e-09
-1.23756e-09
1.17759e-08
-2.5866e-09
-5.84364e-10
1.49445e-08
-2.97737e-09
-1.91142e-10
1.80366e-08
-3.11752e-09
2.53472e-11
2.09167e-08
-3.01518e-09
1.35147e-10
2.3414e-08
-2.63814e-09
1.40776e-10
2.5156e-08
-1.80798e-09
6.60019e-11
2.57284e-08
-4.99091e-10
-7.33205e-11
2.49701e-08
9.05371e-10
-1.47063e-10
2.30799e-08
2.00657e-09
-1.16359e-10
2.01124e-08
2.9774e-09
-9.89442e-12
1.63594e-08
3.62818e-09
1.24826e-10
1.20192e-08
4.08733e-09
2.5287e-10
7.3192e-09
4.35187e-09
3.48114e-10
2.44915e-09
4.47248e-09
3.97576e-10
-2.40163e-09
4.45424e-09
3.96546e-10
-7.04453e-09
4.29716e-09
3.45745e-10
-1.1291e-08
3.99631e-09
2.502e-10
-1.49159e-08
3.50159e-09
1.23302e-10
-1.77266e-08
2.81937e-09
-8.73824e-12
-1.944e-08
1.82578e-09
-1.12335e-10
-2.00281e-08
7.28134e-10
-1.40072e-10
-1.92035e-08
-7.65674e-10
-5.88462e-11
-1.72506e-08
-1.97901e-09
2.61177e-11
-1.45323e-08
-2.69213e-09
-2.61769e-11
-1.14561e-08
-2.83378e-09
-2.42427e-10
-8.25555e-09
-2.49044e-09
-7.10134e-10
-5.1441e-09
-1.55885e-09
-1.5526e-09
-2.50066e-09
6.11038e-11
-2.70454e-09
-4.96808e-10
1.46472e-09
-3.46857e-09
2.56913e-09
-3.06594e-09
-1.4313e-09
6.40836e-09
-3.48892e-09
9.30952e-10
6.35752e-09
-8.18673e-09
4.50584e-09
5.49352e-09
-9.76087e-09
8.14471e-09
4.73109e-09
-1.02235e-08
1.16349e-08
4.5412e-09
-1.0618e-08
1.49732e-08
4.98623e-09
-1.13019e-08
1.81705e-08
6.0851e-09
-1.23999e-08
2.11566e-08
7.95075e-09
-1.39521e-08
2.3759e-08
1.07273e-08
-1.59678e-08
2.56209e-08
1.47713e-08
-1.84412e-08
2.65375e-08
1.98552e-08
-2.12709e-08
2.58242e-08
2.60064e-08
-2.43877e-08
2.38092e-08
3.13894e-08
-2.73679e-08
2.06761e-08
3.6087e-08
-2.99765e-08
1.67772e-08
3.96194e-08
-3.20922e-08
1.23108e-08
4.22546e-08
-3.37009e-08
7.4973e-09
4.39508e-08
-3.47855e-08
2.52082e-09
4.48015e-08
-3.53526e-08
-2.43489e-09
4.48088e-08
-3.53988e-08
-7.18629e-09
4.39725e-08
-3.4924e-08
-1.15512e-08
4.22926e-08
-3.39315e-08
-1.53111e-08
3.96772e-08
-3.24156e-08
-1.82726e-08
3.61763e-08
-3.03955e-08
-2.00837e-08
3.15278e-08
-2.78909e-08
-2.05546e-08
2.62349e-08
-2.5036e-08
-1.94252e-08
2.0203e-08
-2.2098e-08
-1.73046e-08
1.53695e-08
-1.94691e-08
-1.43975e-08
1.16816e-08
-1.72809e-08
-1.10327e-08
9.45781e-09
-1.56564e-08
-7.35339e-09
8.42125e-09
-1.4591e-08
-3.46271e-09
8.48821e-09
-1.39377e-08
3.73049e-10
9.44683e-09
-1.32215e-08
2.61514e-09
1.04366e-08
-1.1214e-08
1.02448e-08
-5.0605e-09
-3.02437e-09
1.29983e-08
-3.56556e-09
-6.07773e-10
1.40666e-08
-1.01257e-08
3.4613e-09
1.39757e-08
-1.25512e-08
7.68526e-09
1.40734e-08
-1.35662e-08
1.17188e-08
1.49496e-08
-1.44419e-08
1.558e-08
1.6772e-08
-1.5647e-08
1.936e-08
1.9693e-08
-1.73878e-08
2.30587e-08
2.40199e-08
-1.97678e-08
2.65103e-08
3.01131e-08
-2.28374e-08
2.9177e-08
3.87236e-08
-2.6619e-08
3.05191e-08
4.94938e-08
-3.09807e-08
2.95317e-08
6.27071e-08
-3.57134e-08
2.69504e-08
7.4174e-08
-4.02033e-08
2.31013e-08
8.40868e-08
-4.41508e-08
1.85345e-08
9.15586e-08
-4.73724e-08
1.34449e-08
9.71701e-08
-4.98258e-08
8.05007e-09
1.00824e-07
-5.14779e-08
2.51123e-09
1.0268e-07
-5.23399e-08
-3.00583e-09
1.02732e-07
-5.24061e-08
-8.33526e-09
1.00978e-07
-5.16762e-08
-1.33169e-08
9.74303e-08
-5.01559e-08
-1.77325e-08
9.19283e-08
-4.78356e-08
-2.13897e-08
8.45847e-08
-4.47511e-08
-2.37361e-08
7.48267e-08
-4.09525e-08
-2.44507e-08
6.3586e-08
-3.66364e-08
-2.27958e-08
5.06702e-08
-3.21222e-08
-1.97655e-08
4.03784e-08
-2.80392e-08
-1.58366e-08
3.23704e-08
-2.46177e-08
-1.14902e-08
2.71086e-08
-2.19972e-08
-6.84944e-09
2.38925e-08
-2.0112e-08
-2.0209e-09
2.23789e-08
-1.87192e-08
2.53024e-09
2.21089e-08
-1.72132e-08
4.82791e-09
2.21111e-08
-1.39722e-08
2.04159e-08
-5.34324e-09
-4.08552e-09
2.00953e-08
-3.01148e-09
-1.50005e-09
2.20081e-08
-1.05269e-08
3.2038e-09
2.26175e-08
-1.33457e-08
8.21309e-09
2.36431e-08
-1.4579e-08
1.31054e-08
2.57216e-08
-1.56642e-08
1.79366e-08
2.90778e-08
-1.71371e-08
2.29083e-08
3.39741e-08
-1.92528e-08
2.81335e-08
4.09509e-08
-2.21562e-08
3.34362e-08
5.07229e-08
-2.59125e-08
3.79122e-08
6.48196e-08
-3.05719e-08
4.039e-08
8.29694e-08
-3.59535e-08
3.87424e-08
1.06241e-07
-4.18863e-08
3.47523e-08
1.25635e-07
-4.74704e-08
2.9192e-08
1.42022e-07
-5.23751e-08
2.30195e-08
1.54101e-07
-5.63696e-08
1.63954e-08
1.63183e-07
-5.93893e-08
9.52559e-09
1.69096e-07
-6.14029e-08
2.53486e-09
1.72119e-07
-6.24479e-08
-4.43347e-09
1.72222e-07
-6.25216e-08
-1.12353e-08
1.69403e-07
-6.16234e-08
-1.77447e-08
1.63695e-07
-5.97553e-08
-2.37504e-08
1.54815e-07
-5.6881e-08
-2.90895e-08
1.42958e-07
-5.30344e-08
-3.27931e-08
1.26819e-07
-4.82889e-08
-3.40927e-08
1.07776e-07
-4.28908e-08
-3.11794e-08
8.4948e-08
-3.7191e-08
-2.62032e-08
6.75187e-08
-3.21166e-08
-2.02248e-08
5.42404e-08
-2.78484e-08
-1.40766e-08
4.55295e-08
-2.45691e-08
-7.90762e-09
3.98974e-08
-2.21739e-08
-1.80596e-09
3.66589e-08
-2.03817e-08
3.6906e-09
3.51275e-08
-1.85152e-08
6.26311e-09
3.42507e-08
-1.47122e-08
3.14512e-08
-4.77212e-09
-4.62053e-09
2.70589e-08
-2.34308e-09
-1.56032e-09
2.96173e-08
-1.06694e-08
4.03992e-09
3.08276e-08
-1.38103e-08
1.0125e-08
3.27559e-08
-1.51979e-08
1.62346e-08
3.60732e-08
-1.64613e-08
2.25203e-08
4.10058e-08
-1.82137e-08
2.93807e-08
4.78677e-08
-2.0754e-08
3.71762e-08
5.74188e-08
-2.42634e-08
4.5794e-08
7.0896e-08
-2.87909e-08
5.37875e-08
9.12467e-08
-3.44207e-08
5.86537e-08
1.18972e-07
-4.08683e-08
5.55113e-08
1.57667e-07
-4.82835e-08
4.86764e-08
1.87636e-07
-5.5166e-08
3.99522e-08
2.12023e-07
-6.12763e-08
3.09556e-08
2.29363e-07
-6.62661e-08
2.16505e-08
2.42455e-07
-6.9967e-08
1.21819e-08
2.50958e-07
-7.23929e-08
2.61518e-09
2.55328e-07
-7.36421e-08
-6.92963e-09
2.55488e-07
-7.37215e-08
-1.63306e-08
2.51434e-07
-7.26298e-08
-2.55184e-08
2.43241e-07
-7.03581e-08
-3.43349e-08
2.30441e-07
-6.68093e-08
-4.28055e-08
2.13399e-07
-6.19707e-08
-4.92861e-08
1.89322e-07
-5.60217e-08
-5.19753e-08
1.59796e-07
-4.933e-08
-4.65113e-08
1.21641e-07
-4.21568e-08
-3.78808e-08
9.4931e-08
-3.60428e-08
-2.83919e-08
7.55876e-08
-3.08361e-08
-1.94031e-08
6.33668e-08
-2.68261e-08
-1.10108e-08
5.53753e-08
-2.38703e-08
-3.13498e-09
5.04689e-08
-2.16858e-08
3.72591e-09
4.77737e-08
-1.95071e-08
7.0043e-09
4.61758e-08
-1.52034e-08
4.25198e-08
-4.06435e-09
-4.80177e-09
3.35659e-08
-1.70526e-09
-8.84882e-10
3.66353e-08
-1.09349e-08
5.96807e-09
3.84258e-08
-1.44511e-08
1.34898e-08
4.12538e-08
-1.60196e-08
2.11934e-08
4.58757e-08
-1.75061e-08
2.93855e-08
5.24354e-08
-1.96217e-08
3.87819e-08
6.11743e-08
-2.2703e-08
5.0273e-08
7.28831e-08
-2.69553e-08
6.41174e-08
8.93774e-08
-3.23258e-08
7.85052e-08
1.15761e-07
-3.89022e-08
8.83814e-08
1.55062e-07
-4.59662e-08
8.20625e-08
2.1898e-07
-5.49945e-08
7.00553e-08
2.62973e-07
-6.33301e-08
5.62155e-08
2.96963e-07
-7.11007e-08
4.29746e-08
3.20151e-07
-7.75472e-08
2.96611e-08
3.37883e-07
-8.21145e-08
1.62583e-08
3.49389e-07
-8.50287e-08
2.7584e-09
3.55342e-07
-8.65144e-08
-1.07228e-08
3.5557e-07
-8.66008e-08
-2.40667e-08
3.50064e-07
-8.52859e-08
-3.72743e-08
3.38985e-07
-8.2537e-08
-5.03385e-08
3.21636e-07
-7.81307e-08
-6.39058e-08
2.98806e-07
-7.18393e-08
-7.54866e-08
2.65135e-07
-6.42332e-08
-8.12174e-08
2.21624e-07
-5.60974e-08
-7.05052e-08
1.58244e-07
-4.73154e-08
-5.53753e-08
1.20421e-07
-4.06198e-08
-4.04754e-08
9.51953e-08
-3.45076e-08
-2.74975e-08
8.0105e-08
-2.97161e-08
-1.61724e-08
7.01442e-08
-2.60939e-08
-5.95532e-09
6.36891e-08
-2.34373e-08
2.80547e-09
5.98868e-08
-2.08739e-08
7.3143e-09
5.76235e-08
-1.59566e-08
5.32493e-08
-3.4152e-09
-4.74905e-09
3.93982e-08
-1.0832e-09
3.91343e-10
4.29124e-08
-1.14175e-08
8.9752e-09
4.52802e-08
-1.54383e-08
1.83591e-08
4.91134e-08
-1.72435e-08
2.80279e-08
5.52246e-08
-1.90177e-08
3.84589e-08
6.35882e-08
-2.15838e-08
5.07846e-08
7.41491e-08
-2.53005e-08
6.68778e-08
8.71611e-08
-3.03713e-08
8.81495e-08
1.0462e-07
-3.65139e-08
1.13284e-07
1.34253e-07
-4.36261e-08
1.34217e-07
1.84055e-07
-4.99269e-08
1.20883e-07
2.92516e-07
-6.0201e-08
9.97823e-08
3.53682e-07
-6.96087e-08
7.83717e-08
3.98021e-07
-7.96472e-08
5.94336e-08
4.27373e-07
-8.8283e-08
4.07243e-08
4.50348e-07
-9.37556e-08
2.19257e-08
4.65347e-07
-9.71588e-08
2.97618e-09
4.73168e-07
-9.88767e-08
-1.59625e-08
4.7348e-07
-9.89717e-08
-3.47259e-08
4.66268e-07
-9.74408e-08
-5.33675e-08
4.51844e-07
-9.42165e-08
-7.21708e-08
4.29356e-07
-8.89173e-08
-9.33319e-08
4.0041e-07
-8.04425e-08
-1.13947e-07
3.56329e-07
-7.05781e-08
-1.26527e-07
2.95598e-07
-6.13944e-08
-1.0436e-07
1.87444e-07
-5.13674e-08
-7.84793e-08
1.40025e-07
-4.54843e-08
-5.6003e-08
1.11597e-07
-3.88775e-08
-3.80787e-08
9.55782e-08
-3.33975e-08
-2.3302e-08
8.44273e-08
-2.90598e-08
-1.02183e-08
7.64663e-08
-2.58609e-08
1.01347e-09
7.14674e-08
-2.28124e-08
7.36102e-09
6.837e-08
-1.7094e-08
6.33935e-08
-2.78317e-09
-4.48319e-09
4.43319e-08
-4.50505e-10
2.34669e-09
4.82142e-08
-1.21316e-08
1.32475e-08
5.11978e-08
-1.68184e-08
2.50582e-08
5.62309e-08
-1.89281e-08
3.71428e-08
6.42033e-08
-2.10633e-08
4.99894e-08
7.4914e-08
-2.41724e-08
6.49416e-08
8.78214e-08
-2.86245e-08
8.50693e-08
1.01661e-07
-3.46271e-08
1.14136e-07
1.16962e-07
-4.1409e-08
1.56753e-07
1.40632e-07
-4.89954e-08
2.02579e-07
1.87582e-07
-4.93526e-08
1.74574e-07
3.78722e-07
-5.82019e-08
1.3956e-07
4.57136e-07
-6.84391e-08
1.08311e-07
5.117e-07
-8.24306e-08
8.23152e-08
5.47982e-07
-9.46137e-08
5.63925e-08
5.77202e-07
-1.00931e-07
3.00097e-08
5.96497e-07
-1.04767e-07
3.29358e-09
6.06574e-07
-1.0669e-07
-2.34252e-08
6.06993e-07
-1.06793e-07
-4.98163e-08
5.97734e-07
-1.05074e-07
-7.57523e-08
5.79212e-07
-1.01432e-07
-1.01729e-07
5.50638e-07
-9.5305e-08
-1.32865e-07
5.14838e-07
-8.32935e-08
-1.67443e-07
4.60405e-07
-6.94979e-08
-1.94468e-07
3.82185e-07
-5.95621e-08
-1.46683e-07
1.90565e-07
-5.09054e-08
-1.03588e-07
1.47901e-07
-5.09722e-08
-7.31801e-08
1.25144e-07
-4.39545e-08
-5.0775e-08
1.11136e-07
-3.79633e-08
-3.26618e-08
9.91538e-08
-3.28397e-08
-1.62501e-08
8.90901e-08
-2.90354e-08
-1.67814e-09
8.23107e-08
-2.54153e-08
7.12249e-09
7.81668e-08
-1.85974e-08
7.25749e-08
-2.05886e-09
-4.02285e-09
4.81556e-08
1.99158e-10
5.05043e-09
5.22419e-08
-1.3101e-08
1.89238e-08
5.59231e-08
-1.85988e-08
3.38563e-08
6.23889e-08
-2.10905e-08
4.89446e-08
7.27646e-08
-2.36496e-08
6.43399e-08
8.68712e-08
-2.73526e-08
8.09415e-08
1.03811e-07
-3.25913e-08
1.02325e-07
1.19838e-07
-3.95611e-08
1.35318e-07
1.3157e-07
-4.76018e-08
2.03539e-07
1.26759e-07
-5.43485e-08
3.00323e-07
1.45887e-07
-5.50884e-08
2.41734e-07
4.86371e-07
-4.9061e-08
1.86405e-07
5.6875e-07
-5.62847e-08
1.44693e-07
6.29178e-07
-7.57666e-08
1.1094e-07
6.74264e-07
-9.25279e-08
7.63256e-08
7.10806e-07
-9.8989e-08
4.03931e-08
7.35878e-07
-1.03449e-07
3.74394e-09
7.48868e-07
-1.05644e-07
-3.29263e-08
7.49413e-07
-1.0575e-07
-6.89294e-08
7.37498e-07
-1.03762e-07
-1.03684e-07
7.1346e-07
-9.94938e-08
-1.37637e-07
6.77819e-07
-9.32274e-08
-1.79564e-07
6.33395e-07
-7.66291e-08
-2.34762e-07
5.72972e-07
-5.73694e-08
-2.9195e-07
4.8991e-07
-5.05366e-08
-1.9199e-07
1.4772e-07
-5.71151e-08
-1.24498e-07
1.3699e-07
-5.65809e-08
-8.98284e-08
1.40837e-07
-5.03631e-08
-6.55458e-08
1.30145e-07
-4.32915e-08
-4.48189e-08
1.15821e-07
-3.73944e-08
-2.46004e-08
1.01858e-07
-3.29866e-08
-5.72572e-09
9.21792e-08
-2.87432e-08
6.52461e-09
8.64529e-08
-2.05364e-08
8.03076e-08
-1.20818e-09
-3.24274e-09
5.02712e-08
1.12716e-09
8.8342e-09
5.45098e-08
-1.43449e-08
2.67425e-08
5.88218e-08
-2.0807e-08
4.62309e-08
6.66801e-08
-2.37796e-08
6.61737e-08
7.96978e-08
-2.6876e-08
8.59502e-08
9.84007e-08
-3.1306e-08
1.04748e-07
1.2248e-07
-3.74667e-08
1.22453e-07
1.48539e-07
-4.64055e-08
1.37644e-07
1.72224e-07
-5.58446e-08
1.90647e-07
1.4579e-07
-7.20347e-08
4.20363e-07
-8.38283e-08
3.298e-07
5.95613e-07
-1.86788e-08
2.52726e-07
6.60573e-07
-1.47496e-08
2.00994e-07
7.14501e-07
-3.35908e-08
1.57284e-07
7.7019e-07
-5.22159e-08
1.08557e-07
8.13951e-07
-5.44184e-08
5.69008e-08
8.44755e-07
-5.72203e-08
4.38543e-09
8.60235e-07
-5.88524e-08
-4.81616e-08
8.60888e-07
-5.89284e-08
-9.99344e-08
8.46719e-07
-5.7448e-08
-1.4893e-07
8.17225e-07
-5.47689e-08
-1.93118e-07
7.74749e-07
-5.27429e-08
-2.45666e-07
7.20186e-07
-3.42429e-08
-3.24056e-07
6.66947e-07
-1.55859e-08
-4.14244e-07
6.00252e-07
-2.01536e-08
-1.79676e-07
-8.68485e-08
-1.25396e-07
1.56346e-07
-7.36351e-08
-1.09554e-07
1.83363e-07
-5.83689e-08
-8.84157e-08
1.5949e-07
-5.04828e-08
-6.43285e-08
1.34744e-07
-4.30097e-08
-3.81396e-08
1.13647e-07
-3.79776e-08
-1.2673e-08
9.97284e-08
-3.30158e-08
4.83752e-09
9.20263e-08
-2.3084e-08
8.54379e-08
-2.92762e-10
-2.22597e-09
5.05172e-08
1.97996e-09
1.33553e-08
5.47408e-08
-1.58122e-08
3.61032e-08
5.94772e-08
-2.34033e-08
6.14265e-08
6.83249e-08
-2.69681e-08
8.82891e-08
8.35438e-08
-3.07086e-08
1.15265e-07
1.07136e-07
-3.57104e-08
1.37245e-07
1.42547e-07
-4.20479e-08
1.40001e-07
1.9424e-07
-4.8457e-08
1.08844e-07
2.69091e-07
-6.57103e-08
3.64717e-07
-1.10083e-07
1.90956e-07
3.24537e-07
8.01203e-08
2.56914e-07
5.50215e-07
4.43995e-08
2.53542e-07
6.81086e-07
3.67873e-08
2.07619e-07
7.77803e-07
3.83094e-08
1.44205e-07
8.42541e-07
3.48235e-08
7.5547e-08
8.83242e-07
3.01717e-08
5.21701e-09
9.0271e-07
2.78555e-08
-6.5151e-08
9.03397e-07
2.78596e-08
-1.33946e-07
8.85336e-07
3.01781e-08
-1.97697e-07
8.46135e-07
3.48411e-08
-2.44413e-07
7.83106e-07
3.836e-08
-2.49629e-07
6.88457e-07
3.69455e-08
-1.86825e-07
5.59871e-07
4.4272e-08
3.34691e-07
7.87362e-08
-1.05391e-07
3.68919e-07
-1.07181e-07
-1.3106e-07
2.76821e-07
-6.77893e-08
-1.21912e-07
2.03488e-07
-5.31463e-08
-9.23919e-08
1.53904e-07
-4.86807e-08
-5.68004e-08
1.2189e-07
-4.38348e-08
-2.21811e-08
1.03446e-07
-3.83369e-08
2.24964e-09
9.39895e-08
-2.63939e-08
8.6932e-08
7.55591e-10
-6.11259e-10
4.8348e-08
2.78045e-09
1.90094e-08
5.25332e-08
-1.74131e-08
4.79573e-08
5.68106e-08
-2.62812e-08
8.20807e-08
6.48269e-08
-3.06255e-08
1.22664e-07
7.83883e-08
-3.54274e-08
1.73096e-07
9.86633e-08
-4.19606e-08
2.38943e-07
1.26855e-07
-5.01546e-08
3.27139e-07
1.62973e-07
-5.6928e-08
4.50936e-07
2.04925e-07
-5.96314e-08
6.06765e-07
2.5142e-07
-4.25319e-08
4.74275e-07
8.51952e-08
4.72944e-08
4.83623e-07
2.32119e-07
8.30699e-08
4.63907e-07
4.15212e-07
1.5472e-07
3.95804e-07
5.34299e-07
2.14889e-07
3.01633e-07
6.23424e-07
2.48551e-07
2.00855e-07
6.826e-07
2.60719e-07
1.02363e-07
7.1952e-07
2.62214e-07
6.06431e-09
7.37247e-07
2.61762e-07
-9.02127e-08
7.3785e-07
2.61823e-07
-1.88632e-07
7.21352e-07
2.62403e-07
-2.89294e-07
6.85721e-07
2.61076e-07
-3.83342e-07
6.27924e-07
2.4923e-07
-4.51369e-07
5.40251e-07
2.16233e-07
-4.70674e-07
4.22266e-07
1.56909e-07
-4.63208e-07
2.40379e-07
8.68459e-08
-6.01251e-07
8.71043e-08
5.09391e-08
-4.45314e-07
2.54828e-07
-4.18461e-08
-3.17557e-07
2.11267e-07
-6.22039e-08
-2.23128e-07
1.71287e-07
-6.22268e-08
-1.48704e-07
1.37538e-07
-5.8058e-08
-8.77913e-08
1.12823e-07
-5.18448e-08
-3.69789e-08
9.76154e-08
-4.49817e-08
-2.13781e-09
8.96936e-08
-3.05452e-08
8.29287e-08
1.86544e-09
3.99558e-10
4.43263e-08
3.62209e-09
2.36562e-08
4.82194e-08
-1.89428e-08
5.77391e-08
5.17408e-08
-2.9013e-08
9.842e-08
5.8242e-08
-3.40961e-08
1.47722e-07
6.89448e-08
-3.98585e-08
2.0996e-07
8.41776e-08
-4.77528e-08
2.90713e-07
1.03575e-07
-5.74726e-08
3.93891e-07
1.25614e-07
-6.58189e-08
5.21598e-07
1.45377e-07
-6.81583e-08
6.66117e-07
1.60418e-07
-5.35169e-08
6.65413e-07
1.05619e-07
-1.97196e-08
6.56528e-07
1.92941e-07
4.80629e-08
5.98402e-07
3.04244e-07
1.69094e-07
4.93647e-07
3.88295e-07
2.50759e-07
3.69982e-07
4.53008e-07
2.94081e-07
2.44082e-07
4.9564e-07
3.1286e-07
1.23367e-07
5.22459e-07
3.17775e-07
6.72972e-09
5.35345e-07
3.18539e-07
-1.09865e-07
5.35839e-07
3.18606e-07
-2.30448e-07
5.2395e-07
3.17984e-07
-3.56139e-07
4.98141e-07
3.13271e-07
-4.79606e-07
4.56517e-07
2.94873e-07
-5.84479e-07
3.9277e-07
2.52354e-07
-6.43385e-07
3.094e-07
1.71772e-07
-6.5395e-07
1.98393e-07
5.25507e-08
-6.58656e-07
1.08588e-07
-1.67778e-08
-5.15235e-07
1.64714e-07
-5.33076e-08
-3.84121e-07
1.51269e-07
-7.1116e-08
-2.74281e-07
1.33276e-07
-7.18291e-08
-1.83759e-07
1.13539e-07
-6.65234e-08
-1.09207e-07
9.74555e-08
-5.91844e-08
-4.74113e-08
8.68716e-08
-5.10521e-08
-4.52631e-09
8.11376e-08
-3.43289e-08
7.52836e-08
3.11883e-09
1.05937e-09
3.87789e-08
4.48808e-09
2.74718e-08
4.2107e-08
-2.03001e-08
6.58189e-08
4.47762e-08
-3.13824e-08
1.11608e-07
4.95544e-08
-3.71019e-08
1.67046e-07
5.72328e-08
-4.37254e-08
2.36496e-07
6.77244e-08
-5.29969e-08
3.2462e-07
8.02211e-08
-6.47699e-08
4.3328e-07
9.3501e-08
-7.65476e-08
5.58358e-07
1.03894e-07
-8.35949e-08
6.83182e-07
1.12894e-07
-7.7301e-08
7.35922e-07
1.02797e-07
-4.99181e-08
7.48512e-07
1.52954e-07
2.73977e-08
6.79972e-07
2.18786e-07
1.53998e-07
5.5862e-07
2.73021e-07
2.36627e-07
4.15292e-07
3.15665e-07
2.8067e-07
2.7248e-07
3.43822e-07
2.9463e-07
1.37204e-07
3.61823e-07
2.95912e-07
7.24918e-09
3.70539e-07
2.9476e-07
-1.22656e-07
3.70954e-07
2.94791e-07
-2.5778e-07
3.6306e-07
2.96014e-07
-4.00368e-07
3.45863e-07
2.94865e-07
-5.43538e-07
3.18463e-07
2.81224e-07
-6.65226e-07
2.76505e-07
2.37953e-07
-7.34983e-07
2.22738e-07
1.5642e-07
-7.25437e-07
1.57179e-07
3.16685e-08
-6.75831e-07
1.06267e-07
-4.72849e-08
-5.51277e-07
1.17227e-07
-7.70668e-08
-4.22716e-07
1.09384e-07
-8.66763e-08
-3.06968e-07
1.00513e-07
-8.29847e-08
-2.08099e-07
8.93007e-08
-7.46305e-08
-1.24814e-07
7.97352e-08
-6.55651e-08
-5.50543e-08
7.32092e-08
-5.60972e-08
-6.12179e-09
6.95508e-08
-3.73457e-08
6.47459e-08
4.41594e-09
1.41913e-09
3.21429e-08
5.21681e-09
3.00678e-08
3.48317e-08
-2.13734e-08
7.13956e-08
3.67328e-08
-3.32843e-08
1.20431e-07
4.00263e-08
-3.9507e-08
1.79225e-07
4.52342e-08
-4.67953e-08
2.51922e-07
5.21585e-08
-5.71312e-08
3.42535e-07
6.00854e-08
-7.04776e-08
4.52267e-07
6.83631e-08
-8.45937e-08
5.75406e-07
7.5105e-08
-9.43505e-08
6.96324e-07
8.3054e-08
-9.10777e-08
7.75698e-07
8.75536e-08
-6.41302e-08
8.00498e-07
1.18658e-07
9.4951e-09
7.26802e-07
1.59026e-07
1.33457e-07
5.9661e-07
1.93464e-07
2.09748e-07
4.42705e-07
2.20932e-07
2.48638e-07
2.90206e-07
2.39491e-07
2.56831e-07
1.46036e-07
2.51541e-07
2.54452e-07
7.66305e-09
2.57472e-07
2.5144e-07
-1.30669e-07
2.57851e-07
2.51435e-07
-2.74714e-07
2.52665e-07
2.54441e-07
-4.27042e-07
2.41318e-07
2.56874e-07
-5.80884e-07
2.2339e-07
2.48915e-07
-7.11581e-07
1.96464e-07
2.10738e-07
-7.86786e-07
1.62404e-07
1.35539e-07
-7.65468e-07
1.2235e-07
1.35116e-08
-6.88646e-07
9.11171e-08
-6.16726e-08
-5.67651e-07
8.72277e-08
-9.09957e-08
-4.40775e-07
8.01247e-08
-9.76167e-08
-3.23486e-07
7.46053e-08
-9.13812e-08
-2.21297e-07
6.80329e-08
-8.09211e-08
-1.3357e-07
6.24945e-08
-7.04865e-08
-5.91391e-08
5.87053e-08
-5.99268e-08
-6.54097e-09
5.65086e-08
-3.95559e-08
5.273e-08
5.47492e-09
1.5908e-09
2.47725e-08
5.7796e-09
3.18064e-08
2.67977e-08
-2.21817e-08
7.52066e-08
2.80589e-08
-3.47263e-08
1.26372e-07
3.01814e-08
-4.13201e-08
1.87162e-07
3.35317e-08
-4.90876e-08
2.61538e-07
3.79695e-08
-6.01872e-08
3.53212e-07
4.30674e-08
-7.46564e-08
4.63306e-07
4.86174e-08
-9.03485e-08
5.86382e-07
5.38761e-08
-1.01847e-07
7.08761e-07
6.1033e-08
-1.00358e-07
8.00854e-07
6.88576e-08
-7.3397e-08
8.32122e-07
8.91101e-08
-1.72012e-09
7.56377e-07
1.14277e-07
1.20493e-07
6.21066e-07
1.36353e-07
1.92423e-07
4.60532e-07
1.54159e-07
2.27307e-07
3.01835e-07
1.66534e-07
2.31654e-07
1.51905e-07
1.74694e-07
2.26776e-07
8.03883e-09
1.78816e-07
2.22522e-07
-1.35801e-07
1.79195e-07
2.22496e-07
-2.8565e-07
1.7581e-07
2.26704e-07
-4.44249e-07
1.68329e-07
2.31588e-07
-6.04824e-07
1.56539e-07
2.27426e-07
-7.40782e-07
1.39204e-07
1.93218e-07
-8.18209e-07
1.17451e-07
1.22379e-07
-7.90613e-07
9.25164e-08
2.23685e-09
-7.00746e-07
7.2315e-08
-7.10648e-08
-5.78021e-07
6.48854e-08
-1.00383e-07
-4.50922e-07
5.82971e-08
-1.05271e-07
-3.32836e-07
5.39184e-08
-9.7399e-08
-2.28922e-07
4.9626e-08
-8.55069e-08
-1.38637e-07
4.62792e-08
-7.40702e-08
-6.13267e-08
4.40895e-08
-6.26942e-08
-6.48888e-09
4.27953e-08
-4.11246e-08
3.99762e-08
6.26487e-09
1.62573e-09
1.69931e-08
6.15369e-09
3.28428e-08
1.83464e-08
-2.27659e-08
7.75725e-08
1.90854e-08
-3.57562e-08
1.30052e-07
2.02998e-08
-4.25983e-08
1.92004e-07
2.22517e-08
-5.0672e-08
2.67313e-07
2.49077e-08
-6.22467e-08
3.59657e-07
2.81185e-08
-7.73948e-08
4.70339e-07
3.19156e-08
-9.39807e-08
5.94486e-07
3.61449e-08
-1.06416e-07
7.19207e-07
4.20501e-08
-1.05738e-07
8.17658e-07
4.93284e-08
-7.8922e-08
8.52483e-07
6.21019e-08
-7.81691e-09
7.75469e-07
7.71647e-08
1.14126e-07
6.36935e-07
9.06237e-08
1.84264e-07
4.72303e-07
1.01571e-07
2.1722e-07
3.09662e-07
1.09453e-07
2.19722e-07
1.55951e-07
1.14749e-07
2.13656e-07
8.40928e-09
1.17542e-07
2.08817e-07
-1.39127e-07
1.17946e-07
2.08785e-07
-2.92816e-07
1.15936e-07
2.13563e-07
-4.55453e-07
1.11346e-07
2.19619e-07
-6.20248e-07
1.04052e-07
2.17283e-07
-7.59563e-07
9.35363e-08
1.84982e-07
-8.38391e-07
8.03407e-08
1.15939e-07
-8.07286e-07
6.54142e-08
-4.00287e-09
-7.10918e-07
5.26241e-08
-7.66767e-08
-5.85659e-07
4.55088e-08
-1.05883e-07
-4.57247e-07
3.98879e-08
-1.10003e-07
-3.38232e-07
3.61618e-08
-1.01259e-07
-2.33168e-07
3.31194e-08
-8.85569e-08
-1.41354e-07
3.09715e-08
-7.65069e-08
-6.23324e-08
2.96697e-08
-6.46015e-08
-6.21987e-09
2.89051e-08
-4.22223e-08
2.70124e-08
6.74398e-09
1.60939e-09
9.03785e-09
6.34587e-09
3.3401e-08
9.71495e-09
-2.31601e-08
7.89151e-08
9.99315e-09
-3.64218e-08
1.32187e-07
1.04351e-08
-4.34071e-08
1.94876e-07
1.12125e-08
-5.16495e-08
2.70856e-07
1.24065e-08
-6.34792e-08
3.63851e-07
1.41084e-08
-7.89853e-08
4.75304e-07
1.64866e-08
-9.60236e-08
6.00654e-07
1.97084e-08
-1.08914e-07
7.27213e-07
2.40676e-08
-1.08576e-07
8.28776e-07
2.95506e-08
-8.17852e-08
8.65281e-07
3.62626e-08
-1.06663e-08
7.87468e-07
4.31513e-08
1.11827e-07
6.46973e-07
4.94359e-08
1.81683e-07
4.79877e-07
5.45818e-08
2.14085e-07
3.14792e-07
5.85603e-08
2.15978e-07
1.58695e-07
6.13466e-08
2.09499e-07
8.80296e-09
6.29767e-08
2.04457e-07
-1.41108e-07
6.34301e-08
2.04427e-07
-2.97259e-07
6.26774e-08
2.0941e-07
-4.6246e-07
6.0669e-08
2.15878e-07
-6.29872e-07
5.7318e-08
2.14146e-07
-7.7131e-07
5.25851e-08
1.82389e-07
-8.51072e-07
4.6491e-08
1.13612e-07
-8.18369e-07
3.95694e-08
-6.85848e-09
-7.18806e-07
3.26927e-08
-7.96309e-08
-5.91585e-07
2.7132e-08
-1.08845e-07
-4.61796e-07
2.27621e-08
-1.12663e-07
-3.41782e-07
1.96525e-08
-1.03505e-07
-2.35765e-07
1.75015e-08
-9.03986e-08
-1.42921e-07
1.61508e-08
-7.80239e-08
-6.28504e-08
1.54232e-08
-6.58239e-08
-6.00566e-09
1.50229e-08
-4.29625e-08
1.40444e-08
6.96232e-09
1.57107e-09
1.10944e-09
6.35735e-09
3.35656e-08
1.10511e-09
-2.33847e-08
7.93926e-08
9.19344e-10
-3.67532e-08
1.33029e-07
5.84541e-10
-4.37862e-08
1.96145e-07
1.7315e-10
-5.20766e-08
2.72646e-07
-1.20852e-10
-6.3973e-08
3.66312e-07
7.9746e-12
-7.9566e-08
4.78602e-07
9.11352e-10
-9.67145e-08
6.04946e-07
3.07321e-09
-1.09709e-07
7.32519e-07
5.93734e-09
-1.09443e-07
8.34913e-07
9.83522e-09
-8.26781e-08
8.71611e-07
1.10216e-08
-1.14575e-08
7.93299e-07
9.96261e-09
1.11501e-07
6.51893e-07
9.15556e-09
1.81687e-07
4.83731e-07
8.50088e-09
2.14242e-07
3.17525e-07
8.57415e-09
2.16192e-07
1.60292e-07
8.85716e-09
2.09723e-07
9.24243e-09
9.34573e-09
2.0468e-07
-1.41858e-07
9.87848e-09
2.04652e-07
-2.9924e-07
1.04218e-08
2.09638e-07
-4.65714e-07
1.10453e-08
2.16097e-07
-6.34391e-07
1.16911e-08
2.14304e-07
-7.76954e-07
1.27698e-08
1.82379e-07
-8.57407e-07
1.36975e-08
1.13246e-07
-8.24604e-07
1.45145e-08
-7.74795e-09
-7.24186e-07
1.29215e-08
-8.06468e-08
-5.95886e-07
8.69693e-09
-1.09865e-07
-4.65014e-07
5.5271e-09
-1.13637e-07
-3.44058e-07
3.09357e-09
-1.04397e-07
-2.37252e-07
1.89621e-09
-9.12014e-08
-1.4374e-07
1.38538e-09
-7.8746e-08
-6.31157e-08
1.25616e-09
-6.64575e-08
-5.92278e-09
1.23531e-09
-4.34053e-08
1.18312e-09
6.93849e-09
1.50923e-09
-6.58714e-09
6.18735e-09
3.33341e-08
-7.27641e-09
-2.34434e-08
7.90003e-08
-7.99085e-09
-3.6756e-08
1.32573e-07
-9.24401e-09
-4.37443e-08
1.95794e-07
-1.1078e-08
-5.19695e-08
2.72656e-07
-1.3226e-08
-6.37569e-08
3.66961e-07
-1.51061e-08
-7.91913e-08
4.80152e-07
-1.61808e-08
-9.60987e-08
6.07348e-07
-1.52699e-08
-1.08852e-07
7.35249e-07
-1.35562e-08
-1.08408e-07
8.36319e-07
-9.52121e-09
-8.17139e-08
8.71615e-07
-1.38453e-08
-1.0429e-08
7.92998e-07
-2.42263e-08
1.12806e-07
6.51688e-07
-3.33474e-08
1.83813e-07
4.83859e-07
-4.08141e-08
2.17144e-07
3.17866e-07
-4.5197e-08
2.19764e-07
1.60755e-07
-4.772e-08
2.13688e-07
9.75032e-09
-4.84811e-08
2.08832e-07
-1.41344e-07
-4.78291e-08
2.08802e-07
-2.98719e-07
-4.58e-08
2.13597e-07
-4.65165e-07
-4.21587e-08
2.1965e-07
-6.33766e-07
-3.68753e-08
2.17167e-07
-7.76515e-07
-2.89107e-08
1.8443e-07
-8.57547e-07
-1.97089e-08
1.14438e-07
-8.2629e-07
-9.85441e-09
-6.88773e-09
-7.27201e-07
-6.29492e-09
-7.98721e-08
-5.98558e-07
-1.09036e-08
-1.09043e-07
-4.66834e-07
-1.31999e-08
-1.12997e-07
-3.44998e-07
-1.47553e-08
-1.03987e-07
-2.37587e-07
-1.45108e-08
-9.10039e-08
-1.43789e-07
-1.37123e-08
-7.87001e-08
-6.3113e-08
-1.28982e-08
-6.65215e-08
-5.96084e-09
-1.23533e-08
-4.35636e-08
-1.14463e-08
6.66857e-09
1.39237e-09
-1.38097e-08
5.83021e-09
3.26204e-08
-1.51803e-08
-2.33242e-08
7.75732e-08
-1.6531e-08
-3.64126e-08
1.30531e-07
-1.89453e-08
-4.32568e-08
1.93383e-07
-2.26433e-08
-5.12863e-08
2.70263e-07
-2.73498e-08
-6.27562e-08
3.65136e-07
-3.22543e-08
-7.77249e-08
4.79401e-07
-3.64374e-08
-9.40087e-08
6.07719e-07
-3.74895e-08
-1.06098e-07
7.35872e-07
-3.66386e-08
-1.05071e-07
8.32862e-07
-2.81238e-08
-7.83876e-08
8.64441e-07
-3.87238e-08
-6.70083e-09
7.85672e-07
-6.25448e-08
1.17088e-07
6.45638e-07
-8.333e-08
1.90016e-07
4.79798e-07
-1.00217e-07
2.25242e-07
3.15555e-07
-1.10569e-07
2.29615e-07
1.59992e-07
-1.16764e-07
2.24607e-07
1.03751e-08
-1.19114e-07
2.2025e-07
-1.39376e-07
-1.18272e-07
2.20194e-07
-2.9534e-07
-1.14269e-07
2.24434e-07
-4.60267e-07
-1.06591e-07
2.29359e-07
-6.27213e-07
-9.49894e-08
2.25061e-07
-7.69074e-07
-7.74164e-08
1.90366e-07
-8.50667e-07
-5.65233e-08
1.18408e-07
-8.23321e-07
-3.36167e-08
-3.58312e-09
-7.28289e-07
-2.44621e-08
-7.68656e-08
-5.99405e-07
-3.37463e-08
-1.06041e-07
-4.66639e-07
-3.54158e-08
-1.1055e-07
-3.43888e-07
-3.53532e-08
-1.02153e-07
-2.36155e-07
-3.25185e-08
-8.97258e-08
-1.42631e-07
-2.94133e-08
-7.78227e-08
-6.25919e-08
-2.69748e-08
-6.59626e-08
-6.03007e-09
-2.55102e-08
-4.34049e-08
-2.36007e-08
6.12434e-09
1.14009e-09
-2.02259e-08
5.27611e-09
3.12105e-08
-2.22481e-08
-2.30026e-08
7.47037e-08
-2.43338e-08
-3.56904e-08
1.26202e-07
-2.81652e-08
-4.22785e-08
1.87771e-07
-3.42575e-08
-4.9955e-08
2.63784e-07
-4.25187e-08
-6.0844e-08
3.58639e-07
-5.21644e-08
-7.49451e-08
4.74099e-07
-6.19138e-08
-8.99829e-08
6.04896e-07
-6.75974e-08
-1.00689e-07
7.35084e-07
-6.86231e-08
-9.82034e-08
8.23026e-07
-4.429e-08
-7.17763e-08
8.46998e-07
-6.31645e-08
4.68638e-10
7.67924e-07
-1.09401e-07
1.25931e-07
6.30906e-07
-1.48821e-07
2.02508e-07
4.69681e-07
-1.80162e-07
2.41171e-07
3.09547e-07
-1.99408e-07
2.48972e-07
1.57564e-07
-2.10906e-07
2.46126e-07
1.11705e-08
-2.15519e-07
2.42799e-07
-1.35402e-07
-2.14376e-07
2.42676e-07
-2.87936e-07
-2.07485e-07
2.4575e-07
-4.49015e-07
-1.93882e-07
2.48369e-07
-6.11772e-07
-1.72737e-07
2.40505e-07
-7.5114e-07
-1.40308e-07
2.02261e-07
-8.33635e-07
-1.00617e-07
1.26588e-07
-8.14326e-07
-5.62216e-08
3.29564e-09
-7.28079e-07
-3.9928e-08
-7.07811e-08
-5.97185e-07
-6.49357e-08
-9.97043e-08
-4.62115e-07
-6.48897e-08
-1.05597e-07
-3.38469e-07
-6.05466e-08
-9.84525e-08
-2.31189e-07
-5.2685e-08
-8.71134e-08
-1.39081e-07
-4.5576e-08
-7.59447e-08
-6.08757e-08
-4.05285e-08
-6.46521e-08
-5.86048e-09
-3.76798e-08
-4.28456e-08
-3.47103e-08
5.24916e-09
7.29108e-10
-2.55033e-08
4.54831e-09
2.90013e-08
-2.80674e-08
-2.24529e-08
7.01625e-08
-3.09297e-08
-3.45652e-08
1.19097e-07
-3.63162e-08
-4.07834e-08
1.77967e-07
-4.51779e-08
-4.795e-08
2.51354e-07
-5.78987e-08
-5.80067e-08
3.44355e-07
-7.42901e-08
-7.08751e-08
4.59802e-07
-9.32906e-08
-8.40707e-08
5.94772e-07
-1.09854e-07
-9.27135e-08
7.33498e-07
-1.19237e-07
-8.81113e-08
8.02426e-07
-5.26374e-08
-6.05804e-08
8.1042e-07
-8.56428e-08
1.44845e-08
7.3343e-07
-1.72352e-07
1.39941e-07
6.03351e-07
-2.39591e-07
2.20849e-07
4.50746e-07
-2.90964e-07
2.63407e-07
2.98141e-07
-3.22812e-07
2.76009e-07
1.52705e-07
-3.41569e-07
2.76099e-07
1.22583e-08
-3.49273e-07
2.74201e-07
-1.28401e-07
-3.47673e-07
2.73957e-07
-2.74517e-07
-3.36721e-07
2.75352e-07
-4.28335e-07
-3.14841e-07
2.74778e-07
-5.83019e-07
-2.79947e-07
2.61894e-07
-7.16209e-07
-2.2671e-07
2.19591e-07
-7.97863e-07
-1.58579e-07
1.39616e-07
-7.94899e-07
-7.52438e-08
1.60581e-08
-7.27005e-07
-4.75637e-08
-6.02584e-08
-5.87757e-07
-1.13687e-07
-9.04963e-08
-4.48815e-07
-1.05529e-07
-9.83033e-08
-3.25595e-07
-9.08169e-08
-9.29499e-08
-2.20766e-07
-7.43547e-08
-8.31589e-08
-1.32065e-07
-6.12947e-08
-7.29822e-08
-5.742e-08
-5.27086e-08
-6.2465e-08
-5.26637e-09
-4.80715e-08
-4.17619e-08
-4.40635e-08
4.08674e-09
4.91319e-11
-2.92377e-08
3.68523e-09
2.56609e-08
-3.1993e-08
-2.16861e-08
6.32823e-08
-3.54943e-08
-3.30569e-08
1.07847e-07
-4.20896e-08
-3.8791e-08
1.61235e-07
-5.32897e-08
-4.52761e-08
2.27845e-07
-7.02945e-08
-5.42148e-08
3.13455e-07
-9.44965e-08
-6.54032e-08
4.22909e-07
-1.27087e-07
-7.56577e-08
5.60774e-07
-1.67407e-07
-8.03124e-08
7.30571e-07
-2.21099e-07
-6.79343e-08
7.63536e-07
-4.95914e-08
-3.6011e-08
7.32143e-07
-8.34967e-08
2.92463e-08
6.64675e-07
-2.52918e-07
1.48033e-07