/*--------------------------------*- C++ -*----------------------------------*\
| =========                 |                                                 |
| \\      /  F ield         | OpenFOAM: The Open Source CFD Toolbox           |
|  \\    /   O peration     | Version:  2112                                  |
|   \\  /    A nd           | Website:  www.openfoam.com                      |
|    \\/     M anipulation  |                                                 |
\*---------------------------------------------------------------------------*/
FoamFile
{
    version     2.0;
    format      ascii;
    arch        "LSB;label=32;scalar=64";
    class       volVectorField;
    location    "3.4";
    object      U;
}
// * * * * * * * * * * * * * * * * * * * * * * * * * * * * * * * * * * * * * //

dimensions      [0 1 -1 0 0 0 0];

internalField   nonuniform List<vector> 
64906
(
(3.64061e-08 2.05239e-07 -9.01023e-07)
(2.11687e-06 -1.39392e-06 -9.2971e-07)
(5.88352e-06 -3.02579e-06 -2.08096e-07)
(1.01207e-05 -4.36654e-06 7.34336e-07)
(1.46514e-05 -5.31978e-06 1.53462e-06)
(1.92118e-05 -6.01822e-06 2.16887e-06)
(2.37289e-05 -6.59784e-06 2.68757e-06)
(2.80432e-05 -7.11549e-06 3.15317e-06)
(3.19834e-05 -7.59431e-06 3.6144e-06)
(3.50952e-05 -7.93513e-06 4.09781e-06)
(3.68844e-05 -8.1935e-06 4.57562e-06)
(3.67866e-05 -7.96849e-06 5.20645e-06)
(3.48203e-05 -7.88576e-06 5.8871e-06)
(3.12923e-05 -7.85117e-06 6.57532e-06)
(2.63869e-05 -7.98556e-06 7.17471e-06)
(2.05247e-05 -8.13046e-06 7.65984e-06)
(1.3968e-05 -8.27879e-06 7.99328e-06)
(7.04149e-06 -8.3732e-06 8.16755e-06)
(1.2725e-10 -8.40707e-06 8.17596e-06)
(-6.87186e-06 -8.38066e-06 8.01928e-06)
(-1.33203e-05 -8.30121e-06 7.70448e-06)
(-1.90223e-05 -8.22649e-06 7.23938e-06)
(-2.3723e-05 -8.16203e-06 6.66225e-06)
(-2.70091e-05 -8.26581e-06 5.99819e-06)
(-2.87255e-05 -8.40304e-06 5.34584e-06)
(-2.85171e-05 -8.63592e-06 4.75904e-06)
(-2.63931e-05 -8.40195e-06 4.27085e-06)
(-2.2971e-05 -8.04183e-06 3.72488e-06)
(-1.87254e-05 -7.44244e-06 3.08074e-06)
(-1.41855e-05 -6.60181e-06 2.25225e-06)
(-9.59813e-06 -5.34095e-06 1.17777e-06)
(-5.42009e-06 -3.52497e-06 -1.29232e-07)
(-1.81436e-06 -1.2638e-06 -1.16464e-06)
(2.18772e-07 6.38547e-07 -1.29432e-06)
(-2.42146e-06 4.61034e-06 -1.72311e-06)
(-1.20511e-06 3.37188e-06 -6.32082e-06)
(3.91612e-06 1.53818e-06 -7.71717e-06)
(9.1134e-06 -7.05398e-08 -7.99763e-06)
(1.42477e-05 -1.00207e-06 -8.21179e-06)
(1.91354e-05 -1.27538e-06 -8.6682e-06)
(2.38444e-05 -9.69964e-07 -9.45342e-06)
(2.83022e-05 -5.23195e-08 -1.05857e-05)
(3.24286e-05 1.55828e-06 -1.20708e-05)
(3.57191e-05 4.15493e-06 -1.39076e-05)
(3.79257e-05 7.5261e-06 -1.60485e-05)
(3.81148e-05 1.19726e-05 -1.84581e-05)
(3.6031e-05 1.58271e-05 -2.07535e-05)
(3.22859e-05 1.91571e-05 -2.27416e-05)
(2.71187e-05 2.15478e-05 -2.43457e-05)
(2.10599e-05 2.32877e-05 -2.55607e-05)
(1.43143e-05 2.43644e-05 -2.638e-05)
(7.22523e-06 2.48864e-05 -2.68088e-05)
(2.09498e-08 2.48636e-05 -2.68442e-05)
(-7.00825e-06 2.42962e-05 -2.6486e-05)
(-1.36363e-05 2.31747e-05 -2.57371e-05)
(-1.95208e-05 2.13919e-05 -2.45926e-05)
(-2.44644e-05 1.89674e-05 -2.3061e-05)
(-2.79361e-05 1.56181e-05 -2.11512e-05)
(-2.96994e-05 1.1787e-05 -1.89496e-05)
(-2.91795e-05 7.4304e-06 -1.66767e-05)
(-2.6634e-05 4.22223e-06 -1.46949e-05)
(-2.29476e-05 1.91253e-06 -1.30842e-05)
(-1.8335e-05 8.21779e-07 -1.19194e-05)
(-1.32707e-05 7.87603e-07 -1.12055e-05)
(-7.79611e-06 1.86941e-06 -1.08341e-05)
(-2.18109e-06 3.96043e-06 -1.04051e-05)
(3.15597e-06 6.34463e-06 -8.63864e-06)
(3.67854e-06 7.61529e-06 -2.59932e-06)
(-4.15059e-06 1.3844e-05 -1.52267e-06)
(-3.74824e-06 1.46848e-05 -8.05573e-06)
(2.07193e-06 1.40817e-05 -1.02558e-05)
(8.04196e-06 1.36259e-05 -1.09957e-05)
(1.39877e-05 1.41173e-05 -1.16041e-05)
(1.96163e-05 1.57402e-05 -1.24963e-05)
(2.51037e-05 1.86269e-05 -1.38346e-05)
(3.04659e-05 2.30707e-05 -1.56938e-05)
(3.57634e-05 2.94041e-05 -1.81159e-05)
(4.02639e-05 3.83416e-05 -2.11294e-05)
(4.35486e-05 4.94354e-05 -2.46458e-05)
(4.38589e-05 6.28071e-05 -2.84871e-05)
(4.10153e-05 7.45744e-05 -3.21322e-05)
(3.63316e-05 8.48355e-05 -3.5315e-05)
(3.0113e-05 9.26258e-05 -3.79035e-05)
(2.31427e-05 9.847e-05 -3.98702e-05)
(1.55202e-05 0.000102268 -4.11943e-05)
(7.61681e-06 0.00010419 -4.1886e-05)
(-3.98564e-07 0.000104232 -4.19393e-05)
(-8.23904e-06 0.000102394 -4.13536e-05)
(-1.57374e-05 9.86839e-05 -4.01352e-05)
(-2.25201e-05 9.29341e-05 -3.82751e-05)
(-2.84934e-05 8.52615e-05 -3.57961e-05)
(-3.28661e-05 7.51516e-05 -3.27317e-05)
(-3.53481e-05 6.36158e-05 -2.92243e-05)
(-3.46116e-05 5.05506e-05 -2.55573e-05)
(-3.08438e-05 3.99823e-05 -2.22663e-05)
(-2.57588e-05 3.17434e-05 -1.955e-05)
(-1.96619e-05 2.64172e-05 -1.7511e-05)
(-1.32335e-05 2.33779e-05 -1.60977e-05)
(-6.38059e-06 2.23318e-05 -1.5109e-05)
(3.75084e-07 2.27781e-05 -1.40038e-05)
(6.68821e-06 2.33607e-05 -1.1081e-05)
(6.08703e-06 2.18531e-05 -2.46994e-06)
(-5.35312e-06 2.37704e-05 -8.86363e-07)
(-5.38112e-06 2.59464e-05 -8.27512e-06)
(1.23498e-06 2.63448e-05 -1.07692e-05)
(8.21619e-06 2.71563e-05 -1.16329e-05)
(1.53466e-05 2.92658e-05 -1.23639e-05)
(2.22542e-05 3.29683e-05 -1.34328e-05)
(2.92681e-05 3.85726e-05 -1.50433e-05)
(3.65281e-05 4.66827e-05 -1.73084e-05)
(4.43429e-05 5.80257e-05 -2.02816e-05)
(5.15094e-05 7.40958e-05 -2.40196e-05)
(5.73745e-05 9.43287e-05 -2.83816e-05)
(5.80532e-05 0.00011942 -3.32214e-05)
(5.33415e-05 0.000140923 -3.77756e-05)
(4.63847e-05 0.000159367 -4.17415e-05)
(3.76761e-05 0.000173179 -4.4956e-05)
(2.84939e-05 0.000183557 -4.73763e-05)
(1.8689e-05 0.00019032 -4.89881e-05)
(8.69737e-06 0.000193768 -4.98258e-05)
(-1.4116e-06 0.000193878 -4.98845e-05)
(-1.1338e-05 0.000190649 -4.91636e-05)
(-2.10135e-05 0.000184107 -4.76671e-05)
(-2.99923e-05 0.000173954 -4.53618e-05)
(-3.84267e-05 0.000160397 -4.22636e-05)
(-4.50131e-05 0.00014225 -3.84222e-05)
(-4.92794e-05 0.000121168 -3.40124e-05)
(-4.8025e-05 9.66161e-05 -2.9355e-05)
(-4.14898e-05 7.72368e-05 -2.52379e-05)
(-3.35123e-05 6.21922e-05 -2.18218e-05)
(-2.45545e-05 5.22138e-05 -1.92576e-05)
(-1.57891e-05 4.58681e-05 -1.74592e-05)
(-6.9074e-06 4.24492e-05 -1.61945e-05)
(1.41473e-06 4.11321e-05 -1.48615e-05)
(8.87782e-06 4.04619e-05 -1.15205e-05)
(7.72818e-06 3.72015e-05 -1.73645e-06)
(-6.07218e-06 3.39661e-05 -1.77401e-07)
(-6.05306e-06 3.72161e-05 -8.29049e-06)
(1.77085e-06 3.85368e-05 -1.10235e-05)
(1.01637e-05 4.06581e-05 -1.1961e-05)
(1.89335e-05 4.45214e-05 -1.27948e-05)
(2.77052e-05 5.04675e-05 -1.40641e-05)
(3.70688e-05 5.89331e-05 -1.60125e-05)
(4.74096e-05 7.087e-05 -1.87945e-05)
(5.95857e-05 8.76281e-05 -2.24463e-05)
(7.16715e-05 0.000112181 -2.70665e-05)
(8.2836e-05 0.000144408 -3.23995e-05)
(8.42167e-05 0.000186923 -3.85971e-05)
(7.54882e-05 0.000221415 -4.43275e-05)
(6.41891e-05 0.000250183 -4.93652e-05)
(5.10126e-05 0.000271109 -5.3456e-05)
(3.79901e-05 0.00028686 -5.64653e-05)
(2.43558e-05 0.000297105 -5.84335e-05)
(1.0672e-05 0.000302356 -5.94481e-05)
(-3.15598e-06 0.000302543 -5.95114e-05)
(-1.67751e-05 0.000297663 -5.86218e-05)
(-3.02806e-05 0.000287784 -5.67756e-05)
(-4.30888e-05 0.000272389 -5.38861e-05)
(-5.59645e-05 0.000251844 -4.99127e-05)
(-6.68185e-05 0.000223488 -4.49989e-05)
(-7.49933e-05 0.000189577 -3.94133e-05)
(-7.28247e-05 0.000147778 -3.34005e-05)
(-6.0767e-05 0.000116774 -2.83303e-05)
(-4.76603e-05 9.35347e-05 -2.40566e-05)
(-3.39997e-05 7.84469e-05 -2.08483e-05)
(-2.17227e-05 6.85983e-05 -1.85796e-05)
(-9.99219e-06 6.2716e-05 -1.70216e-05)
(5.41662e-07 5.96596e-05 -1.54895e-05)
(9.7782e-06 5.78629e-05 -1.17678e-05)
(8.7398e-06 5.31931e-05 -9.03699e-07)
(-6.53716e-06 4.36873e-05 5.15596e-07)
(-5.99327e-06 4.77566e-05 -8.43384e-06)
(3.61678e-06 4.99016e-05 -1.14695e-05)
(1.39448e-05 5.32846e-05 -1.25096e-05)
(2.48759e-05 5.89325e-05 -1.34947e-05)
(3.6084e-05 6.71359e-05 -1.5058e-05)
(4.8545e-05 7.83437e-05 -1.74839e-05)
(6.31043e-05 9.377e-05 -2.09683e-05)
(8.18047e-05 0.000115624 -2.54461e-05)
(0.000102057 0.000149537 -3.10368e-05)
(0.000123785 0.000196953 -3.69693e-05)
(0.000126657 0.000267202 -4.47794e-05)
(0.000109851 0.000318954 -5.19537e-05)
(9.12322e-05 0.000360221 -5.85904e-05)
(7.11221e-05 0.000389019 -6.4066e-05)
(5.24351e-05 0.000410823 -6.7879e-05)
(3.30207e-05 0.000424961 -7.03045e-05)
(1.37227e-05 0.000432249 -7.15407e-05)
(-5.79619e-06 0.000432523 -7.16107e-05)
(-2.50377e-05 0.000425775 -7.05122e-05)
(-4.43409e-05 0.00041216 -6.82192e-05)
(-6.28241e-05 0.000390839 -6.45345e-05)
(-8.26335e-05 0.000362519 -5.918e-05)
(-0.000100738 0.00032172 -5.26686e-05)
(-0.00011688 0.000270658 -4.56436e-05)
(-0.000112905 0.000201207 -3.80127e-05)
(-9.00119e-05 0.000155527 -3.23678e-05)
(-6.85926e-05 0.000123179 -2.71554e-05)
(-4.80531e-05 0.000103249 -2.31726e-05)
(-3.1072e-05 9.02078e-05 -2.02736e-05)
(-1.56224e-05 8.20418e-05 -1.83147e-05)
(-2.09578e-06 7.74081e-05 -1.64964e-05)
(9.75391e-06 7.46622e-05 -1.22666e-05)
(9.45925e-06 6.88908e-05 -9.54656e-08)
(-6.89863e-06 5.26134e-05 1.24713e-06)
(-5.36581e-06 5.73875e-05 -8.76127e-06)
(6.72651e-06 6.03625e-05 -1.22385e-05)
(1.95955e-05 6.51064e-05 -1.34293e-05)
(3.32667e-05 7.27482e-05 -1.46298e-05)
(4.74119e-05 8.3403e-05 -1.65856e-05)
(6.34468e-05 9.72853e-05 -1.96136e-05)
(8.29242e-05 0.00011536 -2.39478e-05)
(0.000110239 0.000140598 -2.93025e-05)
(0.000142569 0.000181743 -3.56134e-05)
(0.000185274 0.0002464 -4.0919e-05)
(0.000191725 0.000363312 -5.03042e-05)
(0.00015836 0.000437358 -5.86851e-05)
(0.000128265 0.00049371 -6.76249e-05)
(9.84807e-05 0.000531573 -7.52814e-05)
(7.23545e-05 0.000560812 -7.99688e-05)
(4.50271e-05 0.000579809 -8.28877e-05)
(1.79891e-05 0.000589665 -8.43549e-05)
(-9.43868e-06 0.000590047 -8.4434e-05)
(-3.64416e-05 0.000580937 -8.31219e-05)
(-6.37058e-05 0.000562648 -8.03504e-05)
(-8.96841e-05 0.000534027 -7.58053e-05)
(-0.000119233 0.000496716 -6.82765e-05)
(-0.000148777 0.000440803 -5.94708e-05)
(-0.000181425 0.000367445 -5.12579e-05)
(-0.000173343 0.000251197 -4.20371e-05)
(-0.000129108 0.000189177 -3.70612e-05)
(-9.56573e-05 0.000149746 -3.11565e-05)
(-6.61192e-05 0.000126595 -2.63636e-05)
(-4.36145e-05 0.000111146 -2.27075e-05)
(-2.37343e-05 0.00010079 -2.02433e-05)
(-6.39934e-06 9.45303e-05 -1.80275e-05)
(9.05174e-06 9.07227e-05 -1.3091e-05)
(1.00977e-05 8.39733e-05 7.69398e-07)
(-7.19517e-06 6.04075e-05 2.07892e-06)
(-4.18505e-06 6.5768e-05 -9.2762e-06)
(1.12551e-05 6.95763e-05 -1.33415e-05)
(2.74865e-05 7.58429e-05 -1.47452e-05)
(4.46595e-05 8.57571e-05 -1.62329e-05)
(6.22677e-05 9.91239e-05 -1.86883e-05)
(8.18252e-05 0.000115532 -2.24639e-05)
(0.000105499 0.000134683 -2.78831e-05)
(0.000140466 0.000158715 -3.41749e-05)
(0.00018722 0.000201838 -4.16335e-05)
(0.000272299 0.000279201 -4.02979e-05)
(0.000288491 0.000480365 -4.90115e-05)
(0.000222856 0.00057772 -5.88872e-05)
(0.000177836 0.000647846 -7.21745e-05)
(0.000135995 0.000693909 -8.35931e-05)
(0.000100454 0.000730217 -8.91384e-05)
(6.21212e-05 0.000754029 -9.25275e-05)
(2.40933e-05 0.000766506 -9.42038e-05)
(-1.46334e-05 0.00076702 -9.42931e-05)
(-5.26638e-05 0.000755547 -9.27917e-05)
(-9.1025e-05 0.000732677 -8.95684e-05)
(-0.000126553 0.000697158 -8.4187e-05)
(-0.000168362 0.000651711 -7.29106e-05)
(-0.000212935 0.000581859 -5.97814e-05)
(-0.000278031 0.000485099 -5.01554e-05)
(-0.000259173 0.000284139 -4.15022e-05)
(-0.000172023 0.000211348 -4.31727e-05)
(-0.000124665 0.000169652 -3.61692e-05)
(-8.69716e-05 0.000147622 -3.05427e-05)
(-5.94669e-05 0.000131162 -2.59311e-05)
(-3.4863e-05 0.000118677 -2.28512e-05)
(-1.28424e-05 0.000110549 -2.01459e-05)
(7.51703e-06 0.000105521 -1.41871e-05)
(1.07124e-05 9.79337e-05 1.83073e-06)
(-7.47332e-06 6.68114e-05 2.99367e-06)
(-2.48036e-06 7.26352e-05 -9.99111e-06)
(1.72974e-05 7.74489e-05 -1.478e-05)
(3.78957e-05 8.57123e-05 -1.64577e-05)
(5.95413e-05 9.8846e-05 -1.82823e-05)
(8.12943e-05 0.000116505 -2.12813e-05)
(0.000104023 0.000137615 -2.58748e-05)
(0.000128986 0.000158582 -3.24975e-05)
(0.000167737 0.000180111 -4.08239e-05)
(0.000221029 0.00021438 -4.80239e-05)
(0.000386678 0.000235928 -4.90153e-05)
(0.000427911 0.000598619 -4.25492e-05)
(0.000294955 0.000728855 -5.0326e-05)
(0.000236672 0.000818788 -7.043e-05)
(0.00018267 0.000878228 -8.69403e-05)
(0.000136026 0.00092708 -9.30029e-05)
(8.40045e-05 0.000959468 -9.72721e-05)
(3.19877e-05 0.000976267 -9.92975e-05)
(-2.12366e-05 0.000976952 -9.93927e-05)
(-7.33084e-05 0.000961499 -9.75539e-05)
(-0.00012549 0.000930394 -9.34569e-05)
(-0.000172349 0.000882625 -8.75703e-05)
(-0.000226766 0.000823979 -7.12026e-05)
(-0.000284885 0.000734211 -5.12986e-05)
(-0.000418012 0.000604217 -4.38577e-05)
(-0.000372025 0.000238934 -5.07371e-05)
(-0.000203758 0.000225063 -4.9854e-05)
(-0.000151617 0.000192136 -4.29912e-05)
(-0.000109205 0.000172733 -3.54788e-05)
(-7.93089e-05 0.000154453 -2.98302e-05)
(-4.99123e-05 0.000137584 -2.61128e-05)
(-2.19958e-05 0.000125968 -2.28697e-05)
(4.97774e-06 0.000118933 -1.56255e-05)
(1.13098e-05 0.000110373 3.13084e-06)
(-7.67529e-06 7.11571e-05 3.87218e-06)
(7.88743e-09 7.72486e-05 -1.09182e-05)
(2.55583e-05 8.30142e-05 -1.65694e-05)
(5.22793e-05 9.32706e-05 -1.85923e-05)
(8.07426e-05 0.000109854 -2.08369e-05)
(0.000109613 0.000132623 -2.44792e-05)
(0.000137378 0.000159679 -2.99705e-05)
(0.000164534 0.000182923 -3.89885e-05)
(0.000198138 0.000189182 -4.90449e-05)
(0.000162246 0.000109479 -7.18369e-05)
(0.000461134 0.000215386 -7.28403e-05)
(0.000625352 0.000851186 -1.50409e-05)
(0.000386892 0.000921339 -1.56512e-05)
(0.000326089 0.000984144 -3.81725e-05)
(0.000257857 0.00104862 -5.79522e-05)
(0.000193738 0.0011021 -5.99767e-05)
(0.000119115 0.00114052 -6.29925e-05)
(4.43554e-05 0.0011604 -6.4569e-05)
(-3.17619e-05 0.00116127 -6.46419e-05)
(-0.000106606 0.00114312 -6.32132e-05)
(-0.000181503 0.00110637 -6.03146e-05)
(-0.000246098 0.00105438 -5.8464e-05)
(-0.000315318 0.000990967 -3.88112e-05)
(-0.000376765 0.000928005 -1.64963e-05)
(-0.000619679 0.000854349 -1.66239e-05)
(-0.000448001 0.000218646 -7.52692e-05)
(-0.000143324 0.000128243 -7.29251e-05)
(-0.000182068 0.000205641 -5.08953e-05)
(-0.000143704 0.0001989 -4.22253e-05)
(-0.000110571 0.000177435 -3.45422e-05)
(-7.41858e-05 0.000154566 -3.02107e-05)
(-3.6842e-05 0.000138422 -2.63683e-05)
(4.48877e-08 0.000129023 -1.75203e-05)
(1.14048e-05 0.00011979 4.76097e-06)
(-7.87409e-06 7.29825e-05 4.76181e-06)
(2.99913e-06 7.92623e-05 -1.20399e-05)
(3.53581e-05 8.59861e-05 -1.86969e-05)
(6.96026e-05 9.84284e-05 -2.11487e-05)
(0.000107157 0.000119562 -2.38904e-05)
(0.000146367 0.000151548 -2.79382e-05)
(0.00018309 0.000197347 -3.34392e-05)
(0.000209625 0.000258912 -3.88621e-05)
(0.000170589 0.000338868 -5.78099e-05)
(0.000172793 0.000387408 -9.14398e-05)
(0.000280117 0.000728753 7.23595e-05)
(0.000314164 0.000929139 3.44569e-05)
(0.000388347 0.00105511 2.10067e-05)
(0.000338467 0.00116742 2.09668e-05)
(0.000255647 0.00124707 1.61874e-05)
(0.000158834 0.00129989 1.11731e-05)
(5.84352e-05 0.00132566 8.84026e-06)
(-4.3451e-05 0.00132667 8.8448e-06)
(-0.000143956 0.00130293 1.11784e-05)
(-0.00024109 0.00125223 1.61979e-05)
(-0.000324585 0.00117488 2.09957e-05)
(-0.000376233 0.00106502 2.11205e-05)
(-0.000306143 0.000941449 3.4175e-05)
(-0.000275127 0.000740942 7.07966e-05)
(-0.000168988 0.000399449 -8.84978e-05)
(-0.000162972 0.000353172 -5.92123e-05)
(-0.00019229 0.000273737 -4.27098e-05)
(-0.000156081 0.000214494 -3.89852e-05)
(-0.000107661 0.000173277 -3.49831e-05)
(-5.69155e-05 0.00014849 -3.08045e-05)
(-6.79862e-06 0.000135423 -2.00844e-05)
(1.13155e-05 0.000125121 6.27892e-06)
(-7.82372e-06 7.16128e-05 5.66994e-06)
(6.88205e-06 7.78671e-05 -1.32774e-05)
(4.74728e-05 8.45975e-05 -2.1048e-05)
(9.19749e-05 9.72307e-05 -2.406e-05)
(0.000144801 0.000118946 -2.76302e-05)
(0.000209207 0.000152553 -3.29587e-05)
(0.000290441 0.000202722 -4.0168e-05)
(0.000401956 0.000275556 -4.60734e-05)
(0.000534625 0.000381632 -4.93087e-05)
(0.000800989 0.000533565 -3.09952e-05)
(0.000829219 0.000148186 5.17344e-05)
(0.000635565 0.000306462 7.42873e-05)
(0.000703143 0.000683529 0.000132116)
(0.000632769 0.000894984 0.0001865)
(0.000504945 0.00104425 0.000217005)
(0.000361065 0.00114308 0.0002265)
(0.000217404 0.00120386 0.000227236)
(7.77103e-05 0.0012327 0.000226681)
(-6.02793e-05 0.00123365 0.000226742)
(-0.000199902 0.00120677 0.000227418)
(-0.000343436 0.00114811 0.000226827)
(-0.000487089 0.00105169 0.000217601)
(-0.000614759 0.000905259 0.000187681)
(-0.000685201 0.000697178 0.000133991)
(-0.00061603 0.000322832 7.74758e-05)
(-0.000817239 0.000151346 5.44055e-05)
(-0.000795893 0.000535757 -3.00482e-05)
(-0.000524022 0.000390524 -5.12575e-05)
(-0.000384208 0.000287774 -5.03563e-05)
(-0.000262289 0.000218484 -4.67882e-05)
(-0.00016716 0.000173406 -4.15623e-05)
(-8.82015e-05 0.000147264 -3.63412e-05)
(-1.82341e-05 0.00013388 -2.34012e-05)
(9.60743e-06 0.000123385 7.88793e-06)
(-7.8955e-06 6.7045e-05 6.61144e-06)
(1.00169e-05 7.2979e-05 -1.44921e-05)
(5.75839e-05 7.86512e-05 -2.32858e-05)
(0.000110222 8.91577e-05 -2.6828e-05)
(0.000173703 0.000106618 -3.11412e-05)
(0.000252477 0.000131907 -3.76048e-05)
(0.000352597 0.000165028 -4.61e-05)
(0.000485137 0.000203269 -5.35329e-05)
(0.000642868 0.00023571 -5.58705e-05)
(0.000876358 0.000252675 -4.19956e-05)
(0.000986466 0.000123334 -1.49843e-05)
(0.000956416 0.00031239 3.33714e-05)
(0.000925004 0.000506168 0.000141192)
(0.000792402 0.000648855 0.000212461)
(0.00062387 0.00075915 0.00024918)
(0.000440254 0.000832535 0.000264003)
(0.000262735 0.000878631 0.00026737)
(9.29147e-05 0.000900855 0.000267757)
(-7.35691e-05 0.000901642 0.00026782)
(-0.000243261 0.000881006 0.000267558)
(-0.000420542 0.000836539 0.000264351)
(-0.00060378 0.000764807 0.000249824)
(-0.00077226 0.000656108 0.000213777)
(-0.000905265 0.000514385 0.000143413)
(-0.000937606 0.000320462 3.73105e-05)
(-0.000973252 0.000126438 -1.24354e-05)
(-0.000867925 0.0002593 -4.17313e-05)
(-0.000632124 0.000244781 -5.82287e-05)
(-0.000467072 0.000214838 -5.84643e-05)
(-0.000322876 0.000179949 -5.37414e-05)
(-0.000206709 0.000151752 -4.76051e-05)
(-0.000110515 0.000133514 -4.13924e-05)
(-2.5928e-05 0.000123743 -2.64151e-05)
(9.11646e-06 0.000114501 9.48676e-06)
(-7.94901e-06 6.00795e-05 7.54696e-06)
(1.25995e-05 6.53765e-05 -1.55404e-05)
(6.59759e-05 6.98702e-05 -2.51965e-05)
(0.000125204 7.80208e-05 -2.91801e-05)
(0.000196691 9.12545e-05 -3.41395e-05)
(0.000285041 0.000109679 -4.17482e-05)
(0.000396204 0.000132279 -5.20621e-05)
(0.000538679 0.000156913 -6.2947e-05)
(0.000704578 0.000177026 -7.04316e-05)
(0.00090298 0.000193849 -6.71246e-05)
(0.00103605 0.000160533 -4.74459e-05)
(0.00108961 0.000250586 1.46006e-05)
(0.00105414 0.000367852 0.000126837)
(0.000899353 0.000464895 0.000196512)
(0.000703354 0.000540819 0.00023223)
(0.000492233 0.000590351 0.00024147)
(0.000292674 0.000621742 0.00024101)
(0.000103003 0.000636852 0.000239431)
(-8.21623e-05 0.000637493 0.000239458)
(-0.000271681 0.000623666 0.00024109)
(-0.000470973 0.000593552 0.000241638)
(-0.000681703 0.00054526 0.000232621)
(-0.000877796 0.000470492 0.000197527)
(-0.00103326 0.00037425 0.000128749)
(-0.00107184 0.000257483 1.82628e-05)
(-0.00102387 0.000165446 -4.52575e-05)
(-0.000893572 0.00020006 -6.68042e-05)
(-0.000692809 0.000185171 -7.28799e-05)
(-0.000519268 0.00016747 -6.82213e-05)
(-0.000364186 0.000146022 -6.03912e-05)
(-0.000235182 0.000127965 -5.27474e-05)
(-0.000127056 0.000115785 -4.54765e-05)
(-3.12953e-05 0.000109041 -2.87142e-05)
(9.07242e-06 0.000101216 1.10874e-05)
(-8.20811e-06 5.11955e-05 8.32109e-06)
(1.41913e-05 5.55642e-05 -1.63571e-05)
(7.18144e-05 5.88127e-05 -2.67178e-05)
(0.000135475 6.45082e-05 -3.10439e-05)
(0.000211753 7.35451e-05 -3.64879e-05)
(0.000304891 8.5637e-05 -4.49589e-05)
(0.000420589 9.95789e-05 -5.66315e-05)
(0.000565412 0.000114042 -6.97471e-05)
(0.000732773 0.000125244 -7.99779e-05)
(0.00091941 0.000137391 -7.98907e-05)
(0.00106845 0.000137577 -6.02296e-05)
(0.00116204 0.000192724 -1.55083e-06)
(0.00112878 0.000265342 0.000108018)
(0.000961228 0.00032583 0.000170712)
(0.000750748 0.000373864 0.000200871)
(0.000524363 0.00040609 0.00020438)
(0.000311683 0.000426948 0.000200413)
(0.000109548 0.00043715 0.00019707)
(-8.75181e-05 0.000437709 0.000197063)
(-0.000289525 0.000428609 0.000200388)
(-0.000501994 0.000408804 0.000204366)
(-0.00072808 0.000377539 0.000200997)
(-0.000938854 0.000330349 0.000171399)
(-0.00110733 0.000270443 0.00010959)
(-0.00114453 0.000198283 1.87646e-06)
(-0.00105632 0.000142693 -5.82034e-05)
(-0.0009091 0.000143565 -7.97179e-05)
(-0.000719888 0.000132842 -8.2584e-05)
(-0.000544406 0.000123618 -7.53114e-05)
(-0.000386078 0.000111891 -6.54546e-05)
(-0.000251074 0.0001018 -5.66479e-05)
(-0.000136378 9.48286e-05 -4.85254e-05)
(-3.35848e-05 9.08291e-05 -3.0357e-05)
(9.81036e-06 8.4669e-05 1.23455e-05)
(-8.51268e-06 4.10498e-05 8.92605e-06)
(1.51471e-05 4.44677e-05 -1.69617e-05)
(7.5811e-05 4.67135e-05 -2.78603e-05)
(0.000142483 5.05333e-05 -3.2435e-05)
(0.000221786 5.65483e-05 -3.82223e-05)
(0.00031759 6.44955e-05 -4.73056e-05)
(0.000435481 7.35498e-05 -5.9943e-05)
(0.000581028 8.3163e-05 -7.45319e-05)
(0.000749182 9.16408e-05 -8.64631e-05)
(0.000933659 0.000102696 -8.81719e-05)
(0.00109336 0.000113088 -6.82291e-05)
(0.00120594 0.000148839 -1.09333e-05)
(0.00117475 0.000193807 9.68404e-05)
(0.00100088 0.000232913 0.000155234)
(0.000781479 0.000264345 0.000181586)
(0.000545401 0.000285892 0.000181469)
(0.000324241 0.000299993 0.000175214)
(0.000113989 0.000307023 0.000170736)
(-9.08797e-05 0.000307559 0.000170712)
(-0.000301045 0.000301578 0.000175133)
(-0.00052208 0.000288454 0.000181359)
(-0.00075798 0.000267766 0.000181569)
(-0.000977858 0.000237051 0.000155744)
(-0.00115285 0.000198454 9.82333e-05)
(-0.0011884 0.000153903 -7.67221e-06)
(-0.00108102 0.000118165 -6.63134e-05)
(-0.000922618 0.000108496 -8.80848e-05)
(-0.000735258 9.84488e-05 -8.91944e-05)
(-0.00055847 9.14906e-05 -8.03054e-05)
(-0.000398659 8.40247e-05 -6.9102e-05)
(-0.00026034 7.79628e-05 -5.94491e-05)
(-0.000141718 7.38892e-05 -5.06933e-05)
(-3.44178e-05 7.14927e-05 -3.14901e-05)
(1.06627e-05 6.67495e-05 1.33025e-05)
(-8.81933e-06 3.0087e-05 9.33877e-06)
(1.56161e-05 3.25231e-05 -1.73966e-05)
(7.82774e-05 3.39323e-05 -2.86736e-05)
(0.000146851 3.62668e-05 -3.34118e-05)
(0.000227972 3.99687e-05 -3.9412e-05)
(0.000325275 4.49069e-05 -4.88643e-05)
(0.000444395 5.06782e-05 -6.20658e-05)
(0.000590587 5.7208e-05 -7.7451e-05)
(0.000760094 6.39824e-05 -9.02445e-05)
(0.000945805 7.35066e-05 -9.2703e-05)
(0.00111216 8.49613e-05 -7.2832e-05)
(0.00123426 0.000108109 -1.61321e-05)
(0.00120431 0.000136109 9.16723e-05)
(0.0010265 0.000160904 0.000148427)
(0.00080156 0.000181001 0.000173063)
(0.00055946 0.000195234 0.000171298)
(0.000332792 0.000204717 0.000164016)
(0.000117148 0.000209604 0.000159034)
(-9.29766e-05 0.000210159 0.000159005)
(-0.000308591 0.000206349 0.00016392)
(-0.000535246 0.000197847 0.000171159)
(-0.000777326 0.000184444 0.000173)
(-0.00100295 0.000164988 0.000148873)
(-0.00118206 0.000140617 9.30215e-05)
(-0.00121657 0.0001129 -1.27156e-05)
(-0.00109957 8.98141e-05 -7.09742e-05)
(-0.000934221 7.87635e-05 -9.27139e-05)
(-0.000745352 6.98564e-05 -9.3107e-05)
(-0.000566796 6.40827e-05 -8.34079e-05)
(-0.000405767 5.9009e-05 -7.14819e-05)
(-0.00026543 5.52676e-05 -6.13317e-05)
(-0.000144486 5.29156e-05 -5.21768e-05)
(-3.44571e-05 5.15236e-05 -3.22798e-05)
(1.14722e-05 4.81652e-05 1.3915e-05)
(-9.04829e-06 1.87265e-05 9.57182e-06)
(1.58148e-05 2.01895e-05 -1.76899e-05)
(7.96544e-05 2.09137e-05 -2.91987e-05)
(0.000149358 2.2088e-05 -3.40309e-05)
(0.000231592 2.40239e-05 -4.01473e-05)
(0.000329892 2.67572e-05 -4.97964e-05)
(0.00044998 3.02542e-05 -6.32934e-05)
(0.000597057 3.46732e-05 -7.90748e-05)
(0.000768027 4.00553e-05 -9.2279e-05)
(0.000955515 4.74754e-05 -9.50367e-05)
(0.00112567 5.67707e-05 -7.51534e-05)
(0.00125225 7.05288e-05 -1.84308e-05)
(0.00122279 8.6011e-05 9.00025e-05)
(0.00104264 9.99911e-05 0.00014654)
(0.000814341 0.000111414 0.000170719)
(0.000568599 0.000119859 0.000168436)
(0.000338465 0.000125616 0.000160816)
(0.000119404 0.000128767 0.00015567)
(-9.41028e-05 0.000129375 0.000155644)
(-0.000313208 0.0001274 0.000160725)
(-0.00054347 0.000122694 0.000168303)
(-0.000789393 0.00011511 0.00017066)
(-0.0010186 0.000104287 0.000146982)
(-0.00120028 9.06354e-05 9.13289e-05)
(-0.00123449 7.52398e-05 -1.50985e-05)
(-0.001113 6.13774e-05 -7.33729e-05)
(-0.000943672 5.2146e-05 -9.51446e-05)
(-0.000752827 4.49241e-05 -9.52687e-05)
(-0.000572518 3.99859e-05 -8.51931e-05)
(-0.000410234 3.62764e-05 -7.29136e-05)
(-0.000268446 3.37994e-05 -6.2504e-05)
(-0.000146022 3.23743e-05 -5.3129e-05)
(-3.43663e-05 3.15558e-05 -3.28165e-05)
(1.2017e-05 2.9498e-05 1.425e-05)
(-9.1776e-06 7.2538e-06 9.62698e-06)
(1.58224e-05 7.7338e-06 -1.7859e-05)
(8.01102e-05 7.80776e-06 -2.94611e-05)
(0.000150293 7.90243e-06 -3.43254e-05)
(0.000233089 8.20385e-06 -4.04749e-05)
(0.000332055 8.90311e-06 -5.01759e-05)
(0.00045299 1.03058e-05 -6.37449e-05)
(0.000601134 1.27028e-05 -7.96209e-05)
(0.000773446 1.65542e-05 -9.29168e-05)
(0.000962391 2.1655e-05 -9.57354e-05)
(0.00113399 2.81384e-05 -7.58683e-05)
(0.00126144 3.37233e-05 -1.90581e-05)
(0.00123172 3.80474e-05 8.98218e-05)
(0.00105046 4.21149e-05 0.000146667)
(0.000820679 4.54627e-05 0.000170982)
(0.000573358 4.84356e-05 0.000168749)
(0.000341587 5.06747e-05 0.000161136)
(0.00012088 5.22005e-05 0.000155991)
(-9.43181e-05 5.28939e-05 0.000155968)
(-0.000315161 5.27095e-05 0.000161052)
(-0.000547238 5.1653e-05 0.000168624)
(-0.000795001 4.96257e-05 0.000170931)
(-0.00102601 4.68701e-05 0.000147106)
(-0.0012091 4.30306e-05 9.11238e-05)
(-0.0012438 3.85348e-05 -1.58209e-05)
(-0.00112147 3.25663e-05 -7.41836e-05)
(-0.000950609 2.57891e-05 -9.59628e-05)
(-0.0007582 2.04534e-05 -9.60471e-05)
(-0.000576408 1.64724e-05 -8.58979e-05)
(-0.000412902 1.40136e-05 -7.35435e-05)
(-0.000270074 1.26168e-05 -6.30712e-05)
(-0.000146789 1.19579e-05 -5.36312e-05)
(-3.43582e-05 1.16333e-05 -3.31491e-05)
(1.22524e-05 1.08943e-05 1.43265e-05)
(-9.20931e-06 -4.0303e-06 9.5055e-06)
(1.56357e-05 -4.5362e-06 -1.79058e-05)
(7.96404e-05 -5.1555e-06 -2.94644e-05)
(0.000149649 -6.23387e-06 -3.43017e-05)
(0.000232445 -7.72907e-06 -4.04095e-05)
(0.000331732 -9.30567e-06 -5.00288e-05)
(0.000453347 -1.03056e-05 -6.34697e-05)
(0.000602692 -1.02023e-05 -7.91345e-05)
(0.000776269 -7.9062e-06 -9.22064e-05)
(0.000966483 -4.78119e-06 -9.48602e-05)
(0.00113743 1.26159e-07 -7.50769e-05)
(0.00126217 -2.0695e-06 -1.82391e-05)
(0.00123122 -9.584e-06 9.08271e-05)
(0.00104999 -1.60411e-05 0.000148393)
(0.000820559 -2.13114e-05 0.000173355)
(0.000573729 -2.40931e-05 0.000171682)
(0.000342168 -2.55326e-05 0.000164387)
(0.0001216 -2.56724e-05 0.000159395)
(-9.35815e-05 -2.48404e-05 0.000159373)
(-0.000314397 -2.30871e-05 0.000164309)
(-0.000546479 -2.023e-05 0.000171559)
(-0.000794078 -1.63195e-05 0.000173292)
(-0.00102513 -1.0406e-05 0.000148791)
(-0.00120862 -3.80749e-06 9.20534e-05)
(-0.00124488 3.19787e-06 -1.51149e-05)
(-0.00112532 4.59625e-06 -7.35376e-05)
(-0.000955093 -9.65233e-07 -9.52532e-05)
(-0.000761406 -4.74425e-06 -9.55043e-05)
(-0.000578359 -7.72081e-06 -8.55688e-05)
(-0.000413695 -8.65034e-06 -7.34032e-05)
(-0.00027027 -8.67458e-06 -6.30539e-05)
(-0.00014676 -8.34577e-06 -5.36965e-05)
(-3.44139e-05 -8.05596e-06 -3.32856e-05)
(1.21903e-05 -7.46007e-06 1.41464e-05)
(-9.17095e-06 -1.48291e-05 9.20361e-06)
(1.51714e-05 -1.63432e-05 -1.78189e-05)
(7.80736e-05 -1.78075e-05 -2.9192e-05)
(0.000147113 -2.03829e-05 -3.3937e-05)
(0.000229152 -2.42387e-05 -3.9911e-05)
(0.000328161 -2.89579e-05 -4.92874e-05)
(0.00045009 -3.35204e-05 -6.23457e-05)
(0.000600797 -3.6918e-05 -7.74538e-05)
(0.000775832 -3.67524e-05 -8.9908e-05)
(0.000968183 -3.49574e-05 -9.20105e-05)
(0.00113653 -2.76998e-05 -7.22551e-05)
(0.0012536 -3.8205e-05 -1.50366e-05)
(0.00121987 -6.0947e-05 9.43895e-05)
(0.00104004 -8.11095e-05 0.000153746)
(0.000813119 -9.7636e-05 0.000180396)
(0.000569219 -0.000107649 0.000180284)
(0.000339962 -0.000113578 0.000173906)
(0.00012154 -0.000115679 0.000169345)
(-9.17275e-05 -0.000114631 0.000169304)
(-0.000310529 -0.000110486 0.000173765)
(-0.000540565 -0.000102746 0.000180048)
(-0.000785654 -9.12537e-05 0.000180172)
(-0.00101472 -7.39225e-05 0.000153927)
(-0.00119743 -5.36513e-05 9.53701e-05)
(-0.00123697 -3.18803e-05 -1.21708e-05)
(-0.00112513 -2.28674e-05 -7.09683e-05)
(-0.000957441 -3.10969e-05 -9.26779e-05)
(-0.000761695 -3.39142e-05 -9.34547e-05)
(-0.000577359 -3.5258e-05 -8.40922e-05)
(-0.000411623 -3.34245e-05 -7.24224e-05)
(-0.000268276 -3.09269e-05 -6.2396e-05)
(-0.000145449 -2.87857e-05 -5.32766e-05)
(-3.42988e-05 -2.7433e-05 -3.31962e-05)
(1.1891e-05 -2.53851e-05 1.36917e-05)
(-9.14329e-06 -2.471e-05 8.70914e-06)
(1.42198e-05 -2.71958e-05 -1.75767e-05)
(7.49884e-05 -2.96385e-05 -2.86147e-05)
(0.000141929 -3.40386e-05 -3.31911e-05)
(0.000221932 -4.0875e-05 -3.89138e-05)
(0.000319343 -4.97944e-05 -4.7826e-05)
(0.000440374 -5.9519e-05 -6.01392e-05)
(0.000592089 -6.84239e-05 -7.40739e-05)
(0.000769196 -7.18781e-05 -8.51617e-05)
(0.000967618 -7.15015e-05 -8.576e-05)
(0.00113158 -5.2378e-05 -6.6401e-05)
(0.00123207 -7.26109e-05 -8.45336e-06)
(0.00119259 -0.000119963 0.000102171)
(0.00101596 -0.000160026 0.0001652)
(0.000794934 -0.000192405 0.000195159)
(0.000557823 -0.000212448 0.000198297)
(0.000333947 -0.00022455 0.000193906)
(0.000120442 -0.000229324 0.000190289)
(-8.83452e-05 -0.000227936 0.000190193)
(-0.000302371 -0.000220417 0.000193596)
(-0.000527298 -0.000205822 0.000197769)
(-0.000766109 -0.000183619 0.000194524)
(-0.000989953 -0.000150039 0.000164869)
(-0.00117037 -0.00010976 0.000102569)
(-0.00121651 -6.42548e-05 -6.43501e-06)
(-0.0011212 -4.66458e-05 -6.55736e-05)
(-0.000957651 -6.68905e-05 -8.68864e-05)
(-0.00075603 -6.86252e-05 -8.90914e-05)
(-0.000569952 -6.68524e-05 -8.09798e-05)
(-0.000403734 -6.02614e-05 -7.03406e-05)
(-0.000261993 -5.36439e-05 -6.09357e-05)
(-0.000141545 -4.8659e-05 -5.22553e-05)
(-3.33608e-05 -4.57369e-05 -3.28126e-05)
(1.15844e-05 -4.22205e-05 1.28971e-05)
(-9.1537e-06 -3.3245e-05 8.04944e-06)
(1.26817e-05 -3.66558e-05 -1.71474e-05)