/*--------------------------------*- C++ -*----------------------------------*\
| =========                 |                                                 |
| \\      /  F ield         | OpenFOAM: The Open Source CFD Toolbox           |
|  \\    /   O peration     | Version:  2112                                  |
|   \\  /    A nd           | Website:  www.openfoam.com                      |
|    \\/     M anipulation  |                                                 |
\*---------------------------------------------------------------------------*/
FoamFile
{
    version     2.0;
    format      ascii;
    arch        "LSB;label=32;scalar=64";
    class       volScalarField;
    location    "4.4";
    object      epsilon;
}
// * * * * * * * * * * * * * * * * * * * * * * * * * * * * * * * * * * * * * //

dimensions      [0 2 -3 0 0 0 0];

internalField   nonuniform List<scalar> 
64906
(
0.00010484
0.000125922
0.000140144
0.000147691
0.000151412
0.000153149
0.00015391
0.000154211
0.000154304
0.000154306
0.000154271
0.000154227
0.000154193
0.000154169
0.00015415
0.000154136
0.000154123
0.000154115
0.000154112
0.000154117
0.000154127
0.00015414
0.000154156
0.000154175
0.000154195
0.000154198
0.000154123
0.000153847
0.000153111
0.000151393
0.000147685
0.000140147
0.000125932
0.000104848
0.000125941
0.000239272
0.00031176
0.000353289
0.000376237
0.000388269
0.000394114
0.000396618
0.000397418
0.00039741
0.000397082
0.000396691
0.000396367
0.000396147
0.000396017
0.000395941
0.000395898
0.000395877
0.000395877
0.000395897
0.000395939
0.000396008
0.000396117
0.000396275
0.000396429
0.000396384
0.000395675
0.000393369
0.000387766
0.000375954
0.000353171
0.000311741
0.000239294
0.000125968
0.000140192
0.000311805
0.000426235
0.000494942
0.000534756
0.000556578
0.000567527
0.000572185
0.000573392
0.000572867
0.00057166
0.000570401
0.000569407
0.000568765
0.000568403
0.000568202
0.00056809
0.00056804
0.000568042
0.000568096
0.000568207
0.000568393
0.000568704
0.000569195
0.000569794
0.000570091
0.000569118
0.00056505
0.000554842
0.000533716
0.000494438
0.000426067
0.00031181
0.000140237
0.000147761
0.000353388
0.000495
0.000582838
0.000635267
0.000664633
0.000679327
0.000685011
0.000685436
0.000683118
0.000679807
0.000676679
0.000674315
0.000672845
0.000672038
0.00067158
0.000671312
0.000671188
0.000671191
0.000671321
0.000671586
0.000672021
0.000672742
0.000673967
0.000675705
0.000677349
0.000677408
0.000673112
0.000660197
0.000632519
0.000581404
0.000494424
0.000353281
0.000147816
0.000151495
0.000376379
0.000534884
0.000635367
0.000696345
0.000730561
0.000746893
0.000751553
0.000748951
0.000742467
0.000734873
0.000728258
0.000723507
0.000720724
0.000719278
0.000718416
0.000717878
0.00071762
0.000717625
0.00071789
0.000718425
0.000719255
0.000720589
0.000723053
0.00072699
0.000731696
0.000735168
0.000733439
0.000720902
0.000690277
0.000632094
0.000533462
0.000376003
0.000151544
0.000153239
0.000388451
0.00055681
0.000664924
0.000730839
0.000767047
0.000782308
0.000782889
0.000773638
0.000759055
0.000743736
0.000731535
0.000723351
0.000718998
0.000716968
0.00071561
0.000714674
0.000714212
0.000714218
0.00071469
0.000715624
0.00071695
0.000718859
0.000722859
0.000730122
0.000740136
0.000750726
0.000755955
0.000748214
0.000718997
0.000658451
0.000553886
0.000387563
0.000153257
0.000154002
0.000394348
0.000567949
0.000680022
0.000747872
0.000783284
0.000794318
0.000786691
0.000765331
0.000736361
0.000708211
0.000688976
0.000677437
0.000672278
0.000670425
0.000668647
0.00066724
0.000666539
0.000666546
0.00066726
0.00066867
0.000670424
0.000672169
0.000676992
0.000687609
0.00070456
0.000727643
0.00074652
0.000749668
0.000726964
0.000668592
0.000562692
0.000392638
0.000153955
0.000154309
0.000396951
0.000572959
0.000686511
0.000754037
0.000786232
0.000789782
0.000768846
0.00072737
0.000673423
0.000624109
0.000601324
0.000590977
0.000588281
0.000588559
0.000586799
0.000585103
0.000584273
0.000584281
0.000585125
0.000586831
0.000588581
0.000588227
0.00059066
0.000600213
0.000620836
0.000664986
0.000708369
0.000730826
0.000720371
0.000668307
0.000564546
0.000394105
0.000154158
0.000154414
0.000397928
0.000574775
0.00068837
0.000754217
0.000781631
0.000775132
0.000735556
0.000662598
0.000563067
0.000473249
0.000469428
0.000476657
0.000483659
0.000488737
0.000488121
0.000486933
0.000486354
0.000486362
0.000486957
0.000488158
0.00048878
0.00048367
0.000476523
0.000468775
0.000470917
0.000555676
0.000644191
0.000697473
0.000704948
0.000662254
0.000562751
0.000393786
0.000154133
0.000154436
0.0003982
0.000575192
0.000688293
0.000752197
0.000774816
0.000758002
0.000697051
0.000579699
0.000394207
0.000219348
0.000299172
0.000357977
0.00038327
0.000393753
0.000395837
0.000396137
0.000396146
0.000396153
0.000396158
0.000395873
0.000393805
0.000383329
0.000358017
0.00029911
0.000218693
0.000388905
0.00056247
0.000659376
0.000687679
0.000654896
0.000559937
0.000392903
0.000154028
0.000154429
0.000398255
0.000575259
0.000688036
0.000750825
0.00077072
0.000747807
0.000672375
0.000515611
0.000232062
0.000178786
0.000277741
0.000314759
0.000326539
0.000330711
0.000331998
0.000332317
0.000332321
0.000332011
0.000330735
0.000326578
0.000314819
0.000277824
0.000178824
0.000229783
0.000499683
0.000635091
0.000677496
0.000650589
0.000558228
0.000392325
0.000153945
0.000154415
0.00039831
0.000575468
0.00068846
0.000751579
0.000772264
0.000751905
0.000685537
0.000561603
0.000371235
0.000203989
0.000249826
0.000294248
0.000312517
0.000317286
0.000321523
0.000322924
0.000323199
0.000323199
0.000322923
0.000321522
0.000317281
0.00031251
0.000294218
0.000249642
0.000203257
0.00036597
0.000544479
0.000647874
0.00068138
0.000651898
0.000558694
0.000392455
0.000153924
0.000154407
0.000398423
0.00057591
0.000689565
0.000754024
0.000777546
0.000763473
0.000711584
0.000621221
0.000500298
0.000388418
0.000348858
0.000329274
0.000322223
0.000319507
0.000319838
0.000320048
0.000320048
0.000320045
0.000320038
0.000319817
0.000319467
0.000322144
0.000329076
0.000348228
0.000386249
0.000493251
0.000603106
0.000673422
0.000692634
0.000656888
0.000560805
0.000393159
0.000153985
0.000154401
0.000398566
0.000576466
0.00069096
0.00075707
0.000783792
0.000775824
0.000735294
0.000664741
0.000572471
0.000478414
0.00040655
0.000356126
0.00033326
0.000324723
0.000322118
0.000321306
0.000321041
0.000321035
0.000321287
0.000322083
0.00032466
0.000333141
0.000355845
0.000405709
0.000475635
0.000564604
0.00064596
0.000696651
0.000704602
0.00066277
0.000563449
0.000394072
0.000154061
0.000154394
0.000398699
0.000576988
0.000692252
0.000759808
0.00078912
0.000785542
0.00075195
0.000691106
0.000609233
0.000518779
0.000435362
0.000371739
0.000340903
0.000328871
0.000324702
0.000323311
0.000322867
0.000322857
0.000323283
0.000324656
0.000328796
0.000340767
0.000371424
0.00043443
0.000515745
0.00060097
0.000671902
0.000712912
0.000713951
0.000667724
0.000565779
0.00039489
0.000154117
0.000154385
0.000398796
0.000577389
0.000693234
0.000761832
0.000792887
0.000791997
0.000762129
0.000705643
0.000627345
0.000537066
0.000448836
0.000379578
0.000345089
0.000331303
0.000326381
0.000324693
0.000324131
0.000324117
0.000324657
0.000326328
0.000331222
0.000344944
0.000379249
0.000447854
0.000533912
0.000618869
0.00068617
0.000722795
0.000720097
0.000671167
0.000567451
0.000395475
0.000154146
0.000154372
0.000398851
0.000577647
0.000693861
0.000763093
0.000795153
0.000795701
0.000767625
0.000712947
0.000635771
0.000545087
0.00045476
0.000383084
0.000347027
0.00033246
0.000327198
0.000325359
0.000324713
0.000324693
0.000325315
0.000327138
0.000332374
0.000346877
0.000382746
0.000453716
0.000541873
0.000627182
0.000693313
0.000728099
0.000723586
0.000673201
0.000568461
0.000395819
0.00015415
0.000154358
0.00039887
0.000577774
0.000694167
0.000763695
0.000796206
0.000797366
0.000770001
0.00071596
0.000639082
0.000548119
0.00045699
0.000384398
0.000347758
0.000332892
0.000327494
0.000325582
0.000324875
0.00032485
0.000325532
0.00032743
0.000332803
0.000347605
0.000384055
0.000455914
0.000544879
0.000630444
0.000696252
0.00073038
0.000725142
0.000674133
0.00056893
0.000395969
0.000154138
0.000154346
0.000398862
0.000577783
0.000694188
0.000763728
0.000796254
0.000797431
0.000770084
0.000716061
0.000639196
0.000548236
0.000457098
0.000384474
0.000347802
0.00033291
0.00032749
0.000325555
0.000324813
0.000324781
0.0003255
0.000327422
0.000332818
0.000347648
0.000384131
0.000456023
0.000545001
0.000630563
0.000696357
0.000730465
0.000725206
0.000674177
0.000568954
0.000395965
0.000154118
0.000154343
0.000398832
0.000577675
0.000693922
0.00076319
0.000795292
0.00079589
0.000767872
0.000713251
0.00063612
0.000545456
0.000455101
0.000383324
0.000347167
0.000332518
0.000327193
0.000325286
0.000324547
0.000324513
0.000325227
0.000327123
0.000332426
0.000347015
0.000382989
0.000454049
0.000542259
0.000627548
0.00069363
0.000728352
0.000723775
0.00067333
0.000568532
0.000395814
0.000154103
0.000154349
0.000398776
0.000577432
0.000693328
0.000761981
0.000793105
0.000792301
0.000762535
0.00070616
0.000627958
0.000537732
0.000449418
0.000380013
0.000345347
0.000331421
0.000326391
0.000324595
0.000323914
0.000323883
0.000324537
0.000326321
0.000331331
0.000345202
0.000379696
0.000448436
0.000534619
0.000619518
0.00068671
0.000723212
0.000720401
0.000671373
0.000567566
0.000395479
0.000154089
0.000154357
0.000398679
0.000577034
0.000692354
0.000759975
0.000789375
0.000785919
0.000752486
0.000691836
0.000610156
0.000519837
0.00043625
0.000372409
0.000341289
0.000329045
0.00032472
0.000323192
0.000322633
0.000322609
0.000323138
0.000324653
0.00032896
0.000341159
0.000372128
0.000435374
0.000516886
0.000601956
0.000672661
0.000713453
0.000714323
0.000667971
0.000565919
0.000394905
0.000154056
0.000154362
0.000398534
0.000576476
0.000691003
0.00075716
0.00078397
0.000776152
0.000735859
0.000665641
0.00057376
0.000479982
0.000407881
0.000356981
0.000333644
0.0003248
0.000321976
0.000321011
0.000320652
0.000320633
0.000320965
0.000321912
0.000324717
0.000333525
0.000356752
0.000407161
0.000477352
0.000565992
0.000646862
0.00069717
0.000704899
0.000662952
0.000563554
0.000394079
0.000153996
0.000154364
0.000398337
0.000575783
0.000689377
0.0007538
0.000777352
0.000763422
0.000711848
0.000622042
0.000501851
0.000390523
0.000350604
0.000329758
0.000321879
0.000318698
0.000318709
0.00031875
0.00031867
0.000318654
0.000318703
0.000318629
0.000318573
0.000321703
0.000329536
0.000350159
0.000388583
0.000494917
0.000603773
0.000673458
0.000692463
0.000656734
0.000560723
0.000393098
0.000153913
0.000154357
0.000398061
0.00057495
0.000687637
0.000750496
0.000771032
0.000750707
0.0006847
0.000561663
0.000372723
0.000204919
0.000250092
0.000291887
0.00030862
0.000312462
0.000316194
0.000317401
0.0003176
0.000317577
0.000317322
0.000316014
0.000312096
0.00030803
0.000291225
0.000249824
0.000204188
0.000367463
0.000543843
0.000646292
0.000679837
0.000650798
0.000558076
0.000392179
0.000153836
0.000154329
0.000397575
0.000573773
0.000685693
0.000747713
0.000766999
0.000743681
0.000668196
0.000512275
0.000231015
0.000173915
0.000265427
0.000298138
0.000307199
0.000310426
0.000311449
0.000311677
0.00031162
0.000311227
0.000309865
0.000305951
0.000295828
0.000262208
0.000171883
0.000227536
0.000493769
0.000628846
0.000672559
0.000647264
0.000556338
0.000391521
0.000153803
0.000154223
0.000396484
0.000571515
0.000682645
0.0007448
0.00076595
0.000747881
0.000685846
0.000567923
0.000383557
0.000212204
0.00027333
0.000318813
0.00033258
0.000335267
0.000335584
0.000335677
0.000335675
0.000335562
0.000335205
0.000334253
0.000331973
0.000325643
0.000307304
0.000261601
0.000206203
0.000370059
0.000543265
0.000643615
0.000676132
0.000647165
0.000555404
0.000390923
0.000153749
0.000153926
0.000393899
0.000566491
0.000676043
0.000738399
0.000762835
0.000753488
0.000710522
0.000632849
0.000526461
0.000426112
0.000399902
0.000382776
0.000365007
0.000355099
0.000351069
0.000349728
0.000349309
0.000349136
0.000348965
0.000348744
0.000348797
0.000350168
0.000354913
0.000367722
0.000396636
0.000496974
0.000599469
0.000664682
0.000681641
0.000646421
0.000553079
0.000389341
0.000153565
0.000153177
0.000388118
0.000555667
0.000661656
0.000722935
0.000749983
0.000748667
0.000721716
0.000671065
0.000602255
0.000529737
0.000472958
0.000421856
0.000379252
0.000358776
0.000351029
0.000348469
0.0003477
0.000347491
0.000347513
0.000347962
0.00034994
0.00035678
0.000376343
0.000420597
0.000481236
0.000559914
0.000630978
0.000674097
0.0006789
0.00063881
0.000545484
0.000384761
0.000152941
0.000151455
0.000376208
0.000534204
0.000633194
0.000690816
0.000718311
0.000722439
0.000706828
0.000673548
0.000625323
0.000567531
0.000507178
0.000447027
0.000396547
0.000371981
0.000362461
0.000359225
0.000358239
0.000358004
0.000358143
0.000358985
0.000361995
0.000371282
0.000396006
0.000448175
0.000513023
0.000579327
0.000632786
0.000661736
0.000658647
0.000616906
0.00052718
0.000374009
0.000151329
0.000147741
0.000353372
0.000494767
0.000581763
0.000632133
0.000657198
0.000663852
0.000655825
0.00063482
0.000601906
0.000558958
0.000509533
0.000458889
0.000416297
0.000393541
0.000383992
0.000380495
0.000379366
0.000379108
0.000379326
0.000380403
0.00038383
0.000393357
0.000416272
0.000459832
0.00051223
0.000562457
0.000600366
0.000618351
0.00061076
0.000571363
0.000490521
0.000352155
0.000147699
0.000140191
0.000311903
0.000426322
0.000494699
0.00053352
0.000553086
0.000559584
0.000556303
0.000544532
0.000524652
0.00049724
0.000464261
0.000429963
0.000401099
0.000384376
0.000376714
0.00037376
0.000372781
0.000372559
0.000372764
0.000373722
0.000376652
0.00038432
0.000401179
0.000430433
0.000465191
0.000497578
0.000520903
0.000530276
0.000521526
0.000489202
0.000424279
0.000311416
0.000140211
0.000125964
0.000239394
0.00031198
0.000353501
0.000376183
0.000387431
0.000391542
0.00039073
0.000385839
0.00037692
0.000363964
0.000347773
0.000330586
0.000315891
0.000306895
0.000302526
0.00030075
0.000300131
0.000299989
0.000300135
0.000300755
0.000302531
0.000306911
0.000315964
0.000330779
0.000348039
0.000363704
0.000374421
0.000377804
0.00037145
0.000351559
0.000311401
0.000239334
0.000126008
0.000104866
0.000126005
0.000140303
0.000147918
0.000151687
0.000153428
0.000154103
0.000154147
0.000153691
0.000152698
0.000151188
0.000149167
0.000146866
0.000144787
0.000143463
0.000142788
0.00014248
0.000142338
0.00014229
0.000142344
0.000142486
0.000142791
0.000143463
0.000144786
0.000146869
0.00014917
0.000151129
0.000152404
0.000152652
0.000151439
0.000147918
0.000140382
0.000126075
0.000104903
0.00014082
0.000212081
0.000261795
0.000290505
0.000306125
0.000314152
0.000317977
0.000319588
0.000320094
0.000320081
0.00031986
0.000319596
0.000319368
0.000319205
0.000319097
0.000319028
0.000318984
0.000318962
0.00031896
0.00031898
0.00031902
0.000319084
0.000319177
0.000319301
0.000319421
0.000319411
0.000318969
0.000317484
0.000313808
0.000305915
0.000290397
0.000261752
0.000212073
0.000140829
0.000212087
0.000267623
0.000323185
0.000358458
0.000378751
0.000389601
0.000394928
0.000397219
0.000397938
0.000397903
0.000397563
0.000397164
0.000396828
0.000396592
0.000396445
0.000396355
0.000396303
0.000396279
0.000396279
0.000396303
0.000396354
0.000396436
0.000396563
0.000396737
0.000396909
0.000396895
0.000396261
0.000394157
0.00038906
0.000378426
0.000358302
0.000323147
0.000267654
0.000212082
0.000261831
0.000323204
0.000391219
0.000436633
0.000463954
0.000479132
0.000486778
0.000490021
0.000490842
0.000490446
0.00048957
0.000488651
0.000487912
0.000487412
0.00048711
0.000486932
0.000486829
0.000486781
0.000486782
0.00048683
0.00048693
0.000487095
0.000487359
0.000487749
0.000488204
0.000488438
0.000487773
0.000484937
0.000477812
0.000463133
0.000436212
0.000391072
0.000323213
0.000261803
0.000290575
0.000358502
0.000436663
0.000490337
0.000523497
0.000542279
0.000551697
0.000555334
0.000555606
0.000554135
0.000552043
0.000550062
0.000548551
0.000547575
0.000547006
0.000546676
0.000546484
0.000546393
0.000546394
0.000546485
0.000546673
0.000546984
0.000547494
0.000548308
0.000549409
0.000550427
0.000550417
0.000547622
0.000539315
0.00052161
0.000489312
0.000436227
0.000358402
0.000290482
0.00030623
0.000378825
0.000464028
0.000523556
0.000560846
0.000581976
0.000592093
0.000595013
0.000593497
0.000589656
0.000585192
0.000581309
0.000578527
0.000576828
0.000575887
0.000575347
0.000575022
0.000574863
0.000574864
0.000575023
0.000575344
0.000575859
0.000576726
0.000578218
0.000580483
0.000583166
0.000585057
0.000583785
0.000575899
0.000556929
0.000521355
0.000462996
0.000378465
0.000305976
0.000314293
0.000389712
0.000479278
0.00054246
0.000582149
0.000604161
0.000613512
0.000614031
0.000608744
0.00060043
0.000591813
0.000584942
0.000580425
0.000577882
0.000576562
0.000575821
0.000575341
0.000575093
0.000575095
0.000575344
0.000575819
0.000576535
0.000577772
0.000580083
0.000584011
0.000589509
0.0005952
0.000597775
0.000592675
0.000574733
0.000538232
0.000477198
0.000388867
0.000313734
0.000318162
0.000395098
0.000487059
0.00055214
0.000592693
0.000614091
0.000620945
0.000616801
0.00060482
0.000588809
0.000573539
0.000562636
0.000556534
0.000553542
0.000552111
0.000551397
0.000550836
0.000550509
0.000550511
0.000550841
0.0005514
0.000552092
0.000553444
0.000556202
0.000561685
0.000571113
0.000583218
0.000593056
0.000593986
0.000579822
0.000544787
0.00048336
0.000393489
0.000317111
0.00031984
0.000397495
0.000490556
0.00055629
0.000596514
0.000615986
0.000618576
0.000607088
0.000584441
0.000555971
0.000531023
0.000515353
0.000509867
0.000508134
0.000507267
0.000507387
0.000507084
0.000506782
0.000506784
0.000507091
0.000507395
0.000507263
0.000508069
0.000509595
0.000514483
0.000528621
0.00055024
0.000572235
0.000583401
0.000576045
0.000544694
0.000484678
0.000394848
0.000318109
0.000320451
0.000398396
0.00049181
0.000557461
0.000596641
0.000613365
0.000610419
0.000589181
0.000551392
0.000504422
0.000470821
0.000444972
0.000446954
0.000450638
0.000450979
0.000454079
0.00045495
0.000454953
0.000454956
0.00045496
0.000454095
0.000450994
0.000450622
0.000446793
0.000444301
0.000468486
0.000498616
0.000538911
0.000564962
0.000567064
0.000540957
0.000483457
0.000394568
0.00031794
0.000320603
0.00039864
0.000492076
0.00055738
0.000595408
0.000609459
0.000601141
0.000569989
0.000515916
0.000452735
0.000518789
0.000361092
0.000380203
0.000395188
0.000395969
0.00040543
0.000408504
0.000409063
0.000409068
0.000408518
0.000405453
0.000395997
0.000395222
0.000380192
0.000360712
0.000515033
0.000446378
0.000503033
0.000545357
0.000557277
0.000536428
0.000481518
0.000393761
0.000317384
0.000320606
0.000398676
0.000492084
0.000557163
0.000594531
0.000607103
0.000595887
0.00055994
0.000504543
0.000571179
0.000355211
0.000317677
0.000338852
0.000350735
0.000352048
0.000352116
0.000352124
0.000352127
0.000352124
0.000352062
0.000350761
0.000338893
0.000317733
0.000355174
0.000558803
0.00049089
0.000534991
0.000551739
0.000533751
0.000480292
0.000393202
0.000316985
0.000320601
0.000398709
0.000492182
0.000557353
0.000594863
0.000607729
0.000597228
0.000562493
0.000502728
0.000428907
0.000449738
0.000318204
0.000353202
0.000379476
0.000405942
0.000389269
0.000383382
0.000382199
0.000382195
0.000383371
0.000389249
0.000405931
0.000379451
0.000353124
0.000317777
0.000446055
0.000422544
0.000489808
0.000537687
0.000553055
0.000534269
0.000480476
0.000393254
0.000316993
0.000320627
0.000398799
0.000492444
0.000557982
0.000596238
0.000610622
0.000603186
0.000574429
0.000524958
0.000460367
0.00040176
0.000357795
0.000348
0.000345436
0.000348476
0.000343927
0.000341954
0.000341452
0.00034145
0.000341948
0.000343916
0.00034846
0.000345377
0.000347803
0.000357104
0.000399473
0.000454578
0.000512307
0.000549766
0.000559065
0.000537145
0.000481796
0.000393836
0.000317346
0.000320674
0.000398924
0.000492793
0.000558811
0.000598022
0.000614229
0.00061015
0.000587257
0.000547078
0.000493851
0.000437734
0.000390622
0.000360107
0.000341579
0.000334557
0.000331384
0.000330245
0.000329917
0.000329914
0.000330237
0.000331367
0.00033452
0.000341483
0.000359835
0.000389808
0.000435393
0.000488034
0.000534442
0.000562615
0.000566027
0.00054072
0.000483526
0.000394628
0.000317829
0.000320719
0.000399047
0.00049313
0.000559594
0.000599657
0.000617395
0.000615897
0.000597033
0.000562413
0.000515122
0.000461503
0.000410723
0.000371752
0.000345952
0.000334854
0.000330868
0.000329594
0.000329237
0.000329234
0.000329583
0.000330847
0.000334808
0.000345839
0.000371445
0.000409842
0.00045907
0.000509213
0.000549705
0.000572331
0.000571713
0.000543815
0.000485087
0.000395356
0.000318263
0.000320748
0.000399143
0.000493391
0.000560192
0.000600873
0.000619661
0.000619804
0.000603256
0.000571451
0.000526727
0.000473938
0.000421169
0.000378534
0.000349496
0.000336615
0.000332003
0.000330546
0.000330145
0.000330141
0.000330535
0.00033198
0.000336566
0.000349376
0.000378212
0.000420252
0.000471443
0.000520737
0.000558657
0.000578469
0.000575534
0.000545993
0.000486218
0.000395889
0.000318567
0.000320759
0.000399203
0.00049356
0.000560572
0.000601631
0.000621029
0.000622067
0.000606681
0.000576139
0.000532392
0.000479736
0.000425967
0.000381733
0.00035131
0.000337663
0.000332742
0.000331184
0.000330752
0.000330747
0.000331172
0.000332718
0.000337611
0.000351186
0.000381404
0.000425026
0.000477204
0.000526348
0.000563279
0.000581821
0.000577721
0.000547284
0.000486903
0.000396211
0.000318738
0.000320756
0.00039923
0.000493641
0.000560755
0.000601988
0.000621659
0.000623081
0.000608164
0.00057809
0.000534653
0.000481972
0.000427786
0.000382947
0.000352012
0.000338079
0.000333038
0.000331437
0.000330989
0.000330983
0.000331423
0.000333013
0.000338026
0.000351886
0.000382614
0.000426833
0.000479423
0.000528583
0.000565195
0.000583264
0.000578691
0.000547871
0.000487218
0.000396358
0.000318804
0.000320744
0.000399229
0.000493644
0.000560761
0.000601999
0.000621678
0.000623107
0.0006082
0.000578135
0.000534708
0.000482032
0.000427847
0.000382997
0.000352044
0.000338096
0.000333045
0.000331438
0.000330984
0.000330977
0.000331423
0.000333019
0.000338042
0.000351919
0.000382664
0.000426894
0.000479485
0.000528639
0.000565241
0.000583298
0.000578715
0.000547886
0.000487227
0.000396359
0.00031879
0.000320729
0.0003992
0.000493568
0.000560591
0.000601664
0.000621081
0.000622143
0.000606787
0.000576277
0.000532562
0.000479927
0.000426156
0.000381891
0.000351414
0.000337718
0.000332768
0.000331193
0.000330747
0.00033074
0.000331178
0.000332743
0.000337666
0.000351292
0.000381566
0.000425218
0.000477402
0.000526522
0.000563417
0.000581923
0.00057779
0.000547328
0.000486927
0.000396217
0.000318702
0.000320707
0.000399139
0.000493402
0.000560218
0.000600922
0.000619741
0.000619925
0.000603431
0.000571689
0.000527029
0.000474286
0.000421512
0.000378824
0.000349689
0.000336721
0.00033206
0.000330577
0.000330157
0.000330151
0.000330564
0.000332037
0.000336673
0.000349575
0.000378516
0.00042061
0.000471808
0.000521048
0.000558892
0.000578633
0.000575642
0.00054606
0.000486254
0.000395899
0.000318518
0.000320669
0.000399039
0.000493133
0.000559612
0.000599699
0.000617477
0.000616038
0.000597258
0.000562748
0.000515579
0.000462056
0.000411267
0.000372191
0.000346218
0.00033498
0.000330927
0.00032962
0.000329246
0.000329241
0.000329609
0.000330907
0.000334939
0.000346118
0.000371914
0.000410425
0.000459656
0.000509679
0.000550024
0.000572528
0.000571828
0.000543879
0.00048512
0.000395365
0.000318205
0.000320608
0.000398896
0.000492761
0.000558777
0.000597998
0.000614241
0.000610232
0.00058746
0.000547462
0.000494462
0.000438529
0.000391385
0.00036058
0.000341706
0.000334432
0.000331182
0.00033001
0.000329666
0.000329662
0.000329999
0.000331159
0.000334387
0.00034161
0.000360338
0.000390634
0.000436236
0.000488631
0.000534756
0.000562734
0.000566049
0.000540709
0.000483512
0.000394613
0.00031775
0.00032052
0.000398711
0.000492302
0.000557783
0.000595999
0.000610379
0.000602996
0.000574379
0.000525179
0.000461
0.000402772
0.000358558
0.000347878
0.000344568
0.000347094
0.000342475
0.000340463
0.000339941
0.000339934
0.000340439
0.000342419
0.000346989
0.00034439
0.000347591
0.000357901
0.000400515
0.000455058
0.000512268
0.000549473
0.000558731
0.000536875
0.000481619
0.000393736
0.000317208
0.000320384
0.000398454
0.000491749
0.000556726
0.000594065
0.000606808
0.000596255
0.000561582
0.000502084
0.000428807
0.0004516
0.000317288
0.000350444
0.000375394
0.000401021
0.000384074
0.000378061
0.000376854
0.000376847
0.000378021
0.000383944
0.000400752
0.00037482
0.000349621
0.000316234
0.000447831
0.000421724
0.000488291
0.00053612
0.000551752
0.00053333
0.000479884
0.00039293
0.000316706
0.00032011
0.000398001
0.000490951
0.000555535
0.000592445
0.000604615
0.000593041
0.000556742
0.000500853
0.000563982
0.000336852
0.00030308
0.000321028
0.000330496
0.000330888
0.000330734
0.0003307
0.000330653
0.000330541
0.000330359
0.000329257
0.000318567
0.000299101
0.000329588
0.000546242
0.000484608
0.00053021
0.000548214
0.00053132
0.000478761
0.000392351
0.00031635
0.000319438
0.000396982
0.000489378
0.000553595
0.000590616
0.000603743
0.000594473
0.000562112
0.000506087
0.000438406
0.000481107
0.000330185
0.000341165
0.0003476
0.000343034
0.000349672
0.000352165
0.000352675
0.000352577
0.000351743
0.000348439
0.000339901
0.000340958
0.000330075
0.00031575
0.000455168
0.000422526
0.000487528
0.000534347
0.000549474
0.000531067
0.000478066
0.000391771
0.000315983
0.000317781
0.000394588
0.000485855
0.000549349
0.000586583
0.000601531
0.000596699
0.000572907
0.000530951
0.000476477
0.000429393
0.000388927
0.000373007
0.000360298
0.000350253
0.000348595
0.000348338
0.000348209
0.000348054
0.000347641
0.000346464
0.00034459
0.000347831
0.000352916
0.000364729
0.000405045
0.000455322
0.00050899
0.000543825
0.00055199
0.000530335
0.000476342
0.00039026
0.000314926
0.000313993
0.0003893
0.000478279
0.000540099
0.000576934
0.000593448
0.000593023
0.000577559
0.000548594
0.000509568
0.000468007
0.000430384
0.000399941
0.000376939
0.000360353
0.000353562
0.00035129
0.000350594
0.00035039
0.000350359
0.000350618
0.000352243
0.00035889
0.000374764
0.000399639
0.000438533
0.000484031
0.000524193
0.000548098
0.000549749
0.000525233
0.00047093
0.000386032
0.000311854
0.000306031
0.000378558
0.000463347
0.000521878
0.000557038
0.000574024
0.000576752
0.000567585
0.000548019
0.000519864
0.000486208
0.000450776
0.000417106
0.000390506
0.000371198
0.000362549
0.000359436
0.000358453
0.000358215
0.000358362
0.000359199
0.00036211
0.000370667
0.000390197
0.00041831
0.000455363
0.000493379
0.000523728
0.000539725
0.000536812
0.000511022
0.000458109
0.000376315
0.000304589
0.000290473
0.000358379
0.000436307
0.000489363
0.000521131
0.000537116
0.000541432
0.00053653
0.00052367
0.0005037
0.00047784
0.000448169
0.000418046
0.00039271
0.000375693
0.000367584
0.000364428
0.000363365
0.000363116
0.000363338
0.000364358
0.000367463
0.000375582
0.000392829
0.000418954
0.000450296
0.000480159
0.000502434
0.000512594
0.000507071
0.000482046
0.000432908
0.000357006
0.000289625
0.000261804
0.000323195
0.000391124
0.000436232
0.000462775
0.000476292
0.000480771
0.00047851
0.000470527
0.000457197
0.000438958
0.000417058
0.000394206
0.000374629
0.000361763
0.000355333
0.00035268
0.000351743
0.000351522
0.000351742
0.000352674
0.000355323
0.000361783
0.000374787
0.000394695
0.000417873
0.000439222
0.000454414
0.00046026
0.000453918
0.000431816
0.000389182
0.000322477
0.000261406
0.000212105
0.000267684
0.000323252
0.000358425
0.000378369
0.000388376
0.000391982
0.00039112
0.000386558
0.000378427
0.000366814
0.000352425
0.000337147
0.000323955
0.000315385
0.000311023
0.000309171
0.000308498
0.00030834
0.000308508
0.00030919
0.000311051
0.000315438
0.000324077
0.000337397
0.000352723
0.000366564
0.000376058
0.000379078
0.00037348
0.000356133
0.00032232
0.00026738
0.000211998
0.000140847
0.000212104
0.000261847
0.000290538
0.000305987
0.000313522
0.000316255
0.000315763
0.000312607
0.000306807
0.000298344
0.000287695
0.000276307
0.000266537
0.000260491
0.000257514
0.00025626
0.000255796
0.000255684
0.000255806
0.000256278
0.000257539
0.000260529
0.000266613
0.000276455
0.000287868
0.000298151
0.000305151
0.000307286
0.000302882
0.000289196
0.000261368
0.000211986
0.000140874
0.00016437
0.000278101
0.000359849
0.000408877
0.000436717
0.000451659
0.000459071
0.000462293
0.000463302
0.000463222
0.000462686
0.000462051
0.000461505
0.000461112
0.000460859
0.000460701
0.000460606
0.000460561
0.00046056
0.000460603
0.000460692
0.000460838
0.000461055
0.000461352
0.000461649
0.000461675
0.000460808
0.000457872
0.000450799
0.000436171
0.000408573
0.000359705
0.000278052
0.000164377
0.000278103
0.000319993
0.000379194
0.000419436
0.000443675
0.000457124
0.000463948
0.000466969
0.00046794
0.000467893
0.000467418
0.000466852
0.000466365
0.000466016
0.000465794
0.000465658
0.00046558
0.000465544
0.000465544
0.000465579
0.000465654
0.000465778
0.000465966
0.000466219
0.000466462
0.000466439
0.00046558
0.000462814
0.000456308
0.000443165
0.000419176
0.000379108
0.000320009
0.000278052
0.000359888
0.000379206
0.000439333
0.000483528
0.000511544
0.000527695
0.000536078
0.000539729
0.000540686
0.00054025
0.000539243
0.000538163
0.000537273
0.00053665
0.000536258
0.000536026
0.000535893
0.000535832
0.000535832
0.000535892
0.000536019
0.000536232
0.000536569
0.000537048
0.000537581
0.00053783
0.00053704
0.000533841
0.000526053
0.000510488
0.000482957
0.000439109
0.000379175
0.000359744
0.000408967
0.000419474
0.000483555
0.000532442
0.000564296
0.000582992
0.000592632
0.00059646
0.000596809
0.000595318
0.000593142
0.000591039
0.000589392
0.000588278
0.000587598
0.000587206
0.000586984
0.00058688
0.00058688
0.000586982
0.000587196
0.000587561
0.000588164
0.000589078
0.000590243
0.000591256
0.00059114
0.000588146
0.000579647
0.000562093
0.000531184
0.00048297
0.000419267
0.000408623
0.000436864
0.000443748
0.000511619
0.000564359
0.000599143
0.000619525