/*--------------------------------*- C++ -*----------------------------------*\
| =========                 |                                                 |
| \\      /  F ield         | OpenFOAM: The Open Source CFD Toolbox           |
|  \\    /   O peration     | Version:  2112                                  |
|   \\  /    A nd           | Website:  www.openfoam.com                      |
|    \\/     M anipulation  |                                                 |
\*---------------------------------------------------------------------------*/
FoamFile
{
    version     2.0;
    format      ascii;
    arch        "LSB;label=32;scalar=64";
    class       volScalarField;
    location    "4.4";
    object      k;
}
// * * * * * * * * * * * * * * * * * * * * * * * * * * * * * * * * * * * * * //

dimensions      [0 2 -2 0 0 0 0];

internalField   nonuniform List<scalar> 
64906
(
0.000205093
0.000231924
0.000249219
0.000258189
0.000262576
0.000264622
0.000265521
0.000265877
0.000265988
0.00026599
0.000265949
0.000265895
0.000265854
0.000265824
0.000265802
0.000265785
0.00026577
0.00026576
0.000265757
0.000265763
0.000265775
0.00026579
0.00026581
0.000265832
0.000265857
0.000265861
0.000265771
0.000265444
0.000264576
0.000262552
0.000258181
0.000249221
0.000231936
0.000205105
0.000231947
0.000356163
0.000425159
0.000462357
0.000482356
0.000492725
0.000497745
0.000499899
0.000500587
0.000500578
0.00050029
0.000499949
0.000499664
0.000499469
0.000499354
0.000499287
0.000499249
0.00049923
0.00049923
0.000499248
0.000499285
0.000499347
0.000499443
0.000499582
0.000499718
0.00049968
0.00049907
0.000497089
0.000492276
0.000482098
0.000462244
0.000425137
0.000356183
0.00023198
0.000249276
0.000425201
0.000524051
0.000579238
0.000610141
0.000626815
0.000635132
0.000638666
0.000639581
0.000639177
0.00063825
0.00063728
0.000636511
0.000636012
0.000635729
0.000635572
0.000635484
0.000635444
0.000635446
0.000635488
0.000635575
0.000635721
0.000635964
0.000636345
0.000636807
0.000637037
0.0006363
0.000633212
0.000625456
0.000609311
0.00057882
0.0005239
0.0004252
0.000249331
0.000258272
0.000462444
0.000579284
0.00064624
0.000684704
0.000705853
0.000716353
0.000720406
0.000720707
0.000719044
0.000716661
0.000714401
0.000712685
0.000711612
0.00071102
0.000710682
0.000710486
0.000710395
0.000710397
0.000710492
0.000710686
0.000711005
0.000711534
0.000712427
0.000713685
0.000714871
0.000714916
0.000711846
0.000702603
0.000682651
0.000645131
0.000578806
0.000462339
0.000258336
0.000262674
0.00048248
0.000610241
0.000684778
0.000728197
0.000752072
0.000763368
0.000766585
0.000764789
0.000760294
0.000755002
0.000750364
0.000747013
0.000745038
0.000744005
0.00074339
0.000743007
0.000742823
0.000742827
0.000743015
0.000743395
0.000743987
0.000744939
0.000746685
0.000749456
0.000752749
0.000755163
0.00075396
0.000745253
0.00072383
0.000682336
0.000609107
0.000482136
0.000262729
0.000264727
0.000492882
0.000626995
0.000706067
0.00075227
0.00077712
0.000787504
0.000787908
0.000781622
0.000771643
0.000761072
0.000752572
0.000746823
0.000743739
0.000742289
0.000741322
0.00074066
0.000740333
0.000740337
0.00074067
0.000741332
0.000742274
0.000743636
0.000746466
0.000751562
0.000758529
0.00076583
0.000769404
0.000764083
0.000743919
0.000701335
0.000624712
0.000492091
0.000264744
0.000265629
0.00049795
0.000635459
0.000716861
0.00076406
0.000788179
0.000795646
0.00079052
0.00077603
0.000756139
0.000736523
0.000722905
0.000714631
0.000710886
0.000709519
0.000708228
0.000707213
0.000706709
0.000706714
0.000707227
0.000708243
0.000709516
0.000710802
0.000714301
0.000721907
0.0007339
0.000749989
0.000762976
0.000765101
0.000749463
0.000708598
0.000631402
0.000496446
0.000265568
0.000265993
0.000500189
0.000639266
0.000721497
0.000768329
0.000790212
0.000792638
0.000778503
0.000750086
0.000712288
0.000676787
0.000659911
0.000652077
0.00064996
0.000650108
0.000648767
0.000647491
0.000646868
0.000646874
0.000647508
0.00064879
0.000650122
0.000649915
0.00065183
0.000659061
0.000674333
0.000706151
0.000736663
0.000752174
0.000744908
0.000708406
0.000632813
0.000497706
0.000265807
0.000266119
0.000501034
0.00064065
0.000722833
0.000768475
0.000787127
0.000782776
0.000755801
0.000704763
0.000632019
0.000562543
0.000559132
0.000564572
0.000569962
0.000573913
0.000573384
0.000572427
0.000571963
0.000571969
0.000572445
0.000573413
0.000573946
0.000569968
0.000564457
0.000558587
0.000560624
0.000626308
0.000691338
0.000729013
0.000734171
0.000704086
0.000631456
0.000497433
0.000265778
0.000266145
0.000501271
0.000640973
0.000722787
0.000767096
0.000782518
0.000771147
0.000729107
0.000644571
0.000498163
0.000336678
0.000413691
0.000466031
0.000487662
0.000496524
0.000498233
0.000498466
0.000498469
0.000498475
0.000498484
0.000498264
0.000496568
0.000487712
0.000466063
0.000413626
0.00033598
0.000493545
0.000631425
0.000702108
0.000722049
0.000698807
0.000629318
0.000496674
0.000265654
0.000266138
0.000501319
0.000641025
0.000722605
0.00076615
0.000779726
0.000764159
0.00071171
0.000596023
0.000349721
0.000293266
0.000393131
0.000427296
0.000437891
0.000441621
0.000442771
0.000443057
0.000443061
0.000442783
0.000441643
0.000437926
0.00042735
0.00039321
0.000293306
0.00034735
0.000583382
0.000684658
0.00071483
0.000695694
0.000628011
0.000496175
0.000265556
0.000266122
0.000501367
0.000641182
0.000722902
0.000766655
0.000780745
0.000766901
0.000720883
0.000630831
0.000478276
0.000320486
0.000366195
0.00040818
0.00042484
0.000429106
0.000432958
0.000434234
0.000434486
0.000434486
0.000434233
0.000432957
0.000429101
0.000424833
0.000408151
0.000366008
0.000319689
0.000473602
0.000617623
0.000693735
0.000717514
0.000696602
0.00062835
0.000496281
0.000265531
0.000266112
0.000501464
0.000641516
0.000723682
0.00076832
0.000784294
0.000774719
0.000738964
0.000674612
0.000583433
0.000492246
0.000457592
0.000439866
0.000433371
0.00043085
0.000431151
0.000431348
0.000431351
0.000431348
0.000431338
0.000431132
0.000430813
0.000433298
0.000439684
0.00045702
0.000490346
0.000577772
0.000661108
0.000711806
0.000725376
0.000700153
0.000629939
0.000496881
0.000265603
0.000266106
0.000501589
0.000641936
0.000724669
0.000770401
0.000788498
0.000783049
0.000755266
0.000705719
0.000638244
0.000565632
0.000506828
0.000463492
0.000443163
0.000435448
0.000433084
0.000432348
0.000432108
0.000432102
0.00043233
0.000433052
0.000435391
0.000443055
0.00046324
0.000506102
0.00056336
0.000632204
0.000692035
0.000728073
0.000733717
0.000704344
0.000631935
0.000497663
0.000265692
0.000266098
0.000501705
0.000642333
0.000725586
0.000772277
0.000792087
0.000789591
0.000766636
0.000724259
0.000665294
0.000597054
0.000530563
0.000476986
0.000449922
0.000439134
0.000435364
0.000434102
0.000433699
0.00043369
0.000434077
0.000435322
0.000439067
0.000449799
0.000476708
0.000529776
0.00059464
0.00065908
0.000710452
0.000739377
0.000740218
0.000707877
0.000633699
0.000498366
0.00026576
0.000266087
0.000501789
0.000642639
0.000726286
0.000773666
0.000794628
0.000793934
0.000773562
0.000734403
0.000678444
0.000611045
0.000541502
0.000483707
0.000453617
0.000441302
0.00043686
0.000435329
0.000434819
0.000434806
0.000435296
0.000436811
0.000441229
0.000453487
0.000483418
0.000540682
0.000608564
0.000672134
0.000720501
0.000746223
0.000744489
0.000710335
0.000634968
0.00049887
0.000265794
0.000266072
0.000501838
0.000642836
0.000726733
0.000774533
0.000796159
0.000796428
0.0007773
0.000739487
0.000684534
0.000617147
0.000546287
0.000486707
0.000455328
0.000442335
0.00043759
0.000435924
0.000435338
0.00043532
0.000435885
0.000437536
0.000442258
0.000455194
0.00048641
0.000545422
0.000614631
0.000678168
0.000725519
0.000749894
0.000746916
0.000711789
0.000635736
0.000499168
0.0002658
0.000266056
0.000501855
0.000642933
0.000726952
0.000774949
0.000796873
0.000797552
0.000778917
0.000741585
0.000686926
0.000619451
0.000548088
0.000487832
0.000455975
0.000442723
0.000437856
0.000436124
0.000435483
0.00043546
0.000436079
0.000437798
0.000442642
0.000455838
0.000487531
0.000547196
0.00061692
0.000680535
0.000727584
0.000751474
0.000747999
0.000712457
0.000636093
0.000499298
0.000265786
0.000266043
0.000501848
0.00064294
0.000726967
0.000774971
0.000796905
0.000797595
0.000778973
0.000741655
0.000687009
0.000619541
0.000548176
0.000487898
0.000456014
0.000442738
0.000437853
0.0004361
0.000435426
0.000435397
0.000436049
0.000437791
0.000442655
0.000455876
0.000487598
0.000547285
0.000617014
0.000680622
0.000727658
0.000751533
0.000748044
0.000712489
0.000636111
0.000499295
0.000265764
0.000266039
0.000501822
0.000642857
0.000726777
0.0007746
0.000796253
0.000796556
0.000777469
0.0007397
0.000684789
0.000617429
0.000546564
0.000486914
0.000455453
0.000442388
0.000437586
0.000435858
0.000435187
0.000435156
0.000435805
0.000437523
0.000442305
0.000455317
0.00048662
0.00054569
0.000614927
0.000678436
0.000725743
0.00075007
0.000747047
0.000711882
0.00063579
0.000499163
0.000265746
0.000266046
0.000501772
0.000642671
0.000726352
0.000773767
0.000794774
0.000794138
0.000773839
0.000734766
0.000678892
0.000611557
0.000541975
0.000484083
0.000453847
0.000441408
0.000436868
0.00043524
0.000434621
0.000434593
0.000435187
0.000436804
0.000441326
0.000453717
0.000483805
0.000541157
0.000609109
0.000672609
0.000720882
0.000746511
0.0007447
0.000710481
0.000635054
0.000498873
0.000265728
0.000266054
0.000501687
0.000642366
0.000725657
0.000772388
0.000792256
0.000789843
0.000767003
0.000724773
0.000665974
0.000597877
0.000531296
0.00047757
0.000450267
0.00043929
0.000435378
0.000433992
0.000433484
0.000433462
0.000433943
0.000435317
0.000439214
0.000450149
0.000477321
0.000530556
0.000595528
0.000659808
0.00071099
0.000739751
0.000740475
0.000708051
0.000633803
0.000498378
0.000265688
0.00026606
0.00050156
0.000641941
0.000724694
0.000770457
0.00078861
0.000783264
0.00075565
0.000706358
0.000639212
0.000566883
0.000507952
0.000464245
0.000443507
0.000435514
0.000432949
0.000432073
0.000431746
0.000431729
0.00043203
0.00043289
0.000435439
0.000443399
0.000464038
0.000507328
0.000564732
0.000633248
0.00069268
0.00072843
0.000733917
0.000704468
0.00063201
0.000497667
0.000265616
0.000266061
0.000501388
0.000641413
0.000723537
0.000768151
0.000784144
0.000774665
0.000739131
0.0006752
0.000584648
0.000494045
0.000459141
0.000440299
0.000433048
0.000430098
0.000430103
0.000430145
0.000430074
0.000430059
0.000430102
0.00043003
0.000429982
0.000432886
0.000440094
0.000458733
0.000492343
0.00057908
0.000661583
0.00071181
0.000725234
0.000700026
0.000629866
0.000496824
0.000265517
0.000266053
0.000501147
0.000640777
0.000722296
0.000765879
0.000779867
0.000766036
0.00072025
0.000630845
0.000479557
0.00032147
0.00036645
0.000405939
0.000421217
0.000424645
0.00042805
0.000429155
0.000429338
0.000429318
0.000429082
0.000427884
0.000424306
0.000420669
0.000405312
0.000366177
0.000320675
0.000474889
0.000617098
0.000692546
0.000716375
0.000695775
0.000627858
0.000496034
0.000265426
0.000266018
0.000500724
0.000639876
0.0007209
0.00076395
0.000777117
0.000761236
0.000708643
0.00059335
0.000348625
0.000287794
0.0003812
0.000411844
0.000420118
0.000423058
0.000423992
0.000424201
0.000424147
0.000423786
0.000422538
0.000418959
0.000409679
0.000378063
0.000285506
0.00034501
0.000578629
0.000680016
0.00071123
0.000693229
0.000626532
0.000495465
0.000265387
0.000265891
0.000499779
0.000638151
0.000718707
0.000761908
0.000776358
0.000764061
0.000721041
0.000635566
0.000488912
0.000329146
0.000389093
0.000430865
0.000443049
0.000445378
0.000445618
0.000445686
0.00044568
0.000445578
0.000445261
0.00044442
0.000442415
0.000436785
0.000420302
0.000377732
0.000322792
0.000477123
0.00061663
0.000690583
0.000713711
0.000693124
0.000625802
0.000494942
0.000265322
0.000265538
0.000497552
0.000634327
0.000713975
0.000757443
0.000774163
0.000767793
0.000738154
0.000683044
0.00060378
0.000523905
0.000501658
0.00048681
0.000471349
0.000462641
0.00045907
0.000457876
0.000457503
0.00045735
0.0004572
0.000457013
0.000457082
0.000458338
0.000462639
0.000474066
0.000499141
0.000580646
0.000658348
0.000705491
0.000717518
0.000692536
0.000624004
0.000493572
0.000265102
0.000264653
0.000492584
0.000626097
0.000703669
0.000746688
0.000765306
0.000764388
0.000745772
0.00071017
0.000660352
0.000605726
0.000561104
0.000519433
0.000483455
0.00046569
0.000458876
0.000456612
0.000455929
0.000455744
0.000455764
0.000456165
0.000457922
0.000463961
0.000481002
0.000518475
0.000567745
0.000628585
0.000681108
0.000712035
0.000715497
0.000686995
0.000618193
0.000489628
0.000264365
0.000262625
0.000482321
0.000609692
0.000683148
0.000724208
0.000743419
0.000746259
0.000735329
0.000711796
0.000677024
0.000634182
0.000587889
0.000539955
0.000498095
0.000477084
0.000468813
0.000465982
0.000465117
0.00046491
0.000465033
0.000465773
0.00046841
0.000476488
0.000497657
0.000540919
0.000592448
0.000642948
0.000682296
0.000703179
0.000701063
0.000671064
0.000604153
0.000480356
0.000262468
0.000258248
0.000462422
0.000579081
0.000645397
0.000682353
0.000700403
0.000705137
0.000699333
0.000684093
0.000659912
0.000627737
0.000589734
0.000549562
0.000514659
0.000495523
0.000487377
0.000484373
0.000483399
0.000483177
0.000483365
0.000484294
0.000487239
0.00049537
0.000514646
0.000550334
0.00059183
0.000630333
0.000658675
0.000671957
0.000666496
0.000637441
0.000575632
0.000461304
0.000258192
0.000249275
0.000425286
0.000524111
0.00057902
0.00060914
0.000624073
0.000628984
0.000626452
0.000617412
0.000602036
0.000580562
0.000554255
0.000526278
0.000502179
0.000487951
0.000481356
0.000478799
0.000477948
0.000477755
0.000477934
0.000478766
0.000481304
0.000487904
0.000502251
0.00052667
0.000554998
0.000580798
0.000599067
0.000606375
0.000599703
0.000574563
0.000522355
0.000424813
0.000249295
0.000231975
0.000356284
0.000425356
0.000462531
0.000482284
0.00049196
0.000495471
0.00049475
0.000490509
0.000482758
0.000471423
0.000457106
0.000441695
0.000428324
0.000420033
0.000415974
0.000414316
0.000413736
0.000413602
0.000413739
0.00041432
0.000415979
0.000420048
0.000428391
0.000441871
0.000457338
0.00047118
0.000480557
0.000483531
0.000478082
0.000460757
0.000424794
0.000356213
0.000232029
0.000205128
0.000232027
0.00024941
0.000258458
0.000262897
0.000264943
0.000265735
0.000265783
0.000265237
0.000264058
0.000262265
0.000259865
0.000257128
0.000254647
0.000253059
0.000252246
0.000251875
0.000251704
0.000251646
0.000251711
0.000251883
0.00025225
0.000253059
0.000254646
0.000257132
0.000259869
0.000262194
0.000263707
0.000264007
0.000262589
0.000258449
0.000249501
0.000232113
0.000205176
0.000296428
0.000389887
0.000448966
0.00048146
0.000498753
0.000507564
0.000511756
0.000513526
0.000514081
0.000514065
0.00051382
0.000513525
0.000513271
0.000513088
0.000512967
0.00051289
0.000512841
0.000512816
0.000512814
0.000512836
0.000512881
0.000512952
0.000513056
0.000513194
0.000513328
0.000513318
0.000512833
0.000511203
0.000507175
0.000498513
0.000481334
0.000448913
0.000389875
0.00029644
0.000389894
0.000754109
0.000926065
0.0010224
0.00107649
0.00110576
0.00112049
0.00112697
0.00112897
0.0011287
0.00112747
0.00112603
0.0011248
0.00112391
0.00112334
0.00112299
0.00112278
0.00112269
0.00112269
0.00112278
0.00112298
0.00112331
0.0011238
0.00112447
0.00112515
0.00112527
0.00112357
0.0011177
0.00110372
0.00107516
0.00102162
0.000925661
0.000753932
0.000389886
0.000449007
0.000926147
0.00115355
0.001285
0.00136125
0.00140372
0.0014255
0.00143489
0.00143717
0.0014357
0.00143265
0.00142941
0.00142674
0.00142489
0.00142374
0.00142305
0.00142265
0.00142246
0.00142246
0.00142265
0.00142303
0.00142368
0.00142467
0.00142613
0.00142782
0.00142882
0.00142709
0.00141902
0.00139892
0.00135807
0.00128312
0.00115259
0.000925747
0.000448972
0.000481539
0.00102256
0.0012851
0.0014403
0.00153219
0.00158403
0.00161031
0.00162052
0.00162101
0.00161621
0.00160933
0.00160264
0.00159739
0.0015939
0.00159182
0.00159058
0.00158985
0.0015895
0.00158951
0.00158985
0.00159055
0.00159172
0.00159358
0.0015965
0.00160037
0.00160398
0.00160446
0.0015969
0.00157402
0.00152548
0.00143628
0.00128299
0.00102166
0.000481426
0.000498869
0.00107674
0.00136148
0.00153238
0.00163461
0.00169204
0.00171966
0.0017275
0.00172269
0.00171086
0.00169672
0.00168395
0.00167441
0.00166844
0.00166507
0.00166303
0.00166179
0.0016612
0.0016612
0.00166179
0.001663
0.00166495
0.00166805
0.0016733
0.00168113
0.00169013
0.00169655
0.00169377
0.00167272
0.00162162
0.00152452
0.00135727
0.00107488
0.000498575
0.00050772
0.00110612
0.00140421
0.00158465
0.00169263
0.00175178
0.00177684
0.00177778
0.00176223
0.00173734
0.00171049
0.00168799
0.00167223
0.00166315
0.00165845
0.00165544
0.00165348
0.00165253
0.00165253
0.00165349
0.00165542
0.00165834
0.00166274
0.00167103
0.00168485
0.00170306
0.00172117
0.00172975
0.00171691
0.0016693
0.0015705
0.00139653
0.00110263
0.000507086
0.000511962
0.00112107
0.00142648
0.00161185
0.00172169
0.00177876
0.00179675
0.00178472
0.00175022
0.00170253
0.00165456
0.00161869
0.00159592
0.00158445
0.0015794
0.00157549
0.00157267
0.00157127
0.00157127
0.00157268
0.00157549
0.00157931
0.00158408
0.00159476
0.00161552
0.00164677
0.00168525
0.00171533
0.00171962
0.0016827
0.00158835
0.00141368
0.00111513
0.000510783
0.000513804
0.00112794
0.0014368
0.00162383
0.00173253
0.00178415
0.00179039
0.00175785
0.00169221
0.00160492
0.00152152
0.00147341
0.00144889
0.00143969
0.00143734
0.00143329
0.00142984
0.00142813
0.00142813
0.00142986
0.0014333
0.00143729
0.00143942
0.00144794
0.00147054
0.00151393
0.00158722
0.0016558
0.00168989
0.00167201
0.0015879
0.00141728
0.00111877
0.000511877
0.00051448
0.0011306
0.00144063
0.00162738
0.0017331
0.00177709
0.00176789
0.00170694
0.00159261
0.00143211
0.00127738
0.00124337
0.00124313
0.00124926
0.00125467
0.00125307
0.00125054
0.0012492
0.00124921
0.00125056
0.00125309
0.00125467
0.00124913
0.00124255
0.00124126
0.00127076
0.00141467
0.00155529
0.00163699
0.00164661
0.00157717
0.00141358
0.00111781
0.000511692
0.000514649
0.00113132
0.00144149
0.00162723
0.00172967
0.00176611
0.00174119
0.00164799
0.00146529
0.0011529
0.000709707
0.000906088
0.00101008
0.00105304
0.00106838
0.00107453
0.00107564
0.00107559
0.00107559
0.00107566
0.00107457
0.00106843
0.00105307
0.00100997
0.000905426
0.000706161
0.00113662
0.00142733
0.00157656
0.00161795
0.00156391
0.00140772
0.00111532
0.000511083
0.000514654
0.0011314
0.00144151
0.00162655
0.00172699
0.00175897
0.00172461
0.00161017
0.00136829
0.000757087
0.000550037
0.000816931
0.000890997
0.000915453
0.000922761
0.00092476
0.00092521
0.000925216
0.000924779
0.000922795
0.000915505
0.00089107
0.000817013
0.000549993
0.00074581
0.00133007
0.00153786
0.00160032
0.00155559
0.0014038
0.00111349
0.000510642
0.000514649
0.00113146
0.00144176
0.00162696
0.00172756
0.00176011
0.00172828
0.00162411
0.00142529
0.00109009
0.000644406
0.000768642
0.000860256
0.000899273
0.00091531
0.00091718
0.000917247
0.000917182
0.00091718
0.000917241
0.00091717
0.00091529
0.000899226
0.000860091
0.000767893
0.000640764
0.00107372
0.00138697
0.00155198
0.00160395
0.00155648
0.00140396
0.0011134
0.000510647
0.000514678
0.0011317
0.0014425
0.0016286
0.00173099
0.0017673
0.00174392
0.00165976
0.00151013
0.00129883
0.00107856
0.000968964
0.000909103
0.000886729
0.000879878
0.000878548
0.000878248
0.000878116
0.000878113
0.000878239
0.000878527
0.000879821
0.000886568
0.000908571
0.000967066
0.00107218
0.0012813
0.00147203
0.00158814
0.00162002
0.0015639
0.00140742
0.00111488
0.000511031
0.00051473
0.00113206
0.00144352
0.00163086
0.00173559
0.00177637
0.00176158
0.00169375
0.0015741
0.00141056
0.00123042
0.00107608
0.000956909
0.000899415
0.000878081
0.000871576
0.000869752
0.000869271
0.000869268
0.00086974
0.000871546
0.000878
0.000899184
0.000956186
0.00107371
0.00122328
0.00139258
0.00153609
0.00162249
0.00163806
0.00157326
0.00141214
0.00111703
0.00051156
0.000514781
0.00113244
0.00144454
0.00163306
0.00173992
0.00178443
0.00177598
0.00171843
0.00161403
0.00146881
0.00129897
0.00113032
0.000987865
0.000913648
0.000884409
0.000874698
0.000871829
0.000871095
0.000871092
0.000871817
0.000874665
0.00088432
0.00091339
0.000987069
0.00112776
0.00129151
0.00145059
0.001576
0.0016473
0.00165264
0.00158146
0.00141651
0.00111909
0.000512036
0.000514815
0.00113275
0.00144536
0.00163479
0.00174322
0.0017903
0.00178582
0.00173393
0.00163665
0.00149828
0.0013309
0.00115642
0.00100431
0.000922546
0.000889421
0.000878106
0.000874708
0.000873843
0.00087384
0.000874696
0.000878074
0.00088933
0.000922279
0.00100349
0.00115379
0.00132328
0.00147989
0.00159851
0.00166278
0.0016625
0.00158734
0.00141975
0.00112065
0.000512372
0.000514828
0.00113295
0.0014459
0.00163592
0.00174532
0.00179392
0.0017916
0.00174251
0.00164829
0.00151234
0.00134527
0.00116812
0.00101194
0.000926925
0.000892061
0.000880023
0.000876385
0.000875458
0.000875454
0.000876373
0.000879991
0.000891968
0.000926654
0.00101111
0.00116548
0.00133757
0.00149385
0.00161006
0.00167129
0.00166823
0.0015909
0.00142177
0.00112162
0.000512561
0.000514825
0.00113305
0.00144616
0.00163647
0.00174633
0.00179561
0.00179422
0.00174626
0.00165316
0.00151795
0.00135078
0.00117252
0.00101485
0.000928621
0.000893095
0.000880779
0.000877046
0.000876091
0.000876087
0.000877033
0.000880746
0.000893
0.000928347
0.00101401
0.00116988
0.00134304
0.00149941
0.00161487
0.00167499
0.00167081
0.00159255
0.00142271
0.00112207
0.000512635
0.000514812
0.00113305
0.00144617
0.00163649
0.00174635
0.00179565
0.00179428
0.00174634
0.00165326
0.00151807
0.00135091
0.00117265
0.00101497
0.000928699
0.000893134
0.000880798
0.000877055
0.000876095
0.00087609
0.000877042
0.000880764
0.000893039
0.000928425
0.00101413
0.00117
0.00134317
0.00149952
0.00161497
0.00167507
0.00167087
0.00159258
0.00142273
0.00112208
0.000512619
0.000514795
0.00113295
0.00144592
0.00163596
0.00174539
0.00179403
0.00179176
0.00174273
0.00164858
0.0015127
0.00134567
0.00116851
0.00101233
0.000927179
0.000892199
0.000880102
0.000876437
0.000875494
0.00087549
0.000876424
0.00088007
0.000892109
0.000926914
0.00101151
0.0011659
0.00133798
0.00149421
0.00161035
0.00167151
0.00166838
0.001591
0.00142183
0.00112163
0.000512521
0.00051477
0.00113274
0.00144538
0.00163484
0.0017433
0.00179045
0.00178605
0.00173428
0.00163713
0.0014989
0.00133163
0.0011572
0.00100504
0.000923036
0.000889716
0.000878303
0.000874864
0.000873981
0.000873978
0.000874856
0.000878279
0.000889639
0.000922793
0.00100426
0.00115463
0.00132404
0.00148053
0.00159899
0.00166311
0.00166272
0.00158747
0.00141983
0.00112067
0.000512319
0.000514726
0.00113241
0.00144452
0.00163305
0.00173994
0.00178452
0.00177619
0.00171882
0.00161468
0.00146975
0.00130016
0.00113163
0.000989028
0.000914406
0.000884874
0.000875022
0.000872102
0.000871353
0.000871353
0.000872103
0.000875012
0.000884819
0.000914199
0.000988313
0.00112918
0.00129276
0.00145154
0.0015766
0.00164762
0.0016528
0.00158153
0.00141653
0.00111908
0.000511972
0.000514658
0.00113195
0.00144335
0.00163064
0.00173534
0.00177615
0.00176149
0.00169393
0.00157475
0.00141182
0.00123222
0.00107805
0.000958341
0.000900103
0.00087832
0.000871596
0.000869704
0.000869212
0.000869216
0.000869713
0.000871596
0.000878273
0.000899919
0.000957724
0.00107585
0.00122518
0.00139382
0.00153656
0.00162245
0.00163782
0.00157301
0.00141196
0.00111691
0.000511472
0.000514559
0.00113136
0.00144191
0.00162777
0.00172995
0.00176616
0.00174285
0.00165903
0.00151021
0.00130022
0.00108109
0.000971332
0.000909444
0.000885467
0.000877792
0.000876049
0.000875633
0.000875486
0.000875488
0.000875629
0.000876003
0.000877634
0.000885116
0.00090878
0.000969602
0.00107487
0.00128252
0.00147147
0.00158674
0.00161854
0.00156271
0.00140663
0.00111444
0.000510877
0.000514407
0.00113055
0.00144016
0.00162467
0.00172465
0.00175672
0.00172465
0.00162069
0.001423
0.00109076
0.000646195
0.000767831
0.000853404
0.000888927
0.000902987
0.000904057
0.000903951
0.000903879
0.000903864
0.000903866
0.000903766
0.000902237
0.000887485
0.000851476
0.000766438
0.00064247
0.0010736
0.00138262
0.00154669
0.00159931
0.00155302
0.00140171
0.00111217
0.000510326
0.000514101
0.00112914
0.00143761
0.00162104
0.00171999
0.00175065
0.00171516
0.00159989
0.00135814
0.000750534
0.000530562
0.000780924
0.000846059
0.000864412
0.000870211
0.00087211
0.000872614
0.000872508
0.000871656
0.000868924
0.000861313
0.000839957
0.000771551
0.00052279
0.000734334
0.00131349
0.00152295
0.00158867
0.00154728
0.00139841
0.00111052
0.000509932
0.000513358
0.00112607
0.00143272
0.00161512
0.0017145
0.00174807
0.00172016
0.00162344
0.00143629
0.00111841
0.000674302
0.000826692
0.000907161
0.000927063
0.000926656
0.000929538
0.000930844
0.000931146
0.000930904
0.000929778
0.00092638
0.000918581
0.000909632
0.000876968
0.000791326
0.000649483
0.00107949
0.00138198
0.0015423
0.00159297
0.00154638
0.00139619
0.0011088
0.000509522
0.000511536
0.00111916
0.00142223
0.00160269
0.0017028
0.00174149
0.00172643
0.00165758
0.00153103
0.00135032
0.00116259
0.00108186
0.00103075
0.000984441
0.000958069
0.000948904
0.000946138
0.000945302
0.000944909
0.000944361
0.000943384
0.000942976
0.000949012
0.00096591
0.0010076
0.00109325
0.00128678
0.00146427
0.00157185
0.00159978
0.00154384
0.00139098
0.0011045
0.000508356
0.000507382
0.00110448
0.0014005
0.00157659
0.00167595
0.00171907
0.00171609
0.00167104
0.00158569
0.00146608
0.00133213
0.00121414
0.00110483
0.0010087
0.000959655
0.000940972
0.00093485
0.000933021
0.000932523
0.000932553
0.000933587
0.000938445
0.000955813
0.00100396
0.00110566
0.00123514
0.00138418
0.00150966
0.00158336
0.00159302
0.00152933
0.00137564
0.00109299
0.000504984
0.000498642
0.00107552
0.00135871
0.00152624
0.00162172
0.00166655
0.00167222
0.00164436
0.00158567
0.00149932
0.00139231
0.00127505
0.00115383
0.00104505
0.000987992
0.000965179
0.000957303
0.000954864
0.000954285
0.000954657
0.000956781
0.00096422
0.000986767
0.00104473
0.00115798
0.00128801
0.00141283
0.00150908
0.00156068
0.00155788
0.00149046
0.00134028
0.0010672
0.000497005
0.000481419
0.00102177
0.00128333
0.00143626
0.00152343
0.00156628
0.00157665
0.0015606
0.00152073
0.0014584
0.00137604
0.00127904
0.00117679
0.00108753
0.00103686
0.00101456
0.00100619
0.00100341
0.00100276
0.00100334
0.00100602
0.00101429
0.00103667
0.00108819
0.0011797
0.00128503
0.00138205
0.00145349
0.00148799
0.0014773
0.0014111
0.00127078
0.00101631
0.000480435
0.000448973
0.000925723
0.00115264
0.0012828
0.00135618
0.00139295
0.00140432
0.00139606
0.00137048
0.00132821
0.00127019
0.00119996
0.00112575
0.00106177
0.00102305
0.00100462
0.00099716
0.00099452
0.000993897
0.000994529
0.000997172
0.00100466
0.00102322
0.00106242
0.00112734
0.00120227
0.00127052
0.00131934
0.00134021
0.00132602
0.00126695
0.00114508
0.000922586
0.000448492
0.000389915
0.00075395
0.000925774
0.00102157
0.00107428
0.0011006
0.00110967
0.00110616
0.00109185
0.00106699
0.00103189
0.000988649
0.00094279
0.000903252
0.000878399
0.000865986
0.000860726
0.000858796
0.00085834
0.000858839
0.000860811
0.000866124
0.000878643
0.000903744
0.000943659
0.000989583
0.00103108
0.00106003
0.00107075
0.00105791
0.00101341
0.000922131
0.000752548
0.000389773
0.000296467
0.000389914
0.000449022
0.000481487
0.000498581
0.000506839
0.000509818
0.00050926
0.000505771
0.000499351
0.000489941
0.000478004
0.000465103
0.000453908
0.000446909
0.00044344
0.000441972
0.000441428
0.000441297
0.00044144
0.000441994
0.000443469
0.000446954
0.000453996
0.000465273
0.000478195
0.000489713
0.000497497
0.000499886
0.000495077
0.000479936
0.000448444
0.000389759
0.000296503
0.000328758
0.000467354
0.000555343
0.000605016
0.000632427
0.000646956
0.000654135
0.000657256
0.000658234
0.000658154
0.000657629
0.000657006
0.000656468
0.000656081
0.00065583
0.000655674
0.000655581
0.000655537
0.000655536
0.000655578
0.000655666
0.000655809
0.000656024
0.000656315
0.000656607
0.000656633
0.000655793
0.000652948
0.000646098
0.000631874
0.0006047
0.000555187
0.000467295
0.000328768
0.000467357
0.000949101
0.00117439
0.00130385
0.00137862
0.00142021
0.0014417
0.00145135
0.00145432
0.00145378
0.0014517
0.00144926
0.00144715
0.0014456
0.00144459
0.00144396
0.0014436
0.00144342
0.00144342
0.00144359
0.00144394
0.00144452
0.00144538
0.00144654
0.00144772
0.00144802
0.00144552
0.00143686
0.00141659
0.00137618
0.00130235
0.00117356
0.000948699
0.000467295
0.000555384
0.00117449
0.0014641
0.00163488
0.0017364
0.00179428
0.00182459
0.00183786
0.00184102
0.00183867
0.00183391
0.0018288
0.00182452
0.0018215
0.00181958
0.00181841
0.00181774
0.00181742
0.00181742
0.00181773
0.00181837
0.00181944
0.0018211
0.00182346
0.00182618
0.00182786
0.00182554
0.00181427
0.00178649
0.00173108
0.0016316
0.00146229
0.00117365
0.000555226
0.000605106
0.00130406
0.00163502
0.00183374
0.00195394
0.00202313
0.0020588
0.00207279
0.00207329
0.00206622
0.00205604
0.00204595
0.00203788
0.00203241
0.00202908
0.00202707
0.00202589
0.00202535
0.00202535
0.00202588
0.00202701
0.00202888
0.00203185
0.00203639
0.00204233
0.00204781
0.00204877
0.00203858
0.00200778
0.00194338
0.00182716
0.00163134
0.00130232
0.000604746
0.000632572
0.00137897
0.00173676
0.00195424
0.00208682
0.00216259
0.00219954
0.00221007
0.00220331
0.00218661
0.00216633
0.00214753
0.00213318
0.002124
0.0021187
0.00211548
0.00211355
0.00211264
0.00211264
0.00211354
0.00211542
0.00211847
0.00212332
0.00213137
0.0021431
0.0021563
0.00216558
0.0021621
0.00213421
0.00206726
0.00194196
0.0017298
0.00137559
0.00063181
0.000647169
0.00142077
0.00179506
0.00202411
0.00216351
0.00224104
0.00227429
0.00227557
0.00225453
0.00222036
0.00218261
0.00214971
0.0021259
0.00211182
0.00210437
0.00209959
0.00209656
0.00209512
0.00209512
0.00209655
0.00209953
0.00210414
0.0021111
0.00212392
0.00214476
0.00217132
0.00219663
0.00220835
0.00219147
0.00212954
0.00200276
0.00178286
0.00141471
0.000645705
0.000654451
0.00144266
0.0018262
0.00206123
0.00220267
0.00227717
0.00230105
0.00228546
0.00223989
0.00217591
0.00210935
0.00205589
0.00201997
0.00200114
0.00199262
0.00198611
0.0019816
0.00197945