/*--------------------------------*- C++ -*----------------------------------*\
| =========                 |                                                 |
| \\      /  F ield         | OpenFOAM: The Open Source CFD Toolbox           |
|  \\    /   O peration     | Version:  2112                                  |
|   \\  /    A nd           | Website:  www.openfoam.com                      |
|    \\/     M anipulation  |                                                 |
\*---------------------------------------------------------------------------*/
FoamFile
{
    version     2.0;
    format      ascii;
    arch        "LSB;label=32;scalar=64";
    class       volScalarField;
    location    "4.4";
    object      nut;
}
// * * * * * * * * * * * * * * * * * * * * * * * * * * * * * * * * * * * * * //

dimensions      [0 2 -1 0 0 0 0];

internalField   nonuniform List<scalar> 
64906
(
3.61093e-05
3.84441e-05
3.98868e-05
4.06223e-05
4.09819e-05
4.11511e-05
4.12262e-05
4.12564e-05
4.12659e-05
4.1266e-05
4.12623e-05
4.12575e-05
4.12537e-05
4.12511e-05
4.12492e-05
4.12477e-05
4.12465e-05
4.12456e-05
4.12454e-05
4.12459e-05
4.12469e-05
4.12482e-05
4.12499e-05
4.12519e-05
4.12542e-05
4.12546e-05
4.12469e-05
4.12193e-05
4.11467e-05
4.09796e-05
4.06215e-05
3.98869e-05
3.84451e-05
3.61103e-05
3.84462e-05
4.77144e-05
5.21825e-05
5.44586e-05
5.56566e-05
5.62753e-05
5.65765e-05
5.67066e-05
5.67484e-05
5.67475e-05
5.67293e-05
5.67075e-05
5.66893e-05
5.66767e-05
5.66691e-05
5.66647e-05
5.66622e-05
5.6661e-05
5.6661e-05
5.66622e-05
5.66646e-05
5.66686e-05
5.66749e-05
5.66839e-05
5.66926e-05
5.66905e-05
5.66535e-05
5.6534e-05
5.62458e-05
5.5639e-05
5.44503e-05
5.21804e-05
4.77154e-05
3.8449e-05
3.98916e-05
5.21852e-05
5.79884e-05
6.10102e-05
6.26539e-05
6.35325e-05
6.39711e-05
6.41584e-05
6.42069e-05
6.41846e-05
6.41337e-05
6.40801e-05
6.40372e-05
6.4009e-05
6.39928e-05
6.39836e-05
6.39785e-05
6.39763e-05
6.39764e-05
6.39787e-05
6.39837e-05
6.39922e-05
6.4006e-05
6.40275e-05
6.40532e-05
6.40661e-05
6.40271e-05
6.38637e-05
6.34552e-05
6.26053e-05
6.09844e-05
5.79778e-05
5.21842e-05
3.9896e-05
4.06291e-05
5.4464e-05
6.10127e-05
6.44886e-05
6.6419e-05
6.74666e-05
6.79857e-05
6.81866e-05
6.82013e-05
6.81173e-05
6.79962e-05
6.78803e-05
6.77915e-05
6.77352e-05
6.77036e-05
6.76856e-05
6.76751e-05
6.76703e-05
6.76704e-05
6.76754e-05
6.76857e-05
6.77027e-05
6.77307e-05
6.77773e-05
6.78421e-05
6.79025e-05
6.79051e-05
6.77528e-05
6.72961e-05
6.63082e-05
6.44258e-05
6.09831e-05
5.44557e-05
4.06342e-05
4.09899e-05
5.56642e-05
6.26594e-05
6.64229e-05
6.85356e-05
6.96795e-05
7.02187e-05
7.03727e-05
7.02866e-05
7.00694e-05
6.98114e-05
6.95827e-05
6.94155e-05
6.93156e-05
6.92625e-05
6.92308e-05
6.92114e-05
6.92021e-05
6.92023e-05
6.92117e-05
6.9231e-05
6.92613e-05
6.931e-05
6.9398e-05
6.95355e-05
6.96966e-05
6.98132e-05
6.9755e-05
6.93384e-05
6.83112e-05
6.62914e-05
6.25931e-05
5.56403e-05
4.09939e-05
4.11595e-05
5.6285e-05
6.35425e-05
6.7478e-05
6.96897e-05
7.08593e-05
7.13461e-05
7.13664e-05
7.10719e-05
7.05996e-05
7.0093e-05
6.96792e-05
6.9395e-05
6.92398e-05
6.91654e-05
6.91163e-05
6.90831e-05
6.90669e-05
6.90671e-05
6.90836e-05
6.91166e-05
6.91644e-05
6.92341e-05
6.9376e-05
6.96268e-05
6.99641e-05
7.03114e-05
7.04783e-05
7.0226e-05
6.92733e-05
6.72311e-05
6.34136e-05
5.6233e-05
4.116e-05
4.1235e-05
5.65892e-05
6.39894e-05
6.80125e-05
7.02537e-05
7.13795e-05
7.17279e-05
7.14932e-05
7.0819e-05
6.98804e-05
6.89371e-05
6.82654e-05
6.78479e-05
6.76539e-05
6.75804e-05
6.75136e-05
6.74623e-05
6.74369e-05
6.74371e-05
6.74629e-05
6.75143e-05
6.758e-05
6.76491e-05
6.78299e-05
6.82124e-05
6.88017e-05
6.95718e-05
7.01815e-05
7.02766e-05
6.95393e-05
6.75899e-05
6.37652e-05
5.6493e-05
4.12286e-05
4.1266e-05
5.6725e-05
6.41921e-05
6.82439e-05
7.04602e-05
7.1479e-05
7.15954e-05
7.09453e-05
6.96159e-05
6.78056e-05
6.60521e-05
6.51786e-05
6.47545e-05
6.46295e-05
6.46283e-05
6.45552e-05
6.44878e-05
6.44552e-05
6.44555e-05
6.44887e-05
6.45563e-05
6.46288e-05
6.46266e-05
6.47402e-05
6.51312e-05
6.59196e-05
6.74878e-05
6.89478e-05
6.96732e-05
6.93252e-05
6.75821e-05
6.38402e-05
5.65688e-05
4.12487e-05
4.12769e-05
5.6777e-05
6.42669e-05
6.8312e-05
7.04701e-05
7.13395e-05
7.11446e-05
6.98942e-05
6.74649e-05
6.38472e-05
6.01816e-05
5.9938e-05
6.01832e-05
6.04499e-05
6.0654e-05
6.06186e-05
6.05637e-05
6.05376e-05
6.0538e-05
6.05648e-05
6.06201e-05
6.06557e-05
6.04498e-05
6.01757e-05
5.99046e-05
6.00677e-05
6.35325e-05
6.67742e-05
6.85782e-05
6.88144e-05
6.73704e-05
6.37695e-05
5.65526e-05
4.12463e-05
4.12793e-05
5.67919e-05
6.42848e-05
6.8311e-05
7.04062e-05
7.11267e-05
7.06068e-05
6.86373e-05
6.45033e-05
5.6658e-05
4.65091e-05
5.14841e-05
5.4603e-05
5.58439e-05
5.63507e-05
5.64406e-05
5.64506e-05
5.64498e-05
5.64502e-05
5.64516e-05
5.64424e-05
5.63532e-05
5.58467e-05
5.46045e-05
5.14785e-05
4.64551e-05
5.63706e-05
6.37949e-05
6.72848e-05
6.82323e-05
6.71096e-05
6.36567e-05
5.65068e-05
4.1236e-05
4.12787e-05
5.6795e-05
6.42878e-05
6.83021e-05
7.03609e-05
7.09954e-05
7.02782e-05
6.7801e-05
6.20079e-05
4.74331e-05
4.32944e-05
5.00816e-05
5.22061e-05
5.28493e-05
5.30753e-05
5.31454e-05
5.31629e-05
5.31632e-05
5.31461e-05
5.30767e-05
5.28515e-05
5.22096e-05
5.00866e-05
4.32972e-05
4.72561e-05
6.1299e-05
6.64284e-05
6.788e-05
6.69533e-05
6.35866e-05
5.64763e-05
4.12278e-05
4.12775e-05
5.6798e-05
6.42961e-05
6.83161e-05
7.03831e-05
7.10387e-05
7.03977e-05
6.82246e-05
6.37733e-05
5.54562e-05
4.5316e-05
4.83091e-05
5.09604e-05
5.1978e-05
5.223e-05
5.24713e-05
5.25521e-05
5.25683e-05
5.25683e-05
5.25521e-05
5.24713e-05
5.22298e-05
5.19775e-05
5.09583e-05
4.82954e-05
4.52536e-05
5.516e-05
6.30534e-05
6.68558e-05
6.80008e-05
6.69935e-05
6.36022e-05
5.64818e-05
4.12254e-05
4.12767e-05
5.6804e-05
6.43136e-05
6.83538e-05
7.04599e-05
7.1199e-05
7.07518e-05
6.90659e-05
6.59333e-05
6.12346e-05
5.61445e-05
5.40194e-05
5.28842e-05
5.24573e-05
5.22896e-05
5.23083e-05
5.23217e-05
5.23225e-05
5.23223e-05
5.23211e-05
5.23071e-05
5.22872e-05
5.24526e-05
5.28723e-05
5.39821e-05
5.60249e-05
6.09099e-05
6.52219e-05
6.7714e-05
6.83698e-05
6.7164e-05
6.36835e-05
5.65171e-05
4.12313e-05
4.12762e-05
5.68117e-05
6.43358e-05
6.8402e-05
7.05571e-05
7.13909e-05
7.11308e-05
6.98202e-05
6.74301e-05
6.40417e-05
6.01874e-05
5.68657e-05
5.42904e-05
5.3038e-05
5.25536e-05
5.24048e-05
5.23588e-05
5.23439e-05
5.23435e-05
5.23577e-05
5.24028e-05
5.255e-05
5.30311e-05
5.42742e-05
5.68204e-05
6.00539e-05
6.37107e-05
6.67258e-05
6.84821e-05
6.87631e-05
6.73674e-05
6.37871e-05
5.65637e-05
4.12389e-05
4.12757e-05
5.68189e-05
6.4357e-05
6.84473e-05
7.06454e-05
7.15558e-05
7.14294e-05
7.03449e-05
6.83102e-05
6.53862e-05
6.18424e-05
5.81923e-05
5.50828e-05
5.34424e-05
5.2773e-05
5.25366e-05
5.24573e-05
5.24319e-05
5.24313e-05
5.24557e-05
5.2534e-05
5.27687e-05
5.34345e-05
5.50652e-05
5.81443e-05
6.17042e-05
6.50529e-05
6.76091e-05
6.90141e-05
6.90706e-05
6.75399e-05
6.38795e-05
5.66061e-05
4.12448e-05
4.12749e-05
5.68243e-05
6.43736e-05
6.84822e-05
7.07115e-05
7.16735e-05
7.16288e-05
7.0665e-05
6.87902e-05
6.60335e-05
6.25692e-05
5.8797e-05
5.54762e-05
5.36648e-05
5.2904e-05
5.26261e-05
5.25297e-05
5.24976e-05
5.24968e-05
5.25277e-05
5.2623e-05
5.28993e-05
5.36565e-05
5.54579e-05
5.87475e-05
6.24288e-05
6.56984e-05
6.80894e-05
6.93368e-05
6.92737e-05
6.76609e-05
6.39466e-05
5.66368e-05
4.12479e-05
4.12738e-05
5.68275e-05
6.43843e-05
6.85047e-05
7.07531e-05
7.17451e-05
7.17441e-05
7.08387e-05
6.90314e-05
6.63334e-05
6.28859e-05
5.90611e-05
5.56523e-05
5.37686e-05
5.29671e-05
5.26705e-05
5.25656e-05
5.25286e-05
5.25275e-05
5.25631e-05
5.26671e-05
5.29622e-05
5.37601e-05
5.56337e-05
5.90096e-05
6.27443e-05
6.5997e-05
6.83299e-05
6.95107e-05
6.93898e-05
6.77331e-05
6.39875e-05
5.66551e-05
4.12486e-05
4.12725e-05
5.68286e-05
6.43896e-05
6.85157e-05
7.07731e-05
7.17786e-05
7.17963e-05
7.09143e-05
6.91314e-05
6.64517e-05
6.3006e-05
5.91611e-05
5.57188e-05
5.38081e-05
5.2991e-05
5.26868e-05
5.25778e-05
5.25373e-05
5.25359e-05
5.25749e-05
5.26832e-05
5.29859e-05
5.37994e-05
5.56999e-05
5.91079e-05
6.28638e-05
6.61146e-05
6.84293e-05
6.95859e-05
6.9442e-05
6.77664e-05
6.40067e-05
5.66632e-05
4.12476e-05
4.12714e-05
5.68282e-05
6.439e-05
6.85164e-05
7.07742e-05
7.17801e-05
7.17983e-05
7.09169e-05
6.91348e-05
6.64559e-05
6.30108e-05
5.91661e-05
5.57228e-05
5.38106e-05
5.2992e-05
5.26866e-05
5.25762e-05
5.25337e-05
5.25319e-05
5.25731e-05
5.26827e-05
5.29868e-05
5.38018e-05
5.5704e-05
5.91128e-05
6.28688e-05
6.61189e-05
6.84329e-05
6.95888e-05
6.94441e-05
6.7768e-05
6.40077e-05
5.6663e-05
4.12458e-05
4.12711e-05
5.68265e-05
6.43854e-05
6.85068e-05
7.07562e-05
7.17494e-05
7.175e-05
7.08466e-05
6.90417e-05
6.63463e-05
6.29009e-05
5.90768e-05
5.56649e-05
5.37764e-05
5.29705e-05
5.26702e-05
5.25614e-05
5.2519e-05
5.25171e-05
5.25581e-05
5.26662e-05
5.29652e-05
5.37678e-05
5.56464e-05
5.90245e-05
6.27601e-05
6.60105e-05
6.83408e-05
6.95191e-05
6.93961e-05
6.77376e-05
6.39903e-05
5.66548e-05
4.12442e-05
4.12716e-05
5.68233e-05
6.43752e-05
6.84853e-05
7.07162e-05
7.16802e-05
7.16382e-05
7.0678e-05
6.88077e-05
6.60562e-05
6.25966e-05
5.88235e-05
5.54989e-05
5.36792e-05
5.29106e-05
5.26265e-05
5.2524e-05
5.24849e-05
5.24832e-05
5.25206e-05
5.26225e-05
5.29054e-05
5.36709e-05
5.54814e-05
5.87745e-05
6.2458e-05
6.57225e-05
6.8108e-05
6.93505e-05
6.92837e-05
6.7668e-05
6.39511e-05
5.66369e-05
4.12425e-05
4.12722e-05
5.68178e-05
6.43586e-05
6.84505e-05
7.06504e-05
7.15633e-05
7.14408e-05
7.03619e-05
6.83351e-05
6.54207e-05
6.18868e-05
5.82345e-05
5.51183e-05
5.34639e-05
5.27826e-05
5.25373e-05
5.24499e-05
5.24179e-05
5.24164e-05
5.24468e-05
5.25334e-05
5.27778e-05
5.34563e-05
5.51024e-05
5.81892e-05
6.17522e-05
6.50899e-05
6.76353e-05
6.90317e-05
6.90826e-05
6.75482e-05
6.38848e-05
5.66067e-05
4.1239e-05
4.12725e-05
5.68098e-05
6.43356e-05
6.84026e-05
7.05588e-05
7.13951e-05
7.11397e-05
6.98376e-05
6.74609e-05
6.40917e-05
6.02565e-05
5.69317e-05
5.43365e-05
5.30591e-05
5.25571e-05
5.23953e-05
5.23402e-05
5.23197e-05
5.23187e-05
5.23375e-05
5.23915e-05
5.25522e-05
5.30521e-05
5.43231e-05
5.68923e-05
6.01296e-05
6.37647e-05
6.67569e-05
6.84982e-05
6.87716e-05
6.73726e-05
6.37904e-05
5.65636e-05
4.12327e-05
4.12725e-05
5.67989e-05
6.43071e-05
6.83451e-05
7.04498e-05
7.11896e-05
7.07466e-05
6.90714e-05
6.59611e-05
6.12996e-05
5.62508e-05
5.41148e-05
5.29106e-05
5.2435e-05
5.22394e-05
5.22389e-05
5.22422e-05
5.22381e-05
5.22372e-05
5.22394e-05
5.22341e-05
5.22319e-05
5.24244e-05
5.2897e-05
5.40874e-05
5.61427e-05
6.09799e-05
6.52437e-05
6.77111e-05
6.83601e-05
6.71554e-05
6.36781e-05
5.65129e-05
4.12242e-05
4.12716e-05
5.67837e-05
6.42726e-05
6.82831e-05
7.0342e-05
7.09924e-05
7.03511e-05
6.8188e-05
6.37694e-05
5.55311e-05
4.5388e-05
4.83249e-05
5.081e-05
5.17404e-05
5.19394e-05
5.2153e-05
5.22231e-05
5.2235e-05
5.22336e-05
5.22183e-05
5.21421e-05
5.19173e-05
5.17047e-05
5.07682e-05
4.83047e-05
4.53254e-05
5.52347e-05
6.30198e-05
6.67898e-05
6.79388e-05
6.69475e-05
6.3573e-05
5.64653e-05
4.12167e-05
4.12684e-05
5.67571e-05
6.42234e-05
6.82123e-05
7.02485e-05
7.08631e-05
7.01285e-05
6.76385e-05
6.18531e-05
4.735e-05
4.28617e-05
4.92724e-05
5.12025e-05
5.17089e-05
5.18901e-05
5.19482e-05
5.19613e-05
5.19579e-05
5.19349e-05
5.18564e-05
5.16339e-05
5.10612e-05
4.90596e-05
4.26816e-05
4.70823e-05
6.10266e-05
6.61816e-05
6.76913e-05
6.68211e-05
6.35024e-05
5.64305e-05
4.12132e-05
4.12574e-05
5.66988e-05
6.413e-05
6.81007e-05
7.01468e-05
7.08216e-05
7.02531e-05
6.82238e-05
6.4014e-05
5.60885e-05
4.59479e-05
4.98497e-05
5.24069e-05
5.31188e-05
5.32488e-05
5.32557e-05
5.32573e-05
5.32563e-05
5.32499e-05
5.32306e-05
5.31808e-05
5.3064e-05
5.27275e-05
5.17365e-05
4.90875e-05
4.54772e-05
5.53647e-05
6.29913e-05
6.66882e-05
6.78041e-05
6.68112e-05
6.3461e-05
5.63975e-05
4.12073e-05
4.12273e-05
5.65634e-05
6.39258e-05
6.78632e-05
6.99281e-05
7.07093e-05
7.04132e-05
6.90175e-05
6.63497e-05
6.23209e-05
5.79727e-05
5.66376e-05
5.57207e-05
5.47805e-05
5.42476e-05
5.40266e-05
5.39521e-05
5.39288e-05
5.39193e-05
5.39105e-05
5.39004e-05
5.39085e-05
5.39931e-05
5.42756e-05
5.50049e-05
5.65323e-05
6.10564e-05
6.50709e-05
6.73924e-05
6.79754e-05
6.67746e-05
6.33623e-05
5.63135e-05
4.11884e-05
4.11532e-05
5.62651e-05
6.34908e-05
6.73515e-05
6.94099e-05
7.02849e-05
7.02396e-05
6.93568e-05
6.76398e-05
6.51648e-05
6.23355e-05
5.9911e-05
5.75621e-05
5.5466e-05
5.44017e-05
5.39873e-05
5.38484e-05
5.38063e-05
5.37948e-05
5.37962e-05
5.38213e-05
5.39303e-05
5.43006e-05
5.5329e-05
5.75217e-05
6.02824e-05
6.35111e-05
6.61699e-05
6.76896e-05
6.78659e-05
6.64934e-05
6.30534e-05
5.60769e-05
4.11269e-05
4.09856e-05
5.56528e-05
6.26262e-05
6.63338e-05
6.83293e-05
6.92464e-05
6.93778e-05
6.88482e-05
6.76995e-05
6.597e-05
6.37795e-05
6.13301e-05
5.8698e-05
5.63082e-05
5.50696e-05
5.45734e-05
5.4402e-05
5.43493e-05
5.43366e-05
5.43442e-05
5.43894e-05
5.45495e-05
5.50354e-05
5.6286e-05
5.8757e-05
6.15751e-05
6.42199e-05
6.62113e-05
6.72497e-05
6.7159e-05
6.56978e-05
6.23127e-05
5.55247e-05
4.09707e-05
4.0627e-05
5.44613e-05
6.09987e-05
6.44392e-05
6.62906e-05
6.71803e-05
6.74091e-05
6.71154e-05
6.63472e-05
6.51157e-05
6.34481e-05
6.14303e-05
5.92337e-05
5.72635e-05
5.61539e-05
5.56738e-05
5.5495e-05
5.54366e-05
5.54231e-05
5.54346e-05
5.54903e-05
5.56658e-05
5.61457e-05
5.72642e-05
5.92783e-05
6.15419e-05
6.35759e-05
6.50381e-05
6.5719e-05
6.54587e-05
6.40044e-05
6.07959e-05
5.43854e-05
4.0621e-05
3.98913e-05
5.21899e-05
5.79899e-05
6.09942e-05
6.2593e-05
6.33755e-05
6.36292e-05
6.34902e-05
6.30042e-05
6.21751e-05
6.10062e-05
5.95524e-05
5.79752e-05
5.6586e-05
5.57492e-05
5.5356e-05
5.52022e-05
5.51506e-05
5.51389e-05
5.51498e-05
5.52002e-05
5.5353e-05
5.57467e-05
5.65908e-05
5.79981e-05
5.95928e-05
6.10142e-05
6.20063e-05
6.24056e-05
6.20638e-05
6.07337e-05
5.78791e-05
5.2155e-05
3.98921e-05
3.84485e-05
4.77224e-05
5.21941e-05
5.44671e-05
5.56481e-05
5.62222e-05
5.64288e-05
5.63816e-05
5.61216e-05
5.56484e-05
5.49548e-05
5.4073e-05
5.31134e-05
5.22696e-05
5.17392e-05
5.14768e-05
5.13688e-05
5.13308e-05
5.1322e-05
5.1331e-05
5.13691e-05
5.14772e-05
5.17403e-05
5.22741e-05
5.31246e-05
5.40867e-05
5.49373e-05
5.55102e-05
5.5696e-05
5.53792e-05
5.43484e-05
5.2153e-05
4.77152e-05
3.84528e-05
3.61125e-05
3.84531e-05
3.99028e-05
4.06442e-05
4.10075e-05
4.11758e-05
4.1241e-05
4.12439e-05
4.11969e-05
4.10968e-05
4.09456e-05
4.07444e-05
4.05154e-05
4.03077e-05
4.01741e-05
4.01052e-05
4.00737e-05
4.00591e-05
4.00542e-05
4.00597e-05
4.00743e-05
4.01056e-05
4.01741e-05
4.03076e-05
4.05159e-05
4.07447e-05
4.09392e-05
4.10666e-05
4.10934e-05
4.09787e-05
4.06416e-05
3.99096e-05
3.84603e-05
3.61169e-05
5.61587e-05
6.45086e-05
6.92959e-05
7.18141e-05
7.31332e-05
7.38048e-05
7.41265e-05
7.42635e-05
7.43068e-05
7.43053e-05
7.42855e-05
7.42617e-05
7.4241e-05
7.42261e-05
7.42162e-05
7.42099e-05
7.42059e-05
7.42039e-05
7.42038e-05
7.42055e-05
7.42092e-05
7.4215e-05
7.42234e-05
7.42347e-05
7.42455e-05
7.42449e-05
7.42071e-05
7.40811e-05
7.37724e-05
7.31128e-05
7.1803e-05
6.92909e-05
6.45072e-05
5.61599e-05
6.45093e-05
0.000191243
0.000238822
0.00026245
0.000275367
0.00028245
0.000286116
0.000287766
0.000288265
0.000288153
0.000287769
0.000287324
0.000286939
0.000286657
0.000286473
0.000286358
0.00028629
0.000286259
0.000286259
0.00028629
0.000286356
0.000286462
0.000286622
0.000286837
0.00028706
0.000287133
0.000286721
0.00028525
0.000281801
0.000274921
0.000262163
0.000238642
0.000191132
6.45082e-05
6.92992e-05
0.00023885
0.000306124
0.000340356
0.000359452
0.000370123
0.000375703
0.00037815
0.000378719
0.000378248
0.000377318
0.000376319
0.000375483
0.000374894
0.000374522
0.000374295
0.000374163
0.000374102
0.000374102
0.000374162
0.000374289
0.000374499
0.000374822
0.000375287
0.000375826
0.000376174
0.000375773
0.000373712
0.000368613
0.000358408
0.000339689
0.000305727
0.000238637
6.92955e-05
7.18203e-05
0.0002625
0.000340384
0.000380762
0.0004036
0.000416435
0.000423022
0.000425595
0.000425644
0.000424249
0.000422242
0.000420248
0.000418645
0.000417562
0.000416906
0.000416505
0.00041627
0.000416161
0.000416161
0.000416269
0.000416497
0.000416872
0.000417458
0.000418364
0.000419556
0.00042067
0.000420928
0.000419098
0.000413445
0.000401521
0.000379433
0.000339606
0.000262112
7.18098e-05
7.31422e-05
0.000275438
0.00035952
0.000403656
0.000428772
0.000442751
0.000449508
0.000451388
0.000450029
0.000446758
0.000442758
0.000439027
0.000436156
0.000434326
0.000433281
0.000432625
0.000432225
0.000432036
0.000432037
0.000432224
0.000432615
0.00043324
0.0004342
0.000435814
0.000438184
0.00044085
0.000442769
0.000442283
0.000437261
0.000424952
0.000401211
0.000358096
0.000274749
7.31166e-05
7.3817e-05
0.000282555
0.000370268
0.000416619
0.000442927
0.000457141
0.000463144
0.000463241
0.000459129
0.000452427
0.00044494
0.000438398
0.000433599
0.000430793
0.000429342
0.000428333
0.000427677
0.000427368
0.000427368
0.000427677
0.000428324
0.000429302
0.000430661
0.00043323
0.000437468
0.000442806
0.00044795
0.000450477
0.00044763
0.000436358
0.000412427
0.000367828
0.000281384
7.37639e-05
7.41428e-05
0.000286287
0.000376005
0.000423488
0.000450117
0.000463707
0.000467912
0.000464769
0.000455829
0.000443055
0.00042958
0.000419125
0.000411884
0.00040818
0.000406632
0.000405144
0.000404104
0.000403624
0.000403625
0.000404106
0.00040514
0.000406599
0.000408061
0.000411531
0.000418191
0.000427352
0.000438268
0.000446519
0.000448054
0.000439502
0.00041678
0.000372111
0.000284418
7.40464e-05
7.42859e-05
0.00028806
0.000378744
0.000426603
0.00045288
0.000465087
0.000466383
0.000458092
0.000440969
0.000416962
0.00039236
0.000379126
0.000370558
0.000367115
0.000366542
0.000364393
0.000362858
0.000362206
0.000362207
0.000362861
0.000364393
0.000366521
0.000367026
0.000370269
0.000378293
0.000390219
0.000412062
0.000431206
0.000440548
0.000436781
0.000416619
0.000372991
0.000285294
7.41307e-05
7.43391e-05
0.000288765
0.000379798
0.00042757
0.00045308
0.000463388
0.000460813
0.000445072
0.000414002
0.000365934
0.000311907
0.000312685
0.000311181
0.000311686
0.000314154
0.000311214
0.000309368
0.000308704
0.000308705
0.000309371
0.000311217
0.000314147
0.000311636
0.000311001
0.000312099
0.000310223
0.000361232
0.000403968
0.000426892
0.000430321
0.000413846
0.000371988
0.000285009
7.41166e-05
7.43528e-05
0.000288958
0.000380046
0.000427554
0.000452223
0.000460609
0.000453897
0.000428831
0.000374553
0.000264231
8.73796e-05
0.000204628
0.000241514
0.000252541
0.000259438
0.00025631
0.000254905
0.000254532
0.000254533
0.000254908
0.000256315
0.000259444
0.000252531
0.000241466
0.000204545
8.71395e-05
0.000260477
0.000364497
0.000410186
0.000422767
0.000410352
0.000370391
0.000284321
7.40695e-05
7.43535e-05
0.000288974
0.00038005
0.000427363
0.000451489
0.000458665
0.000449223
0.000416718
0.000333967
9.03153e-05
7.66551e-05
0.000189072
0.000210855
0.000215048
0.00021768
0.000218582
0.00021879
0.000218791
0.000218586
0.000217688
0.000215057
0.000210864
0.000189077
7.66506e-05
8.95861e-05
0.000324346
0.000397859
0.000417756
0.000408033
0.000369274
0.000283794
7.40351e-05
7.43532e-05
0.00028898
0.000380105
0.00042743
0.000451538
0.000458789
0.000450122
0.000422045
0.000363679
0.000249346
8.31001e-05
0.000167103
0.000188571
0.000191797
0.000185744
0.000194492
0.000197507
0.000198091
0.000198092
0.00019751
0.000194498
0.000185741
0.000191789
0.00018854
0.000167002
8.2842e-05
0.000245555
0.000353471
0.000403167
0.000418655
0.000408103
0.000369217
0.000283711
7.40347e-05
7.43556e-05
0.000289036
0.000380291
0.000427811
0.000452283
0.00046035
0.000453781
0.000431613
0.000390973
0.000329795
0.000260592
0.000236169
0.000213742
0.00020486
0.000199947
0.000201979
0.000203006
0.000203244
0.000203244
0.000203005
0.000201976
0.00019993
0.00020482
0.000213613
0.0002357
0.000258995
0.00032504
0.000380669
0.000412897
0.000422495
0.000409796
0.00037002
0.000284042
7.40635e-05
7.43599e-05
0.000289131
0.000380561
0.000428363
0.000453337
0.000462361
0.00045773
0.000439654
0.000407621
0.000362603
0.000311271
0.000266792
0.000228851
0.000213143
0.000207416
0.000206311
0.000206157
0.000206134
0.000206134
0.000206156
0.000206307
0.0002074
0.000213094
0.000228678
0.000266173
0.000309321
0.000357631
0.000397353
0.000421108
0.000426643
0.000411975
0.000371174
0.000284569
7.41039e-05
7.43641e-05
0.000289235
0.000380838
0.000428919
0.000454357
0.000464172
0.000460903
0.000445153
0.000416881
0.000376932
0.000329054
0.000279958
0.000236257
0.000217162
0.000210229
0.000208115
0.000207552
0.000207427
0.000207428
0.000207553
0.000208113
0.000210216
0.000217111
0.000236071
0.000279294
0.000327009
0.000371904
0.000406652
0.000426719
0.000429955
0.000413913
0.000372272
0.000285093
7.41409e-05
7.4367e-05
0.000289322
0.000381067
0.000429368
0.000455157
0.000465521
0.000463086
0.000448545
0.000421865
0.000383566
0.000336365
0.000285772
0.000239813
0.000219167
0.000211506
0.000209023
0.000208322
0.000208164
0.000208165
0.000208324
0.000209022
0.000211494
0.000219116
0.000239624
0.000285095
0.000334287
0.000378516
0.000411651
0.000430164
0.000432212
0.000415333
0.00037311
0.000285501
7.41672e-05
7.43682e-05
0.000289382
0.000381223
0.00042967
0.000455682
0.000466374
0.000464394
0.000450436
0.000424408
0.000386644
0.000339515
0.000288297
0.00024143
0.000220111
0.000212104
0.000209471
0.000208719
0.00020855
0.000208551
0.000208722
0.00020947
0.000212092
0.00022006
0.000241241
0.000287629
0.000337423
0.000381579
0.000414194
0.000432073
0.000433549
0.000416214
0.000373644
0.000285764
7.41823e-05
7.43682e-05
0.000289411
0.0003813
0.000429819
0.000455938
0.000466781
0.000464999
0.000451275
0.000425478
0.00038787
0.000340714
0.00028924
0.000242051
0.000220477
0.000212334
0.000209644
0.000208875
0.000208703
0.000208704
0.000208878
0.000209644
0.000212322
0.000220425
0.000241862
0.00028858
0.000338614
0.000382796
0.000415261
0.000432914
0.000434161
0.000416628
0.000373899
0.000285889
7.41882e-05
7.43672e-05
0.000289412
0.000381302
0.000429823
0.000455944
0.000466789
0.000465009
0.000451288
0.000425495
0.00038789
0.000340735
0.000289262
0.000242078
0.000220493
0.000212342
0.000209649
0.000208879
0.000208707
0.000208709
0.000208882
0.000209649
0.000212331
0.000220442
0.000241888
0.0002886
0.000338634
0.000382816
0.000415277
0.000432928
0.000434171
0.000416635
0.000373903
0.00028589
7.4187e-05
7.43658e-05
0.000289382
0.000381227
0.000429678
0.000455695
0.000466393
0.00046442
0.000450473
0.000424456
0.000386703
0.000339581
0.000288363
0.000241515
0.000220166
0.000212135
0.000209492
0.000208739
0.000208571
0.000208573
0.000208742
0.000209493
0.000212125
0.000220117
0.00024133
0.000287707
0.000337488
0.000381637
0.000414242
0.00043211
0.000433575
0.000416232
0.000373655
0.000285767
7.41792e-05
7.43635e-05
0.000289319
0.000381069
0.000429374
0.000455167
0.000465539
0.000463117
0.000448595
0.00042194
0.000383668
0.000336487
0.000285922
0.000239978
0.000219279
0.00021158
0.000209081
0.000208378
0.000208222
0.000208224
0.000208382
0.000209084
0.000211574
0.000219235
0.000239799
0.000285264
0.000334411
0.000378616
0.000411723
0.000430211
0.000432241
0.000415352
0.000373121
0.000285503
7.41631e-05
7.43598e-05
0.000289222
0.000380824
0.0004289
0.000454337
0.000464157
0.000460905
0.000445188
0.000416968
0.00037708
0.000329261
0.000280238
0.000236534
0.000217356
0.000210372
0.000208232
0.000207665
0.000207544
0.000207547
0.000207672
0.00020824
0.000210371
0.00021732
0.000236368
0.000279597
0.000327222
0.00037205
0.000406726
0.000426739
0.000429949
0.000413901
0.000372261
0.000285082
7.41359e-05
7.43541e-05
0.000289091
0.000380495
0.00042827
0.000453222
0.000462237
0.000457621
0.000439599
0.000407671
0.000362803
0.000311617
0.000267248
0.000229235
0.00021339
0.000207606
0.000206446
0.000206281
0.000206263
0.000206267
0.000206292
0.00020646
0.000207612
0.000213363
0.000229093
0.000266673
0.000309687
0.000357829
0.000397359
0.000420999
0.000426501
0.000411852
0.000371089
0.000284518
7.4097e-05
7.4346e-05
0.000288925
0.000380093
0.000427527
0.000451924
0.00045994
0.000453366
0.000431274
0.000390849
0.000330049
0.000261163
0.00023682
0.000213977
0.000204792
0.000199792
0.000201684
0.000202682
0.000202926
0.000202931
0.000202695
0.000201695
0.000199781
0.000204735
0.000213841
0.00023641
0.000259621
0.000325314
0.000380409
0.000412389
0.000421976
0.00040938
0.000369739
0.000283889
7.4051e-05
7.43335e-05
0.000288697
0.000379596
0.000426707
0.000450622
0.000457718
0.000448965
0.000420948
0.000362975
0.000249714
8.32177e-05
0.000167232
0.000187039
0.000189447
0.000182994
0.000191522
0.000194523
0.000195115
0.000195112
0.000194507
0.000191464
0.000182814
0.000189122
0.000186634
0.000167181
8.29535e-05
0.000245979
0.000352348
0.000401594
0.000417221
0.000407007
0.000368487
0.000283317
7.40084e-05
7.43088e-05
0.000288305
0.000378867
0.000425713
0.000449415
0.000456209
0.000446443
0.000413778
0.000331452
8.98914e-05
7.52098e-05
0.000181094
0.000200679
0.000203478
0.000205973
0.00020697
0.00020723
0.000207209
0.000206875
0.000205693
0.000202782
0.000199322
0.000179124
7.46322e-05
8.88473e-05
0.000320411
0.0003937
0.000414345
0.00040553
0.000367614
0.000282894
7.39774e-05
7.42499e-05
0.000287476
0.000377502
0.000424095
0.000447934
0.000455522
0.000447969
0.000421979
0.000366863
0.000256783
8.5057e-05
0.000186283
0.000217093
0.000222526
0.00022529
0.00022239
0.000221437
0.00022126
0.000221206
0.000221195
0.000221663
0.000223421
0.00021841
0.000209699
0.000178488
8.34077e-05
0.000248212
0.000352569
0.000400644
0.000415634
0.000405252
0.000366982
0.000282433
7.39444e-05
7.41081e-05
0.000285682
0.000374691
0.000420818
0.000444876
0.000453763
0.000449556
0.000431625
0.000397333
0.000344408
0.000283296
0.000270841
0.00025635
0.000242081
0.00023586
0.00023247
0.000231287
0.000230963
0.000230875
0.000230881
0.000231186
0.000232242
0.000233033
0.000237927
0.000250522
0.000265568
0.000327292
0.00037912
0.00040889
0.000417283
0.00040448
0.000365565
0.000281333
7.38533e-05
7.37892e-05
0.000282015
0.000369086
0.000414196
0.000438163
0.000448172
0.000446942
0.000435131
0.000412503
0.000379626
0.000341261
0.000308266
0.000274688
0.000242939
0.000230009
0.000225388
0.000223903
0.000223471
0.000223362
0.000223396
0.000223727
0.000225019
0.000229101
0.000242056
0.000275305
0.000313092
0.000356248
0.0003913
0.000411664
0.000415451
0.000400768
0.000361656
0.000278516
7.35947e-05
7.31231e-05
0.000275007
0.000358585
0.000401718
0.000424921
0.000435461
0.000436354
0.000428751
0.000412928
0.000389171
0.000358835
0.000324592
0.000287263
0.000251703
0.00023667
0.000231255
0.000229467
0.000228925
0.000228799
0.000228884
0.000229367
0.000231075
0.000236422
0.000251747
0.000288502
0.000327886
0.000364118
0.000391345
0.000406158
0.000406899
0.000391241
0.00035291
0.000272386
7.29879e-05
7.18097e-05
0.000262186
0.000339726
0.000379384
0.000400813
0.000411068
0.000413209
0.00040854
0.000397459
0.000380034
0.000356635
0.000328524
0.000298139
0.000271053
0.000257541
0.000252023
0.000250027
0.000249376
0.000249225
0.000249361
0.000249991
0.000251971
0.000257526
0.000271302
0.000298963
0.000330043
0.000358018
0.000378433
0.000388751
0.000387359
0.000371766
0.000335726
0.000260385
7.17259e-05
6.92958e-05
0.000238639
0.000305716
0.000339503
0.000357689
0.000366639
0.000369179
0.000366575
0.000359258
0.000347275
0.000330794
0.000310726
0.000289338
0.000270834
0.000260381
0.000255631
0.000253741
0.000253072
0.000252914
0.000253077
0.000253752
0.000255654
0.000260454
0.000271049
0.000289794
0.000311318
0.000330766
0.000344751
0.000351223
0.000348632
0.000334552
0.000303222
0.000237551
6.92526e-05
6.45107e-05
0.00019112
0.000238622
0.000262047
0.000274514
0.000280704
0.000282727
0.00028156
0.000277556
0.000270756
0.000261253
0.000249609
0.000237276
0.000226661
0.000220184
0.000217006
0.000215662
0.000215164
0.000215046
0.000215179
0.000215692
0.000217055
0.000220269
0.000226822
0.000237537
0.00024987
0.000261024
0.000268922
0.000272203
0.000269696
0.000259538
0.000237433
0.000190626
6.44964e-05
5.61625e-05
6.45105e-05
6.92995e-05
7.18141e-05
7.31158e-05
7.3742e-05
7.39666e-05
7.39198e-05
7.36464e-05
7.31459e-05
7.24122e-05
7.14781e-05
7.0461e-05
6.95696e-05
6.90062e-05
6.87245e-05
6.86045e-05
6.85598e-05
6.85489e-05
6.85608e-05
6.86062e-05
6.87269e-05
6.901e-05
6.9577e-05
7.04746e-05
7.14924e-05
7.23918e-05
7.29976e-05
7.31883e-05
7.28307e-05
7.16832e-05
6.92476e-05
6.44951e-05
5.61658e-05
5.91797e-05
7.06858e-05
7.71339e-05
8.05719e-05
8.24258e-05
8.3403e-05
8.38876e-05
8.40997e-05
8.41665e-05
8.41606e-05
8.41236e-05
8.40796e-05
8.40414e-05
8.40137e-05
8.39958e-05
8.39846e-05
8.3978e-05
8.39748e-05
8.39747e-05
8.39777e-05
8.3984e-05
8.39942e-05
8.40095e-05
8.40302e-05
8.40508e-05
8.40528e-05
8.39954e-05
8.38023e-05
8.33406e-05
8.23848e-05
8.05476e-05
7.71212e-05
7.06804e-05
5.91805e-05
7.0686e-05
0.000253353
0.000327344
0.000364779
0.000385539
0.00039711
0.000403202
0.000405975
0.00040679
0.00040653
0.000405777
0.000404908
0.000404149
0.000403589
0.000403218
0.000402984
0.000402846
0.000402781
0.000402781
0.000402843
0.000402975
0.000403189
0.000403508
0.000403938
0.000404386
0.000404572
0.00040392
0.000401483
0.000395799
0.000384616
0.000364168
0.000326954
0.000253126
7.06804e-05
7.71369e-05
0.000327392
0.000439128
0.0004975
0.000530467
0.000549086
0.000558916
0.000563236
0.000564172
0.000563188
0.000561325
0.00055932
0.00055763
0.000556428
0.000555662
0.00055519
0.000554914
0.000554787
0.000554787
0.00055491
0.000555172
0.000555606
0.000556268
0.000557216
0.000558325
0.000559089
0.000558494
0.000554925
0.000546027
0.000528311
0.000496089
0.000438267
0.000326947
7.71238e-05
8.05782e-05
0.000364868
0.000497556
0.000568391
0.000608918
0.000631867
0.000643704
0.000648292
0.000648226
0.000645429
0.000641424
0.000637406
0.000634154
0.000631949
0.000630608
0.000629778
0.000629289
0.000629062
0.000629061
0.000629283
0.000629754
0.000630528
0.000631721
0.000633566
0.000636007
0.00063833
0.000639055
0.000635934
0.000625909
0.000604716
0.000565653
0.00049592
0.00036407
8.055e-05
8.24358e-05
0.000385672
0.000530609
0.000609036
0.000654154
0.00067941
0.000691628