/*--------------------------------*- C++ -*----------------------------------*\
| =========                 |                                                 |
| \\      /  F ield         | OpenFOAM: The Open Source CFD Toolbox           |
|  \\    /   O peration     | Version:  2112                                  |
|   \\  /    A nd           | Website:  www.openfoam.com                      |
|    \\/     M anipulation  |                                                 |
\*---------------------------------------------------------------------------*/
FoamFile
{
    version     2.0;
    format      ascii;
    arch        "LSB;label=32;scalar=64";
    class       volScalarField;
    location    "4.4";
    object      p;
}
// * * * * * * * * * * * * * * * * * * * * * * * * * * * * * * * * * * * * * //

dimensions      [0 2 -2 0 0 0 0];

internalField   nonuniform List<scalar> 
64906
(
-4.66269e-06
-4.64733e-06
-4.63411e-06
-4.63412e-06
-4.65745e-06
-4.69872e-06
-4.76247e-06
-4.84957e-06
-4.95876e-06
-5.08732e-06
-5.22903e-06
-5.37881e-06
-5.53312e-06
-5.67138e-06
-5.78648e-06
-5.87951e-06
-5.9484e-06
-5.99192e-06
-6.00945e-06
-6.00113e-06
-5.96792e-06
-5.91125e-06
-5.83322e-06
-5.73172e-06
-5.61889e-06
-5.5114e-06
-5.41386e-06
-5.33091e-06
-5.26821e-06
-5.22693e-06
-5.20314e-06
-5.20572e-06
-5.2209e-06
-5.23713e-06
-4.6103e-06
-4.5482e-06
-4.4987e-06
-4.46153e-06
-4.4477e-06
-4.45595e-06
-4.48513e-06
-4.53342e-06
-4.59761e-06
-4.67429e-06
-4.75677e-06
-4.84084e-06
-4.91431e-06
-4.9888e-06
-5.05724e-06
-5.11451e-06
-5.15833e-06
-5.18844e-06
-5.20461e-06
-5.20696e-06
-5.19606e-06
-5.17246e-06
-5.13909e-06
-5.10267e-06
-5.06665e-06
-5.0222e-06
-4.98155e-06
-4.94924e-06
-4.93268e-06
-4.93609e-06
-4.96352e-06
-5.01794e-06
-5.08708e-06
-5.16531e-06
-4.58227e-06
-4.48684e-06
-4.39249e-06
-4.3104e-06
-4.25856e-06
-4.23604e-06
-4.24086e-06
-4.27073e-06
-4.32192e-06
-4.39171e-06
-4.47055e-06
-4.55465e-06
-4.62802e-06
-4.69452e-06
-4.74891e-06
-4.79327e-06
-4.82692e-06
-4.8512e-06
-4.86633e-06
-4.87245e-06
-4.86961e-06
-4.8568e-06
-4.83519e-06
-4.80316e-06
-4.76589e-06
-4.7204e-06
-4.6843e-06
-4.66245e-06
-4.66681e-06
-4.70237e-06
-4.7745e-06
-4.88789e-06
-5.01433e-06
-5.13819e-06
-4.58017e-06
-4.45297e-06
-4.3167e-06
-4.19151e-06
-4.1067e-06
-4.06227e-06
-4.05771e-06
-4.09271e-06
-4.16487e-06
-4.27404e-06
-4.40481e-06
-4.55125e-06
-4.67367e-06
-4.77566e-06
-4.84924e-06
-4.90447e-06
-4.94287e-06
-4.96863e-06
-4.98273e-06
-4.98529e-06
-4.97556e-06
-4.94959e-06
-4.90645e-06
-4.83655e-06
-4.74901e-06
-4.64114e-06
-4.55588e-06
-4.5007e-06
-4.49508e-06
-4.54246e-06
-4.64648e-06
-4.81336e-06
-4.99187e-06
-5.15757e-06
-4.61839e-06
-4.46387e-06
-4.29365e-06
-4.13596e-06
-4.03107e-06
-3.98212e-06
-3.99242e-06
-4.06682e-06
-4.20748e-06
-4.42169e-06
-4.6857e-06
-4.99216e-06
-5.23837e-06
-5.43402e-06
-5.56726e-06
-5.66286e-06
-5.72476e-06
-5.76148e-06
-5.77488e-06
-5.76497e-06
-5.73012e-06
-5.66193e-06
-5.55721e-06
-5.39179e-06
-5.17971e-06
-4.91227e-06
-4.69817e-06
-4.54552e-06
-4.48384e-06
-4.51018e-06
-4.6239e-06
-4.82243e-06
-5.04197e-06
-5.24429e-06
-4.69932e-06
-4.51876e-06
-4.31988e-06
-4.1397e-06
-4.02762e-06
-3.99186e-06
-4.04106e-06
-4.1883e-06
-4.44454e-06
-4.83288e-06
-5.32445e-06
-5.9301e-06
-6.38653e-06
-6.73654e-06
-6.96718e-06
-7.1312e-06
-7.23439e-06
-7.29128e-06
-7.30433e-06
-7.27347e-06
-7.19632e-06
-7.05823e-06
-6.85437e-06
-6.53264e-06
-6.10966e-06
-5.54302e-06
-5.10764e-06
-4.78907e-06
-4.6248e-06
-4.5973e-06
-4.69794e-06
-4.91176e-06
-5.1641e-06
-5.40124e-06
-4.82302e-06
-4.61375e-06
-4.38797e-06
-4.19266e-06
-4.08456e-06
-4.07725e-06
-4.18508e-06
-4.43087e-06
-4.83864e-06
-5.46537e-06
-6.26585e-06
-7.39862e-06
-8.14691e-06
-8.70081e-06
-9.0533e-06
-9.30518e-06
-9.46158e-06
-9.5451e-06
-9.55822e-06
-9.50068e-06
-9.36994e-06
-9.14283e-06
-8.81539e-06
-8.28716e-06
-7.57165e-06
-6.47523e-06
-5.74155e-06
-5.19231e-06
-4.88898e-06
-4.78197e-06
-4.85154e-06
-5.06991e-06
-5.35135e-06
-5.62717e-06
-4.99088e-06
-4.74408e-06
-4.48827e-06
-4.28472e-06
-4.19145e-06
-4.2272e-06
-4.41019e-06
-4.76815e-06
-5.34057e-06
-6.21843e-06
-7.33612e-06
-9.43142e-06
-1.0491e-05
-1.12875e-05
-1.17807e-05
-1.21407e-05
-1.23635e-05
-1.24806e-05
-1.24942e-05
-1.24037e-05
-1.22069e-05
-1.18709e-05
-1.1401e-05
-1.06261e-05
-9.59847e-06
-7.52907e-06
-6.50022e-06
-5.70454e-06
-5.24699e-06
-5.04604e-06
-5.0701e-06
-5.28512e-06
-5.5943e-06
-5.91834e-06
-5.18531e-06
-4.89299e-06
-4.6163e-06
-4.40407e-06
-4.33359e-06
-4.42371e-06
-4.69131e-06
-5.1595e-06
-5.82648e-06
-6.84569e-06
-8.30987e-06
-1.21606e-05
-1.324e-05
-1.42564e-05
-1.48755e-05
-1.53291e-05
-1.56094e-05
-1.57565e-05
-1.57707e-05
-1.56514e-05
-1.53979e-05
-1.49683e-05
-1.43713e-05
-1.33693e-05
-1.23209e-05
-8.48545e-06
-7.16908e-06
-6.20887e-06
-5.65765e-06
-5.3613e-06
-5.33139e-06
-5.53894e-06
-5.87827e-06
-6.27363e-06
-5.40254e-06
-5.05915e-06
-4.75981e-06
-4.547e-06
-4.51589e-06
-4.68668e-06
-5.07802e-06
-5.69417e-06
-6.55558e-06
-8.7472e-06
-6.91525e-06
-1.48859e-05
-1.59286e-05
-1.73865e-05
-1.81901e-05
-1.87899e-05
-1.91593e-05
-1.93497e-05
-1.93646e-05
-1.92034e-05
-1.88623e-05
-1.82875e-05
-1.75071e-05
-1.60605e-05
-1.50718e-05
-7.00329e-06
-9.03541e-06
-6.90281e-06
-6.19324e-06
-5.76692e-06
-5.64694e-06
-5.82924e-06
-6.18855e-06
-6.66777e-06
-5.63207e-06
-5.2312e-06
-4.90578e-06
-4.69481e-06
-4.71182e-06
-4.97692e-06
-5.46746e-06
-6.0293e-06
-6.57218e-06
-4.5598e-06
-2.18492e-05
-1.94736e-05
-2.03375e-05
-2.10377e-05
-2.16537e-05
-2.20603e-05
-2.2267e-05
-2.22822e-05
-2.21057e-05
-2.17281e-05
-2.1138e-05
-2.04578e-05
-1.95984e-05
-2.19045e-05
-5.14987e-06
-7.04471e-06
-6.56263e-06
-6.17155e-06
-5.97705e-06
-6.12248e-06
-6.50315e-06
-7.08759e-06
-5.86492e-06
-5.40377e-06
-5.05392e-06
-4.85458e-06
-4.95196e-06
-5.41034e-06
-6.32411e-06
-7.81916e-06
-1.02533e-05
-1.32859e-05
-1.98004e-05
-1.85197e-05
-2.09078e-05
-2.25431e-05
-2.3744e-05
-2.46449e-05
-2.51993e-05
-2.54641e-05
-2.54797e-05
-2.52462e-05
-2.47234e-05
-2.38543e-05
-2.26864e-05
-2.10897e-05
-1.87377e-05
-2.01029e-05
-1.35619e-05
-1.05851e-05
-8.26668e-06
-6.98622e-06
-6.41845e-06
-6.44189e-06
-6.81453e-06
-7.52711e-06
-6.08707e-06
-5.5668e-06
-5.18695e-06
-4.98629e-06
-5.13136e-06
-5.69793e-06
-6.78314e-06
-8.4585e-06
-1.07974e-05
-1.34581e-05
-1.7864e-05
-2.01914e-05
-2.2189e-05
-2.39149e-05
-2.52755e-05
-2.62474e-05
-2.68502e-05
-2.71393e-05
-2.71549e-05
-2.6897e-05
-2.63256e-05
-2.53851e-05
-2.40564e-05
-2.23577e-05
-2.03758e-05
-1.80977e-05
-1.37303e-05
-1.1098e-05
-8.86925e-06
-7.42529e-06
-6.7252e-06
-6.70521e-06
-7.10538e-06
-7.93601e-06
-6.29052e-06
-5.7176e-06
-5.3071e-06
-5.09842e-06
-5.27227e-06
-5.90916e-06
-7.10611e-06
-8.92999e-06
-1.14414e-05
-1.44591e-05
-1.80747e-05
-2.07577e-05
-2.30975e-05
-2.49641e-05
-2.64037e-05
-2.73841e-05
-2.7984e-05
-2.8268e-05
-2.82833e-05
-2.803e-05
-2.74612e-05
-2.65119e-05
-2.51043e-05
-2.3265e-05
-2.09527e-05
-1.82862e-05
-1.46795e-05
-1.16999e-05
-9.3099e-06
-7.73812e-06
-6.96425e-06
-6.93344e-06
-7.37426e-06
-8.30094e-06
-6.46693e-06
-5.84941e-06
-5.40784e-06
-5.18219e-06
-5.36162e-06
-6.0259e-06
-7.26535e-06
-9.13937e-06
-1.16794e-05
-1.47258e-05
-1.8104e-05
-2.10645e-05
-2.36305e-05
-2.55597e-05
-2.70182e-05
-2.79788e-05
-2.85578e-05
-2.88283e-05
-2.88434e-05
-2.86032e-05
-2.80547e-05
-2.71247e-05
-2.56974e-05
-2.37937e-05
-2.12526e-05
-1.82968e-05
-1.49242e-05
-1.19163e-05
-9.50504e-06
-7.90166e-06
-7.11842e-06
-7.11019e-06
-7.59984e-06
-8.61017e-06
-6.61229e-06
-5.95969e-06
-5.49104e-06
-5.24689e-06
-5.4223e-06
-6.09555e-06
-7.35139e-06
-9.24552e-06
-1.17962e-05
-1.48627e-05
-1.8207e-05
-2.13067e-05
-2.39869e-05
-2.59589e-05
-2.74242e-05
-2.83639e-05
-2.89211e-05
-2.91778e-05
-2.91929e-05
-2.89667e-05
-2.84401e-05
-2.75309e-05
-2.60964e-05
-2.41488e-05
-2.14926e-05
-1.83901e-05
-1.50485e-05
-1.20215e-05
-9.60697e-06
-7.99954e-06
-7.22725e-06
-7.24939e-06
-7.78277e-06
-8.8599e-06
-6.72351e-06
-6.04535e-06
-5.55535e-06
-5.29445e-06
-5.46178e-06
-6.13454e-06
-7.39427e-06
-9.29639e-06
-1.18549e-05
-1.49445e-05
-1.83078e-05
-2.14721e-05
-2.42389e-05
-2.62418e-05
-2.77118e-05
-2.86392e-05
-2.91832e-05
-2.94315e-05
-2.94471e-05
-2.92301e-05
-2.87174e-05
-2.78206e-05
-2.63811e-05
-2.44024e-05
-2.16723e-05
-1.84875e-05
-1.5124e-05
-1.20754e-05
-9.65948e-06
-8.05671e-06
-7.30101e-06
-7.35192e-06
-7.91991e-06
-9.04702e-06
-6.79936e-06
-6.10541e-06
-5.60164e-06
-5.32947e-06
-5.49093e-06
-6.1631e-06
-7.42659e-06
-9.33779e-06
-1.191e-05
-1.50259e-05
-1.84226e-05
-2.16446e-05
-2.44526e-05
-2.64777e-05
-2.7956e-05
-2.88822e-05
-2.94225e-05
-2.96685e-05
-2.9685e-05
-2.9472e-05
-2.89642e-05
-2.80692e-05
-2.66202e-05
-2.4613e-05
-2.18198e-05
-1.85953e-05
-1.52023e-05
-1.21294e-05
-9.70429e-06
-8.10078e-06
-7.35446e-06
-7.42358e-06
-8.01313e-06
-9.17208e-06
-6.83956e-06
-6.13937e-06
-5.62997e-06
-5.35332e-06
-5.51315e-06
-6.18731e-06
-7.45728e-06
-9.38073e-06
-1.19717e-05
-1.5114e-05
-1.85415e-05
-2.17961e-05
-2.46298e-05
-2.66736e-05
-2.81641e-05
-2.90986e-05
-2.9644e-05
-2.9893e-05
-2.99108e-05
-2.96972e-05
-2.91864e-05
-2.82845e-05
-2.68234e-05
-2.47952e-05
-2.19643e-05
-1.87154e-05
-1.52922e-05
-1.21934e-05
-9.75111e-06
-8.13887e-06
-7.39158e-06
-7.46598e-06
-8.06354e-06
-9.23585e-06
-6.84461e-06
-6.14763e-06
-5.64069e-06
-5.36625e-06
-5.52869e-06
-6.20732e-06
-7.48602e-06
-9.42391e-06
-1.20376e-05
-1.52058e-05
-1.86634e-05
-2.19299e-05
-2.47719e-05
-2.68284e-05
-2.83333e-05
-2.92842e-05
-2.98426e-05
-3.00998e-05
-3.01192e-05
-2.99008e-05
-2.93799e-05
-2.84642e-05
-2.69908e-05
-2.4953e-05
-2.21244e-05
-1.88497e-05
-1.53918e-05
-1.22649e-05
-9.79875e-06
-8.1707e-06
-7.41273e-06
-7.47995e-06
-8.07239e-06
-9.23948e-06
-6.81613e-06
-6.13187e-06
-5.63468e-06
-5.36761e-06
-5.53423e-06
-6.21599e-06
-7.50143e-06
-9.45257e-06
-1.20928e-05
-1.52894e-05
-1.8791e-05
-2.20524e-05
-2.48778e-05
-2.69394e-05
-2.84595e-05
-2.94353e-05
-3.00145e-05
-3.0285e-05
-3.03067e-05
-3.00795e-05
-2.95419e-05
-2.86055e-05
-2.71209e-05
-2.50852e-05
-2.22925e-05
-1.90002e-05
-1.54916e-05
-1.2333e-05
-9.83706e-06
-8.18991e-06
-7.41561e-06
-7.4662e-06
-8.04149e-06
-9.18552e-06
-6.75642e-06
-6.09407e-06
-5.61203e-06
-5.35383e-06
-5.52001e-06
-6.19391e-06
-7.47021e-06
-9.41687e-06
-1.20737e-05
-1.53e-05
-1.89129e-05
-2.21651e-05
-2.49139e-05
-2.69545e-05
-2.84786e-05
-2.94817e-05
-3.0087e-05
-3.03749e-05
-3.03997e-05
-3.01611e-05
-2.96033e-05
-2.86454e-05
-2.71617e-05
-2.51497e-05
-2.2418e-05
-1.9143e-05
-1.55261e-05
-1.23378e-05
-9.82188e-06
-8.16962e-06
-7.3875e-06
-7.42126e-06
-7.9713e-06
-9.0767e-06
-6.67008e-06
-6.03876e-06
-5.57591e-06
-5.32574e-06
-5.48298e-06
-6.13121e-06
-7.37097e-06
-9.27912e-06
-1.19378e-05
-1.51978e-05
-1.90941e-05
-2.22503e-05
-2.48438e-05
-2.68442e-05
-2.83582e-05
-2.93869e-05
-3.00177e-05
-3.03236e-05
-3.03531e-05
-3.01062e-05
-2.95327e-05
-2.85598e-05
-2.70949e-05
-2.51304e-05
-2.25447e-05
-1.93605e-05
-1.54769e-05
-1.22516e-05
-9.72593e-06
-8.09739e-06
-7.3268e-06
-7.35e-06
-7.86901e-06
-8.92037e-06
-6.56243e-06
-5.96937e-06
-5.52566e-06
-5.2762e-06
-5.40386e-06
-5.98598e-06
-7.11813e-06
-8.86782e-06
-1.12993e-05
-1.41448e-05
-1.90935e-05
-2.25778e-05
-2.46018e-05
-2.64244e-05
-2.78581e-05
-2.88821e-05
-2.95235e-05
-2.9843e-05
-2.98794e-05
-2.96336e-05
-2.90644e-05
-2.81138e-05
-2.67455e-05
-2.4981e-05
-2.29857e-05
-1.94008e-05
-1.44702e-05
-1.1674e-05
-9.38308e-06
-7.89724e-06
-7.20099e-06
-7.2429e-06
-7.73786e-06
-8.72078e-06
-6.4438e-06
-5.89443e-06
-5.47136e-06
-5.22064e-06
-5.30858e-06
-5.80296e-06
-6.80712e-06
-8.46101e-06
-1.11551e-05
-1.47244e-05
-2.04767e-05
-2.10096e-05
-2.38382e-05
-2.58738e-05
-2.7246e-05
-2.8262e-05
-2.88972e-05
-2.92178e-05
-2.92669e-05
-2.90469e-05
-2.85121e-05
-2.76002e-05
-2.63134e-05
-2.43538e-05
-2.15474e-05
-2.07467e-05
-1.53006e-05
-1.17269e-05
-9.12101e-06
-7.67786e-06
-7.05769e-06
-7.13104e-06
-7.62029e-06
-8.48007e-06
-6.32218e-06
-5.817e-06
-5.41122e-06
-5.15013e-06
-5.16911e-06
-5.4818e-06
-6.03118e-06
-6.5627e-06
-6.98417e-06
-3.87277e-06
-2.74895e-05
-2.40293e-05
-2.49538e-05
-2.57756e-05
-2.65226e-05
-2.70415e-05
-2.73295e-05
-2.73932e-05
-2.72378e-05
-2.68561e-05
-2.62618e-05
-2.55664e-05
-2.47857e-05
-2.81952e-05
-4.40151e-06
-7.653e-06
-7.33091e-06
-7.00184e-06
-6.78875e-06
-6.97618e-06
-7.47333e-06
-8.24982e-06
-6.21269e-06
-5.74972e-06
-5.36875e-06
-5.11783e-06
-5.12806e-06
-5.44346e-06
-6.1351e-06
-7.3001e-06
-9.21133e-06
-1.23163e-05
-1.31006e-05
-1.93531e-05
-2.13593e-05
-2.32911e-05
-2.45468e-05
-2.55069e-05
-2.61332e-05
-2.64832e-05
-2.65688e-05
-2.63999e-05
-2.59654e-05
-2.52236e-05
-2.41441e-05
-2.24473e-05
-2.04988e-05
-1.48183e-05
-1.37511e-05
-1.04384e-05
-8.37929e-06
-7.24887e-06
-6.79333e-06
-6.90485e-06
-7.34906e-06
-8.05395e-06
-6.1224e-06
-5.69757e-06
-5.3426e-06
-5.10463e-06
-5.10242e-06
-5.37688e-06
-5.97565e-06
-6.93786e-06
-8.28213e-06
-1.00113e-05
-1.35493e-05
-1.78651e-05
-1.97761e-05
-2.15692e-05
-2.28736e-05
-2.38785e-05
-2.45319e-05
-2.49016e-05
-2.50023e-05
-2.48492e-05
-2.44308e-05
-2.37056e-05
-2.26203e-05
-2.1113e-05
-1.92642e-05
-1.51562e-05
-1.12792e-05
-9.48243e-06
-8.06921e-06
-7.14197e-06
-6.73622e-06
-6.83085e-06
-7.23727e-06
-7.87701e-06
-6.0615e-06
-5.67399e-06
-5.35316e-06
-5.14093e-06
-5.14317e-06
-5.3999e-06
-5.96503e-06
-6.90642e-06
-8.32764e-06
-1.02825e-05
-1.27981e-05
-1.58006e-05
-1.79672e-05
-1.98411e-05
-2.12067e-05
-2.22569e-05
-2.29315e-05
-2.33099e-05
-2.34155e-05
-2.32681e-05
-2.28502e-05
-2.21204e-05
-2.10174e-05
-1.94949e-05
-1.74548e-05
-1.45511e-05
-1.18951e-05
-9.72905e-06
-8.14417e-06
-7.17313e-06
-6.74959e-06
-6.81066e-06
-7.17204e-06
-7.76505e-06
-6.02836e-06
-5.6865e-06
-5.4104e-06
-5.23518e-06
-5.25088e-06
-5.4908e-06
-6.00026e-06
-6.83647e-06
-8.06551e-06
-9.7355e-06
-1.18238e-05
-1.41642e-05
-1.61928e-05
-1.79765e-05
-1.93051e-05
-2.03136e-05
-2.09577e-05
-2.13179e-05
-2.14217e-05
-2.12904e-05
-2.09053e-05
-2.02275e-05
-1.91872e-05
-1.77646e-05
-1.58786e-05
-1.35713e-05
-1.13323e-05
-9.46796e-06
-8.08482e-06
-7.2069e-06
-6.8101e-06
-6.84695e-06
-7.16106e-06
-7.70514e-06
-6.03915e-06
-5.74593e-06
-5.52993e-06
-5.41017e-06
-5.45844e-06
-5.69905e-06
-6.1639e-06
-6.89272e-06
-7.92893e-06
-9.29442e-06
-1.0955e-05
-1.27957e-05
-1.45257e-05
-1.60988e-05
-1.73034e-05
-1.82125e-05
-1.87991e-05
-1.91288e-05
-1.92274e-05
-1.91142e-05
-1.87721e-05
-1.81692e-05
-1.72463e-05
-1.59989e-05
-1.43869e-05
-1.25679e-05
-1.07884e-05
-9.26556e-06
-8.10501e-06
-7.34463e-06
-6.97786e-06
-6.97744e-06
-7.22449e-06
-7.70156e-06
-6.08364e-06
-5.85401e-06
-5.71845e-06
-5.67758e-06
-5.78215e-06
-6.04814e-06
-6.49747e-06
-7.15446e-06
-8.046e-06
-9.17155e-06
-1.04966e-05
-1.1947e-05
-1.33587e-05
-1.46569e-05
-1.56781e-05
-1.64537e-05
-1.69647e-05
-1.72559e-05
-1.73465e-05
-1.72503e-05
-1.69553e-05
-1.64398e-05
-1.5664e-05
-1.46325e-05
-1.33342e-05
-1.19129e-05
-1.05179e-05
-9.29225e-06
-8.32415e-06
-7.65411e-06
-7.29094e-06
-7.22318e-06
-7.36912e-06
-7.75365e-06
-6.14269e-06
-5.98911e-06
-5.93753e-06
-5.98029e-06
-6.15425e-06
-6.47271e-06
-6.95071e-06
-7.60251e-06
-8.4287e-06
-9.42638e-06
-1.05697e-05
-1.17984e-05
-1.2999e-05
-1.41032e-05
-1.49975e-05
-1.56861e-05
-1.61539e-05
-1.64253e-05
-1.65114e-05
-1.64209e-05
-1.61464e-05
-1.56765e-05
-1.49906e-05
-1.40991e-05
-1.30101e-05
-1.18297e-05
-1.06568e-05
-9.61068e-06
-8.74788e-06
-8.10752e-06
-7.70714e-06
-7.54692e-06
-7.58041e-06
-7.82638e-06
-6.19413e-06
-6.13337e-06
-6.15758e-06
-6.27401e-06
-6.51567e-06
-6.90237e-06
-7.45226e-06
-8.17834e-06
-9.08315e-06
-1.0153e-05
-1.13384e-05
-1.25778e-05
-1.37849e-05
-1.48952e-05
-1.58189e-05
-1.65433e-05
-1.70491e-05
-1.73452e-05
-1.74371e-05
-1.73294e-05
-1.70185e-05
-1.64992e-05
-1.57653e-05
-1.48359e-05
-1.37353e-05
-1.25543e-05
-1.13811e-05
-1.02935e-05
-9.37271e-06
-8.66214e-06
-8.17612e-06
-7.90921e-06
-7.82073e-06
-7.90471e-06
-4.71001e-06
-4.71302e-06
-4.7234e-06
-4.74381e-06
-4.77714e-06
-4.8337e-06
-4.91527e-06
-5.02341e-06
-5.15705e-06
-5.31349e-06
-5.48496e-06
-5.66481e-06
-5.84094e-06
-6.00365e-06
-6.14258e-06
-6.25455e-06
-6.33627e-06
-6.38646e-06
-6.40441e-06
-6.39028e-06
-6.34513e-06
-6.27051e-06
-6.17001e-06
-6.04708e-06
-5.91282e-06
-5.77678e-06
-5.65104e-06
-5.54158e-06
-5.45524e-06
-5.39305e-06
-5.35534e-06
-5.32875e-06
-5.31127e-06
-5.29931e-06
-4.66992e-06
-4.64717e-06
-4.63715e-06
-4.63256e-06
-4.64517e-06
-4.67922e-06
-4.73663e-06
-4.81731e-06
-4.91768e-06
-5.03447e-06
-5.15773e-06
-5.2847e-06
-5.40443e-06
-5.51833e-06
-5.61748e-06
-5.69955e-06
-5.76057e-06
-5.80007e-06
-5.81732e-06
-5.81248e-06
-5.78659e-06
-5.74042e-06
-5.67839e-06
-5.60323e-06
-5.52358e-06
-5.43845e-06
-5.35916e-06
-5.28835e-06
-5.23591e-06
-5.20439e-06
-5.1954e-06
-5.2049e-06
-5.21899e-06
-5.24165e-06
-4.65689e-06
-4.62842e-06
-4.60777e-06
-4.58289e-06
-4.57906e-06
-4.60268e-06
-4.65737e-06
-4.74437e-06
-4.85947e-06
-5.00223e-06
-5.15553e-06
-5.32147e-06
-5.4701e-06
-5.60859e-06
-5.72159e-06
-5.81309e-06
-5.87859e-06
-5.91998e-06
-5.93674e-06
-5.92899e-06
-5.89757e-06
-5.84083e-06
-5.76383e-06
-5.66282e-06
-5.55376e-06
-5.42974e-06
-5.32219e-06
-5.22919e-06
-5.16894e-06
-5.14157e-06
-5.14821e-06
-5.18181e-06
-5.20718e-06
-5.23472e-06
-4.66956e-06
-4.62786e-06
-4.5909e-06
-4.54409e-06
-4.52578e-06
-4.54627e-06
-4.61242e-06
-4.72929e-06
-4.89313e-06
-5.11026e-06
-5.35019e-06
-5.6246e-06
-5.85752e-06
-6.06936e-06
-6.23065e-06
-6.35669e-06
-6.44189e-06
-6.49267e-06
-6.50884e-06
-6.49044e-06
-6.43799e-06
-6.34523e-06
-6.21845e-06
-6.04264e-06
-5.84885e-06
-5.61701e-06
-5.42637e-06
-5.26528e-06
-5.16681e-06
-5.12445e-06
-5.13736e-06
-5.19241e-06
-5.23452e-06
-5.27305e-06
-4.7228e-06
-4.66393e-06
-4.61266e-06
-4.55103e-06
-4.52904e-06
-4.56184e-06
-4.66104e-06
-4.83836e-06
-5.09203e-06
-5.44352e-06
-5.83988e-06
-6.31976e-06
-6.70298e-06
-7.04488e-06
-7.29118e-06
-7.47898e-06
-7.60006e-06
-7.66852e-06
-7.68426e-06
-7.64724e-06
-7.55781e-06
-7.40187e-06
-7.18864e-06
-6.88123e-06
-6.53689e-06
-6.10041e-06
-5.75837e-06
-5.47044e-06
-5.29428e-06
-5.20805e-06
-5.20765e-06
-5.26982e-06
-5.32236e-06
-5.38112e-06
-4.82024e-06
-4.73884e-06
-4.67528e-06
-4.60665e-06
-4.59276e-06
-4.65388e-06
-4.80682e-06
-5.07204e-06
-5.45096e-06
-5.99411e-06
-6.6209e-06
-7.44353e-06
-8.0458e-06
-8.57716e-06
-8.94236e-06
-9.21803e-06
-9.39018e-06
-9.48447e-06
-9.50002e-06
-9.43665e-06
-9.29537e-06
-9.0502e-06
-8.71642e-06
-8.21742e-06
-7.65345e-06
-6.8744e-06
-6.30884e-06
-5.83717e-06
-5.54884e-06
-5.39252e-06
-5.36028e-06
-5.41711e-06
-5.47769e-06
-5.55996e-06
-4.96142e-06
-4.85184e-06
-4.77775e-06
-4.70901e-06
-4.7136e-06
-4.81578e-06
-5.03636e-06
-5.40458e-06
-5.92451e-06
-6.70894e-06
-7.63057e-06
-9.01826e-06
-9.88614e-06
-1.06408e-05
-1.11326e-05
-1.15041e-05
-1.173e-05
-1.18526e-05
-1.18682e-05
-1.17765e-05
-1.15811e-05
-1.12388e-05
-1.07764e-05
-1.00508e-05
-9.22032e-06
-7.8746e-06
-7.02548e-06
-6.31997e-06
-5.9038e-06
-5.66281e-06
-5.58693e-06
-5.63032e-06
-5.69662e-06
-5.8118e-06
-5.13737e-06
-4.99798e-06
-4.91577e-06
-4.85502e-06
-4.89115e-06
-5.05003e-06
-5.35309e-06
-5.82845e-06
-6.48034e-06
-7.45934e-06
-8.71592e-06
-1.10615e-05
-1.21632e-05
-1.31604e-05
-1.37883e-05
-1.42759e-05
-1.45693e-05
-1.47278e-05
-1.47438e-05
-1.46167e-05
-1.43538e-05
-1.38942e-05
-1.32935e-05
-1.232e-05
-1.12525e-05
-8.94112e-06
-7.77855e-06
-6.88186e-06
-6.34658e-06
-6.01689e-06
-5.88507e-06
-5.90535e-06
-5.97387e-06
-6.13324e-06
-5.35003e-06
-5.16788e-06
-5.07912e-06
-5.02994e-06
-5.1044e-06
-5.32462e-06
-5.70345e-06
-6.25331e-06
-6.89968e-06
-7.92443e-06
-9.41212e-06
-1.38552e-05
-1.47161e-05
-1.57527e-05
-1.64229e-05
-1.69585e-05
-1.72771e-05
-1.74532e-05
-1.74695e-05
-1.73252e-05
-1.70372e-05
-1.65284e-05
-1.58826e-05
-1.48601e-05
-1.4029e-05
-9.60748e-06
-8.27892e-06
-7.31575e-06
-6.79105e-06
-6.40179e-06
-6.22063e-06
-6.21796e-06
-6.29108e-06
-6.50803e-06
-5.59002e-06
-5.3565e-06
-5.26605e-06
-5.24393e-06
-5.38638e-06
-5.71384e-06
-6.24036e-06
-6.89843e-06
-7.63622e-06
-9.58359e-06
-6.50533e-06
-1.59492e-05
-1.6742e-05
-1.81021e-05
-1.89008e-05
-1.95889e-05
-1.99826e-05
-2.01939e-05
-2.02102e-05
-2.00309e-05
-1.96682e-05
-1.90071e-05
-1.82314e-05
-1.68791e-05
-1.61431e-05
-6.57482e-06
-9.88027e-06
-8.00869e-06
-7.42627e-06
-6.94808e-06
-6.6503e-06
-6.58546e-06
-6.64458e-06
-6.94049e-06
-5.84419e-06
-5.54945e-06
-5.45414e-06
-5.45861e-06
-5.66868e-06
-6.09841e-06
-6.7296e-06
-7.37435e-06
-7.59184e-06
-3.81101e-06
-2.27765e-05
-1.91727e-05
-1.97966e-05
-2.04681e-05
-2.1024e-05
-2.13868e-05
-2.15827e-05
-2.15984e-05
-2.14333e-05
-2.10998e-05
-2.057e-05
-1.99193e-05
-1.92968e-05
-2.28001e-05
-4.48591e-06
-8.07695e-06
-7.9254e-06
-7.44837e-06
-7.06583e-06
-6.94256e-06
-6.99538e-06
-7.40036e-06
-6.10317e-06
-5.7445e-06
-5.65414e-06
-5.71137e-06
-6.05345e-06
-6.74236e-06
-7.87864e-06
-9.5103e-06
-1.21237e-05
-1.47079e-05
-2.08473e-05
-1.78691e-05
-1.96514e-05
-2.11113e-05
-2.2188e-05
-2.28833e-05
-2.33406e-05
-2.35739e-05
-2.35893e-05
-2.33866e-05
-2.29597e-05
-2.22941e-05
-2.12472e-05
-1.98217e-05
-1.80708e-05
-2.11355e-05
-1.49444e-05
-1.24282e-05
-9.95558e-06
-8.53323e-06
-7.69098e-06
-7.36504e-06
-7.35478e-06
-7.87806e-06
-6.35073e-06
-5.92858e-06
-5.83273e-06
-5.9189e-06
-6.33849e-06
-7.16056e-06
-8.48357e-06
-1.02949e-05
-1.27351e-05
-1.49583e-05
-1.86904e-05
-1.95359e-05
-2.04893e-05
-2.14779e-05
-2.23712e-05
-2.30335e-05
-2.34986e-05
-2.37378e-05
-2.37526e-05
-2.35426e-05
-2.31058e-05
-2.24689e-05
-2.15983e-05
-2.06231e-05
-1.96715e-05
-1.88753e-05
-1.51862e-05
-1.30081e-05
-1.07019e-05
-9.11527e-06
-8.11672e-06
-7.70669e-06
-7.68398e-06
-8.32675e-06
-6.57819e-06
-6.10158e-06
-6.00096e-06
-6.11297e-06
-6.60215e-06
-7.54513e-06
-9.03816e-06
-1.10585e-05
-1.36439e-05
-1.6249e-05
-1.90951e-05
-2.04121e-05
-2.1436e-05
-2.23431e-05
-2.31983e-05
-2.38353e-05
-2.42872e-05
-2.45171e-05
-2.45315e-05
-2.433e-05
-2.39057e-05
-2.32927e-05
-2.24585e-05
-2.15612e-05
-2.05467e-05
-1.92435e-05
-1.64217e-05
-1.38731e-05
-1.14295e-05
-9.65317e-06
-8.51587e-06
-8.03218e-06
-7.99788e-06
-8.73409e-06
-6.77489e-06
-6.25307e-06
-6.14173e-06
-6.26166e-06
-6.78408e-06
-7.78518e-06
-9.3494e-06
-1.14485e-05
-1.40484e-05
-1.6739e-05
-1.93637e-05
-2.09453e-05
-2.21066e-05
-2.29932e-05
-2.38316e-05
-2.4447e-05
-2.48867e-05
-2.51087e-05
-2.51231e-05
-2.49293e-05
-2.45168e-05
-2.39244e-05
-2.31055e-05
-2.22251e-05
-2.10709e-05
-1.94907e-05
-1.6888e-05
-1.42583e-05
-1.18071e-05
-9.96905e-06
-8.78768e-06
-8.28622e-06
-8.26469e-06
-9.07698e-06
-6.93641e-06
-6.38084e-06
-6.25941e-06
-6.38149e-06
-6.92366e-06
-7.96164e-06
-9.57139e-06
-1.17238e-05
-1.43444e-05
-1.70853e-05
-1.96585e-05
-2.13844e-05
-2.26223e-05
-2.35308e-05
-2.43774e-05
-2.49844e-05
-2.5416e-05
-2.56318e-05
-2.56465e-05
-2.54595e-05
-2.50555e-05
-2.44716e-05
-2.36443e-05
-2.27393e-05
-2.15014e-05
-1.97746e-05
-1.72221e-05
-1.45442e-05
-1.20793e-05
-1.02033e-05
-8.99954e-06
-8.49393e-06
-8.48643e-06
-9.35226e-06
-7.05914e-06
-6.47993e-06
-6.34911e-06
-6.46827e-06
-7.01764e-06
-8.07233e-06
-9.70315e-06
-1.18826e-05
-1.4518e-05
-1.72995e-05
-1.98852e-05
-2.17263e-05
-2.29901e-05
-2.39161e-05
-2.4771e-05
-2.5375e-05
-2.58033e-05
-2.60162e-05
-2.60315e-05
-2.58486e-05
-2.54489e-05
-2.48685e-05
-2.40326e-05
-2.3105e-05
-2.18138e-05
-1.99933e-05
-1.74312e-05
-1.47155e-05
-1.22424e-05
-1.03513e-05
-9.14411e-06
-8.64551e-06
-8.65334e-06
-9.55629e-06
-7.1422e-06
-6.54927e-06
-6.41242e-06
-6.5289e-06
-7.08165e-06
-8.146e-06
-9.79095e-06
-1.19908e-05
-1.46452e-05
-1.74618e-05
-2.00787e-05
-2.2008e-05
-2.32715e-05
-2.42112e-05
-2.50751e-05
-2.5682e-05
-2.61113e-05
-2.63244e-05
-2.63407e-05
-2.61595e-05
-2.57604e-05
-2.51781e-05
-2.43327e-05
-2.33875e-05
-2.20807e-05
-2.01837e-05
-1.75934e-05
-1.4845e-05
-1.23572e-05
-1.04537e-05
-9.24359e-06
-8.74982e-06
-8.76705e-06
-9.69148e-06
-7.18542e-06
-6.58802e-06
-6.44895e-06
-6.56417e-06
-7.11829e-06
-8.18752e-06
-9.84176e-06
-1.20566e-05
-1.47319e-05
-1.75768e-05
-2.02229e-05
-2.21682e-05
-2.34662e-05
-2.44204e-05
-2.52932e-05
-2.59072e-05
-2.63412e-05
-2.65574e-05
-2.65751e-05
-2.63935e-05
-2.5992e-05
-2.54045e-05
-2.45511e-05
-2.35933e-05
-2.22749e-05
-2.03367e-05
-1.77147e-05
-1.49381e-05
-1.24314e-05
-1.05159e-05
-9.30093e-06
-8.80744e-06
-8.82738e-06
-9.75955e-06
-7.18933e-06
-6.59673e-06
-6.4592e-06
-6.5745e-06
-7.12785e-06
-8.19694e-06
-9.85503e-06
-1.20787e-05
-1.47756e-05
-1.76432e-05
-2.03261e-05
-2.2298e-05
-2.35862e-05
-2.45474e-05
-2.54273e-05
-2.60515e-05
-2.64932e-05
-2.67152e-05
-2.67347e-05
-2.65511e-05
-2.61451e-05
-2.55503e-05
-2.46918e-05
-2.37268e-05
-2.2397e-05
-2.04518e-05
-1.77937e-05
-1.49931e-05
-1.24641e-05
-1.05382e-05
-9.31686e-06
-8.81957e-06
-8.83575e-06
-9.76196e-06
-7.15558e-06
-6.57762e-06
-6.44502e-06
-6.56059e-06
-7.10912e-06
-8.17018e-06
-9.82347e-06
-1.20467e-05
-1.47667e-05
-1.7651e-05
-2.03866e-05
-2.23246e-05
-2.36263e-05
-2.45953e-05
-2.54823e-05
-2.61214e-05
-2.65747e-05
-2.68052e-05
-2.68274e-05
-2.66403e-05
-2.62276e-05
-2.56223e-05
-2.47608e-05
-2.37938e-05
-2.24609e-05
-2.05383e-05
-1.78246e-05
-1.50044e-05
-1.24496e-05
-1.05179e-05
-9.29212e-06
-8.78938e-06
-8.79609e-06
-9.7007e-06
-7.08633e-06
-6.53291e-06
-6.40589e-06
-6.51668e-06
-7.0475e-06
-8.07887e-06
-9.69929e-06
-1.18898e-05
-1.46188e-05
-1.75117e-05
-2.03725e-05
-2.22567e-05
-2.35531e-05
-2.45204e-05
-2.5406e-05
-2.6061e-05
-2.65277e-05
-2.67695e-05
-2.67951e-05
-2.66039e-05
-2.6184e-05
-2.55698e-05
-2.47153e-05
-2.376e-05
-2.24629e-05
-2.05598e-05
-1.77198e-05
-1.48894e-05
-1.23233e-05
-1.04149e-05
-9.20637e-06
-8.71047e-06
-8.70951e-06
-9.57694e-06
-6.98695e-06
-6.46929e-06
-6.34934e-06
-6.45133e-06
-6.95337e-06
-7.93586e-06
-9.49793e-06
-1.1625e-05
-1.43609e-05
-1.72136e-05
-2.03725e-05
-2.2205e-05
-2.33884e-05
-2.43903e-05
-2.52992e-05
-2.59843e-05
-2.64697e-05
-2.67256e-05
-2.67563e-05
-2.65617e-05
-2.61333e-05
-2.55006e-05
-2.4632e-05
-2.36542e-05
-2.24745e-05
-2.06075e-05
-1.74807e-05
-1.46883e-05
-1.21119e-05
-1.02529e-05
-9.08034e-06
-8.6011e-06
-8.59119e-06
-9.39929e-06
-6.86315e-06
-6.38953e-06
-6.27135e-06
-6.34824e-06
-6.78699e-06
-7.65786e-06
-9.0565e-06
-1.09666e-05
-1.34976e-05
-1.58919e-05
-2.01588e-05
-2.2281e-05
-2.31091e-05
-2.412e-05
-2.5036e-05
-2.57388e-05
-2.62384e-05
-2.65088e-05
-2.65457e-05
-2.63496e-05
-2.59191e-05
-2.52847e-05
-2.44237e-05
-2.34632e-05
-2.26616e-05
-2.04301e-05
-1.62149e-05
-1.38995e-05
-1.15399e-05
-9.88236e-06
-8.8439e-06
-8.43531e-06
-8.43972e-06
-9.17283e-06
-6.72757e-06
-6.30634e-06
-6.1943e-06
-6.25061e-06
-6.63165e-06
-7.40096e-06
-8.66156e-06
-1.04469e-05
-1.32597e-05
-1.63608e-05
-2.14072e-05
-2.05466e-05
-2.26789e-05
-2.4401e-05
-2.55726e-05
-2.63524e-05
-2.6878e-05
-2.71634e-05
-2.72121e-05
-2.70259e-05
-2.65924e-05
-2.59062e-05
-2.48043e-05
-2.31635e-05
-2.10626e-05
-2.164e-05
-1.69062e-05
-1.38345e-05
-1.11626e-05
-9.59088e-06
-8.64661e-06
-8.2901e-06
-8.29699e-06
-8.92503e-06
-6.58841e-06
-6.21875e-06
-6.10362e-06
-6.11774e-06
-6.38699e-06
-6.91929e-06
-7.67114e-06
-8.34328e-06
-8.30057e-06
-2.78711e-06
-2.87129e-05
-2.3458e-05
-2.39729e-05
-2.46315e-05
-2.52281e-05
-2.5657e-05
-2.59137e-05
-2.59729e-05
-2.58384e-05
-2.55225e-05
-2.50503e-05
-2.44757e-05
-2.40817e-05
-2.92779e-05
-3.36457e-06
-9.03836e-06
-9.22027e-06
-8.73755e-06
-8.25056e-06
-8.07204e-06
-8.13026e-06
-8.6702e-06
-6.4628e-06
-6.1429e-06
-6.04176e-06
-6.05533e-06
-6.31232e-06
-6.85342e-06
-7.73674e-06
-8.94774e-06
-1.0737e-05
-1.35956e-05
-1.31537e-05
-2.00163e-05
-2.14424e-05
-2.3035e-05
-2.40201e-05
-2.48941e-05
-2.54564e-05
-2.57871e-05
-2.58643e-05
-2.56941e-05
-2.52758e-05
-2.45575e-05
-2.36345e-05
-2.22137e-05
-2.08808e-05
-1.48398e-05
-1.49231e-05
-1.19836e-05
-1.00904e-05
-8.93479e-06
-8.23484e-06
-7.98294e-06
-7.99598e-06
-8.45438e-06
-6.35726e-06
-6.07884e-06
-5.9887e-06
-5.99649e-06
-6.2206e-06
-6.70279e-06
-7.48837e-06
-8.58603e-06
-9.97648e-06
-1.15744e-05
-1.48819e-05
-1.914e-05
-2.02419e-05
-2.13974e-05
-2.22537e-05
-2.30623e-05
-2.36027e-05
-2.39363e-05
-2.40243e-05
-2.38757e-05
-2.34931e-05
-2.28535e-05
-2.20113e-05
-2.09464e-05
-1.99789e-05
-1.61899e-05
-1.27338e-05
-1.1184e-05
-9.78565e-06
-8.74488e-06
-8.10423e-06
-7.86137e-06
-7.86302e-06
-8.27621e-06
-6.28295e-06
-6.04259e-06
-5.97358e-06
-5.99554e-06
-6.21841e-06
-6.68931e-06
-7.46317e-06
-8.57334e-06
-1.00734e-05
-1.19463e-05
-1.43108e-05
-1.6982e-05
-1.84297e-05
-1.95728e-05
-2.04596e-05
-2.12989e-05
-2.18566e-05
-2.21961e-05
-2.22872e-05
-2.21417e-05
-2.17515e-05
-2.11081e-05
-2.02301e-05
-1.91304e-05
-1.78597e-05
-1.55752e-05
-1.32673e-05
-1.13828e-05
-9.84428e-06
-8.7547e-06
-8.08616e-06
-7.81079e-06
-7.77828e-06
-8.13775e-06
-6.24516e-06
-6.03678e-06
-5.99223e-06
-6.03284e-06
-6.25328e-06
-6.69646e-06
-7.4105e-06
-8.42844e-06
-9.77438e-06
-1.14517e-05
-1.33548e-05
-1.53591e-05
-1.67208e-05
-1.78692e-05
-1.87812e-05
-1.95959e-05
-2.01393e-05
-2.04698e-05
-2.05623e-05
-2.04302e-05
-2.00636e-05
-1.94631e-05
-1.86083e-05
-1.75604e-05
-1.63393e-05
-1.45887e-05
-1.27573e-05
-1.10854e-05
-9.71073e-06
-8.70321e-06
-8.07067e-06
-7.79017e-06
-7.7352e-06
-8.04706e-06
-6.23279e-06
-6.06393e-06
-6.05218e-06
-6.12328e-06
-6.35414e-06
-6.78023e-06
-7.43911e-06
-8.35392e-06
-9.53091e-06
-1.09457e-05
-1.24925e-05
-1.40779e-05
-1.53247e-05
-1.64432e-05
-1.73509e-05
-1.81289e-05
-1.86632e-05
-1.89887e-05
-1.90838e-05
-1.89622e-05
-1.86126e-05
-1.8042e-05
-1.72352e-05
-1.62566e-05
-1.50966e-05
-1.37114e-05
-1.22265e-05
-1.08204e-05
-9.62187e-06
-8.71505e-06
-8.1224e-06
-7.83282e-06
-7.74894e-06
-8.00661e-06
-6.2455e-06
-6.11949e-06
-6.14551e-06
-6.255e-06
-6.50544e-06
-6.92359e-06
-7.53675e-06
-8.35912e-06
-9.38713e-06
-1.0591e-05
-1.18829e-05
-1.3194e-05
-1.43324e-05
-1.53624e-05
-1.62133e-05
-1.69337e-05
-1.74366e-05
-1.77431e-05
-1.78373e-05
-1.77285e-05
-1.74094e-05
-1.68886e-05
-1.61576e-05
-1.52759e-05
-1.42426e-05
-1.30742e-05
-1.18335e-05
-1.06406e-05
-9.6016e-06
-8.79042e-06
-8.23405e-06
-7.93034e-06
-7.81197e-06
-8.00656e-06
-6.26553e-06
-6.17561e-06
-6.21999e-06
-6.35359e-06
-6.62023e-06
-7.0379e-06
-7.62512e-06
-8.39077e-06
-9.32592e-06
-1.04031e-05
-1.15581e-05
-1.27305e-05
-1.38123e-05
-1.47949e-05
-1.56141e-05
-1.62885e-05
-1.67667e-05
-1.70569e-05
-1.71486e-05
-1.70472e-05
-1.67488e-05