/*--------------------------------*- C++ -*----------------------------------*\
| =========                 |                                                 |
| \\      /  F ield         | OpenFOAM: The Open Source CFD Toolbox           |
|  \\    /   O peration     | Version:  2112                                  |
|   \\  /    A nd           | Website:  www.openfoam.com                      |
|    \\/     M anipulation  |                                                 |
\*---------------------------------------------------------------------------*/
FoamFile
{
    version     2.0;
    format      ascii;
    arch        "LSB;label=32;scalar=64";
    class       surfaceScalarField;
    location    "4.4";
    object      phi;
}
// * * * * * * * * * * * * * * * * * * * * * * * * * * * * * * * * * * * * * //

dimensions      [0 3 -1 0 0 0 0];

oriented        oriented;

internalField   nonuniform List<scalar> 
188215
(
5.10026e-10
9.92524e-10
-1.50255e-09
2.48911e-09
7.02938e-12
-1.98611e-09
5.43208e-09
-1.60269e-09
-1.34028e-09
8.84143e-09
-3.04947e-09
-3.59877e-10
1.24011e-08
-4.10928e-09
5.49634e-10
1.59583e-08
-4.80456e-09
1.24731e-09
1.94584e-08
-5.19093e-09
1.69091e-09
2.27525e-08
-5.2708e-09
1.97665e-09
2.56191e-08
-5.01718e-09
2.15058e-09
2.7648e-08
-4.26232e-09
2.23337e-09
2.85332e-08
-3.10794e-09
2.22276e-09
2.77583e-08
-1.36488e-09
2.13983e-09
2.55033e-08
1.25101e-10
2.1299e-09
2.21819e-08
9.69229e-10
2.35212e-09
1.80277e-08
1.53161e-09
2.62262e-09
1.32473e-08
1.91246e-09
2.86796e-09
8.08577e-09
2.11343e-09
3.04808e-09
2.74721e-09
2.19505e-09
3.14351e-09
-2.5688e-09
2.1685e-09
3.14751e-09
-7.66367e-09
2.03378e-09
3.06109e-09
-1.23354e-08
1.78025e-09
2.8915e-09
-1.63447e-08
1.35007e-09
2.65925e-09
-1.95055e-08
7.52988e-10
2.4078e-09
-2.15497e-08
-1.83045e-10
2.22718e-09
-2.20647e-08
-1.75179e-09
2.26679e-09
-2.09361e-08
-3.46922e-09
2.34067e-09
-1.86799e-08
-4.5524e-09
2.29619e-09
-1.56051e-08
-5.14943e-09
2.07467e-09
-1.21428e-08
-5.07292e-09
1.61056e-09
-8.52323e-09
-4.39537e-09
7.75825e-10
-5.04772e-09
-3.06457e-09
-4.10936e-10
-2.19217e-09
-1.11503e-09
-1.74053e-09
-3.01068e-10
7.93365e-10
-2.68446e-09
1.95755e-09
-2.25862e-09
-1.90818e-09
5.90045e-09
-2.99974e-09
4.24118e-10
5.84108e-09
-8.16634e-09
4.12672e-09
4.70825e-09
-1.00135e-08
8.07152e-09
3.58868e-09
-1.05829e-08
1.1939e-08
3.07729e-09
-1.10541e-08
1.56874e-08
3.28302e-09
-1.18359e-08
1.93106e-08
4.26908e-09
-1.30832e-08
2.27124e-08
6.18778e-09
-1.48604e-08
2.56763e-08
9.2155e-09
-1.71966e-08
2.77838e-08
1.37245e-08
-2.00943e-08
2.86702e-08
1.94434e-08
-2.34378e-08
2.79054e-08
2.64103e-08
-2.70104e-08
2.58505e-08
3.25242e-08
-3.03442e-08
2.24564e-08
3.77093e-08
-3.3346e-08
1.82168e-08
4.15531e-08
-3.57818e-08
1.33775e-08
4.43732e-08
-3.76215e-08
8.17974e-09
4.61635e-08
-3.88523e-08
2.81704e-09
4.70479e-08
-3.94901e-08
-2.52171e-09
4.70432e-08
-3.95359e-08
-7.64782e-09
4.61494e-08
-3.89895e-08
-1.23694e-08
4.43515e-08
-3.78497e-08
-1.64444e-08
4.15272e-08
-3.61021e-08
-1.96188e-08
3.76923e-08
-3.3765e-08
-2.14343e-08
3.25242e-08
-3.08917e-08
-2.19655e-08
2.64786e-08
-2.76993e-08
-2.08001e-08
1.96645e-08
-2.42991e-08
-1.83957e-08
1.42377e-08
-2.11945e-08
-1.50929e-08
1.01703e-08
-1.86225e-08
-1.1284e-08
7.83422e-09
-1.6716e-08
-7.16054e-09
6.93166e-09
-1.54505e-08
-2.89139e-09
7.3127e-09
-1.46464e-08
1.09031e-09
8.67992e-09
-1.37766e-08
3.25472e-09
9.98795e-09
-1.1359e-08
9.75991e-09
-4.54764e-09
-3.83191e-09
1.28706e-08
-3.13829e-09
-1.59156e-09
1.4031e-08
-1.04303e-08
2.63341e-09
1.37413e-08
-1.3258e-08
7.19075e-09
1.35413e-08
-1.45099e-08
1.16544e-08
1.41928e-08
-1.55792e-08
1.60013e-08
1.59304e-08
-1.69942e-08
2.02964e-08
1.89816e-08
-1.90076e-08
2.45058e-08
2.37312e-08
-2.17529e-08
2.84062e-08
3.06108e-08
-2.52957e-08
3.13782e-08
4.04128e-08
-2.96602e-08
3.28056e-08
5.26979e-08
-3.46819e-08
3.17294e-08
6.75749e-08
-4.00885e-08
2.8946e-08
8.05014e-08
-4.51937e-08
2.47821e-08
9.15635e-08
-4.96903e-08
1.98588e-08
9.98322e-08
-5.33558e-08
1.44096e-08
1.0596e-07
-5.6138e-08
8.66467e-09
1.09912e-07
-5.80032e-08
2.78504e-09
1.11898e-07
-5.8971e-08
-3.06973e-09
1.11938e-07
-5.90399e-08
-8.73976e-09
1.10029e-07
-5.82098e-08
-1.40646e-08
1.06159e-07
-5.64823e-08
-1.88116e-08
1.00114e-07
-5.384e-08
-2.2748e-08
9.19506e-08
-5.03218e-08
-2.52567e-08
8.10249e-08
-4.5992e-08
-2.60192e-08
6.83252e-08
-4.10841e-08
-2.42129e-08
5.37826e-08
-3.59245e-08
-2.08021e-08
4.20533e-08
-3.12263e-08
-1.63409e-08
3.29811e-08
-2.72721e-08
-1.14017e-08
2.71167e-08
-2.42216e-08
-6.18964e-09
2.37064e-08
-2.19869e-08
-9.00322e-10
2.22955e-08
-2.02721e-08
3.86657e-09
2.23282e-08
-1.84151e-08
5.93225e-09
2.2518e-08
-1.45958e-08
2.06358e-08
-4.94364e-09
-5.22607e-09
2.0589e-08
-2.49224e-09
-2.91895e-09
2.26709e-08
-1.0947e-08
1.95753e-09
2.31311e-08
-1.42663e-08
7.36992e-09
2.39371e-08
-1.58082e-08
1.28102e-08
2.59064e-08
-1.71538e-08
1.8284e-08
2.93482e-08
-1.88915e-08
2.39636e-08
3.46233e-08
-2.13214e-08
2.99162e-08
4.23901e-08
-2.46114e-08
3.58767e-08
5.34823e-08
-2.8832e-08
4.08076e-08
6.95133e-08
-3.40314e-08
4.34157e-08
9.0087e-08
-3.99972e-08
4.15732e-08
1.15962e-07
-4.65445e-08
3.71899e-08
1.37576e-07
-5.26916e-08
3.11379e-08
1.55712e-07
-5.80966e-08
2.44769e-08
1.68992e-07
-6.24984e-08
1.74107e-08
1.7885e-07
-6.58234e-08
1.01434e-08
1.85212e-07
-6.80334e-08
2.78348e-09
1.88435e-07
-6.91767e-08
-4.55138e-09
1.88527e-07
-6.92538e-08
-1.17421e-08
1.85484e-07
-6.82644e-08
-1.86786e-08
1.79302e-07
-6.62071e-08
-2.51486e-08
1.69621e-07
-6.30368e-08
-3.09439e-08
1.56542e-07
-5.87957e-08
-3.4991e-08
1.38642e-07
-5.35703e-08
-3.64187e-08
1.17393e-07
-4.76397e-08
-3.3283e-08
9.20135e-08
-4.13666e-08
-2.77354e-08
7.2266e-08
-3.57604e-08
-2.09631e-08
5.72142e-08
-3.10053e-08
-1.39499e-08
4.74049e-08
-2.73013e-08
-6.97543e-09
4.12537e-08
-2.45218e-08
-2.68651e-10
3.79233e-08
-2.23346e-08
5.55448e-09
3.65447e-08
-2.00397e-08
7.7975e-09
3.57989e-08
-1.55239e-08
3.272e-08
-4.28667e-09
-6.03951e-09
2.82793e-08
-1.65086e-09
-3.32374e-09
3.10588e-08
-1.11037e-08
2.50723e-09
3.21386e-08
-1.48385e-08
9.11958e-09
3.39138e-08
-1.6589e-08
1.59603e-08
3.7218e-08
-1.81524e-08
2.31272e-08
4.23706e-08
-2.01892e-08
3.09896e-08
4.97957e-08
-2.30348e-08
3.98494e-08
6.041e-08
-2.68797e-08
4.94573e-08
7.56338e-08
-3.17595e-08
5.81399e-08
9.85848e-08
-3.7754e-08
6.31652e-08
1.29611e-07
-4.45497e-08
5.96146e-08
1.71875e-07
-5.23624e-08
5.20735e-08
2.04711e-07
-5.95938e-08
4.25455e-08
2.31276e-07
-6.60364e-08
3.28102e-08
2.50033e-07
-7.13063e-08
2.28831e-08
2.64e-07
-7.52227e-08
1.28848e-08
2.72992e-07
-7.77812e-08
2.84187e-09
2.77575e-07
-7.90965e-08
-7.17723e-09
2.77724e-07
-7.91781e-08
-1.71014e-08
2.73434e-07
-7.80252e-08
-2.68993e-08
2.64726e-07
-7.56262e-08
-3.64325e-08
2.51024e-07
-7.18702e-08
-4.56705e-08
2.32544e-07
-6.67649e-08
-5.27983e-08
2.06277e-07
-6.05073e-08
-5.58087e-08
1.73908e-07
-5.35048e-08
-5.00638e-08
1.32253e-07
-4.59846e-08
-4.0586e-08
1.02372e-07
-3.95842e-08
-2.99168e-08
8.06156e-08
-3.40707e-08
-1.96667e-08
6.69031e-08
-2.97482e-08
-1.01217e-08
5.81625e-08
-2.64538e-08
-1.36788e-09
5.3039e-08
-2.38695e-08
5.95611e-09
5.04278e-08
-2.12071e-08
8.87948e-09
4.8961e-08
-1.60854e-08
4.49772e-08
-3.37777e-09
-6.44666e-09
3.55337e-08
-8.07754e-10
-2.9042e-09
3.88611e-08
-1.13448e-08
4.29782e-09
4.04873e-08
-1.55506e-08
1.25325e-08
4.321e-08
-1.75308e-08
2.12091e-08
4.78782e-08
-1.93369e-08
3.05833e-08
5.47233e-08
-2.17269e-08
4.13466e-08
6.40911e-08
-2.50587e-08
5.43264e-08
7.69558e-08
-2.95256e-08
6.95978e-08
9.53943e-08
-3.50318e-08
8.50002e-08
1.24838e-07
-4.16559e-08
9.50836e-08
1.68158e-07
-4.863e-08
8.79894e-08
2.36652e-07
-5.76827e-08
7.48105e-08
2.83903e-07
-6.60133e-08
5.97266e-08
3.20229e-07
-7.38682e-08
4.5407e-08
3.44766e-07
-8.04133e-08
3.1226e-08
3.63251e-07
-8.50707e-08
1.71039e-08
3.75138e-07
-8.80242e-08
2.96792e-09
3.8124e-07
-8.95296e-08
-1.11488e-08
3.81456e-07
-8.96153e-08
-2.52092e-08
3.75774e-07
-8.82801e-08
-3.92781e-08
3.64287e-07
-8.54919e-08
-5.34047e-08
3.46152e-07
-8.10005e-08
-6.81822e-08
3.21945e-07
-7.46232e-08
-8.08687e-08
2.85925e-07
-6.69608e-08
-8.7271e-08
2.39188e-07
-5.88779e-08
-7.62018e-08
1.71316e-07
-5.01324e-08
-5.98594e-08
1.29629e-07
-4.35994e-08
-4.3284e-08
1.01545e-07
-3.75049e-08
-2.85517e-08
8.47938e-08
-3.26229e-08
-1.56418e-08
7.40361e-08
-2.87836e-08
-4.19274e-09
6.73652e-08
-2.57753e-08
5.25428e-09
6.36782e-08
-2.26974e-08
9.4494e-09
6.16174e-08
-1.68516e-08
5.691e-08
-2.48334e-09
-6.58796e-09
4.21512e-08
-2.95272e-11
-1.74494e-09
4.58346e-08
-1.18165e-08
7.32694e-09
4.80265e-08
-1.66112e-08
1.7659e-08
5.17571e-08
-1.88793e-08
2.85841e-08
5.79314e-08
-2.09783e-08
4.05225e-08
6.65658e-08
-2.37809e-08
5.45916e-08
7.76703e-08
-2.76484e-08
7.2626e-08
9.16683e-08
-3.27468e-08
9.58571e-08
1.10873e-07
-3.87096e-08
1.22408e-07
1.43701e-07
-4.54134e-08
1.43734e-07
1.97777e-07
-5.09461e-08
1.29025e-07
3.12074e-07
-6.07122e-08
1.0611e-07
3.76445e-07
-6.96262e-08
8.29009e-08
4.22916e-07
-7.94781e-08
6.25021e-08
4.53196e-07
-8.80309e-08
4.26604e-08
4.76553e-07
-9.34595e-08
2.2935e-08
4.91659e-07
-9.67951e-08
3.17411e-09
4.99483e-07
-9.84821e-08
-1.65771e-08
4.99779e-07
-9.85718e-08
-3.62699e-08
4.92529e-07
-9.70622e-08
-5.60468e-08
4.77961e-07
-9.38968e-08
-7.63048e-08
4.5505e-07
-8.8641e-08
-9.92389e-08
4.25139e-07
-8.02599e-08
-1.21598e-07
3.789e-07
-7.06163e-08
-1.35435e-07
3.15013e-07
-6.19883e-08
-1.12703e-07
2.01127e-07
-5.25426e-08
-8.51708e-08
1.49611e-07
-4.75134e-08
-6.04219e-08
1.18185e-07
-4.1389e-08
-4.02081e-08
1.00724e-07
-3.61442e-08
-2.338e-08
8.89905e-08
-3.17825e-08
-8.65633e-09
8.09692e-08
-2.83277e-08
3.60005e-09
7.61817e-08
-2.47599e-08
9.71826e-09
7.34992e-08
-1.8e-08
6.82007e-08
-1.57254e-09
-6.55443e-09
4.76591e-08
1.04653e-09
1.83822e-10
5.16694e-08
-1.2573e-08
1.17856e-08
5.45252e-08
-1.81004e-08
2.48447e-08
5.9427e-08
-2.0729e-08
3.85113e-08
6.74511e-08
-2.31863e-08
5.31898e-08
7.83642e-08
-2.64769e-08
7.02009e-08
9.16169e-08
-3.09576e-08
9.26263e-08
1.06025e-07
-3.67821e-08
1.24215e-07
1.22326e-07
-4.3042e-08
1.68856e-07
1.48823e-07
-4.97625e-08
2.15619e-07
1.99325e-07
-4.83097e-08
1.8529e-07
3.98352e-07
-5.59496e-08
1.47623e-07
4.79266e-07
-6.51546e-08
1.13894e-07
5.35531e-07
-7.88874e-08
8.60679e-08
5.71956e-07
-9.09334e-08
5.87428e-08
6.01024e-07
-9.71459e-08
3.12058e-08
6.20038e-07
-1.00842e-07
3.48487e-09
6.29913e-07
-1.02709e-07
-2.42419e-08
6.30308e-07
-1.02802e-07
-5.17964e-08
6.21203e-07
-1.01119e-07
-7.91494e-08
6.02911e-07
-9.7597e-08
-1.06966e-07
5.74435e-07
-9.15673e-08
-1.40574e-07
5.38448e-07
-7.97015e-08
-1.77737e-07
4.82271e-07
-6.6208e-08
-2.06946e-07
4.01609e-07
-5.73866e-08
-1.58055e-07
2.02252e-07
-5.00164e-08
-1.12639e-07
1.56171e-07
-5.19763e-08
-7.93359e-08
1.30801e-07
-4.59192e-08
-5.41862e-08
1.16101e-07
-4.05261e-08
-3.35906e-08
1.03995e-07
-3.56005e-08
-1.51184e-08
9.41581e-08
-3.16611e-08
7.26773e-10
8.78473e-08
-2.75108e-08
9.68015e-09
8.41299e-08
-1.9584e-08
7.84565e-08
-5.75648e-10
-6.32401e-09
5.18339e-08
2.14927e-09
2.81628e-09
5.61142e-08
-1.35851e-08
1.77848e-08
5.96412e-08
-2.00846e-08
3.43525e-08
6.59884e-08
-2.31291e-08
5.13785e-08
7.642e-08
-2.59948e-08
6.88788e-08
9.0667e-08
-2.9803e-08
8.76638e-08
1.07753e-07
-3.49214e-08
1.11248e-07
1.23912e-07
-4.14708e-08
1.46602e-07
1.3555e-07
-4.8578e-08
2.1936e-07
1.29882e-07
-5.38173e-08
3.17653e-07
1.53424e-07
-5.23918e-08
2.55356e-07
5.0468e-07
-4.40322e-08
1.96013e-07
5.87906e-07
-4.92967e-08
1.51014e-07
6.49164e-07
-6.86339e-08
1.15146e-07
6.93128e-07
-8.53043e-08
7.89301e-08
7.28825e-07
-9.15859e-08
4.1698e-08
7.53147e-07
-9.58766e-08
3.93051e-09
7.65704e-07
-9.80234e-08
-3.38631e-08
7.66215e-07
-9.81135e-08
-7.11808e-08
7.54664e-07
-9.61431e-08
-1.07562e-07
7.31305e-07
-9.20135e-08
-1.43656e-07
6.96437e-07
-8.59089e-08
-1.8888e-07
6.53077e-07
-6.94043e-08
-2.48029e-07
5.91758e-07
-5.03373e-08
-3.08696e-07
5.07838e-07
-4.55613e-08
-2.07091e-07
1.55226e-07
-5.45791e-08
-1.34878e-07
1.40264e-07
-5.63063e-08
-9.73529e-08
1.44991e-07
-5.17151e-08
-7.02792e-08
1.34701e-07
-4.56741e-08
-4.6786e-08
1.20743e-07
-4.02404e-08
-2.40548e-08
1.07283e-07
-3.5856e-08
-3.32512e-09
9.82438e-08
-3.11262e-08
9.35944e-09
9.30982e-08
-2.16529e-08
8.71302e-08
6.85814e-10
-5.70182e-09
5.42011e-08
3.33457e-09
6.7033e-09
5.86265e-08
-1.49174e-08
2.61706e-08
6.2752e-08
-2.25782e-08
4.78114e-08
7.05036e-08
-2.6156e-08
7.01857e-08
8.35973e-08
-2.95516e-08
9.24656e-08
1.02413e-07
-3.4026e-08
1.13778e-07
1.2642e-07
-3.99786e-08
1.34066e-07
1.52122e-07
-4.84992e-08
1.50737e-07
1.75917e-07
-5.70382e-08
2.05485e-07
1.47618e-07
-7.24839e-08
4.39785e-07
-8.08756e-08
3.48506e-07
6.06834e-07
-1.08744e-08
2.64816e-07
6.74622e-07
-3.02637e-09
2.08453e-07
7.26629e-07
-2.11019e-08
1.62298e-07
7.79265e-07
-3.99827e-08
1.11662e-07
8.21015e-07
-4.15531e-08
5.84199e-08
8.50387e-07
-4.39979e-08
4.56764e-09
8.65148e-07
-4.55914e-08
-4.93216e-08
8.65756e-07
-4.56521e-08
-1.02697e-07
8.52219e-07
-4.418e-08
-1.53634e-07
8.24068e-07
-4.18252e-08
-2.00302e-07
7.83518e-07
-4.04133e-08
-2.57481e-07
7.31908e-07
-2.1653e-08
-3.42514e-07
6.80528e-07
-3.73691e-09
-4.33268e-07
6.10906e-07
-1.23146e-08
-1.94041e-07
-8.40008e-08
-1.3754e-07
1.58009e-07
-7.42455e-08
-1.19718e-07
1.87066e-07
-5.98966e-08
-9.53321e-08
1.63425e-07
-5.31099e-08
-6.80007e-08
1.39581e-07
-4.61696e-08
-3.8678e-08
1.19243e-07
-4.12832e-08
-1.05934e-08
1.0604e-07
-3.58804e-08
7.94722e-09
9.90268e-08
-2.44692e-08
9.27605e-08
2.31688e-09
-4.86017e-09
5.45174e-08
4.5439e-09
1.14029e-08
5.89096e-08
-1.65462e-08
3.62595e-08
6.34375e-08
-2.55421e-08
6.43285e-08
7.22035e-08
-2.97689e-08
9.41185e-08
8.75869e-08
-3.37795e-08
1.23658e-07
1.11543e-07
-3.86694e-08
1.46982e-07
1.47555e-07
-4.44592e-08
1.48644e-07
2.00334e-07
-4.98742e-08
1.14357e-07
2.77237e-07
-6.70331e-08
3.76185e-07
-1.1421e-07
1.96303e-07
3.27935e-07
8.2595e-08
2.623e-07
5.57655e-07
5.09711e-08
2.58813e-07
6.86612e-07
4.35039e-08
2.11582e-07
7.81627e-07
4.48691e-08
1.46646e-07
8.44774e-07
4.11767e-08
7.6747e-08
8.84268e-07
3.60188e-08
5.38034e-09
9.03139e-07
3.33758e-08
-6.60299e-08
9.03788e-07
3.33781e-08
-1.36082e-07
8.86253e-07
3.6018e-08
-2.01387e-07
8.48189e-07
4.11837e-08
-2.49477e-07
7.86692e-07
4.49164e-08
-2.5494e-07
6.93702e-07
4.36698e-08
-1.9218e-07
5.66908e-07
5.08598e-08
3.37503e-07
8.12223e-08
-1.10467e-07
3.79384e-07
-1.10909e-07
-1.38601e-07
2.84646e-07
-6.94458e-08
-1.29704e-07
2.0978e-07
-5.52523e-08
-9.78606e-08
1.59696e-07
-5.1959e-08
-5.8758e-08
1.27782e-07
-4.76406e-08
-2.07066e-08
1.09819e-07
-4.18309e-08
5.64329e-09
1.00847e-07
-2.81704e-08
9.46041e-08
3.79973e-09
-3.52337e-09
5.23105e-08
5.73029e-09
1.73203e-08
5.64563e-08
-1.83904e-08
4.90652e-08
6.0558e-08
-2.88655e-08
8.67632e-08
6.84687e-08
-3.39632e-08
1.31299e-07
8.213e-08
-3.9079e-08
1.8568e-07
1.02648e-07
-4.54859e-08
2.55103e-07
1.31174e-07
-5.30428e-08
3.4611e-07
1.6792e-07
-5.8592e-08
4.71752e-07
2.11425e-07
-5.98302e-08
6.26559e-07
2.62751e-07
-4.13729e-08
4.90196e-07
8.70111e-08
4.93518e-08
4.93448e-07
2.31549e-07
9.31351e-08
4.71182e-07
4.18859e-07
1.61062e-07
4.01418e-07
5.37716e-07
2.1866e-07
3.05666e-07
6.26194e-07
2.51185e-07
2.03278e-07
6.846e-07
2.62562e-07
1.03531e-07
7.2087e-07
2.63145e-07
6.20942e-09
7.3827e-07
2.62191e-07
-9.10907e-08
7.38847e-07
2.62242e-07
-1.90766e-07
7.22625e-07
2.63303e-07
-2.93043e-07
6.87592e-07
2.62873e-07
-3.887e-07
6.30517e-07
2.51832e-07
-4.58441e-07
5.43435e-07
2.20008e-07
-4.8043e-07
4.25591e-07
1.63307e-07
-4.79414e-07
2.39446e-07
9.70404e-08
-6.21028e-07
8.85623e-08
5.30518e-08
-4.66129e-07
2.65296e-07
-4.0811e-08
-3.35907e-07
2.17397e-07
-6.29723e-08
-2.37676e-07
1.76359e-07
-6.48097e-08
-1.58448e-07
1.42565e-07
-6.20968e-08
-9.23483e-08
1.18218e-07
-5.65363e-08
-3.68027e-08
1.03621e-07
-4.93477e-08
4.16942e-10
9.64067e-08
-3.2779e-08
9.00338e-08
4.9872e-09
-2.60051e-09
4.80179e-08
6.89309e-09
2.22058e-08
5.17617e-08
-2.01116e-08
5.96668e-08
5.51151e-08
-3.20181e-08
1.0463e-07
6.14574e-08
-3.79518e-08
1.58668e-07
7.21463e-08
-4.40546e-08
2.2561e-07
8.74515e-08
-5.17456e-08
3.10411e-07
1.06936e-07
-6.0563e-08
4.16298e-07
1.29163e-07
-6.71308e-08
5.45515e-07
1.49248e-07
-6.70401e-08
6.92447e-07
1.65339e-07
-4.95197e-08
6.87586e-07
1.06205e-07
-1.4333e-08
6.68418e-07
1.93777e-07
5.69406e-08
6.06992e-07
3.07347e-07
1.72938e-07
5.00556e-07
3.92528e-07
2.51624e-07
3.75386e-07
4.57544e-07
2.93819e-07
2.47601e-07
4.99844e-07
3.12541e-07
1.25117e-07
5.2618e-07
3.17174e-07
6.8781e-09
5.38781e-07
3.17728e-07
-1.11318e-07
5.39255e-07
3.17788e-07
-2.33667e-07
5.27608e-07
3.17366e-07
-3.61248e-07
5.02239e-07
3.12934e-07
-4.86257e-07
4.60903e-07
2.94623e-07
-5.92922e-07
3.96798e-07
2.53302e-07
-6.55365e-07
3.12236e-07
1.75799e-07
-6.76476e-07
1.98836e-07
6.1721e-08
-6.85399e-07
1.08759e-07
-1.12741e-08
-5.39589e-07
1.69105e-07
-4.96189e-08
-4.0631e-07
1.54888e-07
-7.07705e-08
-2.92617e-07
1.36964e-07
-7.42977e-08
-1.96573e-07
1.17569e-07
-7.10476e-08
-1.15758e-07
1.0206e-07
-6.46564e-08
-4.80989e-08
9.22032e-08
-5.62413e-08
-1.84741e-09
8.72156e-08
-3.70604e-08
8.16184e-08
6.568e-09
-1.92704e-09
4.19478e-08
7.99718e-09
2.6187e-08
4.52095e-08
-2.15618e-08
6.83684e-08
4.76742e-08
-3.47405e-08
1.19014e-07
5.22351e-08
-4.14228e-08
1.79811e-07
5.97896e-08
-4.84407e-08
2.54566e-07
7.01991e-08
-5.75029e-08
3.47208e-07
8.25784e-08
-6.82838e-08
4.58806e-07
9.57227e-08
-7.81576e-08
5.84797e-07
1.05901e-07
-8.26444e-08
7.08591e-07
1.15073e-07
-7.35281e-08
7.56078e-07
1.0336e-07
-4.46427e-08
7.60414e-07
1.53993e-07
3.54481e-08
6.88463e-07
2.21808e-07
1.5749e-07
5.65804e-07
2.775e-07
2.37688e-07
4.20946e-07
3.20722e-07
2.8168e-07
2.7618e-07
3.48729e-07
2.95881e-07
1.39036e-07
3.66351e-07
2.96973e-07
7.39214e-09
3.74812e-07
2.95613e-07
-1.24201e-07
3.75208e-07
2.9564e-07
-2.61192e-07
3.67534e-07
2.97064e-07
-4.05742e-07
3.50677e-07
2.96111e-07
-5.50498e-07
3.23385e-07
2.82274e-07
-6.73648e-07
2.80798e-07
2.3915e-07
-7.47078e-07
2.25517e-07
1.60149e-07
-7.46197e-07
1.57913e-07
4.00424e-08
-7.02079e-07
1.065e-07
-4.18594e-08
-5.78401e-07
1.19073e-07
-7.36447e-08
-4.48176e-07
1.11264e-07
-8.66014e-08
-3.2823e-07
1.02931e-07
-8.59139e-08
-2.23178e-07
9.23086e-08
-7.97915e-08
-1.32766e-07
8.34367e-08
-7.17894e-08
-5.62336e-08
7.76761e-08
-6.20051e-08
-3.24969e-09
7.47165e-08
-4.04848e-08
7.01003e-08
8.26843e-09
-1.71091e-09
3.46993e-08
8.9594e-09
2.87908e-08
3.74015e-08
-2.26938e-08
7.42806e-08
3.90963e-08
-3.69119e-08
1.28562e-07
4.21537e-08
-4.41997e-08
1.93109e-07
4.71816e-08
-5.19391e-08
2.7144e-07
5.39457e-08
-6.2078e-08
3.66726e-07
6.16749e-08
-7.43823e-08
4.79214e-07
6.97324e-08
-8.64978e-08
6.02491e-07
7.61978e-08
-9.35734e-08
7.20873e-07
8.41353e-08
-8.74436e-08
7.95188e-07
8.82571e-08
-5.92115e-08
8.12116e-07
1.20111e-07
1.69527e-08
7.35054e-07
1.62136e-07
1.36734e-07
6.03662e-07
1.979e-07
2.10992e-07
4.4817e-07
2.25933e-07
2.50281e-07
2.93724e-07
2.44456e-07
2.58719e-07
1.4776e-07
2.56257e-07
2.56059e-07
7.79555e-09
2.62004e-07
2.52771e-07
-1.32128e-07
2.62372e-07
2.52761e-07
-2.77972e-07
2.57343e-07
2.56035e-07
-4.32265e-07
2.46216e-07
2.58754e-07
-5.87767e-07
2.28288e-07
2.50599e-07
-7.1985e-07
2.00753e-07
2.12128e-07
-7.98729e-07
1.65329e-07
1.39067e-07
-7.85707e-07
1.23602e-07
2.12887e-08
-7.14209e-07
9.16068e-08
-5.66049e-08
-5.95528e-07
8.8138e-08
-8.77462e-08
-4.67687e-07
8.12049e-08
-9.77814e-08
-3.46265e-07
7.62195e-08
-9.47114e-08
-2.37573e-07
7.02329e-08
-8.66155e-08
-1.42186e-07
6.53564e-08
-7.73066e-08
-6.04043e-08
6.22631e-08
-6.63691e-08
-3.39321e-09
6.06524e-08
-4.29469e-08
5.69993e-08
9.70776e-09
-1.72162e-09
2.6685e-08
9.73597e-09
3.04433e-08
2.87755e-08
-2.35389e-08
7.82234e-08
2.98618e-08
-3.85456e-08
1.34887e-07
3.17776e-08
-4.6288e-08
2.01672e-07
3.49573e-08
-5.456e-08
2.81864e-07
3.92424e-08
-6.54887e-08
3.78265e-07
4.41762e-08
-7.89031e-08
4.90977e-07
4.95718e-08
-9.25511e-08
6.13808e-07
5.46828e-08
-1.01316e-07
7.3301e-07
6.19148e-08
-9.6981e-08
8.20155e-07
6.9861e-08
-6.87488e-08
8.43647e-07
9.08282e-08
5.79028e-09
7.64543e-07
1.17386e-07
1.23855e-07
6.27961e-07
1.40535e-07
1.93946e-07
4.65743e-07
1.58839e-07
2.29312e-07
3.05093e-07
1.71285e-07
2.33821e-07
1.53466e-07
1.79339e-07
2.28545e-07
8.16136e-09
1.83368e-07
2.23941e-07
-1.37119e-07
1.83743e-07
2.23909e-07
-2.88675e-07
1.80443e-07
2.28456e-07
-4.49255e-07
1.73052e-07
2.33744e-07
-6.11601e-07
1.61168e-07
2.29466e-07
-7.49034e-07
1.433e-07
1.94886e-07
-8.30119e-07
1.20435e-07
1.25979e-07
-8.10761e-07
9.41361e-08
1.01085e-08
-7.26091e-07
7.3203e-08
-6.62657e-08
-6.0626e-07
6.57049e-08
-9.73978e-08
-4.78507e-07
5.91643e-08
-1.05713e-07
-3.56326e-07
5.51261e-08
-1.01087e-07
-2.45726e-07
5.12585e-08
-9.16261e-08
-1.47455e-07
4.84155e-08
-8.13294e-08
-6.24503e-08
4.67588e-08
-6.95008e-08
-3.04479e-09
4.58925e-08
-4.46457e-08
4.31431e-08
1.08115e-08
-1.86563e-09
1.82675e-08
1.0283e-08
3.13586e-08
1.96999e-08
-2.41487e-08
8.05991e-08
2.03234e-08
-3.97021e-08
1.38727e-07
2.1401e-08
-4.77517e-08
2.0681e-07
2.3245e-08
-5.63701e-08
2.88029e-07
2.58205e-08
-6.77971e-08
3.85123e-07
2.89728e-08
-8.18906e-08
4.98352e-07
3.27541e-08
-9.64112e-08
6.22094e-07
3.70239e-08
-1.06084e-07
7.43407e-07
4.31531e-08
-1.02551e-07
8.36875e-07
5.0802e-08
-7.44091e-08
8.64283e-07
6.43566e-08
-9.37129e-10
7.83762e-07
8.02913e-08
1.17616e-07
6.43822e-07
9.45139e-08
1.85961e-07
4.77393e-07
1.05879e-07
2.1939e-07
3.1277e-07
1.13917e-07
2.21991e-07
1.57414e-07
1.19236e-07
2.15459e-07
8.52832e-09
1.22022e-07
2.10232e-07
-1.40357e-07
1.22433e-07
2.10195e-07
-2.95708e-07
1.20442e-07
2.15351e-07
-4.60367e-07
1.15834e-07
2.21877e-07
-6.27062e-07
1.08378e-07
2.19486e-07
-7.68007e-07
9.74209e-08
1.86823e-07
-8.50614e-07
8.3405e-08
1.19637e-07
-8.27448e-07
6.74373e-08
3.53348e-09
-7.36234e-07
5.4039e-08
-7.20499e-08
-6.14061e-07
4.66259e-08
-1.03095e-07
-4.85098e-07
4.08663e-08
-1.10664e-07
-3.61984e-07
3.72241e-08
-1.05212e-07
-2.5012e-07
3.43679e-08
-9.49739e-08
-1.50135e-07
3.249e-08
-8.40594e-08
-6.32373e-08
3.14982e-08
-7.16371e-08
-2.52493e-09
3.09811e-08
-4.5801e-08
2.91067e-08
1.15114e-08
-2.0079e-09
9.68654e-09
1.05889e-08
3.18189e-08
1.0437e-08
-2.45638e-08
8.19156e-08
1.06713e-08
-4.04446e-08
1.40921e-07
1.10665e-08
-4.86708e-08
2.09821e-07
1.18259e-08
-5.74806e-08
2.91777e-07
1.30407e-08
-6.91763e-08
3.89557e-07
1.48212e-08
-8.36289e-08
5.03557e-07
1.73434e-08
-9.85886e-08
6.28481e-07
2.07963e-08
-1.08696e-07
7.51604e-07
2.55122e-08
-1.05483e-07
8.48273e-07
3.14651e-08
-7.73319e-08
8.77347e-07
3.87818e-08
-3.49933e-09
7.95995e-07
4.62314e-08
1.15412e-07
6.53987e-07
5.29989e-08
1.83522e-07
4.84997e-07
5.84738e-08
2.16396e-07
3.1788e-07
6.2665e-08
2.18369e-07
1.60138e-07
6.5577e-08
2.114e-07
8.92837e-09
6.72752e-08
2.05957e-07
-1.42309e-07
6.77486e-08
2.05922e-07
-3.00128e-07
6.69652e-08
2.11297e-07
-4.67413e-07
6.48606e-08
2.18259e-07
-6.36842e-07
6.13151e-08
2.16493e-07
-7.80052e-07
5.62554e-08
1.84375e-07
-8.63758e-07
4.9667e-08
1.17444e-07
-8.38671e-07
4.21753e-08
1.75219e-10
-7.44285e-07
3.46842e-08
-7.50319e-08
-6.20173e-07
2.86691e-08
-1.06155e-07
-4.89825e-07
2.39742e-08
-1.13455e-07
-3.65666e-07
2.06843e-08
-1.07619e-07
-2.5276e-07
1.84568e-08
-9.69953e-08
-1.51632e-07
1.71133e-08
-8.57514e-08
-6.35889e-08
1.64496e-08
-7.29943e-08
-2.14856e-09
1.61124e-08
-4.65716e-08
1.51028e-08
1.18554e-08
-2.10373e-09
1.14415e-09
1.06461e-08
3.19355e-08
1.20656e-09
-2.48088e-08
8.2373e-08
1.0462e-09
-4.08123e-08
1.41782e-07
7.51916e-10
-4.9094e-08
2.11152e-07
4.10544e-10
-5.79551e-08
2.93684e-07
2.25406e-10
-6.97164e-08
3.92185e-07
5.73427e-10
-8.42535e-08
5.07078e-07
1.75664e-09
-9.93059e-08
6.33053e-07
4.32158e-09
-1.09501e-07
7.5724e-07
7.66728e-09
-1.06343e-07
8.54776e-07
1.21506e-08
-7.82213e-08
8.84019e-07
1.38275e-08
-4.28861e-09
8.02114e-07
1.30285e-08
1.15108e-07
6.59125e-07
1.24153e-08
1.83573e-07
4.89006e-07
1.19845e-08
2.16608e-07
3.20714e-07
1.23098e-08
2.18647e-07
1.61792e-07
1.28107e-08
2.11688e-07
9.38637e-09
1.34357e-08
2.06245e-07
-1.43081e-07
1.40028e-08
2.06213e-07
-3.02183e-07
1.44755e-08
2.11592e-07
-4.70807e-07
1.49392e-08
2.18545e-07
-6.41579e-07
1.53791e-08
2.16708e-07
-7.85997e-07
1.62618e-08
1.84412e-07
-8.7045e-07
1.70048e-08
1.17115e-07
-8.4528e-07
1.75522e-08
-5.47257e-10
-7.4999e-07
1.54294e-08
-7.60353e-08
-6.24739e-07
1.06018e-08
-1.07184e-07
-4.93238e-07
6.93471e-09
-1.14461e-07
-3.68067e-07
4.07668e-09
-1.08564e-07
-2.54299e-07
2.55636e-09
-9.7867e-08
-1.5244e-07
1.80172e-09
-8.65478e-08
-6.37953e-08
1.49855e-09
-7.36938e-08
-2.00324e-09
1.36406e-09
-4.70436e-08
1.2335e-09
1.1866e-08
-2.157e-09
-7.15337e-09
1.04545e-08
3.17041e-08
-7.7661e-09
-2.48884e-08
8.1964e-08
-8.40158e-09
-4.08121e-08
1.41297e-07
-9.55051e-09
-4.90311e-08
2.10781e-07
-1.12639e-08
-5.78092e-08
2.93691e-07
-1.32412e-08
-6.94436e-08
3.92908e-07
-1.48465e-08
-8.37971e-08
5.08812e-07
-1.55403e-08
-9.86069e-08
6.35773e-07
-1.409e-08
-1.08549e-07
7.60422e-07
-1.17816e-08
-1.052e-07
8.56632e-07
-6.89531e-09
-7.71635e-08
8.84397e-07
-1.07012e-08
-3.2368e-09
8.02108e-07
-2.10503e-08
1.16368e-07
6.59187e-07
-3.02744e-08
1.85611e-07
4.89382e-07
-3.76455e-08
2.19435e-07
3.21257e-07
-4.17431e-08
2.22178e-07
1.62383e-07
-4.39527e-08
2.15638e-07
9.92835e-09
-4.45018e-08
2.10392e-07
-1.42628e-07
-4.37972e-08
2.10357e-07
-3.01806e-07
-4.18774e-08
2.15531e-07
-4.70461e-07
-3.8456e-08
2.2205e-07
-6.4119e-07
-3.33788e-08
2.19486e-07
-7.85834e-07
-2.5453e-08
1.86359e-07
-8.70949e-07
-1.61004e-08
1.1822e-07
-8.47423e-07
-6.1306e-09
1.57103e-10
-7.53451e-07
-3.32493e-09
-7.52174e-08
-6.27722e-07
-8.83996e-09
-1.06288e-07
-4.95243e-07
-1.17849e-08
-1.13759e-07
-3.69101e-07
-1.39618e-08
-1.08104e-07
-2.54683e-07
-1.42303e-08
-9.76311e-08
-1.52526e-07
-1.38762e-08
-8.64787e-08
-6.38343e-08
-1.34358e-08
-7.37575e-08
-2.07172e-09
-1.31661e-08
-4.72325e-08
-1.23795e-08
1.15413e-08
-2.21814e-09
-1.49525e-08
1.00173e-08
3.10091e-08
-1.62048e-08
-2.47886e-08
8.04798e-08
-1.74519e-08
-4.04203e-08
1.3912e-07
-1.97374e-08
-4.84533e-08
2.08174e-07
-2.33141e-08
-5.7004e-08
2.91094e-07
-2.78626e-08
-6.82982e-08
3.90934e-07
-3.2505e-08
-8.21818e-08
5.08071e-07
-3.63111e-08
-9.6366e-08
6.36408e-07
-3.67823e-08
-1.05645e-07
7.61633e-07
-3.53078e-08
-1.01698e-07
8.53771e-07
-2.53286e-08
-7.37044e-08
8.77731e-07
-3.46986e-08
3.69174e-11
7.95137e-07
-5.89281e-08
1.20472e-07
6.53475e-07
-8.01349e-08
1.91522e-07
4.85673e-07
-9.70672e-08
2.27224e-07
3.19252e-07
-1.07097e-07
2.31775e-07
1.61814e-07
-1.12871e-07
2.26356e-07
1.06024e-08
-1.1493e-07
2.2164e-07
-1.40758e-07
-1.14013e-07
2.21577e-07
-2.98644e-07
-1.10154e-07
2.26162e-07
-4.65835e-07
-1.02759e-07
2.31494e-07
-6.34905e-07
-9.13602e-08
2.27052e-07
-7.78665e-07
-7.36627e-08
1.9197e-07
-8.64347e-07
-5.23392e-08
1.21921e-07
-8.45199e-07
-2.92212e-08
3.94308e-09
-7.55119e-07
-2.12349e-08
-7.21709e-08
-6.28823e-07
-3.19631e-08
-1.03172e-07
-4.95079e-07
-3.43271e-08
-1.11202e-07
-3.67911e-07
-3.49831e-08
-1.06147e-07
-2.53169e-07
-3.27535e-08
-9.62187e-08
-1.51358e-07
-3.02109e-08
-8.54763e-08
-6.33939e-08
-2.82836e-08
-7.31164e-08
-2.24479e-09
-2.72291e-08
-4.70861e-08
-2.54757e-08
1.08514e-08
-2.41743e-09
-2.18761e-08
9.341e-09
2.95805e-08
-2.37232e-08
-2.44795e-08
7.74301e-08
-2.57084e-08
-3.95932e-08
1.34423e-07
-2.94247e-08
-4.73061e-08
2.02018e-07
-3.54473e-08
-5.5461e-08
2.83945e-07
-4.36377e-08
-6.61521e-08
3.83758e-07
-5.31405e-08
-7.91781e-08
5.02278e-07
-6.26827e-08
-9.21477e-08
6.33547e-07
-6.79747e-08
-1.00076e-07
7.61637e-07
-6.8756e-08
-9.4642e-08
8.45067e-07
-4.17609e-08
-6.69976e-08
8.60715e-07
-5.85879e-08
8.2406e-09
7.77748e-07
-1.048e-07
1.28839e-07
6.39068e-07
-1.44754e-07
2.03299e-07
4.75939e-07
-1.76201e-07
2.42263e-07
3.13611e-07
-1.95053e-07
2.50285e-07
1.59632e-07
-2.06006e-07
2.47114e-07
1.14653e-08
-2.10244e-07
2.43481e-07
-1.36898e-07
-2.08995e-07
2.43345e-07
-2.91477e-07
-2.02269e-07
2.46695e-07
-4.54844e-07
-1.89011e-07
2.49619e-07
-6.19675e-07
-1.68081e-07
2.41552e-07
-7.60993e-07
-1.35427e-07
2.03084e-07
-8.47779e-07
-9.51777e-08
1.29624e-07
-8.37117e-07
-5.08263e-08
1.09433e-08
-7.55581e-07
-3.67978e-08
-6.59724e-08
-6.26499e-07
-6.43519e-08
-9.66932e-08
-4.90069e-07
-6.46329e-08
-1.06125e-07
-3.61898e-07
-6.08844e-08
-1.02269e-07
-2.47714e-07
-5.35614e-08
-9.33766e-08
-1.47548e-07
-4.70222e-08
-8.33546e-08
-6.16731e-08
-4.25464e-08
-7.16123e-08
-2.21371e-09
-4.0206e-08
-4.64825e-08
-3.74328e-08
9.74342e-09
-2.8173e-09
-2.75241e-08
8.46536e-09
2.72699e-08
-2.9882e-08
-2.39284e-08
7.25283e-08
-3.26656e-08
-3.83012e-08
1.26641e-07
-3.79699e-08
-4.55672e-08
1.91206e-07
-4.68393e-08
-5.31728e-08
2.70216e-07
-5.96143e-08
-6.30338e-08
3.68038e-07
-7.60682e-08
-7.48941e-08
4.86788e-07
-9.52823e-08
-8.61503e-08
6.23065e-07
-1.12045e-07
-9.22066e-08
7.61052e-07
-1.21985e-07
-8.47581e-08
8.25512e-07
-5.05697e-08
-5.56509e-08
8.25124e-07
-8.03292e-08
2.21293e-08
7.43748e-07
-1.66018e-07
1.42594e-07
6.11838e-07
-2.3359e-07
2.20746e-07
4.5737e-07
-2.84788e-07
2.63054e-07
3.02543e-07
-3.16044e-07
2.75818e-07
1.55009e-07
-3.34092e-07
2.75619e-07
1.26537e-08
-3.41335e-07
2.73446e-07
-1.29931e-07
-3.39587e-07
2.73177e-07
-2.78196e-07
-3.28799e-07
2.74795e-07
-4.34334e-07
-3.07339e-07
2.74466e-07
-5.91068e-07
-2.72765e-07
2.61417e-07
-7.26395e-07
-2.19518e-07
2.19418e-07
-8.12873e-07
-1.50989e-07
1.42289e-07
-8.18572e-07
-6.8936e-08
2.38087e-08
-7.55239e-07
-4.47402e-08
-5.53903e-08
-6.16626e-07
-1.15177e-07
-8.77882e-08
-4.75574e-07
-1.06698e-07
-9.89874e-08
-3.47671e-07
-9.21147e-08
-9.66726e-08
-2.36196e-07
-7.58749e-08
-8.91616e-08
-1.39869e-07
-6.32976e-08
-8.00514e-08
-5.80222e-08
-5.52818e-08
-6.91117e-08
-1.75582e-09
-5.12048e-08
-4.52676e-08
-4.74795e-08
8.29085e-09
-3.63123e-09
-3.13204e-08
7.42746e-09
2.37026e-08
-3.40862e-08
-2.31296e-08
6.50498e-08
-3.74471e-08
-3.65657e-08
1.14309e-07
-4.39618e-08
-4.32678e-08
1.72842e-07
-5.52124e-08
-5.01591e-08
2.44493e-07
-7.2343e-08
-5.89226e-08
3.34342e-07
-9.67183e-08
-6.91993e-08
4.46602e-07
-1.29915e-07
-7.76265e-08
5.86293e-07
-1.7192e-07
-7.98161e-08
7.60431e-07
-2.31525e-07
-6.45988e-08
7.91168e-07
-4.99379e-08
-3.13686e-08
7.46593e-07
-7.27386e-08
3.69844e-08
6.7505e-07
-2.44714e-07
1.50238e-07
5.58401e-07