/*--------------------------------*- C++ -*----------------------------------*\
| =========                 |                                                 |
| \\      /  F ield         | OpenFOAM: The Open Source CFD Toolbox           |
|  \\    /   O peration     | Version:  2112                                  |
|   \\  /    A nd           | Website:  www.openfoam.com                      |
|    \\/     M anipulation  |                                                 |
\*---------------------------------------------------------------------------*/
FoamFile
{
    version     2.0;
    format      ascii;
    arch        "LSB;label=32;scalar=64";
    class       volVectorField;
    location    "4.4";
    object      U;
}
// * * * * * * * * * * * * * * * * * * * * * * * * * * * * * * * * * * * * * //

dimensions      [0 1 -1 0 0 0 0];

internalField   nonuniform List<vector> 
64906
(
(-1.30231e-07 -4.0125e-07 -2.5648e-07)
(1.73433e-06 -2.19371e-06 -2.91651e-07)
(5.59409e-06 -4.03803e-06 6.06293e-07)
(1.02051e-05 -5.72135e-06 1.77821e-06)
(1.52572e-05 -7.03683e-06 2.74991e-06)
(2.03805e-05 -8.08838e-06 3.47919e-06)
(2.5476e-05 -8.98463e-06 4.11547e-06)
(3.03886e-05 -9.78711e-06 4.7466e-06)
(3.49064e-05 -1.05314e-05 5.40609e-06)
(3.85059e-05 -1.11169e-05 6.11377e-06)
(4.07452e-05 -1.16336e-05 6.81964e-06)
(4.08589e-05 -1.18994e-05 7.52907e-06)
(3.86025e-05 -1.23298e-05 8.26149e-06)
(3.45465e-05 -1.25806e-05 9.10769e-06)
(2.90864e-05 -1.29643e-05 9.85501e-06)
(2.26137e-05 -1.33221e-05 1.04564e-05)
(1.54039e-05 -1.36311e-05 1.08691e-05)
(7.80684e-06 -1.3816e-05 1.10849e-05)
(9.19811e-08 -1.38634e-05 1.10971e-05)
(-7.44141e-06 -1.37738e-05 1.09065e-05)
(-1.45252e-05 -1.3562e-05 1.05201e-05)
(-2.08147e-05 -1.3303e-05 9.94686e-06)
(-2.6055e-05 -1.30128e-05 9.23285e-06)
(-2.98421e-05 -1.28221e-05 8.43975e-06)
(-3.1761e-05 -1.24286e-05 7.76689e-06)
(-3.12817e-05 -1.22232e-05 7.09023e-06)
(-2.86995e-05 -1.17273e-05 6.39486e-06)
(-2.4786e-05 -1.10901e-05 5.65004e-06)
(-1.99886e-05 -1.01381e-05 4.85481e-06)
(-1.48572e-05 -8.86204e-06 3.9028e-06)
(-9.68137e-06 -7.12327e-06 2.60996e-06)
(-5.07625e-06 -4.84991e-06 9.76166e-07)
(-1.37808e-06 -2.28448e-06 -3.1465e-07)
(4.00055e-07 -1.69297e-07 -4.83939e-07)
(-2.93887e-06 3.67817e-06 -1.19089e-06)
(-2.01837e-06 2.32578e-06 -6.19191e-06)
(3.24555e-06 1.54596e-07 -7.82736e-06)
(8.76444e-06 -1.97724e-06 -8.17738e-06)
(1.4402e-05 -3.43851e-06 -8.42714e-06)
(1.98578e-05 -4.17131e-06 -8.94006e-06)
(2.51733e-05 -4.18965e-06 -9.82424e-06)
(3.02454e-05 -3.43176e-06 -1.1117e-05)
(3.49483e-05 -1.80061e-06 -1.28416e-05)
(3.86914e-05 1.01302e-06 -1.50043e-05)
(4.10686e-05 4.74047e-06 -1.75323e-05)
(4.11959e-05 9.45998e-06 -2.02482e-05)
(3.90323e-05 1.34635e-05 -2.28154e-05)
(3.50591e-05 1.69604e-05 -2.51207e-05)
(2.94446e-05 1.94216e-05 -2.69772e-05)
(2.28666e-05 2.11614e-05 -2.83708e-05)
(1.55721e-05 2.22035e-05 -2.93012e-05)
(7.92804e-06 2.26906e-05 -2.9783e-05)
(1.69694e-07 2.26489e-05 -2.98175e-05)
(-7.40525e-06 2.20781e-05 -2.94041e-05)
(-1.45635e-05 2.09524e-05 -2.85414e-05)
(-2.09371e-05 1.91309e-05 -2.72158e-05)
(-2.62752e-05 1.66029e-05 -2.54312e-05)
(-2.99148e-05 1.30764e-05 -2.32203e-05)
(-3.17373e-05 9.09152e-06 -2.07694e-05)
(-3.12372e-05 4.43394e-06 -1.81828e-05)
(-2.84466e-05 9.09068e-07 -1.58353e-05)
(-2.42553e-05 -1.52044e-06 -1.39264e-05)
(-1.90188e-05 -2.44773e-06 -1.25509e-05)
(-1.33041e-05 -2.05035e-06 -1.16994e-05)
(-7.21892e-06 -3.6221e-07 -1.12352e-05)
(-1.21629e-06 2.38644e-06 -1.06858e-05)
(4.26329e-06 5.17074e-06 -8.58239e-06)
(4.3664e-06 6.51392e-06 -1.98177e-06)
(-5.02091e-06 1.33245e-05 -1.00006e-06)
(-5.17416e-06 1.42433e-05 -8.2032e-06)
(7.24547e-07 1.33088e-05 -1.07483e-05)
(7.05538e-06 1.23849e-05 -1.16714e-05)
(1.35725e-05 1.24777e-05 -1.24211e-05)
(1.986e-05 1.38628e-05 -1.34685e-05)
(2.60717e-05 1.67652e-05 -1.50194e-05)
(3.2182e-05 2.15611e-05 -1.71774e-05)
(3.81939e-05 2.86527e-05 -2.00002e-05)
(4.32622e-05 3.87891e-05 -2.35186e-05)
(4.68488e-05 5.14305e-05 -2.76117e-05)
(4.7145e-05 6.65783e-05 -3.20417e-05)
(4.40692e-05 7.99336e-05 -3.62316e-05)
(3.89954e-05 9.13943e-05 -3.98975e-05)
(3.22742e-05 0.000100008 -4.28723e-05)
(2.47851e-05 0.000106381 -4.51219e-05)
(1.66507e-05 0.000110478 -4.66276e-05)
(8.25298e-06 0.000112527 -4.74092e-05)
(-2.47699e-07 0.000112551 -4.74646e-05)
(-8.5733e-06 0.000110551 -4.67933e-05)
(-1.65651e-05 0.000106506 -4.53972e-05)
(-2.38368e-05 0.000100193 -4.32588e-05)
(-3.02694e-05 9.16637e-05 -4.04003e-05)
(-3.49777e-05 8.0318e-05 -3.68656e-05)
(-3.76341e-05 6.71802e-05 -3.28325e-05)
(-3.68355e-05 5.23894e-05 -2.8598e-05)
(-3.26648e-05 4.0361e-05 -2.4764e-05)
(-2.6898e-05 3.1081e-05 -2.15827e-05)
(-1.99644e-05 2.5236e-05 -1.91796e-05)
(-1.26838e-05 2.21497e-05 -1.74825e-05)
(-5.03412e-06 2.13964e-05 -1.62384e-05)
(2.23283e-06 2.23484e-05 -1.48508e-05)
(8.64251e-06 2.32734e-05 -1.14316e-05)
(7.28377e-06 2.15742e-05 -1.88636e-06)
(-6.57599e-06 2.39955e-05 -2.44734e-07)
(-7.40308e-06 2.63647e-05 -8.50395e-06)
(-7.52804e-07 2.65192e-05 -1.1421e-05)
(6.65541e-06 2.69625e-05 -1.25236e-05)
(1.45072e-05 2.88353e-05 -1.34532e-05)
(2.22689e-05 3.25451e-05 -1.47278e-05)
(3.0258e-05 3.85275e-05 -1.65949e-05)
(3.85639e-05 4.75256e-05 -1.91915e-05)
(4.74144e-05 6.0397e-05 -2.25779e-05)
(5.54262e-05 7.87141e-05 -2.68086e-05)
(6.17522e-05 0.000101762 -3.1711e-05)
(6.23563e-05 0.000129901 -3.71228e-05)
(5.71732e-05 0.00015406 -4.21997e-05)
(4.95505e-05 0.000174613 -4.66227e-05)
(4.01071e-05 0.000189897 -5.02051e-05)
(3.02555e-05 0.000201238 -5.2898e-05)
(1.98496e-05 0.000208562 -5.46831e-05)
(9.31496e-06 0.00021226 -5.5607e-05)
(-1.31475e-06 0.000212353 -5.56687e-05)
(-1.1776e-05 0.000208839 -5.48673e-05)
(-2.20359e-05 0.0002017 -5.32031e-05)
(-3.16563e-05 0.000190549 -5.0632e-05)
(-4.07831e-05 0.000175488 -4.71748e-05)
(-4.79747e-05 0.000155211 -4.28905e-05)
(-5.26302e-05 0.000131483 -3.79806e-05)
(-5.13376e-05 0.000103948 -3.27818e-05)
(-4.41922e-05 8.18867e-05 -2.81651e-05)
(-3.51879e-05 6.48041e-05 -2.42991e-05)
(-2.49921e-05 5.35903e-05 -2.13553e-05)
(-1.50044e-05 4.67154e-05 -1.92282e-05)
(-4.99536e-06 4.32876e-05 -1.76356e-05)
(4.02146e-06 4.22821e-05 -1.59599e-05)
(1.15817e-05 4.18241e-05 -1.20094e-05)
(9.39774e-06 3.8217e-05 -1.02042e-06)
(-7.58735e-06 3.51942e-05 6.54249e-07)
(-8.56293e-06 3.87296e-05 -8.51163e-06)
(-6.8808e-07 3.9857e-05 -1.17444e-05)
(8.26053e-06 4.17205e-05 -1.29642e-05)
(1.79813e-05 4.55092e-05 -1.40338e-05)
(2.79056e-05 5.16959e-05 -1.55346e-05)
(3.86257e-05 6.08708e-05 -1.77476e-05)
(5.04697e-05 7.41832e-05 -2.08383e-05)
(6.41865e-05 9.31923e-05 -2.48308e-05)
(7.75593e-05 0.000121031 -2.98161e-05)
(8.94132e-05 0.000157374 -3.5504e-05)
(9.05565e-05 0.000204317 -4.21077e-05)
(8.09324e-05 0.000242502 -4.81885e-05)
(6.85006e-05 0.000274145 -5.35472e-05)
(5.41691e-05 0.000297014 -5.79034e-05)
(4.01757e-05 0.000314006 -6.11144e-05)
(2.57225e-05 0.000324966 -6.32037e-05)
(1.13313e-05 0.000330533 -6.42783e-05)
(-3.16414e-06 0.000330704 -6.43436e-05)
(-1.74845e-05 0.000325474 -6.33984e-05)
(-3.17963e-05 0.000314847 -6.14351e-05)
(-4.55516e-05 0.000298175 -5.83499e-05)
(-5.95417e-05 0.000275655 -5.41202e-05)
(-7.14611e-05 0.000244408 -4.89018e-05)
(-8.04295e-05 0.000206831 -4.29934e-05)
(-7.83507e-05 0.000160692 -3.66116e-05)
(-6.5403e-05 0.000125741 -3.12351e-05)
(-5.07591e-05 9.9468e-05 -2.66429e-05)
(-3.52712e-05 8.24721e-05 -2.31274e-05)
(-2.12314e-05 7.16661e-05 -2.05482e-05)
(-7.93013e-06 6.55242e-05 -1.86431e-05)
(3.59019e-06 6.26088e-05 -1.6716e-05)
(1.30546e-05 6.09797e-05 -1.22884e-05)
(1.07881e-05 5.58622e-05 3.94098e-08)
(-8.29217e-06 4.59881e-05 1.58036e-06)
(-8.8838e-06 5.04056e-05 -8.61733e-06)
(8.7145e-07 5.23436e-05 -1.22301e-05)
(1.19665e-05 5.55478e-05 -1.35948e-05)
(2.41546e-05 6.12313e-05 -1.48388e-05)
(3.68989e-05 6.98192e-05 -1.66381e-05)
(5.11908e-05 8.19219e-05 -1.93002e-05)
(6.7819e-05 9.90031e-05 -2.30114e-05)
(8.87066e-05 0.000123587 -2.76611e-05)
(0.000110846 0.000161645 -3.33521e-05)
(0.000133623 0.000214325 -3.92416e-05)
(0.000135976 0.000290394 -4.71348e-05)
(0.000117585 0.000346588 -5.43416e-05)
(9.71618e-05 0.000391161 -6.10759e-05)
(7.53151e-05 0.000422018 -6.66533e-05)
(5.52536e-05 0.000445049 -7.0559e-05)
(3.47163e-05 0.00045985 -7.30217e-05)
(1.44681e-05 0.000467418 -7.42761e-05)
(-5.94025e-06 0.000467676 -7.43458e-05)
(-2.61292e-05 0.000460614 -7.32291e-05)
(-4.65498e-05 0.000446298 -7.08987e-05)
(-6.63924e-05 0.000423709 -6.71247e-05)
(-8.79044e-05 0.000393294 -6.16763e-05)
(-0.000107743 0.000349173 -5.50865e-05)
(-0.000125354 0.000293711 -4.80641e-05)
(-0.000121719 0.00021855 -4.03945e-05)
(-9.75282e-05 0.000167809 -3.48503e-05)
(-7.39019e-05 0.000131599 -2.95905e-05)
(-5.07944e-05 0.000109327 -2.54739e-05)
(-3.13836e-05 9.51127e-05 -2.23478e-05)
(-1.38107e-05 8.65929e-05 -2.00662e-05)
(1.11019e-06 8.20738e-05 -1.78145e-05)
(1.34386e-05 7.95508e-05 -1.27748e-05)
(1.18144e-05 7.32927e-05 1.11928e-06)
(-8.86488e-06 5.60276e-05 2.56978e-06)
(-8.5717e-06 6.11151e-05 -8.92556e-06)
(3.85493e-06 6.38502e-05 -1.30389e-05)
(1.78144e-05 6.84505e-05 -1.46049e-05)
(3.31116e-05 7.61831e-05 -1.60769e-05)
(4.92232e-05 8.72636e-05 -1.82494e-05)
(6.75853e-05 0.000102041 -2.14438e-05)
(8.9707e-05 0.000121751 -2.58573e-05)
(0.000119939 0.000149804 -3.11141e-05)
(0.000154874 0.000195548 -3.7111e-05)
(0.000199291 0.000266323 -4.17074e-05)
(0.000204867 0.000390565 -5.06922e-05)
(0.000168782 0.000469281 -5.86251e-05)
(0.000136017 0.00052896 -6.73916e-05)
(0.000103806 0.000568572 -7.49662e-05)
(7.58748e-05 0.000598711 -7.96202e-05)
(4.70948e-05 0.000618114 -8.24726e-05)
(1.88397e-05 0.000628105 -8.3908e-05)
(-9.72159e-06 0.000628466 -8.39829e-05)
(-3.79437e-05 0.000619179 -8.26951e-05)
(-6.66659e-05 0.00060044 -7.99826e-05)
(-9.44481e-05 0.000570868 -7.54693e-05)
(-0.000126405 0.000531762 -6.80284e-05)
(-0.000158551 0.000472495 -5.94199e-05)
(-0.000193793 0.000394524 -5.17018e-05)
(-0.000186385 0.000271076 -4.29342e-05)
(-0.000140144 0.00020317 -3.87366e-05)
(-0.000103701 0.000159441 -3.32059e-05)
(-7.07534e-05 0.0001339 -2.85577e-05)
(-4.51163e-05 0.000117364 -2.48281e-05)
(-2.24987e-05 0.000106754 -2.21093e-05)
(-3.25432e-06 0.0001007 -1.94413e-05)
(1.30465e-05 9.73174e-05 -1.35902e-05)
(1.27364e-05 9.00786e-05 2.31167e-06)
(-9.4492e-06 6.48057e-05 3.51896e-06)
(-7.69779e-06 7.03874e-05 -9.45868e-06)
(8.4334e-06 7.39764e-05 -1.4227e-05)
(2.61859e-05 8.0071e-05 -1.6051e-05)
(4.54413e-05 9.00606e-05 -1.78143e-05)
(6.54815e-05 0.00010376 -2.04514e-05)
(8.78192e-05 0.000120802 -2.43016e-05)
(0.000114588 0.000141101 -2.96344e-05)
(0.000153061 0.000167113 -3.55271e-05)
(0.000203169 0.000214278 -4.22905e-05)
(0.000291528 0.000298467 -3.90947e-05)
(0.00030649 0.00050892 -4.67541e-05)
(0.000236144 0.000610153 -5.5615e-05)
(0.000187512 0.000682985 -6.86377e-05)
(0.000142495 0.000729871 -7.99023e-05)
(0.00010475 0.0007663 -8.53472e-05)
(6.46123e-05 0.000789959 -8.85886e-05)
(2.50697e-05 0.000802282 -9.02014e-05)
(-1.50613e-05 0.000802768 -9.02823e-05)
(-5.46141e-05 0.000791389 -8.88278e-05)
(-9.47991e-05 0.000768609 -8.5736e-05)
(-0.000132549 0.000732901 -8.04481e-05)
(-0.000177544 0.000686574 -6.93307e-05)
(-0.00022567 0.000613965 -5.64985e-05)
(-0.000295344 0.000513402 -4.79539e-05)
(-0.0002775 0.000303381 -4.04032e-05)
(-0.000186728 0.000224036 -4.39917e-05)
(-0.000135564 0.000178544 -3.77667e-05)
(-9.37453e-05 0.000154955 -3.26032e-05)
(-6.25041e-05 0.000137952 -2.80995e-05)
(-3.45625e-05 0.000125589 -2.48562e-05)
(-9.95012e-06 0.000117956 -2.16654e-05)
(1.17837e-05 0.000113534 -1.47433e-05)
(1.36273e-05 0.000105642 3.76273e-06)
(-1.00604e-05 7.1889e-05 4.56514e-06)
(-6.21082e-06 7.79539e-05 -1.02024e-05)
(1.47332e-05 8.25658e-05 -1.5836e-05)
(3.73411e-05 9.06501e-05 -1.79588e-05)
(6.16193e-05 0.000103863 -2.00504e-05)
(8.62671e-05 0.000121773 -2.3175e-05)
(0.000112079 0.000143267 -2.7726e-05)
(0.000140024 0.000164861 -3.40582e-05)
(0.000182194 0.000187781 -4.16329e-05)
(0.000239877 0.000227657 -4.75357e-05)
(0.000412667 0.000250735 -4.66127e-05)
(0.000452226 0.00062511 -3.7835e-05)
(0.000310409 0.00075927 -4.35765e-05)
(0.000247842 0.000851838 -6.35719e-05)
(0.000189945 0.00091092 -7.9975e-05)
(0.000140822 0.000959272 -8.58986e-05)
(8.67464e-05 0.000991041 -9.00076e-05)
(3.30365e-05 0.00100743 -9.19786e-05)
(-2.17505e-05 0.00100807 -9.2061e-05)
(-7.55279e-05 0.000992948 -9.02512e-05)
(-0.000129795 0.00096238 -8.62888e-05)
(-0.000179167 0.000915022 -8.05271e-05)
(-0.000237531 0.000856663 -6.42703e-05)
(-0.000299895 0.000764205 -4.45142e-05)
(-0.000441666 0.000630407 -3.91889e-05)
(-0.000397094 0.000253616 -4.8451e-05)
(-0.000221429 0.000238351 -4.95512e-05)
(-0.000164465 0.000200016 -4.40845e-05)
(-0.000117834 0.000179771 -3.74006e-05)
(-8.4105e-05 0.000161569 -3.20839e-05)
(-5.08175e-05 0.000145202 -2.83342e-05)
(-1.96555e-05 0.000134384 -2.46466e-05)
(9.4404e-06 0.000128075 -1.62539e-05)
(1.46662e-05 0.000119564 5.40875e-06)
(-1.05393e-05 7.66777e-05 5.74453e-06)
(-3.79715e-06 8.30498e-05 -1.11997e-05)
(2.35025e-05 8.85678e-05 -1.78664e-05)
(5.29105e-05 9.8654e-05 -2.03763e-05)
(8.47517e-05 0.000115308 -2.28877e-05)
(0.000117199 0.000138182 -2.66172e-05)
(0.000148551 0.000165016 -3.2013e-05)
(0.000179042 0.000187141 -4.08357e-05)
(0.000217989 0.000191243 -5.02834e-05)
(0.000178782 0.00010421 -7.33884e-05)
(0.000486543 0.000221533 -7.2365e-05)
(0.000659348 0.000876396 -7.82938e-06)
(0.000406044 0.000946314 -3.85041e-06)
(0.00033985 0.00100747 -2.64539e-05)
(0.000266381 0.00106877 -4.66394e-05)
(0.000199534 0.00112007 -4.80944e-05)
(0.000122348 0.00115684 -5.08129e-05)
(4.55422e-05 0.00117584 -5.23615e-05)
(-3.24258e-05 0.00117666 -5.24212e-05)
(-0.000109329 0.00115926 -5.09944e-05)
(-0.000186825 0.00112404 -4.83654e-05)
(-0.000254187 0.0010741 -4.70716e-05)
(-0.000328721 0.00101373 -2.7023e-05)
(-0.000395539 0.000952271 -4.67935e-06)
(-0.000653227 0.000878766 -9.4427e-06)
(-0.000472923 0.000224772 -7.48722e-05)
(-0.000158897 0.000123333 -7.45171e-05)
(-0.000200303 0.000207931 -5.23439e-05)
(-0.000155636 0.000203768 -4.44582e-05)
(-0.000118221 0.00018414 -3.70905e-05)
(-7.71787e-05 0.000162448 -3.28211e-05)
(-3.56354e-05 0.000147366 -2.85733e-05)
(4.5277e-06 0.000138912 -1.83635e-05)
(1.52767e-05 0.000130043 7.23272e-06)
(-1.10218e-05 7.87493e-05 6.96895e-06)
(-8.24504e-07 8.52896e-05 -1.24484e-05)
(3.39668e-05 9.17343e-05 -2.03063e-05)
(7.17056e-05 0.000104053 -2.32949e-05)
(0.000113458 0.00012538 -2.62872e-05)
(0.000156713 0.000157746 -3.02865e-05)
(0.000196497 0.000204004 -3.53561e-05)
(0.000224255 0.000266252 -3.98719e-05)
(0.000180464 0.000348158 -5.92672e-05)
(0.000178862 0.000396462 -9.68193e-05)
(0.000289802 0.000741277 7.42483e-05)
(0.000319235 0.000946332 3.97288e-05)
(0.0003984 0.00106756 2.63063e-05)
(0.000345121 0.00117546 2.6034e-05)
(0.000260222 0.00125185 2.10544e-05)
(0.000161344 0.00130239 1.55211e-05)
(5.93957e-05 0.00132704 1.28597e-05)
(-4.39427e-05 0.00132797 1.28621e-05)
(-0.00014601 0.00130524 1.55179e-05)
(-0.000245243 0.00125671 2.10501e-05)
(-0.000330874 0.00118251 2.6051e-05)
(-0.000386059 0.00107694 2.64112e-05)
(-0.000311208 0.000958 3.94374e-05)
(-0.000284906 0.000752498 7.26203e-05)
(-0.000174746 0.000407558 -9.33598e-05)
(-0.00017187 0.00036229 -6.08502e-05)
(-0.000204781 0.000281493 -4.42614e-05)
(-0.000166044 0.000222366 -4.16051e-05)
(-0.000113105 0.00018169 -3.80455e-05)
(-5.72909e-05 0.000157742 -3.35806e-05)
(-2.50093e-06 0.000145523 -2.12682e-05)
(1.57327e-05 0.000136058 9.02586e-06)
(-1.12446e-05 7.74044e-05 8.22232e-06)
(3.11773e-06 8.37575e-05 -1.38601e-05)
(4.69358e-05 9.02199e-05 -2.30307e-05)
(9.59904e-05 0.000102741 -2.66692e-05)
(0.000154338 0.000124696 -3.05544e-05)
(0.0002245 0.000158848 -3.58713e-05)
(0.000311213 0.00021 -4.26587e-05)
(0.000427498 0.000284897 -4.76048e-05)
(0.000562281 0.00039543 -4.97348e-05)
(0.00083129 0.000559386 -3.04437e-05)
(0.000860259 0.000152647 5.28932e-05)
(0.000648772 0.000300506 8.30025e-05)
(0.000715462 0.000688423 0.000136104)
(0.000643401 0.000900649 0.000186875)
(0.000511777 0.00104861 0.000215372)
(0.000365635 0.00114602 0.000224182)
(0.000219852 0.00120561 0.000223998)
(7.86255e-05 0.00123386 0.000222925)
(-6.07772e-05 0.00123477 0.000222977)
(-0.000201934 0.0012084 0.00022415)
(-0.00034759 0.00115084 0.000224459)
(-0.000493521 0.00105579 0.000215921)
(-0.000625032 0.000910608 0.000188031)
(-0.000697354 0.000701744 0.000137992)
(-0.000629485 0.000316286 8.62368e-05)
(-0.000848483 0.000155235 5.55081e-05)
(-0.000826291 0.000559897 -2.95477e-05)
(-0.000551429 0.000403672 -5.20827e-05)
(-0.00040828 0.000297296 -5.26012e-05)
(-0.000279966 0.000226823 -5.02165e-05)
(-0.000177466 0.00018179 -4.54697e-05)
(-9.13406e-05 0.000156344 -3.99102e-05)
(-1.4417e-05 0.000143794 -2.49056e-05)
(1.47582e-05 0.000134181 1.0821e-05)
(-1.17617e-05 7.25971e-05 9.42359e-06)
(6.13937e-06 7.84008e-05 -1.51701e-05)
(5.77951e-05 8.38247e-05 -2.56104e-05)
(0.000115893 9.41413e-05 -2.98786e-05)
(0.000185975 0.000111663 -3.45532e-05)
(0.00027162 0.000137167 -4.09692e-05)
(0.000378148 0.000170519 -4.88198e-05)
(0.000515604 0.000208997 -5.47334e-05)
(0.000675728 0.000241502 -5.48404e-05)
(0.000912937 0.00025985 -3.80225e-05)
(0.00102578 0.000123371 -9.90262e-06)
(0.000980298 0.000315926 4.11802e-05)
(0.000937994 0.000510844 0.000142597)
(0.00080399 0.000654199 0.000210513)
(0.000632841 0.000764761 0.00024575)
(0.000446639 0.000837707 0.000260197)
(0.000266377 0.000883243 0.00026313)
(9.42369e-05 0.000905165 0.000263256)
(-7.44655e-05 0.000905922 0.000263314)
(-0.000246474 0.000885527 0.000263301)
(-0.000426495 0.000841554 0.000260522)
(-0.000612337 0.000770191 0.000246385)
(-0.000783528 0.000661136 0.000211872)
(-0.000918178 0.000518589 0.000144944)
(-0.000961703 0.000323343 4.53149e-05)
(-0.00101311 0.000125886 -7.2462e-06)
(-0.000905298 0.000265559 -3.79988e-05)
(-0.000665356 0.000250126 -5.78e-05)
(-0.000496551 0.000220748 -6.05964e-05)
(-0.00034554 0.000186426 -5.76553e-05)
(-0.000220671 0.000158991 -5.22512e-05)
(-0.000115741 0.000141746 -4.57149e-05)
(-2.24405e-05 0.000133034 -2.83412e-05)
(1.47601e-05 0.00012426 1.28262e-05)
(-1.23255e-05 6.50456e-05 1.05633e-05)
(8.46516e-06 7.01932e-05 -1.62435e-05)
(6.67454e-05 7.44169e-05 -2.77996e-05)
(0.000132161 8.22927e-05 -3.26176e-05)
(0.000211123 9.54214e-05 -3.80075e-05)
(0.000307244 0.000113828 -4.56001e-05)
(0.000425652 0.000136378 -5.52299e-05)
(0.000573586 0.000160982 -6.45248e-05)
(0.000742297 0.000181102 -6.96833e-05)
(0.000940534 0.000198895 -6.3596e-05)
(0.00107129 0.00016235 -4.27279e-05)
(0.00111261 0.000252014 2.15171e-05)
(0.00106724 0.000372124 0.000127814)
(0.000911291 0.000471213 0.000194795)
(0.000712785 0.000547837 0.000230052)
(0.000498947 0.000597016 0.000239181)
(0.000296471 0.000627745 0.000238337)
(0.000104366 0.000642433 0.000236479)
(-8.31145e-05 0.000643045 0.000236502)
(-0.000275066 0.000629582 0.000238403)
(-0.000477271 0.000600069 0.000239332)
(-0.000690747 0.000552064 0.00023045)
(-0.000889474 0.000476519 0.000195887)
(-0.0010464 0.000378143 0.000129888)
(-0.00109537 0.000258454 2.54056e-05)
(-0.00106022 0.000166736 -4.04122e-05)
(-0.000932389 0.000204463 -6.35346e-05)
(-0.000731156 0.000188956 -7.28123e-05)
(-0.000553341 0.000171774 -7.08618e-05)
(-0.000390687 0.000151072 -6.49353e-05)
(-0.000251818 0.000133966 -5.80926e-05)
(-0.000133672 0.000122881 -5.0439e-05)
(-2.78378e-05 0.00011719 -3.09655e-05)
(1.5217e-05 0.000109672 1.48714e-05)
(-1.30171e-05 5.53267e-05 1.1539e-05)
(9.73715e-06 5.96606e-05 -1.70705e-05)
(7.28311e-05 6.26069e-05 -2.9527e-05)
(0.00014319 6.79614e-05 -3.4782e-05)
(0.000227523 7.67561e-05 -4.07221e-05)
(0.000328965 8.8638e-05 -4.92176e-05)
(0.000452311 0.000102299 -6.01959e-05)
(0.000602584 0.000116427 -7.16625e-05)
(0.000772316 0.000127145 -7.94592e-05)
(0.000956688 0.000139182 -7.65207e-05)
(0.00110169 0.000138178 -5.58298e-05)
(0.00118434 0.000194251 4.79911e-06)
(0.00114181 0.00026958 0.00010874)
(0.000972984 0.000332026 0.000169147)
(0.00075999 0.000380857 0.000199217)
(0.000530788 0.000412907 0.000202576)
(0.000315251 0.000433291 0.000198106)
(0.000110816 0.000443167 0.000194406)
(-8.84059e-05 0.000443704 0.000194393)
(-0.000292715 0.000434884 0.000198062)
(-0.000508049 0.000415501 0.000202538)
(-0.000736997 0.000384351 0.000199342)
(-0.000950448 0.000336295 0.000169906)
(-0.00112055 0.00027436 0.00011047)
(-0.00116755 0.000199439 8.46547e-06)
(-0.00109092 0.000142911 -5.36825e-05)
(-0.000947848 0.00014502 -7.66391e-05)
(-0.000760163 0.000134658 -8.27999e-05)
(-0.000580718 0.000126333 -7.83764e-05)
(-0.000414628 0.000115532 -7.05159e-05)
(-0.000269088 0.000106473 -6.25339e-05)
(-0.000143563 0.00010059 -5.39469e-05)
(-2.97869e-05 9.75321e-05 -3.27848e-05)
(1.65393e-05 9.15933e-05 1.65122e-05)
(-1.36483e-05 4.42682e-05 1.2327e-05)
(1.03841e-05 4.77449e-05 -1.76771e-05)
(7.68627e-05 4.9711e-05 -3.08103e-05)
(0.000150571 5.32006e-05 -3.6388e-05)
(0.000238296 5.89461e-05 -4.27285e-05)
(0.000342717 6.66464e-05 -5.18808e-05)
(0.00046846 7.5415e-05 -6.384e-05)
(0.000619395 8.47308e-05 -7.6762e-05)
(0.000789622 9.28778e-05 -8.62127e-05)
(0.00097091 0.00010395 -8.5057e-05)
(0.00112592 0.000114276 -6.40451e-05)
(0.00122806 0.000151169 -4.70877e-06)
(0.00118774 0.000198243 9.76684e-05)
(0.00101252 0.000239021 0.000153928)
(0.000790432 0.000271169 0.000180229)
(0.000551426 0.000292707 0.000179861)
(0.000327479 0.000306531 0.000172978)
(0.000115123 0.000313348 0.000168071)
(-9.16632e-05 0.000313872 0.00016804)
(-0.000303939 0.000308077 0.000172876)
(-0.000527778 0.000295196 0.00017972)
(-0.00076667 0.000274473 0.000180202)
(-0.000989416 0.000242987 0.000154502)
(-0.00116613 0.000202662 9.91819e-05)
(-0.00121136 0.00015601 -1.34155e-06)
(-0.00111508 0.000119122 -6.20227e-05)
(-0.000961423 0.000109596 -8.52643e-05)
(-0.000776415 9.97336e-05 -8.96988e-05)
(-0.000595839 9.343e-05 -8.37284e-05)
(-0.000428166 8.67192e-05 -7.4561e-05)
(-0.000278906 8.15217e-05 -6.57197e-05)
(-0.000148965 7.83512e-05 -5.64117e-05)
(-3.012e-05 7.66919e-05 -3.39858e-05)
(1.79421e-05 7.20847e-05 1.77688e-05)
(-1.41775e-05 3.23775e-05 1.28857e-05)
(1.05998e-05 3.49177e-05 -1.81142e-05)
(7.92512e-05 3.61139e-05 -3.17136e-05)
(0.000155063 3.81926e-05 -3.75053e-05)
(0.000244821 4.16813e-05 -4.40989e-05)
(0.000350911 4.64356e-05 -5.36536e-05)
(0.000477983 5.20295e-05 -6.61941e-05)
(0.000629518 5.84203e-05 -7.99074e-05)
(0.000800955 6.51082e-05 -9.01972e-05)
(0.000983113 7.48467e-05 -8.9768e-05)
(0.00114451 8.66986e-05 -6.87301e-05)
(0.00125654 0.000110943 -9.36889e-06)
(0.00121766 0.000140533 9.26667e-05)
(0.00103827 0.000166622 0.000147284)
(0.000810412 0.000187358 0.000171839)
(0.000565264 0.000201747 0.000169752)
(0.000335832 0.000211171 0.000161776)
(0.000118204 0.000215988 0.000156329)
(-9.36917e-05 0.000216545 0.000156294)
(-0.000311304 0.000212806 0.000161658)
(-0.000540755 0.000204354 0.00016958)
(-0.000785965 0.000190773 0.000171763)
(-0.00101471 0.000170635 0.000147795)
(-0.00119576 0.000144902 9.41209e-05)
(-0.0012398 0.000115495 -6.15538e-06)
(-0.0011335 9.14308e-05 -6.67945e-05)
(-0.000973089 8.00781e-05 -9.00748e-05)
(-0.000786866 7.11073e-05 -9.3827e-05)
(-0.00060457 6.56483e-05 -8.70832e-05)
(-0.000435605 6.103e-05 -7.7209e-05)
(-0.000284091 5.78613e-05 -6.78497e-05)
(-0.000151557 5.61277e-05 -5.80723e-05)
(-2.96678e-05 5.52259e-05 -3.47886e-05)
(1.9203e-05 5.19304e-05 1.85826e-05)
(-1.45341e-05 2.01069e-05 1.32139e-05)
(1.06342e-05 2.16793e-05 -1.84141e-05)
(8.05393e-05 2.22879e-05 -3.22931e-05)
(0.000157595 2.33281e-05 -3.82068e-05)
(0.000248589 2.51706e-05 -4.49387e-05)
(0.000355782 2.78585e-05 -5.47083e-05)
(0.0004839 3.13687e-05 -6.75543e-05)
(0.000636337 3.5881e-05 -8.16597e-05)
(0.00080923 4.1463e-05 -9.23436e-05)
(0.000993095 4.93051e-05 -9.21857e-05)
(0.00115833 5.92156e-05 -7.10964e-05)
(0.00127493 7.3965e-05 -1.15299e-05)
(0.00123654 9.04641e-05 9.1099e-05)
(0.00105468 0.000105332 0.00014555)
(0.000823297 0.000117291 0.000169638)
(0.000574397 0.000126003 0.000167012)
(0.000341466 0.00013187 0.000158675)
(0.000120448 0.000135066 0.000153054)
(-9.47873e-05 0.000135693 0.000153021)
(-0.000315871 0.000133708 0.000158565)
(-0.000548976 0.000128916 0.000166849)
(-0.000798165 0.000121073 0.00016957)
(-0.00103072 0.000109699 0.000146062)
(-0.00121457 9.51128e-05 9.26051e-05)
(-0.00125818 7.85793e-05 -7.98437e-06)
(-0.00114712 6.38397e-05 -6.91757e-05)
(-0.000982772 5.40557e-05 -9.25888e-05)
(-0.000794618 4.64951e-05 -9.61107e-05)
(-0.000610523 4.14822e-05 -8.90158e-05)
(-0.000440212 3.78498e-05 -7.87974e-05)
(-0.000287092 3.55724e-05 -6.91655e-05)
(-0.000152925 3.44167e-05 -5.91261e-05)
(-2.92343e-05 3.38209e-05 -3.53281e-05)
(2.0044e-05 3.17538e-05 1.90303e-05)
(-1.47027e-05 7.74119e-06 1.33078e-05)
(1.058e-05 8.32071e-06 -1.85974e-05)
(8.09443e-05 8.38329e-06 -3.25832e-05)
(0.000158526 8.47689e-06 -3.85353e-05)
(0.000250142 8.81862e-06 -4.53036e-05)
(0.000358072 9.6266e-06 -5.51243e-05)
(0.000487112 1.12274e-05 -6.8042e-05)
(0.000640691 1.39439e-05 -8.22284e-05)
(0.00081501 1.82604e-05 -9.29878e-05)
(0.00100041 2.39638e-05 -9.28724e-05)
(0.00116715 3.11847e-05 -7.18036e-05)
(0.00128465 3.75261e-05 -1.22164e-05)
(0.00124595 4.24276e-05 9.09445e-05)
(0.00106288 4.69798e-05 0.000145735)
(0.000829902 5.07246e-05 0.000169969)
(0.000579338 5.40314e-05 0.000167399)
(0.000344699 5.65167e-05 0.00015907)
(0.000121978 5.81914e-05 0.00015345)
(-9.5004e-05 5.89247e-05 0.000153422)
(-0.00031789 5.86673e-05 0.000158969)
(-0.000552896 5.74284e-05 0.00016725)
(-0.000804029 5.51123e-05 0.000169915)
(-0.0010385 5.19796e-05 0.00014625)
(-0.00122388 4.76521e-05 9.24554e-05)
(-0.00126804 4.25644e-05 -8.56916e-06)
(-0.00115609 3.58038e-05 -6.9957e-05)
(-0.00099013 2.82857e-05 -9.34042e-05)
(-0.000800322 2.23588e-05 -9.69118e-05)
(-0.000614639 1.79368e-05 -8.9764e-05)
(-0.000443006 1.51831e-05 -7.94839e-05)
(-0.000288747 1.36096e-05 -6.9793e-05)
(-0.000153639 1.28665e-05 -5.96801e-05)
(-2.90925e-05 1.25025e-05 -3.56777e-05)
(2.03999e-05 1.16861e-05 1.91389e-05)
(-1.46868e-05 -4.41869e-06 1.3169e-05)
(1.04319e-05 -4.82329e-06 -1.86667e-05)
(8.04587e-05 -5.36274e-06 -3.25883e-05)
(0.000157845 -6.32739e-06 -3.84975e-05)
(0.000249457 -7.67287e-06 -4.52069e-05)
(0.000357724 -9.0197e-06 -5.49289e-05)
(0.000487506 -9.66238e-06 -6.76897e-05)
(0.000642422 -9.04573e-06 -8.16539e-05)
(0.000818182 -6.03909e-06 -9.21763e-05)
(0.00100506 -2.12572e-06 -9.18875e-05)
(0.00117129 3.7474e-06 -7.09163e-05)
(0.001286 2.21558e-06 -1.12713e-05)
(0.0012459 -5.10175e-06 9.19208e-05)
(0.00106281 -1.14718e-05 0.000147401)
(0.000830156 -1.64898e-05 0.000172304)
(0.000580044 -1.88745e-05 0.00017033)
(0.000345524 -1.99307e-05 0.000162342)
(0.000122818 -1.98192e-05 0.000156885)
(-9.4289e-05 -1.89239e-05 0.000156858)
(-0.00031728 -1.72997e-05 0.000162244)
(-0.000552396 -1.47164e-05 0.000170177)
(-0.000803425 -1.11149e-05 0.00017223)
(-0.00103799 -5.39567e-06 0.000147861)
(-0.00122385 1.15361e-06 9.33147e-05)
(-0.00126974 8.0562e-06 -7.94726e-06)
(-0.00116065 8.59901e-06 -6.92636e-05)
(-0.000995166 2.01488e-06 -9.26121e-05)
(-0.000803871 -2.60688e-06 -9.62954e-05)
(-0.000616778 -6.36682e-06 -8.9376e-05)
(-0.000443887 -7.92818e-06 -7.93013e-05)
(-0.000288995 -8.47131e-06 -6.97536e-05)
(-0.000153662 -8.55273e-06 -5.97486e-05)
(-2.92168e-05 -8.55021e-06 -3.58465e-05)
(2.0286e-05 -8.09522e-06 1.89123e-05)
(-1.45085e-05 -1.60717e-05 1.28013e-05)
(1.00894e-05 -1.74496e-05 -1.86085e-05)
(7.88596e-05 -1.87778e-05 -3.22848e-05)
(0.000155165 -2.11754e-05 -3.80645e-05)
(0.000245913 -2.48422e-05 -4.46076e-05)
(0.000353848 -2.93044e-05 -5.40547e-05)
(0.000483962 -3.34529e-05 -6.64155e-05)
(0.000640398 -3.62663e-05 -7.98116e-05)
(0.000817891 -3.52508e-05 -8.97145e-05)
(0.00100739 -3.25319e-05 -8.88675e-05)
(0.00117138 -2.37701e-05 -6.79583e-05)
(0.00127829 -3.3185e-05 -8.1493e-06)
(0.00123511 -5.61544e-05 9.53395e-05)
(0.00105332 -7.66692e-05 0.000152518)
(0.000823217 -9.31276e-05 0.000179118)
(0.000576029 -0.00010268 0.000178767)
(0.000343692 -0.000108065 0.00017175)
(0.000122939 -0.000109795 0.00016675)
(-9.24746e-05 -0.000108658 0.000166702)
(-0.000313651 -0.00010471 0.000171586)
(-0.000546853 -9.73531e-05 0.000178496)
(-0.000795393 -8.61844e-05 0.00017887)
(-0.00102793 -6.88264e-05 0.000152739)
(-0.00121301 -4.81597e-05 9.6381e-05)
(-0.00126262 -2.61869e-05 -5.59497e-06)
(-0.00116153 -1.8398e-05 -6.66636e-05)
(-0.000998123 -2.81631e-05 -8.99112e-05)
(-0.000804312 -3.19986e-05 -9.41176e-05)
(-0.000615709 -3.43508e-05 -8.7763e-05)
(-0.000441664 -3.33586e-05 -7.81847e-05)
(-0.000286918 -3.16117e-05 -6.89819e-05)
(-0.000152391 -3.01246e-05 -5.92645e-05)
(-2.9303e-05 -2.9272e-05 -3.5784e-05)
(1.97891e-05 -2.74155e-05 1.83274e-05)
(-1.42433e-05 -2.67421e-05 1.2205e-05)
(9.30654e-06 -2.90217e-05 -1.83988e-05)
(7.56282e-05 -3.13122e-05 -3.16316e-05)
(0.000149586 -3.5525e-05 -3.71831e-05)
(0.000238026 -4.22047e-05 -4.34267e-05)
(0.000344135 -5.09277e-05 -5.23692e-05)
(0.000473221 -6.0307e-05 -6.39683e-05)
(0.000630782 -6.86971e-05 -7.62003e-05)
(0.000810734 -7.12387e-05 -8.47656e-05)
(0.00100737 -6.98382e-05 -8.24025e-05)
(0.00116811 -4.81258e-05 -6.20348e-05)
(0.00125801 -6.64432e-05 -2.37642e-06)
(0.00120831 -0.000114163 0.000102675)
(0.00102964 -0.000154826 0.000163362)
(0.000805529 -0.000187273 0.000193145)
(0.000565205 -0.000206764 0.000196108)
(0.000338145 -0.000218164 0.000191167)
(0.000122078 -0.000222458 0.000187167)
(-8.91334e-05 -0.000220943 0.00018706)
(-0.00030577 -0.000213654 0.000190819)
(-0.000533975 -0.000199524 0.000195513)
(-0.000776174 -0.000177666 0.000192443)
(-0.00100341 -0.000143881 0.000163015)
(-0.00118639 -0.000102981 0.000103125)
(-0.00124328 -5.73166e-05 -1.94769e-07)
(-0.00115904 -4.16365e-05 -6.11835e-05)
(-0.000998725 -6.43683e-05 -8.39499e-05)
(-0.000798081 -6.72696e-05 -8.95892e-05)
(-0.000607456 -6.66683e-05 -8.44369e-05)
(-0.000432938 -6.09943e-05 -7.58597e-05)
(-0.000280072 -5.52445e-05 -6.72897e-05)
(-0.00014828 -5.10705e-05 -5.80755e-05)
(-2.85574e-05 -4.88247e-05 -3.53816e-05)
(1.92029e-05 -4.55542e-05 1.73112e-05)
(-1.39223e-05 -3.59287e-05 1.14237e-05)
(7.94268e-06 -3.90723e-05 -1.79989e-05)