/*--------------------------------*- C++ -*----------------------------------*\
| =========                 |                                                 |
| \\      /  F ield         | OpenFOAM: The Open Source CFD Toolbox           |
|  \\    /   O peration     | Version:  2112                                  |
|   \\  /    A nd           | Website:  www.openfoam.com                      |
|    \\/     M anipulation  |                                                 |
\*---------------------------------------------------------------------------*/
FoamFile
{
    version     2.0;
    format      ascii;
    arch        "LSB;label=32;scalar=64";
    class       volScalarField;
    location    "2.1";
    object      epsilon;
}
// * * * * * * * * * * * * * * * * * * * * * * * * * * * * * * * * * * * * * //

dimensions      [0 2 -3 0 0 0 0];

internalField   nonuniform List<scalar> 
64906
(
0.000890126
0.000990841
0.00104405
0.00106422
0.00107081
0.00107276
0.0010733
0.00107346
0.00107352
0.00107355
0.00107358
0.0010736
0.00107361
0.00107361
0.0010736
0.00107359
0.00107357
0.00107355
0.00107354
0.00107355
0.00107357
0.00107358
0.00107359
0.00107359
0.00107358
0.00107355
0.0010735
0.00107335
0.00107281
0.00107086
0.00106427
0.0010441
0.000990893
0.000890165
0.000990874
0.00166338
0.00200941
0.00215622
0.00221199
0.00223102
0.0022369
0.00223858
0.00223905
0.00223917
0.00223921
0.00223925
0.0022393
0.00223936
0.00223941
0.00223944
0.00223946
0.00223947
0.00223947
0.00223947
0.00223945
0.00223942
0.00223937
0.00223931
0.00223925
0.00223912
0.00223869
0.00223705
0.00223121
0.0022122
0.00215643
0.00200961
0.00166354
0.000990962
0.00104415
0.00200953
0.00254398
0.00278933
0.00289045
0.00292784
0.00294028
0.00294401
0.00294493
0.00294501
0.00294493
0.00294494
0.00294507
0.00294527
0.00294548
0.00294563
0.00294572
0.00294577
0.00294577
0.00294574
0.00294566
0.00294552
0.00294532
0.00294512
0.00294494
0.0029447
0.00294383
0.00294031
0.00292807
0.00289081
0.00278973
0.00254437
0.00200984
0.00104429
0.00106436
0.00215644
0.00278947
0.00309436
0.00322622
0.00327728
0.00329485
0.0032999
0.00330048
0.00329953
0.00329839
0.00329781
0.00329778
0.00329809
0.00329846
0.00329871
0.00329883
0.00329889
0.0032989
0.00329886
0.00329876
0.00329853
0.00329816
0.00329785
0.0032978
0.003298
0.00329767
0.0032935
0.00327683
0.00322639
0.00309481
0.00278999
0.00215686
0.00106455
0.00107099
0.00221228
0.00289068
0.00322632
0.00337543
0.00343444
0.00345453
0.00345887
0.00345656
0.00345143
0.00344642
0.00344381
0.00344313
0.00344356
0.00344422
0.00344449
0.00344451
0.0034445
0.00344451
0.00344455
0.00344455
0.00344431
0.00344366
0.00344322
0.0034438
0.00344592
0.00344909
0.00344799
0.0034312
0.00337442
0.00322644
0.0028912
0.00221277
0.00107121
0.00107295
0.00223133
0.0029281
0.00327742
0.00343449
0.00349662
0.00351579
0.0035151
0.00350324
0.00348537
0.0034691
0.00346192
0.00346051
0.00346178
0.00346334
0.00346353
0.00346316
0.00346292
0.00346294
0.00346321
0.0034636
0.00346345
0.00346191
0.00346063
0.00346191
0.00346855
0.00348281
0.00349386
0.00348507
0.00342982
0.00327625
0.00292831
0.00223182
0.00107321
0.00107349
0.00223721
0.00294053
0.00329501
0.00345466
0.00351596
0.00352926
0.00351457
0.00347756
0.00342564
0.00338033
0.00336784
0.00336985
0.00337572
0.00338041
0.00338057
0.00337945
0.00337878
0.0033788
0.00337951
0.00338066
0.00338054
0.00337587
0.00336999
0.00336786
0.0033798
0.00342307
0.00346796
0.00348368
0.00344095
0.00329058
0.00293983
0.00223755
0.00107377
0.00107364
0.00223886
0.00294422
0.0033001
0.00345927
0.00351598
0.00351583
0.00347042
0.00337566
0.00324014
0.00312272
0.00312304
0.00315062
0.00317366
0.0031871
0.00318815
0.00318638
0.00318535
0.00318537
0.00318645
0.00318826
0.00318725
0.00317383
0.0031508
0.00312313
0.00312227
0.00323774
0.00336627
0.00343956
0.00342701
0.00328907
0.00294161
0.00223883
0.00107392
0.00107368
0.00223926
0.00294512
0.00330088
0.00345778
0.00350631
0.00348323
0.00338229
0.00317172
0.00284151
0.00253344
0.00265186
0.00278134
0.00285169
0.00288293
0.00288826
0.00288773
0.00288712
0.00288714
0.0028878
0.00288838
0.0028831
0.0028519
0.00278158
0.00265206
0.00253314
0.00283946
0.00316284
0.00335195
0.00339472
0.00327929
0.00293947
0.0022386
0.00107394
0.0010737
0.00223932
0.00294525
0.00330046
0.00345459
0.00349362
0.00344228
0.00326494
0.00286374
0.00211939
0.00133665
0.0018979
0.00230686
0.00246999
0.00252439
0.00253957
0.00254309
0.00254377
0.00254379
0.00254315
0.00253967
0.00252455
0.00247021
0.00230718
0.00189827
0.00133653
0.00211795
0.00285554
0.00323526
0.00335427
0.00326683
0.00293621
0.00223793
0.00107392
0.00107369
0.00223931
0.00294531
0.00330033
0.00345318
0.00348719
0.00341906
0.00318703
0.0026053
0.00136112
0.00124618
0.00195303
0.00219918
0.00226927
0.00228725
0.00229108
0.00229174
0.00229175
0.00229111
0.0022873
0.00226936
0.00219935
0.00195332
0.00124636
0.00136053
0.00259766
0.00315766
0.00333122
0.0032604
0.00293462
0.00223754
0.0010739
0.00107368
0.0022393
0.00294555
0.00330117
0.00345563
0.00349454
0.00344189
0.00326063
0.00285156
0.00209587
0.00131892
0.00180594
0.00217921
0.00232405
0.00236833
0.00238
0.00238119
0.00238085
0.00238084
0.00238117
0.00237996
0.00236828
0.00232401
0.0021792
0.00180579
0.00131854
0.00209384
0.00284299
0.00323065
0.00335353
0.0032672
0.0029365
0.00223782
0.0010739
0.00107365
0.0022393
0.00294592
0.00330256
0.00346007
0.00350816
0.00348179
0.00337121
0.00313922
0.00277001
0.00240309
0.00241472
0.00244764
0.00246682
0.00247397
0.0024747
0.00247343
0.00247259
0.00247257
0.00247338
0.00247463
0.00247385
0.00246666
0.00244738
0.00241425
0.00240206
0.00276736
0.00312993
0.00334048
0.00339266
0.00328005
0.00294019
0.00223851
0.0010739
0.00107361
0.00223929
0.00294625
0.00330386
0.00346417
0.0035202
0.00351474
0.00345349
0.00332245
0.00311776
0.00288847
0.00273281
0.00261147
0.00255749
0.00253868
0.00253198
0.00252925
0.00252822
0.0025282
0.00252919
0.00253188
0.00253853
0.00255727
0.00261114
0.00273234
0.0028874
0.00311487
0.0033127
0.00342214
0.00342489
0.00329133
0.00294354
0.00223914
0.00107388
0.00107357
0.00223927
0.0029465
0.00330477
0.00346691
0.00352785
0.00353441
0.00349889
0.00341353
0.00326894
0.00307519
0.00286862
0.00268757
0.00260104
0.00256935
0.00255879
0.0025552
0.00255398
0.00255395
0.00255512
0.00255867
0.00256917
0.00260079
0.00268723
0.00286797
0.00307414
0.00326596
0.00340353
0.00346714
0.00344405
0.00329842
0.00294572
0.00223953
0.00107383
0.00107352
0.00223924
0.00294664
0.00330531
0.00346843
0.00353183
0.00354403
0.00351967
0.00345212
0.0033276
0.0031423
0.00291955
0.002717
0.00261818
0.00258135
0.00256914
0.00256506
0.00256364
0.0025636
0.00256496
0.002569
0.00258116
0.00261793
0.00271666
0.00291891
0.00314126
0.00332458
0.00344201
0.0034877
0.00345336
0.00330205
0.00294688
0.00223972
0.00107377
0.00107347
0.00223921
0.00294673
0.0033056
0.00346917
0.00353362
0.00354808
0.0035279
0.00346649
0.00334805
0.00316447
0.00293652
0.00272687
0.00262399
0.00258537
0.00257253
0.00256818
0.00256656
0.0025665
0.00256806
0.00257237
0.00258518
0.00262373
0.00272653
0.00293589
0.00316344
0.00334502
0.00345633
0.00349584
0.00345727
0.00330366
0.00294742
0.00223978
0.0010737
0.00107342
0.00223918
0.00294677
0.00330574
0.00346949
0.00353431
0.00354952
0.00353066
0.00347104
0.0033542
0.00317088
0.00294143
0.00272972
0.00262567
0.00258652
0.00257345
0.00256895
0.00256715
0.00256708
0.00256881
0.00257328
0.00258631
0.00262541
0.00272938
0.0029408
0.00316986
0.00335118
0.00346087
0.00349857
0.00345866
0.00330427
0.00294764
0.00223979
0.00107363
0.00107339
0.00223917
0.00294679
0.00330578
0.00346955
0.0035344
0.00354964
0.00353081
0.00347122
0.00335441
0.0031711
0.00294164
0.00272985
0.00262575
0.00258655
0.00257344
0.00256888
0.00256697
0.00256688
0.00256871
0.00257325
0.00258634
0.00262548
0.00272951
0.00294103
0.0031701
0.00335141
0.00346107
0.00349873
0.00345878
0.00330436
0.00294768
0.00223979
0.00107357
0.00107338
0.00223918
0.00294679
0.00330572
0.00346936
0.00353388
0.00354842
0.00352834
0.00346704
0.0033487
0.00316518
0.00293721
0.0027273
0.00262425
0.00258549
0.00257251
0.00256798
0.00256608
0.00256599
0.00256781
0.00257232
0.00258528
0.00262399
0.00272697
0.00293663
0.00316421
0.00334575
0.00345695
0.00349633
0.00345764
0.00330391
0.00294755
0.00223977
0.00107357
0.00107343
0.00223921
0.00294675
0.00330552
0.00346874
0.00353226
0.00354461
0.00352043
0.0034531
0.00332879
0.00314363
0.00292086
0.00271782
0.00261872
0.00258162
0.00256917
0.00256481
0.00256306
0.00256297
0.00256465
0.00256899
0.00258141
0.00261847
0.00271752
0.00292034
0.00314273
0.00332592
0.00344312
0.00348857
0.003454
0.00330248
0.00294711
0.00223973
0.00107363
0.00107347
0.00223925
0.00294664
0.00330506
0.00346736
0.00352847
0.00353525
0.00350002
0.00341502
0.00327085
0.00307743
0.00287087
0.00268896
0.00260196
0.00256989
0.00255901
0.00255508
0.00255355
0.00255349
0.00255493
0.00255884
0.00256971
0.00260175
0.00268873
0.00287046
0.00307665
0.00326813
0.00340525
0.00346843
0.00344498
0.00329904
0.00294606
0.00223958
0.0010737
0.00107352
0.00223929
0.00294645
0.00330424
0.00346475
0.00352101
0.00351585
0.00345502
0.00332456
0.00312064
0.00289203
0.0027359
0.00261354
0.00255885
0.00253952
0.00253242
0.00252936
0.00252811
0.00252806
0.00252925
0.00253228
0.00253937
0.0025587
0.00261342
0.00273572
0.00289146
0.0031182
0.00331515
0.00342389
0.00342612
0.00329215
0.00294399
0.00223922
0.00107375
0.00107356
0.00223932
0.00294615
0.00330301
0.00346076
0.00350913
0.00348313
0.00337308
0.00314192
0.00277388
0.00240824
0.00241888
0.00244979
0.00246783
0.0024743
0.00247461
0.00247306
0.00247208
0.00247205
0.00247298
0.00247449
0.00247415
0.00246768
0.00244973
0.00241906
0.00240801
0.00277193
0.00313306
0.00334261
0.00339414
0.00328104
0.00294074
0.00223864
0.00107378
0.0010736
0.00223932
0.00294579
0.00330163
0.00345634
0.00349554
0.00344328
0.0032626
0.00285444
0.0021
0.0013212
0.00180789
0.00217745
0.00232041
0.00236347
0.00237454
0.00237547
0.002375
0.00237497
0.00237537
0.00237432
0.00236302
0.00231966
0.00217668
0.00180807
0.00132099
0.00209873
0.00284607
0.00323268
0.00335497
0.00326822
0.00293709
0.00223797
0.00107379
0.00107361
0.00223927
0.00294536
0.00330049
0.00345351
0.00348775
0.00341985
0.00318794
0.00260619
0.00136135
0.00124059
0.00193584
0.00217459
0.00223989
0.00225597
0.00225917
0.00225959
0.0022595
0.00225883
0.00225509
0.00223781
0.00217047
0.00192996
0.00123761
0.00135991
0.00259713
0.00315766
0.00333171
0.00326097
0.00293501
0.00223763
0.00107379
0.0010736
0.00223892
0.0029444
0.00329924
0.00345323
0.00349233
0.00344109
0.00326361
0.00286176
0.00211654
0.00133332
0.00186466
0.00224437
0.00237746
0.0024131
0.00242258
0.00242496
0.00242541
0.00242524
0.00242417
0.00242007
0.00240605
0.00236133
0.002217
0.00184161
0.00132637
0.00210661
0.00284724
0.00323076
0.00335215
0.00326579
0.00293568
0.00223765
0.0010738
0.00107347
0.00223737
0.00294089
0.00329463
0.00345029
0.00349824
0.00347468
0.00337229
0.00315741
0.00281672
0.00248589
0.00255122
0.00260898
0.00260075
0.00258677
0.00258016
0.00257808
0.00257749
0.0025772
0.00257663
0.00257504
0.00257085
0.00256021
0.00253195
0.00247606
0.00243374
0.00278212
0.00313127
0.0033347
0.00338455
0.00327273
0.00293547
0.00223685
0.00107372
0.00107295
0.0022316
0.00292871
0.00327782
0.00343275
0.00348724
0.00348555
0.003437
0.00333335
0.00317538
0.00300932
0.00291918
0.00281758
0.00270326
0.00264786
0.00262809
0.00262219
0.00262062
0.00262024
0.00262024
0.00262088
0.0026242
0.00263751
0.00268001
0.0027822
0.00291006
0.00311471
0.00329545
0.00339541
0.00339592
0.00326603
0.00292627
0.00223173
0.00107323
0.00107101
0.00221265
0.0028915
0.00322737
0.00337575
0.00343132
0.00344147
0.00342253
0.00337453
0.00329498
0.00319051
0.00307252
0.00292585
0.00277935
0.00270942
0.00268447
0.00267703
0.0026751
0.0026747
0.00267492
0.00267647
0.00268298
0.00270583
0.00277244
0.00291779
0.00307713
0.00322656
0.0033339
0.0033819
0.0033571
0.00322216
0.00289102
0.00221318
0.0010713
0.00106442
0.00215687
0.00279042
0.00309577
0.00322771
0.0032777
0.00329134
0.00328627
0.00326524
0.00322474
0.00316037
0.00306914
0.00295247
0.00283873
0.00277924
0.00275636
0.0027493
0.00274749
0.00274714
0.00274738
0.00274902
0.00275577
0.00277792
0.00283661
0.0029508
0.00307194
0.00317105
0.0032332
0.00325316
0.0032196
0.0030943
0.00279099
0.00215759
0.00106469
0.00104424
0.00201
0.00254497
0.00279085
0.00289237
0.00292976
0.00294116
0.00294134
0.00293351
0.00291545
0.00288269
0.00283145
0.00276452
0.00269956
0.00266279
0.00264754
0.00264254
0.0026412
0.00264095
0.00264116
0.00264244
0.00264733
0.00266238
0.00269897
0.00276415
0.0028323
0.00288498
0.002915
0.00292006
0.00289009
0.00279125
0.00254595
0.00201073
0.00104449
0.000990993
0.0016638
0.00201025
0.00215746
0.00221361
0.00223295
0.0022389
0.00223997
0.00223818
0.00223269
0.00222137
0.00220223
0.00217635
0.00215066
0.00213527
0.00212849
0.00212613
0.00212544
0.00212531
0.00212545
0.00212614
0.00212849
0.00213522
0.00215057
0.0021763
0.00220241
0.00222162
0.0022315
0.00223103
0.00221392
0.00215839
0.00201113
0.00166437
0.0009912
0.000890225
0.000991051
0.00104443
0.00106475
0.00107151
0.00107363
0.00107435
0.00107466
0.00107476
0.00107461
0.001074
0.00107265
0.00107053
0.0010682
0.00106674
0.00106602
0.00106567
0.00106547
0.00106539
0.00106548
0.00106568
0.00106602
0.00106672
0.00106816
0.00107046
0.00107257
0.00107391
0.00107439
0.00107405
0.00107202
0.00106522
0.0010448
0.000991294
0.000890362
0.00116161
0.00155896
0.00178357
0.00187992
0.00191598
0.00192804
0.00193168
0.00193269
0.00193293
0.00193296
0.00193293
0.00193289
0.00193285
0.00193282
0.00193279
0.00193277
0.00193275
0.00193273
0.00193273
0.00193274
0.00193276
0.00193278
0.00193281
0.00193283
0.00193285
0.00193284
0.00193262
0.00193166
0.00192804
0.001916
0.00187995
0.0017836
0.001559
0.00116164
0.00155897
0.00183372
0.00209153
0.00221784
0.00226966
0.00228829
0.00229424
0.00229594
0.00229634
0.00229636
0.00229628
0.0022962
0.00229615
0.00229612
0.0022961
0.00229609
0.00229608
0.00229607
0.00229607
0.00229608
0.00229609
0.00229611
0.00229613
0.00229615
0.00229618
0.00229616
0.0022958
0.00229417
0.00228827
0.00226968
0.00221787
0.00209158
0.00183376
0.00155901
0.00178365
0.00209158
0.00240558
0.00257051
0.00264318
0.00267121
0.00268078
0.00268362
0.00268421
0.00268409
0.00268382
0.0026836
0.0026835
0.00268348
0.00268349
0.0026835
0.0026835
0.00268349
0.00268349
0.0026835
0.00268351
0.0026835
0.00268349
0.00268351
0.00268356
0.00268357
0.00268306
0.00268043
0.00267106
0.00264318
0.00257058
0.00240568
0.00209169
0.00178375
0.00188008
0.00221794
0.00257057
0.00276267
0.00285081
0.0028862
0.00289864
0.00290217
0.0029024
0.00290147
0.00290039
0.00289968
0.00289939
0.00289937
0.00289942
0.00289945
0.00289944
0.00289943
0.00289944
0.00289945
0.00289947
0.00289944
0.00289939
0.0028994
0.00289962
0.00290003
0.0029
0.00289716
0.00288544
0.00285056
0.0027627
0.00257072
0.0022181
0.00188025
0.0019162
0.00226981
0.00264329
0.00285086
0.00294821
0.00298803
0.00300182
0.00300471
0.00300289
0.00299913
0.00299547
0.00299338
0.00299267
0.00299268
0.00299284
0.00299288
0.00299282
0.00299277
0.00299278
0.00299284
0.0029929
0.00299287
0.00299271
0.00299269
0.0029933
0.00299503
0.00299734
0.00299665
0.00298519
0.00294702
0.00285055
0.00264337
0.00226999
0.00191641
0.00192829
0.00228845
0.00267134
0.00288628
0.00298807
0.00302958
0.00304256
0.00304198
0.00303387
0.00302202
0.00301147
0.00300638
0.00300541
0.00300598
0.00300659
0.00300674
0.00300657
0.00300641
0.00300642
0.00300659
0.00300677
0.00300663
0.00300603
0.00300544
0.0030063
0.00301098
0.00302005
0.00302708
0.00302096
0.0029842
0.00288494
0.0026711
0.00228856
0.0019285
0.00193194
0.0022944
0.00268092
0.00289875
0.00300194
0.00304271
0.00305167
0.00304193
0.00301805
0.00298598
0.00295927
0.00294944
0.0029508
0.00295436
0.00295659
0.00295738
0.00295716
0.00295687
0.00295687
0.00295718
0.00295741
0.00295663
0.00295442
0.00295084
0.00294937
0.00295878
0.00298396
0.00301104
0.00302026
0.00299174
0.00289495
0.00267985
0.00229428
0.00193208
0.00193294
0.00229608
0.00268376
0.00290235
0.00300507
0.00304268
0.00304287
0.00301395
0.00295605
0.00287909
0.00282006
0.00280442
0.00281857
0.00283251
0.00283918
0.00284243
0.00284275
0.00284245
0.00284245
0.00284277
0.00284247
0.00283924
0.00283258
0.00281863
0.00280439
0.0028196
0.00287709
0.002949
0.00299207
0.00298237
0.00289376
0.0026811
0.00229549
0.00193286
0.00193316
0.00229646
0.00268439
0.0029028
0.00300391
0.00303615
0.00302206
0.00296071
0.00284139
0.0026795
0.00258672
0.00254192
0.00259517
0.00263615
0.00265195
0.00266193
0.00266444
0.00266463
0.00266464
0.00266447
0.00266198
0.00265201
0.00263624
0.00259527
0.00254193
0.00258627
0.00267753
0.00283436
0.00293879
0.00296138
0.00288683
0.00267929
0.00229514
0.00193273
0.00193317
0.00229647
0.00268437
0.00290234
0.00300158
0.00302786
0.00299743
0.00289683
0.00269851
0.0024411
0.00288441
0.00219348
0.00230824
0.00239842
0.00242792
0.0024493
0.00245563
0.0024568
0.00245681
0.00245566
0.00244935
0.002428
0.00239854
0.0023084
0.00219356
0.00288338
0.00243894
0.00269138
0.00287481
0.0029366
0.00287831
0.00267665
0.00229435
0.00193232
0.00193313
0.00229642
0.0026843
0.00290208
0.00300044
0.00302376
0.00298501
0.00286565
0.00265668
0.00301837
0.00242573
0.00211893
0.00223017
0.00228453
0.00229473
0.00229566
0.00229554
0.00229555
0.00229567
0.00229476
0.00228458
0.00223026
0.00211906
0.00242607
0.00301326
0.00264915
0.00284342
0.002924
0.002874
0.00267526
0.00229386
0.00193204
0.00193307
0.00229638
0.00268437
0.00290248
0.00300176
0.00302771
0.00299609
0.00289249
0.00268763
0.00241496
0.00277761
0.00211997
0.0022607
0.00237183
0.0024451
0.00241875
0.00240576
0.00240242
0.00240241
0.00240573
0.00241871
0.00244507
0.0023718
0.00226066
0.00211972
0.00277592
0.00241253
0.0026803
0.00287027
0.00293499
0.00287777
0.00267635
0.00229405
0.00193209
0.00193302
0.00229636
0.00268456
0.0029033
0.0030045
0.00303604
0.00301931
0.0029512
0.00281712
0.00262583
0.00248097
0.00238856
0.00241423
0.00243774
0.00245632
0.00244653
0.00244034
0.00243835
0.00243834
0.00244032
0.00244649
0.00245627
0.00243766
0.00241409
0.00238824
0.00248019
0.00262357
0.00280984
0.00292896
0.00295811
0.00288592
0.00267888
0.00229469
0.00193236
0.00193296
0.00229635
0.00268474
0.0029041
0.00300713
0.00304374
0.00303985
0.00300034
0.00291956
0.00279981
0.00267335
0.00257861
0.0025282
0.00249568
0.0024838
0.00247658
0.0024733
0.00247221
0.0024722
0.00247328
0.00247654
0.00248374
0.00249558
0.00252804
0.00257831
0.00267261
0.00279756
0.00291223
0.002978
0.00297851
0.00289342
0.00268128
0.00229532
0.00193259
0.0019329
0.00229634
0.00268488
0.00290466
0.0030089
0.00304875
0.00305263
0.00302922
0.0029759
0.00289006
0.00278116
0.00267234
0.00258817
0.00253005
0.00250542
0.00249662
0.00249373
0.0024929
0.00249289
0.00249371
0.00249658
0.00250536
0.00252994
0.002588
0.00267203
0.00278043
0.00288779
0.00296852
0.00300678
0.00299113
0.00289825
0.00268287
0.00229573
0.00193271
0.00193284
0.00229633
0.00268495
0.00290498
0.00300987
0.00305137
0.003059
0.00304292
0.00300117
0.00292838
0.00282588
0.00271036
0.00261302
0.00254493
0.0025155
0.00250553
0.00250255
0.00250175
0.00250174
0.00250253
0.00250549
0.00251544
0.00254482
0.00261285
0.00271004
0.00282516
0.00292611
0.00299375
0.00302041
0.0029974
0.00290074
0.0026837
0.00229594
0.00193273
0.00193278
0.00229631
0.00268498
0.00290514
0.00301033
0.00305253
0.00306169
0.00304845
0.00301088
0.00294241
0.0028417
0.00272359
0.00262166
0.00255016
0.0025191
0.00250865
0.00250558
0.00250476
0.00250475
0.00250556
0.00250861
0.00251904
0.00255006
0.0026215
0.00272328
0.00284098
0.00294014
0.00300343
0.00302589
0.00300003
0.00290182
0.00268407
0.00229602
0.00193269
0.00193274
0.0022963
0.002685
0.0029052
0.00301051
0.00305296
0.00306263
0.00305029
0.00301397
0.00294671
0.00284638
0.00272744
0.00262416
0.00255168
0.00252014
0.00250953
0.00250642
0.00250558
0.00250556
0.00250639
0.0025095
0.00252008
0.00255157
0.002624
0.00272714
0.00284567
0.00294443
0.00300652
0.00302771
0.00300094
0.00290221
0.00268421
0.00229604
0.00193265
0.00193271
0.0022963
0.002685
0.00290522
0.00301053
0.00305299
0.00306267
0.00305034
0.00301404
0.00294679
0.00284647
0.00272753
0.00262423
0.00255172
0.00252017
0.00250955
0.00250642
0.00250556
0.00250555
0.00250639
0.00250951
0.00252011
0.00255162
0.00262407
0.00272723
0.00284577
0.00294452
0.00300659
0.00302777
0.00300098
0.00290224
0.00268422
0.00229604
0.00193261
0.00193272
0.00229631
0.002685
0.00290518
0.00301039
0.00305263
0.00306182
0.00304861
0.00301109
0.00294267
0.00284199
0.00272388
0.00262188
0.00255032
0.0025192
0.00250871
0.0025056
0.00250474
0.00250473
0.00250557
0.00250867
0.00251914
0.00255022
0.00262173
0.00272359
0.0028413
0.00294042
0.00300367
0.00302607
0.00300016
0.00290191
0.00268411
0.00229602
0.00193261
0.00193275
0.00229632
0.00268498
0.00290505
0.00300998
0.00305153
0.00305922
0.00304321
0.00300155
0.00292886
0.00282644
0.00271094
0.00261347
0.00254526
0.00251573
0.0025057
0.00250267
0.00250182
0.00250181
0.00250265
0.00250566
0.00251568
0.00254518
0.00261334
0.00271068
0.00282578
0.00292665
0.00299418
0.00302073
0.00299762
0.00290088
0.00268377
0.00229595
0.00193261
0.0019328
0.00229634
0.00268492
0.00290476
0.00300906
0.00304898
0.00305294
0.00302966
0.00297651
0.00289087
0.00278215
0.00267337
0.00258898
0.00253066
0.00250588
0.002497
0.00249407
0.0024932
0.00249319
0.00249406
0.00249698
0.00250585
0.00253061
0.00258889
0.00267317
0.00278154
0.00288871
0.00296921
0.00300728
0.00299147
0.00289846
0.00268297
0.00229575
0.00193258
0.00193286
0.00229635
0.0026848
0.00290422
0.00300733
0.00304403
0.00304028
0.00300095
0.00292045
0.00280107
0.00267494
0.00258021
0.00252943
0.00249655
0.00248444
0.00247717
0.00247388
0.00247278
0.00247278
0.00247388
0.00247717
0.00248444
0.00249654
0.0025294
0.0025801
0.00267441
0.00279899
0.00291324
0.00297868
0.00297895
0.00289369
0.00268141
0.00229535
0.00193245
0.00193291
0.00229636
0.00268461
0.00290343
0.00300473
0.00303638
0.00301981
0.00295195
0.00281826
0.00262752
0.00248322
0.00239064
0.00241533
0.00243815
0.00245631
0.00244653
0.00244035
0.00243837
0.00243837
0.00244036
0.00244653
0.0024563
0.0024381
0.00241526
0.00239055
0.00248272
0.00262545
0.00281106
0.00292974
0.00295861
0.00288623
0.00267903
0.00229473
0.00193221
0.00193295
0.00229635
0.00268439
0.00290256
0.00300193
0.00302801
0.00299653
0.00289316
0.00268864
0.00241657
0.00278326
0.00212
0.00225854
0.00236814
0.00244057
0.00241388
0.00240074
0.00239738
0.00239738
0.00240073
0.00241378
0.00244031
0.00236746
0.00225749
0.00211889
0.00278215
0.00241388
0.00268104
0.00287075
0.00293533
0.00287799
0.00267645
0.00229406
0.00193193
0.00193295
0.00229629
0.00268413
0.00290189
0.00300027
0.00302366
0.00298496
0.00286558
0.00265636
0.00301583
0.00240066
0.00210023
0.0022053
0.00225532
0.00226386
0.00226437
0.00226417
0.00226411
0.00226413
0.00226314
0.0022534
0.00220111
0.00209306
0.00238665
0.00300534
0.00264696
0.00284244
0.00292357
0.00287379
0.00267512
0.00229374
0.0019318
0.00193276
0.00229592
0.00268342
0.00290105
0.00300009
0.00302627
0.00299569
0.00289461
0.00269488
0.00243289
0.0028471
0.00215503
0.0022508
0.00232078
0.00233731
0.0023533
0.00235853
0.00235957
0.00235944
0.0023579
0.00235124
0.00233145
0.0023075
0.00222834
0.00212801
0.00280555
0.00241862
0.00268211
0.00287007
0.00293399
0.00287672
0.00267563
0.00229376
0.00193182
0.00193182
0.00229429
0.00268068
0.00289776
0.00299797
0.00302966
0.00301496
0.00295218
0.00282903
0.00265733
0.00254159
0.00246318
0.0024726
0.00247245
0.00246149
0.00245973
0.00245952
0.00245937
0.00245913
0.00245833
0.00245559
0.00244932
0.00244444
0.00242856
0.00241317
0.00249954
0.00263182
0.00281037
0.00292534
0.00295295
0.00288105
0.00267539
0.0022929
0.00193128
0.00192822
0.00228841
0.00267128
0.00288583
0.00298585
0.00302187
0.00302072
0.00298927
0.00292499
0.00283286
0.00274269
0.00267675
0.00262765
0.00258706
0.00255221
0.00253748
0.00253279
0.0025315
0.00253117
0.00253109
0.00253133
0.00253362
0.00254442
0.00257062
0.00260915
0.00268743
0.00279732
0.00290101
0.00296065
0.00295939
0.0028761
0.00266831
0.00228771
0.00192804
0.00191619
0.00226983
0.00264338
0.00285087
0.00294743
0.00298453
0.00299113
0.00297813
0.00294676
0.00289753
0.00283686
0.00277203
0.00270419
0.00264732
0.00260301
0.00258356
0.00257713
0.00257536
0.00257498
0.00257521
0.00257665
0.00258226
0.00260021
0.00264229
0.00269998
0.00277835
0.00285945
0.00292174
0.00295033
0.00293311
0.00284583
0.00264199
0.0022696
0.00191623
0.00188011
0.00221801
0.00257077
0.00276297
0.00285089
0.00288518
0.00289441
0.00289041
0.00287568
0.00284912
0.00280975
0.00275789
0.00269703
0.00264168
0.00260361
0.0025864
0.0025804
0.00257865
0.0025783
0.00257862
0.00258027
0.00258604
0.0026028
0.00264038
0.00269645
0.00276085
0.00281739
0.00285484
0.00286685
0.00284369
0.00276067
0.00257027
0.00221802
0.00188026
0.00178372
0.00209168
0.00240583
0.00257094
0.00264367
0.00267138
0.00267972
0.00267934
0.00267287
0.00265928
0.00263634
0.00260271
0.00256117
0.00252214
0.00249642
0.00248441
0.00248001
0.00247866
0.00247839
0.00247867
0.00248001
0.00248436
0.00249626
0.00252192
0.00256126
0.00260384
0.00263839
0.00265902
0.00266247
0.0026405
0.00257011
0.00240576
0.00209178
0.00178389
0.00155907
0.00183382
0.00209179
0.00221828
0.00227024
0.00228887
0.00229449
0.00229503
0.00229252
0.00228637
0.00227487
0.00225669
0.00223323
0.0022106
0.00219602
0.00218916
0.00218658
0.00218576
0.00218559
0.00218579
0.00218663
0.00218922
0.00219607
0.00221065
0.00223338
0.0022571
0.00227531
0.00228525
0.00228529
0.0022692
0.00221815
0.00209189
0.00183391
0.0015592
0.0011617
0.00155907
0.00178386
0.00188044
0.00191671
0.00192892
0.00193254
0.00193309
0.00193187
0.00192838
0.0019213
0.00190936
0.0018932
0.0018772
0.00186746
0.00186305
0.00186138
0.0018608
0.00186067
0.00186083
0.00186142
0.0018631
0.0018675
0.00187723
0.00189326
0.00190953
0.00192145
0.00192759
0.00192734
0.00191653
0.00188067
0.0017841
0.0015592
0.00116182
0.00130255
0.0019224
0.00229292
0.00246241
0.00253044
0.00255483
0.00256269
0.00256495
0.00256547
0.00256547
0.00256533
0.00256517
0.00256504
0.00256494
0.00256487
0.00256482
0.00256478
0.00256475
0.00256475
0.00256477
0.00256481
0.00256486
0.00256493
0.00256501
0.00256511
0.00256511
0.00256466
0.0025625
0.00255472
0.00253039
0.00246239
0.00229291
0.00192241
0.00130259
0.0019224
0.00211925
0.00239301
0.00253969
0.0026045
0.00262942
0.00263791
0.00264045
0.00264105
0.00264105
0.00264089
0.00264073
0.00264061
0.00264053
0.00264048
0.00264045
0.00264042
0.00264041
0.00264041
0.00264042
0.00264045
0.00264048
0.00264053
0.0026406
0.00264067
0.00264066
0.00264012
0.00263768
0.0026293
0.00260444
0.00253969
0.00239302
0.00211926
0.0019224
0.002293
0.00239304
0.00267544
0.0028411
0.00292007
0.00295271
0.00296455
0.00296823
0.00296897
0.00296873
0.00296825
0.00296783
0.00296756
0.00296743
0.00296736
0.00296732
0.00296728
0.00296726
0.00296726
0.00296729
0.00296732
0.00296737
0.00296743
0.00296755
0.00296774
0.00296785
0.00296724
0.00296386
0.00295232
0.00291992
0.00284109
0.0026755
0.00239311
0.00229306
0.00246261
0.00253978
0.00284115
0.003025
0.00311619
0.00315535
0.00316994
0.00317422
0.00317444
0.00317314
0.00317158
0.00317041
0.00316977
0.0031695
0.00316939
0.00316933
0.00316927
0.00316923
0.00316923
0.00316927
0.00316934
0.0031694
0.00316951
0.00316975
0.00317028
0.00317102
0.0031711
0.00316771
0.00315407
0.00311562
0.00302486
0.00284121
0.0025399
0.00246273
0.00253072
0.00260463
0.00292017
0.00311624
0.00321544
0.00325872
0.00327453
0.00327792
0.0032757
0.00327113
0.00326655
0.00326353
0.00326215
0.00326165
0.00326147
0.0032614
0.00326128
0.0032612
0.0032612
0.00326129
0.00326141
0.00326148
0.00326166
0.00326213
0.00326337
0.00326587
0.00326869
0.0032678
0.00325479
0.00321358
0.00311557
0.00292008
0.00260473
0.00253087
0.00255516
0.00262958
0.00295283
0.00315544
0.00325878
0.0033036
0.0033183
0.00331775
0.00330869
0.00329565
0.00328381
0.00327696
0.00327478
0.00327432
0.00327409
0.00327426
0.00327415
0.00327398
0.00327399
0.00327416
0.00327428
0.00327411
0.00327434
0.00327477
0.00327678
0.00328307
0.00329297
0.0033001
0.00329287
0.00325356
0.00315337
0.00295223
0.00262952
0.00255521
0.00256303
0.00263806
0.0029647
0.00317009
0.00327472
0.00331854
0.00332875
0.00331852
0.00329375
0.00326163
0.00323477
0.00322085
0.00322005
0.00322126
0.00322109
0.00322282
0.00322314
0.00322293
0.00322294
0.00322316
0.00322284
0.00322112
0.00322129
0.00322004
0.00322068
0.00323399
0.00325883
0.00328481
0.00329277
0.00326214
0.00316491
0.00296294
0.00263761
0.0025628
0.00256529
0.0026406
0.00296841
0.00317452
0.00327851
0.0033188
0.00331983
0.00329091
0.00323547
0.00316654
0.00311595
0.00308493
0.0030943
0.0031026
0.0031017
0.00310984
0.00311211
0.00311209
0.0031121
0.00311213
0.00310987
0.00310174
0.00310265
0.00309432
0.00308478
0.00311517
0.00316368
0.00322634
0.00326473
0.00325236
0.00316367
0.00296454
0.0026394
0.00256446
0.00256581
0.00264121
0.00296926
0.0031751
0.00327726
0.00331191
0.00329912
0.00324164
0.0031384
0.00301714
0.00298024
0.00285354
0.00289465
0.0029237
0.00291664
0.00294565
0.00295378
0.00295472
0.00295472
0.00295381
0.00294569
0.0029167
0.00292378
0.00289473
0.00285343
0.00297936
0.00301412
0.00312904
0.0032151
0.00323113
0.00315605
0.00296235
0.0026389
0.00256405
0.00256582
0.00264125
0.00296924
0.00317454
0.00327466
0.00330346
0.00327638
0.00318981
0.0030449
0.00294752
0.00393822
0.0025624
0.00265742
0.00273344
0.00270478
0.00278325
0.0028044
0.00280765
0.00280766
0.00280444
0.00278332
0.00270485
0.00273357
0.00265758
0.0025623
0.00393571
0.00294368
0.003035
0.0031628
0.0032079
0.00314709
0.00295921
0.00263779
0.00256305
0.00256572
0.00264118
0.00296913
0.00317417
0.00327335
0.00329942
0.00326628
0.0031737
0.0030866
0.00424956
0.00285522
0.00241624
0.0025389
0.00261334
0.00260764
0.00260254
0.00260109
0.0026011
0.00260256
0.00260766
0.0026134
0.00253901
0.00241639
0.00285557
0.00423755
0.00307567
0.00314623
0.00319744
0.0031427