/*--------------------------------*- C++ -*----------------------------------*\
| =========                 |                                                 |
| \\      /  F ield         | OpenFOAM: The Open Source CFD Toolbox           |
|  \\    /   O peration     | Version:  2112                                  |
|   \\  /    A nd           | Website:  www.openfoam.com                      |
|    \\/     M anipulation  |                                                 |
\*---------------------------------------------------------------------------*/
FoamFile
{
    version     2.0;
    format      ascii;
    arch        "LSB;label=32;scalar=64";
    class       volScalarField;
    location    "2.1";
    object      k;
}
// * * * * * * * * * * * * * * * * * * * * * * * * * * * * * * * * * * * * * //

dimensions      [0 2 -2 0 0 0 0];

internalField   nonuniform List<scalar> 
64906
(
0.000833647
0.000896791
0.000929593
0.000942041
0.00094616
0.000947398
0.000947749
0.000947852
0.000947889
0.00094791
0.000947925
0.000947935
0.00094794
0.00094794
0.000947936
0.000947928
0.000947917
0.000947905
0.000947897
0.000947906
0.000947916
0.000947924
0.000947928
0.000947927
0.000947921
0.000947908
0.000947875
0.000947776
0.000947427
0.000946189
0.000942071
0.000929625
0.000896823
0.000833673
0.000896812
0.00127071
0.001444
0.00151531
0.00154239
0.00155174
0.00155468
0.00155553
0.00155577
0.00155583
0.00155584
0.00155586
0.00155588
0.0015559
0.00155593
0.00155594
0.00155595
0.00155596
0.00155596
0.00155595
0.00155594
0.00155593
0.00155591
0.00155588
0.00155585
0.00155579
0.00155557
0.00155475
0.00155183
0.00154249
0.00151541
0.0014441
0.0012708
0.000896866
0.000929654
0.00144406
0.00169328
0.00180293
0.00184781
0.00186455
0.0018702
0.00187191
0.00187233
0.00187236
0.00187231
0.00187229
0.00187234
0.00187242
0.00187251
0.00187257
0.00187261
0.00187263
0.00187263
0.00187262
0.00187258
0.00187252
0.00187244
0.00187236
0.00187229
0.00187219
0.0018718
0.00187018
0.00186463
0.00184796
0.0018031
0.00169346
0.00144421
0.000929741
0.000942133
0.00151542
0.00180299
0.00193496
0.00199146
0.00201348
0.00202116
0.00202339
0.00202364
0.0020232
0.00202266
0.00202237
0.00202232
0.00202243
0.00202258
0.00202268
0.00202273
0.00202275
0.00202275
0.00202274
0.0020227
0.00202261
0.00202247
0.00202235
0.00202236
0.00202248
0.00202234
0.00202051
0.00201324
0.0019915
0.00193514
0.00180321
0.00151562
0.000942248
0.00094627
0.00154253
0.00184791
0.00199151
0.00205456
0.00207965
0.00208829
0.00209017
0.00208915
0.00208691
0.0020847
0.0020835
0.00208313
0.00208326
0.00208352
0.00208361
0.00208361
0.0020836
0.00208361
0.00208363
0.00208364
0.00208355
0.0020833
0.00208317
0.00208348
0.00208446
0.00208585
0.00208536
0.00207816
0.00205405
0.00199151
0.00184812
0.00154276
0.000946407
0.000947516
0.00155189
0.00186466
0.00201355
0.00207967
0.00210595
0.00211414
0.00211385
0.00210879
0.00210117
0.00209419
0.00209096
0.00209019
0.00209062
0.00209123
0.00209128
0.00209111
0.002091
0.00209101
0.00209113
0.00209131
0.00209127
0.00209067
0.00209023
0.00209095
0.00209393
0.00210001
0.00210465
0.00210086
0.00207754
0.00201296
0.00186472
0.00155212
0.000947672
0.000947867
0.00155483
0.00187031
0.00202123
0.00208835
0.00211422
0.00211989
0.00211369
0.00209811
0.00207628
0.0020571
0.00205138
0.00205183
0.00205409
0.00205598
0.00205601
0.00205551
0.00205522
0.00205523
0.00205554
0.00205604
0.00205603
0.00205415
0.00205188
0.00205138
0.00205685
0.00207511
0.00209386
0.00210031
0.0020823
0.00201919
0.00186993
0.00155497
0.000948035
0.000947962
0.00155566
0.00187201
0.00202349
0.00209036
0.00211426
0.00211426
0.00209525
0.0020556
0.00199868
0.00194874
0.00194781
0.00195872
0.00196814
0.00197375
0.00197415
0.00197337
0.00197291
0.00197292
0.00197339
0.0019742
0.00197381
0.00196822
0.00195879
0.00194784
0.00194852
0.00199755
0.00205139
0.00208182
0.00207639
0.00201853
0.00187073
0.00155561
0.000948131
0.000947989
0.00155587
0.00187243
0.00202384
0.00208972
0.00211017
0.00210061
0.00205851
0.00197009
0.00182851
0.00169188
0.00174286
0.00179866
0.00182894
0.00184248
0.00184476
0.0018445
0.00184422
0.00184423
0.00184453
0.00184481
0.00184255
0.00182903
0.00179877
0.00174295
0.00169172
0.00182752
0.00196602
0.00204518
0.00206275
0.00201429
0.00186975
0.00155549
0.00094814
0.000947996
0.00155591
0.00187248
0.00202365
0.00208836
0.00210483
0.00208357
0.00200957
0.00183861
0.0015008
0.00110035
0.0013904
0.00158418
0.00165854
0.00168317
0.00169005
0.00169165
0.00169195
0.00169196
0.00169167
0.00169009
0.00168324
0.00165864
0.00158433
0.00139059
0.00110027
0.00150002
0.00183472
0.00199638
0.00204576
0.00200892
0.00186827
0.00155515
0.000948122
0.000947994
0.0015559
0.00187251
0.00202359
0.00208774
0.00210213
0.00207393
0.001977
0.00172534
0.00111441
0.00104801
0.00141534
0.00153264
0.00156543
0.00157389
0.00157572
0.00157604
0.00157605
0.00157574
0.00157392
0.00156547
0.00153272
0.00141549
0.00104811
0.00111404
0.0017216
0.00196384
0.00203611
0.00200616
0.00186755
0.00155495
0.000948109
0.000947984
0.00155589
0.00187262
0.00202395
0.00208877
0.00210516
0.0020833
0.00200754
0.00183289
0.00148889
0.00108989
0.00134276
0.00152222
0.00158929
0.00160956
0.00161508
0.0016157
0.00161555
0.00161555
0.00161568
0.00161506
0.00160954
0.00158927
0.00152222
0.00134268
0.00108966
0.00148782
0.00182884
0.00199421
0.00204534
0.00200903
0.00186838
0.00155509
0.00094811
0.000947966
0.00155589
0.00187278
0.00202455
0.00209066
0.00211086
0.00209981
0.00205342
0.00195539
0.00179553
0.00162993
0.00163226
0.00164545
0.00165351
0.00165656
0.00165691
0.00165635
0.00165598
0.00165597
0.00165633
0.00165688
0.0016565
0.00165343
0.00164533
0.00163203
0.00162943
0.00179426
0.00195113
0.00203992
0.00206167
0.00201452
0.00187004
0.00155544
0.000948112
0.000947943
0.00155589
0.00187294
0.00202512
0.00209242
0.00211594
0.00211354
0.00208757
0.00203205
0.00194457
0.00184457
0.00177438
0.00171902
0.0016941
0.00168536
0.00168226
0.00168101
0.00168054
0.00168053
0.00168098
0.00168221
0.00168529
0.001694
0.00171888
0.00177416
0.00184407
0.00194323
0.00202767
0.0020739
0.00207522
0.0020194
0.00187157
0.00155576
0.000948101
0.000947916
0.00155588
0.00187305
0.00202553
0.00209361
0.00211921
0.00212182
0.00210651
0.00207001
0.00200816
0.00192451
0.00183382
0.00175301
0.00171366
0.0016991
0.00169423
0.00169258
0.00169202
0.00169201
0.00169254
0.00169418
0.00169902
0.00171355
0.00175285
0.00183353
0.00192403
0.0020068
0.00206556
0.00209273
0.00208335
0.00202249
0.00187257
0.00155597
0.000948073
0.000947887
0.00155587
0.00187312
0.00202577
0.00209428
0.00212092
0.00212592
0.00211527
0.0020862
0.00203286
0.00195316
0.00185611
0.00176621
0.00172144
0.00170454
0.00169891
0.00169703
0.00169637
0.00169636
0.00169698
0.00169884
0.00170446
0.00172132
0.00176606
0.00185582
0.00195269
0.00203148
0.00208171
0.00210142
0.00208735
0.00202409
0.00187311
0.00155607
0.000948034
0.000947857
0.00155586
0.00187316
0.0020259
0.00209461
0.0021217
0.00212767
0.00211878
0.00209229
0.00204154
0.0019627
0.0018636
0.00177068
0.0017241
0.00170639
0.00170046
0.00169846
0.00169771
0.00169768
0.0016984
0.00170039
0.0017063
0.00172398
0.00177053
0.00186331
0.00196223
0.00204017
0.00208778
0.0021049
0.00208905
0.00202481
0.00187336
0.0015561
0.000947992
0.000947829
0.00155584
0.00187318
0.00202596
0.00209475
0.00212201
0.00212829
0.00211997
0.00209424
0.00204418
0.00196549
0.00186578
0.00177198
0.00172487
0.00170692
0.00170089
0.00169881
0.00169799
0.00169795
0.00169875
0.00170081
0.00170682
0.00172475
0.00177183
0.0018655
0.00196503
0.00204281
0.00208973
0.00210608
0.00208966
0.00202509
0.00187346
0.00155611
0.000947949
0.000947805
0.00155584
0.00187319
0.00202598
0.00209477
0.00212204
0.00212834
0.00212003
0.00209431
0.00204427
0.00196559
0.00186587
0.00177205
0.00172491
0.00170693
0.00170088
0.00169878
0.00169791
0.00169786
0.0016987
0.0017008
0.00170684
0.00172479
0.00177189
0.0018656
0.00196513
0.00204291
0.00208981
0.00210614
0.00208971
0.00202512
0.00187348
0.00155611
0.000947913
0.000947804
0.00155584
0.00187318
0.00202595
0.00209468
0.00212181
0.00212781
0.00211896
0.00209252
0.00204182
0.00196301
0.0018639
0.00177088
0.00172422
0.00170644
0.00170045
0.00169836
0.0016975
0.00169745
0.00169828
0.00170036
0.00170634
0.0017241
0.00177073
0.00186364
0.00196256
0.00204047
0.00208804
0.0021051
0.0020892
0.00202492
0.00187342
0.0015561
0.000947912
0.000947829
0.00155586
0.00187316
0.00202586
0.00209441
0.0021211
0.00212616
0.00211558
0.00208661
0.00203336
0.00195373
0.00185669
0.00176658
0.00172168
0.00170467
0.00169893
0.00169692
0.00169611
0.00169607
0.00169684
0.00169884
0.00170457
0.00172157
0.00176645
0.00185645
0.00195332
0.00203205
0.00208217
0.00210178
0.00208762
0.00202427
0.00187321
0.00155607
0.00094795
0.000947859
0.00155588
0.00187311
0.00202565
0.0020938
0.00211946
0.00212217
0.00210698
0.00207064
0.00200897
0.00192548
0.00183481
0.00175364
0.00171409
0.00169935
0.00169433
0.00169252
0.00169182
0.00169179
0.00169246
0.00169425
0.00169927
0.00171399
0.00175353
0.00183463
0.00192511
0.00200772
0.00206628
0.00209327
0.00208374
0.00202275
0.00187272
0.00155599
0.00094799
0.000947888
0.00155589
0.00187302
0.00202528
0.00209266
0.00211628
0.002114
0.0020882
0.00203294
0.00194581
0.00184614
0.00177575
0.00171997
0.00169472
0.00168574
0.00168246
0.00168106
0.00168048
0.00168046
0.00168101
0.00168239
0.00168567
0.00169465
0.00171991
0.00177567
0.00184586
0.00194466
0.0020287
0.00207463
0.00207573
0.00201974
0.00187177
0.0015558
0.000948022
0.000947914
0.0015559
0.00187288
0.00202474
0.00209095
0.00211126
0.00210036
0.00205421
0.00195655
0.00179726
0.00163233
0.0016342
0.00164644
0.00165396
0.00165668
0.00165683
0.00165615
0.00165571
0.00165569
0.00165612
0.00165678
0.00165661
0.00165388
0.00164641
0.00163428
0.0016322
0.0017963
0.00195247
0.0020408
0.00206228
0.00201494
0.00187028
0.0015555
0.000948039
0.000947934
0.0015559
0.00187271
0.00202413
0.00208906
0.00210557
0.00208387
0.00200837
0.00183416
0.00149091
0.00109119
0.00134375
0.00152131
0.00158748
0.00160716
0.00161239
0.00161289
0.00161269
0.00161267
0.00161284
0.00161229
0.00160694
0.00158711
0.00152093
0.00134383
0.00109106
0.00149021
0.00183018
0.00199505
0.00204593
0.00200945
0.00186863
0.00155516
0.000948041
0.000947944
0.00155587
0.00187251
0.00202363
0.00208785
0.00210233
0.00207422
0.00197734
0.00172571
0.00111452
0.00104465
0.00140648
0.00152044
0.00155101
0.0015586
0.00156013
0.00156033
0.00156029
0.00155996
0.00155817
0.00155
0.00151841
0.00140346
0.00104287
0.00111365
0.00172126
0.00196375
0.00203626
0.00200637
0.0018677
0.00155499
0.000948042
0.000947933
0.00155569
0.00187206
0.00202306
0.0020877
0.00210418
0.00208295
0.00200886
0.00183755
0.00149919
0.00109826
0.00137298
0.00155366
0.00161451
0.00163062
0.00163492
0.00163602
0.00163622
0.00163614
0.00163564
0.00163373
0.00162727
0.00160684
0.00154038
0.001361
0.00109416
0.00149408
0.0018307
0.00199422
0.0020447
0.00200838
0.00186798
0.00155499
0.000948046
0.000947852
0.0015549
0.00187044
0.00202101
0.00208637
0.00210655
0.00209675
0.00205393
0.00196346
0.00181682
0.00166896
0.0016957
0.00171959
0.0017149
0.00170822
0.00170512
0.00170415
0.00170386
0.00170373
0.00170347
0.00170275
0.00170089
0.0016963
0.00168423
0.00166071
0.00164426
0.00180088
0.00195167
0.00203738
0.00205812
0.00201127
0.00186785
0.00155458
0.000947994
0.000947515
0.00155202
0.00186491
0.00201367
0.00207882
0.00210178
0.00210107
0.00208058
0.00203687
0.0019698
0.00189802
0.00185729
0.00181153
0.00176026
0.00173514
0.0017261
0.00172339
0.00172266
0.00172249
0.00172249
0.00172278
0.00172433
0.0017305
0.00175004
0.00179645
0.00185408
0.00194312
0.0020202
0.00206241
0.00206272
0.0020083
0.00186369
0.00155203
0.000947677
0.000946283
0.00154271
0.00184826
0.00199192
0.00205461
0.00207815
0.00208244
0.00207428
0.00205372
0.00201963
0.00197455
0.00192306
0.0018588
0.00179402
0.00176263
0.00175131
0.0017479
0.00174701
0.00174683
0.00174693
0.00174765
0.00175063
0.00176102
0.00179101
0.00185547
0.00192532
0.00198993
0.00203595
0.00205652
0.00204624
0.00198945
0.00184795
0.00154293
0.000946453
0.000942164
0.00151563
0.00180341
0.00193555
0.00199205
0.00201355
0.00201944
0.00201714
0.00200784
0.00199005
0.00196185
0.00192187
0.00187068
0.00182044
0.00179383
0.00178349
0.00178027
0.00177944
0.00177928
0.00177939
0.00178014
0.00178323
0.00179324
0.00181952
0.00187002
0.00192319
0.00196648
0.00199362
0.00200246
0.00198825
0.00193476
0.0018036
0.00151596
0.00094233
0.000929707
0.00144429
0.00169374
0.00180359
0.00184863
0.00186534
0.00187047
0.00187048
0.00186681
0.00185847
0.00184348
0.0018202
0.00178986
0.00176037
0.00174353
0.00173649
0.00173416
0.00173353
0.00173341
0.00173351
0.00173411
0.0017364
0.00174335
0.00176011
0.00178972
0.00182061
0.00184452
0.00185823
0.00186067
0.00184744
0.0018037
0.00169416
0.00144464
0.000929861
0.000896885
0.00127094
0.00144441
0.00151591
0.00154317
0.00155265
0.0015556
0.0015561
0.00155514
0.00155232
0.00154658
0.00153699
0.0015241
0.00151135
0.00150367
0.00150027
0.00149907
0.00149872
0.00149866
0.00149873
0.00149908
0.00150027
0.00150365
0.00151131
0.00152409
0.00153709
0.0015467
0.00155171
0.00155157
0.00154324
0.00151633
0.00144484
0.00127123
0.000897013
0.000833711
0.000896922
0.000929824
0.000942372
0.00094659
0.000947933
0.00094839
0.000948579
0.000948629
0.00094851
0.000948099
0.00094721
0.000945845
0.000944361
0.000943426
0.000942964
0.000942744
0.00094262
0.000942571
0.000942628
0.000942751
0.000942964
0.000943415
0.000944336
0.000945805
0.000947163
0.000948043
0.000948376
0.000948173
0.000946898
0.000942659
0.000930051
0.000897074
0.000833799
0.00118235
0.00144238
0.00158052
0.00163867
0.00166051
0.00166791
0.00167018
0.00167082
0.00167097
0.00167099
0.00167097
0.00167094
0.00167092
0.0016709
0.00167088
0.00167087
0.00167086
0.00167085
0.00167085
0.00167085
0.00167086
0.00167088
0.00167089
0.00167091
0.00167092
0.00167091
0.00167078
0.00167016
0.00166791
0.00166052
0.00163869
0.00158055
0.0014424
0.00118238
0.00144238
0.0026367
0.00310112
0.00330635
0.00339156
0.00342372
0.00343465
0.00343792
0.00343866
0.00343862
0.00343836
0.00343808
0.00343787
0.00343772
0.00343762
0.00343755
0.0034375
0.00343747
0.00343747
0.0034375
0.00343755
0.00343763
0.00343772
0.00343786
0.00343801
0.00343805
0.0034374
0.00343429
0.00342351
0.00339144
0.00330629
0.00310108
0.00263668
0.00144241
0.00158057
0.00310124
0.00371239
0.0039979
0.004124
0.0041748
0.00419317
0.0041989
0.00420007
0.00419969
0.00419891
0.00419824
0.00419782
0.00419763
0.00419755
0.00419749
0.00419744
0.00419741
0.00419741
0.00419744
0.0041975
0.00419756
0.00419764
0.00419781
0.00419811
0.00419829
0.00419735
0.00419209
0.00417421
0.00412375
0.00399784
0.00371242
0.00310129
0.00158064
0.00163877
0.00330656
0.003998
0.00433277
0.00448635
0.00455058
0.0045744
0.00458141
0.00458175
0.00457957
0.00457689
0.00457487
0.00457373
0.00457329
0.00457318
0.00457306
0.00457293
0.00457286
0.00457286
0.00457295
0.00457308
0.0045732
0.00457332
0.00457372
0.00457466
0.00457598
0.0045762
0.0045707
0.00454848
0.0044854
0.00433248
0.00399801
0.00330666
0.00163887
0.00166064
0.00339182
0.00412418
0.00448643
0.00465627
0.00472848
0.00475469
0.00476029
0.00475643
0.00474843
0.00474021
0.00473462
0.00473177
0.00473084
0.00473066
0.00473035
0.00472996
0.00472973
0.00472973
0.00472998
0.00473038
0.0047307
0.00473087
0.00473176
0.00473437
0.00473908
0.00474433
0.00474323
0.00472181
0.0046531
0.00448525
0.00412391
0.00339187
0.00166077
0.00166806
0.003424
0.00417501
0.00455072
0.00472857
0.00480375
0.0048282
0.00482697
0.00481101
0.00478744
0.00476518
0.00475208
0.00474654
0.00474542
0.00474565
0.00474496
0.00474397
0.00474338
0.00474339
0.00474399
0.004745
0.0047457
0.00474547
0.00474653
0.00475182
0.00476395
0.00478294
0.00479659
0.00478536
0.00471966
0.00454715
0.0041739
0.00342383
0.00166818
0.00167034
0.00343491
0.0041934
0.00457463
0.004755
0.00482859
0.00484526
0.00482691
0.00478201
0.00472088
0.00466623
0.0046419
0.00463599
0.00463783
0.00464058
0.0046396
0.0046376
0.00463643
0.00463644
0.00463763
0.00463965
0.00464064
0.0046379
0.00463601
0.00464166
0.00466499
0.00471626
0.00476708
0.00478384
0.00473344
0.0045658
0.00419041
0.00343418
0.0016704
0.00167097
0.00343817
0.00419918
0.00458188
0.00476125
0.00482874
0.00482912
0.00477614
0.00466984
0.00452336
0.00439573
0.00436918
0.00438097
0.00439764
0.00440872
0.00440866
0.00440584
0.00440416
0.00440417
0.00440587
0.00440871
0.0044088
0.00439772
0.00438102
0.004369
0.00439458
0.0045188
0.0046548
0.00473253
0.00471595
0.00456341
0.00419273
0.00343637
0.0016709
0.00167112
0.00343891
0.0042005
0.00458281
0.00475904
0.00481648
0.00479104
0.00467971
0.0044572
0.00411934
0.003804
0.00385705
0.00395828
0.00402124
0.00405086
0.0040563
0.00405505
0.00405385
0.00405386
0.00405508
0.00405635
0.00405094
0.00402135
0.00395839
0.003857
0.00380304
0.00411499
0.00444221
0.00463589
0.00467729
0.00455012
0.00418903
0.00343555
0.00167081
0.00167112
0.00343891
0.00420046
0.00458187
0.00475448
0.00480093
0.00474572
0.0045591
0.00415308
0.00337508
0.00218717
0.00299154
0.00340512
0.00356966
0.003625
0.0036452
0.00364995
0.0036506
0.00365061
0.00364998
0.00364526
0.00362509
0.0035698
0.00340533
0.00299178
0.00218659
0.00337106
0.00413807
0.00451501
0.00463153
0.00453397
0.00418375
0.00343387
0.00167055
0.0016711
0.00343876
0.00420029
0.00458127
0.00475212
0.00479291
0.00472096
0.00448501
0.00391633
0.00225668
0.00194169
0.00296213
0.00322601
0.00330613
0.00332694
0.00333114
0.00333172
0.00333172
0.00333116
0.00332697
0.00330619
0.00322614
0.00296238
0.00194187
0.00225384
0.00390116
0.00444058
0.00460638
0.00452551
0.00418091
0.0034328
0.00167038
0.00167106
0.00343864
0.00420042
0.00458198
0.00475442
0.0047998
0.00474154
0.00454814
0.0041291
0.00332789
0.00212965
0.00283653
0.00322685
0.00338202
0.00344023
0.00344549
0.00344344
0.00344219
0.00344217
0.00344341
0.00344544
0.00344017
0.00338196
0.00322678
0.00283629
0.00212871
0.00332339
0.00411379
0.00450374
0.00462692
0.00453221
0.00418287
0.00343308
0.00167041
0.00167103
0.0034386
0.00420079
0.00458357
0.00475951
0.00481467
0.00478249
0.00465544
0.00440091
0.0040038
0.00359186
0.00351658
0.00350663
0.00351408
0.00352142
0.00351921
0.00351642
0.00351513
0.00351512
0.00351639
0.00351915
0.00352133
0.00351394
0.00350638
0.00351605
0.00359046
0.00399905
0.00438554
0.0046111
0.00466789
0.00454698
0.0041877
0.00343428
0.00167058
0.001671
0.00343857
0.0042012
0.00458519
0.00476454
0.00482876
0.00481867
0.0047406
0.00458263
0.00434243
0.00406815
0.00385456
0.00368589
0.00360831
0.00358176
0.00357244
0.00356902
0.00356789
0.00356789
0.00356899
0.00357239
0.00358168
0.00360815
0.00368562
0.00385405
0.00406672
0.00433759
0.00456718
0.0046962
0.00470398
0.00456088
0.00419244
0.00343552
0.00167074
0.00167096
0.00343855
0.00420149
0.00458637
0.00476808
0.00483825
0.00484173
0.00479075
0.00467851
0.00449716
0.00425918
0.00400436
0.00377529
0.00365935
0.00361622
0.00360249
0.00359846
0.0035974
0.0035974
0.00359844
0.00360245
0.00361615
0.0036592
0.00377503
0.00400394
0.00425776
0.00449228
0.00466297
0.00474622
0.00472687
0.00457016
0.0041957
0.00343638
0.00167082
0.00167093
0.00343853
0.00420166
0.00458705
0.00477008
0.00484341
0.00485367
0.00481521
0.00472189
0.00456133
0.00433295
0.00406373
0.00381249
0.00368145
0.0036315
0.00361574
0.00361137
0.00361033
0.00361032
0.00361136
0.00361571
0.00363143
0.00368131
0.00381225
0.00406331
0.00433154
0.00455641
0.00470628
0.00477057
0.00473866
0.00457513
0.00419748
0.00343683
0.00167084
0.00167089
0.0034385
0.00420174
0.00458739
0.00477104
0.00484579
0.00485892
0.00482547
0.00473908
0.00458525
0.00435909
0.00408471
0.00382583
0.00368948
0.0036371
0.00362058
0.00361607
0.00361502
0.00361502
0.00361606
0.00362055
0.00363704
0.00368934
0.00382559
0.0040843
0.00435768
0.00458032
0.00472343
0.00478075
0.00474382
0.00457738
0.0041983
0.00343702
0.00167082
0.00167087
0.00343848
0.00420178
0.00458753
0.00477142
0.00484668
0.00486081
0.00482899
0.00474474
0.00459278
0.004367
0.00409097
0.00382983
0.0036919
0.00363878
0.00362202
0.00361746
0.00361641
0.0036164
0.00361745
0.00362199
0.00363872
0.00369176
0.00382959
0.00409056
0.0043656
0.00458785
0.00472907
0.00478425
0.00474566
0.00457821
0.0041986
0.00343708
0.0016708
0.00167085
0.00343848
0.00420178
0.00458755
0.00477145
0.00484672
0.00486087
0.00482906
0.00474483
0.00459288
0.0043671
0.00409108
0.00382993
0.00369197
0.00363882
0.00362205
0.00361748
0.00361642
0.00361641
0.00361746
0.00362202
0.00363876
0.00369184
0.00382971
0.00409068
0.00436571
0.00458796
0.00472917
0.00478433
0.00474572
0.00457825
0.00419862
0.00343708
0.00167078
0.00167086
0.00343849
0.00420177
0.00458745
0.00477113
0.00484592
0.0048591
0.00482569
0.00473937
0.00458558
0.00435944
0.00408506
0.00382618
0.00368973
0.00363726
0.0036207
0.00361617
0.0036151
0.0036151
0.00361615
0.00362067
0.00363721
0.00368961
0.00382597
0.00408467
0.00435807
0.00458069
0.00472374
0.00478101
0.004744
0.0045775
0.00419835
0.00343702
0.00167077
0.00167088
0.00343851
0.0042017
0.00458715
0.00477024
0.00484364
0.00485397
0.00481561
0.00472241
0.00456196
0.00433365
0.00406445
0.00381321
0.00368199
0.0036319
0.00361608
0.00361168
0.00361063
0.00361062
0.00361168
0.00361607
0.00363186
0.00368189
0.00381303
0.00406409
0.00433232
0.00455712
0.00470686
0.00477102
0.00473898
0.00457534
0.00419758
0.00343683
0.00167077
0.00167091
0.00343854
0.00420155
0.0045865
0.0047683
0.00483858
0.00484218
0.00479137
0.00467934
0.00449825
0.00426046
0.00400568
0.00377659
0.00366038
0.00361706
0.00360326
0.00359922
0.00359817
0.00359817
0.00359924
0.00360328
0.00361706
0.00366034
0.00377648
0.00400539
0.00425921
0.00449351
0.00466392
0.00474691
0.00472735
0.00457046
0.00419584
0.00343638
0.00167074
0.00167094
0.00343855
0.00420126
0.00458536
0.00476482
0.00482917
0.00481926
0.00474144
0.00458385
0.00434417
0.0040704
0.00385694
0.00368792
0.00360987
0.00358308
0.00357372
0.00357033
0.00356924
0.00356925
0.00357037
0.00357377
0.00358314
0.0036099
0.0036879
0.00385678
0.00406929
0.00433958
0.00456856
0.00469712
0.00470459
0.00456126
0.00419262
0.00343552
0.00167066
0.00167097
0.00343855
0.00420084
0.00458373
0.0047598
0.00481512
0.00478315
0.00465643
0.00440247
0.00400632
0.00359551
0.00352006
0.00350859
0.00351505
0.00352196
0.0035197
0.00351699
0.00351576
0.00351578
0.00351705
0.00351978
0.00352201
0.00351502
0.00350853
0.00352006
0.00359464
0.00400194
0.00438721
0.00461208
0.00466851
0.00454735
0.00418787
0.00343426
0.0016705
0.00167099
0.00343853
0.00420036
0.00458199
0.00475453
0.00480004
0.00474196
0.00454886
0.00413046
0.00333076
0.00213262
0.00283788
0.00322349
0.00337605
0.00343282
0.00343766
0.0034356
0.00343441
0.00343442
0.00343561
0.00343756
0.00343238
0.003375
0.00322204
0.00283752
0.00213198
0.00332651
0.00411464
0.00450398
0.00462706
0.00453231
0.00418289
0.00343296
0.00167031
0.00167099
0.0034384
0.00419976
0.00458059
0.00475138
0.00479215
0.00472017
0.00448411
0.00391521
0.00225525
0.0019274
0.00293176
0.00318528
0.00325848
0.00327709
0.00328092
0.00328148
0.0032814
0.00328058
0.00327598
0.00325545
0.00317867
0.00292117
0.00191946
0.00224952
0.00389678
0.00443763
0.00460467
0.00452454
0.00418031
0.00343237
0.00167023
0.00167086
0.00343763
0.00419821
0.00457875
0.00475076
0.00479678
0.00474102
0.0045532
0.0041446
0.00336173
0.00216674
0.00292298
0.00330055
0.00342784
0.0034593
0.00347319
0.00347741
0.00347827
0.00347805
0.00347639
0.00346978
0.00344947
0.00340464
0.00325933
0.00287888
0.00214438
0.00333898
0.00411815
0.00450336
0.0046247
0.00452978
0.00418115
0.0034324
0.00167024
0.00167026
0.00343446
0.00419261
0.00457201
0.00474616
0.00480214
0.00477501
0.00466016
0.00442922
0.00407192
0.00371502
0.00369712
0.00370914
0.00367815
0.00365263
0.00364388
0.00364136
0.00364061
0.00364022
0.00363941
0.00363693
0.00363139
0.00362436
0.00360838
0.00359051
0.0036329
0.00401816
0.00438828
0.00460479
0.00465788
0.00453709
0.00418042
0.00343077
0.00166989
0.00166802
0.00342367
0.00417456
0.00454917
0.00472303
0.00478691
0.0047839
0.00472465
0.00460352
0.00442335
0.00422801
0.00408853
0.00394663
0.00380133
0.00372662
0.00369931
0.00369107
0.00368888
0.00368835
0.00368831
0.00368914
0.00369403
0.00371452
0.00377709
0.00391857
0.00409961
0.00434165
0.00454906
0.00466482
0.00466794
0.00452744
0.00416709
0.00342145
0.00166788
0.00166063
0.0033916
0.00412404
0.00448585
0.00465364
0.00471973
0.0047309
0.00470451
0.00464179
0.00454112
0.00440893
0.00425593
0.00407502
0.00389669
0.00380484
0.00377033
0.00375959
0.00375669
0.00375608
0.00375646
0.00375886
0.0037684
0.00380058
0.00388962
0.00407045
0.00426863
0.00445181
0.00458435
0.00464608
0.00462133
0.0044735
0.00411997
0.00339042
0.00166064
0.00163879
0.00330642
0.00399808
0.00433282
0.00448559
0.00454699
0.0045634
0.00455393
0.00452208
0.00446436
0.00437632
0.00425603
0.00410884
0.00396854
0.00389097
0.0038595
0.00384894
0.00384587
0.00384523
0.00384582
0.00384875
0.00385895
0.00388983
0.00396695
0.00410897
0.00426245
0.00439082
0.00447438
0.00450452
0.00446788
0.00432643
0.00399612
0.00330586
0.00163887
0.00158062
0.00310116
0.00371258
0.00399826
0.0041242
0.00417394
0.00418913
0.00418719
0.00417216
0.00414137
0.00408961
0.00401363
0.00391925
0.0038301
0.00377756
0.00375459
0.00374635
0.00374381
0.00374328
0.00374384
0.00374638
0.00375456
0.00377742
0.00382997
0.00391985
0.00401619
0.00409367
0.00414062
0.00415203
0.00411564
0.00399544
0.00371181
0.00310092
0.00158072
0.00144245
0.00263669
0.00310136
0.00330681
0.0033921
0.00342402
0.00343389
0.00343426
0.00342832
0.0034147
0.00339009
0.00335211
0.00330392
0.00325791
0.00322964
0.00321665
0.00321175
0.00321017
0.00320984
0.00321024
0.00321189
0.00321683
0.00322983
0.00325817
0.00330443
0.00335316
0.00339111
0.00341265
0.00341503
0.0033889
0.00330591
0.00310116
0.00263658
0.00144253
0.00118241
0.00144245
0.00158071
0.00163899
0.00166095
0.00166843
0.00167067
0.00167099
0.00167019
0.00166795
0.00166348
0.00165601
0.00164598
0.00163608
0.00163003
0.00162729
0.00162624
0.00162588
0.0016258
0.0016259
0.00162627
0.00162732
0.00163006
0.0016361
0.00164602
0.00165612
0.00166357
0.00166745
0.00166736
0.00166078
0.00163911
0.00158084
0.00144253
0.0011825
0.00127718
0.00166104
0.00187183
0.00196542
0.00200291
0.00201649
0.00202094
0.00202224
0.00202254
0.00202254
0.00202246
0.00202236
0.00202228
0.00202223
0.00202219
0.00202216
0.00202214
0.00202212
0.00202212
0.00202213
0.00202216
0.00202218
0.00202222
0.00202227
0.00202232
0.00202233
0.00202206
0.00202082
0.00201642
0.00200288
0.00196541
0.00187182
0.00166105
0.00127721
0.00166104
0.00321877
0.00382946
0.004112
0.00423582
0.00428531
0.00430311
0.0043087
0.00431
0.00430986
0.0043093
0.00430871
0.00430824
0.00430792
0.0043077
0.00430754
0.00430743
0.00430737
0.00430737
0.00430743
0.00430754
0.0043077
0.0043079
0.0043082
0.00430854
0.00430866
0.00430756
0.00430227
0.00428476
0.00423547
0.00411177
0.00382929
0.00321866
0.00166104
0.00187188
0.0038296
0.00461387
0.0049944
0.00517072
0.0052455
0.00527394
0.00528317
0.005285
0.00528416
0.00528256
0.00528108
0.00528005
0.00527947
0.00527916
0.00527895
0.00527879
0.0052787
0.0052787
0.00527879
0.00527896
0.00527917
0.00527946
0.00527998
0.00528077
0.00528136
0.00527998
0.00527164
0.0052441
0.00517
0.00499407
0.00461374
0.00382955
0.00187191
0.00196553
0.00411226
0.00499453
0.0054362
0.00564801
0.00574093
0.00577698
0.00578791
0.00578824
0.0057843
0.00577933
0.00577519
0.00577253
0.0057712
0.0057706
0.00577017
0.00576981
0.00576961
0.00576962
0.00576982
0.00577018
0.00577062
0.0057712
0.00577244
0.00577474
0.0057776
0.00577844
0.0057701
0.00573679
0.00564592
0.00543532
0.00499425
0.00411221
0.0019656
0.00200306
0.00423615
0.00517095
0.00564813
0.00588154
0.00598533
0.00602455
0.00603304
0.0060267
0.00601355
0.00599944
0.00598864
0.00598214
0.00597922
0.00597809
0.00597708
0.00597618
0.00597568
0.00597568
0.00597619
0.00597711
0.00597812
0.00597923
0.00598203
0.00598809
0.00599733
0.00600647
0.00600517
0.00597361
0.00587556
0.00564556
0.00517006
0.00423594
0.00200313
0.00201667
0.00428569
0.0052458
0.00574116
0.0059855
0.00609325
0.0061295
0.00612759
0.00610324
0.00606696
0.00603097
0.00600599
0.00599236
0.00598722
0.00598577
0.00598365
0.00598152
0.00598036
0.00598036
0.00598154
0.00598368
0.00598581
0.00598724
0.00599226
0.0060054
0.00602866
0.00605916
0.00607969
0.00606326
0.00597018
0.00573446
0.00524332
0.00428497
0.00201668
0.00202112
0.00430349
0.00527431
0.00577742
0.00602519
0.00613029
0.00615492
0.00612827
0.00606319
0.00597435
0.00589054
0.00584129
0.00581897
0.0058136
0.00581406
0.00581025
0.00580595
0.00580366
0.00580367
0.00580597
0.00581029
0.00581411
0.00581363
0.00581889
0.00584071
0.00588818
0.00596626
0.00603866
0.00606145
0.00599037
0.00576215
0.00526852
0.00430167
0.00202096
0.00202242
0.0043091
0.0052837
0.00578889
0.00603499
0.00613099
0.00613235
0.00605806
0.00591095
0.00570951
0.00552442
0.00545
0.00543236
0.00543824
0.00544754
0.00544254
0.00543572
0.00543225
0.00543226
0.00543574
0.00544259
0.0054476
0.00543829
0.00543232
0.00544951
0.00552216
0.00570142
0.00588603
0.00599005
0.00596535
0.00575864
0.00527213
0.00430532
0.00202191
0.00202273
0.00431047
0.00528593
0.00579046
0.00603181
0.00611339
0.00607934
0.0059283
0.00563323
0.00519203
0.00476148
0.00473843
0.00480259
0.00485465
0.00488279
0.00488441
0.00487932
0.00487637
0.00487638
0.00487934
0.00488445
0.00488285
0.00485472
0.00480263
0.00473813
0.0047595
0.0051841
0.00560807
0.00585953
0.00591098
0.00573901
0.00526631
0.0043039
0.00202168
0.00202274
0.00431051
0.00528588
0.00578896
0.00602499
0.00609125
0.00601784
0.00577167
0.00525184
0.0042703
0.00269625
0.00355935
0.00399358
0.00415703
0.00419083
0.0042333
0.00424301
0.00424399
0.00424399
0.00424304
0.00423335
0.0041909
0.00415716
0.00399376
0.00355948
0.00269497
0.00426264
0.00522623
0.00570204
0.00584836
0.00571559
0.00525811
0.00430109
0.00202111
0.00202269
0.00431027
0.00528556
0.00578793
0.0060213
0.00607966
0.00598444
0.00567767
0.00496136
0.00283975
0.00216643
0.00321983
0.00348872
0.00357375
0.00359032
0.00359236