/*--------------------------------*- C++ -*----------------------------------*\
| =========                 |                                                 |
| \\      /  F ield         | OpenFOAM: The Open Source CFD Toolbox           |
|  \\    /   O peration     | Version:  2112                                  |
|   \\  /    A nd           | Website:  www.openfoam.com                      |
|    \\/     M anipulation  |                                                 |
\*---------------------------------------------------------------------------*/
FoamFile
{
    version     2.0;
    format      ascii;
    arch        "LSB;label=32;scalar=64";
    class       volScalarField;
    location    "2.1";
    object      nut;
}
// * * * * * * * * * * * * * * * * * * * * * * * * * * * * * * * * * * * * * //

dimensions      [0 2 -1 0 0 0 0];

internalField   nonuniform List<scalar> 
64906
(
7.02677e-05
7.30501e-05
7.44914e-05
7.50504e-05
7.5242e-05
7.53019e-05
7.53195e-05
7.53247e-05
7.53265e-05
7.53273e-05
7.53279e-05
7.53283e-05
7.53284e-05
7.53284e-05
7.53282e-05
7.53278e-05
7.53273e-05
7.53267e-05
7.53264e-05
7.53267e-05
7.53272e-05
7.53276e-05
7.53278e-05
7.53279e-05
7.53277e-05
7.53271e-05
7.53255e-05
7.53205e-05
7.5303e-05
7.52432e-05
7.50516e-05
7.44927e-05
7.30515e-05
7.02689e-05
7.30511e-05
8.73669e-05
9.33914e-05
9.58418e-05
9.67943e-05
9.71357e-05
9.72475e-05
9.7281e-05
9.72902e-05
9.72922e-05
9.72924e-05
9.72924e-05
9.72928e-05
9.72935e-05
9.72942e-05
9.72947e-05
9.7295e-05
9.72951e-05
9.72951e-05
9.7295e-05
9.72948e-05
9.72943e-05
9.72937e-05
9.7293e-05
9.72921e-05
9.729e-05
9.72815e-05
9.7249e-05
9.71382e-05
9.67974e-05
9.58452e-05
9.33948e-05
8.737e-05
7.30535e-05
7.44942e-05
9.33934e-05
0.000101435
0.000104881
0.000106314
0.000106867
0.00010706
0.000107121
0.000107136
0.000107136
0.000107133
0.000107131
0.000107131
0.000107133
0.000107135
0.000107137
0.000107138
0.000107139
0.000107139
0.000107139
0.000107138
0.000107136
0.000107134
0.000107132
0.00010713
0.000107128
0.000107114
0.000107057
0.000106868
0.000106318
0.000104886
0.000101441
9.33986e-05
7.4498e-05
7.50545e-05
9.58455e-05
0.000104883
0.000108897
0.000110635
0.000111334
0.000111586
0.000111661
0.000111669
0.000111652
0.000111632
0.000111619
0.000111615
0.000111617
0.00011162
0.000111623
0.000111624
0.000111624
0.000111624
0.000111624
0.000111623
0.000111621
0.000111618
0.000111616
0.000111618
0.000111624
0.000111621
0.000111559
0.000111322
0.000110634
0.000108901
0.00010489
9.58522e-05
7.50595e-05
7.52469e-05
9.6799e-05
0.000106317
0.000110636
0.000112551
0.000113336
0.000113614
0.000113677
0.000113642
0.000113567
0.000113491
0.000113446
0.000113428
0.000113429
0.000113434
0.000113436
0.000113435
0.000113435
0.000113435
0.000113436
0.000113437
0.000113435
0.00011343
0.000113429
0.000113445
0.000113482
0.000113528
0.000113511
0.00011328
0.00011253
0.000110633
0.000106323
9.68064e-05
7.52529e-05
7.53072e-05
9.71408e-05
0.00010687
0.000111336
0.000113336
0.000114153
0.000114416
0.000114407
0.000114245
0.000114003
0.000113778
0.000113662
0.000113625
0.00011363
0.000113645
0.000113644
0.000113638
0.000113634
0.000113634
0.000113639
0.000113645
0.000113646
0.000113631
0.000113626
0.000113661
0.000113768
0.000113961
0.000114102
0.000113979
0.000113259
0.000111311
0.000106869
9.71474e-05
7.5314e-05
7.53248e-05
9.72525e-05
0.000107064
0.000111588
0.000113617
0.000114419
0.0001146
0.000114408
0.000113926
0.000113259
0.000112667
0.000112456
0.000112438
0.00011249
0.000112541
0.000112539
0.000112522
0.000112512
0.000112512
0.000112523
0.00011254
0.000112542
0.000112492
0.000112439
0.000112456
0.000112656
0.000113216
0.000113779
0.000113965
0.00011341
0.000111512
0.000107046
9.72553e-05
7.5332e-05
7.53296e-05
9.72855e-05
0.000107124
0.000111665
0.000113684
0.000114422
0.000114428
0.00011385
0.000112658
0.000110959
0.000109451
0.000109335
0.000109595
0.000109849
0.00011001
0.000110018
0.000109992
0.000109977
0.000109977
0.000109993
0.000110019
0.000110011
0.000109851
0.000109597
0.000109335
0.000109441
0.000110917
0.00011251
0.000113403
0.000113226
0.000111491
0.000107073
9.72798e-05
7.53366e-05
7.53309e-05
9.7294e-05
0.000107139
0.000111677
0.000113664
0.000114295
0.000114013
0.000112755
0.000110133
0.000105898
0.000101688
0.00010309
0.000104686
0.00010557
0.000105977
0.000106044
0.000106034
0.000106024
0.000106024
0.000106035
0.000106045
0.000105979
0.000105573
0.000104689
0.000103093
0.000101681
0.000105859
0.000109987
0.000112308
0.000112806
0.000111354
0.000107039
9.72748e-05
7.53368e-05
7.53311e-05
9.72953e-05
0.000107141
0.00011167
0.00011362
0.00011413
0.000113504
0.00011132
0.00010624
9.56482e-05
8.15237e-05
9.16747e-05
9.79101e-05
0.00010023
0.000101004
0.000101223
0.000101274
0.000101284
0.000101284
0.000101275
0.000101225
0.000101007
0.000100234
9.79151e-05
9.16812e-05
8.15198e-05
9.56144e-05
0.000106095
0.000110871
0.000112293
0.000111184
0.000106988
9.72613e-05
7.53354e-05
7.5331e-05
9.7295e-05
0.000107142
0.000111668
0.0001136
0.000114048
0.000113221
0.000110375
0.000102834
8.21173e-05
7.93213e-05
9.23119e-05
9.61304e-05
9.71903e-05
9.74723e-05
9.75356e-05
9.75471e-05
9.75473e-05
9.75361e-05
9.74731e-05
9.71918e-05
9.61332e-05
9.23172e-05
7.93257e-05
8.20986e-05
0.00010269
0.000109923
0.000112006
0.000111097
0.000106963
9.72536e-05
7.53346e-05
7.53305e-05
9.72948e-05
0.000107145
0.000111679
0.000113631
0.000114137
0.000113488
0.000111242
0.000106031
9.51922e-05
8.10562e-05
8.9854e-05
9.56975e-05
9.78145e-05
9.84498e-05
9.86396e-05
9.86658e-05
9.86627e-05
9.86626e-05
9.86655e-05
9.8639e-05
9.84492e-05
9.7814e-05
9.56974e-05
8.98509e-05
8.10461e-05
9.51482e-05
0.000105881
0.000110789
0.000112272
0.000111183
0.00010699
9.72589e-05
7.53347e-05
7.53297e-05
9.7295e-05
0.000107151
0.000111699
0.000113691
0.000114309
0.000113972
0.000112568
0.000109619
0.000104749
9.9497e-05
9.93007e-05
9.95558e-05
9.97513e-05
9.98301e-05
9.98431e-05
9.98273e-05
9.98157e-05
9.98155e-05
9.98266e-05
9.98419e-05
9.98283e-05
9.97487e-05
9.95517e-05
9.92928e-05
9.94784e-05
0.000104701
0.000109467
0.000112114
0.000112756
0.000111354
0.000107046
9.72726e-05
7.5335e-05
7.53286e-05
9.72951e-05
0.000107157
0.000111718
0.000113748
0.000114467
0.000114386
0.000113571
0.000111854
0.000109156
0.000106015
0.000103687
0.000101841
0.000100997
0.000100697
0.000100593
0.000100552
0.000100537
0.000100537
0.000100551
0.000100592
0.000100695
0.000100993
0.000101836
0.00010368
0.000105997
0.000109107
0.0001117
0.000113115
0.000113168
0.00011151
0.000107099
9.72856e-05
7.53347e-05
7.53274e-05
9.7295e-05
0.000107161
0.000111732
0.000113787
0.000114572
0.000114642
0.000114141
0.000112976
0.000111028
0.000108396
0.000105507
0.000102908
0.000101613
0.000101125
0.000100961
0.000100906
0.000100887
0.000100887
0.000100904
0.000100959
0.000101122
0.000101609
0.000102903
0.000105498
0.000108378
0.000110979
0.000112821
0.000113684
0.000113422
0.000111612
0.000107134
9.72942e-05
7.53336e-05
7.53261e-05
9.72946e-05
0.000107163
0.00011174
0.00011381
0.000114629
0.000114773
0.000114412
0.000113466
0.00011177
0.000109263
0.000106202
0.000103333
0.000101865
0.0001013
0.00010111
0.000101047
0.000101025
0.000101025
0.000101045
0.000101108
0.000101298
0.000101861
0.000103327
0.000106193
0.000109246
0.00011172
0.000113311
0.000113954
0.000113551
0.000111666
0.000107154
9.72985e-05
7.5332e-05
7.53248e-05
9.72942e-05
0.000107165
0.000111745
0.000113821
0.000114655
0.00011483
0.000114524
0.000113657
0.000112039
0.00010956
0.000106442
0.000103481
0.000101954
0.000101362
0.000101161
0.000101094
0.000101069
0.000101068
0.000101092
0.000101159
0.000101359
0.00010195
0.000103475
0.000106432
0.000109543
0.000111989
0.000113501
0.000114065
0.000113607
0.00011169
0.000107163
9.73002e-05
7.53301e-05
7.53236e-05
9.72938e-05
0.000107165
0.000111747
0.000113826
0.000114665
0.000114851
0.000114563
0.000113719
0.000112123
0.000109649
0.000106514
0.000103525
0.00010198
0.00010138
0.000101176
0.000101106
0.000101079
0.000101078
0.000101104
0.000101173
0.000101377
0.000101977
0.00010352
0.000106504
0.000109632
0.000112073
0.000113563
0.000114104
0.000113628
0.0001117
0.000107167
9.73006e-05
7.53283e-05
7.53225e-05
9.72936e-05
0.000107166
0.000111747
0.000113826
0.000114666
0.000114853
0.000114565
0.000113722
0.000112125
0.000109652
0.000106517
0.000103527
0.000101982
0.00010138
0.000101176
0.000101105
0.000101076
0.000101075
0.000101103
0.000101173
0.000101377
0.000101978
0.000103522
0.000106507
0.000109636
0.000112076
0.000113566
0.000114106
0.000113629
0.000111701
0.000107167
9.73005e-05
7.53267e-05
7.53225e-05
9.72938e-05
0.000107165
0.000111746
0.000113823
0.000114658
0.000114834
0.00011453
0.000113664
0.000112047
0.000109569
0.000106452
0.000103487
0.000101958
0.000101364
0.000101161
0.000101091
0.000101062
0.000101061
0.000101088
0.000101158
0.00010136
0.000101954
0.000103482
0.000106443
0.000109553
0.000111998
0.000113508
0.000114071
0.000113612
0.000111694
0.000107165
9.73e-05
7.53266e-05
7.53236e-05
9.72942e-05
0.000107165
0.000111743
0.000113813
0.000114634
0.00011478
0.000114421
0.000113479
0.000111785
0.00010928
0.000106221
0.000103345
0.000101873
0.000101305
0.000101111
0.000101043
0.000101017
0.000101015
0.000101041
0.000101108
0.000101301
0.000101869
0.00010334
0.000106212
0.000109265
0.000111737
0.000113324
0.000113964
0.000113559
0.000111671
0.000107157
9.72987e-05
7.53283e-05
7.53249e-05
9.72948e-05
0.000107163
0.000111736
0.000113793
0.00011458
0.000114652
0.000114155
0.000112995
0.000111053
0.000108426
0.000105539
0.000102929
0.000101627
0.000101133
0.000100964
0.000100904
0.000100881
0.00010088
0.000100902
0.000100962
0.000101131
0.000101624
0.000102925
0.000105533
0.000108412
0.000111007
0.000112842
0.0001137
0.000113434
0.00011162
0.000107139
9.72949e-05
7.533e-05
7.53262e-05
9.72952e-05
0.000107159
0.000111723
0.000113755
0.000114477
0.000114399
0.00011359
0.000111881
0.000109194
0.000106064
0.000103731
0.000101872
0.000101017
0.000100709
0.000100599
0.000100553
0.000100535
0.000100534
0.000100552
0.000100597
0.000100707
0.000101015
0.00010187
0.000103728
0.000106053
0.000109151
0.000111731
0.000113137
0.000113183
0.00011152
0.000107105
9.7287e-05
7.53312e-05
7.53273e-05
9.72953e-05
0.000107154
0.000111704
0.000113699
0.000114321
0.000113988
0.000112591
0.000109655
0.000104804
9.95775e-05
9.93664e-05
9.9588e-05
9.97642e-05
9.98317e-05
9.98377e-05
9.98177e-05
9.98039e-05
9.98034e-05
9.98164e-05
9.98358e-05
9.98292e-05
9.97615e-05
9.95866e-05
9.93685e-05
9.95711e-05
0.000104765
0.000109507
0.00011214
0.000112774
0.000111366
0.000107053
9.72747e-05
7.53317e-05
7.53282e-05
9.7295e-05
0.000107148
0.000111684
0.000113639
0.000114148
0.000113504
0.000111266
0.000106071
9.5263e-05
8.11097e-05
8.98892e-05
9.56605e-05
9.77445e-05
9.83587e-05
9.85383e-05
9.85601e-05
9.85551e-05
9.85546e-05
9.85584e-05
9.85344e-05
9.83507e-05
9.77308e-05
9.56456e-05
8.98913e-05
8.11035e-05
9.52313e-05
0.000105921
0.000110812
0.000112288
0.000111195
0.000106997
9.72611e-05
7.53316e-05
7.53287e-05
9.72935e-05
0.000107141
0.000111667
0.000113601
0.000114051
0.000113226
0.000110381
0.000102842
8.21202e-05
7.91697e-05
9.19686e-05
9.56767e-05
9.66601e-05
9.69116e-05
9.69649e-05
9.69725e-05
9.69709e-05
9.69589e-05
9.6896e-05
9.66229e-05
9.56018e-05
9.18532e-05
7.90897e-05
8.2078e-05
0.00010267
0.000109913
0.000112006
0.0001111
0.000106966
9.72541e-05
7.53315e-05
7.5328e-05
9.72858e-05
0.000107124
0.000111647
0.000113593
0.000114103
0.000113476
0.000111287
0.000106191
9.55723e-05
8.14171e-05
9.09849e-05
9.67961e-05
9.86761e-05
9.91676e-05
9.9302e-05
9.93374e-05
9.93442e-05
9.93413e-05
9.9324e-05
9.92598e-05
9.90503e-05
9.84077e-05
9.6324e-05
9.05237e-05
8.12335e-05
9.53682e-05
0.000105938
0.000110785
0.000112248
0.000111159
0.000106974
9.72536e-05
7.53317e-05
7.53238e-05
9.72545e-05
0.000107066
0.000111577
0.000113546
0.000114166
0.000113873
0.000112588
0.000109889
0.000105468
0.000100845
0.000101436
0.000102005
0.00010177
0.000101525
0.000101416
0.000101382
0.000101371
0.000101367
0.000101358
0.000101336
0.000101279
0.000101151
0.00010083
0.000100247
9.99785e-05
0.000104915
0.00010948
0.000112029
0.000112638
0.000111243
0.000106967
9.7237e-05
7.53291e-05
7.53069e-05
9.71448e-05
0.000106877
0.000111335
0.000113301
0.000114008
0.000113986
0.000113353
0.000112018
0.000109974
0.00010774
0.00010635
0.000104823
0.000103159
0.000102333
0.000102032
0.00010194
0.000101915
0.000101909
0.000101909
0.000101919
0.000101973
0.000102186
0.000102849
0.000104397
0.000106316
0.0001091
0.00011146
0.000112746
0.000112762
0.000111143
0.000106825
9.71409e-05
7.53133e-05
7.52473e-05
9.68048e-05
0.000106328
0.000110646
0.000112546
0.000113276
0.000113408
0.000113144
0.000112489
0.000111412
0.000109982
0.000108326
0.000106281
0.000104221
0.000103202
0.000102827
0.000102713
0.000102682
0.000102676
0.000102679
0.000102704
0.000102805
0.000103151
0.00010413
0.000106193
0.000108419
0.000110453
0.000111898
0.000112551
0.000112251
0.00011055
0.000106309
9.681e-05
7.52543e-05
7.50556e-05
9.58526e-05
0.000104896
0.000108914
0.000110649
0.000111327
0.000111514
0.000111432
0.000111118
0.000110529
0.000109606
0.000108312
0.000106674
0.000105068
0.000104202
0.00010386
0.000103751
0.000103722
0.000103717
0.000103721
0.000103747
0.000103852
0.000104184
0.00010504
0.000106658
0.000108361
0.000109753
0.000110636
0.000110934
0.000110505
0.000108877
0.000104898
9.58627e-05
7.50627e-05
7.44963e-05
9.34015e-05
0.00010145
0.000104902
0.000106339
0.000106887
0.000107059
0.000107054
0.000106919
0.000106623
0.000106102
0.00010531
0.000104295
0.000103313
0.000102746
0.000102505
0.000102423
0.000102401
0.000102396
0.0001024
0.000102422
0.000102502
0.00010274
0.000103306
0.000104292
0.000105327
0.000106137
0.000106611
0.000106707
0.000106285
0.000104899
0.000101461
9.34134e-05
7.4503e-05
7.30542e-05
8.73752e-05
9.34059e-05
9.58623e-05
9.68203e-05
9.71655e-05
9.72753e-05
9.72918e-05
9.72499e-05
9.71347e-05
9.69093e-05
9.65426e-05
9.60601e-05
9.55875e-05
9.53006e-05
9.51718e-05
9.51257e-05
9.5112e-05
9.51093e-05
9.51122e-05
9.5126e-05
9.51717e-05
9.52998e-05
9.55863e-05
9.60601e-05
9.65472e-05
9.69143e-05
9.71106e-05
9.71129e-05
9.68164e-05
9.58745e-05
9.34202e-05
8.73861e-05
7.30599e-05
7.02706e-05
7.3056e-05
7.45017e-05
7.50651e-05
7.52612e-05
7.53257e-05
7.53478e-05
7.53562e-05
7.5357e-05
7.53488e-05
7.53259e-05
7.52798e-05
7.52115e-05
7.51389e-05
7.50931e-05
7.50705e-05
7.50599e-05
7.50542e-05
7.5052e-05
7.50545e-05
7.50602e-05
7.50705e-05
7.50926e-05
7.51378e-05
7.52099e-05
7.5278e-05
7.53236e-05
7.53425e-05
7.53344e-05
7.52741e-05
7.50776e-05
7.45117e-05
7.30628e-05
7.02746e-05
0.000108312
0.000120107
0.000126054
0.000128555
0.000129519
0.000129859
0.000129968
0.000129999
0.000130007
0.000130008
0.000130007
0.000130005
0.000130004
0.000130003
0.000130002
0.000130001
0.000130001
0.00013
0.00013
0.00013
0.000130001
0.000130002
0.000130002
0.000130003
0.000130004
0.000130003
0.000129997
0.000129966
0.000129859
0.00012952
0.000128556
0.000126055
0.000120108
0.000108313
0.000120107
0.000341218
0.000413823
0.00044362
0.000456121
0.00046103
0.000462772
0.000463311
0.000463432
0.000463416
0.00046336
0.000463302
0.000463255
0.000463222
0.000463199
0.000463182
0.00046317
0.000463164
0.000463164
0.00046317
0.000463182
0.000463199
0.000463221
0.000463252
0.000463287
0.000463303
0.000463201
0.000462691
0.000460977
0.000456086
0.000443595
0.000413803
0.000341205
0.000120108
0.000126056
0.000413844
0.000515621
0.000559612
0.000579099
0.000587228
0.000590292
0.00059128
0.000591479
0.000591397
0.000591239
0.000591097
0.000591002
0.000590952
0.000590927
0.000590909
0.000590894
0.000590886
0.000590887
0.000590895
0.00059091
0.000590929
0.000590952
0.000590997
0.000591068
0.000591119
0.000590964
0.000590066
0.000587093
0.000579032
0.00055958
0.000515606
0.000413839
0.000126058
0.000128559
0.000443654
0.000559627
0.000611567
0.00063542
0.00064573
0.000649705
0.000650907
0.000650952
0.000650538
0.000650022
0.000649605
0.000649347
0.000649229
0.000649183
0.000649144
0.000649109
0.00064909
0.00064909
0.000649111
0.000649147
0.000649186
0.000649231
0.00064934
0.000649561
0.000649843
0.000649913
0.000648986
0.000645302
0.000635208
0.000611479
0.000559597
0.000443649
0.000128563
0.000129525
0.000456161
0.000579124
0.000635431
0.00066185
0.000673442
0.000677802
0.000678746
0.000678054
0.000676623
0.000675106
0.000673985
0.000673334
0.000673067
0.000672982
0.000672883
0.000672785
0.000672731
0.000672731
0.000672787
0.000672886
0.000672986
0.00067307
0.000673326
0.000673931
0.000674885
0.000675861
0.000675702
0.000672183
0.000661218
0.000635163
0.000579031
0.000456141
0.00012953
0.000129865
0.000461072
0.000587257
0.00064575
0.000673458
0.000685523
0.000689564
0.000689344
0.000686622
0.000682576
0.000678614
0.000676031
0.000674671
0.000674225
0.000674155
0.000673926
0.000673682
0.000673549
0.00067355
0.000673685
0.00067393
0.00067416
0.000674229
0.000674664
0.000675973
0.000678372
0.000681739
0.000684046
0.000682226
0.000671794
0.000645035
0.000587
0.000461004
0.00012987
0.000129974
0.000462812
0.000590327
0.000649744
0.000677862
0.000689642
0.000692372
0.000689335
0.000681926
0.00067174
0.000662203
0.000657499
0.000655523
0.000655253
0.000655536
0.000655083
0.000654567
0.000654302
0.000654303
0.00065457
0.000655089
0.000655543
0.000655259
0.000655519
0.000657445
0.000661961
0.000670879
0.000679251
0.000681949
0.000674019
0.000648088
0.000589718
0.000462639
0.000129975
0.000130006
0.00046335
0.000591327
0.000650997
0.000678938
0.000689689
0.000689755
0.000681177
0.00066395
0.0006396
0.00061666
0.000612632
0.00061285
0.000614484
0.000616134
0.000615412
0.000614557
0.000614154
0.000614155
0.00061456
0.000615417
0.000616142
0.000614491
0.000612849
0.000612589
0.000616439
0.000638757
0.000661256
0.000673684
0.000671149
0.000647677
0.000590097
0.000462985
0.000129999
0.000130013
0.000463474
0.000591561
0.000651164
0.000678569
0.000687667
0.000683593
0.000665708
0.000629268
0.00056996
0.000503471
0.000526735
0.000543364
0.000552069
0.000556893
0.000556294
0.00055543
0.000555059
0.00055506
0.000555433
0.000556299
0.000556901
0.000552078
0.000543371
0.000526718
0.000503304
0.000569176
0.000626594
0.000658172
0.00066487
0.000645456
0.000589454
0.000462834
0.000129995
0.000130014
0.000463471
0.000591553
0.000650998
0.000677795
0.000685106
0.000676235
0.000645769
0.000575253
0.000419976
0.000149263
0.000367195
0.000452091
0.000478158
0.000487106
0.000488252
0.000488263
0.000488204
0.000488205
0.000488265
0.000488256
0.000487114
0.000478171
0.000452117
0.000367242
0.000149236
0.000419348
0.000572617
0.000638193
0.000657424
0.000642779
0.000588549
0.000462543
0.000129982
0.000130012
0.000463441
0.00059152
0.000650887
0.000677382
0.000683743
0.000671981
0.000631752
0.000519591
0.000151848
0.000139881
0.00037268
0.000419988
0.000430612
0.000434111
0.000435033
0.000435204
0.000435205
0.000435035
0.000434114
0.000430619
0.000420003
0.000372718
0.000139888
0.000151723
0.00051704
0.000624139
0.000653107
0.000641343
0.000588056
0.000462353
0.000129974
0.000130011
0.000463418
0.00059154
0.000650999
0.000677739
0.000684815
0.000675346
0.000643631
0.000570933
0.000412735
0.000146956
0.000341575
0.000414532
0.000434022
0.000435632
0.000441727
0.000443584
0.000443877
0.000443876
0.00044358
0.000441722
0.000435623
0.000434011
0.000414522
0.000341558
0.000146916
0.000412033
0.000568253
0.000636013
0.000656476
0.000642401
0.000588369
0.000462388
0.000129976
0.00013001
0.000463409
0.000591605
0.000651267
0.000678569
0.000687178
0.000681778
0.000660944
0.000618759
0.00054944
0.000468015
0.000465959
0.0004584
0.000455909
0.000454353
0.000455598
0.00045603
0.000456067
0.000456065
0.000456026
0.000455591
0.000454339
0.000455886
0.000458361
0.000465881
0.000467797
0.000548608
0.000616038
0.000653339
0.000662932
0.000644768
0.000589169
0.000462582
0.000129984
0.000130009
0.000463405
0.000591678
0.000651548
0.000679412
0.000689455
0.000687457
0.000674123
0.000647373
0.000606148
0.000557159
0.000518569
0.000483633
0.000469528
0.000464857
0.000463788
0.000463513
0.000463427
0.000463426
0.000463511
0.000463783
0.000464846
0.000469506
0.000483592
0.000518493
0.000556923
0.000605284
0.000644633
0.000666516
0.000668613
0.000647037
0.000589976
0.00046279
0.000129993
0.000130007
0.000463402
0.000591732
0.000651755
0.000680019
0.000691032
0.000691146
0.000681897
0.000661972
0.000629815
0.00058704
0.000540027
0.000495621
0.000476345
0.000469755
0.000467838
0.000467332
0.000467215
0.000467214
0.000467331
0.000467835
0.000469747
0.000476327
0.000495586
0.000539978
0.000586805
0.00062894
0.000659216
0.000674275
0.000672287
0.000648589
0.000590544
0.000462938
0.000129998
0.000130006
0.000463397
0.000591764
0.000651878
0.000680371
0.000691912
0.000693111
0.000685775
0.000668626
0.000639436
0.000597937
0.00054836
0.00050063
0.000479296
0.000471836
0.00046961
0.000469034
0.000468914
0.000468914
0.000469034
0.000469609
0.00047183
0.000479279
0.000500598
0.000548311
0.000597702
0.000638555
0.000665858
0.000678137
0.000674232
0.000649443
0.000590862
0.000463018
0.000129999
0.000130004
0.000463393
0.000591779
0.00065194
0.000680542
0.000692327
0.000694002
0.000687451
0.000671333
0.000643079
0.000601804
0.000551345
0.000502478
0.000480403
0.000472615
0.000470283
0.000469686
0.000469568
0.000469569
0.000469687
0.000470282
0.00047261
0.000480387
0.000502447
0.000551297
0.000601569
0.000642195
0.000668558
0.000679801
0.000675108
0.000649839
0.000591011
0.000463053
0.000129999
0.000130003
0.000463391
0.000591785
0.000651964
0.000680609
0.000692483
0.000694328
0.000688041
0.000672247
0.000644253
0.000602997
0.000552255
0.000503049
0.000480746
0.000472856
0.000470491
0.00046989
0.000469774
0.000469775
0.000469891
0.000470491
0.000472851
0.000480731
0.000503019
0.000552207
0.000602761
0.000643367
0.000669469
0.000680386
0.000675426
0.000649987
0.000591067
0.000463065
0.000129998
0.000130003
0.00046339
0.000591786
0.000651967
0.000680613
0.000692489
0.000694335
0.00068805
0.000672258
0.000644264
0.000603008
0.000552266
0.000503064
0.000480756
0.000472862
0.000470495
0.000469894
0.00046978
0.00046978
0.000469896
0.000470495
0.000472857
0.000480741
0.000503035
0.000552218
0.000602773
0.00064338
0.000669481
0.000680396
0.000675433
0.000649991
0.000591069
0.000463065
0.000129997
0.000130003
0.000463392
0.000591782
0.000651947
0.000680554
0.000692343
0.000694024
0.000687479
0.000671366
0.000643116
0.000601841
0.000551381
0.000502528
0.000480438
0.000472639
0.000470302
0.000469707
0.000469592
0.000469593
0.000469709
0.000470303
0.000472635
0.000480424
0.000502501
0.000551334
0.000601608
0.000642236
0.000668595
0.000679832
0.000675131
0.000649854
0.000591018
0.000463052
0.000129997
0.000130004
0.000463395
0.000591769
0.00065189
0.000680391
0.00069194
0.00069315
0.000685825
0.000668688
0.000639508
0.000598013
0.000548436
0.000500734
0.000479374
0.000471897
0.000469666
0.000469093
0.000468977
0.000468978
0.000469096
0.000469669
0.000471896
0.000479365
0.000500711
0.000548393
0.000597785
0.000638636
0.000665928
0.000678192
0.000674272
0.000649469
0.000590874
0.000463016
0.000129997
0.000130005
0.000463397
0.000591739
0.000651772
0.000680047
0.000691072
0.000691202
0.000681972
0.000662071
0.000629941
0.000587187
0.000540176
0.000495808
0.000476498
0.000469887
0.000467967
0.000467467
0.000467357
0.000467359
0.000467473
0.000467975
0.000469893
0.000476497
0.000495795
0.00054014
0.00058697
0.000629085
0.00065933
0.000674359
0.000672346
0.000648626
0.000590562
0.000462935
0.000129995
0.000130006
0.000463399
0.000591685
0.000651568
0.000679446
0.000689506
0.000687529
0.000674225
0.000647519
0.000606361
0.000557445
0.000518887
0.000483931
0.00046977
0.00046508
0.000464009
0.000463746
0.00046367
0.000463673
0.000463755
0.000464024
0.000465094
0.000469779
0.000483931
0.000518867
0.000557251
0.000605532
0.0006448
0.000666627
0.000668687
0.000647083
0.000589997
0.000462785
0.00012999
0.000130007
0.000463398
0.000591608
0.000651283
0.0006786
0.000687227
0.000681852
0.000661059
0.00061895
0.000549779
0.000468544
0.000466475
0.000458703
0.000456085
0.000454494
0.000455726
0.000456176
0.000456228
0.000456233
0.000456189
0.000455745
0.000454508
0.000456085
0.0004587
0.000466492
0.00046841
0.000549008
0.00061624
0.000653444
0.000662995
0.000644807
0.000589185
0.00046257
0.000129981
0.000130008
0.000463394
0.000591519
0.000650982
0.000677729
0.000684817
0.000675367
0.000643689
0.000571092
0.000413173
0.000147067
0.000341896
0.000414064
0.000433166
0.000434562
0.000440608
0.000442488
0.000442802
0.000442805
0.000442494
0.0004406
0.000434497
0.000433018
0.000413885
0.00034199
0.000147037
0.000412576
0.000568332
0.000635975
0.000656441
0.00064238
0.00058835
0.000462355
0.000129971
0.000130007
0.000463371
0.000591409
0.000650738
0.000677206
0.00068355
0.00067177
0.000631513
0.000519355
0.000151784
0.000139269
0.000368326
0.000414065
0.000423706
0.000426942
0.000427846
0.000428028
0.00042802
0.000427802
0.000426791
0.000423278
0.000413133
0.000366923
0.000138936
0.00015154
0.000516307
0.000623525
0.000652719
0.000641114
0.000587918
0.00046226
0.000129967
0.00013
0.000463239
0.000591128
0.000650402
0.000677071
0.000684281
0.000675289
0.000644593
0.000573679
0.000418066
0.000148406
0.000356813
0.000435591
0.000455667
0.000460791
0.00046134
0.000461438
0.000461462
0.000461431
0.00046129
0.000460839
0.000459325
0.000452111
0.000429058
0.000350523
0.000147512
0.000414861
0.000569075
0.000635951
0.00065607
0.000641948
0.000588042
0.000462263
0.000129966
0.00012997
0.000462713
0.000590154
0.000649224
0.000676238
0.000685044
0.000680627
0.000662065
0.000624107
0.00056156
0.000488718
0.000499427
0.000500766
0.000492464
0.000487816
0.000485829
0.000485199
0.000485028
0.000484971
0.000484912
0.000484793
0.000484555
0.000483644
0.000482522
0.000480802
0.000475216
0.00055213
0.000616692
0.000652359
0.000661244
0.000643053
0.000587891
0.000461999
0.000129949
0.000129863
0.000460992
0.000587144
0.000645413
0.00067238
0.000682462
0.000681864
0.000672074
0.000652075
0.000621611
0.000586595
0.000562042
0.000533491
0.000502698
0.000489729
0.00048538
0.000484114
0.000483785
0.000483709
0.000483717
0.000483886
0.000484733
0.000488045
0.000499481
0.000529661
0.000562846
0.000606469
0.000642004
0.000661495
0.000662661
0.000641424
0.000585696
0.000460533
0.000129853
0.000129524
0.000456099
0.000579065
0.000635265
0.000661277
0.000671741
0.000673434
0.000668847
0.000658064
0.000640531
0.000616696
0.000588075
0.00055267
0.00051621
0.000500541
0.000495203
0.000493613
0.000493191
0.000493104
0.000493159
0.000493514
0.000494944
0.000499959
0.000515319
0.00055229
0.000590245
0.000623782
0.000647374
0.000658485
0.000655313
0.00063289
0.000578228
0.000455828
0.000129522
0.00012856
0.000443604
0.000559605
0.000611515
0.000635185
0.000644938
0.000647532
0.000645738
0.000639999
0.000629579
0.00061347
0.000591119
0.000563372
0.000536568
0.000523338
0.000518332
0.000516699
0.000516224
0.000516125
0.000516219
0.000516676
0.000518259
0.000523195
0.000536402
0.00056353
0.000592267
0.000615866
0.000631141
0.000636994
0.000631775
0.000610222
0.000559167
0.000443452
0.000128562
0.000126058
0.000413804
0.000515619
0.00055962
0.000579049
0.000586947
0.000589387
0.000588923
0.00058612
0.000580452
0.000570959
0.000557046
0.00053977
0.00052347
0.000514456
0.000510675
0.000509338
0.000508924
0.000508837
0.00050893
0.000509346
0.000510678
0.000514448
0.000523481
0.000539918
0.000557516
0.000571648
0.0005803
0.000582746
0.000577339
0.000559009
0.00051542
0.000413722
0.000126061
0.00012011
0.000341196
0.000413837
0.000443655
0.000456151
0.000460993
0.000462519
0.000462511
0.000461416
0.000458988
0.000454683
0.000448135
0.000439913
0.000432126
0.000427479
0.000425377
0.000424583
0.000424322
0.000424267
0.000424335
0.000424608
0.000425411
0.00042752
0.000432185
0.000440021
0.000448333
0.000454867
0.000458662
0.000459295
0.000455499
0.000443436
0.000413765
0.000341151
0.000120114
0.000108315
0.00012011
0.000126062
0.000128568
0.000129538
0.00012988
0.000129985
0.000129999
0.000129956
0.000129843
0.000129623
0.000129265
0.000128794
0.000128334
0.000128052
0.000127922
0.000127872
0.000127855
0.000127851
0.000127856
0.000127873
0.000127923
0.000128053
0.000128335
0.000128796
0.000129271
0.000129627
0.000129818
0.00012982
0.000129525
0.000128571
0.000126067
0.000120113
0.000108319
0.000112708
0.00012917
0.000137526
0.000141187
0.000142682
0.000143243
0.000143434
0.000143492
0.000143506
0.000143506
0.000143502
0.000143497
0.000143494
0.000143491
0.00014349
0.000143488
0.000143487
0.000143487
0.000143487
0.000143487
0.000143488
0.000143489
0.000143491
0.000143493
0.000143496
0.000143496
0.000143484
0.000143428
0.000143239
0.00014268
0.000141186
0.000137526
0.00012917
0.000112709
0.000129169
0.000439988
0.000551535
0.000599192
0.000620002
0.000628562
0.000631754
0.000632788
0.000633024
0.000632983
0.000632857
0.000632722
0.000632614
0.000632538
0.000632486
0.000632447
0.00063242
0.000632406
0.000632406
0.00063242
0.000632446
0.000632483
0.000632533
0.000632603
0.000632685
0.000632726
0.000632531
0.00063156
0.000628429
0.000619913
0.000599127
0.000551483
0.000439954
0.000129169
0.000137528
0.000551569
0.000716109
0.000790175
0.000824045
0.000838678
0.00084441
0.000846318
0.000846694
0.000846492
0.000846118
0.000845764
0.00084551
0.000845362
0.000845283
0.000845227
0.000845186
0.000845164
0.000845164
0.000845186
0.000845228
0.000845283
0.000845359
0.000845492
0.000845691
0.000845848
0.000845579
0.000843871
0.000838341
0.000823857
0.000790073
0.000716049
0.000551537
0.000137529
0.000141191
0.000599248
0.000790202
0.000879242
0.00092132
0.000940069
0.00094753
0.000949836
0.000949878
0.000948974
0.000947811
0.000946803
0.00094612
0.000945766
0.000945604
0.000945479
0.00094538
0.000945327
0.000945327
0.000945381
0.000945482
0.000945606
0.000945764
0.000946096
0.000946695
0.000947412
0.00094766
0.000945942
0.000939092
0.000920803
0.000878998
0.000790094
0.000599206
0.000141193
0.000142688
0.000620069
0.000824091
0.000921343
0.000968242
0.000989398
0.000997569
0.000999346