/*--------------------------------*- C++ -*----------------------------------*\
| =========                 |                                                 |
| \\      /  F ield         | OpenFOAM: The Open Source CFD Toolbox           |
|  \\    /   O peration     | Version:  2112                                  |
|   \\  /    A nd           | Website:  www.openfoam.com                      |
|    \\/     M anipulation  |                                                 |
\*---------------------------------------------------------------------------*/
FoamFile
{
    version     2.0;
    format      ascii;
    arch        "LSB;label=32;scalar=64";
    class       volScalarField;
    location    "2.1";
    object      p;
}
// * * * * * * * * * * * * * * * * * * * * * * * * * * * * * * * * * * * * * //

dimensions      [0 2 -2 0 0 0 0];

internalField   nonuniform List<scalar> 
64906
(
-7.64837e-06
-7.62898e-06
-7.62668e-06
-7.64639e-06
-7.68599e-06
-7.757e-06
-7.86038e-06
-7.98176e-06
-8.12813e-06
-8.29733e-06
-8.48158e-06
-8.67296e-06
-8.85825e-06
-9.02971e-06
-9.17839e-06
-9.30006e-06
-9.39117e-06
-9.45029e-06
-9.47669e-06
-9.47052e-06
-9.43283e-06
-9.36534e-06
-9.27189e-06
-9.15686e-06
-9.02943e-06
-8.89721e-06
-8.77341e-06
-8.6652e-06
-8.57943e-06
-8.5179e-06
-8.48169e-06
-8.47088e-06
-8.48053e-06
-8.50247e-06
-7.58538e-06
-7.49321e-06
-7.42552e-06
-7.38401e-06
-7.38297e-06
-7.4109e-06
-7.46288e-06
-7.54712e-06
-7.65146e-06
-7.77183e-06
-7.89969e-06
-8.03094e-06
-8.15382e-06
-8.26669e-06
-8.36331e-06
-8.44337e-06
-8.50504e-06
-8.54842e-06
-8.57333e-06
-8.5799e-06
-8.56863e-06
-8.53964e-06
-8.49502e-06
-8.43519e-06
-8.36662e-06
-8.29099e-06
-8.22083e-06
-8.16114e-06
-8.12311e-06
-8.11366e-06
-8.14025e-06
-8.20563e-06
-8.30032e-06
-8.41751e-06
-7.57038e-06
-7.43027e-06
-7.31431e-06
-7.23014e-06
-7.19185e-06
-7.19258e-06
-7.22581e-06
-7.28953e-06
-7.37787e-06
-7.48848e-06
-7.60952e-06
-7.73774e-06
-7.85062e-06
-7.9503e-06
-8.02986e-06
-8.09434e-06
-8.14361e-06
-8.17995e-06
-8.20376e-06
-8.21517e-06
-8.21408e-06
-8.19842e-06
-8.16865e-06
-8.11982e-06
-8.05936e-06
-7.98529e-06
-7.92173e-06
-7.87331e-06
-7.85585e-06
-7.87649e-06
-7.94575e-06
-8.0691e-06
-8.22977e-06
-8.41068e-06
-7.60373e-06
-7.42342e-06
-7.264e-06
-7.14066e-06
-7.07371e-06
-7.05787e-06
-7.08662e-06
-7.15809e-06
-7.26966e-06
-7.42422e-06
-7.60352e-06
-7.8036e-06
-7.96946e-06
-8.10758e-06
-8.20727e-06
-8.28339e-06
-8.33768e-06
-8.37583e-06
-8.39886e-06
-8.4069e-06
-8.39919e-06
-8.37027e-06
-8.31883e-06
-8.23016e-06
-8.11592e-06
-7.9698e-06
-7.84992e-06
-7.76181e-06
-7.72982e-06
-7.75816e-06
-7.85708e-06
-8.02941e-06
-8.24845e-06
-8.48277e-06
-7.69767e-06
-7.48449e-06
-7.29228e-06
-7.14167e-06
-7.06032e-06
-7.04542e-06
-7.09323e-06
-7.20774e-06
-7.39363e-06
-7.66667e-06
-8.00015e-06
-8.39173e-06
-8.70252e-06
-8.94992e-06
-9.11782e-06
-9.24084e-06
-9.32272e-06
-9.37433e-06
-9.39717e-06
-9.39131e-06
-9.35554e-06
-9.2791e-06
-9.1589e-06
-8.96047e-06
-8.70167e-06
-8.36495e-06
-8.09517e-06
-7.89487e-06
-7.79923e-06
-7.80167e-06
-7.90672e-06
-8.10928e-06
-8.37338e-06
-8.65175e-06
-7.85219e-06
-7.6073e-06
-7.38921e-06
-7.22165e-06
-7.13951e-06
-7.14322e-06
-7.23415e-06
-7.42708e-06
-7.741e-06
-8.21836e-06
-8.82967e-06
-9.59895e-06
-1.01738e-05
-1.06149e-05
-1.09038e-05
-1.11131e-05
-1.12477e-05
-1.1326e-05
-1.13494e-05
-1.13177e-05
-1.123e-05
-1.10675e-05
-1.08266e-05
-1.04344e-05
-9.91251e-06
-9.19885e-06
-8.6585e-06
-8.26123e-06
-8.049e-06
-7.99081e-06
-8.07932e-06
-8.29878e-06
-8.59384e-06
-8.91798e-06
-8.06337e-06
-7.78277e-06
-7.54179e-06
-7.36469e-06
-7.29344e-06
-7.33164e-06
-7.48682e-06
-7.78795e-06
-8.2761e-06
-9.04549e-06
-1.00627e-05
-1.15363e-05
-1.25127e-05
-1.32329e-05
-1.36896e-05
-1.40214e-05
-1.4231e-05
-1.43484e-05
-1.4373e-05
-1.43049e-05
-1.41442e-05
-1.38606e-05
-1.34526e-05
-1.27809e-05
-1.18588e-05
-1.04383e-05
-9.50603e-06
-8.82403e-06
-8.44849e-06
-8.29987e-06
-8.3526e-06
-8.57746e-06
-8.90208e-06
-9.27807e-06
-8.32635e-06
-8.00054e-06
-7.73839e-06
-7.55864e-06
-7.5108e-06
-7.60062e-06
-7.84041e-06
-8.26897e-06
-8.9537e-06
-1.00387e-05
-1.15226e-05
-1.43357e-05
-1.58106e-05
-1.68947e-05
-1.75724e-05
-1.80727e-05
-1.83875e-05
-1.85603e-05
-1.85873e-05
-1.84682e-05
-1.82063e-05
-1.77568e-05
-1.71287e-05
-1.60915e-05
-1.46719e-05
-1.18984e-05
-1.05329e-05
-9.53749e-06
-8.9737e-06
-8.71441e-06
-8.71321e-06
-8.93289e-06
-9.28682e-06
-9.72668e-06
-8.64028e-06
-8.24345e-06
-7.96589e-06
-7.79023e-06
-7.77833e-06
-7.93695e-06
-8.27855e-06
-8.84199e-06
-9.67978e-06
-1.10615e-05
-1.29313e-05
-1.8296e-05
-2.00148e-05
-2.14728e-05
-2.23941e-05
-2.30721e-05
-2.35003e-05
-2.3734e-05
-2.37645e-05
-2.35911e-05
-2.32216e-05
-2.25986e-05
-2.17285e-05
-2.03119e-05
-1.86524e-05
-1.32973e-05
-1.16314e-05
-1.03103e-05
-9.59605e-06
-9.21539e-06
-9.14386e-06
-9.34758e-06
-9.73048e-06
-1.02561e-05
-8.98038e-06
-8.51573e-06
-8.22038e-06
-8.05885e-06
-8.10668e-06
-8.37312e-06
-8.87116e-06
-9.59974e-06
-1.06586e-05
-1.31442e-05
-1.10403e-05
-2.26997e-05
-2.45684e-05
-2.66684e-05
-2.79565e-05
-2.89163e-05
-2.95253e-05
-2.98498e-05
-2.98846e-05
-2.96291e-05
-2.90872e-05
-2.81895e-05
-2.69568e-05
-2.4894e-05
-2.31155e-05
-1.12891e-05
-1.37364e-05
-1.13044e-05
-1.03979e-05
-9.86419e-06
-9.66811e-06
-9.82173e-06
-1.02087e-05
-1.08748e-05
-9.3257e-06
-8.80501e-06
-8.48518e-06
-8.34111e-06
-8.46378e-06
-8.86982e-06
-9.5492e-06
-1.03679e-05
-1.11779e-05
-8.84526e-06
-3.36631e-05
-3.07825e-05
-3.21245e-05
-3.34552e-05
-3.45868e-05
-3.53444e-05
-3.57366e-05
-3.57763e-05
-3.54628e-05
-3.47819e-05
-3.37216e-05
-3.24513e-05
-3.11408e-05
-3.39361e-05
-9.84161e-06
-1.20185e-05
-1.1249e-05
-1.05992e-05
-1.02458e-05
-1.03259e-05
-1.07334e-05
-1.15009e-05
-9.67215e-06
-9.09574e-06
-8.75598e-06
-8.64288e-06
-8.8803e-06
-9.53996e-06
-1.07581e-05
-1.27474e-05
-1.6074e-05
-2.05145e-05
-3.07908e-05
-3.01948e-05
-3.38105e-05
-3.67273e-05
-3.90564e-05
-4.07833e-05
-4.18609e-05
-4.23858e-05
-4.24303e-05
-4.19945e-05
-4.10063e-05
-3.93691e-05
-3.71316e-05
-3.43118e-05
-3.07973e-05
-3.16308e-05
-2.12423e-05
-1.68483e-05
-1.36084e-05
-1.18189e-05
-1.09727e-05
-1.08775e-05
-1.12737e-05
-1.21396e-05
-1.00023e-05
-9.36918e-06
-9.00429e-06
-8.90515e-06
-9.21483e-06
-1.00219e-05
-1.14812e-05
-1.37695e-05
-1.71427e-05
-2.13281e-05
-2.8211e-05
-3.22718e-05
-3.63151e-05
-3.98545e-05
-4.27307e-05
-4.47572e-05
-4.60096e-05
-4.66148e-05
-4.66632e-05
-4.6155e-05
-4.50008e-05
-4.30732e-05
-4.02983e-05
-3.68536e-05
-3.2891e-05
-2.8956e-05
-2.21044e-05
-1.79326e-05
-1.46406e-05
-1.25676e-05
-1.15202e-05
-1.13501e-05
-1.17694e-05
-1.27425e-05
-1.0304e-05
-9.61979e-06
-9.22958e-06
-9.13528e-06
-9.49195e-06
-1.03938e-05
-1.19976e-05
-1.44734e-05
-1.80496e-05
-2.26117e-05
-2.84575e-05
-3.33166e-05
-3.80757e-05
-4.20903e-05
-4.52943e-05
-4.74787e-05
-4.88122e-05
-4.94482e-05
-4.94997e-05
-4.89673e-05
-4.7739e-05
-4.56615e-05
-4.25674e-05
-3.86554e-05
-3.39953e-05
-2.92052e-05
-2.33809e-05
-1.88408e-05
-1.53572e-05
-1.31162e-05
-1.19633e-05
-1.17638e-05
-1.22182e-05
-1.32885e-05
-1.05654e-05
-9.83709e-06
-9.42006e-06
-9.31763e-06
-9.69016e-06
-1.06292e-05
-1.22837e-05
-1.4816e-05
-1.84261e-05
-2.30324e-05
-2.85745e-05
-3.38732e-05
-3.90686e-05
-4.32996e-05
-4.6628e-05
-4.88534e-05
-5.01996e-05
-5.08361e-05
-5.08904e-05
-5.0363e-05
-4.91277e-05
-4.7015e-05
-4.38028e-05
-3.96801e-05
-3.45963e-05
-2.93373e-05
-2.38149e-05
-1.92319e-05
-1.57224e-05
-1.34433e-05
-1.22743e-05
-1.20921e-05
-1.25962e-05
-1.37517e-05
-1.07807e-05
-1.00179e-05
-9.57709e-06
-9.46247e-06
-9.8373e-06
-1.07896e-05
-1.24608e-05
-1.50102e-05
-1.86244e-05
-2.32483e-05
-2.87537e-05
-3.42744e-05
-3.96732e-05
-4.40092e-05
-4.73851e-05
-4.96074e-05
-5.09402e-05
-5.15662e-05
-5.16233e-05
-5.1112e-05
-4.98956e-05
-4.77915e-05
-4.45365e-05
-4.03107e-05
-3.50157e-05
-2.95361e-05
-2.40505e-05
-1.94509e-05
-1.59442e-05
-1.36637e-05
-1.25061e-05
-1.23536e-05
-1.29041e-05
-1.41266e-05
-1.0947e-05
-1.01587e-05
-9.69876e-06
-9.57161e-06
-9.9423e-06
-1.08961e-05
-1.257e-05
-1.51239e-05
-1.87414e-05
-2.33909e-05
-2.8927e-05
-3.45646e-05
-4.00763e-05
-4.44662e-05
-4.78608e-05
-5.00745e-05
-5.13951e-05
-5.20135e-05
-5.20737e-05
-5.1576e-05
-5.03776e-05
-4.82872e-05
-4.50179e-05
-4.07403e-05
-3.53313e-05
-2.97331e-05
-2.42158e-05
-1.9591e-05
-1.60859e-05
-1.38126e-05
-1.26733e-05
-1.25501e-05
-1.31385e-05
-1.44103e-05
-1.10641e-05
-1.0259e-05
-9.78655e-06
-9.65086e-06
-1.00185e-05
-1.09738e-05
-1.26522e-05
-1.52153e-05
-1.88477e-05
-2.35301e-05
-2.91112e-05
-3.48249e-05
-4.04085e-05
-4.48402e-05
-4.82554e-05
-5.04738e-05
-5.17942e-05
-5.24125e-05
-5.2476e-05
-5.19849e-05
-5.07925e-05
-4.87028e-05
-4.5417e-05
-4.10998e-05
-3.56188e-05
-2.99424e-05
-2.43781e-05
-1.97194e-05
-1.62018e-05
-1.39263e-05
-1.27955e-05
-1.26901e-05
-1.33023e-05
-1.46051e-05
-1.1132e-05
-1.03186e-05
-9.8408e-06
-9.70206e-06
-1.00702e-05
-1.10302e-05
-1.27186e-05
-1.52989e-05
-1.89579e-05
-2.36788e-05
-2.9307e-05
-3.50725e-05
-4.07033e-05
-4.5173e-05
-4.86163e-05
-5.08549e-05
-5.21889e-05
-5.28152e-05
-5.28825e-05
-5.23901e-05
-5.11902e-05
-4.90851e-05
-4.57748e-05
-4.14215e-05
-3.58925e-05
-3.01617e-05
-2.45476e-05
-1.98488e-05
-1.63044e-05
-1.40139e-05
-1.28783e-05
-1.27761e-05
-1.33967e-05
-1.47131e-05
-1.11511e-05
-1.0338e-05
-9.86194e-06
-9.72557e-06
-1.00977e-05
-1.10654e-05
-1.27691e-05
-1.53748e-05
-1.9072e-05
-2.38356e-05
-2.95145e-05
-3.53121e-05
-4.09658e-05
-4.54686e-05
-4.89468e-05
-5.12212e-05
-5.25822e-05
-5.32253e-05
-5.32947e-05
-5.27915e-05
-5.15708e-05
-4.94357e-05
-4.60945e-05
-4.17099e-05
-3.61566e-05
-3.03905e-05
-2.47219e-05
-1.99764e-05
-1.63922e-05
-1.40749e-05
-1.29218e-05
-1.2809e-05
-1.34229e-05
-1.47357e-05
-1.11219e-05
-1.03183e-05
-9.85074e-06
-9.72054e-06
-1.0097e-05
-1.10711e-05
-1.27893e-05
-1.54211e-05
-1.91647e-05
-2.3981e-05
-2.97336e-05
-3.55408e-05
-4.11762e-05
-4.56944e-05
-4.92026e-05
-5.15203e-05
-5.29171e-05
-5.35827e-05
-5.36565e-05
-5.31388e-05
-5.18893e-05
-4.97166e-05
-4.63485e-05
-4.19496e-05
-3.64114e-05
-3.0631e-05
-2.48854e-05
-2.00844e-05
-1.64498e-05
-1.40997e-05
-1.2922e-05
-1.27886e-05
-1.33827e-05
-1.46743e-05
-1.10461e-05
-1.02614e-05
-9.80698e-06
-9.68261e-06
-1.00567e-05
-1.10238e-05
-1.27389e-05
-1.53783e-05
-1.91608e-05
-2.4039e-05
-2.9948e-05
-3.57194e-05
-4.12474e-05
-4.57225e-05
-4.92231e-05
-5.1573e-05
-5.30035e-05
-5.36936e-05
-5.37726e-05
-5.32405e-05
-5.19663e-05
-4.97695e-05
-4.64142e-05
-4.20606e-05
-3.66221e-05
-3.08699e-05
-2.49658e-05
-2.01005e-05
-1.64221e-05
-1.40543e-05
-1.28622e-05
-1.27094e-05
-1.32762e-05
-1.45303e-05
-1.09289e-05
-1.01726e-05
-9.73483e-06
-9.61336e-06
-9.97291e-06
-1.091e-05
-1.25865e-05
-1.5187e-05
-1.89686e-05
-2.38763e-05
-3.02061e-05
-3.58785e-05
-4.10631e-05
-4.53867e-05
-4.88054e-05
-5.11464e-05
-5.25879e-05
-5.32947e-05
-5.33813e-05
-5.2848e-05
-5.15775e-05
-4.94044e-05
-4.61413e-05
-4.19445e-05
-3.68172e-05
-3.11612e-05
-2.48429e-05
-1.99447e-05
-1.62607e-05
-1.39174e-05
-1.2738e-05
-1.25766e-05
-1.31125e-05
-1.43118e-05
-1.07774e-05
-1.00562e-05
-9.63449e-06
-9.50511e-06
-9.82232e-06
-1.06755e-05
-1.22208e-05
-1.46416e-05
-1.81961e-05
-2.26974e-05
-3.02957e-05
-3.60338e-05
-4.04119e-05
-4.43122e-05
-4.74553e-05
-4.96816e-05
-5.10765e-05
-5.17781e-05
-5.18767e-05
-5.13733e-05
-5.01739e-05
-4.81421e-05
-4.51748e-05
-4.14243e-05
-3.7129e-05
-3.12965e-05
-2.37176e-05
-1.92344e-05
-1.57738e-05
-1.359e-05
-1.25064e-05
-1.23771e-05
-1.28938e-05
-1.40284e-05
-1.06054e-05
-9.92483e-06
-9.52145e-06
-9.38062e-06
-9.64032e-06
-1.03733e-05
-1.17214e-05
-1.39115e-05
-1.75797e-05
-2.27202e-05
-3.21913e-05
-3.43755e-05
-3.90532e-05
-4.27125e-05
-4.54662e-05
-4.75042e-05
-4.88039e-05
-4.94753e-05
-4.95931e-05
-4.91607e-05
-4.80991e-05
-4.63029e-05
-4.37575e-05
-4.02663e-05
-3.56073e-05
-3.3147e-05
-2.39546e-05
-1.87798e-05
-1.51601e-05
-1.3164e-05
-1.2227e-05
-1.21526e-05
-1.2652e-05
-1.37116e-05
-1.04251e-05
-9.7841e-06
-9.39556e-06
-9.23087e-06
-9.39768e-06
-9.9085e-06
-1.07251e-05
-1.16114e-05
-1.23419e-05
-8.70364e-06
-4.30118e-05
-3.87177e-05
-4.03441e-05
-4.21027e-05
-4.36438e-05
-4.472e-05
-4.53247e-05
-4.5467e-05
-4.5154e-05
-4.43723e-05
-4.31431e-05
-4.16524e-05
-4.02922e-05
-4.45844e-05
-9.89878e-06
-1.36683e-05
-1.29858e-05
-1.22682e-05
-1.18044e-05
-1.18758e-05
-1.23854e-05
-1.33788e-05
-1.02559e-05
-9.65447e-06
-9.28989e-06
-9.126e-06
-9.26642e-06
-9.74524e-06
-1.06343e-05
-1.20569e-05
-1.44548e-05
-1.84373e-05
-2.01489e-05
-3.03811e-05
-3.38174e-05
-3.70385e-05
-3.93014e-05
-4.10518e-05
-4.22246e-05
-4.2891e-05
-4.3065e-05
-4.27597e-05
-4.19551e-05
-4.06149e-05
-3.87124e-05
-3.58887e-05
-3.24795e-05
-2.29147e-05
-2.06733e-05
-1.63778e-05
-1.3742e-05
-1.23194e-05
-1.16818e-05
-1.1702e-05
-1.21611e-05
-1.3081e-05
-1.01081e-05
-9.54253e-06
-9.20352e-06
-9.04502e-06
-9.16343e-06
-9.59466e-06
-1.04037e-05
-1.16914e-05
-1.3569e-05
-1.61679e-05
-2.09649e-05
-2.74841e-05
-3.0807e-05
-3.38708e-05
-3.61853e-05
-3.80716e-05
-3.93328e-05
-4.00079e-05
-4.02048e-05
-3.99445e-05
-3.90775e-05
-3.7779e-05
-3.58825e-05
-3.32622e-05
-3.00045e-05
-2.3655e-05
-1.84058e-05
-1.5572e-05
-1.34923e-05
-1.2166e-05
-1.15465e-05
-1.15464e-05
-1.19638e-05
-1.28213e-05
-9.99429e-06
-9.46784e-06
-9.16202e-06
-9.0239e-06
-9.14179e-06
-9.55109e-06
-1.03164e-05
-1.15453e-05
-1.34061e-05
-1.60755e-05
-1.97467e-05
-2.43299e-05
-2.78129e-05
-3.09386e-05
-3.33359e-05
-3.52418e-05
-3.64911e-05
-3.71972e-05
-3.74082e-05
-3.71568e-05
-3.64019e-05
-3.51035e-05
-3.31698e-05
-3.05442e-05
-2.71431e-05
-2.26207e-05
-1.86203e-05
-1.55915e-05
-1.34501e-05
-1.21278e-05
-1.14995e-05
-1.14645e-05
-1.18318e-05
-1.26228e-05
-9.91971e-06
-9.44339e-06
-9.17877e-06
-9.07297e-06
-9.20133e-06
-9.5923e-06
-1.02988e-05
-1.14122e-05
-1.30587e-05
-1.53737e-05
-1.83648e-05
-2.18949e-05
-2.5073e-05
-2.80209e-05
-3.03315e-05
-3.21488e-05
-3.33298e-05
-3.40009e-05
-3.42082e-05
-3.39872e-05
-3.33063e-05
-3.20991e-05
-3.02759e-05
-2.78401e-05
-2.47473e-05
-2.12111e-05
-1.79116e-05
-1.52534e-05
-1.33331e-05
-1.21159e-05
-1.15182e-05
-1.14578e-05
-1.17733e-05
-1.249e-05
-9.88924e-06
-9.48463e-06
-9.277e-06
-9.22411e-06
-9.3845e-06
-9.77728e-06
-1.04394e-05
-1.14352e-05
-1.28489e-05
-1.47601e-05
-1.7158e-05
-1.99373e-05
-2.26469e-05
-2.52398e-05
-2.73227e-05
-2.89678e-05
-3.00143e-05
-3.06139e-05
-3.08065e-05
-3.06207e-05
-3.00319e-05
-2.89516e-05
-2.73455e-05
-2.52187e-05
-2.25946e-05
-1.97864e-05
-1.71384e-05
-1.49491e-05
-1.33143e-05
-1.22377e-05
-1.16745e-05
-1.15741e-05
-1.18168e-05
-1.24318e-05
-9.9048e-06
-9.5964e-06
-9.46935e-06
-9.49407e-06
-9.71272e-06
-1.01385e-05
-1.07956e-05
-1.1725e-05
-1.29756e-05
-1.45881e-05
-1.65496e-05
-1.87863e-05
-2.10469e-05
-2.3231e-05
-2.50214e-05
-2.64241e-05
-2.73644e-05
-2.791e-05
-2.80895e-05
-2.79242e-05
-2.7395e-05
-2.64646e-05
-2.50899e-05
-2.33062e-05
-2.11487e-05
-1.88993e-05
-1.6771e-05
-1.49656e-05
-1.3564e-05
-1.25882e-05
-1.20233e-05
-1.18458e-05
-1.19776e-05
-1.24485e-05
-9.95349e-06
-9.75875e-06
-9.72724e-06
-9.84424e-06
-1.01403e-05
-1.06283e-05
-1.13285e-05
-1.22668e-05
-1.3466e-05
-1.49295e-05
-1.66863e-05
-1.86375e-05
-2.06185e-05
-2.25223e-05
-2.4122e-05
-2.53867e-05
-2.62634e-05
-2.67809e-05
-2.69533e-05
-2.67929e-05
-2.62897e-05
-2.54281e-05
-2.4189e-05
-2.26144e-05
-2.07576e-05
-1.883e-05
-1.69852e-05
-1.53916e-05
-1.41061e-05
-1.31521e-05
-1.25328e-05
-1.2241e-05
-1.22307e-05
-1.25211e-05
-1.00231e-05
-9.96238e-06
-1.00297e-05
-1.02354e-05
-1.06142e-05
-1.119e-05
-1.199e-05
-1.30431e-05
-1.43743e-05
-1.60029e-05
-1.78289e-05
-1.9817e-05
-2.18304e-05
-2.37559e-05
-2.54078e-05
-2.67303e-05
-2.76691e-05
-2.82274e-05
-2.84091e-05
-2.82206e-05
-2.76579e-05
-2.6718e-05
-2.5404e-05
-2.37684e-05
-2.18852e-05
-1.99364e-05
-1.80629e-05
-1.63722e-05
-1.49779e-05
-1.39101e-05
-1.31697e-05
-1.27375e-05
-1.25647e-05
-1.26333e-05
-7.71971e-06
-7.72778e-06
-7.75036e-06
-7.79018e-06
-7.85246e-06
-7.9435e-06
-8.06602e-06
-8.21784e-06
-8.39925e-06
-8.60804e-06
-8.83447e-06
-9.07009e-06
-9.29795e-06
-9.50923e-06
-9.69173e-06
-9.84022e-06
-9.9498e-06
-1.00187e-05
-1.0046e-05
-1.00317e-05
-9.97726e-06
-9.88473e-06
-9.75933e-06
-9.60644e-06
-9.43853e-06
-9.26427e-06
-9.10059e-06
-8.95521e-06
-8.83703e-06
-8.74691e-06
-8.68343e-06
-8.64192e-06
-8.61462e-06
-8.59633e-06
-7.67475e-06
-7.63898e-06
-7.62614e-06
-7.62887e-06
-7.65988e-06
-7.71985e-06
-7.80904e-06
-7.92898e-06
-8.07377e-06
-8.24013e-06
-8.41487e-06
-8.59492e-06
-8.76406e-06
-8.92194e-06
-9.05679e-06
-9.16793e-06
-9.25103e-06
-9.30614e-06
-9.33247e-06
-9.33015e-06
-9.30031e-06
-9.24313e-06
-9.16324e-06
-9.06142e-06
-8.94976e-06
-8.82851e-06
-8.71452e-06
-8.61101e-06
-8.53212e-06
-8.48128e-06
-8.46185e-06
-8.47066e-06
-8.49305e-06
-8.5316e-06
-7.6802e-06
-7.6287e-06
-7.59901e-06
-7.57762e-06
-7.58949e-06
-7.63835e-06
-7.72501e-06
-7.85079e-06
-8.00998e-06
-8.20393e-06
-8.41027e-06
-8.63398e-06
-8.83248e-06
-9.01608e-06
-9.16429e-06
-9.28449e-06
-9.37139e-06
-9.42813e-06
-9.45401e-06
-9.44913e-06
-9.41455e-06
-9.3473e-06
-9.2531e-06
-9.12459e-06
-8.98303e-06
-8.81795e-06
-8.67375e-06
-8.54578e-06
-8.45909e-06
-8.41378e-06
-8.41431e-06
-8.45334e-06
-8.49675e-06
-8.55157e-06
-7.73314e-06
-7.66147e-06
-7.61273e-06
-7.57112e-06
-7.57184e-06
-7.62237e-06
-7.72602e-06
-7.88814e-06
-8.10488e-06
-8.38868e-06
-8.70048e-06
-9.0605e-06
-9.36268e-06
-9.63743e-06
-9.8456e-06
-1.00098e-05
-1.01223e-05
-1.01918e-05
-1.02174e-05
-1.01993e-05
-1.01385e-05
-1.00267e-05
-9.87201e-06
-9.65183e-06
-9.40687e-06
-9.10622e-06
-8.85988e-06
-8.64727e-06
-8.51252e-06
-8.44569e-06
-8.44963e-06
-8.50912e-06
-8.57372e-06
-8.65029e-06
-7.84683e-06
-7.75199e-06
-7.68841e-06
-7.63651e-06
-7.63986e-06
-7.71035e-06
-7.85599e-06
-8.09118e-06
-8.41721e-06
-8.87039e-06
-9.38351e-06
-1.00151e-05
-1.05145e-05
-1.09607e-05
-1.12811e-05
-1.15287e-05
-1.16909e-05
-1.17857e-05
-1.18117e-05
-1.17686e-05
-1.16586e-05
-1.14634e-05
-1.11967e-05
-1.0805e-05
-1.0364e-05
-9.79314e-06
-9.35091e-06
-8.97535e-06
-8.74222e-06
-8.61826e-06
-8.60152e-06
-8.66495e-06
-8.7442e-06
-8.84703e-06
-8.02222e-06
-7.89924e-06
-7.82441e-06
-7.77166e-06
-7.79158e-06
-7.90058e-06
-8.1128e-06
-8.45585e-06
-8.94009e-06
-9.64741e-06
-1.04756e-05
-1.15829e-05
-1.23895e-05
-1.31014e-05
-1.35904e-05
-1.39652e-05
-1.42034e-05
-1.4338e-05
-1.43648e-05
-1.42838e-05
-1.40992e-05
-1.37777e-05
-1.33431e-05
-1.26858e-05
-1.19389e-05
-1.08931e-05
-1.01442e-05
-9.52139e-06
-9.14183e-06
-8.92679e-06
-8.86668e-06
-8.91978e-06
-9.00726e-06
-9.14395e-06
-8.25681e-06
-8.099e-06
-8.01539e-06
-7.96973e-06
-8.01857e-06
-8.18179e-06
-8.47936e-06
-8.95367e-06
-9.62642e-06
-1.06698e-05
-1.19298e-05
-1.38509e-05
-1.50613e-05
-1.61106e-05
-1.67973e-05
-1.73245e-05
-1.76514e-05
-1.78342e-05
-1.78627e-05
-1.77366e-05
-1.7466e-05
-1.69938e-05
-1.63625e-05
-1.5367e-05
-1.4218e-05
-1.23564e-05
-1.11911e-05
-1.02386e-05
-9.68237e-06
-9.35304e-06
-9.2329e-06
-9.26523e-06
-9.35864e-06
-9.53959e-06
-8.54566e-06
-8.34397e-06
-8.25432e-06
-8.2253e-06
-8.31886e-06
-8.55564e-06
-8.95778e-06
-9.57009e-06
-1.04205e-05
-1.1744e-05
-1.35265e-05
-1.68574e-05
-1.84736e-05
-1.99154e-05
-2.08358e-05
-2.15562e-05
-2.19986e-05
-2.2245e-05
-2.2276e-05
-2.20911e-05
-2.17092e-05
-2.10466e-05
-2.01828e-05
-1.87921e-05
-1.72364e-05
-1.39539e-05
-1.22983e-05
-1.10676e-05
-1.0345e-05
-9.89456e-06
-9.69766e-06
-9.6964e-06
-9.79206e-06
-1.0031e-05
-8.88086e-06
-8.62174e-06
-8.52697e-06
-8.52126e-06
-8.67083e-06
-8.99206e-06
-9.49936e-06
-1.02176e-05
-1.10913e-05
-1.25661e-05
-1.46221e-05
-2.1077e-05
-2.25334e-05
-2.41189e-05
-2.51645e-05
-2.59962e-05
-2.65077e-05
-2.6799e-05
-2.68332e-05
-2.66094e-05
-2.61636e-05
-2.5393e-05
-2.44048e-05
-2.28627e-05
-2.14672e-05
-1.50244e-05
-1.31918e-05
-1.17859e-05
-1.10456e-05
-1.05023e-05
-1.0228e-05
-1.01877e-05
-1.02876e-05
-1.06088e-05
-9.25162e-06
-8.92738e-06
-8.83341e-06
-8.87046e-06
-9.11428e-06
-9.58028e-06
-1.02837e-05
-1.11285e-05
-1.20688e-05
-1.42932e-05
-1.03287e-05
-2.44448e-05
-2.58557e-05
-2.79379e-05
-2.92548e-05
-3.03501e-05
-3.10155e-05
-3.13832e-05
-3.14207e-05
-3.1127e-05
-3.05339e-05
-2.95052e-05
-2.82485e-05
-2.62042e-05
-2.48845e-05
-1.05451e-05
-1.49182e-05
-1.27664e-05
-1.19914e-05
-1.13367e-05
-1.08959e-05
-1.07617e-05
-1.08402e-05
-1.1268e-05
-9.63859e-06
-9.24235e-06
-9.14522e-06
-9.22554e-06
-9.56825e-06
-1.01895e-05
-1.10865e-05
-1.20559e-05
-1.24995e-05
-7.71734e-06
-3.55636e-05
-3.02683e-05
-3.10475e-05
-3.22188e-05
-3.31947e-05
-3.38589e-05
-3.42208e-05
-3.42613e-05
-3.39792e-05
-3.33927e-05
-3.24886e-05
-3.13797e-05
-3.06244e-05
-3.57809e-05
-8.81515e-06
-1.33794e-05
-1.2989e-05
-1.21903e-05
-1.15758e-05
-1.13397e-05
-1.14064e-05
-1.19637e-05
-1.00307e-05
-9.56091e-06
-9.47351e-06
-9.62993e-06
-1.01506e-05
-1.11173e-05
-1.26888e-05
-1.49819e-05
-1.87012e-05
-2.25902e-05
-3.27142e-05
-2.88197e-05
-3.10747e-05
-3.33664e-05
-3.52058e-05
-3.65547e-05
-3.74349e-05
-3.78783e-05
-3.79221e-05
-3.75659e-05
-3.67729e-05
-3.55104e-05
-3.37595e-05
-3.15621e-05
-2.94042e-05
-3.35704e-05
-2.32974e-05
-1.94857e-05
-1.58752e-05
-1.37788e-05
-1.25291e-05
-1.20106e-05
-1.19949e-05
-1.26825e-05
-1.04057e-05
-9.86144e-06
-9.77055e-06
-9.97178e-06
-1.05994e-05
-1.17501e-05
-1.35974e-05
-1.62045e-05
-1.98834e-05
-2.35529e-05
-2.95155e-05
-3.10224e-05
-3.29201e-05
-3.48541e-05
-3.67015e-05
-3.80946e-05
-3.90391e-05
-3.95189e-05
-3.95657e-05
-3.9179e-05
-3.83274e-05
-3.70244e-05
-3.52659e-05
-3.34074e-05
-3.15741e-05
-3.0214e-05
-2.43005e-05
-2.06761e-05
-1.71016e-05
-1.47051e-05
-1.32118e-05
-1.25682e-05
-1.25359e-05
-1.33608e-05
-1.07513e-05
-1.01415e-05
-1.00481e-05
-1.02894e-05
-1.10109e-05
-1.23216e-05
-1.44001e-05
-1.73029e-05
-2.121e-05
-2.53719e-05
-3.01587e-05
-3.26614e-05
-3.47886e-05
-3.68117e-05
-3.88151e-05
-4.0285e-05
-4.1288e-05
-4.17913e-05
-4.18413e-05
-4.14377e-05
-4.05346e-05
-3.91617e-05
-3.72545e-05
-3.53108e-05
-3.32618e-05
-3.08435e-05
-2.61113e-05
-2.20023e-05
-1.82095e-05
-1.55343e-05
-1.38421e-05
-1.30927e-05
-1.30441e-05
-1.39796e-05
-1.10518e-05
-1.03853e-05
-1.02818e-05
-1.05396e-05
-1.13072e-05
-1.26939e-05
-1.48672e-05
-1.78815e-05
-2.18336e-05
-2.61426e-05
-3.06869e-05
-3.36442e-05
-3.6032e-05
-3.81163e-05
-4.01824e-05
-4.16756e-05
-4.26988e-05
-4.32083e-05
-4.32613e-05
-4.28576e-05
-4.19404e-05
-4.05499e-05
-3.8586e-05
-3.65835e-05
-3.42716e-05
-3.13843e-05
-2.68968e-05
-2.26436e-05
-1.88137e-05
-1.60437e-05
-1.42859e-05
-1.35073e-05
-1.34741e-05
-1.45025e-05
-1.13005e-05
-1.05899e-05
-1.04765e-05
-1.07425e-05
-1.1538e-05
-1.29713e-05
-1.52019e-05
-1.82864e-05
-2.22765e-05
-2.66718e-05
-3.11777e-05
-3.43766e-05
-3.69132e-05
-3.90672e-05
-4.11843e-05
-4.26893e-05
-4.37187e-05
-4.42281e-05
-4.42843e-05
-4.3887e-05
-4.297e-05
-4.1574e-05
-3.95652e-05
-3.74976e-05
-3.50505e-05
-3.19014e-05
-2.74507e-05
-2.31111e-05
-1.92501e-05
-1.64243e-05
-1.46337e-05
-1.38454e-05
-1.38291e-05
-1.4924e-05
-1.14914e-05
-1.07489e-05
-1.06259e-05
-1.08929e-05
-1.17003e-05
-1.31554e-05
-1.54123e-05
-1.85317e-05
-2.25463e-05
-2.70059e-05
-3.15396e-05
-3.48709e-05
-3.75048e-05
-3.97026e-05
-4.18466e-05
-4.33561e-05
-4.43877e-05
-4.48971e-05
-4.49566e-05
-4.4566e-05
-4.36531e-05
-4.22586e-05
-4.02286e-05
-3.81207e-05
-3.55766e-05
-3.22927e-05
-2.78131e-05
-2.34089e-05
-1.95282e-05
-1.66783e-05
-1.48797e-05
-1.40962e-05
-1.40983e-05
-1.52395e-05
-1.16226e-05
-1.08616e-05
-1.07325e-05
-1.09993e-05
-1.18135e-05
-1.32821e-05
-1.55575e-05
-1.87038e-05
-2.27465e-05
-2.72583e-05
-3.18364e-05
-3.52488e-05
-3.7946e-05
-4.01807e-05
-4.23495e-05
-4.38704e-05
-4.49092e-05
-4.54224e-05
-4.54854e-05
-4.50978e-05
-4.41843e-05
-4.27845e-05
-4.07351e-05
-3.8594e-05
-3.59875e-05
-3.26204e-05
-2.80943e-05
-2.36368e-05
-1.97298e-05
-1.68594e-05
-1.50534e-05
-1.42725e-05
-1.42853e-05
-1.54531e-05
-1.16933e-05
-1.0927e-05
-1.07959e-05
-1.1063e-05
-1.1881e-05
-1.3358e-05
-1.56476e-05
-1.88159e-05
-2.28883e-05
-2.7444e-05
-3.20698e-05
-3.55324e-05
-3.8269e-05
-4.05355e-05
-4.27288e-05
-4.42689e-05
-4.5321e-05
-4.58426e-05
-4.59092e-05
-4.55203e-05
-4.46e-05
-4.31871e-05
-4.11179e-05
-3.89482e-05
-3.63028e-05
-3.28834e-05
-2.83072e-05
-2.38049e-05
-1.98664e-05
-1.69754e-05
-1.51591e-05
-1.43756e-05
-1.43908e-05
-1.55675e-05
-1.17044e-05
-1.09457e-05
-1.08167e-05
-1.10842e-05
-1.19029e-05
-1.33828e-05
-1.56819e-05
-1.88677e-05
-2.29769e-05
-2.75637e-05
-3.22426e-05
-3.57311e-05
-3.84838e-05
-4.07758e-05
-4.29915e-05
-4.45568e-05
-4.56274e-05
-4.61618e-05
-4.62321e-05
-4.58379e-05
-4.49063e-05
-4.3474e-05
-4.13863e-05
-3.91938e-05
-3.65323e-05
-3.30841e-05
-2.84515e-05
-2.39113e-05
-1.99368e-05
-1.70262e-05
-1.51972e-05
-1.44065e-05
-1.4416e-05
-1.55843e-05
-1.16584e-05
-1.09201e-05
-1.07966e-05
-1.10637e-05
-1.18777e-05
-1.33512e-05
-1.56496e-05
-1.88407e-05
-2.29825e-05
-2.75956e-05
-3.23533e-05
-3.58409e-05
-3.85758e-05
-4.08842e-05
-4.31165e-05
-4.47123e-05
-4.58052e-05
-4.63559e-05
-4.64306e-05
-4.60289e-05
-4.50828e-05
-4.36273e-05
-4.15272e-05
-3.93214e-05
-3.66773e-05
-3.32246e-05
-2.85105e-05
-2.39419e-05
-1.9929e-05
-1.70056e-05
-1.51668e-05
-1.43676e-05
-1.43644e-05
-1.55049e-05
-1.15585e-05
-1.08523e-05
-1.07346e-05
-1.0994e-05
-1.17871e-05
-1.32278e-05
-1.54907e-05
-1.86454e-05
-2.2799e-05
-2.74205e-05
-3.23435e-05
-3.57913e-05
-3.84567e-05
-4.0749e-05
-4.29644e-05
-4.45782e-05
-4.56868e-05
-4.62534e-05
-4.63339e-05
-4.59277e-05
-4.49758e-05
-4.35118e-05
-4.14345e-05
-3.9251e-05
-3.66781e-05
-3.32503e-05
-2.83682e-05
-2.37881e-05
-1.97587e-05
-1.68611e-05
-1.50409e-05
-1.42493e-05
-1.42353e-05
-1.53294e-05
-1.14121e-05
-1.07503e-05
-1.06399e-05
-1.08853e-05
-1.16415e-05
-1.3022e-05
-1.52108e-05
-1.82791e-05
-2.24196e-05
-2.69565e-05
-3.2265e-05
-3.56038e-05
-3.80824e-05
-4.03746e-05
-4.25655e-05
-4.4191e-05
-4.53055e-05
-4.58858e-05
-4.59744e-05
-4.55716e-05
-4.46288e-05
-4.31693e-05
-4.11271e-05
-3.89578e-05
-3.65839e-05
-3.32215e-05
-2.79532e-05
-2.34569e-05
-1.94356e-05
-1.66101e-05
-1.48397e-05
-1.40718e-05
-1.40464e-05
-1.50685e-05
-1.12272e-05
-1.06181e-05
-1.05081e-05
-1.07179e-05
-1.13921e-05
-1.2629e-05
-1.46028e-05
-1.73808e-05
-2.12508e-05
-2.52448e-05
-3.194e-05
-3.53243e-05
-3.73781e-05
-3.95766e-05
-4.16241e-05
-4.31978e-05
-4.42783e-05
-4.48568e-05
-4.49568e-05
-4.45796e-05
-4.36921e-05
-4.2309e-05
-4.04253e-05
-3.83727e-05
-3.6415e-05
-3.29294e-05
-2.62957e-05
-2.2359e-05
-1.86117e-05
-1.60599e-05
-1.44733e-05
-1.38023e-05
-1.37955e-05
-1.47311e-05
-1.10211e-05
-1.04738e-05
-1.03691e-05
-1.05469e-05
-1.11405e-05
-1.22332e-05
-1.39854e-05
-1.64941e-05
-2.04883e-05
-2.5042e-05
-3.38982e-05
-3.33258e-05
-3.64733e-05
-3.93535e-05
-4.15194e-05
-4.31394e-05
-4.42219e-05
-4.48068e-05
-4.49243e-05
-4.45782e-05
-4.37236e-05
-4.2334e-05
-4.03546e-05
-3.76569e-05
-3.45597e-05
-3.48161e-05
-2.62759e-05
-2.17468e-05
-1.78558e-05
-1.55403e-05
-1.41281e-05
-1.35418e-05
-1.35381e-05
-1.43603e-05
-1.08055e-05
-1.03181e-05
-1.02066e-05
-1.03236e-05
-1.07686e-05
-1.15546e-05
-1.26583e-05
-1.37645e-05
-1.39829e-05
-7.07558e-06
-4.55351e-05
-3.79453e-05
-3.87294e-05
-4.01412e-05
-4.13821e-05
-4.22777e-05
-4.2816e-05
-4.29521e-05
-4.26928e-05
-4.20593e-05
-4.10899e-05
-3.98871e-05
-3.93538e-05
-4.69167e-05
-8.27914e-06
-1.54224e-05
-1.53021e-05
-1.43544e-05
-1.35321e-05
-1.31839e-05
-1.32468e-05
-1.39688e-05
-1.06039e-05
-1.01756e-05
-1.00774e-05
-1.01829e-05
-1.05951e-05
-1.13556e-05
-1.25372e-05
-1.41244e-05
-1.64373e-05
-2.01908e-05
-2.01237e-05
-3.17353e-05
-3.4262e-05
-3.70936e-05
-3.90394e-05
-4.0605e-05
-4.16788e-05
-4.23338e-05
-4.25003e-05
-4.21897e-05
-4.14319e-05
-4.01167e-05
-3.83892e-05
-3.59069e-05
-3.35086e-05
-2.2881e-05
-2.23995e-05
-1.84709e-05
-1.59653e-05
-1.43859e-05
-1.33897e-05
-1.29874e-05
-1.30041e-05
-1.36228e-05
-1.04254e-05
-1.0047e-05
-9.95866e-06
-1.00478e-05
-1.04106e-05
-1.10937e-05
-1.2168e-05
-1.36971e-05
-1.57316e-05
-1.83415e-05
-2.30583e-05
-2.98643e-05
-3.2025e-05
-3.42118e-05
-3.58625e-05
-3.73269e-05
-3.83137e-05
-3.8984e-05
-3.91695e-05
-3.88869e-05
-3.82848e-05
-3.71226e-05
-3.55484e-05
-3.35745e-05
-3.15891e-05
-2.54071e-05
-2.04785e-05
-1.78221e-05
-1.56502e-05
-1.4099e-05
-1.3154e-05
-1.27664e-05
-1.27696e-05
-1.33168e-05
-1.02848e-05
-9.95472e-06
-9.88831e-06
-9.98509e-06
-1.03368e-05
-1.09965e-05
-1.20429e-05
-1.35617e-05
-1.56687e-05
-1.84459e-05
-2.20765e-05
-2.63929e-05
-2.87629e-05
-3.07779e-05
-3.23955e-05
-3.3943e-05
-3.49903e-05
-3.56452e-05
-3.58343e-05
-3.55811e-05
-3.48943e-05
-3.3736e-05
-3.21477e-05
-3.02109e-05
-2.81009e-05
-2.43544e-05
-2.07282e-05
-1.7867e-05
-1.56029e-05
-1.4024e-05
-1.306e-05
-1.26422e-05
-1.26057e-05
-1.30821e-05
-1.0186e-05
-9.90422e-06
-9.86487e-06
-9.97574e-06
-1.03175e-05
-1.09387e-05
-1.1908e-05
-1.33058e-05
-1.52118e-05
-1.77084e-05
-2.0625e-05
-2.38446e-05
-2.60318e-05
-2.79105e-05
-2.95052e-05
-3.09891e-05
-3.20046e-05
-3.2633e-05
-3.28219e-05
-3.25964e-05
-3.19449e-05
-3.08695e-05
-2.93569e-05
-2.75644e-05
-2.5588e-05
-2.28484e-05
-1.99785e-05
-1.74138e-05
-1.5363e-05
-1.3897e-05
-1.29858e-05
-1.25681e-05
-1.25028e-05
-1.29131e-05
-1.01313e-05
-9.90395e-06
-9.90272e-06
-1.00431e-05
-1.03917e-05
-1.09885e-05
-1.18867e-05
-1.31463e-05
-1.48153e-05
-1.6922e-05
-1.93144e-05
-2.18872e-05
-2.39536e-05
-2.58414e-05
-2.74677e-05
-2.88356e-05
-2.98432e-05
-3.04644e-05
-3.06571e-05
-3.04429e-05
-2.9804e-05
-2.87944e-05
-2.7368e-05
-2.5675e-05
-2.37691e-05
-2.15177e-05
-1.91448e-05
-1.69707e-05
-1.5178e-05
-1.386e-05
-1.30105e-05
-1.25877e-05
-1.24826e-05
-1.28148e-05
-1.0116e-05
-9.95069e-06
-9.99652e-06
-1.01785e-05
-1.05482e-05
-1.11371e-05
-1.19842e-05
-1.313e-05
-1.46001e-05
-1.64013e-05
-1.84237e-05
-2.05849e-05
-2.25292e-05
-2.43528e-05
-2.5896e-05
-2.72137e-05
-2.81458e-05
-2.87175e-05
-2.8902e-05
-2.87157e-05
-2.81469e-05
-2.72115e-05
-2.58998e-05
-2.43349e-05
-2.25401e-05
-2.05738e-05
-1.85499e-05
-1.66866e-05
-1.51233e-05
-1.3939e-05
-1.31389e-05
-1.26981e-05
-1.25406e-05
-1.27794e-05
-1.01235e-05
-1.00173e-05
-1.00968e-05
-1.03158e-05
-1.07108e-05
-1.13072e-05
-1.21346e-05
-1.32208e-05
-1.45785e-05
-1.62012e-05
-1.80226e-05
-1.99624e-05
-2.18273e-05
-2.35895e-05
-2.5096e-05
-2.63489e-05
-2.72429e-05
-2.77877e-05
-2.79672e-05
-2.77908e-05
-2.72524e-05
-2.63633e-05