/*--------------------------------*- C++ -*----------------------------------*\
| =========                 |                                                 |
| \\      /  F ield         | OpenFOAM: The Open Source CFD Toolbox           |
|  \\    /   O peration     | Version:  2112                                  |
|   \\  /    A nd           | Website:  www.openfoam.com                      |
|    \\/     M anipulation  |                                                 |
\*---------------------------------------------------------------------------*/
FoamFile
{
    version     2.0;
    format      ascii;
    arch        "LSB;label=32;scalar=64";
    class       surfaceScalarField;
    location    "2.1";
    object      phi;
}
// * * * * * * * * * * * * * * * * * * * * * * * * * * * * * * * * * * * * * //

dimensions      [0 3 -1 0 0 0 0];

oriented        oriented;

internalField   nonuniform List<scalar> 
188215
(
9.60213e-10
2.23219e-09
-3.1924e-09
3.09491e-09
1.43564e-09
-3.57033e-09
5.66115e-09
6.79146e-10
-3.24538e-09
8.29683e-09
1.79205e-10
-2.81489e-09
1.08876e-08
-3.27926e-11
-2.55795e-09
1.33989e-08
-2.22624e-11
-2.4891e-09
1.57938e-08
1.62511e-10
-2.55737e-09
1.80109e-08
4.85086e-10
-2.70214e-09
1.99112e-08
1.00908e-09
-2.90937e-09
2.1228e-08
1.8339e-09
-3.15077e-09
2.17654e-08
2.88148e-09
-3.41889e-09
2.11682e-08
4.28481e-09
-3.68754e-09
1.95921e-08
5.49248e-09
-3.91642e-09
1.7096e-08
6.57952e-09
-4.0834e-09
1.39161e-08
7.38658e-09
-4.20666e-09
1.02082e-08
8.00084e-09
-4.29301e-09
6.16761e-09
8.39244e-09
-4.3518e-09
1.9653e-09
8.58811e-09
-4.3858e-09
-2.2221e-09
8.58398e-09
-4.39658e-09
-6.21856e-09
8.38022e-09
-4.38376e-09
-9.85395e-09
7.98112e-09
-4.34573e-09
-1.29347e-08
7.36034e-09
-4.27962e-09
-1.53086e-08
6.54994e-09
-4.17599e-09
-1.67431e-08
5.46339e-09
-4.02896e-09
-1.71876e-08
4.26654e-09
-3.82194e-09
-1.64897e-08
2.88396e-09
-3.58192e-09
-1.5016e-08
1.88325e-09
-3.35695e-09
-1.29585e-08
1.13115e-09
-3.18867e-09
-1.05845e-08
7.37666e-10
-3.11163e-09
-8.02256e-09
6.40026e-10
-3.20196e-09
-5.38694e-09
9.07785e-10
-3.5434e-09
-2.84854e-09
1.61776e-09
-4.15617e-09
-7.88313e-10
2.62088e-09
-4.68111e-09
3.5205e-09
-4.30881e-09
-5.55168e-10
7.03747e-09
-4.25011e-09
1.85022e-09
7.09587e-09
-8.06561e-09
5.05159e-09
6.69766e-09
-9.21988e-09
8.20075e-09
6.54376e-09
-9.51371e-09
1.1137e-08
6.88783e-09
-9.85687e-09
1.38867e-08
7.72092e-09
-1.04929e-08
1.64919e-08
9.02811e-09
-1.14707e-08
1.88997e-08
1.08769e-08
-1.27997e-08
2.10067e-08
1.33626e-08
-1.44604e-08
2.25167e-08
1.67729e-08
-1.6449e-08
2.31799e-08
2.09247e-08
-1.87063e-08
2.25243e-08
2.60731e-08
-2.11327e-08
2.07993e-08
3.06519e-08
-2.34344e-08
1.80983e-08
3.47525e-08
-2.5472e-08
1.46979e-08
3.79403e-08
-2.71534e-08
1.07595e-08
4.03921e-08
-2.84529e-08
6.48197e-09
4.20126e-08
-2.93427e-08
2.04047e-09
4.28445e-08
-2.98149e-08
-2.38473e-09
4.28702e-08
-2.9861e-08
-6.61345e-09
4.209e-08
-2.94811e-08
-1.04718e-08
4.05232e-08
-2.86837e-08
-1.37624e-08
3.81284e-08
-2.74775e-08
-1.63281e-08
3.50071e-08
-2.58914e-08
-1.78954e-08
3.09849e-08
-2.39542e-08
-1.83793e-08
2.65136e-08
-2.17631e-08
-1.75282e-08
2.14993e-08
-1.94665e-08
-1.5819e-08
1.75473e-08
-1.73734e-08
-1.34701e-08
1.43868e-08
-1.56045e-08
-1.07406e-08
1.22599e-08
-1.42517e-08
-7.69605e-09
1.09394e-08
-1.33439e-08
-4.37519e-09
1.04175e-08
-1.28306e-08
-9.78191e-10
1.06131e-08
-1.23923e-08
1.42918e-09
1.11044e-08
-1.08909e-08
1.08387e-08
-5.88899e-09
-1.6076e-09
1.29095e-08
-4.26445e-09
1.02324e-09
1.39331e-08
-9.46811e-09
4.75884e-09
1.42087e-08
-1.12467e-08
8.4136e-09
1.48e-08
-1.1911e-08
1.1787e-08
1.60652e-08
-1.25507e-08
1.4948e-08
1.80687e-08
-1.35088e-08
1.80034e-08
2.08725e-08
-1.48998e-08
2.09736e-08
2.4675e-08
-1.67683e-08
2.37585e-08
2.9711e-08
-1.91333e-08
2.59337e-08
3.66094e-08
-2.20117e-08
2.70677e-08
4.5111e-08
-2.53203e-08
2.62341e-08
5.58138e-08
-2.89071e-08
2.40403e-08
6.51682e-08
-3.23225e-08
2.07029e-08
7.34344e-08
-3.53444e-08
1.66623e-08
7.98163e-08
-3.78354e-08
1.20742e-08
8.47326e-08
-3.97523e-08
7.15083e-09
8.79944e-08
-4.10584e-08
2.06314e-09
8.96794e-08
-4.17472e-08
-3.00728e-09
8.97476e-08
-4.18069e-08
-7.87871e-09
8.81991e-08
-4.12377e-08
-1.23808e-08
8.50765e-08
-4.00512e-08
-1.63013e-08
8.03034e-08
-3.82546e-08
-1.94875e-08
7.40794e-08
-3.5886e-08
-2.14992e-08
6.59893e-08
-3.29927e-08
-2.21288e-08
5.68619e-08
-2.97187e-08
-2.07603e-08
4.64288e-08
-2.6298e-08
-1.83292e-08
3.8314e-08
-2.31977e-08
-1.52073e-08
3.18553e-08
-2.05904e-08
-1.1754e-08
2.73905e-08
-1.8584e-08
-7.99225e-09
2.43402e-08
-1.71625e-08
-3.91541e-09
2.2532e-08
-1.61913e-08
2.04848e-10
2.17133e-08
-1.52205e-08
2.87552e-09
2.13164e-08
-1.28826e-08
1.97619e-08
-6.04773e-09
-2.13633e-09
1.89508e-08
-3.9049e-09
8.16805e-10
2.06956e-08
-9.71557e-09
5.17058e-09
2.15917e-08
-1.17368e-08
9.5043e-09
2.29764e-08
-1.25102e-08
1.35676e-08
2.52574e-08
-1.32555e-08
1.74756e-08
2.8536e-08
-1.43753e-08
2.14347e-08
3.29406e-08
-1.60272e-08
2.55771e-08
3.88273e-08
-1.82947e-08
2.98322e-08
4.66775e-08
-2.12216e-08
3.35227e-08
5.77764e-08
-2.48575e-08
3.5746e-08
7.19716e-08
-2.90839e-08
3.44545e-08
9.08683e-08
-3.37629e-08
3.11511e-08
1.06665e-07
-3.81933e-08
2.6396e-08
1.20284e-07
-4.20944e-08
2.09615e-08
1.30541e-07
-4.52899e-08
1.49628e-08
1.3845e-07
-4.77186e-08
8.62732e-09
1.43686e-07
-4.93558e-08
2.12031e-09
1.46398e-07
-5.02121e-08
-4.36864e-09
1.46514e-07
-5.02772e-08
-1.06492e-08
1.4403e-07
-4.95505e-08
-1.65554e-08
1.39025e-07
-4.80421e-08
-2.18561e-08
1.31346e-07
-4.57415e-08
-2.64364e-08
1.21334e-07
-4.26742e-08
-2.9518e-08
1.07977e-07
-3.89057e-08
-3.05514e-08
9.25153e-08
-3.462e-08
-2.80165e-08
7.40069e-08
-3.0113e-08
-2.39959e-08
6.0401e-08
-2.61076e-08
-1.92906e-08
4.99139e-08
-2.27639e-08
-1.44904e-08
4.28145e-08
-2.02243e-08
-9.57656e-09
3.78613e-08
-1.84349e-08
-4.47615e-09
3.46491e-08
-1.72175e-08
5.02016e-10
3.2776e-08
-1.60409e-08
3.60519e-09
3.15779e-08
-1.33647e-08
2.90646e-08
-5.69747e-09
-2.24237e-09
2.47488e-08
-3.55565e-09
1.27385e-09
2.70531e-08
-9.87371e-09
6.46052e-09
2.84931e-08
-1.2088e-08
1.17034e-08
3.06633e-08
-1.29298e-08
1.67319e-08
3.40097e-08
-1.37807e-08
2.17486e-08
3.86308e-08
-1.51116e-08
2.71315e-08
4.46852e-08
-1.71274e-08
3.3251e-08
5.26723e-08
-1.99646e-08
4.01648e-08
6.34465e-08
-2.36827e-08
4.68499e-08
7.94736e-08
-2.83824e-08
5.13627e-08
1.01323e-07
-3.38645e-08
4.89838e-08
1.33431e-07
-4.01839e-08
4.34188e-08
1.58324e-07
-4.60938e-08
3.60644e-08
1.78961e-07
-5.13223e-08
2.82366e-08
1.93967e-07
-5.55987e-08
1.98548e-08
2.056e-07
-5.87687e-08
1.11352e-08
2.13278e-07
-6.08732e-08
2.22675e-09
2.1727e-07
-6.19631e-08
-6.6636e-09
2.17438e-07
-6.2034e-08
-1.53273e-08
2.13779e-07
-6.10852e-08
-2.36124e-08
2.06429e-07
-5.9119e-08
-3.12935e-08
1.95111e-07
-5.60844e-08
-3.84453e-08
1.80425e-07
-5.19391e-08
-4.37344e-08
1.60108e-07
-4.68427e-08
-4.57756e-08
1.35631e-07
-4.10747e-08
-4.08338e-08
1.03991e-07
-3.4926e-08
-3.37438e-08
8.29862e-08
-2.96752e-08
-2.62685e-08
6.77266e-08
-2.5288e-08
-1.93175e-08
5.78566e-08
-2.1993e-08
-1.27306e-08
5.09622e-08
-1.96879e-08
-6.23432e-09
4.63186e-08
-1.81658e-08
-7.5691e-11
4.3416e-08
-1.67986e-08
3.7952e-09
4.15156e-08
-1.38086e-08
3.82331e-08
-5.37328e-09
-2.07714e-09
3.01178e-08
-3.2919e-09
2.29758e-09
3.28889e-08
-1.02106e-08
8.61354e-09
3.48498e-08
-1.26727e-08
1.50497e-08
3.78434e-08
-1.36163e-08
2.13339e-08
4.23601e-08
-1.46346e-08
2.78041e-08
4.84505e-08
-1.62898e-08
3.51121e-08
5.62214e-08
-1.88443e-08
4.41226e-08
6.61597e-08
-2.24979e-08
5.53273e-08
7.95193e-08
-2.72776e-08
6.76013e-08
1.00524e-07
-3.33241e-08
7.69348e-08
1.32076e-07
-4.00866e-08
7.212e-08
1.86816e-07
-4.85697e-08
6.23051e-08
2.24604e-07
-5.64656e-08
5.06687e-08
2.54288e-07
-6.3691e-08
3.92125e-08
2.75086e-07
-6.96628e-08
2.72559e-08
2.91424e-07
-7.38672e-08
1.49375e-08
3.02198e-07
-7.66009e-08
2.3868e-09
3.07822e-07
-7.80012e-08
-1.01478e-08
3.08054e-07
-7.80818e-08
-2.24154e-08
3.02888e-07
-7.68414e-08
-3.42813e-08
2.92557e-07
-7.42627e-08
-4.55895e-08
2.76626e-07
-7.0207e-08
-5.70042e-08
2.56212e-07
-6.4373e-08
-6.64826e-08
2.26868e-07
-5.72809e-08
-7.08496e-08
1.89523e-07
-4.95252e-08
-6.08952e-08
1.35241e-07
-4.12047e-08
-4.8166e-08
1.04944e-07
-3.46871e-08
-3.6302e-08
8.48401e-08
-2.89774e-08
-2.62737e-08
7.24973e-08
-2.46691e-08
-1.74678e-08
6.37788e-08
-2.16225e-08
-9.14498e-09
5.76454e-08
-1.96496e-08
-1.37655e-09
5.36478e-08
-1.80002e-08
3.66329e-09
5.10474e-08
-1.45716e-08
4.70764e-08
-5.18009e-09
-1.71165e-09
3.49112e-08
-3.08171e-09
3.8414e-09
3.80998e-08
-1.07639e-08
1.16426e-08
4.062e-08
-1.35714e-08
1.96077e-08
4.4555e-08
-1.46766e-08
2.74498e-08
5.04599e-08
-1.59419e-08
3.5657e-08
5.8289e-08
-1.80458e-08
4.52428e-08
6.79468e-08
-2.13111e-08
5.79624e-08
7.94389e-08
-2.59988e-08
7.54292e-08
9.40619e-08
-3.20093e-08
9.73962e-08
1.17923e-07
-3.93662e-08
1.17294e-07
1.58839e-07
-4.66606e-08
1.06768e-07
2.54747e-07
-5.74057e-08
8.9151e-08
3.09539e-07
-6.73176e-08
7.09718e-08
3.49763e-07
-7.72958e-08
5.45058e-08
3.77342e-07
-8.57895e-08
3.7624e-08
3.99451e-07
-9.1145e-08
2.02821e-08
4.14112e-07
-9.45727e-08
2.61068e-09
4.21804e-07
-9.63106e-08
-1.50503e-08
4.22121e-07
-9.64053e-08
-3.23582e-08
4.15051e-07
-9.48546e-08
-4.91764e-08
4.00982e-07
-9.16062e-08
-6.55235e-08
3.79394e-07
-8.64207e-08
-8.34948e-08
3.52259e-07
-7.80755e-08
-1.00725e-07
3.12335e-07
-6.82369e-08
-1.10659e-07
2.57928e-07
-5.84708e-08
-8.97878e-08
1.62244e-07
-4.78732e-08
-6.7405e-08
1.23408e-07
-4.08465e-08
-4.92211e-08
1.00504e-07
-3.38477e-08
-3.52698e-08
8.69147e-08
-2.83687e-08
-2.3807e-08
7.66956e-08
-2.43795e-08
-1.32311e-08
6.8872e-08
-2.18025e-08
-3.37608e-09
6.35353e-08
-1.97426e-08
3.29746e-09
6.00793e-08
-1.57054e-08
5.54413e-08
-5.06742e-09
-1.12001e-09
3.89154e-08
-2.88423e-09
5.97593e-09
4.25098e-08
-1.15059e-08
1.57146e-08
4.5656e-08
-1.47746e-08
2.56597e-08
5.07176e-08
-1.61077e-08
3.54366e-08
5.83845e-08
-1.77016e-08
4.55569e-08
6.85429e-08
-2.03742e-08
5.72277e-08
8.07809e-08
-2.45049e-08
7.32863e-08
9.38018e-08
-3.04215e-08
9.7437e-08
1.07582e-07
-3.7671e-08
1.35316e-07
1.26461e-07
-4.64177e-08
1.78793e-07
1.65354e-07
-4.99921e-08
1.55836e-07
3.38493e-07
-6.07887e-08
1.25848e-07
4.12221e-07
-7.26941e-08
9.89479e-08
4.63516e-07
-8.68537e-08
7.60661e-08
4.99318e-07
-9.90947e-08
5.24561e-08
5.2852e-07
-1.05459e-07
2.79619e-08
5.48092e-07
-1.09485e-07
2.92168e-09
5.58353e-07
-1.11508e-07
-2.21184e-08
5.5878e-07
-1.11619e-07
-4.66119e-08
5.49358e-07
-1.09814e-07
-7.0221e-08
5.30586e-07
-1.05995e-07
-9.3075e-08
5.02076e-07
-9.98279e-08
-1.19875e-07
4.6681e-07
-8.77506e-08
-1.49521e-07
4.15727e-07
-7.37462e-08
-1.71697e-07
3.42137e-07
-6.20334e-08
-1.26545e-07
1.68418e-07
-5.13266e-08
-8.85571e-08
1.33441e-07
-4.80213e-08
-6.36523e-08
1.15259e-07
-3.96597e-08
-4.60837e-08
1.02376e-07
-3.30296e-08
-3.20279e-08
9.05679e-08
-2.79281e-08
-1.88285e-08
8.02885e-08
-2.46158e-08
-6.27913e-09
7.30063e-08
-2.20203e-08
2.6131e-09
6.83588e-08
-1.71717e-08
6.30032e-08
-4.94877e-09
-2.07569e-10
4.18047e-08
-2.68169e-09
8.75052e-09
4.59571e-08
-1.24054e-08
2.09511e-08
4.97235e-08
-1.62681e-08
3.34544e-08
5.61058e-08
-1.78914e-08
4.56943e-08
6.60245e-08
-1.98799e-08
5.79325e-08
7.94997e-08
-2.3195e-08
7.10277e-08
9.59614e-08
-2.82758e-08
8.83751e-08
1.11946e-07
-3.54919e-08
1.16442e-07
1.24097e-07
-4.45816e-08
1.75778e-07
1.20683e-07
-5.35579e-08
2.68479e-07
1.31015e-07
-5.83617e-08
2.18242e-07
4.4542e-07
-5.66906e-08
1.70107e-07
5.27635e-07
-6.72785e-08
1.3387e-07
5.86484e-07
-8.67301e-08
1.03696e-07
6.33007e-07
-1.03515e-07
7.17686e-08
6.70569e-07
-1.10122e-07
3.80436e-08
6.96591e-07
-1.14774e-07
3.35458e-09
7.10097e-07
-1.17055e-07
-3.13493e-08
7.10658e-07
-1.17175e-07
-6.51241e-08
6.98263e-07
-1.15131e-07
-9.71557e-08
6.73317e-07
-1.10699e-07
-1.27487e-07
6.36712e-07
-1.04305e-07
-1.63909e-07
5.90916e-07
-8.7684e-08
-2.11975e-07
5.32208e-07
-6.84144e-08
-2.61169e-07
4.4941e-07
-5.80791e-08
-1.65546e-07
1.32925e-07
-6.01294e-08
-1.07098e-07
1.30364e-07
-5.5371e-08
-7.81394e-08
1.33029e-07
-4.67284e-08
-5.88919e-08
1.21517e-07
-3.83886e-08
-4.27133e-08
1.06526e-07
-3.21363e-08
-2.64273e-08
9.20431e-08
-2.80407e-08
-1.03643e-08
8.17818e-08
-2.48385e-08
1.46119e-09
7.54928e-08
-1.89594e-08
6.92455e-08
-4.78109e-09
7.2502e-10
4.34242e-08
-2.34454e-09
1.23649e-08
4.78702e-08
-1.3553e-08
2.79185e-08
5.22318e-08
-1.80619e-08
4.41566e-08
5.98995e-08
-2.00317e-08
6.03983e-08
7.2277e-08
-2.24942e-08
7.6284e-08
9.01542e-08
-2.65401e-08
9.10275e-08
1.13817e-07
-3.25993e-08
1.04237e-07
1.40446e-07
-4.17091e-08
1.16122e-07
1.64267e-07
-5.20548e-08
1.64146e-07
1.41044e-07
-6.83849e-08
3.81441e-07
-8.62801e-08
2.95758e-07
5.6298e-07
-3.18772e-08
2.30922e-07
6.27124e-07
-3.46527e-08
1.86936e-07
6.84264e-07
-5.37936e-08
1.47511e-07
7.44253e-07
-7.1821e-08
1.02334e-07
7.90655e-07
-7.49088e-08
5.37602e-08
8.23306e-07
-7.81414e-08
3.96184e-09
8.39727e-07
-7.9832e-08
-4.58608e-08
8.40407e-07
-7.99261e-08
-9.45239e-08
8.2535e-07
-7.84239e-08
-1.39917e-07
7.94063e-07
-7.5353e-08
-1.79745e-07
7.48999e-07
-7.24594e-08
-2.24486e-07
6.90219e-07
-5.45614e-08
-2.90501e-07
6.33815e-07
-3.55919e-08
-3.75999e-07
5.68242e-07
-3.33343e-08
-1.54047e-07
-8.90266e-08
-1.05516e-07
1.51568e-07
-6.97355e-08
-9.36792e-08
1.75254e-07
-5.4062e-08
-7.8157e-08
1.5086e-07
-4.48652e-08
-5.94227e-08
1.24778e-07
-3.69866e-08
-3.82498e-08
1.03028e-07
-3.21577e-08
-1.67826e-08
8.86128e-08
-2.82981e-08
-5.69504e-10
8.04269e-08
-2.11473e-08
7.31539e-08
-4.47798e-09
1.87048e-09
4.35222e-08
-1.96848e-09
1.65725e-08
4.80452e-08
-1.4877e-08
3.61399e-08
5.27907e-08
-2.01263e-08
5.71958e-08
6.13621e-08
-2.25185e-08
7.93077e-08
7.57191e-08
-2.5554e-08
1.01799e-07
9.79368e-08
-3.02735e-08
1.20985e-07
1.31531e-07
-3.68994e-08
1.25135e-07
1.80698e-07
-4.44033e-08
9.89179e-08
2.51496e-07
-6.10115e-08
3.39314e-07
-9.93522e-08
1.79613e-07
3.11403e-07
7.19633e-08
2.43471e-07
5.29434e-07
3.38321e-08
2.40219e-07
6.60889e-07
2.66275e-08
1.97356e-07
7.58667e-07
2.8449e-08
1.37712e-07
8.24666e-07
2.56336e-08
7.22872e-08
8.66519e-07
2.22115e-08
4.76509e-09
8.8661e-07
2.06397e-08
-6.27872e-08
8.87315e-07
2.06448e-08
-1.28323e-07
8.68663e-07
2.22235e-08
-1.88251e-07
8.28329e-07
2.56615e-08
-2.31777e-07
7.64027e-07
2.84982e-08
-2.36588e-07
6.68266e-07
2.67639e-08
-1.75608e-07
5.39143e-07
3.36911e-08
3.21913e-07
7.07209e-08
-9.59931e-08
3.44786e-07
-9.72251e-08
-1.17834e-07
2.59696e-07
-6.26019e-08
-1.08828e-07
1.89775e-07
-4.7921e-08
-8.38667e-08
1.41823e-07
-4.20071e-08
-5.438e-08
1.10463e-07
-3.69215e-08
-2.51928e-08
9.19427e-08
-3.25171e-08
-2.86566e-09
8.20576e-08
-2.39579e-08
7.43177e-08
-4.0294e-09
3.37653e-09
4.17347e-08
-1.58896e-09
2.17096e-08
4.60191e-08
-1.6307e-08
4.64466e-08
5.04204e-08
-2.23668e-08
7.48254e-08
5.82683e-08
-2.5285e-08
1.08557e-07
7.11407e-08
-2.91535e-08
1.51361e-07
9.03404e-08
-3.52077e-08
2.09146e-07
1.17355e-07
-4.36092e-08
2.89347e-07
1.52273e-07
-5.17752e-08
4.05434e-07
1.92106e-07
-5.66969e-08
5.58012e-07
2.30213e-07
-4.34769e-08
4.34894e-07
8.23802e-08
4.0738e-08
4.54332e-07
2.28009e-07
6.39556e-08
4.40472e-07
4.01459e-07
1.41836e-07
3.77636e-07
5.18597e-07
2.05128e-07
2.88646e-07
6.06894e-07
2.40763e-07
1.92983e-07
6.66148e-07
2.54181e-07
9.85556e-08
7.03414e-07
2.57533e-07
5.59246e-09
7.21353e-07
2.5822e-07
-8.73523e-08
7.21965e-07
2.58295e-07
-1.81721e-07
7.05268e-07
2.57763e-07
-2.77289e-07
6.69298e-07
2.54599e-07
-3.66158e-07
6.11424e-07
2.41472e-07
-4.28896e-07
5.2459e-07
2.06414e-07
-4.42245e-07
4.08655e-07
1.43837e-07
-4.23937e-07
2.3626e-07
6.73453e-08
-5.52798e-07
8.47462e-08
4.41147e-08
-4.00047e-07
2.34782e-07
-4.27463e-08
-2.80981e-07
1.99011e-07
-5.83802e-08
-1.96203e-07
1.6049e-07
-5.54937e-08
-1.31946e-07
1.27047e-07
-4.94807e-08
-8.0758e-08
1.02349e-07
-4.30744e-08
-3.80264e-08
8.6785e-08
-3.75739e-08
-6.86823e-09
7.8204e-08
-2.73046e-08
7.10356e-08
-3.58612e-09
4.60889e-09
3.83614e-08
-1.2356e-09
2.60552e-08
4.22165e-08
-1.76437e-08
5.50048e-08
4.59631e-08
-2.44921e-08
8.87142e-08
5.24747e-08
-2.79158e-08
1.296e-07
6.28099e-08
-3.25552e-08
1.82361e-07
7.74546e-08
-3.98748e-08
2.5336e-07
9.63644e-08
-5.00083e-08
3.48016e-07
1.1819e-07
-6.05743e-08
4.69163e-07
1.37977e-07
-6.70176e-08
6.06508e-07
1.51635e-07
-5.87677e-08
6.12936e-07
1.04617e-07
-2.86643e-08
6.20847e-07
1.88914e-07
3.11836e-08
5.69704e-07
2.94307e-07
1.58295e-07
4.71097e-07
3.75125e-07
2.42078e-07
3.53577e-07
4.38345e-07
2.86069e-07
2.33884e-07
4.81007e-07
3.04833e-07
1.18408e-07
5.08291e-07
3.10599e-07
6.23008e-09
5.21501e-07
3.12031e-07
-1.05913e-07
5.22004e-07
3.12105e-07
-2.2128e-07
5.09805e-07
3.10829e-07
-3.40794e-07
4.83547e-07
3.05266e-07
-4.58112e-07
4.41912e-07
2.8683e-07
-5.56713e-07
3.79687e-07
2.43505e-07
-6.08277e-07
2.99605e-07
1.60613e-07
-6.01704e-07
1.94593e-07
3.50951e-08
-5.99005e-07
1.08118e-07
-2.60715e-08
-4.62567e-07
1.56581e-07
-5.8237e-08
-3.39012e-07
1.44228e-07
-6.87723e-08
-2.39578e-07
1.25668e-07
-6.46116e-08
-1.61303e-07
1.05331e-07
-5.65585e-08
-9.88261e-08
8.86612e-08
-4.87889e-08
-4.721e-08
7.73611e-08
-4.21921e-08
-9.54609e-09
7.08226e-08
-3.02825e-08
6.46359e-08
-3.14643e-09
5.65848e-09
3.36174e-08
-9.14526e-10
2.97713e-08
3.69068e-08
-1.88032e-08
6.22351e-08
3.98406e-08
-2.63414e-08
1.00108e-07
4.4789e-08
-3.01876e-08
1.4599e-07
5.24085e-08
-3.54797e-08
2.04666e-07
6.2748e-08
-4.39698e-08
2.81787e-07
7.52737e-08
-5.60306e-08
3.81067e-07
8.89105e-08
-6.99998e-08
5.00224e-07
1.00121e-07
-8.13006e-08
6.23752e-07
1.09291e-07
-8.11844e-08
6.84409e-07
1.01803e-07
-5.78436e-08
7.11301e-07
1.49795e-07
1.22268e-08
6.4997e-07
2.11565e-07
1.44073e-07
5.34618e-07
2.63022e-07
2.27455e-07
3.98103e-07
3.04552e-07
2.70309e-07
2.61958e-07
3.32975e-07
2.84177e-07
1.3215e-07
3.51576e-07
2.86523e-07
6.74197e-09
3.607e-07
2.86209e-07
-1.18625e-07
3.61121e-07
2.86249e-07
-2.48308e-07
3.52836e-07
2.86652e-07
-3.84259e-07
3.35058e-07
2.8444e-07
-5.20599e-07
3.07418e-07
2.70834e-07
-6.36118e-07
2.6661e-07
2.28596e-07
-6.98296e-07
2.15676e-07
1.46107e-07
-6.73825e-07
1.54262e-07
1.58594e-08
-6.15802e-07
1.05644e-07
-5.55496e-08
-4.92671e-07
1.14001e-07
-8.05502e-08
-3.71154e-07
1.05742e-07
-8.30317e-08
-2.66859e-07
9.55973e-08
-7.42243e-08
-1.81793e-07
8.33333e-08
-6.30678e-08
-1.12281e-07
7.28153e-08
-5.3666e-08
-5.42463e-08
6.53459e-08
-4.60195e-08
-1.15585e-08
6.08337e-08
-3.26989e-08
5.57711e-08
-2.69376e-09
6.37042e-09
2.79127e-08
-6.65741e-10
3.24636e-08
3.05682e-08
-1.97545e-08
6.74303e-08
3.27312e-08
-2.78573e-08
1.07976e-07
3.62749e-08
-3.20317e-08
1.5659e-07
4.16092e-08
-3.78148e-08
2.17888e-07
4.8632e-08
-4.71815e-08
2.97014e-07
5.68177e-08
-6.06701e-08
3.97275e-07
6.55804e-08
-7.69309e-08
5.15395e-07
7.30882e-08
-9.10873e-08
6.37532e-07
8.13109e-08
-9.41568e-08
7.24295e-07
8.63395e-08
-7.12989e-08
7.63108e-07
1.1568e-07
-4.6975e-09
6.96868e-07
1.53039e-07
1.24766e-07
5.72737e-07
1.85446e-07
2.01708e-07
4.25897e-07
2.1221e-07
2.39182e-07
2.80092e-07
2.31053e-07
2.47726e-07
1.41229e-07
2.4362e-07
2.4682e-07
7.15739e-09
2.49898e-07
2.44873e-07
-1.2688e-07
2.50277e-07
2.44882e-07
-2.65639e-07
2.44746e-07
2.4685e-07
-4.11293e-07
2.32889e-07
2.47822e-07
-5.58034e-07
2.14692e-07
2.39467e-07
-6.82469e-07
1.88492e-07
2.02554e-07
-7.49788e-07
1.56496e-07
1.26498e-07
-7.13801e-07
1.19447e-07
-1.17169e-09
-6.29068e-07
9.00604e-08
-6.9149e-08
-5.07074e-07
8.56127e-08
-9.36056e-08
-3.86471e-07
7.80467e-08
-9.29086e-08
-2.80911e-07
7.1396e-08
-8.13581e-08
-1.93269e-07
6.37815e-08
-6.80905e-08
-1.20247e-07
5.72479e-08
-5.74541e-08
-5.84212e-08
5.25097e-08
-4.89899e-08
-1.25593e-08
4.9537e-08
-3.45653e-08
4.55889e-08
-2.37708e-09
6.8567e-09
2.1545e-08
-4.88999e-10
3.4391e-08
2.35334e-08
-2.04996e-08
7.11452e-08
2.50108e-08
-2.90338e-08
1.13492e-07
2.73741e-08
-3.34455e-08
1.63778e-07
3.08963e-08
-3.95733e-08
2.26472e-07
3.54869e-08
-4.95487e-08
3.06486e-07
4.0819e-08
-6.40156e-08
4.07144e-07
4.66884e-08
-8.1766e-08
5.25592e-07
5.23434e-08
-9.77039e-08
6.50061e-07
5.94757e-08
-1.02633e-07
7.49394e-07
6.7009e-08
-8.00028e-08
7.94601e-07
8.56632e-08
-1.51905e-08
7.2657e-07
1.08746e-07
1.12324e-07
5.97572e-07
1.29335e-07
1.85108e-07
4.4433e-07
1.46592e-07
2.1886e-07
2.92304e-07
1.59073e-07
2.24006e-07
1.4744e-07
1.67523e-07
2.20961e-07
7.53189e-09
1.71844e-07
2.17962e-07
-1.32354e-07
1.7221e-07
2.17954e-07
-2.77151e-07
1.68602e-07
2.2094e-07
-4.29089e-07
1.60816e-07
2.24011e-07
-5.82322e-07
1.48914e-07
2.19011e-07
-7.11745e-07
1.3213e-07
1.85784e-07
-7.81008e-07
1.11876e-07
1.13883e-07
-7.38736e-07
8.90376e-08
-1.18624e-08
-6.41172e-07
7.04564e-08
-7.79601e-08
-5.16674e-07
6.3283e-08
-1.02169e-07
-3.95572e-07
5.65841e-08
-9.96391e-08
-2.89341e-07
5.15415e-08
-8.63765e-08
-2.00348e-07
4.65215e-08
-7.17331e-08
-1.25263e-07
4.24056e-08
-6.02427e-08
-6.10173e-08
3.94606e-08
-5.11965e-08
-1.30874e-08
3.75734e-08
-3.59663e-08
3.46768e-08
-2.17525e-09
7.14213e-09
1.47919e-08
-3.88996e-10
3.56326e-08
1.60981e-08
-2.10551e-08
7.35621e-08
1.69743e-08
-2.9893e-08
1.17049e-07
1.835e-08
-3.44624e-08
1.68341e-07
2.04125e-08
-4.08087e-08
2.31848e-07
2.31384e-08
-5.11582e-08
3.12463e-07
2.64105e-08
-6.62068e-08
4.13707e-07
3.02345e-08
-8.47904e-08
5.33303e-07
3.44278e-08
-1.01681e-07
6.60304e-07
3.99715e-08
-1.07496e-07
7.65856e-07
4.66042e-08
-8.51475e-08
8.1459e-07
5.80702e-08
-2.11408e-08
7.45522e-07
7.1653e-08
1.06161e-07
6.13593e-07
8.39822e-08
1.77282e-07
4.56453e-07
9.43797e-08
2.09353e-07
3.00488e-07
1.02115e-07
2.12923e-07
1.51695e-07
1.0743e-07
2.08886e-07
7.89013e-09
1.1025e-07
2.05399e-07
-1.3591e-07
1.10625e-07
2.05385e-07
-2.84687e-07
1.08534e-07
2.08846e-07
-4.40646e-07
1.0388e-07
2.12895e-07
-5.97886e-07
9.66998e-08
2.09454e-07
-7.30361e-07
8.67167e-08
1.77889e-07
-8.00769e-07
7.46477e-08
1.07636e-07
-7.55023e-07
6.11957e-08
-1.79042e-08
-6.51113e-07
4.97506e-08
-8.32041e-08
-5.2396e-07
4.32693e-08
-1.0714e-07
-4.01563e-07
3.7935e-08
-1.03748e-07
-2.94525e-07
3.408e-08
-8.9576e-08
-2.04592e-07
3.07571e-08
-7.41687e-08
-1.28232e-07
2.82183e-08
-6.21728e-08
-6.24902e-08
2.64805e-08
-5.27615e-08
-1.3295e-08
2.53679e-08
-3.69897e-08
2.3479e-08
-2.09723e-09
7.28725e-09
7.86137e-09
-3.56724e-10
3.63397e-08
8.47887e-09
-2.14332e-08
7.49693e-08
8.79928e-09
-3.04546e-08
1.19146e-07
9.28746e-09
-3.51145e-08
1.71078e-07
1.00629e-08
-4.1582e-08
2.35169e-07
1.11818e-08
-5.21346e-08
3.16355e-07
1.27173e-08
-6.74922e-08
4.18295e-07
1.47938e-08
-8.64997e-08
5.39026e-07
1.75562e-08
-1.0386e-07
6.6782e-07
2.12555e-08
-1.10077e-07
7.76357e-07
2.59039e-08
-8.78373e-08
8.26765e-07
3.15789e-08
-2.39168e-08
7.57094e-07
3.74989e-08
1.03826e-07
6.2345e-07
4.29561e-08
1.7467e-07
4.64025e-07
4.7528e-08
2.06276e-07
3.05683e-07
5.11243e-08
2.09334e-07
1.5448e-07
5.3675e-08
2.04957e-07
8.25643e-09
5.51742e-08
2.013e-07
-1.37985e-07
5.55818e-08
2.01285e-07
-2.89238e-07
5.48731e-08
2.04913e-07
-4.47679e-07
5.30247e-08
2.09297e-07
-6.07339e-07
4.99962e-08
2.06363e-07
-7.41674e-07
4.58011e-08
1.75251e-07
-8.1281e-07
4.05254e-08
1.05259e-07
-7.65446e-07
3.4587e-08
-2.07555e-08
-6.58494e-07
2.87885e-08
-8.59899e-08
-5.2947e-07
2.40795e-08
-1.09835e-07
-4.05831e-07
2.03576e-08
-1.06061e-07
-2.97945e-07
1.76398e-08
-9.14455e-08
-2.07225e-07
1.56901e-08
-7.56531e-08
-1.29998e-07
1.43821e-08
-6.33907e-08
-6.33279e-08
1.35883e-08
-5.3778e-08
-1.33824e-08
1.31066e-08
-3.76841e-08
1.22034e-08
-2.10679e-09
7.31094e-09
9.40455e-10
-3.90025e-10
3.65655e-08
8.67368e-10
-2.16431e-08
7.54666e-08
6.31225e-10
-3.0733e-08
1.19948e-07
2.2966e-10
-3.54234e-08
1.72228e-07
-2.88513e-10
-4.19289e-08
2.36745e-07
-7.92622e-10
-5.25428e-08
3.18476e-07
-1.02352e-09
-6.79904e-08
4.21118e-07
-7.34169e-10
-8.71133e-08
5.42721e-07
5.5186e-10
-1.04599e-07
6.72426e-07
2.47427e-09
-1.10924e-07
7.81739e-07
5.31641e-09
-8.87248e-08
8.32386e-07
5.65412e-09
-2.47229e-08
7.62335e-07
4.10408e-09
1.03447e-07
6.27921e-07
2.78841e-09
1.74581e-07
4.6756e-07
1.56224e-09
2.06327e-07
3.08205e-07
1.04396e-09
2.09436e-07
1.55958e-07
8.50125e-10
2.05072e-07
8.65266e-09
1.06986e-09
2.01409e-07
-1.38697e-07
1.5409e-09
2.0139e-07
-2.91078e-07
2.23951e-09
2.05015e-07
-4.50669e-07
3.23337e-09
2.09383e-07
-6.11443e-07
4.37567e-09
2.06394e-07
-7.46738e-07
5.96523e-09
1.75131e-07
-8.18424e-07
7.38367e-09
1.04828e-07
-7.709e-07
8.71955e-09
-2.16567e-08
-6.63158e-07
8.03938e-09
-8.69936e-08
-5.33178e-07
4.91428e-09
-1.10815e-07
-4.08616e-07
2.74195e-09
-1.06946e-07
-2.99951e-07
1.18688e-09
-9.2212e-08
-2.0859e-07
6.43853e-10
-7.63151e-08
-1.30822e-07
5.90438e-10
-6.3976e-08
-6.36855e-08
7.50817e-10
-5.42992e-08
-1.34049e-08
9.04594e-10
-3.80786e-08
9.9294e-10
-2.19449e-09
7.21386e-09
-5.78249e-09
-4.90919e-10
3.63095e-08
-6.54142e-09
-2.16869e-08
7.50518e-08
-7.37895e-09
-3.07322e-08
1.19446e-07
-8.76911e-09
-3.53949e-08
1.71775e-07
-1.07597e-08
-4.18587e-08
2.36551e-07
-1.31703e-08
-5.23975e-08
3.18802e-07
-1.55497e-08
-6.77251e-08
4.22178e-07
-1.74403e-08
-8.66698e-08
5.44409e-07
-1.77268e-08
-1.03952e-07
6.74268e-07
-1.72829e-08
-1.10102e-07
7.82273e-07
-1.47791e-08
-8.79099e-08
8.3166e-07
-1.99785e-08
-2.37541e-08
7.61375e-07
-3.03476e-08
1.04737e-07
6.27094e-07
-3.95482e-08
1.76617e-07
4.67119e-07
-4.74657e-08
2.09003e-07
3.08101e-07
-5.2586e-08
2.12648e-07
1.56143e-07
-5.57861e-08
2.08594e-07
9.0938e-09
-5.69752e-08
2.05094e-07
-1.38036e-07
-5.64118e-08
2.05082e-07
-2.90227e-07
-5.41263e-08
2.08558e-07
-4.49638e-07
-4.99635e-08
2.12608e-07
-6.10248e-07
-4.40727e-08
2.09057e-07
-7.45657e-07
-3.57375e-08
1.77112e-07
-8.17822e-07
-2.64693e-08
1.06018e-07
-7.71699e-07
-1.65557e-08
-2.08477e-08
-6.65276e-07
-1.20385e-08
-8.63453e-08
-5.35123e-07
-1.50709e-08
-1.10167e-07
-4.09895e-07
-1.60197e-08
-1.06466e-07
-3.00519e-07
-1.62641e-08
-9.19253e-08
-2.08678e-07
-1.5007e-08
-7.61906e-08
-1.307e-07
-1.34346e-08
-6.39525e-08
-6.35588e-08
-1.20499e-08
-5.43404e-08
-1.33595e-08
-1.11115e-08
-3.81833e-08
-1.00027e-08
-2.36389e-09
6.97691e-09
-1.20929e-08
-6.6653e-10
3.55199e-08
-1.3523e-08
-2.15614e-08
7.36244e-08
-1.50375e-08
-3.04459e-08
1.17467e-07
-1.75933e-08
-3.50186e-08
1.6945e-07
-2.13911e-08
-4.1351e-08
2.34208e-07
-2.62712e-08
-5.16573e-08
3.16899e-07
-3.16275e-08
-6.6613e-08
4.2112e-07
-3.66609e-08
-8.50013e-08
5.44156e-07
-3.91234e-08
-1.01639e-07
6.73828e-07
-3.97638e-08
-1.07191e-07
7.77714e-07
-3.37658e-08
-8.48996e-08
8.23612e-07
-4.57021e-08
-2.01742e-08
7.53242e-07
-6.89862e-08
1.09009e-07
6.20205e-07
-8.92683e-08
1.82757e-07
4.6222e-07
-1.06326e-07
2.16845e-07
3.05103e-07
-1.17473e-07
2.22004e-07
1.54968e-07
-1.24504e-07
2.18853e-07
9.63499e-09
-1.27411e-07
2.15769e-07
-1.35817e-07
-1.26692e-07
2.15731e-07
-2.86309e-07
-1.22372e-07
2.18738e-07
-4.44028e-07
-1.14079e-07
2.21834e-07
-6.02951e-07
-1.01872e-07
2.16722e-07
-7.3747e-07
-8.42439e-08
1.83026e-07
-8.10096e-07
-6.3872e-08
1.10028e-07
-7.67653e-07
-4.14346e-08
-1.75641e-08
-6.6533e-07
-3.07634e-08
-8.35976e-08
-5.35346e-07
-3.75295e-08
-1.07526e-07
-4.09353e-07
-3.76182e-08
-1.04394e-07
-2.99214e-07
-3.59538e-08
-9.045e-08
-2.07088e-07
-3.19246e-08
-7.52076e-08
-1.29349e-07
-2.78941e-08
-6.328e-08
-6.27878e-08
-2.47328e-08
-5.3878e-08
-1.31856e-08
-2.27243e-08
-3.79894e-08
-2.0554e-08
-2.63424e-09
6.54244e-09
-1.77075e-08
-9.2781e-10
3.40525e-08
-1.97722e-08
-2.12608e-08
7.0906e-08
-2.2027e-08
-2.9864e-08
1.13518e-07
-2.59304e-08
-3.42749e-08
1.64436e-07
-3.19467e-08
-4.03622e-08
2.28502e-07
-4.01159e-08
-5.02219e-08
3.11228e-07
-4.99113e-08
-6.44414e-08
4.16447e-07
-6.02097e-08
-8.16701e-08
5.41346e-07
-6.71147e-08
-9.69084e-08
6.7186e-07
-6.9305e-08
-1.00973e-07
7.66541e-07
-4.97191e-08
-7.8727e-08
8.05095e-07
-7.13267e-08
-1.29293e-08
7.34732e-07
-1.1653e-07
1.17907e-07
6.04694e-07
-1.54641e-07
1.95411e-07
4.51199e-07
-1.85666e-07
2.32835e-07
2.98283e-07
-2.05623e-07
2.41066e-07
1.52026e-07
-2.18035e-07
2.39788e-07
1.03205e-08
-2.23289e-07
2.37584e-07
-1.31545e-07
-2.22319e-07
2.37493e-07
-2.78296e-07
-2.1513e-07
2.39508e-07
-4.32056e-07
-2.00935e-07
2.40617e-07
-5.86882e-07
-1.79368e-07
2.32323e-07
-7.18895e-07
-1.47431e-07
1.952e-07
-7.92128e-07
-1.09056e-07
1.18417e-07
-7.57351e-07
-6.53747e-08
-1.08363e-08
-6.64072e-07
-4.62034e-08
-7.78395e-08
-5.33202e-07
-6.66532e-08
-1.01746e-07
-4.05424e-07
-6.53617e-08
-1.00035e-07
-2.94459e-07
-5.95312e-08
-8.73874e-08
-2.02588e-07
-5.0622e-08
-7.31735e-08
-1.25946e-07
-4.26792e-08
-6.18574e-08
-6.09032e-08
-3.69238e-08
-5.28515e-08
-1.2689e-08
-3.34686e-08
-3.74699e-08
-3.01941e-08
-3.049e-09
5.89913e-09
-2.23373e-08
-1.26932e-09
3.18632e-08
-2.49595e-08
-2.07767e-08
6.67746e-08
-2.7962e-08
-2.89764e-08
1.0729e-07
-3.3299e-08
-3.31468e-08
1.56041e-07
-4.18345e-08
-3.88632e-08
2.1805e-07
-5.40817e-08
-4.80432e-08
2.99385e-07
-7.01106e-08
-6.11357e-08
4.04595e-07
-8.89073e-08
-7.65123e-08
5.32539e-07
-1.05618e-07
-8.94411e-08
6.68977e-07
-1.14661e-07
-9.1082e-08
7.44312e-07
-5.71245e-08
-6.79289e-08
7.67669e-07
-9.47253e-08
4.12182e-11
6.99754e-07
-1.80388e-07
1.31773e-07
5.76669e-07
-2.45745e-07
2.14189e-07
4.31578e-07
-2.96563e-07
2.55988e-07
2.862e-07
-3.2901e-07
2.68765e-07
1.46702e-07
-3.48706e-07
2.70169e-07
1.1247e-08
-3.57091e-07
2.69256e-07
-1.244e-07
-3.5574e-07
2.69068e-07
-2.64516e-07
-3.44608e-07
2.69594e-07
-4.10992e-07
-3.22274e-07
2.67815e-07
-5.57924e-07
-2.87233e-07
2.54797e-07
-6.83691e-07
-2.34833e-07
2.1317e-07
-7.55552e-07
-1.68674e-07
1.31479e-07
-7.36607e-07
-8.58386e-08
1.5187e-09
-6.6205e-07
-5.31394e-08
-6.76208e-08
-5.25213e-07
-1.1091e-07
-9.25801e-08
-3.94551e-07
-1.02882e-07
-9.31419e-08
-2.8385e-07
-8.76262e-08
-8.26063e-08
-1.93768e-07
-7.06941e-08
-7.00096e-08
-1.19753e-07
-5.70887e-08
-5.96054e-08
-5.75629e-08
-4.79323e-08
-5.1182e-08
-1.17667e-08
-4.27016e-08
-3.65633e-08
-3.83634e-08
-3.59739e-09
4.94073e-09
-2.55849e-08
-1.69313e-09
2.87132e-08
-2.86152e-08
-2.01167e-08
6.07166e-08
-3.21629e-08
-2.78025e-08
9.76767e-08
-3.86074e-08
-3.16517e-08
1.41984e-07
-4.9288e-08
-3.68536e-08
1.98493e-07
-6.55079e-08
-4.50827e-08
2.73852e-07
-8.88896e-08
-5.65805e-08
3.74355e-07
-1.20391e-07
-6.90192e-08
5.04815e-07
-1.58297e-07
-7.77825e-08
6.63551e-07
-2.01602e-07
-7.17946e-08
6.99939e-07
-5.00651e-08
-4.34473e-08
6.91674e-07
-1.01047e-07
1.45873e-08
6.32199e-07
-2.61327e-07
1.40414e-07