/*--------------------------------*- C++ -*----------------------------------*\
| =========                 |                                                 |
| \\      /  F ield         | OpenFOAM: The Open Source CFD Toolbox           |
|  \\    /   O peration     | Version:  2112                                  |
|   \\  /    A nd           | Website:  www.openfoam.com                      |
|    \\/     M anipulation  |                                                 |
\*---------------------------------------------------------------------------*/
FoamFile
{
    version     2.0;
    format      ascii;
    arch        "LSB;label=32;scalar=64";
    class       volVectorField;
    location    "2.1";
    object      U;
}
// * * * * * * * * * * * * * * * * * * * * * * * * * * * * * * * * * * * * * //

dimensions      [0 1 -1 0 0 0 0];

internalField   nonuniform List<vector> 
64906
(
(3.37267e-07 1.15528e-06 -1.91142e-06)
(2.68629e-06 -7.46007e-08 -1.95951e-06)
(6.27804e-06 -1.19004e-06 -1.49757e-06)
(1.00329e-05 -2.05333e-06 -1.01337e-06)
(1.38029e-05 -2.56294e-06 -6.84613e-07)
(1.74702e-05 -2.829e-06 -4.85993e-07)
(2.10082e-05 -2.94993e-06 -3.55759e-07)
(2.43364e-05 -2.94612e-06 -2.38394e-07)
(2.73495e-05 -2.85238e-06 -1.21582e-07)
(2.97058e-05 -2.57858e-06 2.76901e-08)
(3.11386e-05 -2.20789e-06 1.84762e-07)
(3.11324e-05 -1.5747e-06 3.78795e-07)
(2.95272e-05 -1.1054e-06 5.77561e-07)
(2.65781e-05 -6.76495e-07 8.0322e-07)
(2.24426e-05 -4.08854e-07 1.00162e-06)
(1.74548e-05 -2.10259e-07 1.16906e-06)
(1.18343e-05 -1.02125e-07 1.28271e-06)
(5.86519e-06 -5.44739e-08 1.34076e-06)
(-2.15027e-07 -6.92097e-08 1.33839e-06)
(-6.14214e-06 -1.46255e-07 1.27614e-06)
(-1.16788e-05 -2.8371e-07 1.15884e-06)
(-1.65427e-05 -5.11495e-07 9.88451e-07)
(-2.05192e-05 -8.06725e-07 7.88294e-07)
(-2.32772e-05 -1.26212e-06 5.61427e-07)
(-2.46706e-05 -1.75184e-06 3.61804e-07)
(-2.44493e-05 -2.40086e-06 1.63426e-07)
(-2.27869e-05 -2.76585e-06 -5.69537e-09)
(-2.02062e-05 -3.00535e-06 -1.87477e-07)
(-1.69659e-05 -2.98655e-06 -3.79028e-07)
(-1.34037e-05 -2.72346e-06 -6.58361e-07)
(-9.63985e-06 -2.08315e-06 -1.11266e-06)
(-5.89799e-06 -9.6333e-07 -1.8062e-06)
(-2.40816e-06 4.86511e-07 -2.51256e-06)
(-9.37122e-08 1.92119e-06 -2.57156e-06)
(-1.49174e-06 5.96717e-06 -2.58028e-06)
(2.36218e-07 5.00467e-06 -6.37452e-06)
(5.00366e-06 3.83356e-06 -7.41511e-06)
(9.56486e-06 3.00538e-06 -7.5752e-06)
(1.39356e-05 2.80226e-06 -7.78518e-06)
(1.80043e-05 3.14591e-06 -8.25401e-06)
(2.18614e-05 3.95148e-06 -9.00329e-06)
(2.54694e-05 5.24888e-06 -1.00229e-05)
(2.87978e-05 7.07498e-06 -1.12965e-05)
(3.14504e-05 9.68192e-06 -1.28197e-05)
(3.31891e-05 1.28825e-05 -1.45593e-05)
(3.32446e-05 1.69355e-05 -1.64337e-05)
(3.14377e-05 2.04948e-05 -1.82157e-05)
(2.82306e-05 2.36834e-05 -1.97864e-05)
(2.37566e-05 2.61174e-05 -2.1084e-05)
(1.84429e-05 2.79773e-05 -2.20866e-05)
(1.24689e-05 2.91882e-05 -2.27746e-05)
(6.15073e-06 2.98022e-05 -2.31403e-05)
(-2.85515e-07 2.9808e-05 -2.31766e-05)
(-6.55685e-06 2.9206e-05 -2.28834e-05)
(-1.24382e-05 2.80087e-05 -2.22679e-05)
(-1.76146e-05 2.61652e-05 -2.13387e-05)
(-2.19125e-05 2.37558e-05 -2.0116e-05)
(-2.49061e-05 2.0602e-05 -1.86241e-05)
(-2.64763e-05 1.71032e-05 -1.69286e-05)
(-2.61589e-05 1.31352e-05 -1.51556e-05)
(-2.41417e-05 1.00842e-05 -1.35443e-05)
(-2.11793e-05 7.69131e-06 -1.21949e-05)
(-1.74513e-05 6.22722e-06 -1.11718e-05)
(-1.33102e-05 5.54545e-06 -1.05125e-05)
(-8.72599e-06 5.73929e-06 -1.0194e-05)
(-3.89338e-06 6.81058e-06 -9.94679e-06)
(1.09278e-06 8.30079e-06 -8.60229e-06)
(2.42069e-06 9.26749e-06 -3.60616e-06)
(-2.62506e-06 1.43052e-05 -2.40488e-06)
(-1.31658e-06 1.51589e-05 -7.62378e-06)
(4.23383e-06 1.51281e-05 -9.25076e-06)
(9.52236e-06 1.54586e-05 -9.71496e-06)
(1.45652e-05 1.66126e-05 -1.01643e-05)
(1.92227e-05 1.86419e-05 -1.08964e-05)
(2.36873e-05 2.15861e-05 -1.19891e-05)
(2.79981e-05 2.56308e-05 -1.34638e-05)
(3.22555e-05 3.0994e-05 -1.53318e-05)
(3.58782e-05 3.82707e-05 -1.76091e-05)
(3.8605e-05 4.71201e-05 -2.02416e-05)
(3.88963e-05 5.80311e-05 -2.31011e-05)
(3.64936e-05 6.77282e-05 -2.58307e-05)
(3.24854e-05 7.6378e-05 -2.82372e-05)
(2.70465e-05 8.31179e-05 -3.02216e-05)
(2.08172e-05 8.8309e-05 -3.17485e-05)
(1.38969e-05 9.17543e-05 -3.27907e-05)
(6.65161e-06 9.35304e-05 -3.33414e-05)
(-7.21444e-07 9.35977e-05 -3.33895e-05)
(-7.91691e-06 9.19567e-05 -3.29351e-05)
(-1.47386e-05 8.86505e-05 -3.1989e-05)
(-2.08188e-05 8.36045e-05 -3.05592e-05)
(-2.60639e-05 7.70279e-05 -2.86734e-05)
(-2.98288e-05 6.85645e-05 -2.63708e-05)
(-3.19562e-05 5.91108e-05 -2.37548e-05)
(-3.13436e-05 4.84941e-05 -2.10291e-05)
(-2.82652e-05 4.00651e-05 -1.8564e-05)
(-2.42322e-05 3.32885e-05 -1.6508e-05)
(-1.93956e-05 2.85997e-05 -1.4941e-05)
(-1.42526e-05 2.54801e-05 -1.38622e-05)
(-8.61336e-06 2.38087e-05 -1.3176e-05)
(-2.73679e-06 2.33358e-05 -1.24905e-05)
(3.29323e-06 2.33227e-05 -1.03636e-05)
(3.98335e-06 2.19154e-05 -3.47817e-06)
(-3.27495e-06 2.29202e-05 -2.00156e-06)
(-2.0083e-06 2.49372e-05 -7.7334e-06)
(4.38824e-06 2.57953e-05 -9.53302e-06)
(1.0598e-05 2.72132e-05 -1.00409e-05)
(1.66203e-05 2.97435e-05 -1.0535e-05)
(2.22828e-05 3.35136e-05 -1.13594e-05)
(2.79134e-05 3.86677e-05 -1.2624e-05)
(3.36618e-05 4.56023e-05 -1.43822e-05)
(3.98832e-05 5.48024e-05 -1.66633e-05)
(4.56458e-05 6.75281e-05 -1.95146e-05)
(5.06565e-05 8.33856e-05 -2.28515e-05)
(5.1458e-05 0.00010365 -2.65577e-05)
(4.76017e-05 0.000121097 -3.00751e-05)
(4.17674e-05 0.000136373 -3.3154e-05)
(3.42213e-05 0.000148065 -3.5673e-05)
(2.60112e-05 0.00015707 -3.7583e-05)
(1.70356e-05 0.000163041 -3.88728e-05)
(7.76091e-06 0.000166131 -3.95489e-05)
(-1.66661e-06 0.000166262 -3.96005e-05)
(-1.08889e-05 0.000163433 -3.9027e-05)
(-1.97601e-05 0.000157727 -3.7839e-05)
(-2.78067e-05 0.00014899 -3.60305e-05)
(-3.51349e-05 0.00013759 -3.36129e-05)
(-4.06786e-05 0.000122634 -3.06391e-05)
(-4.41978e-05 0.000105596 -2.72355e-05)
(-4.29728e-05 8.58099e-05 -2.3665e-05)
(-3.75002e-05 7.06452e-05 -2.05027e-05)
(-3.12054e-05 5.86771e-05 -1.78883e-05)
(-2.41979e-05 5.043e-05 -1.59328e-05)
(-1.73177e-05 4.47078e-05 -1.46036e-05)
(-1.01213e-05 4.11164e-05 -1.37727e-05)
(-2.91575e-06 3.91813e-05 -1.29827e-05)
(4.25965e-06 3.80158e-05 -1.06211e-05)
(4.87833e-06 3.50727e-05 -3.02801e-06)
(-3.56272e-06 3.14782e-05 -1.62494e-06)
(-1.93733e-06 3.44169e-05 -7.79266e-06)
(5.64873e-06 3.60989e-05 -9.73235e-06)
(1.30951e-05 3.8641e-05 -1.02525e-05)
(2.0454e-05 4.26568e-05 -1.07943e-05)
(2.75644e-05 4.83e-05 -1.1758e-05)
(3.49749e-05 5.57913e-05 -1.32908e-05)
(4.30493e-05 6.57621e-05 -1.54964e-05)
(5.2693e-05 7.91387e-05 -1.84159e-05)
(6.24504e-05 9.84279e-05 -2.21525e-05)
(7.22042e-05 0.000123672 -2.65438e-05)
(7.39903e-05 0.000158426 -3.16425e-05)
(6.69381e-05 0.00018668 -3.64111e-05)
(5.76176e-05 0.000210705 -4.05971e-05)
(4.63491e-05 0.000228553 -4.40135e-05)
(3.48001e-05 0.000242334 -4.65273e-05)
(2.23528e-05 0.000251445 -4.82009e-05)
(9.65228e-06 0.000256173 -4.90692e-05)
(-3.25245e-06 0.000256374 -4.91251e-05)
(-1.58998e-05 0.000252046 -4.83677e-05)
(-2.82407e-05 0.000243334 -4.68028e-05)
(-3.96141e-05 0.000229945 -4.43956e-05)
(-5.06405e-05 0.000212505 -4.10818e-05)
(-5.96085e-05 0.000188908 -3.69991e-05)
(-6.6241e-05 0.000161202 -3.23395e-05)
(-6.38702e-05 0.000127072 -2.73726e-05)
(-5.35086e-05 0.000102836 -2.31609e-05)
(-4.3111e-05 8.45387e-05 -1.96764e-05)
(-3.24731e-05 7.23562e-05 -1.71124e-05)
(-2.29692e-05 6.38458e-05 -1.53874e-05)
(-1.35955e-05 5.82201e-05 -1.4354e-05)
(-4.59056e-06 5.48043e-05 -1.34684e-05)
(4.22237e-06 5.25827e-05 -1.08761e-05)
(5.31672e-06 4.84003e-05 -2.6108e-06)
(-3.67398e-06 3.95299e-05 -1.31367e-06)
(-1.31447e-06 4.31964e-05 -8.0252e-06)
(7.94098e-06 4.56251e-05 -1.01678e-05)
(1.70386e-05 4.9297e-05 -1.07329e-05)
(2.61434e-05 5.48832e-05 -1.13795e-05)
(3.51417e-05 6.25049e-05 -1.25892e-05)
(4.49069e-05 7.23863e-05 -1.45605e-05)
(5.62035e-05 8.53211e-05 -1.74696e-05)
(7.10741e-05 0.00010285 -2.13273e-05)
(8.76222e-05 0.00012968 -2.62951e-05)
(0.000106996 0.00016737 -3.18195e-05)
(0.000110785 0.000226437 -3.89054e-05)
(9.70659e-05 0.00027003 -4.55094e-05)
(8.17185e-05 0.000305409 -5.15101e-05)
(6.45949e-05 0.000330691 -5.64572e-05)
(4.80901e-05 0.000350356 -5.98809e-05)
(3.0402e-05 0.000363316 -6.21176e-05)
(1.25221e-05 0.000370068 -6.32644e-05)
(-5.66318e-06 0.000370352 -6.33287e-05)
(-2.34949e-05 0.00036416 -6.23092e-05)
(-4.10869e-05 0.000351746 -6.01953e-05)
(-5.74193e-05 0.000332596 -5.68901e-05)
(-7.42956e-05 0.000307823 -5.20515e-05)
(-8.92286e-05 0.000272932 -4.6155e-05)
(-0.000102439 0.00022998 -3.96567e-05)
(-9.78021e-05 0.000171599 -3.26904e-05)
(-7.76234e-05 0.000135368 -2.73531e-05)
(-6.03849e-05 0.000109741 -2.26558e-05)
(-4.4308e-05 9.36031e-05 -1.91932e-05)
(-3.125e-05 8.23408e-05 -1.6833e-05)
(-1.90292e-05 7.46518e-05 -1.54507e-05)
(-7.63609e-06 6.97588e-05 -1.43783e-05)
(3.48971e-06 6.65698e-05 -1.14256e-05)
(5.55954e-06 6.13653e-05 -2.28293e-06)
(-3.69606e-06 4.68782e-05 -1.02117e-06)
(-2.54667e-07 5.11943e-05 -8.44364e-06)
(1.12421e-05 5.43992e-05 -1.08854e-05)
(2.249e-05 5.93336e-05 -1.1548e-05)
(3.38035e-05 6.67453e-05 -1.23707e-05)
(4.51074e-05 7.66515e-05 -1.3946e-05)
(5.76486e-05 8.91108e-05 -1.65366e-05)
(7.28109e-05 0.00010465 -2.04142e-05)
(9.47876e-05 0.000125296 -2.54814e-05)
(0.000121679 0.000158234 -3.18024e-05)
(0.000160392 0.000210643 -3.79e-05)
(0.000168515 0.000312274 -4.73786e-05)
(0.000140608 0.000377126 -5.60372e-05)
(0.000115431 0.000427157 -6.4722e-05)
(8.9893e-05 0.000461792 -7.20964e-05)
(6.66993e-05 0.000489242 -7.65935e-05)
(4.16941e-05 0.000507362 -7.95071e-05)
(1.65625e-05 0.000516838 -8.09821e-05)
(-9.06179e-06 0.000517226 -8.10595e-05)
(-3.41605e-05 0.000508513 -7.97376e-05)
(-5.9104e-05 0.000491124 -7.69699e-05)
(-8.21641e-05 0.000464333 -7.26118e-05)
(-0.000107501 0.000430294 -6.53567e-05)
(-0.000132229 0.00038074 -5.67827e-05)
(-0.000159582 0.000316514 -4.8233e-05)
(-0.000150137 0.000215429 -3.88512e-05)
(-0.000110328 0.000165298 -3.29591e-05)
(-8.28703e-05 0.000133697 -2.69213e-05)
(-5.94691e-05 0.00011456 -2.22957e-05)
(-4.2139e-05 0.000100843 -1.90474e-05)
(-2.64811e-05 9.08965e-05 -1.71504e-05)
(-1.20437e-05 8.42873e-05 -1.5767e-05)
(2.20364e-06 7.99958e-05 -1.22848e-05)
(5.72042e-06 7.37982e-05 -1.9776e-06)
(-3.63896e-06 5.32484e-05 -7.02528e-07)
(1.27319e-06 5.81607e-05 -9.01575e-06)
(1.57153e-05 6.22009e-05 -1.18616e-05)
(2.9772e-05 6.85771e-05 -1.26753e-05)
(4.39139e-05 7.81504e-05 -1.37477e-05)
(5.79839e-05 9.07707e-05 -1.58134e-05)
(7.33204e-05 0.000106074 -1.92131e-05)
(9.18677e-05 0.000123486 -2.43682e-05)
(0.000120341 0.000144294 -3.08567e-05)
(0.000159813 0.00017971 -3.9055e-05)
(0.00023737 0.000243016 -4.09584e-05)
(0.000256134 0.000423756 -5.10827e-05)
(0.00020004 0.000513318 -6.23881e-05)
(0.000161499 0.000578192 -7.55686e-05)
(0.000125165 0.00062259 -8.68327e-05)
(9.32453e-05 0.000658379 -9.23478e-05)
(5.79043e-05 0.000682227 -9.59095e-05)
(2.23685e-05 0.000694773 -9.76859e-05)
(-1.39766e-05 0.000695298 -9.77791e-05)
(-4.95083e-05 0.000683781 -9.6187e-05)
(-8.48581e-05 0.000660911 -9.27998e-05)
(-0.000116749 0.00062597 -8.74527e-05)
(-0.000153044 0.000582255 -7.6325e-05)
(-0.000191225 0.000517744 -6.32732e-05)
(-0.000246922 0.000428694 -5.21257e-05)
(-0.000225885 0.000247947 -4.20079e-05)
(-0.00014676 0.000188682 -4.03157e-05)
(-0.000107277 0.00015444 -3.24165e-05)
(-7.70849e-05 0.000135066 -2.64395e-05)
(-5.58307e-05 0.000119463 -2.20145e-05)
(-3.64815e-05 0.000106899 -1.94339e-05)
(-1.82353e-05 9.81379e-05 -1.76119e-05)
(1.97211e-07 9.24753e-05 -1.34028e-05)
(5.77321e-06 8.53097e-05 -1.60372e-06)
(-3.4894e-06 5.82905e-05 -3.29802e-07)
(3.30808e-06 6.39418e-05 -9.73047e-06)
(2.14681e-05 6.89327e-05 -1.30827e-05)
(3.91355e-05 7.71583e-05 -1.40909e-05)
(5.69345e-05 8.97493e-05 -1.54657e-05)
(7.443e-05 0.000106566 -1.80913e-05)
(9.24339e-05 0.000126839 -2.24096e-05)
(0.000112366 0.000147098 -2.90097e-05)
(0.000144532 0.000166816 -3.7933e-05)
(0.000189012 0.000191064 -4.68085e-05)
(0.000339413 0.000208395 -5.13011e-05)
(0.000384095 0.000542762 -4.89644e-05)
(0.000268959 0.000665795 -6.00365e-05)
(0.000217646 0.000750716 -7.96777e-05)
(0.000170153 0.000810359 -9.59179e-05)
(0.000127628 0.000859546 -0.000102012)
(7.91357e-05 0.000892608 -0.000106427)
(3.00255e-05 0.000909816 -0.00010854)
(-2.03926e-05 0.000910518 -0.000108645)
(-6.95416e-05 0.000894692 -0.000106739)
(-0.000118151 0.000862961 -0.000102517)
(-0.000160841 0.00081493 -9.66105e-05)
(-0.000208661 0.000756166 -8.05131e-05)
(-0.000259877 0.000671538 -6.10382e-05)
(-0.000375356 0.000548607 -5.01781e-05)
(-0.000326491 0.000211636 -5.28032e-05)
(-0.000173844 0.000201551 -4.82984e-05)
(-0.000130971 0.000178428 -3.96198e-05)
(-9.64931e-05 0.000160084 -3.13165e-05)
(-7.30963e-05 0.00014151 -2.55727e-05)
(-4.98644e-05 0.000124116 -2.22337e-05)
(-2.67629e-05 0.000111704 -1.99126e-05)
(-2.75999e-06 0.000103896 -1.47797e-05)
(5.68915e-06 9.54522e-05 -1.12925e-06)
(-3.00313e-06 6.1593e-05 2.13591e-07)
(6.19418e-06 6.7868e-05 -1.06457e-05)
(2.89917e-05 7.37316e-05 -1.4548e-05)
(5.17204e-05 8.38e-05 -1.57849e-05)
(7.51116e-05 9.96323e-05 -1.75163e-05)
(9.85082e-05 0.000121484 -2.0763e-05)
(0.000120635 0.000148338 -2.59862e-05)
(0.000142077 0.000173506 -3.47532e-05)
(0.000165887 0.000184321 -4.51011e-05)
(0.000136225 0.000119032 -6.57277e-05)
(0.000410501 0.000200378 -7.09919e-05)
(0.000560365 0.000789416 -2.65684e-05)
(0.000353523 0.000865591 -3.39679e-05)
(0.000300754 0.00093178 -5.59815e-05)
(0.0002413 0.00100099 -7.47371e-05)
(0.000182177 0.00105751 -7.76206e-05)
(0.000112524 0.00109819 -8.09943e-05)
(4.18139e-05 0.00111923 -8.26367e-05)
(-3.04375e-05 0.00112014 -8.27244e-05)
(-0.000101213 0.00110089 -8.12589e-05)
(-0.000171083 0.00106196 -7.80335e-05)
(-0.000230604 0.00100703 -7.53334e-05)
(-0.000290885 0.000939036 -5.67013e-05)
(-0.00034433 0.000872955 -3.48603e-05)
(-0.000555282 0.00079378 -2.80421e-05)
(-0.000398337 0.000203651 -7.31486e-05)
(-0.000119086 0.000136752 -6.67061e-05)
(-0.000152385 0.000200118 -4.66128e-05)
(-0.000125416 0.000188419 -3.72727e-05)
(-9.96499e-05 0.00016407 -2.95933e-05)
(-7.07733e-05 0.000139937 -2.55773e-05)
(-3.99092e-05 0.000122878 -2.27406e-05)
(-7.83086e-06 0.000112672 -1.65013e-05)
(4.95448e-06 0.000102881 -3.81127e-07)
(-2.41065e-06 6.29298e-05 8.08636e-07)
(9.58568e-06 6.95538e-05 -1.17053e-05)
(3.77635e-05 7.6299e-05 -1.62442e-05)
(6.67137e-05 8.83617e-05 -1.77653e-05)
(9.76781e-05 0.000108341 -1.99248e-05)
(0.000130142 0.000138625 -2.36642e-05)
(0.000161227 0.00018259 -2.9271e-05)
(0.000184786 0.000242269 -3.56146e-05)
(0.000153914 0.000318416 -5.27907e-05)
(0.000159941 0.000364758 -7.91682e-05)
(0.000259714 0.000689994 6.45876e-05)
(0.000301324 0.000886454 2.61501e-05)
(0.000364927 0.00101868 1.39312e-05)
(0.000321364 0.00113622 1.44981e-05)
(0.000243589 0.00121958 1.05229e-05)
(0.000152018 0.00127512 6.83562e-06)
(5.57835e-05 0.00130228 5.25473e-06)
(-4.20981e-05 0.00130332 5.26009e-06)
(-0.000138417 0.00127826 6.847e-06)
(-0.000230256 0.00122489 1.0547e-05)
(-0.000308602 0.00114386 1.45338e-05)
(-0.000353665 0.00102879 1.40391e-05)
(-0.000293589 0.000898951 2.58995e-05)
(-0.000254767 0.000702886 6.3284e-05)
(-0.000156409 0.000377687 -7.71391e-05)
(-0.000147535 0.000332839 -5.3913e-05)
(-0.000170851 0.000256557 -3.84859e-05)
(-0.000139945 0.000198033 -3.351e-05)
(-9.96974e-05 0.000157027 -2.9398e-05)
(-5.72954e-05 0.000131922 -2.62288e-05)
(-1.47213e-05 0.000118237 -1.87571e-05)
(3.72108e-06 0.000106978 5.10293e-07)
(-1.57711e-06 6.17269e-05 1.45165e-06)
(1.37658e-05 6.82442e-05 -1.28415e-05)
(4.846e-05 7.50409e-05 -1.80682e-05)
(8.59399e-05 8.72901e-05 -1.99338e-05)
(0.000129676 0.000107765 -2.26939e-05)
(0.000183667 0.000139364 -2.74531e-05)
(0.000253606 0.000186795 -3.45071e-05)
(0.000353372 0.00025547 -4.12917e-05)
(0.000477522 0.000353627 -4.59478e-05)
(0.000729798 0.000482928 -3.1176e-05)
(0.000754799 0.000140733 4.61567e-05)
(0.000596274 0.000309914 5.64517e-05)
(0.000665684 0.000662832 0.0001222)
(0.000600509 0.000869191 0.000180396)
(0.000482769 0.00101751 0.00021352)
(0.000346265 0.00111644 0.000224544)
(0.000209356 0.00117783 0.000227322)
(7.47148e-05 0.00120706 0.000227963)
(-5.86419e-05 0.00120803 0.000228035)
(-0.000193224 0.00118078 0.00022754)
(-0.000330036 0.0011215 0.00022493)
(-0.000466342 0.00102493 0.000214155)
(-0.000583936 0.000879377 0.000181545)
(-0.000648938 0.00067623 0.000123922)
(-0.000577601 0.00032621 5.93104e-05)
(-0.000743026 0.000144484 4.85313e-05)
(-0.00072474 0.000487548 -3.03141e-05)
(-0.000467744 0.000363577 -4.72366e-05)
(-0.000338352 0.000267625 -4.42792e-05)
(-0.000230885 0.000201119 -3.93878e-05)
(-0.000150251 0.000157061 -3.42621e-05)
(-8.4013e-05 0.000130816 -3.03472e-05)
(-2.54282e-05 0.000116735 -2.14159e-05)
(1.25193e-06 0.000105505 1.55113e-06)
(-9.86576e-07 5.79286e-05 2.05802e-06)
(1.72441e-05 6.38909e-05 -1.39053e-05)
(5.75165e-05 6.9808e-05 -1.98065e-05)
(0.000101639 8.01915e-05 -2.20154e-05)
(0.000154053 9.68831e-05 -2.5342e-05)
(0.000219979 0.00012099 -3.1099e-05)
(0.000306157 0.000153041 -3.95468e-05)
(0.000425368 0.000190863 -4.85738e-05)
(0.000573001 0.000224291 -5.4362e-05)
(0.000794286 0.000240175 -4.68451e-05)
(0.000898009 0.000123776 -2.27182e-05)
(0.000893777 0.000301861 1.84543e-05)
(0.00088099 0.000489704 0.000133944)
(0.000754407 0.000628248 0.000207063)
(0.000595843 0.000735923 0.000244743)
(0.000421358 0.000808787 0.000260053)
(0.000252289 0.00085506 0.000264575)
(8.91203e-05 0.000877454 0.000265725)
(-7.1212e-05 0.000878249 0.000265793)
(-0.000234274 0.000857457 0.00026478)
(-0.000403152 0.000812826 0.000260425)
(-0.000577302 0.000741635 0.000245374)
(-0.000735743 0.00063561 0.000208255)
(-0.000862392 0.000498212 0.000135861)
(-0.000875764 0.000310494 2.18978e-05)
(-0.0008849 0.000127724 -2.05289e-05)
(-0.000785357 0.000247889 -4.63643e-05)
(-0.000562335 0.000233968 -5.57514e-05)
(-0.000409502 0.000202226 -5.1847e-05)
(-0.000281781 0.000166534 -4.50182e-05)
(-0.000183388 0.000137785 -3.88418e-05)
(-0.000103068 0.000118738 -3.41285e-05)
(-3.28798e-05 0.000107899 -2.37856e-05)
(-6.53943e-08 9.81499e-05 2.48577e-06)
(-4.94489e-07 5.20286e-05 2.63712e-06)
(2.02049e-05 5.72585e-05 -1.4815e-05)
(6.52497e-05 6.21058e-05 -2.13029e-05)
(0.000114776 7.03907e-05 -2.37858e-05)
(0.000173702 8.33273e-05 -2.75698e-05)
(0.000247449 0.000101243 -3.4228e-05)
(0.000342711 0.000123573 -4.4248e-05)
(0.000470165 0.000148447 -5.64591e-05)
(0.000624522 0.000169412 -6.72707e-05)
(0.000817465 0.000185432 -6.96505e-05)
(0.000951621 0.000157355 -5.32876e-05)
(0.00102547 0.000245197 1.6022e-06)
(0.00100771 0.00035613 0.000120711)
(0.000858878 0.000448691 0.00019089)
(0.000673628 0.000522713 0.000226003)
(0.000472648 0.000572585 0.000235835)
(0.000282026 0.00060488 0.000236863)
(9.91754e-05 0.000620603 0.000236269)
(-7.9794e-05 0.000621258 0.000236305)
(-0.000262519 0.000606845 0.00023697)
(-0.000452924 0.000575858 0.000236042)
(-0.000653554 0.000527262 0.0002264)
(-0.000838804 0.000454449 0.000191787)
(-0.000987957 0.000362769 0.000122321)
(-0.00100811 0.000252401 4.76176e-06)
(-0.000938823 0.000162873 -5.1411e-05)
(-0.00080705 0.000192432 -6.90599e-05)
(-0.000612604 0.000177926 -6.86339e-05)
(-0.000452898 0.000158638 -5.98798e-05)
(-0.00031632 0.000135856 -5.01305e-05)
(-0.00020756 0.000116618 -4.26572e-05)
(-0.000117631 0.000103208 -3.71893e-05)
(-3.85304e-05 9.52546e-05 -2.56492e-05)
(-1.01693e-06 8.7024e-05 3.43661e-06)
(-2.23356e-07 4.44196e-05 3.11334e-06)
(2.22918e-05 4.87339e-05 -1.55604e-05)
(7.08837e-05 5.23747e-05 -2.25291e-05)
(0.000124098 5.84017e-05 -2.52224e-05)
(0.000186947 6.7537e-05 -2.93437e-05)
(0.000264578 7.96683e-05 -3.66631e-05)
(0.000363487 9.39322e-05 -4.78188e-05)
(0.000492844 0.00010915 -6.2058e-05)
(0.000648786 0.000121688 -7.56021e-05)
(0.000833174 0.000134416 -8.13173e-05)
(0.00098592 0.000136401 -6.52204e-05)
(0.0010978 0.000188838 -1.31474e-05)
(0.00108185 0.000256457 0.00010326)
(0.000920714 0.000313751 0.000166493)
(0.00072135 0.000360688 0.000196073)
(0.000505423 0.000393454 0.000200756)
(0.000301552 0.000415189 0.000198753)
(0.00010592 0.000425964 0.000196643)
(-8.53451e-05 0.000426531 0.00019665)
(-0.00028087 0.000416873 0.000198771)
(-0.00048457 0.000396216 0.000200811)
(-0.00070022 0.000364447 0.000196248)
(-0.00089975 0.000318403 0.000167113)
(-0.00106139 0.000261758 0.000104582)
(-0.00108046 0.000194653 -1.02152e-05)
(-0.000972885 0.000141886 -6.34694e-05)
(-0.000821667 0.000140919 -8.08067e-05)
(-0.000635706 0.000129309 -7.70435e-05)
(-0.000474146 0.000118162 -6.56467e-05)
(-0.00033508 0.000104778 -5.40252e-05)
(-0.000221621 9.31684e-05 -4.55988e-05)
(-0.000126427 8.4758e-05 -3.95529e-05)
(-4.16558e-05 7.95469e-05 -2.70832e-05)
(-1.26702e-06 7.30775e-05 4.14327e-06)
(-6.59901e-08 3.56779e-05 3.4868e-06)
(2.37538e-05 3.90452e-05 -1.61406e-05)
(7.49386e-05 4.16461e-05 -2.34772e-05)
(0.000130725 4.58424e-05 -2.63201e-05)
(0.000196117 5.21082e-05 -3.06759e-05)
(0.000275979 6.02836e-05 -3.84519e-05)
(0.000376708 6.97445e-05 -5.03832e-05)
(0.000506697 7.9981e-05 -6.59138e-05)
(0.000663591 8.93172e-05 -8.1102e-05)
(0.000847016 0.000100577 -8.86637e-05)
(0.00101129 0.000110967 -7.2662e-05)
(0.00114155 0.000144247 -2.23963e-05)
(0.00112763 0.000185759 9.25856e-05)
(0.000960623 0.000222497 0.000151835)
(0.000752804 0.000253168 0.000178001)
(0.000527387 0.000275086 0.000179568)
(0.000314819 0.000289828 0.000175656)
(0.000110623 0.000297281 0.000172608)
(-8.89731e-05 0.000297809 0.0001726)
(-0.000293097 0.000291393 0.000175629)
(-0.000505566 0.000277625 0.000179544)
(-0.000730811 0.000256574 0.000178061)
(-0.00093896 0.00022664 0.000152305)
(-0.00110665 0.000190438 9.37482e-05)
(-0.00112398 0.00014934 -1.95421e-05)
(-0.000997874 0.000116138 -7.1007e-05)
(-0.000834716 0.000106417 -8.82238e-05)
(-0.000649556 9.59327e-05 -8.26358e-05)
(-0.00048673 8.76603e-05 -6.96501e-05)
(-0.000346527 7.88754e-05 -5.68369e-05)
(-0.000230432 7.14923e-05 -4.77545e-05)
(-0.000131999 6.615e-05 -4.12989e-05)
(-4.34731e-05 6.27462e-05 -2.81494e-05)
(-1.28684e-06 5.78214e-05 4.66545e-06)
(-9.55033e-09 2.61836e-05 3.73345e-06)
(2.46604e-05 2.85615e-05 -1.65735e-05)
(7.75797e-05 3.02336e-05 -2.41694e-05)
(0.00013503 3.2875e-05 -2.71105e-05)
(0.000201995 3.68069e-05 -3.16121e-05)
(0.000283162 4.19384e-05 -3.96634e-05)
(0.000384971 4.79553e-05 -5.20443e-05)
(0.000515579 5.47575e-05 -6.82654e-05)
(0.000673828 6.17915e-05 -8.42828e-05)
(0.000858793 7.10251e-05 -9.2659e-05)
(0.00102984 8.17411e-05 -7.68939e-05)
(0.00116931 0.000102816 -2.73919e-05)
(0.0011567 0.000128337 8.7589e-05)
(0.000986216 0.000151329 0.00014535)
(0.000773275 0.000170691 0.00017008)
(0.000542003 0.000184918 0.000170278)
(0.000323804 0.00019463 0.000165532)
(0.000113934 0.000199682 0.000162073)
(-9.12566e-05 0.000200207 0.000162062)
(-0.000301104 0.000196179 0.000165492)
(-0.000519303 0.000187405 0.000170229)
(-0.000750541 0.000173982 0.000170099)
(-0.000963986 0.000155251 0.000145763)
(-0.00113531 0.000132687 8.86806e-05)
(-0.0011515 0.000107446 -2.46252e-05)
(-0.0010161 8.64712e-05 -7.53241e-05)
(-0.000845952 7.61218e-05 -9.23072e-05)
(-0.000659094 6.73532e-05 -8.59235e-05)
(-0.000494652 6.10086e-05 -7.21428e-05)
(-0.000353442 5.51869e-05 -5.87001e-05)
(-0.000235687 5.058e-05 -4.92435e-05)
(-0.000135269 4.73437e-05 -4.25378e-05)
(-4.43867e-05 4.52598e-05 -2.89318e-05)
(-1.15561e-06 4.18402e-05 4.96896e-06)
(-4.1196e-09 1.63005e-05 3.85717e-06)
(2.51546e-05 1.76878e-05 -1.68678e-05)
(7.91055e-05 1.85432e-05 -2.46209e-05)
(0.000137553 1.98713e-05 -2.76181e-05)
(0.000205485 2.18914e-05 -3.22005e-05)
(0.00028752 2.4627e-05 -4.04014e-05)
(0.000390172 2.8051e-05 -5.30218e-05)
(0.000521569 3.22689e-05 -6.95909e-05)
(0.000681161 3.7283e-05 -8.60104e-05)
(0.000867862 4.39589e-05 -9.47451e-05)
(0.00104259 5.2176e-05 -7.90644e-05)
(0.00118635 6.42658e-05 -2.96472e-05)
(0.00117434 7.80183e-05 8.58357e-05)
(0.00100189 9.06078e-05 0.000143378)
(0.000785943 0.000101227 0.000167742)
(0.000551214 0.000109288 0.000167517)
(0.000329571 0.000114887 0.0001625)
(0.000116205 0.000117963 0.000158906)
(-9.2477e-05 0.000118517 0.000158895)
(-0.000305885 0.000116518 0.00016246)
(-0.000527652 0.000111886 0.000167466)
(-0.000762524 0.00010462 0.000167755)
(-0.000979181 9.45621e-05 0.000143775)
(-0.00115268 8.2291e-05 8.68966e-05)
(-0.00116843 6.86295e-05 -2.69441e-05)
(-0.00102872 5.64872e-05 -7.75726e-05)
(-0.000854769 4.83373e-05 -9.44835e-05)
(-0.000666055 4.17979e-05 -8.77572e-05)
(-0.000500085 3.70617e-05 -7.35948e-05)
(-0.00035783 3.33e-05 -5.98391e-05)
(-0.00023887 3.05712e-05 -5.01864e-05)
(-0.000137174 2.87815e-05 -4.33436e-05)
(-4.48652e-05 2.76526e-05 -2.94643e-05)
(-1.03507e-06 2.56489e-05 5.10656e-06)
(-3.71776e-08 6.29158e-06 3.85551e-06)
(2.52849e-05 6.68006e-06 -1.70311e-05)
(7.96209e-05 6.74517e-06 -2.48434e-05)
(0.000138476 6.81954e-06 -2.78594e-05)
(0.00020687 7.02612e-06 -3.24674e-05)
(0.00028945 7.50242e-06 -4.07142e-05)
(0.000392791 8.48628e-06 -5.34058e-05)
(0.00052507 1.02333e-05 -7.00699e-05)
(0.000685809 1.31668e-05 -8.65952e-05)
(0.000873807 1.71138e-05 -9.5426e-05)
(0.00104984 2.22717e-05 -7.97808e-05)
(0.00119445 2.65464e-05 -3.03027e-05)
(0.00118232 2.98415e-05 8.55848e-05)
(0.00100895 3.2959e-05 0.000143387)
(0.000791731 3.54975e-05 0.00016787)
(0.000555593 3.77825e-05 0.000167686)
(0.000332459 3.95221e-05 0.000162678)
(0.000117563 4.07436e-05 0.000159083)
(-9.26986e-05 4.13547e-05 0.000159072)
(-0.000307717 4.13145e-05 0.000162636)
(-0.000531133 4.06183e-05 0.000167628)
(-0.000767648 3.91724e-05 0.000167873)
(-0.000985854 3.71652e-05 0.000143762)
(-0.00116054 3.42674e-05 8.66087e-05)
(-0.00117661 3.08417e-05 -2.7675e-05)
(-0.00103608 2.62575e-05 -7.83803e-05)
(-0.000860765 2.0849e-05 -9.52699e-05)
(-0.000670689 1.66907e-05 -8.84563e-05)
(-0.000503478 1.36307e-05 -7.41925e-05)
(-0.000360222 1.17965e-05 -6.03521e-05)
(-0.000240421 1.07664e-05 -5.06437e-05)
(-0.000138014 1.02757e-05 -4.37582e-05)
(-4.5052e-05 1.00241e-05 -2.97698e-05)
(-9.59094e-07 9.43915e-06 5.08857e-06)
(-1.07878e-07 -3.56438e-06 3.73109e-06)
(2.50517e-05 -4.17027e-06 -1.70647e-05)
(7.91251e-05 -4.92331e-06 -2.48396e-05)
(0.000137794 -6.16601e-06 -2.78388e-05)
(0.000206136 -7.88667e-06 -3.24197e-05)
(0.000288924 -9.84816e-06 -4.06135e-05)
(0.000392789 -1.15388e-05 -5.32161e-05)
(0.000526053 -1.24891e-05 -6.9737e-05)
(0.000687777 -1.16676e-05 -8.60918e-05)
(0.000876721 -1.01402e-05 -9.47623e-05)
(0.00105193 -6.9839e-06 -7.91285e-05)
(0.00119401 -1.0339e-05 -2.95286e-05)
(0.00118084 -1.82185e-05 8.65812e-05)
(0.00100756 -2.51571e-05 0.000145013)
(0.000790742 -3.12064e-05 0.000170011)
(0.000555214 -3.49612e-05 0.000170272)
(0.00033251 -3.72288e-05 0.000165515)
(0.00011803 -3.78895e-05 0.000162047)
(-9.19022e-05 -3.71708e-05 0.000162037)
(-0.000306604 -3.5118e-05 0.000165477)
(-0.000529772 -3.16287e-05 0.000170221)
(-0.000765958 -2.69e-05 0.00017001)
(-0.000984106 -2.02976e-05 0.000145356)
(-0.00115909 -1.3228e-05 8.75353e-05)
(-0.0011765 -5.78028e-06 -2.70278e-05)
(-0.00103857 -3.11624e-06 -7.78594e-05)
(-0.000864059 -6.85973e-06 -9.47427e-05)
(-0.000672997 -8.94905e-06 -8.808e-05)
(-0.000504786 -1.03153e-05 -7.39827e-05)
(-0.000360592 -1.00016e-05 -6.02727e-05)
(-0.000240332 -9.10199e-06 -5.06356e-05)
(-0.000137786 -8.12389e-06 -4.37929e-05)
(-4.49417e-05 -7.40764e-06 -2.9855e-05)
(-9.23887e-07 -6.56219e-06 4.91593e-06)
(-2.30793e-07 -1.29948e-05 3.48513e-06)
(2.44069e-05 -1.45997e-05 -1.69654e-05)
(7.75142e-05 -1.62797e-05 -2.46038e-05)
(0.000135318 -1.90753e-05 -2.75476e-05)
(0.000202972 -2.31476e-05 -3.20429e-05)
(0.000285474 -2.82259e-05 -4.00702e-05)
(0.000389553 -3.35287e-05 -5.23932e-05)
(0.000523911 -3.8188e-05 -6.84581e-05)
(0.000686737 -3.99566e-05 -8.42487e-05)
(0.000877176 -4.02135e-05 -9.23626e-05)
(0.00104928 -3.56138e-05 -7.66315e-05)
(0.00118396 -4.75012e-05 -2.6501e-05)
(0.00116839 -6.99804e-05 9.01127e-05)
(0.000996456 -8.99675e-05 0.000150228)
(0.000782077 -0.000107057 0.000176679)
(0.000549564 -0.000118252 0.000178245)
(0.000329491 -0.00012532 0.000174242)
(0.000117601 -0.000128153 0.000171126)
(-8.99208e-05 -0.000127253 0.000171098)
(-0.000302148 -0.000122663 0.000174149)
(-0.000522918 -0.000114044 0.000178096)
(-0.000756468 -0.000101589 0.000176538)
(-0.000972654 -8.38279e-05 0.000150387)
(-0.00114685 -6.37535e-05 9.08563e-05)
(-0.00116713 -4.21515e-05 -2.42448e-05)
(-0.00103667 -3.15752e-05 -7.55753e-05)
(-0.000865196 -3.71056e-05 -9.25628e-05)
(-0.000672658 -3.77442e-05 -8.64292e-05)
(-0.000503429 -3.69323e-05 -7.28523e-05)
(-0.00035831 -3.34486e-05 -5.9542e-05)
(-0.00023811 -2.96761e-05 -5.01293e-05)
(-0.000136174 -2.6566e-05 -4.34279e-05)
(-4.43829e-05 -2.452e-05 -2.97117e-05)
(-8.88561e-07 -2.21426e-05 4.57435e-06)
(-4.53771e-07 -2.16298e-05 3.11358e-06)
(2.32146e-05 -2.41844e-05 -1.67292e-05)
(7.45037e-05 -2.6877e-05 -2.41285e-05)
(0.000130522 -3.14541e-05 -2.69715e-05)
(0.00019647 -3.83496e-05 -3.13031e-05)
(0.000277661 -4.73986e-05 -3.90008e-05)
(0.000381056 -5.76705e-05 -5.07485e-05)
(0.000516335 -6.77552e-05 -6.58105e-05)
(0.000680787 -7.33978e-05 -8.02998e-05)
(0.000875772 -7.54115e-05 -8.69024e-05)
(0.00104204 -6.09059e-05 -7.12766e-05)
(0.00116048 -8.36726e-05 -2.01777e-05)
(0.00114001 -0.000129822 9.78554e-05)
(0.000971399 -0.000168874 0.000161628)
(0.000762679 -0.00020136 0.000191161)
(0.000536862 -0.000222615 0.000195557)
(0.000322479 -0.000236025 0.000193229)
(0.000116036 -0.000241674 0.000190903)
(-8.63869e-05 -0.000240491 0.000190832)
(-0.000293297 -0.000232503 0.000193003)
(-0.000508629 -0.000216976 0.000195176)
(-0.000735955 -0.000193891 0.000190694)
(-0.000947106 -0.000160404 0.000161381)
(-0.00111884 -0.000121151 9.81652e-05)
(-0.00114483 -7.65682e-05 -1.83684e-05)
(-0.0010306 -5.62657e-05 -7.05726e-05)
(-0.000864729 -7.20048e-05 -8.74771e-05)
(-0.000667707 -7.11908e-05 -8.27862e-05)
(-0.000497023 -6.68927e-05 -7.04183e-05)
(-0.00035131 -5.85204e-05 -5.79948e-05)
(-0.000232292 -5.05278e-05 -4.90438e-05)
(-0.000132273 -4.44475e-05 -4.26159e-05)
(-4.29249e-05 -4.06659e-05 -2.93225e-05)
(-6.93402e-07 -3.6746e-05 4.01034e-06)
(-7.79056e-07 -2.90935e-05 2.64148e-06)