/*--------------------------------*- C++ -*----------------------------------*\
| =========                 |                                                 |
| \\      /  F ield         | OpenFOAM: The Open Source CFD Toolbox           |
|  \\    /   O peration     | Version:  2112                                  |
|   \\  /    A nd           | Website:  www.openfoam.com                      |
|    \\/     M anipulation  |                                                 |
\*---------------------------------------------------------------------------*/
FoamFile
{
    version     2.0;
    format      ascii;
    arch        "LSB;label=32;scalar=64";
    class       volScalarField;
    location    "3.1";
    object      epsilon;
}
// * * * * * * * * * * * * * * * * * * * * * * * * * * * * * * * * * * * * * //

dimensions      [0 2 -3 0 0 0 0];

internalField   nonuniform List<scalar> 
64906
(
0.000288481
0.000334068
0.000361936
0.000374841
0.000380215
0.000382288
0.000383034
0.000383283
0.000383356
0.000383367
0.000383363
0.000383354
0.000383344
0.000383333
0.00038332
0.000383307
0.000383292
0.000383279
0.000383272
0.00038328
0.000383293
0.000383306
0.000383318
0.000383327
0.000383331
0.000383319
0.000383254
0.00038302
0.000382288
0.000380224
0.000374855
0.000361959
0.000334092
0.000288499
0.000334093
0.000602164
0.000759172
0.000839134
0.000877276
0.000894141
0.00090098
0.000903467
0.000904197
0.000904264
0.000904116
0.000903941
0.000903817
0.000903752
0.000903728
0.000903716
0.000903708
0.000903703
0.000903703
0.000903709
0.000903718
0.00090373
0.00090375
0.000903793
0.000903837
0.000903747
0.000903085
0.000900728
0.000894028
0.000877273
0.0008392
0.000759267
0.000602249
0.000334141
0.000362008
0.000759239
0.00100496
0.00113796
0.00120558
0.00123742
0.00125106
0.00125611
0.00125736
0.00125707
0.0012563
0.00125558
0.0012551
0.00125488
0.00125482
0.0012548
0.00125478
0.00125478
0.00125478
0.0012548
0.00125482
0.00125484
0.00125489
0.00125506
0.00125533
0.00125541
0.00125434
0.00124976
0.00123667
0.00120528
0.00113795
0.00100509
0.000759396
0.000362091
0.000374946
0.000839273
0.00113805
0.00130651
0.00139568
0.0014392
0.00145814
0.00146467
0.00146521
0.00146315
0.00146039
0.00145807
0.00145657
0.00145585
0.00145559
0.00145546
0.00145536
0.0014553
0.00145531
0.00145538
0.00145549
0.00145562
0.00145586
0.00145648
0.00145764
0.00145894
0.00145887
0.00145374
0.00143644
0.0013943
0.00130605
0.00113806
0.000839448
0.000375056
0.00038034
0.000877463
0.00120574
0.00139576
0.00149878
0.00154977
0.00157128
0.00157675
0.00157366
0.00156657
0.00155884
0.00155288
0.00154921
0.00154754
0.00154695
0.00154655
0.0015462
0.00154601
0.00154602
0.00154623
0.00154659
0.001547
0.00154756
0.00154909
0.00155232
0.00155695
0.00156107
0.00155922
0.00154203
0.00149466
0.00139404
0.00120531
0.000877557
0.000380469
0.000382423
0.000894353
0.00123764
0.00143939
0.00154992
0.00160404
0.00162437
0.00162437
0.00161197
0.00159333
0.00157496
0.00156233
0.00155526
0.0015525
0.00155177
0.00155094
0.00155011
0.00154966
0.00154967
0.00155014
0.00155099
0.00155182
0.00155253
0.00155514
0.00156171
0.00157284
0.00158712
0.00159571
0.00158562
0.00153991
0.00143492
0.00123617
0.000894183
0.000382553
0.00038317
0.000901205
0.00125134
0.00145852
0.00157183
0.00162499
0.00163933
0.00162691
0.0015951
0.00155265
0.00151363
0.00149218
0.00148249
0.00148022
0.00148059
0.00147938
0.00147788
0.00147705
0.00147707
0.00147792
0.00147944
0.00148066
0.00148027
0.0014824
0.0014916
0.00151151
0.00154627
0.0015781
0.0015862
0.00155086
0.00144896
0.00124792
0.000900491
0.000383279
0.000383415
0.000903707
0.00125652
0.00146547
0.00157829
0.00162682
0.00162954
0.00159474
0.00152675
0.00143728
0.00135864
0.00133566
0.00133296
0.00133737
0.00134212
0.00134121
0.00133925
0.00133819
0.0013382
0.00133929
0.00134128
0.00134221
0.00133745
0.00133294
0.00133522
0.00135677
0.00143121
0.00150987
0.00155357
0.00153956
0.00144786
0.00125
0.000902107
0.000383469
0.000383479
0.000904479
0.00125806
0.00146692
0.00157735
0.00161861
0.00160452
0.00153563
0.00140581
0.00122218
0.00105709
0.00107972
0.00111846
0.00114392
0.00115778
0.00115926
0.00115821
0.00115753
0.00115755
0.00115825
0.00115933
0.00115788
0.00114403
0.00111853
0.00107954
0.00105579
0.00121696
0.00138969
0.00149487
0.0015144
0.00143881
0.00124755
0.000901724
0.000383448
0.000383479
0.000904638
0.00125829
0.00146647
0.00157419
0.00160795
0.00157574
0.0014655
0.00124385
0.000874507
0.000513433
0.000722857
0.000878652
0.00094422
0.000968719
0.00097566
0.000977273
0.000977553
0.000977565
0.000977311
0.000975724
0.000968817
0.000944354
0.000878824
0.00072301
0.000513072
0.000870811
0.00122888
0.00142546
0.00148592
0.00142806
0.00124399
0.000900777
0.000383349
0.000383463
0.000904648
0.00125831
0.00146617
0.00157254
0.0016024
0.00155993
0.00142184
0.00111767
0.000532382
0.000450381
0.000711652
0.000807148
0.000836547
0.000845775
0.000848262
0.000848799
0.000848805
0.000848282
0.000845812
0.000836609
0.000807256
0.000711825
0.000450482
0.000530854
0.00110379
0.00138224
0.00147026
0.00142245
0.00124213
0.000900232
0.000383272
0.000383449
0.000904671
0.00125856
0.00146689
0.00157428
0.00160669
0.00157133
0.00145528
0.0012253
0.000847955
0.000494785
0.000649918
0.000780554
0.000833312
0.000849132
0.000856805
0.000858726
0.000858948
0.000858945
0.000858718
0.000856793
0.000849115
0.000833297
0.000780538
0.000649767
0.000494258
0.000843989
0.00121022
0.00141512
0.00148126
0.00142634
0.00124344
0.000900517
0.000383276
0.000383436
0.000904742
0.00125905
0.00146841
0.00157831
0.00161672
0.00159556
0.00151287
0.0013602
0.00114385
0.000938763
0.000894968
0.000879353
0.000875757
0.000874677
0.000875295
0.000875202
0.000874972
0.000874964
0.000875179
0.000875253
0.000874608
0.000875644
0.000879142
0.000894452
0.000937179
0.00113851
0.00134407
0.00147194
0.00150484
0.00143576
0.00124685
0.000901421
0.000383322
0.000383418
0.000904823
0.00125959
0.0014701
0.0015827
0.00162718
0.00161886
0.00156161
0.00145476
0.00130646
0.00114967
0.0010325
0.00094739
0.000909007
0.000895091
0.000890618
0.000889052
0.0008885
0.000888488
0.000889017
0.000890557
0.000894993
0.000908848
0.000947108
0.00103188
0.00114771
0.00130047
0.0014379
0.00151995
0.00152743
0.0014455
0.00125054
0.000902428
0.000383365
0.000383396
0.000904886
0.00126003
0.00147147
0.00158618
0.00163512
0.00163539
0.00159306
0.0015085
0.00138549
0.00123985
0.00109768
0.000983683
0.000928373
0.000907259
0.000900069
0.00089767
0.000896895
0.000896877
0.000897622
0.000899992
0.000907145
0.000928196
0.00098338
0.00109701
0.00123776
0.00137919
0.00149118
0.00155085
0.00154335
0.00145281
0.0012534
0.000903212
0.000383381
0.00038337
0.000904918
0.00126034
0.0014724
0.00158845
0.00164007
0.00164515
0.00161034
0.0015355
0.00142135
0.00127756
0.00112597
0.00100019
0.000937611
0.000913177
0.000904723
0.000901889
0.000900948
0.000900923
0.000901827
0.000904634
0.000913054
0.000937425
0.000999876
0.00112518
0.0012754
0.00141489
0.0015179
0.00156776
0.00155268
0.0014573
0.00125521
0.000903693
0.000383371
0.000383342
0.000904926
0.00126051
0.00147293
0.00158971
0.00164271
0.00165011
0.00161865
0.00154764
0.00143637
0.00129246
0.00113719
0.00100679
0.000941371
0.000915595
0.000906608
0.000903553
0.000902479
0.000902445
0.000903478
0.000906509
0.000915465
0.000941179
0.00100647
0.00113639
0.00129027
0.00142982
0.0015299
0.00157585
0.00155737
0.00145965
0.00125617
0.000903935
0.000383342
0.000383315
0.00090492
0.0012606
0.00147317
0.00159027
0.00164383
0.00165214
0.0016219
0.00155217
0.0014417
0.00129755
0.00114098
0.00100901
0.000942639
0.000916398
0.00090721
0.000904047
0.000902872
0.000902827
0.00090396
0.000907104
0.000916263
0.000942443
0.00100869
0.00114018
0.00129535
0.00143512
0.00153437
0.00157901
0.00155928
0.00146063
0.00125659
0.000904025
0.000383305
0.000383293
0.00090491
0.00126061
0.0014732
0.00159031
0.00164389
0.00165223
0.00162201
0.00155231
0.00144186
0.00129771
0.00114114
0.00100911
0.0009427
0.000916423
0.000907203
0.000904002
0.000902766
0.000902712
0.000903906
0.000907091
0.000916283
0.000942503
0.00100879
0.00114034
0.00129553
0.00143529
0.00153452
0.00157914
0.00155937
0.00146069
0.00125662
0.00090402
0.00038327
0.00038329
0.000904904
0.00126055
0.00147302
0.00158985
0.00164291
0.00165038
0.00161899
0.00154807
0.00143686
0.00129299
0.00113769
0.00100712
0.000941571
0.000915684
0.000906601
0.000903435
0.000902205
0.000902148
0.000903335
0.000906485
0.000915543
0.000941377
0.00100681
0.00113691
0.00129083
0.00143035
0.00153036
0.00157623
0.00155765
0.00145983
0.00125628
0.000903928
0.000383262
0.00038331
0.000904896
0.00126041
0.00147255
0.00158869
0.0016404
0.00164561
0.00161094
0.00153625
0.00142224
0.00127853
0.00112691
0.00100081
0.000937998
0.000913369
0.000904755
0.000901748
0.00090061
0.000900558
0.000901649
0.00090464
0.000913233
0.000937815
0.00100053
0.00112618
0.00127645
0.00141586
0.00151872
0.00156841
0.00155315
0.00145762
0.00125538
0.0009037
0.00038328
0.000383334
0.000904872
0.00126013
0.00147168
0.0015865
0.00163558
0.00163603
0.00159391
0.00150962
0.00138688
0.00124144
0.00109911
0.00098469
0.000929
0.000907596
0.00090018
0.000897568
0.000896607
0.000896567
0.000897479
0.000900072
0.000907472
0.000928841
0.000984447
0.00109849
0.0012395
0.00138072
0.00149241
0.00155178
0.00154402
0.00145325
0.00125365
0.000903243
0.00038329
0.000383356
0.000904817
0.0012597
0.00147033
0.00158307
0.00162773
0.00161964
0.0015627
0.00145628
0.00130848
0.0011521
0.00103452
0.00094877
0.000909775
0.000895445
0.000890678
0.000888893
0.000888198
0.00088817
0.000888822
0.000890585
0.000895336
0.000909644
0.000948598
0.00103412
0.00115044
0.00130275
0.00143956
0.00152111
0.00152823
0.00144603
0.00125083
0.000902485
0.000383274
0.000383373
0.000904728
0.00125913
0.0014686
0.00157863
0.00161722
0.00159631
0.00151402
0.00136197
0.00114645
0.000942135
0.000897739
0.000880442
0.000875793
0.000874106
0.000874339
0.000874035
0.000873699
0.000873678
0.000873974
0.00087424
0.000873959
0.000875603
0.000880272
0.000897595
0.000941011
0.00114146
0.00134591
0.00147303
0.00150554
0.00143622
0.00124712
0.000901481
0.000383232
0.000383383
0.000904593
0.00125847
0.00146679
0.00157421
0.00160672
0.00157157
0.00145594
0.00122678
0.000850642
0.000496273
0.00065079
0.000777991
0.000828777
0.000843365
0.000850421
0.000852102
0.00085223
0.000852203
0.000852007
0.000850201
0.000842903
0.000828011
0.000777158
0.000650662
0.000495818
0.000846979
0.00121124
0.00141522
0.0014812
0.00142635
0.00124349
0.000900502
0.000383185
0.000383379
0.000904319
0.0012576
0.00146507
0.00157113
0.00160081
0.00155823
0.00142009
0.00111626
0.00053193
0.000444701
0.000695453
0.000784479
0.000809777
0.000817457
0.000819477
0.000819854
0.000819777
0.000819177
0.000816679
0.000807981
0.000781042
0.00069063
0.000441982
0.000529193
0.00109977
0.00137844
0.00146767
0.00142095
0.00124139
0.000899924
0.000383161
0.000383325
0.000903516
0.00125577
0.00146257
0.00156917
0.00160211
0.00156919
0.00145806
0.0012354
0.000865975
0.000506799
0.000689494
0.000822988
0.00086791
0.00087909
0.000882289
0.000883237
0.000883417
0.00088326
0.000882554
0.000880263
0.000873789
0.000856419
0.000803658
0.000671225
0.000499491
0.000852107
0.00121167
0.00141284
0.0014776
0.00142291
0.00124115
0.000899607
0.000383151
0.000383102
0.000901081
0.0012507
0.00145583
0.00156332
0.00160236
0.00158617
0.00151412
0.0013785
0.00118439
0.0010008
0.000984608
0.000977343
0.00095501
0.00094069
0.000934969
0.00093313
0.000932564
0.00093231
0.000931957
0.00093119
0.000929921
0.000928832
0.0009278
0.000931157
0.000957139
0.00114764
0.00134259
0.00146363
0.00149369
0.00142527
0.0012395
0.000898203
0.000383016
0.000382378
0.00089435
0.00123733
0.00143764
0.00154392
0.00158775
0.00158636
0.00154568
0.00146641
0.00135507
0.00123762
0.00115282
0.00107132
0.000996615
0.000960402
0.000946973
0.000942703
0.00094148
0.00094116
0.000941167
0.000941758
0.00094465
0.000955442
0.000987583
0.00106174
0.00116129
0.00129755
0.00141986
0.00149166
0.0014955
0.00141658
0.00122985
0.000892578
0.000382376
0.000380319
0.000877584
0.00120582
0.00139509
0.00149557
0.00154018
0.00154805
0.00152776
0.00148166
0.00141167
0.00132438
0.0012294
0.00112712
0.00103562
0.000991049
0.0009742
0.000968728
0.000967159
0.000966804
0.000967006
0.000968306
0.000973244
0.000989235
0.00103311
0.00112643
0.00123768
0.00134784
0.0014331
0.00147592
0.00146415
0.00138194
0.00120145
0.000876724
0.00038038
0.000374945
0.000839493
0.00113842
0.00130668
0.00139468
0.00143488
0.0014463
0.00143795
0.00141233
0.00136902
0.00130804
0.001232
0.00114751
0.0010724
0.00103231
0.00101595
0.00101029
0.00100863
0.00100828
0.00100855
0.00101012
0.00101562
0.00103169
0.00107172
0.00114808
0.00123605
0.00131581
0.00137218
0.00139535
0.00137632
0.00129953
0.00113636
0.000839267
0.000375047
0.000362036
0.000759514
0.0010055
0.00113862
0.00120593
0.00123647
0.00124673
0.00124453
0.0012321
0.00120865
0.00117284
0.00112527
0.0010714
0.00102356
0.000995944
0.000983714
0.00097926
0.000977888
0.000977596
0.000977862
0.000979194
0.000983585
0.000995744
0.00102343
0.00107178
0.0011267
0.00117459
0.00120628
0.0012161
0.00119718
0.00113565
0.00100494
0.000759656
0.000362156
0.000334147
0.00060241
0.000759663
0.000839839
0.000878066
0.000894691
0.00090057
0.000900661
0.000896389
0.000887293
0.000872284
0.000851268
0.000826805
0.000804674
0.000791181
0.000784857
0.00078243
0.000781641
0.000781472
0.000781649
0.000782438
0.000784857
0.000791169
0.000804695
0.000826967
0.000851665
0.000872436
0.000885249
0.000887607
0.000875447
0.000839269
0.000759819
0.000602657
0.000334254
0.00028853
0.000334197
0.000362184
0.000375201
0.000380682
0.000382846
0.000383638
0.000383818
0.000383577
0.000382829
0.000381507
0.00037943
0.00037679
0.000374236
0.00037262
0.000371816
0.000371455
0.000371281
0.000371219
0.00037129
0.000371464
0.00037182
0.000372614
0.000374221
0.000376771
0.000379415
0.00038146
0.0003826
0.000382602
0.000380798
0.000375427
0.000362393
0.000334335
0.0002886
0.000382319
0.000546623
0.000652029
0.00070616
0.000731545
0.000742527
0.000746885
0.000748433
0.000748867
0.000748883
0.000748763
0.00074862
0.000748503
0.000748423
0.000748369
0.000748331
0.000748303
0.000748287
0.000748285
0.000748298
0.000748323
0.000748359
0.000748406
0.000748471
0.000748537
0.000748515
0.00074813
0.000746666
0.000742395
0.000731481
0.000706141
0.000652034
0.000546639
0.000382337
0.000546629
0.000670036
0.000789089
0.000857244
0.000891525
0.000907168
0.000913644
0.000916012
0.000916675
0.000916679
0.000916466
0.000916229
0.000916047
0.000915931
0.000915864
0.000915823
0.000915796
0.000915782
0.000915783
0.000915797
0.000915825
0.000915866
0.000915926
0.000916018
0.000916116
0.000916082
0.000915487
0.000913254
0.000906925
0.000891402
0.0008572
0.000789087
0.000670049
0.000546649
0.000652081
0.000789118
0.000934527
0.00102285
0.00106987
0.00109253
0.00110234
0.00110597
0.00110682
0.00110651
0.00110585
0.00110521
0.00110476
0.0011045
0.00110436
0.00110428
0.00110423
0.00110421
0.00110421
0.00110424
0.00110429
0.00110436
0.00110449
0.00110471
0.001105
0.00110515
0.00110445
0.00110118
0.00109178
0.00106947
0.00102268
0.000934494
0.000789139
0.000652125
0.000706264
0.00085731
0.00102289
0.00112684
0.00118414
0.00121262
0.00122511
0.00122938
0.00122967
0.00122822
0.00122631
0.00122469
0.00122361
0.00122303
0.00122275
0.00122259
0.00122248
0.00122243
0.00122243
0.00122249
0.0012226
0.00122276
0.00122302
0.00122353
0.00122437
0.00122529
0.00122528
0.00122191
0.00121051
0.00118297
0.00112631
0.00102272
0.000857306
0.000706319
0.00073169
0.000891622
0.00106996
0.00118419
0.00124841
0.00128068
0.00129437
0.00129783
0.00129586
0.00129138
0.00128657
0.00128287
0.00128061
0.00127949
0.001279
0.00127871
0.00127848
0.00127836
0.00127836
0.00127849
0.00127872
0.00127901
0.00127948
0.0012805
0.00128246
0.00128528
0.00128773
0.00128642
0.00127541
0.00124544
0.00118277
0.00106943
0.0008915
0.000731701
0.0007427
0.000907287
0.00109265
0.00121274
0.00128078
0.00131454
0.0013273
0.00132739
0.00131986
0.00130871
0.00129795
0.00129052
0.00128657
0.00128492
0.0012843
0.0012839
0.00128352
0.00128328
0.00128328
0.00128353
0.00128392
0.00128432
0.00128491
0.00128646
0.00129006
0.0012965
0.00130462
0.00130934
0.00130265
0.00127404
0.00120946
0.00109132
0.000906872
0.000742562
0.000747075
0.000913782
0.00110253
0.00122536
0.00129474
0.00132771
0.00133677
0.00132946
0.00131073
0.00128635
0.0012646
0.00125166
0.00124662
0.00124538
0.00124518
0.00124503
0.00124455
0.00124419
0.0012442
0.00124457
0.00124505
0.00124521
0.00124538
0.00124652
0.00125121
0.00126311
0.00128206
0.00129964
0.00130345
0.00128109
0.0012187
0.00109973
0.000912805
0.000746627
0.000748641
0.000916182
0.00110627
0.00122995
0.00129885
0.00132893
0.00133108
0.00131088
0.00127218
0.00122366
0.00118388
0.00116391
0.00116213
0.00116469
0.0011663
0.0011676
0.00116751
0.00116716
0.00116717
0.00116752
0.00116763
0.00116633
0.00116471
0.00116207
0.00116352
0.00118244
0.00121936
0.00126088
0.00128428
0.00127423
0.00121801
0.00110121
0.000914321
0.000747679
0.000749108
0.000916913
0.00110735
0.00123086
0.00129824
0.00132396
0.00131645
0.00127765
0.00120798
0.00112002
0.00106311
0.00102435
0.00103825
0.00105259
0.00105784
0.00106369
0.0010653
0.00106538
0.00106539
0.00106532
0.00106373
0.00105788
0.00105264
0.00103825
0.00102406
0.00106173
0.00111576
0.00119661
0.00125079
0.00125906
0.00121218
0.00109943
0.000913926
0.000747474
0.000749186
0.000917044
0.00110746
0.00123049
0.00129619
0.00131758
0.00130028
0.00124151
0.00113629
0.00100951
0.00117543
0.000852862
0.000896841
0.000933773
0.000943135
0.000957728
0.000962468
0.000963368
0.000963375
0.000962491
0.000957766
0.000943187
0.000933848
0.000896909
0.000852706
0.00117293
0.00100484
0.00112469
0.0012144
0.00124256
0.00120535
0.00109685
0.000912993
0.000746901
0.000749159
0.000917027
0.00110741
0.0012302
0.00129507
0.00131428
0.00129207
0.00122409
0.00111544
0.00126343
0.00089421
0.000789224
0.000837106
0.000862478
0.000867022
0.00086758
0.000867604
0.000867607
0.000867591
0.000867042
0.000862516
0.000837168
0.000789301
0.000894348
0.00125338
0.00110317
0.00119671
0.00123412
0.00120179
0.00109544
0.00091242
0.000746531
0.000749131
0.00091703
0.00110752
0.00123055
0.00129595
0.00131639
0.001297
0.00123426
0.00112193
0.000980609
0.00107923
0.000791027
0.000856255
0.000908568
0.000951338
0.000930544
0.000922022
0.000920059
0.000920054
0.000922005
0.000930514
0.00095132
0.000908546
0.000856203
0.000790692
0.00107644
0.000975806
0.0011102
0.00120697
0.001239
0.00120377
0.00109614
0.000912619
0.000746622
0.000749124
0.000917087
0.00110781
0.00123143
0.0012983
0.00132212
0.00131017
0.00126273
0.00117779
0.00106418
0.000967547
0.000897445
0.000892266
0.000895262
0.000902934
0.000896108
0.000892537
0.000891474
0.00089147
0.000892525
0.000896087
0.00090291
0.000895206
0.000892125
0.000896997
0.000966027
0.00105978
0.00116623
0.00123549
0.00125214
0.00120939
0.00109836
0.000913408
0.000747053
0.000749124
0.000917166
0.00110815
0.00123246
0.00130094
0.00132835
0.00132377
0.00129018
0.0012281
0.00114281
0.00105258
0.000978773
0.000933734
0.000906322
0.000896062
0.000890929
0.000888871
0.000888223
0.00088822
0.000888859
0.000890906
0.000896022
0.000906238
0.00093355
0.00097828
0.00105106
0.00113838
0.00121648
0.00126286
0.00126563
0.00121548
0.00110085
0.000914328
0.000747545
0.000749118
0.000917233
0.00110844
0.00123332
0.00130308
0.0013332
0.00133379
0.00130909
0.00126003
0.00118912
0.00110534
0.00102413
0.000961632
0.000919947
0.00090203
0.000895573
0.000893482
0.000892888
0.000892884
0.000893469
0.000895548
0.000901982
0.000919852
0.000961436
0.00102361
0.00110376
0.0011846
0.0012483
0.00128164
0.0012755
0.00122016
0.00110283
0.000915067
0.000747919
0.0007491
0.000917276
0.00110863
0.00123389
0.00130448
0.00133625
0.00133983
0.00131983
0.001277
0.00121212
0.00113064
0.00104551
0.000975621
0.000927818
0.000906691
0.000899252
0.000896953
0.000896329
0.000896325
0.000896939
0.000899226
0.000906641
0.000927719
0.000975419
0.00104497
0.00112903
0.00120754
0.00126518
0.00129227
0.0012814
0.00122306
0.00110409
0.000915536
0.000748133
0.000749075
0.000917297
0.00110875
0.00123421
0.00130525
0.00133788
0.00134292
0.00132508
0.00128485
0.00122219
0.00114126
0.00105434
0.00098146
0.000931241
0.000908852
0.000900958
0.000898535
0.00089788
0.000897874
0.000898519
0.000900931
0.000908801
0.000931141
0.000981255
0.00105378
0.00113963
0.00121757
0.00127296
0.00129744
0.00128439
0.00122459
0.00110476
0.000915783
0.000748223
0.000749051
0.000917304
0.0011088
0.00123435
0.00130559
0.00133856
0.00134418
0.00132714
0.0012878
0.00122582
0.00114496
0.00105736
0.000983448
0.000932417
0.0009096
0.000901542
0.000899065
0.00089839
0.000898383
0.000899048
0.000901513
0.000909548
0.000932316
0.000983243
0.0010568
0.00114333
0.00122119
0.00127589
0.00129945
0.00128559
0.00122521
0.00110504
0.000915884
0.00074824
0.000749034
0.000917302
0.0011088
0.00123436
0.0013056
0.00133859
0.00134421
0.00132718
0.00128786
0.00122589
0.00114504
0.00105743
0.00098351
0.000932458
0.000909622
0.000901552
0.000899067
0.000898383
0.000898375
0.000899049
0.000901523
0.00090957
0.000932358
0.000983306
0.00105688
0.00114341
0.00122126
0.00127595
0.0012995
0.00128562
0.00122523
0.00110505
0.000915885
0.000748219
0.000749033
0.000917294
0.00110876
0.00123424
0.0013053
0.00133795
0.00134302
0.00132522
0.00128503
0.00122241
0.0011415
0.00105458
0.00098166
0.000931378
0.00090893
0.000901002
0.000898554
0.000897877
0.000897869
0.000898536
0.000900974
0.00090888
0.000931281
0.000981463
0.00105404
0.00113989
0.0012178
0.00127315
0.00129758
0.00128449
0.00122465
0.00110479
0.000915789
0.000748168
0.000749044
0.000917273
0.00110865
0.00123394
0.00130457
0.00133637
0.00134001
0.00132008
0.00127731
0.00121252
0.0011311
0.00104598
0.000976005
0.000928086
0.000906858
0.000899363
0.000897029
0.000896378
0.00089637
0.000897013
0.000899338
0.000906814
0.000928
0.000975825
0.00104547
0.00112953
0.00120797
0.00126552
0.00129252
0.00128157
0.00122317
0.00110415
0.00091555
0.000748062
0.000749055
0.000917232
0.00110846
0.00123338
0.00130319
0.00133337
0.00133404
0.00130944
0.00126051
0.00118975
0.0011061
0.00102489
0.000962256
0.000920373
0.000902297
0.000895767
0.00089364
0.000893023
0.000893018
0.000893629
0.00089575
0.000902265
0.000920306
0.000962107
0.00102444
0.0011046
0.00118529
0.00124882
0.001282
0.00127574
0.00122031
0.00110291
0.000915089
0.000747841
0.000749055
0.000917161
0.00110817
0.00123252
0.00130106
0.00132854
0.00132406
0.00129061
0.00122874
0.00114372
0.00105372
0.000979903
0.000934532
0.000906742
0.000896213
0.000891009
0.000888926
0.000888265
0.000888263
0.00088892
0.000890997
0.000896187
0.000906688
0.000934416
0.000979521
0.00105231
0.00113935
0.00121713
0.00126328
0.00126589
0.00121564
0.00110093
0.000914352
0.000747461
0.00074904
0.000917062
0.00110779
0.00123144
0.00129834
0.00132223
0.00131039
0.00126312
0.00117847
0.00106526
0.00096905
0.000898738
0.000892573
0.000894769
0.000901917
0.000895031
0.000891435
0.000890364
0.000890362
0.000891424
0.000894995
0.000901841
0.000894626
0.00089237
0.000898363
0.00096766
0.00106086
0.00116677
0.00123573
0.00125225
0.00120945
0.00109838
0.000913405
0.000746946
0.000748996
0.000916922
0.00110735
0.00123032
0.00129569
0.00131615
0.00129681
0.00123418
0.00112208
0.00098123
0.0010826
0.00079021
0.000853288
0.000903988
0.000945777
0.000924606
0.000915929
0.000913941
0.000913936
0.000915892
0.000924466
0.000945457
0.000903266
0.000852221
0.000789014
0.00107995
0.00097578
0.00110962
0.00120632
0.0012385
0.00120344
0.00109594
0.000912505
0.000746441
0.000748859
0.000916647
0.00110676
0.00122926
0.00129391
0.00131295
0.00129056
0.00122234
0.00111318
0.0012578
0.000870272
0.000770714
0.000813668
0.000835429
0.000838536
0.000838729
0.000838682
0.000838626
0.000838488
0.000837838
0.000833706
0.000810111
0.000764814
0.000859176
0.00124125
0.00109809
0.00119333
0.00123189
0.00120038
0.0010946
0.000911974
0.000746144
0.000748377
0.000915854
0.00110543
0.00122763
0.00129262
0.00131341
0.00129546
0.00123566
0.00112833
0.000996007
0.00113102
0.000813728
0.000844196
0.000866836
0.000866984
0.000877309
0.000881129
0.000881933
0.000881805
0.000880551
0.000875532
0.00086228
0.000856634
0.000827126
0.000792029
0.00109467
0.000978664
0.00110976
0.00120493
0.00123641
0.00120136
0.00109438
0.000911638
0.00074595
0.000746851
0.00091349
0.00110174
0.00122314
0.00128878
0.00131309
0.00130406
0.00126281
0.00118827
0.00109017
0.00101306
0.000949663
0.000933144
0.000919421
0.000906499
0.000904269
0.000903953
0.000903798
0.000903579
0.000902932
0.000900982
0.000897465
0.000899349
0.000901193
0.00091196
0.00097786
0.00106395
0.00116434
0.00122987
0.00124496
0.0012025
0.00109307
0.000910227
0.000745014
0.000742545
0.000907087
0.0010921
0.00121111
0.00127633
0.0013036
0.00130304
0.00127883
0.0012325
0.00116923
0.00110364
0.00104687
0.00100177
0.000967118
0.000941077
0.000930215
0.000926633
0.000925579
0.000925282
0.000925216
0.000925511
0.000927736
0.000937364
0.000960644
0.00099745
0.00105943
0.00113551
0.00120427
0.00124466
0.00124524
0.00119652
0.00108604
0.00090487
0.000741342
0.00073161
0.000891526
0.00106967
0.00118325
0.0012457
0.00127377
0.00127879
0.00126636
0.00123855
0.00119736
0.00114724
0.00109349
0.00104056
0.000997789
0.000966261
0.000952137
0.000947185
0.000945694
0.000945351
0.000945559
0.000946792
0.00095128
0.000964861
0.000996056
0.0010409
0.00110058
0.00116174
0.00120981
0.00123368
0.00122499
0.00117375
0.00106583
0.000890187
0.000730933
0.000706249
0.000857297
0.00102282
0.00112647
0.00118283
0.00120894
0.00121634
0.00121094
0.00119477
0.0011682
0.00113188
0.0010878
0.00104055
0.00099957
0.000971828
0.000958806
0.000953924
0.000952369
0.000952023
0.00095233
0.000953811
0.000958559
0.000971438
0.00099928
0.00104138
0.00109115
0.00113718
0.00117003
0.0011831
0.00116998
0.00112081
0.00102064
0.000856594
0.000705942
0.000652114
0.000789158
0.000934595
0.00102285
0.00106948
0.001091
0.00109816
0.00109644
0.00108762
0.00107155
0.00104771
0.00101677
0.000982334
0.000951726
0.000931556
0.000921705
0.000917814
0.000916513
0.000916222
0.000916515
0.000917806
0.000921672
0.000931507
0.00095179
0.000982867
0.00101811
0.00104911
0.00106976
0.00107588
0.00106235
0.00101989
0.000933545
0.000788861
0.000652034
0.000546687
0.000670092
0.000789212
0.000857415
0.000891607
0.000906815
0.000912122
0.000911913
0.000907564
0.000898818
0.000884958
0.000866074
0.000844448
0.00082494
0.000812277
0.000806011
0.000803473
0.0008026
0.000802405
0.000802618
0.000803503
0.000806049
0.000812327
0.000825052
0.00084473
0.000866578
0.000885162
0.000896853
0.000899151
0.000888246
0.000856157
0.000788831
0.000670015
0.000546716
0.000382367
0.000546686
0.000652201
0.000706449
0.000731875
0.000742698
0.000746448
0.000746488
0.000743775
0.000738001
0.000728463
0.000715018
0.000699267
0.00068499
0.000676188
0.000671996
0.000670311
0.000669715
0.000669577
0.000669733
0.000670341
0.000672031
0.000676227
0.000685054
0.000699417
0.000715283
0.000728527
0.000736654
0.000738089
0.000730055
0.000705899
0.000652112
0.000546708
0.000382432
0.000437653
0.000697439
0.000870972
0.000964586
0.00101098
0.00103222
0.00104111
0.0010444
0.00104533
0.00104531
0.00104496
0.00104457
0.00104424
0.00104402
0.00104389
0.00104379
0.00104373
0.0010437
0.0010437
0.00104373
0.00104379
0.00104388
0.001044
0.00104418
0.00104438
0.00104437
0.00104357
0.00104048
0.00103181
0.00101075
0.00096447
0.000870924
0.000697429
0.000437672
0.000697438
0.000789108
0.000915611
0.000993814
0.00103547
0.00105546
0.00106413
0.00106743
0.00106838
0.00106837
0.00106804
0.00106766
0.00106735
0.00106715
0.00106703
0.00106696
0.00106691
0.00106689
0.00106689
0.00106691
0.00106696
0.00106703
0.00106714
0.0010673
0.00106746
0.00106742
0.00106658
0.00106347
0.00105503
0.00103522
0.000993695
0.000915564
0.000789089
0.000697424
0.000871028
0.00091563
0.00104476
0.00113154
0.00118074
0.00120565
0.00121692
0.00122123
0.00122225
0.00122186
0.00122099
0.00122013
0.00121948
0.00121908
0.00121885
0.00121871
0.00121863
0.00121859
0.00121859
0.00121863
0.00121871
0.00121884
0.00121905
0.00121939
0.00121981
0.00122004
0.00121919
0.00121531
0.00120457
0.00118011
0.00113123
0.00104464
0.000915595
0.000871013
0.000964714
0.000993867
0.00113158
0.0012278
0.00128425
0.00131368
0.00132711
0.00133185
0.00133218
0.00133053
0.00132831
0.00132636
0.00132499
0.00132418
0.00132374
0.00132349
0.00132334
0.00132326
0.00132327
0.00132334
0.0013235
0.00132373
0.00132415
0.00132486
0.00132592
0.001327
0.00132696
0.0013232
0.00131101
0.00128268
0.00122701
0.00113125
0.00099376
0.000964657
0.00101117
0.00103556
0.00118081
0.00128431
0.00134607
0.00137851
0.00139278
0.00139654
0.00139454
0.00138984
0.00138473
0.00138064
0.00137801
0.00137654
0.00137576
0.00137537
0.00137512
0.00137498
0.00137498
0.00137512
0.00137537
0.00137575
0.0013765
0.00137785
0.00138009
0.00138312
0.00138553
0.00138389
0.00137239
0.00134242
0.00128242
0.00117998
0.00103524
0.00101094
0.00103246
0.00105558
0.00120578
0.00131382
0.00137864
0.00141217
0.00142532
0.00142569
0.00141836
0.00140742
0.00139679
0.00138905
0.00138474
0.00138247
0.00138125
0.00138085
0.00138053
0.00138032
0.00138032
0.00138054
0.00138086
0.00138125
0.00138244
0.00138456
0.00138843
0.00139498
0.00140259
0.00140655
0.00139923
0.00137091
0.00130977
0.00120391
0.0010548
0.00103182
0.0010414
0.00106429
0.00121714
0.00132743
0.00139324
0.0014258
0.0014353
0.00142874
0.00141133
0.001389
0.00136903
0.00135564
0.00135036
0.00134784
0.00134604
0.00134644
0.00134635
0.00134609
0.00134609
0.00134636
0.00134645
0.00134605
0.00134781
0.00135019
0.00135501
0.00136711
0.00138386
0.0013988
0.00140084
0.00137841
0.00131963
0.00121348
0.00106268
0.00103997
0.00104476
0.00106766
0.00122163
0.00133257
0.00139779
0.00142748
0.00143055
0.00141265
0.00137877
0.00133808
0.00130549
0.00128154
0.00127998
0.00127965
0.00127631
0.00128075
0.001282
0.00128189
0.00128189
0.00128201
0.00128077
0.00127632
0.00127964
0.00127984
0.00128094
0.00130352
0.00133272