/*--------------------------------*- C++ -*----------------------------------*\
| =========                 |                                                 |
| \\      /  F ield         | OpenFOAM: The Open Source CFD Toolbox           |
|  \\    /   O peration     | Version:  2112                                  |
|   \\  /    A nd           | Website:  www.openfoam.com                      |
|    \\/     M anipulation  |                                                 |
\*---------------------------------------------------------------------------*/
FoamFile
{
    version     2.0;
    format      ascii;
    arch        "LSB;label=32;scalar=64";
    class       volScalarField;
    location    "3.1";
    object      k;
}
// * * * * * * * * * * * * * * * * * * * * * * * * * * * * * * * * * * * * * //

dimensions      [0 2 -2 0 0 0 0];

internalField   nonuniform List<scalar> 
64906
(
0.000399068
0.00044056
0.000465106
0.000476333
0.00048101
0.000482826
0.000483484
0.000483706
0.00048377
0.00048378
0.000483774
0.000483766
0.000483756
0.000483746
0.000483735
0.000483723
0.00048371
0.000483699
0.000483693
0.0004837
0.000483711
0.000483723
0.000483733
0.000483741
0.000483745
0.000483735
0.000483678
0.00048347
0.000482823
0.000481016
0.000476344
0.000465125
0.000440581
0.000399085
0.000440583
0.000653662
0.000763668
0.000817039
0.000842083
0.000853138
0.000857643
0.000859293
0.000859779
0.000859821
0.000859718
0.000859596
0.000859508
0.000859462
0.000859443
0.000859433
0.000859427
0.000859423
0.000859423
0.000859428
0.000859435
0.000859444
0.00085946
0.000859491
0.000859524
0.000859466
0.000859025
0.000857463
0.000853052
0.000842074
0.000817079
0.000763731
0.000653724
0.000440626
0.000465169
0.000763714
0.000921677
0.00100213
0.00104209
0.00106079
0.00106882
0.00107181
0.00107256
0.00107238
0.00107191
0.00107147
0.00107117
0.00107102
0.00107098
0.00107096
0.00107095
0.00107095
0.00107095
0.00107096
0.00107097
0.00107099
0.00107103
0.00107114
0.00107131
0.00107136
0.00107073
0.00106803
0.00106032
0.00104189
0.00100211
0.000921753
0.000763819
0.000465242
0.000476424
0.000817131
0.00100218
0.00109973
0.00114996
0.00117427
0.00118486
0.00118851
0.00118882
0.00118765
0.00118607
0.00118474
0.00118386
0.00118344
0.00118328
0.00118319
0.00118313
0.0011831
0.0011831
0.00118314
0.00118321
0.00118329
0.00118344
0.00118381
0.00118448
0.00118523
0.0011852
0.00118232
0.00117266
0.00114914
0.00109943
0.00100217
0.000817242
0.00047652
0.000481118
0.000842206
0.00104218
0.00115001
0.00120675
0.00123454
0.00124625
0.00124924
0.00124755
0.00124366
0.0012394
0.00123609
0.00123402
0.00123306
0.00123271
0.00123247
0.00123227
0.00123217
0.00123217
0.00123229
0.00123249
0.00123273
0.00123307
0.00123395
0.00123576
0.00123833
0.00124059
0.00123957
0.0012302
0.00120439
0.00114898
0.0010419
0.000842255
0.000481228
0.000482942
0.000853276
0.00106092
0.00117438
0.00123462
0.00126379
0.00127472
0.00127474
0.00126808
0.00125802
0.00124803
0.00124107
0.00123712
0.00123554
0.00123509
0.00123461
0.00123415
0.0012339
0.0012339
0.00123417
0.00123464
0.00123511
0.00123555
0.00123705
0.00124071
0.00124683
0.00125456
0.00125915
0.00125368
0.00122903
0.00117179
0.00106001
0.000853143
0.000483052
0.000483602
0.000857791
0.001069
0.00118508
0.00124656
0.00127507
0.00128276
0.00127617
0.00125916
0.00123628
0.00121501
0.00120307
0.00119753
0.00119613
0.00119626
0.00119556
0.00119472
0.00119426
0.00119426
0.00119474
0.00119559
0.0011963
0.00119616
0.00119748
0.00120272
0.00121379
0.00123269
0.00124978
0.00125404
0.001235
0.00117962
0.00106691
0.000857288
0.000483691
0.00048382
0.000859453
0.00107207
0.00118898
0.00125011
0.0012761
0.00127762
0.00125911
0.00122256
0.00117369
0.00112982
0.00111641
0.00111446
0.00111671
0.00111929
0.00111872
0.0011176
0.00111699
0.001117
0.00111762
0.00111876
0.00111934
0.00111675
0.00111444
0.00111614
0.00112871
0.00117019
0.0012131
0.00123655
0.0012289
0.00117903
0.00106814
0.000858356
0.000483859
0.000483878
0.00085997
0.00107299
0.00118981
0.00124962
0.00127174
0.00126433
0.00122747
0.00115661
0.00105276
0.000954849
0.00096764
0.000990157
0.00100496
0.00101304
0.00101386
0.00101321
0.0010128
0.00101281
0.00101324
0.0010139
0.0010131
0.00100502
0.000990195
0.000967516
0.000954005
0.00104957
0.00114732
0.00120484
0.00121525
0.001174
0.0010667
0.000858102
0.00048384
0.000483878
0.000860078
0.00107312
0.00118957
0.00124792
0.00126605
0.00124897
0.0011895
0.00106551
0.000841463
0.000588928
0.000739306
0.000841818
0.000883171
0.000898439
0.000902719
0.000903707
0.000903878
0.000903886
0.000903731
0.000902759
0.0008985
0.000883256
0.000841928
0.000739409
0.00058863
0.000838938
0.00105652
0.00116691
0.00119975
0.00116801
0.00106461
0.000857476
0.000483752
0.000483865
0.000860085
0.00107314
0.00118939
0.00124702
0.00126307
0.00124048
0.00116555
0.00099185
0.000603678
0.00053859
0.000730512
0.000794535
0.000813766
0.000819799
0.000821434
0.00082179
0.000821794
0.000821448
0.000819824
0.000813808
0.000794608
0.000730633
0.000538672
0.000602445
0.000983209
0.00114298
0.00119116
0.00116487
0.00106351
0.000857115
0.000483683
0.000483852
0.000860102
0.00107329
0.00118979
0.00124795
0.00126532
0.00124649
0.00118368
0.00105444
0.000823728
0.000574068
0.000687352
0.000776313
0.00081084
0.000821013
0.000826055
0.000827339
0.000827496
0.000827494
0.000827334
0.000826048
0.000821002
0.00081083
0.000776301
0.000687241
0.000573637
0.000821004
0.00104534
0.00116097
0.00119708
0.001167
0.00106426
0.0008573
0.000483686
0.000483841
0.00086015
0.00107357
0.00119064
0.00125011
0.00127064
0.00125933
0.00121475
0.00113051
0.00100585
0.00088026
0.000851249
0.00084043
0.000837765
0.000836932
0.000837335
0.000837291
0.00083715
0.000837145
0.000837276
0.000837308
0.000836887
0.000837692
0.00084029
0.000850905
0.00087921
0.00100253
0.00112111
0.00119192
0.00120983
0.00117219
0.00106625
0.000857895
0.000483728
0.000483826
0.000860207
0.00107389
0.00119158
0.00125249
0.00127621
0.00127168
0.00124084
0.00118247
0.00109926
0.00100791
0.000936727
0.000883388
0.000858788
0.000849767
0.000846867
0.000845856
0.0008455
0.000845493
0.000845833
0.000846827
0.000849704
0.000858685
0.000883205
0.00093633
0.00100669
0.0010957
0.00117287
0.00121785
0.00122204
0.0011776
0.00106841
0.000858562
0.000483768
0.000483808
0.000860251
0.00107416
0.00119236
0.00125438
0.00128045
0.00128046
0.00125761
0.0012116
0.00114338
0.00106021
0.000976012
0.000905982
0.000871008
0.000857452
0.000852807
0.000851255
0.000850753
0.000850742
0.000851223
0.000852758
0.000857378
0.000870893
0.000905788
0.000975594
0.00105894
0.0011397
0.00120186
0.00123447
0.00123066
0.00118166
0.0010701
0.000859085
0.000483785
0.000483786
0.000860274
0.00107435
0.00119288
0.00125563
0.00128311
0.00128566
0.00126684
0.00122618
0.00116322
0.0010818
0.000992891
0.000916221
0.000876846
0.000861209
0.000855756
0.000853923
0.000853314
0.000853298
0.000853882
0.000855699
0.000861129
0.000876727
0.000916021
0.000992401
0.0010805
0.00115948
0.00121635
0.00124358
0.00123573
0.00118417
0.00107118
0.000859408
0.000483777
0.000483762
0.00086028
0.00107445
0.00119318
0.00125632
0.00128453
0.00128832
0.00127128
0.00123275
0.00117152
0.00109032
0.000999589
0.000920322
0.000879233
0.000862753
0.000856959
0.000854983
0.000854288
0.000854266
0.000854934
0.000856895
0.000862669
0.00087911
0.000920119
0.000999091
0.00108901
0.00116775
0.00122286
0.00124796
0.00123829
0.00118549
0.00107175
0.000859572
0.000483754
0.000483738
0.000860277
0.0010745
0.00119332
0.00125663
0.00128514
0.00128941
0.00127303
0.00123522
0.00117448
0.00109324
0.00100186
0.000921708
0.000880042
0.000863268
0.000857345
0.000855299
0.00085454
0.000854511
0.000855243
0.000857277
0.000863181
0.000879916
0.000921503
0.00100136
0.00109192
0.00117069
0.0012253
0.00124967
0.00123934
0.00118605
0.001072
0.000859634
0.000483723
0.000483719
0.000860271
0.00107451
0.00119333
0.00125665
0.00128518
0.00128946
0.00127309
0.00123529
0.00117457
0.00109334
0.00100195
0.000921774
0.000880081
0.000863284
0.000857341
0.00085527
0.000854472
0.000854437
0.000855209
0.000857269
0.000863194
0.000879955
0.00092157
0.00100146
0.00109202
0.00117079
0.00122538
0.00124973
0.00123939
0.00118608
0.00107202
0.000859631
0.000483692
0.000483717
0.000860266
0.00107447
0.00119323
0.00125639
0.00128464
0.00128846
0.00127147
0.00123299
0.00117179
0.00109063
0.000999887
0.000920531
0.000879362
0.00086281
0.000856955
0.000854907
0.000854112
0.000854074
0.000854842
0.00085688
0.000862719
0.000879237
0.000920333
0.000999406
0.00108933
0.00116804
0.00122312
0.00124816
0.00123844
0.00118559
0.00107181
0.000859568
0.000483685
0.000483734
0.00086026
0.00107439
0.00119296
0.00125575
0.00128328
0.0012859
0.00126715
0.00122659
0.00116371
0.00108236
0.000993455
0.000916614
0.000877094
0.000861333
0.000855777
0.000853832
0.000853095
0.000853061
0.000853767
0.000855702
0.000861244
0.000876976
0.000916428
0.000993002
0.00108111
0.00116002
0.0012168
0.00124393
0.00123598
0.00118434
0.00107128
0.000859413
0.0004837
0.000483754
0.000860241
0.00107422
0.00119247
0.00125456
0.00128069
0.0012808
0.00125807
0.00121221
0.00114416
0.00106113
0.000976878
0.000906617
0.000871409
0.000857668
0.000852877
0.000851187
0.000850565
0.000850539
0.000851129
0.000852807
0.000857588
0.000871306
0.00090646
0.000976487
0.00105996
0.00114057
0.00120253
0.00123497
0.00123102
0.0011819
0.00107025
0.000859105
0.000483706
0.000483773
0.000860202
0.00107396
0.00119171
0.00125269
0.0012765
0.0012721
0.00124143
0.0011833
0.00110042
0.00100936
0.00093798
0.000884266
0.00085928
0.000849991
0.000846898
0.000845744
0.000845295
0.000845277
0.000845698
0.000846837
0.000849919
0.000859194
0.000884152
0.000937719
0.00100832
0.001097
0.00117378
0.00121848
0.00122247
0.00117789
0.00106858
0.000858598
0.000483689
0.000483787
0.00086014
0.00107362
0.00119073
0.00125027
0.00127089
0.00125972
0.00121537
0.0011315
0.0010074
0.000882409
0.000853046
0.000841131
0.00083777
0.000836536
0.000836684
0.0008365
0.000836289
0.000836275
0.00083646
0.000836618
0.000836438
0.000837644
0.000841015
0.000852941
0.000881652
0.00100429
0.00112214
0.0011925
0.00121019
0.00117244
0.0010664
0.000857932
0.00048365
0.000483794
0.000860047
0.00107322
0.00118972
0.00124788
0.00126531
0.00124658
0.00118401
0.00105528
0.000825494
0.000575243
0.000687967
0.000774531
0.000807766
0.000817134
0.000821774
0.000822901
0.000822995
0.000822977
0.000822838
0.000821626
0.000816824
0.000807249
0.000773956
0.000687867
0.000574866
0.000822966
0.0010459
0.00116098
0.001197
0.00116697
0.00106427
0.000857283
0.000483606
0.00048379
0.000859859
0.0010727
0.00118875
0.0012462
0.00126215
0.00123948
0.00116449
0.000990923
0.000603299
0.000533873
0.000718996
0.000779091
0.000795744
0.000800806
0.000802148
0.000802401
0.00080235
0.000801946
0.000800281
0.00079453
0.000776746
0.00071557
0.000531621
0.000601109
0.000980656
0.00114072
0.00118964
0.00116397
0.00106304
0.000856898
0.000483584
0.00048374
0.000859318
0.0010716
0.00118732
0.00124509
0.00126278
0.00124527
0.00118519
0.00106037
0.000835657
0.00058358
0.000715597
0.000804805
0.000833626
0.000840672
0.000842677
0.000843274
0.000843387
0.000843283
0.000842826
0.000841351
0.000837206
0.000826079
0.00079187
0.000702567
0.000577754
0.000826328
0.00104613
0.00115962
0.00119498
0.00116501
0.00106287
0.000856678
0.000483575
0.000483541
0.0008577
0.00106859
0.00118352
0.00124185
0.0012628
0.00125418
0.0012154
0.00114086
0.00103003
0.000919441
0.000908275
0.000902907
0.000888509
0.000879317
0.000875634
0.000874447
0.000874081
0.000873917
0.000873693
0.000873212
0.00087244
0.000871868
0.000871547
0.000874401
0.000891829
0.00100792
0.00112019
0.00118722
0.0012036
0.00116624
0.00106186
0.00085574
0.000483454
0.000482902
0.000853265
0.00106072
0.00117335
0.00123125
0.00125484
0.00125409
0.00123214
0.00118889
0.00112692
0.00105964
0.00100942
0.000960145
0.000914106
0.000891371
0.000882855
0.000880134
0.000879351
0.000879146
0.000879151
0.000879533
0.00088139
0.000888279
0.000908592
0.000954556
0.00101468
0.00109393
0.00116272
0.00120223
0.00120443
0.00116132
0.00105617
0.000852039
0.00048289
0.000481098
0.000842278
0.00104221
0.00114958
0.00120489
0.00122915
0.00123339
0.00122228
0.00119695
0.00115806
0.00110874
0.00105391
0.000993483
0.000938023
0.000910399
0.00089983
0.000896375
0.000895379
0.000895154
0.000895283
0.000896108
0.000899231
0.000909281
0.000936528
0.000993163
0.0010588
0.00112196
0.00116976
0.00119349
0.0011872
0.00114194
0.0010395
0.000841663
0.000481144
0.000476422
0.000817273
0.0010024
0.0010998
0.00114933
0.00117173
0.00117805
0.00117332
0.00115887
0.00113435
0.00109952
0.00105549
0.00100568
0.000960487
0.000935913
0.000925777
0.000922241
0.000921197
0.00092098
0.000921147
0.00092214
0.00092557
0.000935539
0.000960089
0.00100606
0.00105787
0.00110393
0.00113602
0.00114918
0.00113868
0.0010955
0.00100107
0.000817091
0.000476506
0.000465192
0.000763901
0.000922008
0.00100251
0.00104225
0.00106015
0.00106614
0.0010648
0.00105739
0.00104343
0.00102205
0.000993471
0.00096075
0.000931302
0.000914081
0.000906388
0.000903569
0.000902696
0.00090251
0.00090268
0.000903528
0.000906307
0.000913959
0.000931228
0.000960995
0.000994341
0.00102308
0.00104196
0.00104787
0.00103688
0.00100061
0.000921609
0.000763981
0.000465296
0.000440631
0.000653843
0.000764002
0.000817501
0.000842584
0.00085346
0.000857302
0.00085733
0.000854465
0.000848404
0.000838427
0.000824443
0.000808096
0.00079321
0.000784063
0.000779748
0.000778084
0.000777541
0.000777423
0.000777545
0.000778089
0.000779748
0.000784055
0.000793228
0.00080821
0.000824709
0.000838518
0.000847028
0.000848651
0.00084076
0.00081707
0.000764088
0.000654019
0.000440726
0.000399114
0.000440676
0.000465324
0.000476646
0.000481412
0.000483304
0.000483997
0.00048415
0.000483927
0.000483255
0.000482075
0.000480238
0.000477911
0.000475663
0.000474237
0.000473526
0.000473207
0.000473054
0.000472999
0.000473062
0.000473215
0.000473529
0.000474232
0.00047565
0.000477895
0.000480226
0.000482034
0.000483051
0.000483065
0.0004815
0.000476836
0.000465505
0.0004408
0.00039918
0.000571729
0.000726804
0.000818362
0.000863702
0.00088472
0.000893819
0.000897451
0.000898751
0.000899118
0.000899131
0.000899027
0.000898903
0.000898802
0.000898732
0.000898687
0.000898654
0.00089863
0.000898616
0.000898615
0.000898626
0.000898647
0.000898677
0.000898719
0.000898775
0.000898832
0.000898813
0.000898488
0.00089726
0.000893701
0.000884662
0.000863683
0.000818365
0.000726818
0.000571747
0.00072681
0.00137233
0.0016539
0.00179767
0.00186947
0.00190326
0.00191787
0.00192343
0.00192498
0.00192488
0.00192419
0.00192342
0.00192281
0.0019224
0.00192214
0.00192198
0.00192187
0.00192182
0.00192182
0.00192188
0.00192198
0.00192214
0.00192237
0.00192271
0.00192309
0.00192313
0.00192178
0.0019166
0.00190241
0.00186898
0.00179741
0.00165379
0.00137229
0.000726827
0.000818406
0.001654
0.00202561
0.00222342
0.00232683
0.00237779
0.00240072
0.00240949
0.00241151
0.00241055
0.00240857
0.0024066
0.00240512
0.0024042
0.00240369
0.00240338
0.00240318
0.00240309
0.00240309
0.00240319
0.00240339
0.00240369
0.00240416
0.00240493
0.00240594
0.00240657
0.00240499
0.0023972
0.00237542
0.00232545
0.00222275
0.00202535
0.00165395
0.000818443
0.000863789
0.00179785
0.00222352
0.00245683
0.00258248
0.00264601
0.00267476
0.00268486
0.00268538
0.00268143
0.00267611
0.00267132
0.00266791
0.00266592
0.00266488
0.00266425
0.00266384
0.00266363
0.00266363
0.00266385
0.00266426
0.00266488
0.00266586
0.00266762
0.00267034
0.0026732
0.00267359
0.00266587
0.00263997
0.00257892
0.00245504
0.00222278
0.00179766
0.00086383
0.00088484
0.00186971
0.00232701
0.00258259
0.00272263
0.00279391
0.00282493
0.00283284
0.00282783
0.00281645
0.00280371
0.00279315
0.00278607
0.00278223
0.00278036
0.00277916
0.00277831
0.00277787
0.00277788
0.00277833
0.00277918
0.00278037
0.00278215
0.0027857
0.00279192
0.00280009
0.00280682
0.00280431
0.00277986
0.0027143
0.0025783
0.00232515
0.00186912
0.000884841
0.000893961
0.00190354
0.00237807
0.00264631
0.0027942
0.00286827
0.0028968
0.00289679
0.00287891
0.00285176
0.00282418
0.00280338
0.00279056
0.00278438
0.00278176
0.00277976
0.00277818
0.00277733
0.00277734
0.0027782
0.00277979
0.00278177
0.0027843
0.00279016
0.00280201
0.00282012
0.00284096
0.0028527
0.0028384
0.00277651
0.00263713
0.00237396
0.00190209
0.000893832
0.000897608
0.00191821
0.00240119
0.00267549
0.002826
0.00289795
0.00291797
0.00290132
0.00285808
0.00279996
0.0027447
0.00270915
0.0026904
0.0026833
0.00268132
0.0026786
0.00267601
0.00267461
0.00267462
0.00267603
0.00267863
0.00268135
0.00268325
0.00269003
0.00270779
0.00274052
0.00278858
0.00283033
0.00283971
0.00279197
0.00265785
0.00239318
0.00191523
0.000897212
0.000898925
0.00192389
0.00241036
0.00268653
0.0028358
0.00290113
0.00290571
0.00286036
0.00277143
0.0026539
0.002547
0.00249978
0.00248457
0.00248387
0.00248672
0.00248429
0.00248099
0.00247918
0.00247919
0.00248101
0.00248433
0.00248677
0.00248386
0.0024843
0.00249859
0.002543
0.00264246
0.00274296
0.00279698
0.00277654
0.00265623
0.00239655
0.00191859
0.000898092
0.000899321
0.00192568
0.00241314
0.0026889
0.00283462
0.00289016
0.00287323
0.00278543
0.00262001
0.00238414
0.00216273
0.00214889
0.0021797
0.00220537
0.00222008
0.00222163
0.00221972
0.00221841
0.00221842
0.00221975
0.00222167
0.00222014
0.00220542
0.0021796
0.00214809
0.00215931
0.00237303
0.00259122
0.002721
0.00274225
0.00264272
0.00239221
0.00191753
0.00089792
0.000899389
0.00192599
0.00241346
0.00268809
0.00282993
0.00287562
0.00283612
0.0026983
0.00242106
0.00192946
0.00121576
0.00160915
0.00181716
0.00190283
0.00193286
0.00194571
0.00194883
0.00194919
0.0019492
0.00194886
0.00194576
0.00193294
0.00190293
0.00181728
0.00160908
0.00121392
0.00191915
0.00239198
0.00263301
0.00270395
0.00262672
0.00238592
0.00191517
0.000897441
0.000899367
0.00192592
0.00241332
0.00268732
0.00282712
0.00286754
0.00281534
0.00264543
0.00227184
0.00127667
0.00101007
0.00152535
0.00166473
0.00170948
0.00172292
0.00172635
0.00172701
0.00172702
0.00172637
0.00172295
0.00170954
0.00166484
0.00152553
0.00101017
0.00126952
0.00224254
0.00257953
0.00268247
0.00261788
0.0023823
0.00191365
0.000897131
0.000899345
0.0019259
0.00241357
0.00268805
0.00282883
0.0028717
0.0028264
0.00267821
0.00238431
0.00186735
0.00114665
0.00145044
0.00163963
0.00171779
0.00174867
0.00175277
0.00175269
0.00175235
0.00175235
0.00175267
0.00175274
0.00174864
0.00171774
0.00163954
0.00145003
0.00114456
0.00185676
0.00235499
0.00261253
0.00269358
0.00262189
0.00238371
0.00191395
0.000897205
0.000899341
0.00192602
0.00241428
0.00269008
0.00283391
0.00288375
0.00285452
0.00274388
0.0025399
0.0022432
0.00193583
0.00181866
0.00176538
0.00174925
0.00174626
0.00174455
0.00174342
0.00174286
0.00174285
0.0017434
0.00174452
0.00174619
0.00174911
0.00176503
0.00181762
0.00193226
0.00223191
0.00251071
0.00267856
0.00272201
0.00263407
0.0023887
0.00191571
0.000897565
0.000899343
0.00192622
0.00241515
0.00269251
0.0028398
0.00289704
0.00288297
0.00280201
0.00265251
0.00244142
0.00220641
0.00201106
0.00186025
0.00178862
0.00176277
0.00175444
0.0017518
0.001751
0.001751
0.00175178
0.0017544
0.00176269
0.00178844
0.00185982
0.00200983
0.00220246
0.00242982
0.00262328
0.00273684
0.00275061
0.00264742
0.0023945
0.00191787
0.000897979
0.00089934
0.0019264
0.00241592
0.0026946
0.0028447
0.00290759
0.00290404
0.0028411
0.00271888
0.00254062
0.00232429
0.00210416
0.00191484
0.00181688
0.00177892
0.00176645
0.00176276
0.0017618
0.0017618
0.00176275
0.00176642
0.00177884
0.00181669
0.00191438
0.00210288
0.00232018
0.00252884
0.00268953
0.00277587
0.00277165
0.00265789
0.00239924
0.00191967
0.000898296
0.000899327
0.00192653
0.00241646
0.00269605
0.00284802
0.00291444
0.002917
0.00286345
0.00275357
0.00258746
0.00237575
0.00214588
0.00194118
0.00183184
0.00178829
0.00177379
0.00176956
0.00176851
0.00176851
0.00176955
0.00177376
0.00178821
0.00183165
0.00194073
0.00214463
0.00237157
0.00257555
0.00272408
0.0027981
0.00278448
0.00266459
0.00240235
0.00192086
0.00089848
0.000899308
0.0019266
0.00241677
0.00269689
0.0028499
0.00291821
0.00292383
0.00287462
0.00276981
0.00260791
0.00239699
0.002163
0.00195224
0.00183834
0.0017925
0.00177714
0.00177267
0.00177157
0.00177157
0.00177265
0.00177711
0.00179242
0.00183815
0.00195179
0.00216172
0.00239276
0.00259592
0.00274022
0.00280914
0.00279118
0.00266821
0.00240407
0.00192151
0.000898559
0.000899288
0.00192662
0.00241692
0.00269727
0.00285073
0.00291983
0.00292667
0.0028791
0.00277604
0.0026154
0.00240445
0.00216893
0.00195609
0.00184062
0.00179397
0.0017783
0.00177374
0.00177262
0.00177262
0.00177373
0.00177827
0.00179389
0.00184042
0.00195563
0.00216763
0.00240021
0.00260337
0.00274639
0.00281355
0.00279395
0.00266975
0.0024048
0.00192178
0.000898576
0.000899275
0.00192662
0.00241692
0.00269729
0.00285076
0.00291988
0.00292674
0.00287918
0.00277614
0.00261551
0.00240457
0.00216905
0.00195621
0.00184069
0.00179401
0.00177832
0.00177376
0.00177263
0.00177263
0.00177374
0.00177829
0.00179393
0.0018405
0.00195576
0.00216776
0.00240034
0.00260349
0.0027465
0.00281364
0.00279401
0.00266979
0.00240483
0.00192178
0.000898559
0.000899273
0.00192659
0.0024168
0.00269695
0.00284999
0.00291835
0.00292402
0.00287487
0.00277012
0.00260828
0.00239738
0.0021634
0.00195263
0.0018386
0.00179265
0.00177724
0.00177274
0.00177163
0.00177163
0.00177273
0.00177721
0.00179258
0.00183842
0.0019522
0.00216213
0.00239318
0.00259632
0.00274055
0.0028094
0.00279137
0.00266834
0.00240413
0.00192152
0.000898515
0.000899281
0.00192652
0.0024165
0.00269614
0.00284817
0.00291467
0.00291731
0.00286388
0.00275413
0.00258814
0.00237651
0.00214666
0.00194194
0.00183238
0.00178865
0.00177407
0.0017698
0.00176874
0.00176874
0.0017698
0.00177405
0.00178859
0.00183222
0.00194153
0.00214544
0.00237238
0.00257628
0.00272467
0.00279854
0.00278479
0.00266479
0.00240246
0.00192088
0.000898422
0.000899288
0.00192639
0.00241596
0.00269471
0.00284489
0.00290788
0.00290447
0.0028417
0.00271972
0.00254171
0.00232559
0.00210553
0.00191611
0.0018178
0.00177958
0.001767
0.00176328
0.00176232
0.00176232
0.00176329
0.00176701
0.00177955
0.00181769
0.00191577
0.00210442
0.00232161
0.00253002
0.00269041
0.00277648
0.00277206
0.00265815
0.00239937
0.00191969
0.000898233
0.000899286
0.00192619
0.00241517
0.00269259
0.00283995
0.00289731
0.00288341
0.00280272
0.00265361
0.00244304
0.00220853
0.00201333
0.00186201
0.00178972
0.0017635
0.00175502
0.00175236
0.00175158
0.00175159
0.00175238
0.00175505
0.0017635
0.00178965
0.00186175
0.00201236
0.00220481
0.00243157
0.00262437
0.00273746
0.00275097
0.00264763
0.0023946
0.00191787
0.00089791
0.000899271
0.00192592
0.00241415
0.00268995
0.0028338
0.00288372
0.00285466
0.00274434
0.00254099
0.00224533
0.00193902
0.00182161
0.0017664
0.00174885
0.00174514
0.00174317
0.001742
0.00174147
0.00174148
0.00174202
0.00174317
0.00174506
0.00174862
0.00176604
0.0018209
0.0019358
0.00223413
0.00251148
0.00267862
0.00272186
0.00263392
0.00238859
0.00191561
0.000897476
0.000899231
0.00192554
0.00241298
0.00268723
0.00282783
0.0028706
0.0028253
0.00267734
0.00238423
0.00186936
0.00114908
0.00145047
0.00163372
0.00170841
0.00173731
0.00174067
0.00174047
0.00174015
0.00174015
0.00174041
0.00174044
0.00173661
0.00170697
0.00163181
0.00144954
0.00114708
0.0018584
0.00235336
0.00261023
0.00269167
0.00262058
0.00238291
0.0019135
0.000897052
0.000899111
0.00192482
0.00241138
0.00268455
0.00282362
0.00286343
0.00281065
0.00264018
0.00226635
0.00127265
0.000991336
0.00148833
0.00161704
0.00165459
0.00166583
0.00166894
0.0016696
0.0016695
0.00166848
0.00166448
0.00165116
0.00161002
0.00147741
0.000982659
0.00126094
0.00223125
0.00257023
0.00267585
0.00261354
0.00237967
0.00191225
0.0008968
0.000898701
0.00192283
0.00240792
0.0026803
0.0028202
0.00286417
0.00282277
0.00268221
0.0024007
0.00190271
0.00118382
0.00152595
0.00170215
0.0017563
0.0017654
0.00177293
0.00177576
0.00177641
0.00177615
0.00177458
0.00176926
0.0017556
0.00173447
0.00166421
0.00148295
0.00115761
0.00186816
0.00235506
0.00260757
0.00268687
0.00261549
0.00237892
0.0019114
0.00089663
0.000897417
0.00191722
0.00239881
0.00266935
0.00281072
0.00286247
0.00284127
0.00274681
0.00256916
0.00231015
0.0020468
0.00197002
0.00192881
0.0018806
0.0018508
0.00184079
0.00183793
0.00183709
0.00183665
0.00183584
0.00183396
0.0018314
0.00183413
0.00184369
0.00187514
0.00196487
0.00224486
0.00250795
0.00266605
0.00270507
0.00261726
0.00237547
0.0019081
0.000895839
0.000893827
0.00190276
0.00237624
0.00264152
0.00278218
0.0028405
0.00283777
0.00278139
0.0026722
0.00251691
0.00234506
0.00220193
0.00206605
0.0019415
0.00187741
0.00185326
0.00184558
0.00184338
0.00184279
0.00184277
0.00184379
0.00184921
0.00187008
0.00192975
0.00205881
0.00222533
0.00242685
0.00259818
0.00269685
0.00270434
0.00260321
0.00235925
0.00189624
0.000892784
0.00088477
0.00186919
0.00232587
0.00257951
0.00271467
0.00277516
0.00278474
0.00275403
0.00268617
0.00258339
0.00245315
0.00230707
0.00214931
0.0020035
0.00192702
0.0018969
0.00188684
0.00188387
0.0018832
0.00188362
0.00188613
0.00189536
0.00192442
0.00200076
0.00215157
0.00232328
0.00248661
0.00261007
0.00267263
0.00266016
0.00255326
0.00231452
0.00186495
0.000884171
0.000863773
0.00179755
0.00222297
0.00245526
0.00257805
0.00263501
0.00265031
0.00263548
0.00259394
0.00252542
0.00243004
0.0023115
0.00217988
0.00206139
0.00199444
0.00196571
0.00195533
0.00195204
0.0019513
0.00195197
0.00195511
0.00196524
0.00199379
0.00206126
0.00218241
0.0023194
0.00244184
0.00252832
0.00256571
0.00254241
0.0024387
0.0022161
0.00179508
0.000863493
0.000818433
0.00165386
0.00202549
0.00222291
0.00232493
0.00237242
0.00238784
0.00238203
0.00235826
0.00231569
0.00225278
0.00217109
0.00207961
0.00199807
0.00194905
0.00192638
0.00191759
0.00191464
0.00191398
0.00191466
0.0019176
0.00192636
0.00194906
0.00199845
0.00208113
0.00217436
0.00225585
0.00231083
0.00233023
0.00230413
0.0022137
0.00202187
0.00165262
0.000818352
0.000726862
0.00137231
0.00165402
0.00179776
0.0018691
0.00190145
0.00191267
0.00191118
0.00189956
0.00187711
0.00184233
0.00179572
0.00174289
0.0016956
0.00166607
0.00165176
0.00164596
0.00164394
0.00164348
0.00164399
0.00164606
0.0016519
0.00166628
0.00169601
0.00174374
0.00179706
0.00184284
0.00187247
0.00188041
0.00185929
0.00179372
0.00165256
0.00137182
0.000726883
0.000571779
0.000726861
0.000818508
0.000863939
0.000884982
0.000893932
0.000897036
0.000897046
0.000894747
0.000889882
0.000881873
0.00087059
0.000857344
0.000845283
0.000837803
0.000834223
0.000832778
0.000832265
0.000832146
0.00083228
0.000832803
0.000834252
0.000837837
0.00084534
0.000857473
0.000870814
0.000881919
0.000888738
0.000889986
0.000883394
0.000863439
0.000818416
0.000726876
0.000571844
0.000626007
0.000855745
0.000993531
0.00106438
0.00109887
0.00111462
0.00112123
0.0011237
0.0011244
0.00112438
0.00112412
0.00112381
0.00112356
0.00112339
0.00112329
0.00112322
0.00112317
0.00112315
0.00112315
0.00112317
0.00112321
0.00112328
0.00112338
0.00112352
0.00112366
0.00112366
0.00112306
0.00112074
0.00111429
0.00109869
0.00106428
0.000993492
0.000855736
0.000626026
0.000855745
0.00170412
0.00207331
0.00226825
0.00236948
0.0024191
0.00244145
0.00245025
0.00245272
0.00245245
0.00245116
0.00244971
0.00244853
0.00244771
0.00244719
0.00244686
0.00244666
0.00244656
0.00244656
0.00244666
0.00244686
0.00244718
0.00244764
0.00244831
0.00244905
0.00244922
0.00244711
0.00243898
0.00241739
0.00236842
0.00226765
0.00207298
0.00170396
0.000855732
0.000993575
0.00207343
0.0025477
0.00280707
0.00294734
0.00301894
0.00305227
0.00306536
0.00306833
0.00306662
0.0030632
0.00305973
0.00305702
0.00305526
0.00305423
0.00305361
0.00305322
0.00305303
0.00305304
0.00305323
0.00305361
0.00305421
0.00305515
0.00305663
0.00305852
0.00305978
0.00305757
0.0030461
0.00301466
0.00294473
0.00280566
0.00254704
0.00207317
0.00099356
0.00106447
0.00226848
0.0028072
0.00310916
0.00327678
0.00336421
0.00340493
0.00341949
0.00342005
0.00341377
0.00340519
0.00339722
0.0033913
0.00338767
0.00338566
0.00338444
0.00338368
0.0033833
0.0033833
0.00338368
0.00338445
0.00338563
0.00338751
0.00339073
0.00339548
0.00340037
0.00340136
0.00339048
0.00335415
0.00327061
0.00310584
0.00280564
0.0022679
0.00106442
0.00109901
0.0023698
0.0029476
0.00327695
0.00346248
0.00355955
0.00360283
0.00361399
0.00360652
0.00358948
0.00356988
0.0035529
0.00354094
0.00353406
0.00353052
0.00352828
0.00352679
0.00352603
0.00352604
0.0035268
0.00352829
0.00353049
0.00353387
0.00354024
0.00355076
0.00356394
0.00357439
0.00357121
0.00353753
0.00344894
0.00326959
0.0029441
0.00236843
0.00109883
0.00111479
0.0024195
0.00301939
0.00336472
0.00356005
0.00366034
0.0036998
0.00369984
0.00367454
0.00363552
0.00359452
0.00356142
0.00353953
0.00352812
0.00352288
0.00351912
0.00351638
0.00351498
0.00351499
0.0035164
0.00351914
0.00352286
0.00352793
0.00353877
0.00355904
0.00358785
0.00361859
0.00363523
0.00361569
0.00353271
0.00334979
0.00301218
0.00241658
0.00111429
0.00112145
0.00244199
0.00305308
0.0034062
0.00360467
0.00370172
0.00372941
0.00370699
0.00364783
0.00356723
0.00348726
0.00342919
0.00339441
0.00337904
0.00337359
0.00336796
0.00336335
0.003361
0.00336101
0.00336337
0.00336798
0.00337358
0.00337887
0.00339368
0.00342678
0.0034803
0.00354928
0.00360601
0.00361794
0.00355406
0.00337871
0.00303971
0.00243641
0.00112034
0.00112397
0.00245106
0.00306692
0.00342241
0.00361895
0.00370687
0.00371395
0.00365402
0.00353607
0.00337891
0.00322854
0.00314234
0.0031012
0.00308912
0.00308861
0.00308176
0.00307527
0.00307205
0.00307206
0.0030753
0.00308179
0.00308862
0.00308901
0.00310062
0.00314017
0.00322174
0.00336057
0.00349275
0.00356191
0.00353358
0.00337667
0.00304468
0.00244161
0.00112194
0.00112476
0.00245405
0.00307128
0.0034261
0.00361768
0.00369244
0.0036715
0.00355781
0.00334494
0.00304161
0.0027413
0.00267049
0.00267246
0.00268721
0.00269819
0.00269725
0.00269279
0.00269023
0.00269024
0.00269282
0.00269729
0.00269823
0.00268719
0.00267213
0.0026689
0.00273522
0.00302332
0.00330054
0.00346349
0.00348789
0.00335804