/*--------------------------------*- C++ -*----------------------------------*\
| =========                 |                                                 |
| \\      /  F ield         | OpenFOAM: The Open Source CFD Toolbox           |
|  \\    /   O peration     | Version:  2112                                  |
|   \\  /    A nd           | Website:  www.openfoam.com                      |
|    \\/     M anipulation  |                                                 |
\*---------------------------------------------------------------------------*/
FoamFile
{
    version     2.0;
    format      ascii;
    arch        "LSB;label=32;scalar=64";
    class       volScalarField;
    location    "3.1";
    object      nut;
}
// * * * * * * * * * * * * * * * * * * * * * * * * * * * * * * * * * * * * * //

dimensions      [0 2 -1 0 0 0 0];

internalField   nonuniform List<scalar> 
64906
(
4.96844e-05
5.229e-05
5.37916e-05
5.44775e-05
5.47673e-05
5.48823e-05
5.4925e-05
5.49396e-05
5.49439e-05
5.49444e-05
5.49438e-05
5.49431e-05
5.49423e-05
5.49416e-05
5.49408e-05
5.49401e-05
5.49393e-05
5.49386e-05
5.49383e-05
5.49387e-05
5.49394e-05
5.49401e-05
5.49408e-05
5.49414e-05
5.49417e-05
5.49411e-05
5.49374e-05
5.49237e-05
5.48819e-05
5.47675e-05
5.4478e-05
5.37927e-05
5.22913e-05
4.96855e-05
5.22914e-05
6.38607e-05
6.91371e-05
7.15974e-05
7.27472e-05
7.32613e-05
7.34752e-05
7.35551e-05
7.35789e-05
7.35806e-05
7.3575e-05
7.35684e-05
7.35635e-05
7.35607e-05
7.35595e-05
7.35588e-05
7.35584e-05
7.35582e-05
7.35582e-05
7.35584e-05
7.35589e-05
7.35595e-05
7.35606e-05
7.35625e-05
7.35645e-05
7.35619e-05
7.35403e-05
7.34649e-05
7.32559e-05
7.27458e-05
7.15987e-05
6.91399e-05
6.38639e-05
5.22941e-05
5.37955e-05
6.91393e-05
7.6077e-05
7.94262e-05
8.10693e-05
8.18442e-05
8.21823e-05
8.23103e-05
8.23423e-05
8.23337e-05
8.23121e-05
8.22912e-05
8.22768e-05
8.22693e-05
8.22664e-05
8.22652e-05
8.22644e-05
8.22641e-05
8.22642e-05
8.22647e-05
8.22656e-05
8.22668e-05
8.22694e-05
8.22751e-05
8.22836e-05
8.22868e-05
8.22598e-05
8.21444e-05
8.1821e-05
8.10585e-05
7.9424e-05
7.60796e-05
6.91441e-05
5.38e-05
5.44831e-05
7.16017e-05
7.94284e-05
8.33106e-05
8.52757e-05
8.62302e-05
8.66511e-05
8.67985e-05
8.68106e-05
8.67617e-05
8.66954e-05
8.6638e-05
8.65995e-05
8.65797e-05
8.65714e-05
8.6567e-05
8.6564e-05
8.65624e-05
8.65626e-05
8.65644e-05
8.65676e-05
8.6572e-05
8.65796e-05
8.65967e-05
8.66265e-05
8.66585e-05
8.66576e-05
8.65421e-05
8.61593e-05
8.52376e-05
8.32954e-05
7.94263e-05
7.16062e-05
5.44888e-05
5.47739e-05
7.27529e-05
8.10732e-05
8.52778e-05
8.74457e-05
8.85084e-05
8.8961e-05
8.90779e-05
8.90122e-05
8.88585e-05
8.86882e-05
8.85527e-05
8.84659e-05
8.84237e-05
8.84068e-05
8.83959e-05
8.83874e-05
8.83828e-05
8.8383e-05
8.83879e-05
8.83966e-05
8.84075e-05
8.84236e-05
8.84623e-05
8.85381e-05
8.86422e-05
8.87309e-05
8.869e-05
8.83288e-05
8.73444e-05
8.52307e-05
8.10579e-05
7.27537e-05
5.47804e-05
5.48894e-05
7.32677e-05
8.18497e-05
8.62348e-05
8.85121e-05
8.96133e-05
9.003e-05
9.0033e-05
8.97799e-05
8.93944e-05
8.90069e-05
8.8729e-05
8.85654e-05
8.84957e-05
8.84729e-05
8.84521e-05
8.84334e-05
8.84232e-05
8.84234e-05
8.8434e-05
8.84531e-05
8.8474e-05
8.84958e-05
8.85616e-05
8.87128e-05
8.89554e-05
8.92516e-05
8.9422e-05
8.92112e-05
8.82823e-05
8.61223e-05
8.18058e-05
7.32589e-05
5.48957e-05
5.49322e-05
7.34821e-05
8.21899e-05
8.66607e-05
8.89744e-05
9.00447e-05
9.03376e-05
9.00943e-05
8.94577e-05
8.85942e-05
8.77776e-05
8.72974e-05
8.70613e-05
8.69913e-05
8.69874e-05
8.69568e-05
8.69229e-05
8.69045e-05
8.69048e-05
8.69236e-05
8.6958e-05
8.69888e-05
8.69919e-05
8.70582e-05
8.72817e-05
8.77246e-05
8.84441e-05
8.90795e-05
8.92292e-05
8.85123e-05
8.64314e-05
8.20941e-05
7.34543e-05
5.49368e-05
5.49466e-05
7.35628e-05
8.23219e-05
8.68193e-05
8.91149e-05
9.00888e-05
9.01525e-05
8.94701e-05
8.81081e-05
8.62604e-05
8.45586e-05
8.39842e-05
8.38602e-05
8.39212e-05
8.40103e-05
8.3983e-05
8.39364e-05
8.39115e-05
8.39118e-05
8.39373e-05
8.39845e-05
8.40121e-05
8.39226e-05
8.38587e-05
8.39712e-05
8.45082e-05
8.61096e-05
8.772e-05
8.85805e-05
8.82835e-05
8.64097e-05
8.21464e-05
7.35053e-05
5.49478e-05
5.49506e-05
7.35885e-05
8.23624e-05
8.68542e-05
8.90989e-05
8.99284e-05
8.96638e-05
8.83035e-05
8.56426e-05
8.16139e-05
7.76245e-05
7.80475e-05
7.88912e-05
7.94584e-05
7.97754e-05
7.98022e-05
7.97731e-05
7.97553e-05
7.97557e-05
7.97742e-05
7.98039e-05
7.97778e-05
7.94609e-05
7.88924e-05
7.80405e-05
7.75828e-05
8.14685e-05
8.52495e-05
8.73978e-05
8.77681e-05
8.6213e-05
8.20865e-05
7.34932e-05
5.49464e-05
5.49507e-05
7.35941e-05
8.23688e-05
8.68452e-05
8.90341e-05
8.97164e-05
8.90969e-05
8.68926e-05
8.21465e-05
7.287e-05
6.07971e-05
6.80517e-05
7.25875e-05
7.43463e-05
7.49932e-05
7.51708e-05
7.52112e-05
7.5218e-05
7.52183e-05
7.52122e-05
7.51725e-05
7.49959e-05
7.435e-05
7.25923e-05
6.80561e-05
6.07785e-05
7.27408e-05
8.17494e-05
8.59726e-05
8.71817e-05
8.59787e-05
8.19985e-05
7.34631e-05
5.49406e-05
5.49499e-05
7.35946e-05
8.23694e-05
8.68382e-05
8.89991e-05
8.96038e-05
8.87801e-05
8.59912e-05
7.92177e-05
6.1607e-05
5.79668e-05
6.74885e-05
7.03907e-05
7.12445e-05
7.15158e-05
7.15909e-05
7.16076e-05
7.16078e-05
7.15916e-05
7.1517e-05
7.12465e-05
7.03941e-05
6.74944e-05
5.79714e-05
6.15322e-05
7.8822e-05
8.5062e-05
8.68538e-05
8.58542e-05
8.19515e-05
7.34456e-05
5.4936e-05
5.4949e-05
7.35956e-05
8.23756e-05
8.68535e-05
8.90331e-05
8.96835e-05
8.89919e-05
8.6649e-05
8.1667e-05
7.20173e-05
5.9945e-05
6.54249e-05
6.94885e-05
7.10076e-05
7.14444e-05
7.16768e-05
7.1739e-05
7.17475e-05
7.17474e-05
7.17388e-05
7.16765e-05
7.14439e-05
7.10072e-05
6.94879e-05
6.54188e-05
5.99187e-05
7.18781e-05
8.12636e-05
8.5722e-05
8.70671e-05
8.59326e-05
8.19813e-05
7.34541e-05
5.49361e-05
5.49484e-05
7.35981e-05
8.2388e-05
8.6887e-05
8.91147e-05
8.98778e-05
8.94558e-05
8.77838e-05
8.45645e-05
7.96052e-05
7.42862e-05
7.28699e-05
7.22906e-05
7.2128e-05
7.20734e-05
7.2092e-05
7.20921e-05
7.20866e-05
7.20864e-05
7.20914e-05
7.20907e-05
7.20713e-05
7.21245e-05
7.22839e-05
7.2853e-05
7.42344e-05
7.94517e-05
8.41629e-05
8.68645e-05
8.75383e-05
8.61312e-05
8.2063e-05
7.34824e-05
5.4939e-05
5.49476e-05
7.36011e-05
8.2402e-05
8.69248e-05
8.92055e-05
9.00841e-05
8.99064e-05
8.87363e-05
8.65022e-05
8.32432e-05
7.95265e-05
7.64854e-05
7.41338e-05
7.3021e-05
7.26065e-05
7.24739e-05
7.24283e-05
7.24124e-05
7.24121e-05
7.24273e-05
7.2472e-05
7.26036e-05
7.30162e-05
7.41252e-05
7.64664e-05
7.94701e-05
8.30857e-05
8.61015e-05
8.78214e-05
8.7994e-05
8.63406e-05
8.21534e-05
7.35145e-05
5.49419e-05
5.49465e-05
7.36035e-05
8.24138e-05
8.69564e-05
8.92792e-05
9.02436e-05
9.02303e-05
8.93518e-05
8.75822e-05
8.49219e-05
8.15939e-05
7.81049e-05
7.50977e-05
7.35468e-05
7.29341e-05
7.27224e-05
7.26516e-05
7.26287e-05
7.26282e-05
7.26501e-05
7.27202e-05
7.29307e-05
7.35415e-05
7.50886e-05
7.80853e-05
8.1536e-05
8.47625e-05
8.71808e-05
8.84377e-05
8.83191e-05
8.65005e-05
8.22251e-05
7.35402e-05
5.49434e-05
5.49452e-05
7.36049e-05
8.2422e-05
8.69781e-05
8.93283e-05
9.03454e-05
9.04252e-05
8.96942e-05
8.8126e-05
8.56763e-05
8.24434e-05
7.87987e-05
7.55371e-05
7.38018e-05
7.30978e-05
7.28495e-05
7.27656e-05
7.27378e-05
7.27371e-05
7.27638e-05
7.28469e-05
7.30942e-05
7.37962e-05
7.55278e-05
7.87762e-05
8.23847e-05
8.55156e-05
8.77233e-05
8.87791e-05
8.85131e-05
8.66008e-05
8.22713e-05
7.35564e-05
5.49433e-05
5.49438e-05
7.36054e-05
8.24268e-05
8.69907e-05
8.9356e-05
9.04008e-05
9.05263e-05
8.98619e-05
8.83743e-05
8.59954e-05
8.27819e-05
7.90772e-05
7.57154e-05
7.39077e-05
7.31664e-05
7.29026e-05
7.28121e-05
7.27804e-05
7.27794e-05
7.28099e-05
7.28997e-05
7.31626e-05
7.3902e-05
7.57059e-05
7.90542e-05
8.27228e-05
8.58338e-05
8.79704e-05
8.89455e-05
8.86128e-05
8.66544e-05
8.22966e-05
7.35648e-05
5.4942e-05
5.49424e-05
7.36053e-05
8.24291e-05
8.69966e-05
8.93684e-05
9.04247e-05
9.05684e-05
8.99287e-05
8.84685e-05
8.61107e-05
8.28992e-05
7.91726e-05
7.57765e-05
7.39441e-05
7.31897e-05
7.29199e-05
7.28262e-05
7.27915e-05
7.27902e-05
7.28237e-05
7.29168e-05
7.31857e-05
7.39383e-05
7.5767e-05
7.91497e-05
8.284e-05
8.59487e-05
8.80641e-05
8.90116e-05
8.8654e-05
8.66773e-05
8.23075e-05
7.35681e-05
5.49402e-05
5.49413e-05
7.3605e-05
8.24294e-05
8.69972e-05
8.93694e-05
9.0426e-05
9.05701e-05
8.9931e-05
8.84714e-05
8.61141e-05
8.2903e-05
7.91766e-05
7.57794e-05
7.39459e-05
7.31904e-05
7.29197e-05
7.28249e-05
7.27884e-05
7.27869e-05
7.28221e-05
7.29164e-05
7.31863e-05
7.39401e-05
7.57699e-05
7.91538e-05
8.28441e-05
8.59524e-05
8.80672e-05
8.90141e-05
8.86559e-05
8.66786e-05
8.23083e-05
7.35679e-05
5.49384e-05
5.49411e-05
7.36047e-05
8.24278e-05
8.69926e-05
8.93589e-05
9.04047e-05
9.05316e-05
8.98689e-05
8.83831e-05
8.60061e-05
8.27941e-05
7.90898e-05
7.57248e-05
7.39136e-05
7.3169e-05
7.29024e-05
7.28087e-05
7.27723e-05
7.27706e-05
7.28057e-05
7.2899e-05
7.31649e-05
7.39078e-05
7.57155e-05
7.90676e-05
8.27359e-05
8.58454e-05
8.798e-05
8.89531e-05
8.86185e-05
8.66584e-05
8.22989e-05
7.35646e-05
5.49379e-05
5.49421e-05
7.36042e-05
8.24237e-05
8.69813e-05
8.9333e-05
9.03519e-05
9.04341e-05
8.97062e-05
8.81415e-05
8.56956e-05
8.24662e-05
7.88228e-05
7.55547e-05
7.38131e-05
7.31035e-05
7.28504e-05
7.27615e-05
7.27278e-05
7.27263e-05
7.27586e-05
7.28471e-05
7.30994e-05
7.38076e-05
7.5546e-05
7.88017e-05
8.24094e-05
8.55367e-05
8.77404e-05
8.87922e-05
8.85227e-05
8.66076e-05
8.22754e-05
7.35566e-05
5.49385e-05
5.49433e-05
7.36031e-05
8.24161e-05
8.69607e-05
8.92856e-05
9.02526e-05
9.02428e-05
8.93689e-05
8.76054e-05
8.49525e-05
8.16317e-05
7.81411e-05
7.51261e-05
7.3565e-05
7.29438e-05
7.27254e-05
7.26482e-05
7.26198e-05
7.26187e-05
7.26456e-05
7.27222e-05
7.29401e-05
7.35602e-05
7.51186e-05
7.81228e-05
8.15777e-05
8.47965e-05
8.72066e-05
8.84565e-05
8.83326e-05
8.65099e-05
8.22308e-05
7.35411e-05
5.49386e-05
5.49443e-05
7.36008e-05
8.24045e-05
8.69295e-05
8.92127e-05
9.00945e-05
8.99215e-05
8.87582e-05
8.65342e-05
8.32895e-05
7.95873e-05
7.65401e-05
7.41732e-05
7.30428e-05
7.2616e-05
7.24743e-05
7.24221e-05
7.24019e-05
7.2401e-05
7.24199e-05
7.24714e-05
7.26126e-05
7.30387e-05
7.41676e-05
7.65271e-05
7.95382e-05
8.31377e-05
8.61366e-05
8.78446e-05
8.80098e-05
8.63515e-05
8.21601e-05
7.35161e-05
5.49371e-05
5.4945e-05
7.35975e-05
8.23894e-05
8.689e-05
8.91198e-05
8.98861e-05
8.94693e-05
8.78061e-05
8.46028e-05
7.96698e-05
7.43823e-05
7.2952e-05
7.23217e-05
7.21259e-05
7.20522e-05
7.20585e-05
7.2052e-05
7.20432e-05
7.20426e-05
7.20501e-05
7.20554e-05
7.20475e-05
7.21197e-05
7.23158e-05
7.29457e-05
7.43433e-05
7.95246e-05
8.42019e-05
8.68849e-05
8.75506e-05
8.61397e-05
8.20686e-05
7.34838e-05
5.49342e-05
5.49453e-05
7.35924e-05
8.23718e-05
8.68487e-05
8.90281e-05
8.96798e-05
8.89921e-05
8.66585e-05
8.16985e-05
7.20981e-05
6.00101e-05
6.54542e-05
6.93977e-05
7.08559e-05
7.12547e-05
7.14682e-05
7.15231e-05
7.15286e-05
7.15278e-05
7.152e-05
7.14611e-05
7.12396e-05
7.08308e-05
6.93691e-05
6.54479e-05
5.99866e-05
7.19671e-05
8.12817e-05
8.57171e-05
8.70598e-05
8.59285e-05
8.19798e-05
7.34525e-05
5.4931e-05
5.4945e-05
7.35826e-05
8.23485e-05
8.68085e-05
8.89625e-05
8.9562e-05
8.87338e-05
8.59405e-05
7.91695e-05
6.15819e-05
5.76833e-05
6.69002e-05
6.96365e-05
7.03759e-05
7.06045e-05
7.06667e-05
7.06789e-05
7.06763e-05
7.06569e-05
7.05791e-05
7.03173e-05
6.95225e-05
6.6727e-05
5.75496e-05
6.14517e-05
7.86996e-05
8.49599e-05
8.67847e-05
8.58119e-05
8.19278e-05
7.34336e-05
5.49295e-05
5.49415e-05
7.35554e-05
8.22998e-05
8.67487e-05
8.89152e-05
8.95789e-05
8.89394e-05
8.67052e-05
8.19122e-05
7.25761e-05
6.04793e-05
6.68418e-05
7.08322e-05
7.20627e-05
7.23539e-05
7.2436e-05
7.24607e-05
7.24653e-05
7.24604e-05
7.24397e-05
7.23743e-05
7.21939e-05
7.17133e-05
7.02229e-05
6.61836e-05
6.01452e-05
7.21196e-05
8.12882e-05
8.56601e-05
8.69772e-05
8.5847e-05
8.19181e-05
7.34218e-05
5.49288e-05
5.49282e-05
7.34766e-05
8.21698e-05
8.65933e-05
8.87834e-05
8.95672e-05
8.92511e-05
8.78052e-05
8.49774e-05
8.06201e-05
7.60223e-05
7.54074e-05
7.50725e-05
7.43976e-05
7.39753e-05
7.38058e-05
7.37509e-05
7.3734e-05
7.37264e-05
7.37164e-05
7.36959e-05
7.36661e-05
7.36558e-05
7.36835e-05
7.38994e-05
7.47878e-05
7.96692e-05
8.41162e-05
8.66715e-05
8.72861e-05
8.58855e-05
8.18717e-05
7.33756e-05
5.49207e-05
5.48867e-05
7.3266e-05
8.18383e-05
8.61877e-05
8.83709e-05
8.92559e-05
8.9227e-05
8.83979e-05
8.67508e-05
8.43467e-05
8.16532e-05
7.95474e-05
7.74459e-05
7.54585e-05
7.44571e-05
7.40771e-05
7.39546e-05
7.3919e-05
7.39097e-05
7.39099e-05
7.39277e-05
7.40129e-05
7.43254e-05
7.52328e-05
7.72376e-05
7.97917e-05
8.30032e-05
8.5693e-05
8.72068e-05
8.73003e-05
8.56848e-05
8.16319e-05
7.32008e-05
5.48843e-05
5.47725e-05
7.27553e-05
8.10721e-05
8.52556e-05
8.73632e-05
8.82839e-05
8.84418e-05
8.80098e-05
8.70251e-05
8.55018e-05
8.35392e-05
8.13116e-05
7.8812e-05
7.64662e-05
7.52682e-05
7.48024e-05
7.46483e-05
7.46035e-05
7.45932e-05
7.45991e-05
7.46364e-05
7.47763e-05
7.52211e-05
7.64074e-05
7.88094e-05
8.15194e-05
8.40543e-05
8.59331e-05
8.68602e-05
8.66372e-05
8.49262e-05
8.09448e-05
7.27204e-05
5.47741e-05
5.44828e-05
7.16078e-05
7.9436e-05
8.33097e-05
8.52431e-05
8.6116e-05
8.63599e-05
8.61653e-05
8.55815e-05
8.4592e-05
8.31813e-05
8.13833e-05
7.93241e-05
7.74225e-05
7.63666e-05
7.59245e-05
7.57682e-05
7.57212e-05
7.57115e-05
7.5719e-05
7.57638e-05
7.59156e-05
7.63514e-05
7.74078e-05
7.93442e-05
8.14839e-05
8.33543e-05
8.46451e-05
8.51799e-05
8.47872e-05
8.31159e-05
7.93695e-05
7.15951e-05
5.44872e-05
5.37968e-05
6.91481e-05
7.60908e-05
7.94401e-05
8.10715e-05
8.18083e-05
8.20543e-05
8.19914e-05
8.16704e-05
8.10716e-05
8.01592e-05
7.89398e-05
7.75372e-05
7.62622e-05
7.55053e-05
7.51626e-05
7.50356e-05
7.49957e-05
7.49871e-05
7.4995e-05
7.50337e-05
7.51591e-05
7.55002e-05
7.62599e-05
7.75494e-05
7.89779e-05
8.02e-05
8.10028e-05
8.12623e-05
8.08239e-05
7.93466e-05
7.6067e-05
6.91497e-05
5.38028e-05
5.22944e-05
6.387e-05
6.91529e-05
7.16181e-05
7.27683e-05
7.32716e-05
7.34502e-05
7.34476e-05
7.33052e-05
7.30098e-05
7.25295e-05
7.18616e-05
7.1083e-05
7.0372e-05
6.99308e-05
6.97205e-05
6.96386e-05
6.96115e-05
6.96056e-05
6.96118e-05
6.96388e-05
6.97206e-05
6.99305e-05
7.03731e-05
7.10891e-05
7.18746e-05
7.25327e-05
7.29413e-05
7.30264e-05
7.26703e-05
7.15912e-05
6.91543e-05
6.38783e-05
5.23003e-05
4.96874e-05
5.22974e-05
5.38051e-05
5.44966e-05
5.47917e-05
5.49109e-05
5.4955e-05
5.49639e-05
5.49478e-05
5.49022e-05
5.48239e-05
5.47045e-05
5.45552e-05
5.4412e-05
5.43209e-05
5.42753e-05
5.42549e-05
5.42451e-05
5.42417e-05
5.42456e-05
5.42554e-05
5.42755e-05
5.43206e-05
5.44113e-05
5.45544e-05
5.4704e-05
5.48213e-05
5.48888e-05
5.48917e-05
5.47948e-05
5.45074e-05
5.3816e-05
5.23051e-05
4.96917e-05
7.69481e-05
8.69739e-05
9.24414e-05
9.50752e-05
9.62972e-05
9.68343e-05
9.70533e-05
9.71334e-05
9.71564e-05
9.7157e-05
9.71501e-05
9.7142e-05
9.71353e-05
9.71307e-05
9.71277e-05
9.71255e-05
9.71241e-05
9.71232e-05
9.71231e-05
9.71238e-05
9.71252e-05
9.71271e-05
9.71298e-05
9.71335e-05
9.71372e-05
9.71362e-05
9.71159e-05
9.70403e-05
9.68261e-05
9.6293e-05
9.50736e-05
9.24414e-05
8.69748e-05
7.69494e-05
8.69743e-05
0.000252964
0.000311988
0.000339281
0.000352816
0.000359377
0.000362331
0.000363493
0.000363816
0.000363774
0.000363599
0.000363403
0.000363243
0.000363132
0.000363063
0.000363018
0.000362989
0.000362975
0.000362975
0.00036299
0.000363018
0.000363062
0.000363126
0.000363218
0.00036332
0.000363349
0.000363076
0.000362006
0.000359153
0.000352676
0.000339201
0.000311944
0.000252945
8.69753e-05
9.24441e-05
0.000312012
0.000395149
0.000434986
0.000455447
0.000465751
0.000470552
0.000472445
0.000472875
0.000472628
0.000472134
0.000471634
0.000471246
0.000470998
0.000470855
0.000470768
0.000470713
0.000470686
0.000470687
0.000470714
0.000470769
0.000470853
0.000470984
0.000471194
0.000471466
0.000471646
0.000471327
0.000469671
0.000465145
0.00045508
0.000434792
0.000395061
0.000311985
9.2446e-05
9.50802e-05
0.000339321
0.000435006
0.000482096
0.00050689
0.000519638
0.000525581
0.000527715
0.000527794
0.000526864
0.000525591
0.000524407
0.00052353
0.000522997
0.000522708
0.000522529
0.000522414
0.000522357
0.000522357
0.000522416
0.000522531
0.000522705
0.000522976
0.000523451
0.000524159
0.000524888
0.000525045
0.00052346
0.000518167
0.000505994
0.000481618
0.00043479
0.000339252
9.50821e-05
9.63042e-05
0.000352866
0.000455483
0.000506912
0.000534393
0.000548563
0.000554879
0.000556505
0.000555383
0.000552833
0.000549888
0.000547332
0.00054552
0.00054449
0.00054397
0.000543624
0.000543387
0.000543268
0.000543269
0.00054339
0.000543626
0.000543966
0.000544464
0.000545421
0.000547022
0.000549018
0.000550613
0.00055019
0.000545305
0.000532397
0.000505835
0.000454983
0.000352692
9.63029e-05
9.68426e-05
0.000359436
0.000465811
0.000519706
0.000548632
0.000563258
0.000568994
0.000568957
0.00056516
0.000559274
0.000553057
0.000548081
0.000544743
0.000543026
0.000542269
0.000541659
0.000541203
0.000540973
0.000540975
0.000541206
0.000541662
0.000542267
0.000543
0.000544636
0.000547737
0.000552083
0.000556786
0.000559376
0.000556625
0.000544578
0.000517504
0.000464769
0.000359054
9.68324e-05
9.70626e-05
0.000362405
0.000470661
0.000525758
0.000555143
0.000569276
0.000573254
0.000569846
0.000560889
0.000548512
0.000536142
0.000527742
0.000522564
0.000520331
0.000519647
0.000518655
0.00051785
0.000517458
0.000517459
0.000517854
0.00051866
0.000519647
0.000520309
0.000522464
0.000527401
0.000535137
0.000545885
0.000554744
0.000556796
0.000547623
0.000521686
0.000468713
0.000361665
9.70351e-05
9.71439e-05
0.000363598
0.000472656
0.000528131
0.00055723
0.000569998
0.000570878
0.000561721
0.000543378
0.000518028
0.000493168
0.0004832
0.00047807
0.000476749
0.000477186
0.000475722
0.000474496
0.000473945
0.000473947
0.000474499
0.000475727
0.00047719
0.000476736
0.000477992
0.000482905
0.000492218
0.000515383
0.00053704
0.000548227
0.000544506
0.00052134
0.000469403
0.000362335
9.70887e-05
9.7169e-05
0.000363984
0.000473283
0.000528669
0.00055703
0.000567819
0.000564388
0.000546531
0.000511431
0.000456749
0.000395973
0.000405716
0.000411846
0.000415861
0.000419333
0.000417608
0.000416264
0.000415738
0.000415739
0.000416266
0.000417612
0.00041934
0.000415859
0.000411807
0.000405529
0.000395238
0.000454233
0.000505008
0.00053274
0.000537539
0.000518535
0.000468463
0.000362087
9.70783e-05
9.71735e-05
0.00036405
0.000473362
0.000528507
0.000556062
0.000564842
0.000556746
0.000527803
0.000464263
0.000331897
0.000113172
0.000273247
0.000331371
0.000348979
0.000356507
0.000355759
0.000355144
0.000354945
0.000354945
0.000355146
0.000355764
0.000356516
0.000348991
0.000331388
0.000273274
0.000113071
0.000329885
0.000457855
0.00051379
0.000529568
0.000515178
0.000467096
0.000361567
9.70491e-05
9.71723e-05
0.00036403
0.000473331
0.000528334
0.000555442
0.000563085
0.000552099
0.000514541
0.000416441
0.000116104
0.000102685
0.000265325
0.000297956
0.000304945
0.000308134
0.000309164
0.000309395
0.000309396
0.000309167
0.00030814
0.000304954
0.000297973
0.000265364
0.00010269
0.000115727
0.00041028
0.000500421
0.000524752
0.000513233
0.000466282
0.00036122
9.70301e-05
9.71711e-05
0.00036402
0.000473382
0.00052847
0.000555738
0.000563813
0.00055433
0.00052303
0.000456038
0.000320035
0.000109646
0.00023936
0.000282575
0.000292297
0.000289284
0.000297136
0.000299854
0.000300379
0.000300378
0.000299854
0.000297137
0.000289278
0.000292287
0.000282559
0.000239325
0.000109529
0.000317973
0.000449591
0.000508944
0.000527025
0.000513962
0.000466531
0.000361257
9.70343e-05
9.71711e-05
0.000364045
0.000473536
0.000528887
0.000556724
0.000566092
0.000559733
0.000536615
0.000492954
0.000425563
0.000348582
0.000331695
0.000314356
0.000307607
0.00030395
0.000305668
0.000306491
0.000306661
0.00030666
0.000306488
0.000305662
0.000303934
0.000307576
0.000314283
0.00033148
0.000347845
0.00042304
0.000486465
0.000522646
0.000532561
0.000516334
0.000467544
0.000361608
9.7056e-05
9.71716e-05
0.000364088
0.000473732
0.000529402
0.000557903
0.000568641
0.00056508
0.00054769
0.000515612
0.00046941
0.000416255
0.000371888
0.000333551
0.000317685
0.000312102
0.00031094
0.000310721
0.000310667
0.000310666
0.000310719
0.000310934
0.000312088
0.00031765
0.00033346
0.000371619
0.000415369
0.000466774
0.00050913
0.000533809
0.000538018
0.000518968
0.000468752
0.000362058
9.70817e-05
9.71718e-05
0.00036413
0.00047391
0.000529856
0.000558912
0.000570708
0.000569061
0.00055494
0.000528011
0.000488535
0.000439872
0.000389086
0.00034316
0.000322948
0.000315744
0.000313578
0.000313
0.000312868
0.000312868
0.000312999
0.000313574
0.000315731
0.000322914
0.000343068
0.000388808
0.000438945
0.00048586
0.000521527
0.000541095
0.000542051
0.000521076
0.000469764
0.000362445
9.71018e-05
9.71713e-05
0.000364161
0.000474037
0.00053018
0.000559614
0.00057209
0.000571564
0.000559118
0.000534374
0.000497101
0.000449283
0.000396394
0.000347609
0.000325502
0.000317439
0.000314896
0.000314199
0.000314045
0.000314045
0.000314199
0.000314894
0.000317428
0.000325469
0.00034752
0.000396135
0.000448341
0.000494403
0.000527876
0.000545274
0.000544563
0.000522462
0.000470447
0.000362708
9.71138e-05
9.71703e-05
0.000364178
0.000474113
0.000530372
0.000560024
0.000572874
0.000572923
0.000561255
0.000537393
0.00050083
0.000453096
0.000399373
0.000349493
0.000326613
0.000318175
0.000315486
0.000314747
0.000314588
0.000314588
0.000314748
0.000315484
0.000318165
0.00032658
0.000349403
0.000399108
0.000452145
0.000498117
0.00053088
0.0005474
0.000545913
0.000523233
0.000470834
0.000362855
9.71192e-05
9.71693e-05
0.000364185
0.000474148
0.00053046
0.000560208
0.000573217
0.000573502
0.000562132
0.000538574
0.000502214
0.000454448
0.000400416
0.000350161
0.000327008
0.000318435
0.000315695
0.000314943
0.000314783
0.000314784
0.000314944
0.000315694
0.000318425
0.000326976
0.000350071
0.00040015
0.000453493
0.000499495
0.000532053
0.000548268
0.000546483
0.000523565
0.000471002
0.000362919
9.71206e-05
9.71685e-05
0.000364185
0.00047415
0.000530463
0.000560213
0.000573225
0.000573512
0.000562145
0.000538589
0.000502231
0.000454465
0.000400432
0.000350182
0.000327021
0.000318442
0.0003157
0.000314948
0.000314788
0.000314789
0.000314949
0.000315698
0.000318432
0.000326989
0.000350093
0.000400166
0.00045351
0.000499512
0.000532068
0.000548281
0.000546493
0.000523572
0.000471006
0.000362919
9.71196e-05
9.71683e-05
0.000364177
0.000474118
0.000530382
0.00056004
0.000572896
0.000572953
0.000561294
0.000537439
0.000500882
0.00045315
0.000399426
0.000349561
0.000326658
0.000318202
0.000315506
0.000314768
0.00031461
0.000314611
0.000314769
0.000315506
0.000318194
0.000326628
0.000349475
0.000399163
0.000452201
0.000498172
0.000530929
0.00054744
0.000545943
0.000523253
0.000470845
0.000362857
9.71167e-05
9.71686e-05
0.000364159
0.000474044
0.000530195
0.000559639
0.000572126
0.000571613
0.000559183
0.000534456
0.000497198
0.000449388
0.0003965
0.000347744
0.000325599
0.000317508
0.000314955
0.000314258
0.000314108
0.000314109
0.000314261
0.000314957
0.000317503
0.000325574
0.000347664
0.000396245
0.000448452
0.000494506
0.000527962
0.00054534
0.000544611
0.000522494
0.000470465
0.00036271
9.71105e-05
9.71687e-05
0.000364127
0.000473916
0.000529872
0.00055894
0.000570751
0.000569123
0.000555029
0.000528134
0.000488696
0.000440063
0.000389301
0.000343394
0.000323124
0.000315885
0.000313706
0.000313129
0.000313003
0.000313005
0.000313135
0.000313712
0.000315886
0.000323108
0.000343327
0.000389063
0.000439154
0.000486031
0.000521651
0.00054118
0.000542108
0.000521113
0.000469784
0.000362445
9.70981e-05
9.71683e-05
0.000364078
0.000473729
0.000529405
0.000557915
0.000568667
0.00056513
0.000547781
0.00051577
0.000469662
0.000416604
0.000372296
0.000333897
0.00031793
0.000312306
0.000311119
0.000310902
0.000310857
0.00031086
0.000310912
0.000311132
0.000312316
0.000317923
0.000333846
0.000372084
0.000415755
0.000467045
0.000509276
0.000533875
0.000538048
0.000518983
0.000468758
0.000362049
9.70777e-05
9.71669e-05
0.000364014
0.000473495
0.000528834
0.000556663
0.000566033
0.000559693
0.000536631
0.000493098
0.00042594
0.000349189
0.000332294
0.000314613
0.000307635
0.000303904
0.000305551
0.000306372
0.000306553
0.000306557
0.000306384
0.000305565
0.000303901
0.000307604
0.000314555
0.000332173
0.00034853
0.000423451
0.000486536
0.000522563
0.000532453
0.000516252
0.000467491
0.000361569
9.70507e-05
9.71639e-05
0.000363928
0.000473223
0.000528244
0.000555453
0.000563484
0.000553983
0.000522725
0.000455947
0.000320523
0.000109767
0.000239618
0.000281515
0.000290578
0.000287217
0.000294931
0.000297654
0.000298194
0.000298194
0.000297648
0.000294895
0.000287082
0.000290321
0.00028121
0.000239673
0.000109654
0.000318545
0.000449206
0.00050832
0.000526489
0.000513589
0.000466303
0.00036113
9.70247e-05
9.71559e-05
0.000363765
0.000472848
0.000527642
0.000554563
0.000562043
0.000550906
0.000513239
0.000415273
0.000115891
0.000101632
0.000258672
0.000289224
0.000294925
0.000297841
0.000298882
0.000299139
0.000299123
0.000298806
0.000297605
0.000294313
0.000287978
0.000256854
0.00010115
0.000115284
0.000408038
0.000498227
0.000523109
0.000512133
0.00046561
0.00036087
9.70088e-05
9.71298e-05
0.000363329
0.000472056
0.000526677
0.000553775
0.000562132
0.000553564
0.000524001
0.000459709
0.000327134
0.000111517
0.00025754
0.000308885
0.000320259
0.000323532
0.000322456
0.000322085
0.000322027
0.00032198
0.000321869
0.000321776
0.000321697
0.000316069
0.000301361
0.000249894
0.000110176
0.000320951
0.000449796
0.00050787
0.000525499
0.000512477
0.000465405
0.00036068
9.69972e-05
9.70503e-05
0.000362144
0.000470063
0.000524297
0.000551693
0.000561603
0.000557147
0.000537726
0.000499929
0.000440584
0.000372184
0.000367801
0.000358816
0.000346196
0.00034009
0.000337252
0.000336323
0.000336072
0.000335991
0.000335937
0.000335976
0.000336349
0.000336646
0.000339469
0.000347003
0.000355329
0.000426282
0.000486184
0.000520138
0.000528986
0.000512684
0.000464618
0.000359993
9.69479e-05
9.68338e-05
0.000359221
0.000465331
0.000518522
0.000545821
0.000557042
0.00055621
0.000544443
0.000521426
0.000487616
0.000448459
0.000416829
0.000383493
0.000350782
0.000337082
0.000332303
0.000330826
0.000330413
0.00033031
0.000330325
0.000330584
0.000331735
0.000335779
0.000348884
0.000382457
0.000420688
0.00046681
0.000504496
0.000525905
0.000528579
0.000509731
0.00046126
0.000357638
9.67646e-05
9.62993e-05
0.000352707
0.000455159
0.000506105
0.000532432
0.000544163
0.00054577
0.000539042
0.000524318
0.000501645
0.0004721
0.000438077
0.000399551
0.000362063
0.000345875
0.00034012
0.000338282
0.00033775
0.00033763
0.000337706
0.000338166
0.000339872
0.000345444
0.000361701
0.000400262
0.000441392
0.000479015
0.00050679
0.000521099
0.000519906
0.000499868
0.00045235
0.00035164
9.62583e-05
9.50789e-05
0.000339213
0.000434824
0.000481634
0.000505714
0.000516896
0.000519735
0.000516225
0.000506851
0.000491351
0.000469537
0.00044206
0.000411001
0.000382603
0.00036838
0.000362701
0.000360719
0.000360094
0.000359952
0.000360083
0.00036068
0.000362622
0.000368288
0.000382666
0.00041163
0.000443721
0.000471898
0.00049171
0.000500769
0.000497227
0.000477559
0.000433058
0.000338558
9.50585e-05
9.24455e-05
0.000311945
0.000395073
0.000434785
0.000454872
0.000464303
0.000467291
0.00046575
0.000460202
0.000450394
0.000435955
0.000417231
0.000396228
0.000377531
0.000367011
0.000362355
0.00036058
0.000359981
0.000359845
0.000359986
0.000360586
0.000362361
0.000367034
0.000377649
0.000396593
0.000417936
0.000436556
0.000449254
0.000454233
0.00044977
0.000432443
0.000394107
0.000311591
9.24385e-05
8.69776e-05
0.000252936
0.000311984
0.000339248
0.000352642
0.000358835
0.000360969
0.000360491
0.000357826
0.000352817
0.000345186
0.000335091
0.000323749
0.000313667
0.000307556
0.000304645
0.000303466
0.00030305
0.000302956
0.000303064
0.000303493
0.000304684
0.000307615
0.000313776
0.000323957
0.000335399
0.000345299
0.000351844
0.000353928
0.000350271
0.00033822
0.000311584
0.000252785
8.69782e-05
7.69516e-05
8.69775e-05
9.24499e-05
9.50883e-05
9.63105e-05
9.68365e-05
9.70202e-05
9.70173e-05
9.68726e-05
9.6572e-05
9.60832e-05
9.54011e-05
9.4604e-05
9.38779e-05
9.34241e-05
9.32051e-05
9.3116e-05
9.30842e-05
9.30768e-05
9.30851e-05
9.31175e-05
9.32069e-05
9.34262e-05
9.38815e-05
9.46123e-05
9.54147e-05
9.60847e-05
9.64998e-05
9.6583e-05
9.62045e-05
9.50524e-05
9.24417e-05
8.69777e-05
7.69562e-05
8.05883e-05
9.44985e-05
0.000102
0.000105704
0.000107496
0.000108323
0.000108677
0.000108811
0.00010885
0.000108849
0.000108834
0.000108816
0.000108802
0.000108792
0.000108786
0.000108782
0.000108779
0.000108778
0.000108778
0.000108779
0.000108782
0.000108785
0.000108791
0.000108799
0.000108807
0.000108807
0.000108774
0.000108648
0.000108304
0.000107485
0.000105699
0.000101998
9.44979e-05
8.05895e-05
9.44985e-05
0.000331211
0.00042253
0.000465929
0.000487992
0.000499007
0.000504128
0.000506199
0.000506773
0.000506663
0.00050629
0.000505873
0.000505526
0.000505283
0.000505128
0.000505028
0.000504965
0.000504934
0.000504933
0.000504964
0.000505026
0.000505122
0.000505264
0.000505466
0.000505693
0.00050578
0.000505309
0.000503424
0.000498509
0.000487672
0.000465736
0.00042242
0.000331157
9.44976e-05
0.000102003
0.000422571
0.000559144
0.000626728
0.000662141
0.000680345
0.000689011
0.000692482
0.000693244
0.000692695
0.000691643
0.000690561
0.000689703
0.00068914
0.000688808
0.000688602
0.000688475
0.000688413
0.000688414
0.000688475
0.000688601
0.000688798
0.000689103
0.000689581
0.000690196
0.000690636
0.00069012
0.000687135
0.00067903
0.000661319
0.000626269
0.000558917
0.000422484
0.000102001
0.000105709
0.000465998
0.000626764
0.000708599
0.000752465
0.000775385
0.000786235
0.000790155
0.000790211
0.000788291
0.000785643
0.000783119
0.000781197
0.000780003
0.000779341
0.000778925
0.000778661
0.000778531
0.000778532
0.000778662
0.000778924
0.000779328
0.000779949
0.000781015
0.000782582
0.000784193
0.000784675
0.000781875
0.000772323
0.000750554
0.00070754
0.000626254
0.00046581
0.000105706
0.000107504
0.00048808
0.000662214
0.000752515
0.000801581
0.000827223
0.000838775