/*--------------------------------*- C++ -*----------------------------------*\
| =========                 |                                                 |
| \\      /  F ield         | OpenFOAM: The Open Source CFD Toolbox           |
|  \\    /   O peration     | Version:  2112                                  |
|   \\  /    A nd           | Website:  www.openfoam.com                      |
|    \\/     M anipulation  |                                                 |
\*---------------------------------------------------------------------------*/
FoamFile
{
    version     2.0;
    format      ascii;
    arch        "LSB;label=32;scalar=64";
    class       volScalarField;
    location    "3.1";
    object      p;
}
// * * * * * * * * * * * * * * * * * * * * * * * * * * * * * * * * * * * * * //

dimensions      [0 2 -2 0 0 0 0];

internalField   nonuniform List<scalar> 
64906
(
-5.88318e-06
-5.86349e-06
-5.84945e-06
-5.85198e-06
-5.8753e-06
-5.92214e-06
-5.99439e-06
-6.09294e-06
-6.21697e-06
-6.36579e-06
-6.54712e-06
-6.71179e-06
-6.86858e-06
-7.01292e-06
-7.1376e-06
-7.23905e-06
-7.31446e-06
-7.36284e-06
-7.38376e-06
-7.37737e-06
-7.34444e-06
-7.28627e-06
-7.20605e-06
-7.10753e-06
-6.99786e-06
-6.87904e-06
-6.75108e-06
-6.65587e-06
-6.58737e-06
-6.54487e-06
-6.52789e-06
-6.53706e-06
-6.54981e-06
-6.56932e-06
-5.8254e-06
-5.75001e-06
-5.69237e-06
-5.65263e-06
-5.64042e-06
-5.6543e-06
-5.69199e-06
-5.75107e-06
-5.82764e-06
-5.91683e-06
-6.00007e-06
-6.10546e-06
-6.20486e-06
-6.29595e-06
-6.37368e-06
-6.43794e-06
-6.48725e-06
-6.52173e-06
-6.54122e-06
-6.54587e-06
-6.53613e-06
-6.51214e-06
-6.47565e-06
-6.427e-06
-6.37189e-06
-6.31532e-06
-6.27898e-06
-6.24115e-06
-6.21993e-06
-6.22136e-06
-6.25031e-06
-6.30625e-06
-6.39305e-06
-6.48865e-06
-5.80069e-06
-5.68511e-06
-5.57843e-06
-5.49203e-06
-5.44152e-06
-5.42478e-06
-5.43792e-06
-5.47777e-06
-5.53994e-06
-5.62148e-06
-5.71074e-06
-5.81044e-06
-5.89903e-06
-5.97723e-06
-6.03911e-06
-6.08897e-06
-6.12685e-06
-6.15475e-06
-6.17307e-06
-6.18193e-06
-6.18123e-06
-6.16921e-06
-6.1462e-06
-6.10817e-06
-6.06184e-06
-6.00723e-06
-5.96635e-06
-5.93872e-06
-5.93897e-06
-5.97338e-06
-6.04954e-06
-6.17023e-06
-6.31658e-06
-6.46673e-06
-5.81075e-06
-5.65882e-06
-5.50733e-06
-5.37782e-06
-5.29437e-06
-5.25626e-06
-5.2606e-06
-5.30626e-06
-5.39067e-06
-5.51484e-06
-5.66198e-06
-5.82803e-06
-5.96579e-06
-6.07964e-06
-6.16043e-06
-6.22096e-06
-6.26325e-06
-6.29245e-06
-6.30971e-06
-6.31513e-06
-6.30785e-06
-6.28292e-06
-6.23882e-06
-6.16309e-06
-6.06613e-06
-5.94426e-06
-5.84788e-06
-5.78304e-06
-5.77171e-06
-5.81785e-06
-5.92803e-06
-6.10248e-06
-6.30572e-06
-6.50433e-06
-5.86935e-06
-5.68705e-06
-5.50011e-06
-5.33877e-06
-5.2359e-06
-5.19421e-06
-5.21454e-06
-5.30166e-06
-5.45882e-06
-5.6968e-06
-5.99003e-06
-6.33265e-06
-6.60491e-06
-6.82012e-06
-6.96471e-06
-7.06853e-06
-7.13598e-06
-7.17707e-06
-7.1937e-06
-7.18592e-06
-7.15208e-06
-7.08228e-06
-6.97284e-06
-6.79424e-06
-6.56213e-06
-6.26383e-06
-6.02547e-06
-5.85388e-06
-5.782e-06
-5.80539e-06
-5.92519e-06
-6.1341e-06
-6.38195e-06
-6.62156e-06
-5.9783e-06
-5.76741e-06
-5.55085e-06
-5.36812e-06
-5.2595e-06
-5.23256e-06
-5.29394e-06
-5.45817e-06
-5.73977e-06
-6.17e-06
-6.71878e-06
-7.40107e-06
-7.911e-06
-8.30041e-06
-8.5542e-06
-8.73502e-06
-8.84896e-06
-8.91304e-06
-8.92954e-06
-8.89844e-06
-8.81758e-06
-8.66987e-06
-8.4501e-06
-8.09593e-06
-7.62584e-06
-6.98765e-06
-6.50008e-06
-6.14403e-06
-5.96035e-06
-5.92571e-06
-6.03089e-06
-6.25685e-06
-6.54293e-06
-6.82173e-06
-6.13541e-06
-5.89215e-06
-5.65112e-06
-5.45366e-06
-5.35087e-06
-5.35475e-06
-5.47833e-06
-5.74822e-06
-6.19591e-06
-6.89413e-06
-7.80139e-06
-9.09768e-06
-9.95182e-06
-1.05807e-05
-1.0978e-05
-1.12623e-05
-1.1439e-05
-1.1535e-05
-1.15519e-05
-1.14897e-05
-1.13465e-05
-1.1095e-05
-1.07309e-05
-1.01354e-05
-9.32097e-06
-8.06553e-06
-7.23102e-06
-6.61434e-06
-6.27661e-06
-6.15533e-06
-6.22592e-06
-6.45173e-06
-6.78523e-06
-7.10234e-06
-6.33485e-06
-6.05413e-06
-5.7906e-06
-5.58418e-06
-5.4987e-06
-5.54941e-06
-5.75387e-06
-6.1459e-06
-6.77673e-06
-7.75837e-06
-9.05538e-06
-1.1493e-05
-1.27399e-05
-1.36651e-05
-1.42385e-05
-1.46568e-05
-1.49163e-05
-1.50548e-05
-1.50728e-05
-1.497e-05
-1.47456e-05
-1.43605e-05
-1.38195e-05
-1.29245e-05
-1.17172e-05
-9.30781e-06
-8.11007e-06
-7.21319e-06
-6.702e-06
-6.47728e-06
-6.49944e-06
-6.72935e-06
-7.07488e-06
-7.45383e-06
-6.57037e-06
-6.24488e-06
-5.95668e-06
-5.74579e-06
-5.68781e-06
-5.79927e-06
-6.0973e-06
-6.61375e-06
-7.36912e-06
-8.56457e-06
-1.02272e-05
-1.47796e-05
-1.61296e-05
-1.7339e-05
-1.80873e-05
-1.86331e-05
-1.89721e-05
-1.91527e-05
-1.91723e-05
-1.90304e-05
-1.8729e-05
-1.82179e-05
-1.75016e-05
-1.63157e-05
-1.50069e-05
-1.04631e-05
-8.96981e-06
-7.83143e-06
-7.19794e-06
-6.86443e-06
-6.82637e-06
-7.04838e-06
-7.41839e-06
-7.86874e-06
-6.84309e-06
-6.45677e-06
-6.14282e-06
-5.93592e-06
-5.92528e-06
-6.12934e-06
-6.56616e-06
-7.23814e-06
-8.20127e-06
-1.05792e-05
-8.58658e-06
-1.82198e-05
-1.96053e-05
-2.13396e-05
-2.23461e-05
-2.30929e-05
-2.35579e-05
-2.38006e-05
-2.38221e-05
-2.36218e-05
-2.31981e-05
-2.24892e-05
-2.15169e-05
-1.98012e-05
-1.84855e-05
-8.71842e-06
-1.09681e-05
-8.64359e-06
-7.8367e-06
-7.36417e-06
-7.22236e-06
-7.41097e-06
-7.80227e-06
-8.33689e-06
-7.13774e-06
-6.67424e-06
-6.33275e-06
-6.13336e-06
-6.18181e-06
-6.50059e-06
-7.07386e-06
-7.75303e-06
-8.41785e-06
-6.22781e-06
-2.68982e-05
-2.42415e-05
-2.53039e-05
-2.62583e-05
-2.70834e-05
-2.76303e-05
-2.79094e-05
-2.79325e-05
-2.76993e-05
-2.71974e-05
-2.64137e-05
-2.54933e-05
-2.44436e-05
-2.70189e-05
-6.94992e-06
-9.00793e-06
-8.39958e-06
-7.89915e-06
-7.64745e-06
-7.78487e-06
-8.20032e-06
-8.83449e-06
-7.44564e-06
-6.8774e-06
-6.52367e-06
-6.3452e-06
-6.48872e-06
-7.02857e-06
-8.08103e-06
-9.81031e-06
-1.26599e-05
-1.63118e-05
-2.4443e-05
-2.33777e-05
-2.62854e-05
-2.84493e-05
-3.0103e-05
-3.13362e-05
-3.20988e-05
-3.2465e-05
-3.24896e-05
-3.21728e-05
-3.14607e-05
-3.02791e-05
-2.86796e-05
-2.6576e-05
-2.37255e-05
-2.4935e-05
-1.67334e-05
-1.31327e-05
-1.039e-05
-8.87954e-06
-8.19959e-06
-8.19264e-06
-8.59812e-06
-9.40311e-06
-7.71902e-06
-7.0863e-06
-6.70016e-06
-6.52478e-06
-6.72517e-06
-7.39055e-06
-8.6474e-06
-1.06114e-05
-1.34207e-05
-1.67448e-05
-2.22097e-05
-2.52418e-05
-2.8065e-05
-3.05209e-05
-3.24852e-05
-3.38756e-05
-3.47341e-05
-3.51454e-05
-3.51705e-05
-3.48099e-05
-3.40034e-05
-3.26664e-05
-3.07578e-05
-2.83525e-05
-2.55653e-05
-2.26101e-05
-1.71758e-05
-1.3872e-05
-1.11651e-05
-9.43828e-06
-8.59644e-06
-8.53568e-06
-8.97339e-06
-9.90789e-06
-7.96736e-06
-7.2795e-06
-6.86101e-06
-6.68032e-06
-6.91524e-06
-7.66077e-06
-9.04458e-06
-1.1176e-05
-1.41742e-05
-1.78731e-05
-2.2439e-05
-2.60191e-05
-2.93276e-05
-3.20482e-05
-3.41837e-05
-3.56368e-05
-3.65222e-05
-3.69403e-05
-3.69652e-05
-3.65977e-05
-3.57642e-05
-3.4365e-05
-3.22862e-05
-2.96175e-05
-2.63593e-05
-2.28143e-05
-1.82584e-05
-1.45904e-05
-1.17081e-05
-9.83683e-06
-8.90954e-06
-8.8338e-06
-9.31461e-06
-1.03541e-05
-8.18331e-06
-7.44678e-06
-6.99643e-06
-6.79998e-06
-7.04254e-06
-7.81826e-06
-9.24811e-06
-1.14343e-05
-1.44674e-05
-1.82066e-05
-2.25047e-05
-2.64302e-05
-3.00507e-05
-3.289e-05
-3.50805e-05
-3.65328e-05
-3.74071e-05
-3.78147e-05
-3.78392e-05
-3.74811e-05
-3.66578e-05
-3.52582e-05
-3.31234e-05
-3.03344e-05
-2.67637e-05
-2.28588e-05
-1.85707e-05
-1.48659e-05
-1.19591e-05
-1.00545e-05
-9.1179e-06
-9.06663e-06
-9.60099e-06
-1.07302e-05
-8.36181e-06
-7.58578e-06
-7.108e-06
-6.89372e-06
-7.13289e-06
-7.91788e-06
-9.36384e-06
-1.15699e-05
-1.46131e-05
-1.83738e-05
-2.26373e-05
-2.67336e-05
-3.05093e-05
-3.34139e-05
-3.56235e-05
-3.70578e-05
-3.79103e-05
-3.8303e-05
-3.83272e-05
-3.79834e-05
-3.7181e-05
-3.57983e-05
-3.36435e-05
-3.07882e-05
-2.70608e-05
-2.29801e-05
-1.87262e-05
-1.50032e-05
-1.20963e-05
-1.01905e-05
-9.26809e-06
-9.25061e-06
-9.83367e-06
-1.10332e-05
-8.49909e-06
-7.69353e-06
-7.19423e-06
-6.96357e-06
-7.19479e-06
-7.97889e-06
-9.4277e-06
-1.16408e-05
-1.46916e-05
-1.84788e-05
-2.27698e-05
-2.69644e-05
-3.08261e-05
-3.37664e-05
-3.59827e-05
-3.74031e-05
-3.82401e-05
-3.86228e-05
-3.86472e-05
-3.83136e-05
-3.75266e-05
-3.61575e-05
-3.39954e-05
-3.11041e-05
-2.72938e-05
-2.31085e-05
-1.88267e-05
-1.508e-05
-1.21737e-05
-1.02754e-05
-9.37288e-06
-9.38735e-06
-1.00094e-05
-1.12603e-05
-8.59377e-06
-7.76943e-06
-7.25633e-06
-7.01478e-06
-7.24044e-06
-8.0241e-06
-9.47669e-06
-1.16994e-05
-1.47655e-05
-1.85831e-05
-2.29128e-05
-2.71706e-05
-3.10882e-05
-3.40576e-05
-3.62853e-05
-3.77048e-05
-3.85378e-05
-3.89176e-05
-3.89427e-05
-3.86135e-05
-3.78317e-05
-3.64641e-05
-3.42905e-05
-3.13689e-05
-2.75001e-05
-2.32516e-05
-1.89315e-05
-1.51563e-05
-1.22399e-05
-1.03414e-05
-9.44962e-06
-9.48399e-06
-1.01305e-05
-1.14133e-05
-8.64553e-06
-7.81319e-06
-7.29454e-06
-7.04895e-06
-7.27373e-06
-8.06036e-06
-9.5209e-06
-1.17588e-05
-1.48476e-05
-1.86972e-05
-2.30647e-05
-2.73627e-05
-3.13144e-05
-3.43093e-05
-3.65545e-05
-3.7986e-05
-3.88265e-05
-3.92106e-05
-3.92372e-05
-3.89064e-05
-3.81195e-05
-3.67416e-05
-3.45514e-05
-3.1604e-05
-2.76993e-05
-2.34095e-05
-1.90507e-05
-1.52436e-05
-1.23063e-05
-1.03968e-05
-9.50303e-06
-9.54251e-06
-1.01979e-05
-1.14942e-05
-8.6549e-06
-7.82528e-06
-7.30926e-06
-7.06641e-06
-7.29504e-06
-8.08859e-06
-9.56175e-06
-1.1818e-05
-1.49358e-05
-1.88185e-05
-2.32248e-05
-2.75437e-05
-3.15073e-05
-3.4522e-05
-3.67888e-05
-3.82437e-05
-3.91024e-05
-3.94976e-05
-3.95263e-05
-3.91886e-05
-3.83872e-05
-3.6989e-05
-3.47791e-05
-3.18127e-05
-2.78951e-05
-2.35818e-05
-1.91819e-05
-1.53396e-05
-1.23716e-05
-1.04413e-05
-9.53344e-06
-9.56373e-06
-1.02128e-05
-1.15043e-05
-8.62371e-06
-7.80714e-06
-7.30125e-06
-7.06629e-06
-7.30036e-06
-8.09937e-06
-9.58309e-06
-1.18587e-05
-1.5011e-05
-1.89313e-05
-2.33934e-05
-2.7714e-05
-3.16578e-05
-3.46814e-05
-3.69698e-05
-3.84577e-05
-3.93437e-05
-3.97563e-05
-3.97882e-05
-3.94393e-05
-3.8616e-05
-3.71899e-05
-3.49618e-05
-3.19883e-05
-2.80885e-05
-2.377e-05
-1.93118e-05
-1.54292e-05
-1.24228e-05
-1.04668e-05
-9.53768e-06
-9.54807e-06
-1.01773e-05
-1.14456e-05
-8.55469e-06
-7.76038e-06
-7.27038e-06
-7.04459e-06
-7.27897e-06
-8.07172e-06
-9.5493e-06
-1.18251e-05
-1.50024e-05
-1.89647e-05
-2.35538e-05
-2.78386e-05
-3.17055e-05
-3.47024e-05
-3.69916e-05
-3.85104e-05
-3.94268e-05
-3.98607e-05
-3.98969e-05
-3.95355e-05
-3.869e-05
-3.72409e-05
-3.50176e-05
-3.20732e-05
-2.82367e-05
-2.39567e-05
-1.93725e-05
-1.54462e-05
-1.24097e-05
-1.04425e-05
-9.50089e-06
-9.49113e-06
-1.0092e-05
-1.13199e-05
-8.45339e-06
-7.68941e-06
-7.22016e-06
-7.00236e-06
-7.2272e-06
-7.99332e-06
-9.43312e-06
-1.1668e-05
-1.48414e-05
-1.88323e-05
-2.37661e-05
-2.7955e-05
-3.15893e-05
-3.45028e-05
-3.67561e-05
-3.82894e-05
-3.92275e-05
-3.96803e-05
-3.97233e-05
-3.93567e-05
-3.85032e-05
-3.70536e-05
-3.48773e-05
-3.20261e-05
-2.84215e-05
-2.42136e-05
-1.92943e-05
-1.53346e-05
-1.22936e-05
-1.0351e-05
-9.41981e-06
-9.39749e-06
-9.96467e-06
-1.11344e-05
-8.32618e-06
-7.59741e-06
-7.15049e-06
-6.93208e-06
-7.12326e-06
-7.81567e-06
-9.13653e-06
-1.12022e-05
-1.41446e-05
-1.77108e-05
-2.37986e-05
-2.82214e-05
-3.11784e-05
-3.38202e-05
-3.5921e-05
-3.74107e-05
-3.83398e-05
-3.88007e-05
-3.88539e-05
-3.85006e-05
-3.76777e-05
-3.62955e-05
-3.42915e-05
-3.17347e-05
-2.88227e-05
-2.42976e-05
-1.82325e-05
-1.47096e-05
-1.19002e-05
-1.01059e-05
-9.25629e-06
-9.255e-06
-9.79616e-06
-1.08935e-05
-8.18107e-06
-7.49704e-06
-7.07534e-06
-6.85283e-06
-6.99717e-06
-7.5864e-06
-8.74508e-06
-1.06524e-05
-1.38043e-05
-1.80752e-05
-2.5395e-05
-2.65536e-05
-3.0156e-05
-3.28526e-05
-3.47656e-05
-3.61801e-05
-3.70704e-05
-3.75218e-05
-3.75919e-05
-3.72838e-05
-3.65374e-05
-3.52717e-05
-3.34829e-05
-3.08895e-05
-2.72966e-05
-2.58625e-05
-1.8846e-05
-1.45625e-05
-1.14918e-05
-9.80451e-06
-9.06217e-06
-9.09768e-06
-9.61021e-06
-1.05929e-05
-7.99753e-06
-7.41891e-06
-6.99734e-06
-6.75591e-06
-6.82031e-06
-7.20846e-06
-7.87249e-06
-8.55914e-06
-9.11431e-06
-5.70713e-06
-3.41267e-05
-3.01891e-05
-3.1378e-05
-3.25614e-05
-3.36205e-05
-3.43544e-05
-3.47619e-05
-3.48527e-05
-3.46334e-05
-3.40935e-05
-3.3247e-05
-3.22385e-05
-3.12331e-05
-3.5125e-05
-6.43988e-06
-9.99508e-06
-9.52731e-06
-9.04214e-06
-8.7379e-06
-8.89974e-06
-9.41936e-06
-1.03111e-05
-7.83334e-06
-7.32919e-06
-6.93501e-06
-6.70017e-06
-6.74831e-06
-7.1236e-06
-7.90106e-06
-9.19318e-06
-1.13543e-05
-1.49015e-05
-1.60492e-05
-2.40056e-05
-2.65981e-05
-2.90618e-05
-3.07211e-05
-3.20108e-05
-3.28552e-05
-3.33304e-05
-3.34502e-05
-3.32278e-05
-3.26511e-05
-3.16657e-05
-3.02481e-05
-2.80691e-05
-2.54801e-05
-1.81826e-05
-1.66437e-05
-1.28373e-05
-1.04873e-05
-9.22241e-06
-8.70124e-06
-8.79881e-06
-9.27725e-06
-1.00593e-05
-7.71672e-06
-7.25622e-06
-6.88986e-06
-6.66586e-06
-6.69826e-06
-7.03043e-06
-7.72176e-06
-8.83953e-06
-1.04343e-05
-1.25572e-05
-1.66769e-05
-2.19636e-05
-2.44585e-05
-2.67815e-05
-2.84979e-05
-2.98383e-05
-3.07155e-05
-3.12162e-05
-3.1357e-05
-3.11583e-05
-3.06068e-05
-2.96476e-05
-2.8223e-05
-2.62522e-05
-2.3808e-05
-1.87142e-05
-1.41977e-05
-1.19415e-05
-1.02248e-05
-9.11548e-06
-8.62579e-06
-8.70296e-06
-9.14165e-06
-9.86221e-06
-7.64066e-06
-7.21709e-06
-6.88549e-06
-6.68654e-06
-6.72247e-06
-7.03513e-06
-7.6863e-06
-8.76186e-06
-1.03927e-05
-1.26832e-05
-1.57251e-05
-1.9428e-05
-2.21633e-05
-2.45636e-05
-2.6359e-05
-2.77591e-05
-2.86663e-05
-2.91804e-05
-2.93297e-05
-2.91404e-05
-2.85906e-05
-2.7626e-05
-2.61737e-05
-2.41814e-05
-2.1545e-05
-1.79326e-05
-1.46647e-05
-1.21005e-05
-1.02576e-05
-9.1298e-06
-8.62693e-06
-8.66808e-06
-9.05755e-06
-9.72431e-06
-7.60386e-06
-7.22029e-06
-6.93331e-06
-6.77193e-06
-6.82199e-06
-7.11776e-06
-7.71086e-06
-8.67488e-06
-1.01015e-05
-1.20725e-05
-1.45706e-05
-1.74373e-05
-1.99658e-05
-2.22471e-05
-2.39893e-05
-2.53324e-05
-2.61998e-05
-2.66915e-05
-2.68389e-05
-2.66718e-05
-2.61613e-05
-2.52628e-05
-2.38909e-05
-2.20327e-05
-1.96131e-05
-1.67702e-05
-1.40546e-05
-1.18238e-05
-1.01905e-05
-9.16035e-06
-8.6847e-06
-8.6979e-06
-9.03446e-06
-9.64786e-06
-7.60919e-06
-7.27588e-06
-7.05195e-06
-6.94905e-06
-7.03452e-06
-7.33283e-06
-7.88076e-06
-8.73028e-06
-9.94124e-06
-1.15583e-05
-1.3552e-05
-1.58073e-05
-1.79627e-05
-1.9972e-05
-2.155e-05
-2.27518e-05
-2.35395e-05
-2.39957e-05
-2.41332e-05
-2.39998e-05
-2.35312e-05
-2.27308e-05
-2.15161e-05
-1.98931e-05
-1.78409e-05
-1.55866e-05
-1.34171e-05
-1.15893e-05
-1.02111e-05
-9.3103e-06
-8.86542e-06
-8.83523e-06
-9.09077e-06
-9.64555e-06
-7.65634e-06
-7.38523e-06
-7.24927e-06
-7.22885e-06
-7.37503e-06
-7.70488e-06
-8.24332e-06
-9.02355e-06
-1.00778e-05
-1.1426e-05
-1.30341e-05
-1.48288e-05
-1.66066e-05
-1.8281e-05
-1.96255e-05
-2.06606e-05
-2.13509e-05
-2.17499e-05
-2.18779e-05
-2.17542e-05
-2.13586e-05
-2.06701e-05
-1.96413e-05
-1.82896e-05
-1.66217e-05
-1.48385e-05
-1.31174e-05
-1.16295e-05
-1.0465e-05
-9.6593e-06
-9.21414e-06
-9.10878e-06
-9.25845e-06
-9.69033e-06
-7.713e-06
-7.53979e-06
-7.49392e-06
-7.56456e-06
-7.78721e-06
-8.17682e-06
-8.75113e-06
-9.5288e-06
-1.05249e-05
-1.1739e-05
-1.31464e-05
-1.46898e-05
-1.62265e-05
-1.76702e-05
-1.88611e-05
-1.97901e-05
-2.04277e-05
-2.08012e-05
-2.0923e-05
-2.08036e-05
-2.04336e-05
-1.97998e-05
-1.88803e-05
-1.76982e-05
-1.62797e-05
-1.47742e-05
-1.33046e-05
-1.20161e-05
-1.09635e-05
-1.01849e-05
-9.69103e-06
-9.47896e-06
-9.49845e-06
-9.76819e-06
-7.77873e-06
-7.71331e-06
-7.75334e-06
-7.90576e-06
-8.20546e-06
-8.67462e-06
-9.33554e-06
-1.02086e-05
-1.13038e-05
-1.26124e-05
-1.40925e-05
-1.56621e-05
-1.7217e-05
-1.86737e-05
-1.99038e-05
-2.08783e-05
-2.15644e-05
-2.19693e-05
-2.20983e-05
-2.19565e-05
-2.154e-05
-2.08439e-05
-1.98647e-05
-1.86349e-05
-1.71987e-05
-1.56843e-05
-1.42028e-05
-1.28465e-05
-1.1713e-05
-1.08431e-05
-1.02452e-05
-9.9082e-06
-9.78658e-06
-9.87131e-06
-5.942e-06
-5.94594e-06
-5.95923e-06
-5.98576e-06
-6.03239e-06
-6.10345e-06
-6.20211e-06
-6.3298e-06
-6.48547e-06
-6.66694e-06
-6.86608e-06
-7.07064e-06
-7.26805e-06
-7.45119e-06
-7.60954e-06
-7.73823e-06
-7.83271e-06
-7.89124e-06
-7.91286e-06
-7.89772e-06
-7.84718e-06
-7.7633e-06
-7.65098e-06
-7.51524e-06
-7.3667e-06
-7.21203e-06
-7.06613e-06
-6.93837e-06
-6.83638e-06
-6.76108e-06
-6.71098e-06
-6.68099e-06
-6.66029e-06
-6.64609e-06
-5.89881e-06
-5.86991e-06
-5.85769e-06
-5.85452e-06
-5.87276e-06
-5.91572e-06
-5.98495e-06
-6.08015e-06
-6.19718e-06
-6.33239e-06
-6.47264e-06
-6.62136e-06
-6.76233e-06
-6.89444e-06
-7.00755e-06
-7.10078e-06
-7.1702e-06
-7.21565e-06
-7.2364e-06
-7.23262e-06
-7.20534e-06
-7.15498e-06
-7.0858e-06
-6.99889e-06
-6.9049e-06
-6.80537e-06
-6.71573e-06
-6.63359e-06
-6.57207e-06
-6.53436e-06
-6.5225e-06
-6.53281e-06
-6.55267e-06
-6.58269e-06
-5.8916e-06
-5.85279e-06
-5.82674e-06
-5.80052e-06
-5.79979e-06
-5.83061e-06
-5.89574e-06
-5.99627e-06
-6.12735e-06
-6.28919e-06
-6.46193e-06
-6.65128e-06
-6.8205e-06
-6.97733e-06
-7.10381e-06
-7.20598e-06
-7.27921e-06
-7.3262e-06
-7.3464e-06
-7.33993e-06
-7.30765e-06
-7.24707e-06
-7.16331e-06
-7.0505e-06
-6.92754e-06
-6.78688e-06
-6.66652e-06
-6.5614e-06
-6.49313e-06
-6.46179e-06
-6.46962e-06
-6.50848e-06
-6.54417e-06
-6.5837e-06
-5.91861e-06
-5.86306e-06
-5.81836e-06
-5.76957e-06
-5.75437e-06
-5.7829e-06
-5.86119e-06
-5.99474e-06
-6.17969e-06
-6.42504e-06
-6.69592e-06
-7.00835e-06
-7.2717e-06
-7.5109e-06
-7.69158e-06
-7.83293e-06
-7.92862e-06
-7.98647e-06
-8.00613e-06
-7.98765e-06
-7.93171e-06
-7.83065e-06
-7.69142e-06
-7.495e-06
-7.27746e-06
-7.01397e-06
-6.79883e-06
-6.61615e-06
-6.5046e-06
-6.45597e-06
-6.47044e-06
-6.53194e-06
-6.58699e-06
-6.6442e-06
-5.99449e-06
-5.91858e-06
-5.85813e-06
-5.79511e-06
-5.77768e-06
-5.82119e-06
-5.93682e-06
-6.13824e-06
-6.42488e-06
-6.82469e-06
-7.27691e-06
-7.82895e-06
-8.26665e-06
-8.65707e-06
-8.93666e-06
-9.1505e-06
-9.28865e-06
-9.3677e-06
-9.38712e-06
-9.34689e-06
-9.24784e-06
-9.07334e-06
-8.83426e-06
-8.48551e-06
-8.09366e-06
-7.59113e-06
-7.19961e-06
-6.86953e-06
-6.66836e-06
-6.56896e-06
-6.5674e-06
-6.63632e-06
-6.7057e-06
-6.78522e-06
-6.1221e-06
-6.02068e-06
-5.94736e-06
-5.87878e-06
-5.8723e-06
-5.94865e-06
-6.12515e-06
-6.42646e-06
-6.8575e-06
-7.48242e-06
-8.20846e-06
-9.16875e-06
-9.86831e-06
-1.04854e-05
-1.0908e-05
-1.12283e-05
-1.14289e-05
-1.154e-05
-1.15596e-05
-1.14875e-05
-1.1326e-05
-1.10445e-05
-1.06616e-05
-1.00847e-05
-9.43094e-06
-8.51998e-06
-7.86182e-06
-7.31396e-06
-6.98126e-06
-6.80004e-06
-6.7608e-06
-6.82288e-06
-6.9027e-06
-7.01126e-06
-6.30102e-06
-6.1674e-06
-6.08367e-06
-6.01693e-06
-6.033e-06
-6.1568e-06
-6.41081e-06
-6.83113e-06
-7.42843e-06
-8.34147e-06
-9.42701e-06
-1.10686e-05
-1.20954e-05
-1.29874e-05
-1.35682e-05
-1.40088e-05
-1.42777e-05
-1.44251e-05
-1.44454e-05
-1.4338e-05
-1.41089e-05
-1.37069e-05
-1.3165e-05
-1.23108e-05
-1.13297e-05
-9.73489e-06
-8.72976e-06
-7.90046e-06
-7.41437e-06
-7.1326e-06
-7.04107e-06
-7.08594e-06
-7.17557e-06
-7.32191e-06
-6.52726e-06
-6.3532e-06
-6.26166e-06
-6.20541e-06
-6.25849e-06
-6.4474e-06
-6.79586e-06
-7.33996e-06
-8.09214e-06
-9.23849e-06
-1.07434e-05
-1.35473e-05
-1.48785e-05
-1.60775e-05
-1.68358e-05
-1.74246e-05
-1.77805e-05
-1.79749e-05
-1.79963e-05
-1.7844e-05
-1.75294e-05
-1.69795e-05
-1.62591e-05
-1.50936e-05
-1.38057e-05
-1.10385e-05
-9.63963e-06
-8.57914e-06
-7.95068e-06
-7.56395e-06
-7.40674e-06
-7.42525e-06
-7.51411e-06
-7.71304e-06
-6.79335e-06
-6.56799e-06
-6.46816e-06
-6.42743e-06
-6.5264e-06
-6.7877e-06
-7.22637e-06
-7.86054e-06
-8.61938e-06
-9.85732e-06
-1.16109e-05
-1.69638e-05
-1.8067e-05
-1.93451e-05
-2.01777e-05
-2.08372e-05
-2.12337e-05
-2.14555e-05
-2.1478e-05
-2.13007e-05
-2.09472e-05
-2.03269e-05
-1.95311e-05
-1.82776e-05
-1.72158e-05
-1.18754e-05
-1.03058e-05
-9.13031e-06
-8.5011e-06
-8.03968e-06
-7.82109e-06
-7.8107e-06
-7.90371e-06
-8.17656e-06
-7.08479e-06
-6.8041e-06
-6.70199e-06
-6.69427e-06
-6.87319e-06
-7.2599e-06
-7.86986e-06
-8.62048e-06
-9.4594e-06
-1.15683e-05
-8.05774e-06
-1.95557e-05
-2.05819e-05
-2.22746e-05
-2.33007e-05
-2.41594e-05
-2.46622e-05
-2.49349e-05
-2.49584e-05
-2.47321e-05
-2.42748e-05
-2.34574e-05
-2.24686e-05
-2.07953e-05
-1.98394e-05
-8.16562e-06
-1.19763e-05
-9.9399e-06
-9.2648e-06
-8.70544e-06
-8.34792e-06
-8.26225e-06
-8.34038e-06
-8.70661e-06
-7.38966e-06
-7.04452e-06
-6.93736e-06
-6.96289e-06
-7.22371e-06
-7.73794e-06
-8.49377e-06
-9.2902e-06
-9.60647e-06
-5.31732e-06
-2.82181e-05
-2.38269e-05
-2.45136e-05
-2.53879e-05
-2.61185e-05
-2.66024e-05
-2.6863e-05
-2.68868e-05
-2.6673e-05
-2.62347e-05
-2.55462e-05
-2.47076e-05
-2.40293e-05
-2.82978e-05
-6.1311e-06
-1.0221e-05
-9.97002e-06
-9.35099e-06
-8.86967e-06
-8.70704e-06
-8.77897e-06
-9.2729e-06
-7.70895e-06
-7.28574e-06
-7.18579e-06
-7.2745e-06
-7.68923e-06
-8.50562e-06
-9.85074e-06
-1.17961e-05
-1.49154e-05
-1.80452e-05
-2.58496e-05
-2.23886e-05
-2.43548e-05
-2.61535e-05
-2.75278e-05
-2.84812e-05
-2.91058e-05
-2.94206e-05
-2.94447e-05
-2.91782e-05
-2.86025e-05
-2.76982e-05
-2.63752e-05
-2.46337e-05
-2.27211e-05
-2.63421e-05
-1.84351e-05
-1.53763e-05
-1.23871e-05
-1.06559e-05
-9.63097e-06
-9.22805e-06
-9.22687e-06
-9.83844e-06
-8.01058e-06
-7.51671e-06
-7.41004e-06
-7.53341e-06
-8.03888e-06
-9.01364e-06
-1.05897e-05
-1.27774e-05
-1.57729e-05
-1.85971e-05
-2.32414e-05
-2.4303e-05
-2.56027e-05
-2.6951e-05
-2.82062e-05
-2.91515e-05
-2.98044e-05
-3.01364e-05
-3.01603e-05
-2.98761e-05
-2.92711e-05
-2.8372e-05
-2.71618e-05
-2.5848e-05
-2.45685e-05
-2.35934e-05
-1.8989e-05
-1.62074e-05
-1.33371e-05
-1.13807e-05
-1.01591e-05
-9.654e-06
-9.64001e-06
-1.03786e-05
-8.28643e-06
-7.73339e-06
-7.62117e-06
-7.7751e-06
-8.36084e-06
-9.47634e-06
-1.12544e-05
-1.3695e-05
-1.68743e-05
-2.01364e-05
-2.37631e-05
-2.55169e-05
-2.69385e-05
-2.82592e-05
-2.95471e-05
-3.05044e-05
-3.11707e-05
-3.15053e-05
-3.1529e-05
-3.12418e-05
-3.06229e-05
-2.97108e-05
-2.84669e-05
-2.71776e-05
-2.57868e-05
-2.40733e-05
-2.04791e-05
-1.72712e-05
-1.42282e-05
-1.20395e-05
-1.06503e-05
-1.00576e-05
-1.00318e-05
-1.08727e-05
-8.525e-06
-7.92233e-06
-7.79829e-06
-7.96228e-06
-8.58617e-06
-9.76868e-06
-1.16315e-05
-1.41699e-05
-1.73804e-05
-2.0759e-05
-2.41514e-05
-2.62489e-05
-2.78548e-05
-2.91794e-05
-3.04778e-05
-3.14285e-05
-3.20938e-05
-3.24246e-05
-3.24481e-05
-3.21638e-05
-3.15448e-05
-3.06373e-05
-2.93804e-05
-2.80828e-05
-2.65075e-05
-2.4436e-05
-2.10788e-05
-1.77614e-05
-1.46975e-05
-1.24309e-05
-1.09877e-05
-1.03735e-05
-1.03637e-05
-1.12888e-05
-8.72126e-06
-8.08099e-06
-7.94601e-06
-8.11346e-06
-8.75981e-06
-9.98399e-06
-1.18996e-05
-1.45024e-05
-1.77445e-05
-2.11917e-05
-2.45379e-05
-2.68291e-05
-2.85303e-05
-2.98914e-05
-3.12127e-05
-3.21611e-05
-3.28223e-05
-3.31478e-05
-3.31711e-05
-3.28919e-05
-3.22765e-05
-3.13703e-05
-3.00896e-05
-2.8754e-05
-2.7086e-05
-2.48109e-05
-2.15009e-05
-1.81191e-05
-1.50337e-05
-1.27203e-05
-1.12505e-05
-1.06313e-05
-1.06386e-05
-1.16228e-05
-8.87111e-06
-8.20404e-06
-8.05893e-06
-8.22409e-06
-8.87888e-06
-1.0122e-05
-1.20621e-05
-1.46977e-05
-1.79611e-05
-2.14613e-05
-2.48252e-05
-2.72224e-05
-2.89933e-05
-3.03815e-05
-3.17163e-05
-3.26628e-05
-3.33213e-05
-3.36436e-05
-3.36672e-05
-3.33918e-05
-3.27793e-05
-3.18746e-05
-3.05798e-05
-2.9218e-05
-2.75008e-05
-2.50964e-05
-2.17685e-05
-1.83373e-05
-1.52389e-05
-1.29065e-05
-1.14321e-05
-1.08205e-05
-1.08459e-05
-1.18712e-05
-8.9736e-06
-8.29066e-06
-8.13909e-06
-8.30207e-06
-8.96123e-06
-1.02156e-05
-1.21723e-05
-1.48325e-05
-1.81205e-05
-2.16641e-05
-2.50618e-05
-2.75192e-05
-2.93398e-05
-3.07522e-05
-3.21011e-05
-3.30523e-05
-3.37128e-05
-3.40356e-05
-3.40601e-05
-3.37859e-05
-3.31727e-05
-3.22642e-05
-3.09557e-05
-2.95678e-05
-2.77866e-05
-2.53348e-05
-2.19752e-05
-1.85031e-05
-1.53853e-05
-1.30372e-05
-1.15588e-05
-1.09521e-05
-1.09885e-05
-1.20374e-05
-9.02854e-06
-8.34009e-06
-8.18616e-06
-8.34836e-06
-9.00991e-06
-1.02708e-05
-1.22393e-05
-1.49182e-05
-1.82323e-05
-2.18107e-05
-2.52459e-05
-2.77409e-05
-2.95891e-05
-3.10212e-05
-3.23838e-05
-3.33456e-05
-3.40133e-05
-3.43404e-05
-3.43666e-05
-3.40911e-05
-3.34735e-05
-3.25565e-05
-3.12355e-05
-2.98283e-05
-2.80164e-05
-2.55288e-05
-2.21319e-05
-1.8625e-05
-1.54832e-05
-1.31196e-05
-1.16342e-05
-1.1027e-05
-1.10663e-05
-1.21238e-05
-9.03651e-06
-8.35288e-06
-8.20066e-06
-8.36341e-06
-9.02525e-06
-1.02877e-05
-1.22627e-05
-1.49538e-05
-1.8294e-05
-2.19e-05
-2.53788e-05
-2.78937e-05
-2.97482e-05
-3.11939e-05
-3.25686e-05
-3.35459e-05
-3.4225e-05
-3.45602e-05
-3.45887e-05
-3.431e-05
-3.36851e-05
-3.27565e-05
-3.14261e-05
-3.00075e-05
-2.81914e-05
-2.56802e-05
-2.22379e-05
-1.87014e-05
-1.55315e-05
-1.31536e-05
-1.16591e-05
-1.10464e-05
-1.1081e-05
-1.21322e-05
-8.99924e-06
-8.33122e-06
-8.18439e-06
-8.34777e-06
-9.00545e-06
-1.02608e-05
-1.22323e-05
-1.49242e-05
-1.82912e-05
-2.19168e-05
-2.54626e-05
-2.79803e-05
-2.98121e-05
-3.12658e-05
-3.265e-05
-3.36474e-05
-3.43418e-05
-3.46886e-05
-3.47207e-05
-3.44374e-05
-3.38037e-05
-3.28609e-05
-3.15255e-05
-3.0104e-05
-2.83234e-05
-2.57936e-05
-2.22811e-05
-1.87215e-05
-1.55208e-05
-1.31347e-05
-1.16332e-05
-1.10131e-05
-1.10361e-05
-1.2064e-05
-8.91908e-06
-8.27713e-06
-8.1365e-06
-8.29476e-06
-8.93391e-06
-1.01577e-05
-1.20933e-05
-1.4748e-05
-1.81232e-05
-2.17564e-05
-2.54487e-05
-2.79385e-05
-2.97191e-05
-3.11635e-05
-3.25389e-05
-3.35523e-05
-3.42607e-05
-3.46207e-05
-3.46577e-05
-3.43713e-05
-3.37327e-05
-3.27832e-05
-3.14632e-05
-3.00571e-05
-2.83197e-05
-2.58173e-05
-2.21591e-05
-1.85891e-05
-1.53758e-05
-1.30158e-05
-1.15328e-05
-1.09192e-05
-1.09324e-05
-1.192e-05
-8.80201e-06
-8.19776e-06
-8.06519e-06
-8.21356e-06
-8.82086e-06
-9.98949e-06
-1.18567e-05
-1.44333e-05
-1.78034e-05
-2.13733e-05
-2.54089e-05
-2.78306e-05
-2.94651e-05
-3.09336e-05
-3.23141e-05
-3.33508e-05
-3.40728e-05
-3.4447e-05
-3.44913e-05
-3.42057e-05
-3.35676e-05
-3.26105e-05
-3.12966e-05
-2.98773e-05
-2.82721e-05
-2.58313e-05
-2.18381e-05
-1.83292e-05
-1.51159e-05
-1.2818e-05
-1.13782e-05
-1.07839e-05
-1.07861e-05
-1.17096e-05
-8.65423e-06
-8.09632e-06
-7.96641e-06
-8.08614e-06
-8.62142e-06
-9.66143e-06
-1.13372e-05
-1.36588e-05
-1.67922e-05
-1.98564e-05
-2.51295e-05
-2.77414e-05
-2.90042e-05
-3.0452e-05
-3.17846e-05
-3.28139e-05
-3.35324e-05
-3.39156e-05
-3.39696e-05
-3.36951e-05
-3.30791e-05
-3.21515e-05
-3.09025e-05
-2.95308e-05
-2.83139e-05
-2.55982e-05
-2.03884e-05
-1.74022e-05
-1.4432e-05
-1.23708e-05
-1.10893e-05
-1.05776e-05
-1.05953e-05
-1.14408e-05
-8.48857e-06
-7.98905e-06
-7.86687e-06
-7.96175e-06
-8.42858e-06
-9.34503e-06
-1.08407e-05
-1.29693e-05
-1.63252e-05
-2.00493e-05
-2.66479e-05
-2.58248e-05
-2.83602e-05
-3.05405e-05
-3.20838e-05
-3.31842e-05
-3.39214e-05
-3.43173e-05
-3.43868e-05
-3.41327e-05
-3.35289e-05
-3.25651e-05
-3.11259e-05
-2.90574e-05
-2.6552e-05
-2.70746e-05
-2.08022e-05
-1.71116e-05
-1.38917e-05
-1.19843e-05
-1.0834e-05
-1.03884e-05
-1.04084e-05
-1.11704e-05
-8.3108e-06
-7.8803e-06
-7.75213e-06
-7.79564e-06
-8.1324e-06
-8.77613e-06
-9.69153e-06
-1.05626e-05
-1.06235e-05
-4.38141e-06
-3.5879e-05
-2.95009e-05
-3.00924e-05
-3.10344e-05
-3.18866e-05
-3.24945e-05
-3.28562e-05
-3.29411e-05
-3.27549e-05
-3.2311e-05
-3.16381e-05
-3.08179e-05
-3.03894e-05
-3.67085e-05
-5.14075e-06
-1.1596e-05
-1.16693e-05
-1.09868e-05
-1.03574e-05
-1.01174e-05
-1.0194e-05
-1.08518e-05
-8.16528e-06
-7.78216e-06
-7.66795e-06
-7.70657e-06
-8.02189e-06
-8.65907e-06
-9.68471e-06
-1.10807e-05
-1.31297e-05
-1.64233e-05
-1.60903e-05
-2.49321e-05
-2.6805e-05
-2.88618e-05
-3.02127e-05
-3.1388e-05
-3.21516e-05
-3.26059e-05
-3.27155e-05
-3.249e-05
-3.19351e-05
-3.09848e-05
-2.97344e-05
-2.78804e-05
-2.61424e-05
-1.81993e-05
-1.80854e-05
-1.46715e-05
-1.24831e-05
-1.11307e-05
-1.03e-05
-9.99302e-06
-1.00224e-05
-1.05722e-05
-8.02748e-06
-7.69464e-06
-7.59284e-06
-7.62206e-06
-7.89731e-06
-8.46693e-06
-9.39023e-06
-1.06976e-05
-1.23906e-05
-1.44316e-05
-1.83694e-05
-2.37077e-05
-2.52064e-05
-2.67606e-05
-2.79324e-05
-2.903e-05
-2.97682e-05
-3.02275e-05
-3.03528e-05
-3.01575e-05
-2.96491e-05
-2.87965e-05
-2.76571e-05
-2.62196e-05
-2.48713e-05
-2.00758e-05
-1.5963e-05
-1.39405e-05
-1.2191e-05
-1.09136e-05
-1.01364e-05
-9.83878e-06
-9.85272e-06
-1.03329e-05
-7.92329e-06
-7.63874e-06
-7.5608e-06
-7.60304e-06
-7.87357e-06
-8.42655e-06
-9.33028e-06
-1.0639e-05
-1.24267e-05
-1.47071e-05
-1.76278e-05
-2.09932e-05
-2.27896e-05
-2.43006e-05
-2.54796e-05
-2.66074e-05
-2.73649e-05
-2.78319e-05
-2.79625e-05
-2.77735e-05
-2.72579e-05
-2.64037e-05
-2.52365e-05
-2.38001e-05
-2.2235e-05
-1.92859e-05
-1.63977e-05
-1.40851e-05
-1.22167e-05
-1.09007e-05
-1.00985e-05
-9.76725e-06
-9.74228e-06
-1.0159e-05
-7.85884e-06
-7.61859e-06
-7.56872e-06
-7.62972e-06
-7.89561e-06
-8.41571e-06
-9.25029e-06
-1.04522e-05
-1.20642e-05
-1.4114e-05
-1.64595e-05
-1.89753e-05
-2.06669e-05
-2.21151e-05
-2.33016e-05
-2.43903e-05
-2.51246e-05
-2.5576e-05
-2.57083e-05
-2.55368e-05
-2.50556e-05
-2.42614e-05
-2.31359e-05
-2.17785e-05
-2.02385e-05
-1.80759e-05
-1.57993e-05
-1.37334e-05
-1.20501e-05
-1.08296e-05
-1.00704e-05
-9.73457e-06
-9.68246e-06
-1.00437e-05
-7.83392e-06
-7.63915e-06
-7.6268e-06
-7.72052e-06
-7.99683e-06
-8.49644e-06
-9.26673e-06
-1.03468e-05
-1.17567e-05
-1.34873e-05
-1.54046e-05
-1.74068e-05
-1.8987e-05
-2.0414e-05
-2.16e-05
-2.2639e-05
-2.33541e-05
-2.37898e-05
-2.39289e-05
-2.37552e-05
-2.33137e-05
-2.25664e-05
-2.15033e-05
-2.02256e-05
-1.87592e-05
-1.70126e-05
-1.51475e-05
-1.34016e-05
-1.19312e-05
-1.08333e-05
-1.01237e-05
-9.77884e-06
-9.69017e-06
-9.9891e-06
-7.84114e-06
-7.69529e-06
-7.72718e-06
-7.86343e-06
-8.16177e-06
-8.65378e-06
-9.37419e-06
-1.03489e-05
-1.15839e-05
-1.30608e-05
-1.46742e-05
-1.63471e-05
-1.78186e-05
-1.91716e-05
-2.0303e-05
-2.12703e-05
-2.19481e-05
-2.23628e-05
-2.24945e-05
-2.23525e-05
-2.19334e-05
-2.12427e-05
-2.02707e-05
-1.91052e-05
-1.77574e-05
-1.6254e-05
-1.4676e-05
-1.31849e-05
-1.1906e-05
-1.09223e-05
-1.02557e-05
-9.89405e-06
-9.76184e-06
-9.98204e-06
-7.85938e-06
-7.76031e-06
-7.81821e-06
-7.98694e-06
-8.30653e-06
-8.80142e-06
-9.4966e-06
-1.0409e-05
-1.15385e-05
-1.28633e-05
-1.43112e-05
-1.5814e-05
-1.72264e-05
-1.85335e-05
-1.96374e-05
-2.05518e-05
-2.1202e-05
-2.15977e-05
-2.17257e-05
-2.1593e-05
-2.11949e-05
-2.05402e-05
-1.96288e-05
-1.85233e-05