/*--------------------------------*- C++ -*----------------------------------*\
| =========                 |                                                 |
| \\      /  F ield         | OpenFOAM: The Open Source CFD Toolbox           |
|  \\    /   O peration     | Version:  2112                                  |
|   \\  /    A nd           | Website:  www.openfoam.com                      |
|    \\/     M anipulation  |                                                 |
\*---------------------------------------------------------------------------*/
FoamFile
{
    version     2.0;
    format      ascii;
    arch        "LSB;label=32;scalar=64";
    class       surfaceScalarField;
    location    "3.1";
    object      phi;
}
// * * * * * * * * * * * * * * * * * * * * * * * * * * * * * * * * * * * * * //

dimensions      [0 3 -1 0 0 0 0];

oriented        oriented;

internalField   nonuniform List<scalar> 
188215
(
7.47434e-10
1.6467e-09
-2.39413e-09
2.84424e-09
7.1683e-10
-2.81363e-09
5.54005e-09
-3.65772e-10
-2.33004e-09
8.54716e-09
-1.44411e-09
-1.563e-09
1.161e-08
-2.0831e-09
-9.79768e-10
1.46424e-08
-2.39472e-09
-6.37699e-10
1.75875e-08
-2.46393e-09
-4.81099e-10
2.03326e-08
-2.29744e-09
-4.47715e-10
2.27032e-08
-1.86889e-09
-5.01707e-10
2.4297e-08
-9.72494e-10
-6.21221e-10
2.48237e-08
2.47428e-10
-7.74165e-10
2.4136e-08
1.52326e-09
-8.35569e-10
2.23163e-08
2.66281e-09
-8.43127e-10
1.94474e-08
3.66139e-09
-7.92456e-10
1.58175e-08
4.34724e-09
-7.17364e-10
1.16174e-08
4.84255e-09
-6.42435e-10
7.06672e-09
5.13714e-09
-5.86451e-10
2.3495e-09
5.27547e-09
-5.58248e-10
-2.34953e-09
5.25996e-09
-5.60933e-10
-6.84623e-09
5.09072e-09
-5.94014e-10
-1.09576e-08
4.76557e-09
-6.5418e-10
-1.44657e-08
4.24042e-09
-7.32339e-10
-1.71841e-08
3.5282e-09
-8.09788e-10
-1.88295e-08
2.50895e-09
-8.63549e-10
-1.93327e-08
1.36627e-09
-8.63037e-10
-1.86232e-08
1.06434e-10
-8.15961e-10
-1.68071e-08
-1.11857e-09
-6.97593e-10
-1.42303e-08
-1.89988e-09
-6.76909e-10
-1.12984e-08
-2.10726e-09
-8.24627e-10
-8.22177e-09
-1.8468e-09
-1.22981e-09
-5.23373e-09
-1.01143e-09
-1.97661e-09
-2.57698e-09
3.47731e-10
-3.00448e-09
-5.57557e-10
1.70714e-09
-3.72657e-09
2.77484e-09
-3.33239e-09
-1.26311e-09
6.56069e-09
-3.65088e-09
1.10599e-09
6.52636e-09
-8.17863e-09
4.63909e-09
5.76046e-09
-9.65933e-09
8.17699e-09
5.11539e-09
-1.00974e-08
1.1545e-08
5.0331e-09
-1.04842e-08
1.47487e-08
5.55735e-09
-1.11558e-08
1.78071e-08
6.69764e-09
-1.22199e-08
2.06607e-08
8.55693e-09
-1.3708e-08
2.31522e-08
1.12669e-08
-1.56273e-08
2.49756e-08
1.51733e-08
-1.79692e-08
2.58532e-08
2.00296e-08
-2.06597e-08
2.51145e-08
2.5924e-08
-2.3662e-08
2.31537e-08
3.11163e-08
-2.64928e-08
2.01118e-08
3.56712e-08
-2.89679e-08
1.63213e-08
3.91161e-08
-3.09784e-08
1.19717e-08
4.17026e-08
-3.25105e-08
7.27804e-09
4.33768e-08
-3.3546e-08
2.42178e-09
4.42208e-08
-3.40891e-08
-2.41471e-09
4.42319e-08
-3.41355e-08
-7.0493e-09
4.34103e-08
-3.3685e-08
-1.13023e-08
4.17606e-08
-3.2742e-08
-1.49606e-08
3.92018e-08
-3.1303e-08
-1.784e-08
3.57957e-08
-2.93882e-08
-1.9611e-08
3.12958e-08
-2.70158e-08
-2.01392e-08
2.61982e-08
-2.43038e-08
-1.90188e-08
2.04393e-08
-2.14531e-08
-1.69681e-08
1.5805e-08
-1.89744e-08
-1.4191e-08
1.22285e-08
-1.69054e-08
-1.09728e-08
1.00306e-08
-1.53561e-08
-7.43128e-09
8.94315e-09
-1.43315e-08
-3.6313e-09
8.89816e-09
-1.37096e-08
9.03197e-11
9.69093e-09
-1.30648e-08
2.37809e-09
1.05852e-08
-1.11658e-08
1.03894e-08
-5.23649e-09
-2.74037e-09
1.30127e-08
-3.71158e-09
-2.67968e-10
1.40656e-08
-1.00116e-08
3.74417e-09
1.40485e-08
-1.23002e-08
7.85449e-09
1.42476e-08
-1.32425e-08
1.17475e-08
1.52034e-08
-1.40633e-08
1.54531e-08
1.70603e-08
-1.52086e-08
1.9069e-08
1.99487e-08
-1.68669e-08
2.26047e-08
2.41508e-08
-1.91296e-08
2.59129e-08
3.00007e-08
-2.20419e-08
2.84846e-08
3.82278e-08
-2.56261e-08
2.97859e-08
4.84945e-08
-2.97662e-08
2.88199e-08
6.11582e-08
-3.42682e-08
2.63149e-08
7.21582e-08
-3.85369e-08
2.25731e-08
8.17037e-08
-4.22908e-08
1.81208e-08
8.89259e-08
-4.53576e-08
1.3143e-08
9.43772e-08
-4.76967e-08
7.85507e-09
9.79396e-08
-4.9275e-08
2.41931e-09
9.97567e-08
-5.01001e-08
-2.99567e-09
9.98121e-08
-5.01652e-08
-8.2212e-09
9.81058e-08
-4.94699e-08
-1.3096e-08
9.46567e-08
-4.80214e-08
-1.74042e-08
8.93228e-08
-4.58128e-08
-2.09641e-08
8.22358e-08
-4.28801e-08
-2.32481e-08
7.28502e-08
-3.92704e-08
-2.39599e-08
6.20772e-08
-3.51672e-08
-2.23575e-08
4.97065e-08
-3.08696e-08
-1.94493e-08
3.98932e-08
-2.69963e-08
-1.56951e-08
3.22294e-08
-2.37551e-08
-1.15429e-08
2.71529e-08
-2.12745e-08
-7.08828e-09
2.39861e-08
-1.94975e-08
-2.40893e-09
2.24215e-08
-1.82027e-08
2.05841e-09
2.20391e-08
-1.68155e-08
4.43699e-09
2.19684e-08
-1.37618e-08
2.03128e-08
-5.48642e-09
-3.68944e-09
1.98957e-08
-3.19365e-09
-1.01501e-09
2.17692e-08
-1.0378e-08
3.62772e-09
2.24343e-08
-1.30285e-08
8.50138e-09
2.35366e-08
-1.41626e-08
1.32162e-08
2.56568e-08
-1.51682e-08
1.78423e-08
2.89923e-08
-1.6558e-08
2.25871e-08
3.37739e-08
-1.85701e-08
2.75747e-08
4.05019e-08
-2.13387e-08
3.26566e-08
4.98452e-08
-2.49264e-08
3.69751e-08
6.32938e-08
-2.93845e-08
3.94033e-08
8.06115e-08
-3.45452e-08
3.78232e-08
1.02981e-07
-4.02427e-08
3.39708e-08
1.2162e-07
-4.56094e-08
2.85775e-08
1.3742e-07
-5.03229e-08
2.25641e-08
1.49103e-07
-5.41633e-08
1.60789e-08
1.57931e-07
-5.70684e-08
9.33044e-09
1.63697e-07
-5.90087e-08
2.45072e-09
1.66654e-07
-6.00171e-08
-4.40749e-09
1.6676e-07
-6.00893e-08
-1.10908e-08
1.64014e-07
-5.92247e-08
-1.74661e-08
1.58459e-07
-5.7427e-08
-2.332e-08
1.49841e-07
-5.4664e-08
-2.85031e-08
1.38386e-07
-5.09673e-08
-3.20847e-08
1.22839e-07
-4.64069e-08
-3.33384e-08
1.04547e-07
-4.12164e-08
-3.05024e-08
8.26083e-08
-3.57378e-08
-2.57225e-08
6.59798e-08
-3.08666e-08
-2.00129e-08
5.33005e-08
-2.67807e-08
-1.41532e-08
4.49475e-08
-2.36543e-08
-8.25072e-09
3.94747e-08
-2.1391e-08
-2.35415e-09
3.62529e-08
-1.97279e-08
3.03963e-09
3.46553e-08
-1.801e-08
5.72577e-09
3.37239e-08
-1.44417e-08
3.09922e-08
-4.95356e-09
-4.13138e-09
2.66158e-08
-2.58872e-09
-9.58604e-10
2.91178e-08
-1.05213e-08
4.56277e-09
3.03748e-08
-1.34619e-08
1.04737e-08
3.23571e-08
-1.47314e-08
1.63484e-08
3.56815e-08
-1.58994e-08
2.23517e-08
4.05457e-08
-1.75566e-08
2.88852e-08
4.72275e-08
-1.99871e-08
3.63224e-08
5.64317e-08
-2.3367e-08
4.45933e-08
6.93232e-08
-2.77489e-08
5.23352e-08
8.87724e-08
-3.32204e-08
5.71393e-08
1.15318e-07
-3.9511e-08
5.41449e-08
1.52724e-07
-4.67486e-08
4.75609e-08
1.81678e-07
-5.34742e-08
3.91148e-08
2.05305e-07
-5.94391e-08
3.03646e-08
2.22162e-07
-6.43088e-08
2.126e-08
2.34954e-07
-6.7919e-08
1.19574e-08
2.43289e-07
-7.02896e-08
2.53753e-09
2.47585e-07
-7.15114e-08
-6.86107e-09
2.47748e-07
-7.15895e-08
-1.60984e-08
2.43774e-07
-7.05227e-08
-2.50899e-08
2.35754e-07
-6.83039e-08
-3.3667e-08
2.23261e-07
-6.48427e-08
-4.1871e-08
2.0671e-07
-6.01199e-08
-4.81191e-08
1.83396e-07
-5.43092e-08
-5.06874e-08
1.54878e-07
-4.77628e-08
-4.53241e-08
1.17996e-07
-4.07507e-08
-3.6998e-08
9.2426e-08
-3.47724e-08
-2.79218e-08
7.39272e-08
-2.97029e-08
-1.93624e-08
6.22108e-08
-2.58227e-08
-1.13543e-08
5.4463e-08
-2.29963e-08
-3.7687e-09
4.96198e-08
-2.09525e-08
2.94625e-09
4.68846e-08
-1.89443e-08
6.35143e-09
4.52361e-08
-1.49174e-08
4.16627e-08
-4.31914e-09
-4.23456e-09
3.28778e-08
-2.02736e-09
-1.89383e-10
3.58758e-08
-1.08032e-08
6.54166e-09
3.77239e-08
-1.40802e-08
1.38316e-08
4.05842e-08
-1.5517e-08
2.12234e-08
4.51876e-08
-1.6898e-08
2.90332e-08
5.1651e-08
-1.8915e-08
3.7975e-08
6.01817e-08
-2.1896e-08
4.89504e-08
7.15055e-08
-2.60491e-08
6.2277e-08
8.73345e-08
-3.1338e-08
7.62776e-08
1.12629e-07
-3.78575e-08
8.60681e-08
1.50442e-07
-4.49145e-08
8.00374e-08
2.12647e-07
-5.38925e-08
6.84543e-08
2.55454e-07
-6.21928e-08
5.50524e-08
2.88608e-07
-6.99011e-08
4.21794e-08
3.11322e-07
-7.62879e-08
2.91526e-08
3.28787e-07
-8.08061e-08
1.5982e-08
3.40156e-07
-8.36968e-08
2.68548e-09
3.46053e-07
-8.51713e-08
-1.05927e-08
3.46283e-07
-8.52573e-08
-2.37057e-08
3.4084e-07
-8.39527e-08
-3.66292e-08
3.29904e-07
-8.12263e-08
-4.93313e-08
3.1283e-07
-7.68671e-08
-6.24716e-08
2.90482e-07
-7.06317e-08
-7.36487e-08
2.57653e-07
-6.308e-08
-7.91238e-08
2.15318e-07
-5.4965e-08
-6.85459e-08
1.53631e-07
-4.62135e-08
-5.38687e-08
1.17248e-07
-3.94993e-08
-3.95718e-08
9.305e-08
-3.34197e-08
-2.72035e-08
7.85349e-08
-2.86923e-08
-1.64126e-08
6.88411e-08
-2.5169e-08
-6.60119e-09
6.2455e-08
-2.26467e-08
1.94223e-09
5.86091e-08
-2.02679e-08
6.5695e-09
5.62804e-08
-1.56715e-08
5.19935e-08
-3.76129e-09
-4.12516e-09
3.84878e-08
-1.48486e-09
1.09945e-09
4.19373e-08
-1.12862e-08
9.54293e-09
4.43375e-08
-1.50571e-08
1.86264e-08
4.82048e-08
-1.67041e-08
2.78928e-08
5.42863e-08
-1.83651e-08
3.78319e-08
6.25505e-08
-2.08386e-08
4.95691e-08
7.29261e-08
-2.44816e-08
6.49763e-08
8.5609e-08
-2.95107e-08
8.55209e-08
1.02468e-07
-3.56777e-08
1.10097e-07
1.3095e-07
-4.28965e-08
1.30868e-07
1.79116e-07
-4.94443e-08
1.18059e-07
2.85324e-07
-5.98674e-08
9.76222e-08
3.45314e-07
-6.94229e-08
7.68474e-08
3.88882e-07
-7.94992e-08
5.84124e-08
4.17902e-07
-8.81443e-08
4.00829e-08
4.40734e-07
-9.36172e-08
2.15895e-08
4.55686e-07
-9.70365e-08
2.90593e-09
4.63499e-07
-9.87625e-08
-1.57666e-08
4.63814e-07
-9.88585e-08
-3.42245e-08
4.56619e-07
-9.73215e-08
-5.24864e-08
4.42249e-07
-9.40829e-08
-7.07893e-08
4.19916e-07
-8.87836e-08
-9.13231e-08
3.91312e-07
-8.02966e-08
-1.11296e-07
3.48012e-07
-7.03852e-08
-1.23389e-07
2.88446e-07
-6.10348e-08
-1.0144e-07
1.82518e-07
-5.08349e-08
-7.61949e-08
1.36676e-07
-4.46737e-08
-5.45517e-08
1.09339e-07
-3.79324e-08
-3.74353e-08
9.38249e-08
-3.24064e-08
-2.33572e-08
8.2871e-08
-2.81081e-08
-1.08175e-08
7.49333e-08
-2.5018e-08
7.9897e-11
6.98637e-08
-2.2152e-08
6.52689e-09
6.66523e-08
-1.68189e-08
6.17564e-08
-3.23602e-09
-3.79581e-09
4.32073e-08
-9.2372e-10
3.10608e-09
4.70423e-08
-1.20069e-08
1.37699e-08
5.00697e-08
-1.6396e-08
2.51787e-08
5.51297e-08
-1.83337e-08
3.67531e-08
6.30645e-08
-2.03526e-08
4.89977e-08
7.36878e-08
-2.33819e-08
6.32491e-08
8.6471e-08
-2.77963e-08
8.25575e-08
1.00126e-07
-3.38258e-08
1.10688e-07
1.15092e-07
-4.07553e-08
1.52487e-07
1.37775e-07
-4.86234e-08
1.97931e-07
1.83304e-07
-4.96336e-08
1.70844e-07
3.71312e-07
-5.89006e-08
1.36793e-07
4.48862e-07
-6.94962e-08
1.06409e-07
5.02827e-07
-8.35623e-08
8.10445e-08
5.39053e-07
-9.5786e-08
5.55964e-08
5.68312e-07
-1.0213e-07
2.96013e-08
5.87693e-07
-1.06011e-07
3.22396e-09
5.9783e-07
-1.07954e-07
-2.31552e-08
5.98254e-07
-1.0806e-07
-4.91563e-08
5.88947e-07
-1.06327e-07
-7.46137e-08
5.70351e-07
-1.02645e-07
-9.99573e-08
5.41753e-07
-9.6493e-08
-1.3023e-07
5.06024e-07
-8.44391e-08
-1.63868e-07
4.52207e-07
-7.05575e-08
-1.90019e-07
3.74835e-07
-6.02383e-08
-1.42673e-07
1.8631e-07
-5.11383e-08
-1.00489e-07
1.45013e-07
-5.05211e-08
-7.11444e-08
1.2318e-07
-4.31859e-08
-4.97149e-08
1.09413e-07
-3.7018e-08
-3.24518e-08
9.74681e-08
-3.18602e-08
-1.67238e-08
8.7337e-08
-2.81317e-08
-2.56846e-09
8.04208e-08
-2.47125e-08
6.22298e-09
7.61537e-08
-1.82929e-08
7.06078e-08
-2.62833e-09
-3.25414e-09
4.68111e-08
-3.49647e-10
5.82592e-09
5.09203e-08
-1.29581e-08
1.93491e-08
5.46577e-08
-1.81112e-08
3.37541e-08
6.11401e-08
-2.04155e-08
4.82129e-08
7.14637e-08
-2.2858e-08
6.29119e-08
8.54886e-08
-2.64998e-08
7.87649e-08
1.02362e-07
-3.17444e-08
9.93489e-08
1.1836e-07
-3.88179e-08
1.31436e-07
1.30143e-07
-4.71381e-08
1.97979e-07
1.2562e-07
-5.43884e-08
2.9412e-07
1.43086e-07
-5.59233e-08
2.37019e-07
4.79156e-07
-5.07427e-08
1.8311e-07
5.61424e-07
-5.86531e-08
1.42518e-07
6.21591e-07
-7.8172e-08
1.09491e-07
6.67042e-07
-9.49628e-08
7.54238e-08
7.03853e-07
-1.01473e-07
3.99363e-08
7.29164e-07
-1.05983e-07
3.67366e-09
7.42288e-07
-1.08195e-07
-3.26086e-08
7.42841e-07
-1.08305e-07
-6.8162e-08
7.3081e-07
-1.06309e-07
-1.02362e-07
7.0655e-07
-1.01999e-07
-1.3558e-07
6.70661e-07
-9.56894e-08
-1.76384e-07
6.2589e-07
-7.90617e-08
-2.30179e-07
5.65756e-07
-5.97539e-08
-2.85957e-07
4.82818e-07
-5.22038e-08
-1.86687e-07
1.44938e-07
-5.78973e-08
-1.20925e-07
1.35784e-07
-5.65336e-08
-8.73296e-08
1.39356e-07
-4.97713e-08
-6.40523e-08
1.28519e-07
-4.23827e-08
-4.4278e-08
1.1406e-07
-3.6366e-08
-2.48982e-08
9.99446e-08
-3.19875e-08
-6.62406e-09
9.00852e-08
-2.79385e-08
5.54154e-09
8.41888e-08
-2.02007e-08
7.80544e-08
-1.90515e-09
-2.35244e-09
4.89024e-08
2.61127e-10
9.59477e-09
5.3124e-08
-1.41509e-08
2.69898e-08
5.74854e-08
-2.02227e-08
4.57728e-08
6.53448e-08
-2.29877e-08
6.49104e-08
7.82888e-08
-2.59627e-08
8.38438e-08
9.68981e-08
-3.03428e-08
1.01778e-07
1.2096e-07
-3.65316e-08
1.18562e-07
1.47143e-07
-4.55674e-08
1.33162e-07
1.70809e-07
-5.52658e-08
1.85379e-07
1.45011e-07
-7.16085e-08
4.13088e-07
-8.46227e-08
3.2314e-07
5.90496e-07
-2.13918e-08
2.48466e-07
6.54959e-07
-1.88614e-08
1.98311e-07
7.09574e-07
-3.78275e-08
1.5545e-07
7.66259e-07
-5.63559e-08
1.07407e-07
8.10656e-07
-5.87606e-08
5.63307e-08
8.41909e-07
-6.16688e-08
4.31298e-09
8.57616e-07
-6.33105e-08
-4.77348e-08
8.5828e-07
-6.33911e-08
-9.89218e-08
8.43907e-07
-6.19104e-08
-1.47223e-07
8.13986e-07
-5.91349e-08
-1.90548e-07
7.70897e-07
-5.6912e-08
-2.41514e-07
7.15366e-07
-3.85098e-08
-3.1749e-07
6.61457e-07
-1.97257e-08
-4.07112e-07
5.95314e-07
-2.28741e-08
-1.74575e-07
-8.75998e-08
-1.21247e-07
1.55611e-07
-7.31548e-08
-1.06161e-07
1.8195e-07
-5.76802e-08
-8.61734e-08
1.57991e-07
-4.94601e-08
-6.32063e-08
1.32941e-07
-4.18484e-08
-3.80782e-08
1.11628e-07
-3.68111e-08
-1.34695e-08
9.75164e-08
-3.20399e-08
3.77806e-09
8.95998e-08
-2.26586e-08
8.2894e-08
-1.06147e-09
-1.22988e-09
4.90655e-08
1.06675e-09
1.4066e-08
5.33961e-08
-1.5568e-08
3.61119e-08
5.81384e-08
-2.26989e-08
6.05203e-08
6.69654e-08
-2.6029e-08
8.63823e-08
8.20718e-08
-2.9645e-08
1.12443e-07
1.05472e-07
-3.46349e-08
1.33895e-07
1.40611e-07
-4.11021e-08
1.36978e-07
1.91867e-07
-4.78068e-08
1.0687e-07
2.65943e-07
-6.50264e-08
3.60189e-07
-1.08307e-07
1.889e-07
3.22672e-07
7.89234e-08
2.54668e-07
5.4699e-07
4.22008e-08
2.51324e-07
6.78337e-07
3.45817e-08
2.05929e-07
7.75506e-07
3.61483e-08
1.4315e-07
8.4068e-07
3.27553e-08
7.50239e-08
8.81725e-07
2.83108e-08
5.14572e-09
9.01367e-07
2.61267e-08
-6.47686e-08
9.02063e-07
2.61313e-08
-1.33026e-07
8.83845e-07
2.83192e-08
-1.96131e-07
8.44315e-07
3.27763e-08
-2.42295e-07
7.8086e-07
3.62004e-08
-2.47432e-07
6.85765e-07
3.47379e-08
-1.84778e-07
5.56734e-07
4.20698e-08
3.32984e-07
7.75523e-08
-1.03558e-07
3.64722e-07
-1.05553e-07
-1.28409e-07
2.73799e-07
-6.69979e-08
-1.19235e-07
2.01077e-07
-5.22588e-08
-9.05903e-08
1.51729e-07
-4.74328e-08
-5.62421e-08
1.19745e-07
-4.24655e-08
-2.28005e-08
1.012e-07
-3.71253e-08
9.46146e-10
9.16341e-08
-2.57809e-08
8.41683e-08
-3.28137e-10
3.25368e-10
4.69396e-08
1.80053e-09
1.95981e-08
5.12486e-08
-1.71252e-08
4.76383e-08
5.55379e-08
-2.54397e-08
8.05568e-08
6.35486e-08
-2.95017e-08
1.19748e-07
7.7026e-08
-3.41455e-08
1.6871e-07
9.71603e-08
-4.065e-08
2.33119e-07
1.25188e-07
-4.89863e-08
3.20035e-07
1.61083e-07
-5.61323e-08
4.42772e-07
2.02538e-07
-5.93318e-08
5.98488e-07
2.4733e-07
-4.28576e-08
4.67636e-07
8.46016e-08
4.62505e-08
4.79081e-07
2.31835e-07
7.93922e-08
4.60419e-07
4.13278e-07
1.52375e-07
3.93115e-07
5.32282e-07
2.13359e-07
2.99704e-07
6.21475e-07
2.47442e-07
1.99689e-07
6.8082e-07
2.59874e-07
1.01801e-07
7.17903e-07
2.6171e-07
5.99478e-09
7.35714e-07
2.6146e-07
-8.97895e-08
7.36323e-07
2.61524e-07
-1.87606e-07
7.19752e-07
2.6191e-07
-2.87506e-07
6.83968e-07
2.60246e-07
-3.80789e-07
6.26011e-07
2.48132e-07
-4.48006e-07
5.38282e-07
2.147e-07
-4.66222e-07
4.20408e-07
1.54541e-07
-4.56517e-07
2.40162e-07
8.31176e-08
-5.93039e-07
8.66099e-08
4.99116e-08
-4.37194e-07
2.51015e-07
-4.21379e-08
-3.107e-07
2.09016e-07
-6.17105e-08
-2.17889e-07
1.69376e-07
-6.11098e-08
-1.45327e-07
1.35652e-07
-5.64858e-08
-8.63102e-08
1.10858e-07
-5.01297e-08
-3.71514e-08
9.54974e-08
-4.34561e-08
-3.10773e-09
8.73838e-08
-2.97934e-08
8.04692e-08
5.91286e-10
1.22404e-09
4.31024e-08
2.61323e-09
2.41429e-08
4.69954e-08
-1.86656e-08
5.71482e-08
5.0581e-08
-2.80484e-08
9.638e-08
5.71136e-08
-3.27968e-08
1.43993e-07
6.77861e-08
-3.83729e-08
2.0444e-07
8.29556e-08
-4.6243e-08
2.83509e-07
1.02299e-07
-5.61792e-08
3.85394e-07
1.24289e-07
-6.50909e-08
5.12242e-07
1.43987e-07
-6.82975e-08
6.55692e-07
1.58692e-07
-5.48119e-08
6.56482e-07
1.0542e-07
-2.16085e-08
6.511e-07
1.92412e-07
4.48047e-08
5.9424e-07
3.02746e-07
1.67392e-07
4.90342e-07
3.86312e-07
2.49868e-07
3.67501e-07
4.50841e-07
2.93475e-07
2.42507e-07
4.93546e-07
3.12269e-07
1.22593e-07
5.20502e-07
3.17314e-07
6.65707e-09
5.33472e-07
3.18179e-07
-1.09238e-07
5.33971e-07
3.18247e-07
-2.29021e-07
5.22006e-07
3.17529e-07
-3.53808e-07
4.96068e-07
3.12687e-07
-4.76443e-07
4.54381e-07
2.94265e-07
-5.80426e-07
3.90828e-07
2.51437e-07
-6.3799e-07
3.0796e-07
1.70012e-07
-6.44984e-07
1.97949e-07
4.92067e-08
-6.48172e-07
1.08506e-07
-1.87083e-08
-5.05797e-07
1.63148e-07
-5.45073e-08
-3.75756e-07
1.49966e-07
-7.09917e-08
-2.67598e-07
1.31914e-07
-7.06961e-08
-1.79266e-07
1.12048e-07
-6.4728e-08
-1.07035e-07
9.57923e-08
-5.71649e-08
-4.73049e-08
8.50005e-08
-4.92337e-08
-5.55393e-09
7.90532e-08
-3.34204e-08
7.31077e-08
1.80765e-09
1.9945e-09
3.77271e-08
3.38074e-09
2.79329e-08
4.10432e-08
-1.99863e-08
6.50387e-08
4.37814e-08
-3.03062e-08
1.0918e-07
4.8618e-08
-3.56457e-08
1.62699e-07
5.63164e-08
-4.20492e-08
2.30118e-07
6.68138e-08
-5.1277e-08
3.16351e-07
7.93416e-08
-6.32761e-08
4.23606e-07
9.26848e-08
-7.56508e-08
5.48016e-07
1.03191e-07
-8.36141e-08
6.72985e-07
1.12171e-07
-7.84475e-08
7.27495e-07
1.02615e-07
-5.17054e-08
7.4298e-07
1.52488e-07
2.44387e-08
6.75735e-07
2.17569e-07
1.52422e-07
5.55145e-07
2.71281e-07
2.35622e-07
4.12702e-07
3.13717e-07
2.79566e-07
2.70849e-07
3.41931e-07
2.93468e-07
1.3641e-07
3.60061e-07
2.9488e-07
7.17655e-09
3.68863e-07
2.93843e-07
-1.22008e-07
3.6928e-07
2.93876e-07
-2.56297e-07
3.61308e-07
2.94987e-07
-3.97927e-07
3.43989e-07
2.93709e-07
-5.40201e-07
3.1654e-07
2.80114e-07
-6.61083e-07
2.74797e-07
2.36914e-07
-7.29465e-07
2.21563e-07
1.54778e-07
-7.16899e-07
1.56764e-07
2.86192e-08
-6.65437e-07
1.06163e-07
-4.91193e-08
-5.40781e-07
1.16594e-07
-7.81019e-08
-4.13134e-07
1.08717e-07
-8.63982e-08
-2.99222e-07
9.96308e-08
-8.16291e-08
-2.02814e-07
8.82046e-08
-7.25641e-08
-1.22177e-07
7.84129e-08
-6.3258e-08
-5.48007e-08
7.1652e-08
-5.40276e-08
-7.21856e-09
6.7784e-08
-3.63129e-08
6.29143e-08
2.97481e-09
2.42795e-09
3.12828e-08
4.01643e-09
3.05457e-08
3.3961e-08
-2.10356e-08
7.05244e-08
3.59258e-08
-3.2123e-08
1.17782e-07
3.92876e-08
-3.79278e-08
1.74521e-07
4.45431e-08
-4.49656e-08
2.45061e-07
5.15104e-08
-5.52361e-08
3.33706e-07
5.95035e-08
-6.88069e-08
4.4206e-07
6.78715e-08
-8.3541e-08
5.64773e-07
7.47361e-08
-9.42575e-08
6.86371e-07
8.27097e-08
-9.21364e-08
7.67445e-07
8.73294e-08
-6.57882e-08
7.95015e-07
1.18152e-07
6.76599e-09
7.22631e-07
1.57913e-07
1.32041e-07
5.93181e-07
1.91916e-07
2.08814e-07
4.40192e-07
2.19216e-07
2.47491e-07
2.88649e-07
2.3781e-07
2.55664e-07
1.45287e-07
2.49956e-07
2.53467e-07
7.59176e-09
2.55953e-07
2.50605e-07
-1.30063e-07
2.56333e-07
2.50602e-07
-2.73302e-07
2.51083e-07
2.53464e-07
-4.24672e-07
2.39644e-07
2.55715e-07
-5.77584e-07
2.21685e-07
2.47767e-07
-7.0749e-07
1.94931e-07
2.09772e-07
-7.81292e-07
1.61309e-07
1.34056e-07
-7.57056e-07
1.2184e-07
1.06877e-08
-6.78439e-07
9.09242e-08
-6.33773e-08
-5.56831e-07
8.69158e-08
-9.19302e-08
-4.30656e-07
7.97476e-08
-9.7205e-08
-3.15216e-07
7.40258e-08
-8.98356e-08
-2.15622e-07
6.72432e-08
-7.86324e-08
-1.30736e-07
6.14828e-08
-6.79563e-08
-5.88811e-08
5.74722e-08
-5.76747e-08
-7.74192e-09
5.50937e-08
-3.84488e-08
5.12724e-08
3.90001e-09
2.66154e-09
2.41169e-08
4.50429e-09
3.23217e-08
2.61339e-08
-2.1833e-08
7.43077e-08
2.74459e-08
-3.35061e-08
1.23618e-07
2.96294e-08
-3.96518e-08
1.82275e-07
3.30291e-08
-4.71434e-08
2.54429e-07
3.75126e-08
-5.81559e-08
3.44104e-07
4.26668e-08
-7.28388e-08
4.52851e-07
4.82781e-08
-8.91532e-08
5.75616e-07
5.36011e-08
-1.0163e-07
6.98888e-07
6.07377e-08
-1.013e-07
7.92669e-07
6.85015e-08
-7.49534e-08
8.26635e-07
8.84304e-08
-4.24414e-09
7.52241e-07
1.1319e-07
1.19117e-07
6.17707e-07
1.34941e-07
1.91509e-07
4.58126e-07
1.52608e-07
2.26188e-07
3.00383e-07
1.64983e-07
2.3057e-07
1.51218e-07
1.7319e-07
2.2593e-07
7.96808e-09
1.77348e-07
2.21855e-07
-1.35256e-07
1.77725e-07
2.21832e-07
-2.8434e-07
1.74301e-07
2.25866e-07
-4.41982e-07
1.6677e-07
2.30516e-07
-6.01587e-07
1.54981e-07
2.26308e-07
-7.36717e-07
1.37787e-07
1.92274e-07
-8.12712e-07
1.1637e-07
1.20933e-07
-7.82209e-07
9.18828e-08
-5.45327e-10
-6.90585e-07
7.1971e-08
-7.26708e-08
-5.67059e-07
6.45876e-08
-1.01198e-07
-4.40573e-07
5.79879e-08
-1.04726e-07
-3.24341e-07
5.34863e-08
-9.56924e-08
-2.23097e-07
4.90447e-08
-8.3046e-08
-1.35763e-07
4.55286e-08
-7.13792e-08
-6.11373e-08
4.31668e-08
-6.03205e-08
-7.79971e-09
4.17368e-08
-3.99807e-08
3.88945e-08
4.57811e-09
2.74495e-09
1.65468e-08
4.82515e-09
3.34e-08
1.78929e-08
-2.2414e-08
7.66802e-08
1.8664e-08
-3.44983e-08
1.27262e-07
1.99186e-08
-4.08712e-08
1.87041e-07
2.19017e-08
-4.86513e-08
2.60095e-07
2.45813e-08
-6.01232e-08
3.50427e-07
2.78112e-08
-7.54756e-08
4.59774e-07
3.16145e-08
-9.26836e-08
5.83648e-07
3.58334e-08
-1.06106e-07
7.09321e-07
4.16621e-08
-1.06597e-07
8.09427e-07
4.88105e-08
-8.04155e-08
8.46963e-07
6.13199e-08
-1.04258e-08
7.71313e-07
7.60846e-08
1.12755e-07
6.33598e-07
8.93013e-08
1.83355e-07
4.69954e-07
1.00123e-07
2.16129e-07
3.08272e-07
1.07964e-07
2.18701e-07
1.55302e-07
1.13258e-07
2.12903e-07
8.33664e-09
1.16054e-07
2.08259e-07
-1.38622e-07
1.16452e-07
2.08231e-07
-2.9157e-07
1.1443e-07
2.12819e-07
-4.53242e-07
1.09833e-07
2.1861e-07
-6.17027e-07
1.02574e-07
2.16193e-07
-7.55463e-07
9.21811e-08
1.84042e-07
-8.32811e-07
7.92263e-08
1.14491e-07
-7.98859e-07
6.45893e-08
-6.65775e-09
-7.0074e-07
5.20781e-08
-7.82259e-08
-5.7463e-07
4.50913e-08
-1.06615e-07
-4.46813e-07
3.95296e-08
-1.09359e-07
-3.29665e-07
3.57782e-08
-9.94391e-08
-2.27316e-07
3.26743e-08
-8.59792e-08
-1.38514e-07
3.0438e-08
-7.37108e-08
-6.22312e-08
2.90364e-08
-6.21527e-08
-7.6241e-09
2.81922e-08
-4.10624e-08
2.62931e-08
4.97733e-09
2.76044e-09
8.80038e-09
4.98601e-09
3.39896e-08
9.47062e-09
-2.28069e-08
7.80354e-08
9.75964e-09
-3.51415e-08
1.29385e-07
1.02141e-08
-4.16453e-08
1.89877e-07
1.09944e-08
-4.95841e-08
2.63582e-07
1.21788e-08
-6.13028e-08
3.54548e-07
1.38539e-08
-7.70084e-08
4.64658e-07
1.61726e-08
-9.46686e-08
5.89734e-07
1.93103e-08
-1.08553e-07
7.17247e-07
2.35429e-08
-1.09393e-07
8.20441e-07
2.88632e-08
-8.3247e-08
8.59658e-07
3.53691e-08
-1.32657e-08
7.83234e-07
4.20668e-08
1.10442e-07
6.43599e-07
4.81877e-08
1.80749e-07
4.77524e-07
5.32208e-08
2.12976e-07
3.13412e-07
5.7125e-08
2.14951e-07
1.58052e-07
5.98661e-08
2.08752e-07
8.72519e-09
6.14706e-08
2.0391e-07
-1.4062e-07
6.1915e-08
2.03883e-07
-2.96031e-07
6.11703e-08
2.0867e-07
-4.6025e-07
5.91919e-08
2.14861e-07
-6.26615e-07
5.59033e-08
2.13036e-07
-7.6713e-07
5.1276e-08
1.8142e-07
-8.4539e-07
4.53437e-08
1.12143e-07
-8.09819e-07
3.86153e-08
-9.59735e-09
-7.08541e-07
3.1954e-08
-8.11537e-08
-5.80476e-07
2.65597e-08
-1.09533e-07
-4.51299e-07
2.23131e-08
-1.11961e-07
-3.33178e-07
1.92751e-08
-1.01618e-07
-2.2991e-07
1.71578e-08
-8.77516e-08
-1.40116e-07
1.58098e-08
-7.51657e-08
-6.28128e-08
1.50639e-08
-6.33303e-08
-7.47104e-09
1.46433e-08
-4.17929e-08
1.36731e-08
5.14899e-09
2.73555e-09
1.07696e-09
4.98786e-09
3.41681e-08
1.06691e-09
-2.30288e-08
7.85185e-08
8.71138e-10
-3.54619e-08
1.3022e-07
5.22041e-10
-4.20098e-08
1.91125e-07
8.41152e-11
-4.99946e-08
2.65333e-07
-2.48237e-10
-6.17808e-08
3.56941e-07
-1.76626e-10
-7.75774e-08
4.67872e-07
5.90216e-10
-9.53483e-08
5.93919e-07
2.60459e-09
-1.09342e-07
7.22428e-07
5.294e-09
-1.1026e-07
8.26442e-07
8.98977e-09
-8.41406e-08
8.65861e-07
1.001e-08
-1.40592e-08
7.88959e-07
8.86129e-09
1.10107e-07
6.48437e-07
7.97257e-09
1.80737e-07
4.81321e-07
7.22384e-09
2.13114e-07
3.16107e-07
7.19549e-09
2.15144e-07
1.59626e-07
7.39392e-09
2.08952e-07
9.15607e-09
7.83081e-09
2.0411e-07
-1.41364e-07
8.3506e-09
2.04084e-07
-2.97987e-07
8.92075e-09
2.08873e-07
-4.63457e-07
9.60637e-09
2.15055e-07
-6.31059e-07
1.03349e-08
2.13171e-07
-7.7267e-07
1.14956e-08
1.81391e-07
-8.51597e-07
1.25019e-08
1.11768e-07
-8.15911e-07
1.34153e-08
-1.04855e-08
-7.13791e-07
1.20012e-08
-8.21671e-08
-5.8467e-07
7.98739e-09
-1.10549e-07
-4.54438e-07
5.00168e-09
-1.12921e-07
-3.35405e-07
2.72963e-09
-1.02488e-07
-2.31374e-07
1.65525e-09
-8.8528e-08
-1.40938e-07
1.23423e-09
-7.58606e-08
-6.30988e-08
1.16518e-09
-6.39407e-08
-7.41195e-09
1.1811e-09
-4.22247e-08
1.15035e-09
5.11078e-09
2.66907e-09
-6.42204e-09
4.82994e-09
3.39332e-08
-7.11403e-09
-2.30832e-08
7.81253e-08
-7.85594e-09
-3.5465e-08
1.29763e-07
-9.14248e-09
-4.19732e-08
1.90762e-07
-1.10156e-08
-4.98994e-08
2.65316e-07
-1.32213e-08
-6.15807e-08
3.57559e-07
-1.51993e-08
-7.722e-08
4.69342e-07
-1.64279e-08
-9.4765e-08
5.96197e-07
-1.57264e-08
-1.08524e-07
7.24993e-07
-1.42361e-08
-1.09266e-07
8.27684e-07
-1.04931e-08
-8.32082e-08
8.65728e-07
-1.49892e-08
-1.30446e-08
7.88541e-07
-2.53709e-08
1.11419e-07
6.48125e-07
-3.44813e-08
1.8287e-07
4.81349e-07
-4.20086e-08
2.16009e-07
3.16368e-07
-4.65138e-08
2.1869e-07
1.6004e-07
-4.91584e-08
2.12881e-07
9.65067e-09
-4.99991e-08
2.08219e-07
-1.40825e-07
-4.93654e-08
2.08192e-07
-2.97409e-07
-4.72923e-08
2.12797e-07
-4.62827e-07
-4.3562e-08
2.18586e-07
-6.30338e-07
-3.81832e-08
2.1603e-07
-7.7212e-07
-3.01754e-08
1.83453e-07
-8.51598e-07
-2.09891e-08
1.1297e-07
-8.17431e-07
-1.11205e-08
-9.63212e-09
-7.1664e-07
-7.37171e-09
-8.14172e-08
-5.87217e-07
-1.16779e-08
-1.09758e-07
-4.56173e-07
-1.37333e-08
-1.12309e-07
-3.36291e-07
-1.50516e-08
-1.021e-07
-2.31676e-07
-1.46144e-08
-8.8346e-08
-1.40962e-07
-1.36575e-08
-7.58218e-08
-6.30761e-08
-1.27188e-08
-6.4002e-08
-7.43816e-09
-1.20867e-08
-4.23702e-08
-1.11463e-08
4.85854e-09
2.53131e-09
-1.34602e-08
4.50685e-09
3.32065e-08
-1.48282e-08
-2.2961e-08
7.67049e-08
-1.62187e-08
-3.51356e-08
1.27748e-07
-1.86725e-08
-4.15132e-08
1.88394e-07
-2.24046e-08
-4.92569e-08
2.62969e-07
-2.71597e-08
-6.06361e-08
3.55751e-07
-3.21591e-08
-7.58232e-08
4.68565e-07
-3.64955e-08
-9.27464e-08
5.96464e-07
-3.77851e-08
-1.0584e-07
7.25409e-07
-3.71801e-08
-1.06001e-07
8.24009e-07
-2.91489e-08
-7.99439e-08
8.58376e-07
-4.00123e-08
-9.34364e-09
7.81069e-07
-6.37869e-08
1.15723e-07
6.41931e-07
-8.4462e-08
1.89119e-07
4.77143e-07
-1.01359e-07
2.24139e-07
3.13936e-07
-1.11847e-07
2.2854e-07
1.59202e-07
-1.18198e-07
2.23773e-07
1.02583e-08
-1.20654e-07
2.19599e-07
-1.38815e-07
-1.19838e-07
2.19546e-07
-2.9394e-07
-1.15777e-07
2.2361e-07
-4.5781e-07
-1.07989e-07
2.28297e-07
-6.23663e-07
-9.6291e-08
2.23961e-07
-7.64549e-07
-7.87337e-08
1.89444e-07
-8.44551e-07
-5.79694e-08
1.16982e-07
-8.14251e-07
-3.51873e-08
-6.23313e-09
-7.17529e-07
-2.56444e-08
-7.84497e-08
-5.87963e-07
-3.44329e-08
-1.06811e-07
-4.55944e-07
-3.58336e-08
-1.09919e-07
-3.35181e-07
-3.54898e-08
-1.00325e-07
-2.30244e-07
-3.24273e-08
-8.71239e-08
-1.39786e-07
-2.91262e-08
-7.49894e-08
-6.25149e-08
-2.65224e-08
-6.34672e-08
-7.46726e-09
-2.49318e-08
-4.22026e-08
-2.29777e-08
4.36405e-09
2.24297e-09
-1.97118e-08
4.00859e-09
3.17878e-08
-2.17304e-08
-2.26426e-08
7.3877e-08
-2.3862e-08
-3.44459e-08
1.23518e-07
-2.77243e-08
-4.05892e-08
1.82938e-07
-3.38244e-08
-4.80006e-08
2.56691e-07
-4.20939e-08
-5.88181e-08
3.49466e-07
-5.17855e-08
-7.31483e-08
4.63422e-07
-6.16282e-08
-8.88235e-08
5.93656e-07
-6.74966e-08
-1.00523e-07
7.24375e-07
-6.86713e-08
-9.92282e-08
8.13909e-07
-4.52745e-08
-7.34084e-08
8.40658e-07
-6.48284e-08
-1.93275e-09
7.63162e-07
-1.10923e-07
1.24632e-07
6.2706e-07
-1.50113e-07
2.01753e-07
4.66867e-07
-1.81404e-07
2.40238e-07
3.07783e-07
-2.00791e-07
2.48029e-07
1.5668e-07
-2.12475e-07
2.4538e-07
1.10311e-08
-2.17217e-07
2.42212e-07
-1.34792e-07
-2.16109e-07
2.42095e-07
-2.86433e-07
-2.09158e-07
2.45022e-07
-4.46439e-07
-1.95434e-07
2.47451e-07
-6.08119e-07
-1.74206e-07
2.39595e-07
-7.465e-07
-1.4186e-07
2.01507e-07
-8.27369e-07
-1.02385e-07
1.25286e-07
-8.04914e-07
-5.80029e-08
3.60199e-10
-7.17092e-07
-4.10744e-08
-7.23914e-08
-5.85774e-07
-6.52051e-08
-1.00546e-07
-4.51575e-07
-6.49932e-08
-1.0504e-07
-3.29942e-07
-6.04041e-08
-9.67188e-08
-2.25416e-07
-5.23403e-08
-8.46132e-08
-1.36297e-07
-4.50408e-08
-7.32039e-08
-6.07822e-08
-3.98168e-08
-6.22205e-08
-7.24587e-09
-3.68175e-08
-4.16506e-08
-3.37908e-08
3.56725e-09
1.77355e-09
-2.48379e-08
3.35261e-09
2.95865e-08
-2.74384e-08
-2.2105e-08
6.94348e-08
-3.03373e-08
-3.33732e-08
1.16618e-07
-3.57325e-08
-3.91752e-08
1.73457e-07
-4.45624e-08
-4.61007e-08
2.44698e-07
-5.72326e-08
-5.61018e-08
3.35692e-07
-7.35853e-08
-6.91943e-08
4.49589e-07
-9.25306e-08
-8.29952e-08
5.83721e-07
-1.09063e-07
-9.25647e-08
7.22458e-07
-1.18307e-07
-8.91017e-08
7.92878e-07
-5.34372e-08
-6.22571e-08
8.03866e-07
-8.74664e-08
1.16506e-08
7.28531e-07
-1.74279e-07
1.38691e-07
5.99397e-07
-2.41284e-07
2.20304e-07
4.47799e-07
-2.92642e-07
2.62836e-07
2.9625e-07
-3.24659e-07
2.75417e-07
1.51734e-07
-3.43637e-07
2.75678e-07
1.20859e-08
-3.51489e-07
2.7392e-07
-1.2777e-07
-3.49939e-07
2.73686e-07
-2.72952e-07
-3.38938e-07
2.74961e-07
-4.25687e-07
-3.16934e-07
2.74235e-07
-5.79311e-07
-2.81958e-07
2.61376e-07
-7.11463e-07
-2.2879e-07
2.19082e-07
-7.91321e-07
-1.60902e-07
1.38374e-07
-7.85208e-07
-7.7342e-08
1.32257e-08
-7.15787e-07
-4.85817e-08
-6.19131e-08
-5.76568e-07
-1.1315e-07
-9.12737e-08
-4.3874e-07
-1.05076e-07
-9.77451e-08
-3.17547e-07
-9.02987e-08
-9.12986e-08
-2.15356e-07
-7.37463e-08
-8.07855e-08
-1.29483e-07
-6.05357e-08
-7.03776e-08
-5.7373e-08
-5.17834e-08
-6.01434e-08
-6.60509e-09
-4.69835e-08
-4.06019e-08
-4.28906e-08
2.49469e-09
1.00274e-09
-2.83884e-08
2.54773e-09
2.62965e-08
-3.13894e-08
-2.13427e-08
6.27413e-08
-3.48497e-08
-3.19323e-08
1.05724e-07
-4.1428e-08
-3.72872e-08
1.57286e-07
-5.25667e-08
-4.35576e-08
2.21985e-07
-6.94783e-08
-5.24535e-08
3.0583e-07
-9.35796e-08
-6.38506e-08
4.13939e-07
-1.25961e-07
-7.46782e-08
5.50818e-07
-1.65732e-07
-8.02107e-08
7.18826e-07
-2.17331e-07
-6.89842e-08
7.52582e-07
-4.95705e-08
-3.76231e-08
7.25849e-07
-8.71322e-08
2.63992e-08
6.5986e-07
-2.55226e-07
1.46936e-07
5.46097e-07