/*--------------------------------*- C++ -*----------------------------------*\
| =========                 |                                                 |
| \\      /  F ield         | OpenFOAM: The Open Source CFD Toolbox           |
|  \\    /   O peration     | Version:  2112                                  |
|   \\  /    A nd           | Website:  www.openfoam.com                      |
|    \\/     M anipulation  |                                                 |
\*---------------------------------------------------------------------------*/
FoamFile
{
    version     2.0;
    format      ascii;
    arch        "LSB;label=32;scalar=64";
    class       volVectorField;
    location    "3.1";
    object      U;
}
// * * * * * * * * * * * * * * * * * * * * * * * * * * * * * * * * * * * * * //

dimensions      [0 1 -1 0 0 0 0];

internalField   nonuniform List<vector> 
64906
(
(1.0055e-07 4.03994e-07 -1.11684e-06)
(2.2535e-06 -1.12944e-06 -1.15045e-06)
(5.9798e-06 -2.68426e-06 -4.9446e-07)
(1.01055e-05 -3.90878e-06 3.63114e-07)
(1.44939e-05 -4.7563e-06 1.064e-06)
(1.88777e-05 -5.36557e-06 1.58999e-06)
(2.31899e-05 -5.86134e-06 2.0094e-06)
(2.72994e-05 -6.2936e-06 2.38677e-06)
(3.10465e-05 -6.68837e-06 2.75066e-06)
(3.39553e-05 -6.93816e-06 3.1335e-06)
(3.56003e-05 -7.03164e-06 3.55939e-06)
(3.55213e-05 -6.65926e-06 4.13852e-06)
(3.36606e-05 -6.48968e-06 4.72921e-06)
(3.02573e-05 -6.37228e-06 5.33367e-06)
(2.55153e-05 -6.41971e-06 5.8676e-06)
(1.98441e-05 -6.48735e-06 6.30651e-06)
(1.34969e-05 -6.57685e-06 6.61077e-06)
(6.7883e-06 -6.63843e-06 6.77012e-06)
(-3.3325e-08 -6.6684e-06 6.77598e-06)
(-6.69046e-06 -6.66686e-06 6.62923e-06)
(-1.29351e-05 -6.63796e-06 6.33876e-06)
(-1.84543e-05 -6.6318e-06 5.91515e-06)
(-2.30007e-05 -6.64563e-06 5.3984e-06)
(-2.61686e-05 -6.82516e-06 4.81163e-06)
(-2.77711e-05 -7.05124e-06 4.23738e-06)
(-2.75832e-05 -7.46895e-06 3.66927e-06)
(-2.56452e-05 -7.36717e-06 3.24973e-06)
(-2.24291e-05 -7.09863e-06 2.80717e-06)
(-1.83949e-05 -6.59324e-06 2.2892e-06)
(-1.40516e-05 -5.85907e-06 1.605e-06)
(-9.64872e-06 -4.72252e-06 6.73253e-07)
(-5.55275e-06 -3.00154e-06 -4.7665e-07)
(-1.93843e-06 -9.01776e-07 -1.44661e-06)
(1.56868e-07 9.12019e-07 -1.56336e-06)
(-2.23759e-06 4.9065e-06 -1.90147e-06)
(-9.23651e-07 3.71266e-06 -6.34913e-06)
(4.14678e-06 1.99575e-06 -7.66307e-06)
(9.23797e-06 5.63849e-07 -7.92631e-06)
(1.42089e-05 -2.0566e-07 -8.14242e-06)
(1.89119e-05 -3.51418e-07 -8.59922e-06)
(2.3423e-05 4.7121e-08 -9.36861e-06)
(2.76833e-05 1.01928e-06 -1.04609e-05)
(3.16295e-05 2.63185e-06 -1.18798e-05)
(3.48061e-05 5.17651e-06 -1.3626e-05)
(3.69505e-05 8.49555e-06 -1.56879e-05)
(3.70952e-05 1.28781e-05 -1.80023e-05)
(3.50372e-05 1.6657e-05 -2.01806e-05)
(3.14009e-05 1.99418e-05 -2.20687e-05)
(2.63823e-05 2.23306e-05 -2.35969e-05)
(2.04871e-05 2.4091e-05 -2.47581e-05)
(1.39129e-05 2.51946e-05 -2.55436e-05)
(6.99665e-06 2.57359e-05 -2.5956e-05)
(-3.51845e-08 2.5719e-05 -2.59919e-05)
(-6.89451e-06 2.5144e-05 -2.56507e-05)
(-1.33568e-05 2.40079e-05 -2.49364e-05)
(-1.90862e-05 2.22169e-05 -2.38465e-05)
(-2.38927e-05 1.98062e-05 -2.23915e-05)
(-2.72725e-05 1.65111e-05 -2.05817e-05)
(-2.90429e-05 1.27553e-05 -1.84934e-05)
(-2.85688e-05 8.43824e-06 -1.62936e-05)
(-2.60867e-05 5.2925e-06 -1.43978e-05)
(-2.25503e-05 3.01258e-06 -1.2867e-05)
(-1.81424e-05 1.87881e-06 -1.17494e-05)
(-1.32854e-05 1.72965e-06 -1.10556e-05)
(-7.98051e-06 2.63475e-06 -1.06999e-05)
(-2.51835e-06 4.5427e-06 -1.03321e-05)
(2.74007e-06 6.75381e-06 -8.65118e-06)
(3.42835e-06 7.97668e-06 -2.80883e-06)
(-3.84392e-06 1.39816e-05 -1.70259e-06)
(-3.2558e-06 1.4817e-05 -7.99022e-06)
(2.52871e-06 1.43347e-05 -1.00723e-05)
(8.37501e-06 1.4036e-05 -1.07547e-05)
(1.41329e-05 1.46615e-05 -1.13244e-05)
(1.95493e-05 1.63663e-05 -1.21753e-05)
(2.48061e-05 1.92583e-05 -1.34526e-05)
(2.99307e-05 2.36058e-05 -1.52202e-05)
(3.5e-05 2.9715e-05 -1.75145e-05)
(3.93201e-05 3.82797e-05 -2.03637e-05)
(4.24976e-05 4.88549e-05 -2.36936e-05)
(4.27977e-05 6.16543e-05 -2.7332e-05)
(4.00342e-05 7.29497e-05 -3.07838e-05)
(3.54886e-05 8.28412e-05 -3.38003e-05)
(2.94363e-05 9.0383e-05 -3.62579e-05)
(2.26296e-05 9.6071e-05 -3.81291e-05)
(1.51648e-05 9.97834e-05 -3.9392e-05)
(7.41137e-06 0.00010167 -4.00534e-05)
(-4.57368e-07 0.000101717 -4.01058e-05)
(-8.15078e-06 9.99264e-05 -3.95489e-05)
(-1.54972e-05 9.63132e-05 -3.83899e-05)
(-2.2125e-05 9.07309e-05 -3.66235e-05)
(-2.79443e-05 8.3317e-05 -3.42733e-05)
(-3.2196e-05 7.35845e-05 -3.1372e-05)
(-3.46211e-05 6.25245e-05 -2.80518e-05)
(-3.39163e-05 5.0039e-05 -2.45766e-05)
(-3.02833e-05 3.99509e-05 -2.1462e-05)
(-2.54201e-05 3.2037e-05 -1.88953e-05)
(-1.95972e-05 2.6863e-05 -1.69686e-05)
(-1.34463e-05 2.38239e-05 -1.56385e-05)
(-6.84574e-06 2.26619e-05 -1.47245e-05)
(-2.65703e-07 2.29088e-05 -1.37154e-05)
(6.00102e-06 2.33799e-05 -1.09547e-05)
(5.66366e-06 2.19083e-05 -2.67343e-06)
(-4.92864e-06 2.36472e-05 -1.11094e-06)
(-4.68809e-06 2.57826e-05 -8.1853e-06)
(1.90445e-06 2.62723e-05 -1.05362e-05)
(8.74126e-06 2.72105e-05 -1.13229e-05)
(1.56387e-05 2.94063e-05 -1.19955e-05)
(2.22731e-05 3.31171e-05 -1.30031e-05)
(2.89766e-05 3.86124e-05 -1.45325e-05)
(3.58996e-05 4.64499e-05 -1.66861e-05)
(4.33715e-05 5.73078e-05 -1.95138e-05)
(5.02492e-05 7.26411e-05 -2.30726e-05)
(5.59478e-05 9.19266e-05 -2.72336e-05)
(5.66496e-05 0.000115989 -3.18555e-05)
(5.21045e-05 0.000136616 -3.62094e-05)
(4.5377e-05 0.000154369 -4.00022e-05)
(3.69134e-05 0.000167708 -4.30792e-05)
(2.79449e-05 0.000177779 -4.53984e-05)
(1.83259e-05 0.000184365 -4.69462e-05)
(8.49834e-06 0.000187733 -4.7752e-05)
(-1.45438e-06 0.000187848 -4.78095e-05)
(-1.12194e-05 0.000184708 -4.7118e-05)
(-2.07143e-05 0.000178355 -4.5683e-05)
(-2.94883e-05 0.00016852 -4.34764e-05)
(-3.76906e-05 0.000155446 -4.05127e-05)
(-4.40666e-05 0.000137996 -3.684e-05)
(-4.81925e-05 0.000117788 -3.26233e-05)
(-4.69501e-05 9.42517e-05 -2.8173e-05)
(-4.06287e-05 7.5779e-05 -2.42426e-05)
(-3.3002e-05 6.14071e-05 -2.09896e-05)
(-2.44596e-05 5.18208e-05 -1.8557e-05)
(-1.60987e-05 4.56293e-05 -1.68666e-05)
(-7.57658e-06 4.21906e-05 -1.57048e-05)
(5.17296e-07 4.07496e-05 -1.44903e-05)
(7.93643e-06 3.99929e-05 -1.13512e-05)
(7.14658e-06 3.68124e-05 -1.99242e-06)
(-5.55281e-06 3.35043e-05 -4.69387e-07)
(-5.19893e-06 3.66841e-05 -8.2072e-06)
(2.59757e-06 3.80761e-05 -1.07727e-05)
(1.08081e-05 4.02886e-05 -1.16186e-05)
(1.92748e-05 4.41832e-05 -1.23804e-05)
(2.76787e-05 5.00593e-05 -1.35757e-05)
(3.6606e-05 5.83033e-05 -1.54326e-05)
(4.64508e-05 6.97982e-05 -1.80989e-05)
(5.80979e-05 8.58132e-05 -2.16138e-05)
(6.97227e-05 0.000109247 -2.60784e-05)
(8.0627e-05 0.000140035 -3.1253e-05)
(8.20915e-05 0.000180985 -3.72684e-05)
(7.36874e-05 0.000214197 -4.28401e-05)
(6.27847e-05 0.000241979 -4.77351e-05)
(5.00019e-05 0.000262251 -5.17106e-05)
(3.72965e-05 0.000277586 -5.4634e-05)
(2.39221e-05 0.000287593 -5.65509e-05)
(1.04576e-05 0.000292735 -5.75403e-05)
(-3.16472e-06 0.000292927 -5.76024e-05)
(-1.65668e-05 0.000288163 -5.67359e-05)
(-2.98168e-05 0.000278532 -5.49388e-05)
(-4.23158e-05 0.000263564 -5.21329e-05)
(-5.48107e-05 0.000243681 -4.82718e-05)
(-6.52894e-05 0.000216315 -4.34958e-05)
(-7.31714e-05 0.000183678 -3.80603e-05)
(-7.09658e-05 0.000143422 -3.22174e-05)
(-5.92335e-05 0.000113807 -2.72884e-05)
(-4.66723e-05 9.161e-05 -2.31527e-05)
(-3.36414e-05 7.71562e-05 -2.00675e-05)
(-2.19558e-05 6.76116e-05 -1.7913e-05)
(-1.07334e-05 6.17983e-05 -1.64727e-05)
(-5.17644e-07 5.86744e-05 -1.50787e-05)
(8.64178e-06 5.68076e-05 -1.15949e-05)
(8.03367e-06 5.22492e-05 -1.24119e-06)
(-5.94038e-06 4.28707e-05 1.43165e-07)
(-5.0151e-06 4.6847e-05 -8.36692e-06)
(4.54135e-06 4.90658e-05 -1.12105e-05)
(1.4624e-05 5.25092e-05 -1.21454e-05)
(2.51561e-05 5.81462e-05 -1.30481e-05)
(3.58724e-05 6.62252e-05 -1.45303e-05)
(4.77364e-05 7.71419e-05 -1.6865e-05)
(6.15969e-05 9.20215e-05 -2.02493e-05)
(7.95223e-05 0.00011295 -2.4634e-05)
(9.90719e-05 0.000145407 -3.01471e-05)
(0.000120388 0.000190911 -3.60515e-05)
(0.000123448 0.000259018 -4.37818e-05)
(0.000107229 0.000309174 -5.09e-05)
(8.92518e-05 0.000349271 -5.74617e-05)
(6.9745e-05 0.000377354 -6.28705e-05)
(5.15171e-05 0.000398731 -6.66303e-05)
(3.24692e-05 0.000412637 -6.90316e-05)
(1.34758e-05 0.000419825 -7.02564e-05)
(-5.75872e-06 0.000420103 -7.03258e-05)
(-2.4697e-05 0.000413464 -6.92377e-05)
(-4.36362e-05 0.000400089 -6.6968e-05)
(-6.16661e-05 0.000379205 -6.33351e-05)
(-8.08833e-05 0.00035161 -5.80448e-05)
(-9.83678e-05 0.000311987 -5.1603e-05)
(-0.00011396 0.00026251 -4.46234e-05)
(-0.000109853 0.000195173 -3.70579e-05)
(-8.74539e-05 0.000151343 -3.14203e-05)
(-6.68445e-05 0.000120365 -2.62654e-05)
(-4.72121e-05 0.000101238 -2.23601e-05)
(-3.10586e-05 8.85848e-05 -1.95597e-05)
(-1.63058e-05 8.05276e-05 -1.77205e-05)
(-3.22618e-06 7.58417e-05 -1.60568e-05)
(8.47479e-06 7.30173e-05 -1.21017e-05)
(8.65078e-06 6.73706e-05 -5.30628e-07)
(-6.23337e-06 5.14578e-05 7.81353e-07)
(-4.28347e-06 5.61317e-05 -8.70524e-06)
(7.70039e-06 5.91706e-05 -1.19728e-05)
(2.02203e-05 6.39607e-05 -1.30395e-05)
(3.33771e-05 7.15652e-05 -1.41494e-05)
(4.68902e-05 8.20716e-05 -1.60241e-05)
(6.21574e-05 9.56533e-05 -1.8976e-05)
(8.07262e-05 0.00011318 -2.3251e-05)
(0.000106986 0.00013745 -2.85988e-05)
(0.000138317 0.000176948 -3.49754e-05)
(0.000180339 0.0002393 -4.04978e-05)
(0.000187123 0.00035342 -4.99777e-05)
(0.000154778 0.000425749 -5.84781e-05)
(0.000125638 0.000480897 -6.74358e-05)
(9.67022e-05 0.000518138 -7.50891e-05)
(7.11856e-05 0.00054705 -7.97676e-05)
(4.43409e-05 0.000565896 -8.26999e-05)
(1.7702e-05 0.000575695 -8.41746e-05)
(-9.35322e-06 0.000576081 -8.42543e-05)
(-3.5957e-05 0.000567038 -8.2936e-05)
(-6.27378e-05 0.000548911 -8.01524e-05)
(-8.81082e-05 0.00052063 -7.56164e-05)
(-0.000116815 0.000483954 -6.80891e-05)
(-0.000145427 0.000429254 -5.92592e-05)
(-0.000177093 0.000357599 -5.09123e-05)
(-0.000168744 0.000244111 -4.15798e-05)
(-0.00012529 0.000184322 -3.63616e-05)
(-9.29645e-05 0.000146447 -3.03681e-05)
(-6.46506e-05 0.000124129 -2.55633e-05)
(-4.3226e-05 0.000109048 -2.19631e-05)
(-2.42554e-05 9.87765e-05 -1.96051e-05)
(-7.53033e-06 9.24435e-05 -1.75549e-05)
(7.66141e-06 8.85122e-05 -1.29325e-05)
(9.19233e-06 8.18887e-05 2.17531e-07)
(-6.45257e-06 5.89359e-05 1.50249e-06)
(-3.02911e-06 6.42139e-05 -9.23338e-06)
(1.22116e-05 6.80777e-05 -1.30446e-05)
(2.79744e-05 7.43903e-05 -1.43131e-05)
(4.44805e-05 8.42598e-05 -1.57056e-05)
(6.13014e-05 9.74968e-05 -1.80855e-05)
(7.99345e-05 0.000113685 -2.18092e-05)
(0.000102536 0.000132456 -2.72211e-05)
(0.000136228 0.000155805 -3.36119e-05)
(0.000181671 0.000197433 -4.12816e-05)
(0.000265447 0.000272201 -4.0612e-05)
(0.000282134 0.000469752 -4.96668e-05)
(0.000218277 0.000565694 -5.988e-05)
(0.000174526 0.000634848 -7.32212e-05)
(0.000133791 0.000680617 -8.46676e-05)
(9.89972e-05 0.00071687 -9.0232e-05)
(6.12743e-05 0.000740724 -9.36666e-05)
(2.37553e-05 0.000753241 -9.53648e-05)
(-1.44952e-05 0.000753762 -9.54561e-05)
(-5.20148e-05 0.000742262 -9.39368e-05)
(-8.97609e-05 0.000719365 -9.0672e-05)
(-0.000124536 0.00068392 -8.52735e-05)
(-0.000165239 0.000638786 -7.39682e-05)
(-0.000208561 0.000569924 -6.07769e-05)
(-0.000271917 0.000474557 -5.07925e-05)
(-0.000252641 0.000277151 -4.17826e-05)
(-0.000166906 0.000206858 -4.27636e-05)
(-0.000121003 0.000166587 -3.5518e-05)
(-8.47972e-05 0.000145107 -2.97675e-05)
(-5.85891e-05 0.000128828 -2.51546e-05)
(-3.5105e-05 0.000116309 -2.21574e-05)
(-1.39094e-05 0.000108029 -1.96304e-05)
(6.02829e-06 0.000102829 -1.40222e-05)
(9.70194e-06 9.53365e-05 1.13543e-06)
(-6.63436e-06 6.50233e-05 2.32711e-06)
(-1.24825e-06 7.08263e-05 -9.94054e-06)
(1.8187e-05 7.57117e-05 -1.44315e-05)
(3.81523e-05 8.40062e-05 -1.59612e-05)
(5.89502e-05 9.70756e-05 -1.76883e-05)
(7.97582e-05 0.000114612 -2.06235e-05)
(0.000101454 0.000135579 -2.51973e-05)
(0.000125371 0.000156365 -3.18744e-05)
(0.000162853 0.000177456 -4.04038e-05)
(0.000214499 0.000209711 -4.8017e-05)
(0.000377402 0.000230587 -4.97057e-05)
(0.000419306 0.000588496 -4.40585e-05)
(0.000289684 0.000717391 -5.25338e-05)
(0.000232834 0.000806415 -7.26347e-05)
(0.000180163 0.000865968 -8.91593e-05)
(0.000134365 0.000914967 -9.52524e-05)
(8.30496e-05 0.000947548 -9.95663e-05)
(3.16142e-05 0.000964469 -0.00010161)
(-2.10647e-05 0.000965164 -0.000101708)
(-7.25514e-05 0.000949607 -9.98582e-05)
(-0.000124017 0.000918331 -9.57235e-05)
(-0.00017002 0.000870439 -8.98103e-05)
(-0.000223088 0.000811703 -7.34282e-05)
(-0.000279791 0.00072287 -5.35185e-05)
(-0.000409639 0.000594184 -4.53524e-05)
(-0.000363083 0.000233645 -5.13858e-05)
(-0.000197644 0.00022039 -4.97795e-05)
(-0.000147278 0.000189418 -4.24717e-05)
(-0.000106414 0.000170278 -3.47248e-05)
(-7.78597e-05 0.000151949 -2.90058e-05)
(-4.97764e-05 0.000134926 -2.53347e-05)
(-2.29035e-05 0.000123081 -2.22662e-05)
(3.42647e-06 0.000115834 -1.54476e-05)
(1.01687e-05 0.00010732 2.25384e-06)
(-6.68953e-06 6.91899e-05 3.229e-06)
(1.33491e-06 7.52838e-05 -1.08281e-05)
(2.63061e-05 8.11252e-05 -1.61422e-05)
(5.21541e-05 9.13967e-05 -1.80005e-05)
(7.951e-05 0.000107897 -2.01409e-05)
(0.000107189 0.000130567 -2.37238e-05)
(0.000133736 0.000157655 -2.92059e-05)
(0.000159713 0.000181293 -3.82397e-05)
(0.000191376 0.000188376 -4.84426e-05)
(0.000156694 0.000111384 -7.09638e-05)
(0.000451622 0.000212841 -7.27641e-05)
(0.000612938 0.000840758 -1.74568e-05)
(0.000380252 0.000911639 -1.95341e-05)
(0.00032119 0.00097512 -4.20338e-05)
(0.000254743 0.00104066 -6.16719e-05)
(0.000191596 0.00109486 -6.38854e-05)
(0.000117909 0.00113381 -6.69896e-05)
(4.39028e-05 0.00115396 -6.85743e-05)
(-3.15173e-05 0.00115485 -6.86512e-05)
(-0.000105603 0.00113645 -6.7222e-05)
(-0.000179553 0.0010992 -6.42432e-05)
(-0.000243162 0.00104654 -6.22075e-05)
(-0.000310567 0.000982096 -4.2695e-05)
(-0.000370283 0.000918514 -2.03937e-05)
(-0.000607407 0.000844201 -1.90285e-05)
(-0.00043867 0.000216112 -7.51531e-05)
(-0.000138113 0.000130007 -7.2032e-05)
(-0.000175857 0.000204752 -5.02218e-05)
(-0.000139767 0.000197064 -4.13378e-05)
(-0.000108145 0.000174975 -3.35956e-05)
(-7.33473e-05 0.000151752 -2.92862e-05)
(-3.73903e-05 0.00013531 -2.56192e-05)
(-1.49096e-06 0.000125624 -1.72819e-05)
(1.01379e-05 0.000116314 3.67557e-06)
(-6.76505e-06 7.09322e-05 4.0259e-06)
(4.36283e-06 7.72747e-05 -1.19122e-05)
(3.58994e-05 8.40358e-05 -1.8171e-05)
(6.89885e-05 9.64574e-05 -2.04341e-05)
(0.000105135 0.000117447 -2.30658e-05)
(0.000142939 0.000149211 -2.70859e-05)
(0.000178537 0.000194764 -3.2676e-05)
(0.000204546 0.000256028 -3.83615e-05)
(0.000167155 0.000335246 -5.7068e-05)
(0.00017045 0.000383591 -8.928e-05)
(0.000276416 0.000722801 7.12947e-05)
(0.000312035 0.000922132 3.27205e-05)
(0.000384299 0.00104964 1.93653e-05)
(0.000335645 0.0011633 1.94074e-05)
(0.00025368 0.00124393 1.47337e-05)
(0.000157739 0.00129745 9.93982e-06)
(5.80136e-05 0.00132357 7.74113e-06)
(-4.32341e-05 0.00132459 7.74617e-06)
(-0.00014306 0.00130054 9.94742e-06)
(-0.000239311 0.00124917 1.47484e-05)
(-0.00032193 0.00117086 1.94393e-05)
(-0.000372303 0.00105968 1.94802e-05)
(-0.000304039 0.000934589 3.24427e-05)
(-0.00027141 0.000735258 6.977e-05)
(-0.000166733 0.000395922 -8.65194e-05)
(-0.000159852 0.000349623 -5.84102e-05)
(-0.000187948 0.000270746 -4.20165e-05)
(-0.000152725 0.000211535 -3.79707e-05)
(-0.000105939 0.000170217 -3.38788e-05)
(-5.69527e-05 0.000145232 -2.98508e-05)
(-8.3215e-06 0.000131934 -1.97096e-05)
(9.85073e-06 0.000121254 5.13762e-06)
(-6.51039e-06 6.95341e-05 4.87999e-06)
(8.30574e-06 7.59512e-05 -1.31468e-05)
(4.7701e-05 8.26904e-05 -2.0412e-05)
(9.07048e-05 9.52942e-05 -2.31893e-05)
(0.000141641 0.000116848 -2.66111e-05)
(0.000203972 0.000150173 -3.18777e-05)
(0.000283097 0.000199916 -3.91509e-05)
(0.00039261 0.000271981 -4.53283e-05)
(0.000524087 0.000376469 -4.89157e-05)
(0.000788653 0.000524001 -3.11231e-05)
(0.000816437 0.000146684 5.09813e-05)
(0.000629479 0.000307899 7.09766e-05)
(0.000697419 0.000680781 0.000130474)
(0.00062786 0.000891711 0.000185926)
(0.000501664 0.00104118 0.000217061)
(0.000358871 0.00114032 0.000226841)
(0.000216218 0.00120138 0.000227943)
(7.72693e-05 0.00123038 0.000227599)
(-6.00383e-05 0.00123134 0.000227663)
(-0.000198917 0.00120433 0.000228135)
(-0.000341445 0.00114538 0.000227184)
(-0.00048401 0.00104867 0.00021767)
(-0.000610046 0.000902041 0.00018711)
(-0.000679612 0.000694473 0.000132334)
(-0.000609969 0.000324383 7.41298e-05)
(-0.00080445 0.000149997 5.36646e-05)
(-0.000783584 0.000526758 -3.01688e-05)
(-0.000513636 0.000385609 -5.07235e-05)
(-0.000375416 0.000284181 -4.93542e-05)
(-0.000256053 0.000215356 -4.54345e-05)
(-0.000163683 0.000170345 -4.01314e-05)
(-8.72761e-05 0.000144056 -3.5103e-05)
(-1.97072e-05 0.000130467 -2.29175e-05)
(7.81035e-06 0.000119574 6.84084e-06)
(-6.37099e-06 6.51368e-05 5.76975e-06)
(1.15452e-05 7.11572e-05 -1.43649e-05)
(5.75502e-05 7.68831e-05 -2.2547e-05)
(0.000108401 8.74072e-05 -2.58103e-05)
(0.000169603 0.000104785 -2.99445e-05)
(0.000245858 0.000129931 -3.63371e-05)
(0.000343442 0.00016292 -4.49506e-05)
(0.000473814 0.000201086 -5.28392e-05)
(0.000630183 0.0002336 -5.59488e-05)
(0.000861909 0.000250187 -4.32447e-05)
(0.000970988 0.000123364 -1.66976e-05)
(0.000946292 0.00031071 3.04958e-05)
(0.000918656 0.000503774 0.000140292)
(0.000786844 0.000645999 0.000212421)
(0.000619682 0.000756023 0.000249519)
(0.000437364 0.000829456 0.000264462)
(0.000261116 0.000875681 0.000268016)
(9.23269e-05 0.00089798 0.000268523)
(-7.319e-05 0.000898773 0.000268587)
(-0.000241852 0.000878074 0.000268208)
(-0.000417867 0.000833491 0.000264818)
(-0.000599809 0.000761725 0.000250164)
(-0.000766894 0.000653319 0.000213719)
(-0.000899031 0.000512103 0.000142466)
(-0.00092752 0.000318952 3.4365e-05)
(-0.000957705 0.000126641 -1.41938e-05)
(-0.000853313 0.00025709 -4.29091e-05)
(-0.000619406 0.000242825 -5.80966e-05)
(-0.000456165 0.000212615 -5.74362e-05)
(-0.000314784 0.000177531 -5.21658e-05)
(-0.000201937 0.000149123 -4.58905e-05)
(-0.000108891 0.000130617 -3.98898e-05)
(-2.73312e-05 0.00012055 -2.5794e-05)
(7.13027e-06 0.000111137 8.31382e-06)
(-6.30793e-06 5.84328e-05 6.61024e-06)
(1.42023e-05 6.37183e-05 -1.53867e-05)
(6.57922e-05 6.83084e-05 -2.43678e-05)
(0.000122978 7.65246e-05 -2.80347e-05)
(0.000191875 8.97531e-05 -3.27801e-05)
(0.000277364 0.000108141 -4.02856e-05)
(0.000385643 0.000130735 -5.07043e-05)
(0.000525694 0.000155405 -6.20438e-05)
(0.000690042 0.000175592 -7.03222e-05)
(0.000888072 0.000192147 -6.8103e-05)
(0.00102177 0.000159912 -4.89436e-05)
(0.00107956 0.000249826 1.20598e-05)
(0.00104759 0.00036598 0.000126105)
(0.000893529 0.000462242 0.000196381)
(0.00069894 0.000537867 0.000232127)
(0.000489231 0.000587504 0.000241438)
(0.000291014 0.000619107 0.000241184)
(0.000102407 0.000634354 0.000239749)
(-8.17749e-05 0.000635001 0.000239778)
(-0.000270233 0.000621048 0.00024127)
(-0.000468187 0.000590735 0.000241614)
(-0.000677504 0.000542351 0.000232519)
(-0.000872155 0.000467896 0.000197374)
(-0.00102681 0.000372452 0.000127967)
(-0.00106175 0.000256809 1.56459e-05)
(-0.00100935 0.000164962 -4.68009e-05)
(-0.00087836 0.000198548 -6.77012e-05)
(-0.000678169 0.00018383 -7.25334e-05)
(-0.000506666 0.000165889 -6.69396e-05)
(-0.000354729 0.000144166 -5.85466e-05)
(-0.000229501 0.000125809 -5.07695e-05)
(-0.000124987 0.000113303 -4.37546e-05)
(-3.27197e-05 0.000106251 -2.79944e-05)
(6.905e-06 9.83166e-05 9.76132e-06)
(-6.4601e-06 4.9816e-05 7.3006e-06)
(1.58887e-05 5.41677e-05 -1.61901e-05)
(7.15782e-05 5.75143e-05 -2.58236e-05)
(0.000133028 6.33063e-05 -2.98019e-05)
(0.000206523 7.24009e-05 -3.50023e-05)
(0.000296606 8.45418e-05 -4.33398e-05)
(0.000409253 9.85745e-05 -5.5098e-05)
(0.000551609 0.000113176 -6.86669e-05)
(0.000717526 0.000124592 -7.97209e-05)
(0.000904508 0.000136806 -8.07535e-05)
(0.00105477 0.00013738 -6.16047e-05)
(0.00115215 0.000192126 -3.87483e-06)
(0.00112223 0.000263759 0.000107461)
(0.000955449 0.000323589 0.000170681)
(0.00074641 0.000371379 0.000200792)
(0.000521481 0.000403693 0.000204432)
(0.000310118 0.000424723 0.000200737)
(0.000108988 0.000435039 0.000197574)
(-8.71635e-05 0.000435602 0.00019757)
(-0.000288167 0.000426394 0.000200719)
(-0.000499322 0.000406425 0.00020443)
(-0.000723947 0.000375082 0.000200925)
(-0.000933243 0.000328147 0.000171353)
(-0.00110085 0.000268908 0.000108986)
(-0.00113454 0.000197724 -5.30302e-07)
(-0.00104231 0.000142574 -5.96216e-05)
(-0.000893829 0.00014306 -8.04865e-05)
(-0.000704507 0.000132203 -8.2072e-05)
(-0.000531005 0.000122637 -7.38248e-05)
(-0.000375932 0.000110577 -6.3396e-05)
(-0.000244961 0.000100141 -5.44721e-05)
(-0.000134158 9.28276e-05 -4.66513e-05)
(-3.51498e-05 8.85397e-05 -2.95877e-05)
(7.44355e-06 8.2303e-05 1.08852e-05)
(-6.66998e-06 3.99581e-05 7.83988e-06)
(1.69447e-05 4.33624e-05 -1.67924e-05)
(7.55809e-05 4.56925e-05 -2.69232e-05)
(0.00013994 4.96097e-05 -3.11259e-05)
(0.000216344 5.57011e-05 -3.6646e-05)
(0.00030899 6.37206e-05 -4.55694e-05)
(0.000423749 7.28727e-05 -5.82702e-05)
(0.000566829 8.26043e-05 -7.33016e-05)
(0.000733615 9.1224e-05 -8.60659e-05)
(0.000918737 0.000102291 -8.89072e-05)
(0.00107989 0.000112687 -6.95187e-05)
(0.0011961 0.00014798 -1.32242e-05)
(0.00116819 0.000192254 9.63116e-05)
(0.00099515 0.000230839 0.000155232)
(0.000777269 0.000262073 0.000181562)
(0.000542685 0.000283659 0.000181641)
(0.000322805 0.000297873 0.000175715)
(0.000113478 0.000304982 0.000171449)
(-9.05722e-05 0.000305517 0.000171428)
(-0.000299814 0.000299458 0.000175644)
(-0.000519568 0.000286222 0.000181546)
(-0.000753967 0.000265498 0.000181557)
(-0.000972291 0.000234987 0.000155728)
(-0.00114635 0.000196919 9.76575e-05)
(-0.0011784 0.000153074 -1.00359e-05)
(-0.00106715 0.000117793 -6.76468e-05)
(-0.000907294 0.000108107 -8.87249e-05)
(-0.000719562 9.7997e-05 -8.85356e-05)
(-0.000544723 9.07975e-05 -7.8655e-05)
(-0.000388223 8.30634e-05 -6.68841e-05)
(-0.000254083 7.67106e-05 -5.71364e-05)
(-0.000139515 7.23464e-05 -4.87237e-05)
(-3.61679e-05 6.97178e-05 -3.07043e-05)
(8.11488e-06 6.49276e-05 1.17372e-05)
(-6.90003e-06 2.92948e-05 8.20703e-06)
(1.75032e-05 3.17201e-05 -1.72301e-05)
(7.80811e-05 3.31906e-05 -2.77103e-05)
(0.000144285 3.56012e-05 -3.20599e-05)
(0.000222446 3.93662e-05 -3.77773e-05)
(0.000316537 4.43603e-05 -4.70524e-05)
(0.000432488 5.01922e-05 -6.03016e-05)
(0.000576216 5.67756e-05 -7.61209e-05)
(0.000744381 6.35909e-05 -8.97516e-05)
(0.000930834 7.30446e-05 -9.33557e-05)
(0.00109868 8.43483e-05 -7.40655e-05)
(0.00122436 0.000107071 -1.84618e-05)
(0.00119769 0.000134578 9.1142e-05)
(0.00102077 0.000158978 0.000148428)
(0.000797411 0.000178895 0.000173073)
(0.000556839 0.000193101 0.000171542)
(0.000331434 0.000202617 0.000164619)
(0.000116665 0.000207532 0.000159865)
(-9.27021e-05 0.000208082 0.000159839)
(-0.000307441 0.000204235 0.000164533)
(-0.00053283 0.000195692 0.000171418)
(-0.00077337 0.000182312 0.000173022)
(-0.000997356 0.000163036 0.000148862)
(-0.00117545 0.000139067 9.24286e-05)
(-0.00120648 0.000111863 -1.52032e-05)
(-0.00108571 8.91875e-05 -7.22647e-05)
(-0.000918846 7.82754e-05 -9.327e-05)
(-0.00072953 6.94033e-05 -9.23479e-05)
(-0.000552929 6.3521e-05 -8.16489e-05)
(-0.000395249 5.82907e-05 -6.91608e-05)
(-0.000259175 5.43581e-05 -5.89335e-05)
(-0.000142368 5.18058e-05 -5.01514e-05)
(-3.63809e-05 5.02565e-05 -3.14921e-05)
(8.7797e-06 4.68761e-05 1.22787e-05)
(-7.07748e-06 1.82356e-05 8.41367e-06)
(1.77648e-05 1.96886e-05 -1.75257e-05)
(7.94892e-05 2.0444e-05 -2.82199e-05)
(0.000146792 2.16572e-05 -3.26539e-05)
(0.000226031 2.36187e-05 -3.84791e-05)
(0.000321087 2.6363e-05 -4.79421e-05)
(0.000437977 2.98549e-05 -6.14789e-05)
(0.000582575 3.42351e-05 -7.76902e-05)
(0.000752194 3.95473e-05 -9.17351e-05)
(0.000940435 4.68198e-05 -9.56504e-05)
(0.00111207 5.59014e-05 -7.63604e-05)
(0.00124219 6.93239e-05 -2.07464e-05)
(0.00121602 8.44597e-05 8.94509e-05)
(0.00103681 9.81508e-05 0.000146507)
(0.000810166 0.000109403 0.000170705)
(0.000565988 0.000117764 0.000168669)
(0.000337123 0.000123487 0.000161418)
(0.000118923 0.000126621 0.000156505)
(-9.38455e-05 0.000127219 0.000156481)
(-0.000312087 0.000125241 0.000161336)
(-0.000541074 0.000120552 0.000168549)
(-0.000785415 0.00011304 0.000170656)
(-0.00101292 0.00010238 0.000146934)
(-0.00119353 8.9015e-05 9.07139e-05)
(-0.00122424 7.39607e-05 -1.75754e-05)
(-0.00109899 6.04503e-05 -7.46367e-05)
(-0.000928184 5.14339e-05 -9.56606e-05)
(-0.000736899 4.43451e-05 -9.44544e-05)
(-0.000558578 3.94421e-05 -8.33728e-05)
(-0.000399683 3.57136e-05 -7.05334e-05)
(-0.000262212 3.31748e-05 -6.00563e-05)
(-0.000143974 3.16643e-05 -5.10711e-05)
(-3.64081e-05 3.0774e-05 -3.20279e-05)
(9.23114e-06 2.87174e-05 1.25734e-05)
(-7.18278e-06 7.06095e-06 8.46098e-06)
(1.78016e-05 7.53207e-06 -1.76939e-05)
(7.99592e-05 7.60601e-06 -2.84741e-05)
(0.000147727 7.69826e-06 -3.29374e-05)
(0.000227508 7.98265e-06 -3.87937e-05)
(0.000323208 8.6383e-06 -4.8309e-05)
(0.000440911 9.96087e-06 -6.19204e-05)
(0.000586544 1.22427e-05 -7.82252e-05)
(0.000757474 1.59229e-05 -9.23672e-05)
(0.000947145 2.08073e-05 -9.63504e-05)
(0.0011202 2.70356e-05 -7.70784e-05)
(0.00125119 3.23628e-05 -2.13773e-05)
(0.00122478 3.6489e-05 8.92578e-05)
(0.0010445 4.0381e-05 0.000146613)
(0.000816404 4.35809e-05 0.000170943)
(0.000570677 4.64281e-05 0.000168954)
(0.000340201 4.85746e-05 0.000161711)
(0.000120376 5.00437e-05 0.000156798)
(-9.40631e-05 5.07207e-05 0.000156777)
(-0.00031402 5.05613e-05 0.000161634)
(-0.000544792 4.95695e-05 0.000168841)
(-0.000790937 4.76463e-05 0.000170899)
(-0.0010202 4.50258e-05 0.000147034)
(-0.00120218 4.13593e-05 9.04969e-05)
(-0.00123334 3.70689e-05 -1.82824e-05)
(-0.00110726 3.13737e-05 -7.54468e-05)
(-0.000934951 2.48608e-05 -9.64761e-05)
(-0.000742137 1.97456e-05 -9.52211e-05)
(-0.000562377 1.59339e-05 -8.40592e-05)
(-0.000402301 1.359e-05 -7.11413e-05)
(-0.000263828 1.22619e-05 -6.06016e-05)
(-0.000144759 1.16348e-05 -5.15551e-05)
(-3.64452e-05 1.13231e-05 -3.23539e-05)
(9.42828e-06 1.06051e-05 1.26379e-05)
(-7.21742e-06 -3.93291e-06 8.35023e-06)
(1.76109e-05 -4.44488e-06 -1.77366e-05)
(7.94877e-05 -5.09286e-06 -2.84765e-05)
(0.000147083 -6.20902e-06 -3.29163e-05)
(0.000226858 -7.75505e-06 -3.87363e-05)
(0.000322861 -9.41491e-06 -4.81742e-05)
(0.00044123 -1.05523e-05 -6.16617e-05)
(0.000588025 -1.06398e-05 -7.77733e-05)
(0.000760155 -8.61202e-06 -9.16973e-05)
(0.000951025 -5.77612e-06 -9.5517e-05)
(0.00112338 -1.20136e-06 -7.63181e-05)
(0.00125169 -3.62189e-06 -2.05753e-05)
(0.0012241 -1.12015e-05 9.02677e-05)
(0.00104387 -1.77197e-05 0.00014834)
(0.000816133 -2.31105e-05 0.0001733)
(0.000570915 -2.60577e-05 0.000171853)
(0.000340688 -2.76463e-05 0.000164917)
(0.00012105 -2.78817e-05 0.000160153)
(-9.33181e-05 -2.70727e-05 0.000160133)
(-0.000313196 -2.52683e-05 0.000164847)
(-0.000543929 -2.23021e-05 0.000171744)
(-0.000789884 -1.82585e-05 0.000173246)
(-0.00101917 -1.22443e-05 0.000148721)
(-0.00120152 -5.58941e-06 9.14321e-05)
(-0.0012342 1.49469e-06 -1.76023e-05)
(-0.00111086 3.14088e-06 -7.4828e-05)
(-0.000939222 -2.07286e-06 -9.58011e-05)
(-0.000745197 -5.54255e-06 -9.47095e-05)
(-0.000564233 -8.22322e-06 -8.37541e-05)
(-0.000403036 -8.91579e-06 -7.1016e-05)
(-0.000263985 -8.75336e-06 -6.05896e-05)
(-0.0001447 -8.2858e-06 -5.16162e-05)
(-3.64762e-05 -7.90371e-06 -3.24779e-05)
(9.38101e-06 -7.26847e-06 1.24741e-05)
(-7.20543e-06 -1.44545e-05 8.07807e-06)
(1.71178e-05 -1.5968e-05 -1.76448e-05)
(7.79179e-05 -1.74825e-05 -2.8213e-05)
(0.000144573 -2.0114e-05 -3.25709e-05)
(0.000223618 -2.40283e-05 -3.82687e-05)
(0.000319358 -2.88321e-05 -4.74799e-05)
(0.00043803 -3.35437e-05 -6.06022e-05)
(0.000586135 -3.71755e-05 -7.61648e-05)
(0.000759642 -3.73459e-05 -8.94749e-05)
(0.000952497 -3.59041e-05 -9.27427e-05)
(0.00112214 -2.91508e-05 -7.35593e-05)
(0.00124282 -3.99201e-05 -1.7424e-05)
(0.00121253 -6.26471e-05 9.38457e-05)
(0.00103372 -8.27399e-05 0.000153722)
(0.000808483 -9.93349e-05 0.000180348)
(0.000566205 -0.000109546 0.000180427)
(0.000338335 -0.000115682 0.000174384)
(0.000120921 -0.00011792 0.000170038)
(-9.1445e-05 -0.000116903 0.000169999)
(-0.000309228 -0.000112679 0.000174252)
(-0.000537857 -0.000104786 0.000180208)
(-0.000781285 -9.31416e-05 0.000180137)
(-0.00100859 -7.57719e-05 0.000153895)
(-0.00119014 -5.55877e-05 9.47748e-05)
(-0.00122599 -3.38784e-05 -1.46898e-05)
(-0.00111033 -2.45002e-05 -7.23087e-05)
(-0.000941352 -3.22074e-05 -9.32873e-05)
(-0.000745406 -3.4641e-05 -9.27236e-05)
(-0.000563218 -3.55975e-05 -8.23397e-05)
(-0.000400975 -3.34486e-05 -7.00881e-05)
(-0.000261983 -3.06863e-05 -5.99692e-05)
(-0.000143349 -2.83298e-05 -5.12129e-05)
(-3.62873e-05 -2.68206e-05 -3.23759e-05)
(9.14359e-06 -2.47183e-05 1.20652e-05)
(-7.21991e-06 -2.40815e-05 7.63361e-06)
(1.61283e-05 -2.65616e-05 -1.74022e-05)
(7.48571e-05 -2.90679e-05 -2.76595e-05)
(0.000139491 -3.3523e-05 -3.18663e-05)
(0.000216584 -4.03971e-05 -3.73324e-05)
(0.000310802 -4.937e-05 -4.61031e-05)
(0.000428627 -5.92164e-05 -5.85013e-05)
(0.000577714 -6.83324e-05 -7.29017e-05)
(0.000753179 -7.21563e-05 -8.48406e-05)
(0.000951765 -7.21826e-05 -8.6603e-05)
(0.00111671 -5.39552e-05 -6.7782e-05)
(0.00122085 -7.47589e-05 -1.08617e-05)
(0.00118499 -0.000121943 0.000101679)
(0.00100946 -0.000161804 0.000165283)
(0.000790087 -0.000194182 0.000195226)
(0.000554578 -0.000214442 0.000198505)
(0.000332139 -0.000226797 0.000194403)
(0.000119736 -0.000231741 0.000190977)
(-8.80401e-05 -0.000230395 0.000190886)
(-0.000300952 -0.000222789 0.000194108)
(-0.000524419 -0.000208018 0.000198004)
(-0.000761583 -0.000185665 0.000194619)
(-0.000983694 -0.000152126 0.000164965)
(-0.00116292 -0.000112052 0.000102081)
(-0.00120512 -6.66687e-05 -8.714e-06)
(-0.0011059 -4.8455e-05 -6.69441e-05)
(-0.000941426 -6.78352e-05 -8.75876e-05)
(-0.000739925 -6.91295e-05 -8.84573e-05)
(-0.000556076 -6.6909e-05 -7.93353e-05)
(-0.000393333 -5.9976e-05 -6.81086e-05)
(-0.000255849 -5.30604e-05 -5.85919e-05)
(-0.000139481 -4.78178e-05 -5.02433e-05)
(-3.5272e-05 -4.46909e-05 -3.19923e-05)
(8.92858e-06 -4.11029e-05 1.13487e-05)
(-7.28577e-06 -3.23834e-05 7.04075e-06)
(1.45534e-05 -3.58143e-05 -1.69813e-05)