/*--------------------------------*- C++ -*----------------------------------*\
| =========                 |                                                 |
| \\      /  F ield         | OpenFOAM: The Open Source CFD Toolbox           |
|  \\    /   O peration     | Version:  2112                                  |
|   \\  /    A nd           | Website:  www.openfoam.com                      |
|    \\/     M anipulation  |                                                 |
\*---------------------------------------------------------------------------*/
FoamFile
{
    version     2.0;
    format      ascii;
    arch        "LSB;label=32;scalar=64";
    class       volScalarField;
    location    "2.7";
    object      epsilon;
}
// * * * * * * * * * * * * * * * * * * * * * * * * * * * * * * * * * * * * * //

dimensions      [0 2 -3 0 0 0 0];

internalField   nonuniform List<scalar> 
64906
(
0.000430274
0.00049123
0.000526794
0.000542227
0.000548168
0.000550267
0.000550958
0.000551174
0.00055124
0.000551261
0.000551268
0.000551269
0.000551265
0.000551259
0.000551249
0.000551235
0.000551219
0.000551204
0.000551195
0.000551205
0.000551219
0.000551233
0.000551242
0.000551248
0.000551247
0.000551232
0.000551172
0.000550964
0.000550281
0.000548188
0.000542252
0.000526825
0.000491262
0.000430298
0.000491258
0.000864785
0.00107468
0.00117558
0.00122034
0.00123855
0.00124531
0.00124758
0.00124822
0.00124831
0.00124824
0.00124815
0.0012481
0.00124809
0.00124809
0.0012481
0.00124811
0.00124811
0.00124811
0.00124811
0.00124811
0.0012481
0.00124809
0.00124809
0.00124809
0.00124799
0.0012474
0.00124523
0.00123856
0.00122043
0.0011757
0.00107481
0.000864894
0.000491317
0.000526875
0.00107476
0.0014019
0.00157008
0.00165012
0.00168503
0.00169882
0.00170359
0.00170475
0.00170459
0.00170407
0.00170362
0.00170338
0.00170333
0.00170338
0.00170343
0.00170345
0.00170347
0.00170347
0.00170347
0.00170345
0.00170341
0.00170336
0.00170338
0.00170348
0.00170345
0.00170243
0.00169804
0.00168467
0.00165009
0.00157023
0.00140213
0.00107497
0.000526975
0.000542349
0.00117574
0.00157019
0.00178203
0.00188735
0.00193519
0.00195453
0.00196081
0.00196137
0.00195963
0.00195738
0.00195565
0.00195467
0.00195434
0.00195434
0.00195435
0.00195433
0.00195431
0.00195432
0.00195435
0.00195438
0.00195438
0.00195438
0.00195465
0.0019554
0.00195636
0.00195621
0.0019512
0.00193328
0.00188657
0.00178193
0.00157039
0.001176
0.000542484
0.000548312
0.00122056
0.0016503
0.00188745
0.00200843
0.00206435
0.00208643
0.00209173
0.00208874
0.00208203
0.00207498
0.00206998
0.00206726
0.00206633
0.00206621
0.00206605
0.00206582
0.00206568
0.00206569
0.00206585
0.0020661
0.00206627
0.00206638
0.00206724
0.00206966
0.00207365
0.00207766
0.002076
0.00205808
0.00200541
0.00188642
0.00165025
0.0012208
0.000548473
0.000550422
0.00123879
0.00168526
0.00193535
0.00206446
0.00212374
0.00214468
0.00214435
0.00213149
0.00211235
0.00209401
0.00208261
0.00207711
0.00207565
0.00207573
0.00207524
0.00207455
0.00207414
0.00207415
0.00207458
0.0020753
0.0020758
0.00207572
0.0020771
0.00208226
0.00209253
0.00210745
0.00211727
0.0021071
0.00205611
0.00193204
0.00168444
0.00123888
0.000550596
0.000551114
0.00124555
0.00169908
0.00195481
0.00208681
0.00214512
0.00215975
0.00214582
0.00211088
0.00206395
0.00202174
0.00200183
0.00199508
0.00199524
0.00199707
0.0019963
0.00199486
0.00199404
0.00199406
0.00199491
0.00199637
0.00199716
0.00199533
0.0019951
0.00200151
0.00202027
0.00205896
0.00209613
0.00210698
0.00206762
0.00194685
0.00169663
0.00124525
0.000551284
0.000551323
0.00124782
0.0017039
0.00196135
0.00209282
0.00214624
0.00214802
0.0021081
0.00202931
0.00192366
0.00183182
0.00181331
0.00181822
0.00182797
0.00183553
0.00183524
0.00183327
0.00183216
0.00183218
0.00183332
0.00183533
0.00183565
0.00182809
0.00181829
0.00181311
0.00183054
0.00191895
0.00201475
0.00206903
0.00205475
0.00194547
0.00169866
0.0012468
0.00055146
0.000551375
0.00124846
0.00170522
0.00196255
0.00209152
0.00213697
0.00211927
0.00203773
0.00188032
0.00165146
0.00144438
0.00148998
0.00155232
0.00159038
0.00160961
0.00161234
0.00161143
0.00161074
0.00161076
0.00161148
0.00161243
0.00160974
0.00159053
0.00155246
0.00148996
0.00144349
0.00164743
0.00186648
0.00199919
0.00202609
0.00193566
0.00169617
0.00124644
0.000551448
0.000551374
0.00124858
0.00170539
0.00196203
0.00208813
0.00212512
0.00208566
0.00195183
0.00167411
0.00119662
0.00071979
0.00101995
0.00124249
0.00133485
0.00136812
0.00137774
0.00138001
0.00138043
0.00138044
0.00138006
0.00137782
0.00136824
0.00133501
0.00124271
0.00102018
0.000719532
0.00119378
0.0016613
0.00191403
0.00199292
0.00192389
0.00169254
0.00124555
0.000551365
0.000551362
0.00124857
0.00170541
0.00196176
0.00208649
0.00211914
0.00206732
0.00189787
0.0015107
0.000741059
0.000646916
0.00102288
0.00115844
0.00119931
0.00121132
0.00121431
0.00121491
0.00121492
0.00121433
0.00121136
0.00119938
0.00115857
0.00102309
0.000647046
0.000739887
0.0014988
0.00186049
0.00197474
0.00191789
0.00169071
0.00124504
0.000551311
0.000551345
0.00124858
0.00170566
0.00196256
0.00208858
0.00212464
0.00208258
0.00194336
0.00165716
0.00117035
0.000700834
0.000938704
0.00113177
0.001209
0.00123267
0.00124187
0.00124374
0.00124383
0.00124383
0.00124373
0.00124185
0.00123264
0.00120898
0.00113176
0.000938557
0.000700377
0.00116711
0.00164412
0.00190537
0.00198954
0.00192292
0.00169231
0.00124535
0.000551314
0.000551325
0.00124862
0.00170612
0.0019641
0.00209298
0.0021364
0.00211272
0.00201818
0.00183728
0.00157212
0.00131733
0.00128189
0.00127563
0.001277
0.00127791
0.00127862
0.00127822
0.00127782
0.00127781
0.00127819
0.00127857
0.00127782
0.00127687
0.0012754
0.00128141
0.00131599
0.00156777
0.00182326
0.00197937
0.00201892
0.00193396
0.001696
0.00124623
0.000551343
0.0005513
0.00124867
0.00170659
0.00196572
0.00209752
0.00214803
0.00214036
0.00207914
0.00196028
0.00178947
0.00160543
0.00147061
0.00137076
0.00132597
0.00130996
0.00130466
0.00130271
0.001302
0.00130199
0.00130267
0.00130459
0.00130985
0.00132579
0.00137047
0.00147007
0.00160385
0.0017846
0.00194559
0.00203958
0.00204578
0.00194479
0.00169979
0.00124715
0.000551361
0.00055127
0.0012487
0.00170697
0.00196697
0.00210093
0.00215637
0.00215895
0.00211669
0.00202754
0.00189187
0.001725
0.00155735
0.00141938
0.00135266
0.00132752
0.00131903
0.00131619
0.00131526
0.00131523
0.00131613
0.00131893
0.00132738
0.00135246
0.00141907
0.00155675
0.00172333
0.00188676
0.00201244
0.00207658
0.00206374
0.00195247
0.00170255
0.00124781
0.000551353
0.000551236
0.0012487
0.00170721
0.00196777
0.00210302
0.00216126
0.0021693
0.00213619
0.00205964
0.00193621
0.00177278
0.00159346
0.0014404
0.00136462
0.00133544
0.0013255
0.00132218
0.00132107
0.00132104
0.00132211
0.00132539
0.0013353
0.00136441
0.00144009
0.00159275
0.00177108
0.00193098
0.00204431
0.00209574
0.00207367
0.00195691
0.0017042
0.00124819
0.000551322
0.000551202
0.00124869
0.00170734
0.00196821
0.00210413
0.00216373
0.00217424
0.00214501
0.00207325
0.00195376
0.00179065
0.00160699
0.00144835
0.0013692
0.00133847
0.00132793
0.00132438
0.00132311
0.00132307
0.00132429
0.00132782
0.00133832
0.00136899
0.00144803
0.00160628
0.00178894
0.00194848
0.0020578
0.00210437
0.00207838
0.00195911
0.00170503
0.00124837
0.000551278
0.000551168
0.00124868
0.0017074
0.00196841
0.0021046
0.00216473
0.00217617
0.00214828
0.00207807
0.00195968
0.00179644
0.00161134
0.00145089
0.00137067
0.00133943
0.00132867
0.00132499
0.0013236
0.00132355
0.00132489
0.00132854
0.00133927
0.00137045
0.00145057
0.00161063
0.00179472
0.00195438
0.00206259
0.00210758
0.0020802
0.00196
0.00170538
0.00124843
0.00055123
0.00055114
0.00124867
0.00170742
0.00196844
0.00210465
0.0021648
0.00217626
0.00214841
0.00207823
0.00195985
0.00179663
0.00161151
0.00145101
0.00137074
0.00133945
0.00132866
0.00132494
0.00132348
0.00132341
0.00132482
0.00132853
0.00133929
0.00137052
0.00145069
0.00161081
0.00179492
0.00195457
0.00206275
0.00210772
0.0020803
0.00196006
0.00170541
0.00124842
0.000551187
0.000551137
0.00124867
0.00170739
0.00196831
0.00210428
0.00216395
0.00217454
0.00214539
0.00207372
0.00195431
0.00179124
0.00160756
0.00144872
0.00136942
0.00133857
0.00132792
0.00132423
0.00132278
0.00132271
0.00132411
0.00132779
0.00133841
0.00136921
0.00144841
0.00160688
0.00178957
0.00194908
0.00205833
0.00210479
0.00207869
0.00195932
0.00170514
0.00124836
0.00055118
0.000551165
0.00124868
0.00170729
0.00196794
0.00210329
0.00216164
0.0021698
0.00213685
0.00206047
0.00193721
0.00177388
0.00159453
0.0014411
0.00136506
0.00133567
0.00132554
0.00132202
0.00132067
0.00132061
0.0013219
0.0013254
0.00133551
0.00136486
0.00144082
0.0015939
0.00177228
0.00193208
0.00204524
0.00209647
0.0020742
0.00195727
0.00170439
0.0012482
0.000551216
0.000551197
0.00124868
0.00170708
0.00196721
0.0021013
0.00215689
0.00215967
0.00211765
0.0020288
0.00189344
0.00172681
0.00155912
0.00142053
0.0013534
0.00132793
0.00131918
0.00131609
0.00131494
0.00131489
0.00131598
0.00131905
0.00132779
0.00135322
0.0014203
0.00155859
0.00172534
0.00188852
0.00201386
0.00207765
0.00206451
0.00195298
0.00170283
0.00124785
0.000551248
0.000551228
0.00124866
0.00170674
0.00196601
0.00209798
0.00214869
0.00214127
0.00208041
0.00196203
0.0017918
0.00160825
0.00147295
0.00137239
0.00132693
0.00131048
0.00130485
0.00130265
0.00130177
0.00130174
0.00130256
0.00130474
0.00131036
0.0013268
0.00137224
0.00147267
0.00160703
0.00178725
0.00194756
0.00204097
0.00204675
0.00194544
0.00170014
0.00124721
0.000551261
0.000551255
0.00124862
0.00170626
0.0019644
0.00209345
0.0021371
0.00211372
0.00201963
0.00183941
0.00157517
0.0013213
0.00128514
0.00127706
0.00127732
0.00127759
0.0012779
0.00127727
0.00127675
0.00127673
0.00127721
0.0012778
0.00127744
0.00127714
0.00127692
0.00128512
0.00132053
0.00157128
0.00182559
0.00198087
0.00201994
0.00193464
0.00169639
0.00124632
0.000551247
0.000551276
0.00124854
0.00170571
0.00196269
0.00208883
0.00212509
0.00208332
0.00194457
0.00165918
0.00117355
0.000702585
0.000939919
0.00112936
0.00120457
0.00122695
0.00123552
0.00123715
0.00123713
0.00123711
0.00123705
0.0012353
0.00122648
0.00120378
0.00112851
0.00093988
0.000702233
0.00117076
0.0016459
0.00190622
0.00199008
0.00192334
0.00169258
0.00124541
0.000551219
0.000551283
0.00124836
0.00170501
0.00196117
0.00208579
0.00211843
0.00206663
0.00189718
0.00151019
0.000740872
0.000641154
0.00100582
0.00113429
0.00117063
0.0011809
0.00118336
0.00118377
0.00118369
0.00118304
0.00118006
0.00116868
0.00113049
0.00100046
0.00063826
0.000738589
0.001496
0.00185807
0.00197333
0.00191721
0.00169043
0.0012449
0.000551206
0.000551243
0.00124773
0.00170348
0.0019591
0.00208444
0.00212096
0.00208109
0.0019466
0.00166789
0.00118989
0.000714038
0.00098536
0.00118234
0.00125022
0.00126791
0.00127292
0.00127435
0.00127464
0.00127447
0.0012736
0.00127063
0.00126176
0.00123676
0.0011597
0.000964798
0.000706588
0.00117696
0.00164673
0.00190406
0.00198674
0.00192023
0.00169056
0.00124473
0.000551204
0.000551056
0.00124555
0.0016988
0.0019529
0.00207946
0.00212327
0.00210403
0.00201983
0.00185679
0.00161676
0.00138862
0.00138901
0.00139549
0.00137467
0.00135935
0.00135314
0.00135115
0.00135054
0.00135027
0.00134984
0.0013488
0.00134666
0.00134318
0.00133584
0.00132672
0.00134034
0.00157922
0.00182292
0.00197183
0.00200856
0.0019243
0.00168941
0.00124351
0.000551088
0.000550387
0.0012389
0.0016853
0.00193438
0.00205983
0.00210929
0.00210778
0.00206273
0.00197287
0.00184387
0.00170788
0.00161571
0.00152344
0.00143405
0.00139068
0.00137478
0.00136982
0.00136844
0.00136808
0.00136809
0.00136871
0.00137187
0.00138399
0.0014209
0.00150723
0.0016211
0.00178281
0.00192732
0.00201072
0.00201353
0.00191596
0.00167952
0.00123784
0.000550483
0.0005483
0.00122078
0.00165067
0.00188742
0.00200648
0.00205685
0.00206596
0.00204514
0.00199631
0.00192022
0.00182355
0.00171656
0.00159638
0.00148522
0.00143132
0.00141128
0.00140494
0.00140317
0.00140279
0.001403
0.00140445
0.0014101
0.00142889
0.00148138
0.00159382
0.00172467
0.00185197
0.00194829
0.00199492
0.00197842
0.00187683
0.00164771
0.00122046
0.000548441
0.00054236
0.00117604
0.00157078
0.00178268
0.0018873
0.00193258
0.00194542
0.00193784
0.00191253
0.00186801
0.00180284
0.00171818
0.00162
0.00153023
0.00148253
0.00146339
0.00145698
0.0014552
0.00145484
0.00145511
0.00145678
0.00146298
0.00148165
0.00152909
0.00162001
0.00172224
0.0018121
0.00187336
0.00189674
0.0018721
0.00177752
0.00156972
0.00117618
0.000542524
0.00052692
0.0010751
0.00140261
0.00157106
0.00165108
0.00168519
0.0016964
0.00169501
0.00168363
0.00166089
0.00162426
0.00157306
0.00151246
0.00145715
0.00142537
0.00141157
0.0014067
0.00140525
0.00140496
0.00140522
0.00140662
0.00141141
0.00142509
0.00145687
0.00151264
0.00157444
0.00162641
0.00165927
0.00166799
0.00164455
0.00156936
0.00140265
0.00107547
0.000527082
0.000491331
0.000865087
0.00107528
0.00117646
0.00122143
0.00123963
0.00124582
0.00124632
0.0012428
0.00123461
0.00122016
0.00119872
0.00117256
0.0011482
0.00113342
0.00112662
0.00112409
0.00112329
0.00112313
0.0011233
0.0011241
0.00112662
0.00113339
0.00114819
0.00117266
0.00119908
0.00122041
0.00123286
0.00123431
0.00121991
0.00117647
0.00107571
0.000865447
0.000491468
0.000430337
0.000491383
0.000527082
0.000542647
0.000548714
0.000550935
0.000551723
0.000551954
0.000551831
0.000551271
0.000550162
0.000548255
0.000545684
0.000543105
0.000541475
0.000540671
0.000540306
0.000540123
0.000540055
0.000540133
0.000540317
0.000540674
0.000541466
0.000543081
0.00054565
0.000548222
0.000550106
0.000551058
0.000550935
0.000548979
0.000542962
0.000527344
0.000491554
0.000430426
0.000567129
0.000793346
0.000932757
0.00100037
0.00102987
0.00104161
0.00104588
0.00104727
0.00104764
0.00104766
0.00104758
0.00104748
0.0010474
0.00104735
0.00104731
0.00104728
0.00104725
0.00104724
0.00104723
0.00104724
0.00104727
0.0010473
0.00104733
0.00104738
0.00104742
0.0010474
0.00104707
0.00104575
0.00104154
0.00102985
0.00100038
0.000932774
0.000793369
0.000567152
0.000793353
0.00095952
0.00111784
0.00120407
0.00124471
0.00126188
0.00126842
0.00127062
0.0012712
0.00127122
0.00127106
0.00127089
0.00127076
0.00127069
0.00127064
0.00127061
0.00127059
0.00127058
0.00127058
0.0012706
0.00127062
0.00127065
0.00127069
0.00127075
0.00127082
0.00127078
0.00127026
0.00126816
0.00126173
0.00124465
0.00120407
0.00111786
0.000959543
0.000793379
0.000932818
0.00111788
0.00131112
0.0014232
0.0014794
0.00150462
0.00151475
0.00151824
0.00151902
0.00151878
0.00151825
0.00151777
0.00151745
0.00151729
0.00151722
0.00151717
0.00151714
0.00151713
0.00151713
0.00151715
0.00151718
0.00151722
0.00151729
0.00151743
0.00151763
0.00151774
0.00151708
0.0015139
0.00150411
0.00147917
0.00142314
0.00131114
0.00111793
0.000932883
0.0010005
0.00120415
0.00142325
0.00155481
0.00162327
0.00165509
0.00166811
0.00167231
0.00167258
0.00167127
0.0016696
0.00166828
0.00166748
0.0016671
0.00166696
0.00166687
0.0016668
0.00166676
0.00166676
0.00166681
0.00166688
0.00166697
0.00166711
0.00166743
0.00166807
0.00166884
0.00166883
0.00166549
0.00165347
0.00162245
0.00155451
0.00142321
0.00120421
0.00100059
0.00103004
0.00124482
0.00147949
0.00162332
0.00169977
0.00173581
0.00175017
0.00175358
0.00175155
0.00174714
0.00174257
0.0017393
0.00173752
0.0017368
0.00173655
0.00173638
0.00173622
0.00173611
0.00173611
0.00173623
0.0017364
0.00173657
0.0017368
0.00173747
0.00173903
0.00174161
0.00174413
0.00174297
0.00173129
0.00169741
0.00162232
0.0014792
0.00124482
0.00103013
0.00104181
0.00126201
0.00150475
0.0016552
0.00173589
0.0017736
0.00178702
0.00178685
0.00177877
0.00176696
0.00175591
0.00174893
0.0017458
0.00174486
0.00174467
0.00174447
0.00174415
0.00174394
0.00174394
0.00174417
0.00174449
0.0017447
0.00174487
0.00174575
0.00174864
0.00175484
0.0017636
0.00176927
0.00176243
0.00172998
0.00165257
0.00150382
0.0012618
0.00104182
0.00104609
0.00126855
0.00151491
0.00166831
0.00175044
0.00178733
0.00179675
0.00178825
0.0017671
0.00173954
0.0017156
0.00170295
0.00169951
0.00169969
0.0017003
0.00170048
0.00170008
0.00169973
0.00169974
0.0017001
0.00170051
0.00170034
0.00169972
0.00169948
0.00170267
0.00171451
0.00173605
0.00175716
0.00176276
0.0017375
0.00166248
0.00151271
0.00126791
0.00104587
0.00104748
0.00127077
0.00151846
0.00167271
0.00175435
0.0017881
0.00178967
0.00176583
0.00171997
0.00166183
0.0016154
0.00159538
0.00159751
0.00160331
0.00160652
0.00160849
0.00160852
0.00160818
0.00160818
0.00160854
0.00160852
0.00160657
0.00160335
0.00159751
0.00159514
0.00161435
0.00165834
0.00170991
0.0017399
0.00172945
0.00166155
0.00151415
0.00126937
0.00104686
0.00104786
0.00127138
0.0015194
0.00167346
0.00175345
0.00178231
0.00177241
0.00172537
0.00163936
0.00152886
0.0014604
0.00141767
0.00144139
0.00146313
0.00147158
0.00147882
0.00148075
0.00148086
0.00148087
0.00148077
0.00147886
0.00147163
0.0014632
0.00144143
0.00141751
0.00145939
0.00152543
0.00162928
0.00169927
0.00171179
0.00165505
0.00151226
0.00126897
0.00104666
0.00104791
0.00127147
0.00151945
0.00167302
0.00175119
0.00177504
0.00175312
0.0016803
0.00154658
0.00138203
0.00161815
0.00119447
0.00125658
0.00130816
0.00132334
0.00134027
0.00134563
0.00134664
0.00134665
0.00134566
0.00134031
0.0013234
0.00130825
0.00125668
0.00119441
0.00161623
0.00137827
0.00153632
0.00165402
0.00169225
0.00164742
0.00150955
0.00126805
0.00104613
0.00104788
0.00127143
0.00151939
0.00167272
0.00175002
0.0017714
0.00174352
0.00165881
0.00151993
0.00172244
0.00127883
0.00112447
0.00118987
0.00122367
0.00122999
0.0012307
0.00123069
0.00123069
0.00123071
0.00123001
0.00122371
0.00118994
0.00112456
0.00127903
0.00171407
0.00150908
0.00163228
0.00168243
0.00164355
0.00150811
0.00126749
0.00104578
0.00104784
0.00127142
0.00151949
0.0016731
0.0017511
0.00177421
0.00175046
0.00167385
0.00153291
0.00135296
0.00151476
0.00112663
0.00121206
0.00128098
0.0013331
0.00131039
0.0013004
0.00129798
0.00129797
0.00130038
0.00131036
0.00133307
0.00128096
0.00121201
0.00112633
0.0015124
0.001349
0.00152249
0.00164737
0.0016893
0.0016462
0.001509
0.00126771
0.00104588
0.00104782
0.00127145
0.00151975
0.00167402
0.00175372
0.00178107
0.0017672
0.0017118
0.00161002
0.0014715
0.00135774
0.0012775
0.00127873
0.00128681
0.00129764
0.00128975
0.00128531
0.00128393
0.00128392
0.00128529
0.00128973
0.00129761
0.00128674
0.00127859
0.00127712
0.00135652
0.00146787
0.00159971
0.00168534
0.00170598
0.00165292
0.00151145
0.0012685
0.00104628
0.0010478
0.0012715
0.00152005
0.00167502
0.00175651
0.00178814
0.00178364
0.00174676
0.00167658
0.00157802
0.00147362
0.00138981
0.00134029
0.00130997
0.00129874
0.00129279
0.00129029
0.00128949
0.00128948
0.00129028
0.00129276
0.0012987
0.00130988
0.00134012
0.0013894
0.00147241
0.00157436
0.00166621
0.00172021
0.00172228
0.00165981
0.00151406
0.00126936
0.00104671
0.00104777
0.00127154
0.00152028
0.0016758
0.00175864
0.00179333
0.00179514
0.00176969
0.001717
0.00163835
0.00154328
0.00145001
0.00137799
0.00132967
0.00130901
0.00130157
0.00129916
0.00129846
0.00129846
0.00129914
0.00130154
0.00130895
0.00132958
0.00137781
0.0014496
0.00154204
0.00163462
0.00170653
0.001743
0.00173361
0.00166482
0.00151601
0.00127001
0.00104701
0.00104773
0.00127156
0.00152043
0.00167629
0.00175996
0.00179641
0.00180165
0.001782
0.00173738
0.0016669
0.00157522
0.00147708
0.00139573
0.0013399
0.0013154
0.00130687
0.00130426
0.00130356
0.00130356
0.00130425
0.00130684
0.00131534
0.0013398
0.00139555
0.00147664
0.00157396
0.00166313
0.00172683
0.0017552
0.00173998
0.00166775
0.00151717
0.0012704
0.00104715
0.0010477
0.00127156
0.00152051
0.00167656
0.00176064
0.00179796
0.0018048
0.00178766
0.00174628
0.00167872
0.00158792
0.00148767
0.00140271
0.00134405
0.0013181
0.00130908
0.00130635
0.00130562
0.00130562
0.00130634
0.00130905
0.00131804
0.00134395
0.00140253
0.00148722
0.00158666
0.00167492
0.00173568
0.00176079
0.00174303
0.00166919
0.00151776
0.00127059
0.0010472
0.00104766
0.00127156
0.00152055
0.00167667
0.00176092
0.00179858
0.00180601
0.00178977
0.00174945
0.00168277
0.00159213
0.00149111
0.00140496
0.00134539
0.00131898
0.00130979
0.00130701
0.00130626
0.00130625
0.00130699
0.00130976
0.00131892
0.00134529
0.00140478
0.00149067
0.00159087
0.00167896
0.00173883
0.00176286
0.0017442
0.00166976
0.00151799
0.00127066
0.00104719
0.00104765
0.00127156
0.00152055
0.00167668
0.00176094
0.00179861
0.00180605
0.00178982
0.00174951
0.00168284
0.00159221
0.00149119
0.00140503
0.00134544
0.001319
0.0013098
0.00130701
0.00130625
0.00130624
0.00130699
0.00130977
0.00131895
0.00134534
0.00140485
0.00149075
0.00159095
0.00167904
0.0017389
0.00176291
0.00174424
0.00166979
0.001518
0.00127066
0.00104717
0.00104765
0.00127156
0.00152053
0.00167659
0.00176069
0.00179804
0.00180491
0.00178781
0.00174647
0.00167895
0.00158819
0.00148793
0.00140292
0.00134419
0.00131818
0.00130913
0.00130638
0.00130562
0.00130561
0.00130636
0.0013091
0.00131813
0.0013441
0.00140275
0.0014875
0.00158694
0.00167517
0.00173588
0.00176095
0.00174314
0.00166926
0.00151779
0.00127059
0.00104713
0.00104767
0.00127155
0.00152046
0.00167635
0.00176005
0.00179655
0.00180185
0.00178226
0.00173773
0.00166733
0.00157572
0.0014776
0.00139614
0.0013402
0.00131559
0.001307
0.00130436
0.00130362
0.00130361
0.00130434
0.00130697
0.00131554
0.00134012
0.00139599
0.0014772
0.00157451
0.0016636
0.00172721
0.00175548
0.00174018
0.00166787
0.00151723
0.00127041
0.00104707
0.0010477
0.00127153
0.00152032
0.00167587
0.00175877
0.00179352
0.00179542
0.00177008
0.00171754
0.00163905
0.00154412
0.00145088
0.00137869
0.00133017
0.00130934
0.00130183
0.00129938
0.00129866
0.00129866
0.00129937
0.00130182
0.00130931
0.00133011
0.00137857
0.00145053
0.00154298
0.0016354
0.00170712
0.00174342
0.00173389
0.00166499
0.00151609
0.00127004
0.00104691
0.00104772
0.0012715
0.00152008
0.0016751
0.00175667
0.00178837
0.001784
0.00174727
0.00167732
0.00157906
0.00147492
0.00139111
0.00134124
0.00131054
0.00129905
0.00129304
0.00129052
0.0012897
0.0012897
0.00129052
0.00129303
0.00129903
0.0013105
0.00134117
0.00139084
0.00147387
0.0015755
0.001667
0.00172074
0.00172262
0.00166002
0.00151416
0.00126939
0.00104661
0.00104773
0.00127144
0.00151976
0.00167408
0.00175384
0.00178128
0.00176755
0.00171234
0.00161087
0.0014728
0.0013595
0.00127907
0.00127929
0.00128658
0.00129692
0.00128899
0.00128452
0.00128314
0.00128314
0.00128452
0.00128896
0.00129686
0.00128646
0.00127913
0.0012788
0.00135846
0.00146923
0.00160051
0.0016858
0.00170626
0.00165308
0.00151153
0.00126851
0.00104616
0.00104772
0.00127135
0.0015194
0.00167301
0.00175103
0.0017742
0.00175054
0.00167408
0.0015334
0.00135393
0.00151887
0.00112603
0.00120925
0.00127652
0.00132766
0.00130457
0.00129442
0.00129197
0.00129197
0.00129439
0.00130443
0.00132735
0.00127578
0.00120814
0.00112483
0.00151679
0.00134945
0.00152239
0.00164716
0.00168914
0.0016461
0.00150893
0.00126766
0.00104572
0.00104764
0.00127116
0.00151892
0.00167208
0.00174925
0.00177056
0.0017426
0.00165771
0.00151839
0.00171787
0.00125372
0.00110525
0.00116512
0.0011949
0.00119964
0.00119996
0.00119987
0.00119981
0.00119971
0.00119891
0.00119305
0.00116122
0.00109871
0.00124126
0.00170311
0.00150495
0.00162974
0.00168088
0.00164261
0.00150755
0.00126719
0.00104547
0.00104726
0.00127051
0.0015178
0.0016707
0.00174835
0.00177178
0.0017494
0.00167571
0.00154003
0.00136999
0.00157429
0.00115408
0.00120042
0.00123526
0.00123963
0.00125178
0.00125613
0.00125703
0.0012569
0.00125551
0.00124984
0.00123438
0.00122371
0.00118101
0.00112982
0.00153484
0.00135314
0.00152293
0.00164603
0.00168729
0.00164427
0.00150761
0.00126698
0.00104537
0.00104591
0.00126834
0.00151433
0.00166648
0.00174499
0.00177271
0.0017616
0.00171239
0.00162165
0.00150059
0.00141002
0.00133872
0.00132661
0.00131511
0.00130197
0.0012997
0.00129939
0.00129923
0.00129899
0.00129827
0.00129601
0.00129161
0.00129185
0.0012897
0.0012957
0.00137123
0.00147363
0.00159868
0.00168029
0.0016993
0.00164653
0.00150664
0.00126573
0.00104455
0.0010417
0.00126188
0.00150438
0.00165398
0.00173212
0.0017634
0.00176267
0.0017352
0.00168179
0.00160801
0.00153279
0.00147006
0.00142083
0.00138229
0.00135248
0.00133999
0.00133592
0.00133475
0.00133442
0.00133435
0.00133464
0.00133699
0.00134745
0.00137293
0.00141296
0.00148328
0.00157236
0.00165392
0.00170157
0.00170149
0.00164066
0.00149933
0.00126023
0.00104089
0.00102999
0.00124478
0.00147936
0.00162274
0.00169773
0.00172994
0.00173577
0.00172261
0.00169251
0.00164718
0.00159167
0.00153186
0.00147177
0.00142256
0.00138587
0.00136953
0.0013639
0.00136225
0.00136188
0.0013621
0.00136345
0.00136849
0.00138398
0.00141983
0.00147101
0.00153931
0.00160929
0.00166388
0.00169027
0.00167854
0.00161461
0.00147639
0.00124387
0.00102961
0.0010005
0.00120418
0.00142329
0.00155471
0.00162249
0.00165234
0.00166076
0.00165562
0.00163921
0.00161147
0.00157252
0.00152393
0.00147034
0.00142312
0.00139103
0.00137614
0.00137068
0.00136899
0.00136862
0.00136895
0.00137055
0.00137584
0.00139049
0.00142251
0.00147084
0.00152743
0.0015789
0.0016148
0.00162815
0.00161129
0.00155019
0.00142175
0.00120376
0.00100038
0.000932867
0.00111794
0.00131126
0.00142338
0.00147936
0.00150374
0.00151168
0.0015104
0.00150203
0.00148609
0.00146144
0.0014282
0.00138997
0.00135536
0.00133255
0.00132157
0.00131732
0.00131595
0.00131565
0.00131595
0.00131732
0.00132152
0.00133247
0.00135534
0.00139039
0.00142958
0.00146321
0.00148486
0.00149037
0.00147354
0.0014212
0.0013106
0.00111781
0.000932888
0.000793425
0.000959592
0.00111801
0.00120435
0.00124499
0.0012619
0.00126758
0.00126768
0.00126385
0.00125567
0.001242
0.00122247
0.00119925
0.00117785
0.00116398
0.00115722
0.00115455
0.00115365
0.00115346
0.00115367
0.00115458
0.00115726
0.00116402
0.00117794
0.0011995
0.00122298
0.00124234
0.00125398
0.00125558
0.00124248
0.00120354
0.00111783
0.00095959
0.000793495
0.000567189
0.000793424
0.000932971
0.00100075
0.00103036
0.00104207
0.00104596
0.00104622
0.00104398
0.0010388
0.0010297
0.00101613
0.000999477
0.000983963
0.000974431
0.000969966
0.000968208
0.000967597
0.000967457
0.000967618
0.000968244
0.000970007
0.00097447
0.000984015
0.000999603
0.00101638
0.00102983
0.00103765
0.00103853
0.00102917
0.00100051
0.000933015
0.000793489
0.000567271
0.00064438
0.00100051
0.00123018
0.00134779
0.0014023
0.00142537
0.00143424
0.00143727
0.00143807
0.00143807
0.00143781
0.00143751
0.00143727
0.00143711
0.001437
0.00143693
0.00143688
0.00143685
0.00143685
0.00143688
0.00143693
0.001437
0.00143709
0.00143723
0.00143738
0.00143738
0.00143668
0.00143381
0.00142509
0.00140215
0.00134772
0.00123015
0.00100051
0.000644405
0.00100051
0.00112283
0.00129101
0.00139033
0.00144016
0.00146244
0.00147138
0.00147453
0.00147538
0.00147538
0.00147512
0.00147482
0.00147459
0.00147445
0.00147436
0.00147431
0.00147427
0.00147425
0.00147425
0.00147427
0.00147431
0.00147436
0.00147444
0.00147456
0.00147469
0.00147466
0.00147389
0.0014709
0.00146214
0.00144
0.00139026
0.00129099
0.00112282
0.0010005
0.00123025
0.00129103
0.00146334
0.00157422
0.00163372
0.00166197
0.00167389
0.00167815
0.00167912
0.00167877
0.00167802
0.00167731
0.0016768
0.0016765
0.00167633
0.00167624
0.00167618
0.00167614
0.00167614
0.00167618
0.00167624
0.00167634
0.00167649
0.00167674
0.00167709
0.00167728
0.00167648
0.00167261
0.00166115
0.00163328
0.00157404
0.00146329
0.00129103
0.00123026
0.00134794
0.00139039
0.00157426
0.00169734
0.00176583
0.00179944
0.00181383
0.00181862
0.00181892
0.00181733
0.00181526
0.00181354
0.0018124
0.00181178
0.00181146
0.00181128
0.00181117
0.0018111
0.0018111
0.00181117
0.00181129
0.00181146
0.00181176
0.00181232
0.00181322
0.00181423
0.00181424
0.00181044
0.00179723
0.00176462
0.0016968
0.00157409
0.00139037
0.00134796
0.00140251
0.00144026
0.0016338
0.00176588
0.00184077
0.00187791
0.00189334
0.00189713
0.00189495
0.0018901
0.00188498
0.0018811
0.00187882
0.00187765
0.00187708
0.0018768
0.0018766
0.00187648
0.00187648
0.00187661
0.00187681
0.00187708
0.00187764
0.00187872
0.00188072
0.00188371
0.00188637
0.00188491
0.00187238
0.00183768
0.00176442
0.00163325
0.00144011
0.00140244
0.00142563
0.00146257
0.00166209
0.00179955
0.00187801
0.00191646
0.00193072
0.00193078
0.00192254
0.00191051
0.00189912
0.00189135
0.00188754
0.0018858
0.0018849
0.0018847
0.00188445
0.00188424
0.00188425
0.00188446
0.00188471
0.00188491
0.00188579
0.00188744
0.00189092
0.00189771
0.00190636
0.00191147
0.00190381
0.00187091
0.00179612
0.00166068
0.00146207
0.00142528
0.00143454
0.00147153
0.00167407
0.00181408
0.0018937
0.00193112
0.00194126
0.00193321
0.00191282
0.00188678
0.0018641
0.00184993
0.00184562
0.00184412
0.00184282
0.00184366
0.0018437
0.00184344
0.00184345
0.00184371
0.00184367
0.00184284
0.00184412
0.00184553
0.00184949
0.00186262
0.0018824
0.00190114
0.00190495
0.00187907
0.00180695
0.00167103
0.00147035
0.00143359
0.00143761
0.00147472
0.00167846
0.00181918
0.00189815
0.00193235
0.0019349
0.00191289
0.0018715
0.00182159
0.00178284
0.00175564
0.00175651
0.00175847
0.00175584
0.00176146
0.00176302
0.00176293
0.00176293
0.00176304
0.00176149
0.00175587
0.00175849
0.00175644
0.00175524
0.00178133
0.00181706
0.00185946
0.0018839
0.00187142
0.0018062
0.00167284
0.00147243
0.00143564
0.00143847
0.00147565
0.00167967
0.00182012
0.00189737
0.00192681
0.001919
0.00187776
0.00180696
0.00172696
0.00169571
0.00160775
0.00163131
0.00164576
0.00163578
0.00165878
0.00166555
0.00166636
0.00166637
0.00166557
0.00165881
0.00163582
0.00164581
0.00163131
0.00160739
0.00169402
0.00172214
0.00179451
0.00184819
0.0018547
0.00179959
0.00167075
0.00147192
0.00143515
0.00143859
0.0014758
0.00167976
0.00181966
0.00189507
0.00191989
0.00190216
0.00184303
0.00174996
0.00169221
0.00226432
0.00143045
0.0015124
0.00155775
0.00151766
0.00159029
0.00161012
0.00161321
0.00161322
0.00161016
0.00159035
0.00151772
0.00155785
0.0015125
0.00143015
0.00225987
0.00168598
0.00173668
0.00181279
0.00183721
0.00179198
0.00166773
0.0014707
0.00143394
0.00143852
0.00147577
0.00167967
0.00181929
0.00189381
0.00191642
0.00189444
0.0018319
0.00177688
0.00248742
0.00152548