/*--------------------------------*- C++ -*----------------------------------*\
| =========                 |                                                 |
| \\      /  F ield         | OpenFOAM: The Open Source CFD Toolbox           |
|  \\    /   O peration     | Version:  2112                                  |
|   \\  /    A nd           | Website:  www.openfoam.com                      |
|    \\/     M anipulation  |                                                 |
\*---------------------------------------------------------------------------*/
FoamFile
{
    version     2.0;
    format      ascii;
    arch        "LSB;label=32;scalar=64";
    class       volScalarField;
    location    "2.7";
    object      k;
}
// * * * * * * * * * * * * * * * * * * * * * * * * * * * * * * * * * * * * * //

dimensions      [0 2 -2 0 0 0 0];

internalField   nonuniform List<scalar> 
64906
(
0.000518595
0.000567196
0.000594782
0.000606662
0.000611253
0.000612891
0.000613436
0.000613608
0.000613659
0.000613675
0.000613679
0.000613679
0.000613676
0.00061367
0.000613662
0.000613652
0.000613639
0.000613627
0.000613621
0.000613628
0.000613639
0.00061365
0.000613657
0.000613662
0.000613662
0.000613651
0.000613603
0.000613438
0.0006129
0.000611267
0.00060668
0.000594806
0.00056722
0.000518615
0.000567218
0.000828739
0.000959178
0.00101926
0.00104561
0.00105636
0.00106039
0.00106176
0.00106214
0.0010622
0.00106215
0.00106209
0.00106205
0.00106204
0.00106204
0.00106205
0.00106205
0.00106205
0.00106205
0.00106205
0.00106205
0.00106205
0.00106204
0.00106205
0.00106205
0.00106199
0.00106163
0.00106033
0.00105636
0.00104566
0.00101933
0.000959256
0.00082881
0.000567265
0.000594845
0.000959228
0.00114668
0.00123787
0.0012805
0.00129907
0.00130645
0.00130902
0.00130965
0.00130955
0.00130926
0.001309
0.00130885
0.00130882
0.00130883
0.00130885
0.00130887
0.00130887
0.00130887
0.00130887
0.00130887
0.00130885
0.00130883
0.00130885
0.00130892
0.00130891
0.00130836
0.001306
0.00129885
0.00128046
0.00123795
0.0011468
0.000959351
0.000594923
0.000606755
0.00101935
0.00123793
0.00134832
0.00140202
0.00142631
0.00143618
0.0014394
0.00143968
0.00143877
0.00143759
0.00143666
0.00143613
0.00143594
0.00143592
0.00143591
0.0014359
0.00143589
0.00143589
0.00143591
0.00143593
0.00143594
0.00143596
0.00143612
0.00143653
0.00143704
0.00143697
0.0014344
0.00142528
0.00140157
0.00134825
0.00123803
0.00101951
0.000606858
0.000611363
0.00104574
0.0012806
0.00140206
0.00146255
0.00149036
0.00150137
0.00150403
0.00150252
0.00149915
0.00149557
0.00149301
0.00149158
0.00149106
0.00149097
0.00149087
0.00149075
0.00149068
0.00149068
0.00149077
0.0014909
0.001491
0.00149109
0.00149156
0.00149283
0.00149487
0.00149689
0.00149605
0.00148711
0.00146095
0.00140149
0.00128054
0.00104588
0.000611485
0.000613009
0.0010565
0.00129919
0.00142639
0.00149041
0.00151962
0.00152995
0.00152981
0.00152347
0.001514
0.00150487
0.00149909
0.00149623
0.0014954
0.00149539
0.00149512
0.00149476
0.00149455
0.00149456
0.00149478
0.00149515
0.00149542
0.00149544
0.00149621
0.0014989
0.00150409
0.00151149
0.00151628
0.00151122
0.00148612
0.00142462
0.0012987
0.00105654
0.00061314
0.000613555
0.00106053
0.00130659
0.00143632
0.00150156
0.00153019
0.0015374
0.00153061
0.00151351
0.00149041
0.00146942
0.00145923
0.00145558
0.00145548
0.0014563
0.00145588
0.00145514
0.00145473
0.00145473
0.00145516
0.00145591
0.00145634
0.00145552
0.00145558
0.00145905
0.00146864
0.00148782
0.00150601
0.00151122
0.00149185
0.00143215
0.00130521
0.00106032
0.000613681
0.000613722
0.00106189
0.00130919
0.00143969
0.0015046
0.00153078
0.00153173
0.00151229
0.00147364
0.00142117
0.0013747
0.00136463
0.00136656
0.00137123
0.00137496
0.00137476
0.00137374
0.00137316
0.00137317
0.00137376
0.00137481
0.00137502
0.00137129
0.00136659
0.00136451
0.00137399
0.00141866
0.00146614
0.00149265
0.0014855
0.00143146
0.0013063
0.00106125
0.00061382
0.000613763
0.00106229
0.00130991
0.00144032
0.00150397
0.00152626
0.00151774
0.00147791
0.00139976
0.00128256
0.00117183
0.00119537
0.00122792
0.00124777
0.00125783
0.00125922
0.00125871
0.00125833
0.00125834
0.00125874
0.00125926
0.00125789
0.00124785
0.001228
0.00119535
0.0011713
0.0012803
0.00139244
0.0014583
0.00147133
0.00142649
0.00130496
0.00106103
0.00061381
0.000613762
0.00106236
0.00131
0.00144006
0.00150229
0.00152047
0.00150136
0.00143559
0.00129469
0.00103343
0.000734783
0.000926588
0.00105678
0.00110859
0.00112705
0.00113236
0.00113361
0.00113384
0.00113385
0.00113364
0.0011324
0.00112712
0.00110869
0.00105691
0.000926729
0.00073459
0.00103165
0.00128764
0.00141607
0.0014549
0.00142053
0.00130303
0.0010605
0.000613743
0.000613752
0.00106236
0.00131002
0.00143991
0.00150147
0.00151754
0.00149239
0.00140873
0.00120855
0.00074964
0.000682918
0.000926947
0.00100731
0.00103099
0.00103795
0.00103971
0.00104006
0.00104006
0.00103972
0.00103798
0.00103103
0.00100739
0.000927079
0.00068301
0.000748781
0.00120177
0.00138925
0.00144587
0.00141748
0.00130205
0.00106019
0.000613698
0.00061374
0.00106236
0.00131015
0.00144031
0.00150249
0.00152018
0.00149974
0.00143114
0.00128544
0.00101755
0.000721228
0.000875013
0.000990962
0.00103553
0.00104897
0.00105432
0.00105545
0.00105551
0.00105551
0.00105544
0.00105431
0.00104896
0.00103552
0.000990954
0.000874917
0.000720893
0.00101552
0.00127825
0.00141149
0.0014531
0.00141998
0.00130288
0.00106038
0.000613701
0.000613725
0.00106239
0.0013104
0.0014411
0.00150466
0.00152589
0.00151432
0.00146783
0.00137722
0.00123941
0.00109961
0.00107792
0.00107327
0.00107359
0.00107393
0.00107435
0.00107414
0.00107392
0.00107391
0.00107412
0.00107432
0.00107388
0.00107351
0.00107314
0.00107763
0.00109881
0.00123695
0.00136976
0.00144802
0.00146755
0.00142553
0.00130484
0.0010609
0.000613725
0.000613706
0.00106242
0.00131065
0.00144193
0.00150692
0.00153157
0.00152773
0.00149755
0.00143841
0.00135166
0.00125522
0.00118191
0.00112628
0.00110086
0.00109168
0.00108865
0.00108754
0.00108714
0.00108713
0.00108751
0.00108861
0.00109162
0.00110075
0.00112612
0.0011816
0.00125433
0.00134902
0.00143076
0.00147756
0.00148078
0.001431
0.00130686
0.00106145
0.000613741
0.000613684
0.00106244
0.00131086
0.00144258
0.00150862
0.00153567
0.00153679
0.00151583
0.00147151
0.00140318
0.00131727
0.00122839
0.00115306
0.00111571
0.00110145
0.0010966
0.00109498
0.00109445
0.00109444
0.00109495
0.00109655
0.00110137
0.0011156
0.00115288
0.00122806
0.00131635
0.00140047
0.00146374
0.00149569
0.00148966
0.0014349
0.00130835
0.00106186
0.000613738
0.000613658
0.00106244
0.00131099
0.00144299
0.00150968
0.00153809
0.00154185
0.00152536
0.00148729
0.00142535
0.00134182
0.0012476
0.00116462
0.00112239
0.00110588
0.00110022
0.00109833
0.00109769
0.00109768
0.00109829
0.00110016
0.0011058
0.00112227
0.00116444
0.00124721
0.00134089
0.00142259
0.00147944
0.00150511
0.00149459
0.00143718
0.00130924
0.00106209
0.000613716
0.000613632
0.00106244
0.00131107
0.00144322
0.00151024
0.00153932
0.00154429
0.00152969
0.00149401
0.00143415
0.00135101
0.00125482
0.00116901
0.00112496
0.00110759
0.00110159
0.00109956
0.00109884
0.00109882
0.00109951
0.00110153
0.00110751
0.00112484
0.00116883
0.00125443
0.00135008
0.00143137
0.00148612
0.00150938
0.00149695
0.00143831
0.0013097
0.0010622
0.000613684
0.000613607
0.00106243
0.0013111
0.00144333
0.00151048
0.00153982
0.00154525
0.00153132
0.0014964
0.00143713
0.00135401
0.00125715
0.00117042
0.00112579
0.00110814
0.00110201
0.00109991
0.00109912
0.00109909
0.00109985
0.00110194
0.00110805
0.00112567
0.00117024
0.00125676
0.00135307
0.00143434
0.0014885
0.00151098
0.00149787
0.00143877
0.00130989
0.00106224
0.000613647
0.000613586
0.00106243
0.00131111
0.00144334
0.00151051
0.00153986
0.0015453
0.00153138
0.00149648
0.00143722
0.0013541
0.00125724
0.00117049
0.00112583
0.00110815
0.00110201
0.00109988
0.00109905
0.00109901
0.00109981
0.00110193
0.00110806
0.00112571
0.00117031
0.00125686
0.00135318
0.00143444
0.00148858
0.00151104
0.00149792
0.0014388
0.00130991
0.00106223
0.000613614
0.000613583
0.00106243
0.00131109
0.00144327
0.00151032
0.00153943
0.00154444
0.00152988
0.00149424
0.00143442
0.00135132
0.00125512
0.00116921
0.00112509
0.00110765
0.00110159
0.00109948
0.00109865
0.00109861
0.00109941
0.00110151
0.00110756
0.00112497
0.00116904
0.00125475
0.00135041
0.00143167
0.00148637
0.00150959
0.0014971
0.00143841
0.00130976
0.0010622
0.000613609
0.000613604
0.00106243
0.00131103
0.00144308
0.00150981
0.00153827
0.0015421
0.00152568
0.0014877
0.00142585
0.00134239
0.00124818
0.00116501
0.00112264
0.00110601
0.00110024
0.00109823
0.00109746
0.00109743
0.00109816
0.00110016
0.00110592
0.00112252
0.00116485
0.00124783
0.00134151
0.00142315
0.00147989
0.00150547
0.00149485
0.00143736
0.00130934
0.0010621
0.000613635
0.000613628
0.00106243
0.00131092
0.0014427
0.0015088
0.00153592
0.00153713
0.0015163
0.00147213
0.00140398
0.00131821
0.00122934
0.0011537
0.00111613
0.00110168
0.00109669
0.00109492
0.00109427
0.00109424
0.00109486
0.00109662
0.0011016
0.00111603
0.00115357
0.00122905
0.0013174
0.00140136
0.00146444
0.00149622
0.00149003
0.00143516
0.0013085
0.00106188
0.000613658
0.000613651
0.00106242
0.00131073
0.00144208
0.00150714
0.00153189
0.00152818
0.00149817
0.00143928
0.00135286
0.00125672
0.0011832
0.0011272
0.0011014
0.00109197
0.00108875
0.00108749
0.001087
0.00108698
0.00108744
0.00108869
0.0010919
0.00110132
0.00112711
0.00118303
0.00125603
0.00135039
0.00143174
0.00147825
0.00148125
0.00143132
0.00130705
0.00106149
0.000613664
0.000613671
0.00106239
0.00131047
0.00144125
0.00150489
0.00152623
0.00151481
0.00146854
0.0013783
0.00124104
0.00110186
0.00107979
0.00107408
0.00107375
0.00107372
0.0010739
0.00107356
0.00107327
0.00107326
0.00107352
0.00107384
0.00107363
0.00107364
0.001074
0.00107977
0.00110139
0.00123883
0.00137094
0.00144875
0.00146804
0.00142586
0.00130504
0.00106095
0.000613651
0.000613686
0.00106234
0.00131017
0.00144037
0.0015026
0.00152038
0.00150007
0.00143172
0.00128649
0.00101943
0.000722459
0.000875774
0.000989469
0.00103285
0.00104555
0.00105054
0.00105151
0.00105152
0.0010515
0.00105146
0.0010504
0.00104526
0.00103238
0.000988946
0.00087574
0.000722197
0.00101768
0.00127916
0.00141188
0.00145334
0.00142017
0.00130301
0.0010604
0.000613627
0.00061369
0.00106222
0.00130978
0.00143958
0.00150108
0.00151713
0.00149198
0.00140831
0.00120819
0.000749484
0.000678658
0.000916157
0.000992666
0.0010138
0.00101979
0.00102124
0.00102149
0.00102144
0.00102105
0.00101929
0.00101262
0.000990363
0.000912778
0.000676527
0.00074783
0.00120012
0.0013879
0.00144508
0.00141708
0.00130186
0.0010601
0.000613616
0.000613658
0.00106183
0.00130894
0.0014385
0.00150036
0.0015183
0.00149895
0.00143277
0.00129119
0.00102923
0.000730584
0.000904586
0.00102106
0.00105957
0.00106944
0.00107224
0.00107304
0.0010732
0.0010731
0.0010726
0.00107091
0.00106587
0.00105173
0.0010076
0.000891525
0.000725258
0.00102134
0.00127958
0.00141076
0.00145163
0.00141856
0.00130191
0.00105998
0.000613614
0.000613509
0.00106052
0.00130641
0.00143529
0.00149782
0.0015193
0.00150996
0.00146865
0.0013873
0.00126351
0.00114005
0.00113866
0.00114104
0.00112889
0.00112013
0.00111658
0.00111544
0.00111509
0.00111493
0.00111469
0.00111411
0.00111295
0.00111115
0.00110749
0.00110341
0.0011126
0.00124306
0.00136951
0.00144413
0.00146226
0.00142052
0.00130126
0.00105925
0.000613521
0.000612981
0.00105656
0.00129919
0.00142584
0.001488
0.00151231
0.00151157
0.00148938
0.00144478
0.00137973
0.00130944
0.00126021
0.00121026
0.00116126
0.00113712
0.00112819
0.00112539
0.00112461
0.00112441
0.00112441
0.00112477
0.00112656
0.00113343
0.00115416
0.00120182
0.00126345
0.001348
0.00142142
0.00146304
0.00146454
0.00141621
0.00129596
0.00105588
0.000613045
0.000611353
0.00104586
0.00128077
0.00140201
0.00146148
0.00148645
0.00149094
0.00148052
0.00145606
0.00141766
0.00136824
0.00131261
0.00124906
0.0011891
0.00115946
0.00114831
0.00114476
0.00114377
0.00114355
0.00114367
0.00114448
0.00114766
0.00115813
0.00118706
0.00124783
0.00131697
0.00138269
0.00143156
0.00145504
0.00144701
0.00139635
0.00127907
0.00104563
0.000611454
0.000606762
0.00101953
0.00123824
0.00134863
0.00140193
0.00142486
0.00143133
0.0014274
0.00141438
0.00139146
0.00135775
0.00131357
0.00126171
0.00121354
0.00118753
0.00117699
0.00117343
0.00117244
0.00117223
0.00117239
0.00117332
0.00117676
0.00118706
0.00121295
0.00126177
0.00131574
0.0013625
0.00139407
0.00140616
0.00139384
0.00134578
0.00123759
0.00101959
0.000606885
0.000594879
0.000959433
0.00114707
0.00123839
0.00128098
0.00129907
0.00130502
0.00130421
0.00129803
0.00128573
0.00126594
0.00123821
0.0012052
0.00117479
0.00115712
0.00114938
0.00114663
0.00114582
0.00114565
0.0011458
0.00114659
0.0011493
0.00115697
0.00117464
0.00120532
0.00123898
0.00126708
0.0012848
0.00128959
0.00127728
0.00123737
0.00114705
0.000959644
0.000595003
0.000567275
0.000828936
0.000959542
0.00101978
0.00104624
0.00105696
0.00106062
0.00106089
0.00105873
0.00105378
0.0010451
0.00103226
0.00101658
0.00100194
0.000992993
0.000988854
0.000987303
0.000986814
0.000986712
0.000986819
0.000987309
0.000988853
0.000992978
0.00100193
0.00101665
0.00103248
0.00104524
0.00105272
0.00105366
0.00104525
0.00101974
0.000959791
0.000829168
0.000567382
0.000518647
0.000567317
0.000595005
0.000606984
0.000611671
0.0006134
0.000614015
0.00061419
0.000614082
0.000613624
0.000612736
0.000611226
0.000609204
0.000607183
0.000605905
0.000605273
0.000604987
0.000604843
0.000604791
0.000604852
0.000604994
0.000605275
0.000605898
0.000607166
0.000609179
0.000611202
0.000612693
0.000613457
0.000613375
0.000611863
0.000607221
0.000595207
0.000567451
0.00051872
0.00074032
0.000927808
0.00103488
0.00108525
0.00110707
0.0011158
0.001119
0.00112006
0.00112034
0.00112036
0.00112029
0.00112021
0.00112015
0.00112011
0.00112008
0.00112005
0.00112003
0.00112002
0.00112002
0.00112003
0.00112005
0.00112007
0.0011201
0.00112013
0.00112017
0.00112015
0.0011199
0.00111889
0.00111574
0.00110705
0.00108525
0.0010349
0.000927826
0.00074034
0.000927813
0.0017331
0.00207162
0.00223676
0.00231455
0.00234868
0.00236235
0.00236717
0.00236843
0.00236836
0.00236786
0.00236731
0.00236689
0.0023666
0.00236643
0.00236631
0.00236623
0.00236619
0.00236619
0.00236623
0.00236631
0.00236643
0.00236659
0.00236684
0.00236711
0.00236714
0.00236603
0.0023615
0.00234814
0.00231425
0.0022366
0.00207155
0.00173307
0.000927834
0.00103493
0.00207173
0.00251807
0.00274612
0.0028592
0.00291152
0.0029335
0.0029414
0.00294315
0.00294241
0.0029409
0.00293946
0.00293842
0.00293782
0.00293751
0.00293731
0.00293718
0.00293711
0.00293712
0.00293719
0.00293732
0.00293752
0.00293781
0.00293832
0.00293904
0.0029395
0.00293811
0.00293102
0.00290993
0.00285835
0.00274575
0.00251795
0.00207173
0.00103498
0.00108534
0.00223694
0.00274622
0.00301482
0.00315247
0.00321813
0.00324607
0.00325537
0.00325583
0.00325246
0.00324806
0.00324429
0.00324175
0.00324038
0.00323973
0.00323933
0.00323903
0.00323887
0.00323888
0.00323904
0.00323934
0.00323975
0.00324037
0.00324159
0.00324367
0.00324601
0.00324634
0.00323917
0.00321366
0.00315002
0.0030137
0.00274584
0.0022369
0.00108541
0.0011072
0.00231479
0.00285938
0.00315257
0.00330578
0.00337963
0.00341005
0.00341738
0.0034126
0.00340214
0.00339076
0.00338181
0.00337619
0.00337343
0.00337224
0.00337139
0.00337071
0.00337034
0.00337035
0.00337073
0.00337142
0.00337226
0.00337341
0.003376
0.00338103
0.0033882
0.00339463
0.00339253
0.00336824
0.00329944
0.00314957
0.00285823
0.00231451
0.00110726
0.00111594
0.00234895
0.00291176
0.00321835
0.00337982
0.00345672
0.00348484
0.00348432
0.00346649
0.00343985
0.00341348
0.00339484
0.00338428
0.00337983
0.00337827
0.00337677
0.00337538
0.00337461
0.00337462
0.00337541
0.0033768
0.00337831
0.00337982
0.00338408
0.00339399
0.00341063
0.00343147
0.00344425
0.00343046
0.0033652
0.00321132
0.00290891
0.00234808
0.00111594
0.00111915
0.00236264
0.00293386
0.00324657
0.00341079
0.00348568
0.00350519
0.00348725
0.00344212
0.00338166
0.00332549
0.00329257
0.00327747
0.00327324
0.00327294
0.00327084
0.00326843
0.00326708
0.00326709
0.00326846
0.00327089
0.00327299
0.00327325
0.00327729
0.00329174
0.00332257
0.00337291
0.00341874
0.00343079
0.00338058
0.00323203
0.00292781
0.00236063
0.00111897
0.00112022
0.00236752
0.00294198
0.0032565
0.00341952
0.00348768
0.00349088
0.00344144
0.00334464
0.00321582
0.00310074
0.00305809
0.00305033
0.00305501
0.00306068
0.00305909
0.00305592
0.00305412
0.00305413
0.00305595
0.00305914
0.00306074
0.00305504
0.00305022
0.00305738
0.00309798
0.00320709
0.00332083
0.00338371
0.00336378
0.00322998
0.00293087
0.00236365
0.00111972
0.00112051
0.00236891
0.00294422
0.00325831
0.00341777
0.00347569
0.00345532
0.00335749
0.00317092
0.00290075
0.00264873
0.00265194
0.00270273
0.0027398
0.00275947
0.00276244
0.00276077
0.00275948
0.00275949
0.0027608
0.00276249
0.00275954
0.00273987
0.00270273
0.0026515
0.00264639
0.00289234
0.00314698
0.00329907
0.0033269
0.00321602
0.00292657
0.00236262
0.00111957
0.00112055
0.00236908
0.00294437
0.00325736
0.00341289
0.00346031
0.00341461
0.00325831
0.0029375
0.00235585
0.00149924
0.00200962
0.00227761
0.00238717
0.00242526
0.00244087
0.00244469
0.00244518
0.00244519
0.00244472
0.00244093
0.00242534
0.0023873
0.00227777
0.0020097
0.00149796
0.00234806
0.00291341
0.00319928
0.0032853
0.00319952
0.00292045
0.00236045
0.00111917
0.00112052
0.00236897
0.0029442
0.00325662
0.00341017
0.00345213
0.00339233
0.00319856
0.00276153
0.00156433
0.00127736
0.00193787
0.00211428
0.00217008
0.00218616
0.00218999
0.00219066
0.00219066
0.00219001
0.0021862
0.00217014
0.00211439
0.00193808
0.00127749
0.0015589
0.00273722
0.00313903
0.00326245
0.00319071
0.00291706
0.00235909
0.00111891
0.0011205
0.00236891
0.00294442
0.0032574
0.00341222
0.00345746
0.00340685
0.0032412
0.00290456
0.00229767
0.00143237
0.00184847
0.00209572
0.00219679
0.00223616
0.0022409
0.00224033
0.00223972
0.00223971
0.0022403
0.00224087
0.00223611
0.00219674
0.00209564
0.00184814
0.00143077
0.0022895
0.00288019
0.00318182
0.00327699
0.00319589
0.0029188
0.00235944
0.00111898
0.00112048
0.00236897
0.00294502
0.00325937
0.00341757
0.00347103
0.0034401
0.00332129
0.00309719
0.00276482
0.00242079
0.00231021
0.00226674
0.00225668
0.00225665
0.00225477
0.00225311
0.0022523
0.00225229
0.00225308
0.00225473
0.00225658
0.00225654
0.00226644
0.00230941
0.00241817
0.00275613
0.00307287
0.00326216
0.00331045
0.0032095
0.002924
0.00236109
0.00111928
0.00112047
0.00236908
0.00294574
0.0032616
0.00342345
0.00348525
0.00347229
0.00338982
0.00323343
0.00300795
0.00275498
0.00254813
0.0023877
0.0023123
0.00228554
0.00227668
0.00227372
0.0022728
0.00227279
0.0022737
0.00227664
0.00228546
0.00231213
0.00238735
0.00254723
0.00275212
0.00299902
0.00320904
0.00333073
0.00334269
0.00322368
0.0029297
0.002363
0.00111961
0.00112045
0.00236918
0.00294634
0.00326342
0.00342809
0.00349597
0.00349505
0.00343407
0.00331116
0.00312651
0.00289722
0.00266033
0.00245406
0.00234802
0.00230741
0.00229419
0.00229028
0.00228927
0.00228926
0.00229027
0.00229415
0.00230733
0.00234785
0.0024537
0.00265943
0.00289427
0.00311743
0.00328663
0.00337489
0.00336534
0.00323424
0.00293411
0.0023645
0.00111984
0.00112042
0.00236924
0.00294673
0.00326461
0.00343105
0.00350255
0.00350831
0.00345818
0.00335004
0.00318035
0.00295708
0.00270874
0.00248461
0.00236567
0.00231889
0.00230357
0.00229917
0.00229809
0.00229809
0.00229915
0.00230353
0.00231882
0.00236551
0.00248426
0.00270787
0.00295409
0.00317119
0.00332539
0.00339885
0.00337844
0.00324064
0.00293684
0.00236542
0.00111996
0.0011204
0.00236926
0.00294695
0.00326526
0.00343264
0.00350597
0.00351493
0.00346959
0.00336734
0.00320276
0.00298067
0.00272772
0.00249682
0.00237292
0.00232371
0.00230752
0.0023029
0.00230179
0.00230178
0.00230289
0.00230749
0.00232363
0.00237275
0.00249647
0.00272684
0.00297765
0.00319354
0.0033426
0.00341015
0.00338492
0.0032439
0.00293826
0.0023659
0.00111999
0.00112037
0.00236927
0.00294704
0.00326554
0.00343331
0.00350737
0.00351755
0.00347395
0.00337367
0.00321058
0.00298858
0.00273399
0.00250087
0.00237533
0.0023253
0.00230882
0.00230412
0.002303
0.00230299
0.00230411
0.00230879
0.00232523
0.00237516
0.00250052
0.00273311
0.00298556
0.00320134
0.00334889
0.00341445
0.00338748
0.00324522
0.00293884
0.00236608
0.00111999
0.00112036
0.00236927
0.00294705
0.00326556
0.00343334
0.00350742
0.00351761
0.00347403
0.00337377
0.0032107
0.0029887
0.00273411
0.00250098
0.0023754
0.00232534
0.00230884
0.00230414
0.002303
0.002303
0.00230412
0.00230881
0.00232527
0.00237524
0.00250064
0.00273323
0.00298568
0.00320146
0.003349
0.00341454
0.00338754
0.00324526
0.00293886
0.00236609
0.00111997
0.00112036
0.00236926
0.00294697
0.00326532
0.00343273
0.00350611
0.00351512
0.00346984
0.00336764
0.00320311
0.00298105
0.00272811
0.0024972
0.00237318
0.00232386
0.00230762
0.00230298
0.00230186
0.00230185
0.00230297
0.0023076
0.0023238
0.00237302
0.00249687
0.00272724
0.00297806
0.00319392
0.00334293
0.00341041
0.00338511
0.00324403
0.00293832
0.0023659
0.00111995
0.00112038
0.00236923
0.00294677
0.0032647
0.00343121
0.00350278
0.00350864
0.00345861
0.00335059
0.00318102
0.00295783
0.00270951
0.00248536
0.00236622
0.00231927
0.00230387
0.00229944
0.00229835
0.00229834
0.00229943
0.00230385
0.00231922
0.00236609
0.00248507
0.00270868
0.00295491
0.00317192
0.00332599
0.00339931
0.00337877
0.00324084
0.00293694
0.00236544
0.00111989
0.00112039
0.00236917
0.00294639
0.00326354
0.0034283
0.00349629
0.0034955
0.0034347
0.00331201
0.00312761
0.00289853
0.00266167
0.00245535
0.00234899
0.00230814
0.00229483
0.0022909
0.00228988
0.00228988
0.00229091
0.00229484
0.00230813
0.0023489
0.00245512
0.00266093
0.00289572
0.00311866
0.00328756
0.00337555
0.00336579
0.00323453
0.00293425
0.00236452
0.00111977
0.00112041
0.00236906
0.00294579
0.00326173
0.00342368
0.00348561
0.00347283
0.00339062
0.00323461
0.00300964
0.00275717
0.00255047
0.00238958
0.00231358
0.00228649
0.00227752
0.00227456
0.00227366
0.00227367
0.00227459
0.00227756
0.00228651
0.00231354
0.00238943
0.00254987
0.00275458
0.0030009
0.00321028
0.00333152
0.00334318
0.00322398
0.00292985
0.00236301
0.00111954
0.00112042
0.0023689
0.002945
0.00325939
0.00341767
0.00347125
0.00344052
0.00332203
0.00309852
0.00276714
0.00242417
0.00231338
0.00226809
0.00225674
0.00225609
0.00225402
0.00225235
0.00225159
0.0022516
0.00225239
0.00225405
0.00225605
0.00225657
0.00226784
0.00231298
0.00242197
0.00275865
0.00307405
0.00326264
0.00331066
0.00320961
0.00292404
0.00236104
0.0011192
0.0011204
0.00236868
0.00294408
0.00325697
0.00341175
0.00345699
0.00340647
0.00324108
0.00290514
0.00230007
0.001435
0.00184895
0.00209058
0.00218839
0.0022259
0.00223
0.00222933
0.00222876
0.00222876
0.0022293
0.0022298
0.00222527
0.00218704
0.00208877
0.00184821
0.00143358
0.00229176
0.00287959
0.00318061
0.00327599
0.00319523
0.00291839
0.00235916
0.00111885
0.00112034
0.00236821
0.00294288
0.00325476
0.00340787
0.00344947
0.00338934
0.00319516
0.00275785
0.00156136
0.00125985
0.00190233
0.00206781
0.00211628
0.00213007
0.00213352
0.00213418
0.00213409
0.00213309
0.00212876
0.0021129
0.00206073
0.00189122
0.00125118
0.00155185
0.00272852
0.00313221
0.00325784
0.0031878
0.00291533
0.00235814
0.00111867
0.00112005
0.0023667
0.00294013
0.0032514
0.00340551
0.00345172
0.00340465
0.00324615
0.00292155
0.00233374
0.00147072
0.0019294
0.00216312
0.00223832
0.00225386
0.00226362
0.00226702
0.00226777
0.00226752
0.00226587
0.00225994
0.00224382
0.00221548
0.00212312
0.00188479
0.00144516
0.00230281
0.00288214
0.00317876
0.00327207
0.00319104
0.00291522
0.00235765
0.00111858
0.00111902
0.0023619
0.00293213
0.00324175
0.00339764
0.00345262
0.00342893
0.00332546
0.00312761
0.00283469
0.00253923
0.00247476
0.00244588
0.00240077
0.00237134
0.00236145
0.00235865
0.00235783
0.00235739
0.00235654
0.00235437
0.00235076
0.00235078
0.00235378
0.00237362
0.00245502
0.00277183
0.00307231
0.0032518
0.00329576
0.00319493
0.00291277
0.00235494
0.00111796
0.00111586
0.00234839
0.00291053
0.00321485
0.00337014
0.00343241
0.00342964
0.00337064
0.00325482
0.00308825
0.00290499
0.00275791
0.00261573
0.00248159
0.00241256
0.00238676
0.00237868
0.00237642
0.00237584
0.0023758
0.00237677
0.00238216
0.00240354
0.0024659
0.0026027
0.00277928
0.00299872
0.00318589
0.00329269
0.00329869
0.00318207
0.00289713
0.00234366
0.00111522
0.00110716
0.00231443
0.0028587
0.00315055
0.0032999
0.00336444
0.00337509
0.00334493
0.00327678
0.00317181
0.00303719
0.00288441
0.00271502
0.00255557
0.00247229
0.00243992
0.00242934
0.00242629
0.00242561
0.00242603
0.00242858
0.00243818
0.00246907
0.00255141
0.00271544
0.00290043
0.00307496
0.00320526
0.00326953
0.00325242
0.00312929
0.00285024
0.00231153
0.00110684
0.00108534
0.00223674
0.00274598
0.00301398
0.00314959
0.00321002
0.00322647
0.00321317
0.00317373
0.00310676
0.00301086
0.00288812
0.00274782
0.00261935
0.00254717
0.0025167
0.00250594
0.00250261
0.00250188
0.00250254
0.00250571
0.00251618
0.00254633
0.00261873
0.00274972
0.00289599
0.00302426
0.00311271
0.00314887
0.00312015
0.00300132
0.00274117
0.00223514
0.00108523
0.00103497
0.00207163
0.00251811
0.00274603
0.00285826
0.00290807
0.00292413
0.00291972
0.00289845
0.00285873
0.00279765
0.00271529
0.0026201
0.00253376
0.00248212
0.00245864
0.00244976
0.00244685
0.00244621
0.00244687
0.00244977
0.00245861
0.00248207
0.00253396
0.00262137
0.00271851
0.00280139
0.00285554
0.00287272
0.00284204
0.00273944
0.00251576
0.00207087
0.00103497
0.00092787
0.00173309
0.00207181
0.00223704
0.00231463
0.00234785
0.00235907
0.0023584
0.00234868
0.00232887
0.00229665
0.00225153
0.00219857
0.00215023
0.00212017
0.00210584
0.00210017
0.00209824
0.00209781
0.0020983
0.00210028
0.002106
0.00212037
0.00215058
0.00219933
0.00225285
0.00229748
0.00232523
0.00233128
0.0023075
0.00223437
0.00207095
0.0017328
0.000927924
0.000740373
0.000927869
0.00103505
0.00108552
0.00110742
0.00111611
0.00111901
0.00111919
0.00111746
0.00111352
0.00110664
0.00109642
0.00108389
0.0010722
0.00106499
0.00106159
0.00106025
0.00105978
0.00105967
0.00105979
0.00106027
0.00106162
0.00106502
0.00107224
0.00108399
0.00109661
0.00110673
0.00111264
0.00111336
0.00110647
0.00108531
0.00103507
0.000927919
0.000740446
0.000806637
0.00108414
0.00124603
0.00132551
0.00136188
0.0013773
0.00138328
0.00138534
0.00138589
0.00138589
0.0013857
0.0013855
0.00138533
0.00138521
0.00138514
0.00138509
0.00138506
0.00138504
0.00138504
0.00138505
0.00138509
0.00138514
0.0013852
0.0013853
0.0013854
0.0013854
0.00138492
0.00138297
0.00137711
0.00136178
0.00132546
0.00124601
0.00108414
0.000806657
0.00108414
0.00213971
0.00258386
0.00280882
0.00291955
0.00297044
0.0029918
0.00299963
0.00300172
0.00300151
0.00300053
0.00299945
0.00299857
0.00299798
0.00299761
0.00299736
0.0029972
0.00299712
0.00299712
0.0029972
0.00299736
0.0029976
0.00299795
0.00299845
0.00299902
0.00299916
0.00299737
0.00299006
0.00296927
0.00291884
0.00280841
0.00258363
0.00213958
0.00108414
0.00124608
0.00258399
0.00315447
0.00345494
0.00360978
0.00368438
0.003717
0.00372909
0.00373172
0.00373033
0.00372758
0.00372487
0.00372283
0.00372156
0.00372085
0.0037204
0.00372011
0.00371997
0.00371997
0.00372012
0.00372041
0.00372084
0.00372151
0.0037226
0.00372408
0.00372509
0.00372312
0.00371241
0.00368133
0.00360801
0.00345404
0.00315407
0.00258385
0.00124609
0.00132561
0.00280906
0.00345507
0.00380468
0.0039902
0.00408197
0.00412239
0.00413614
0.00413663
0.00413107
0.00412366
0.00411699
0.00411224
0.00410949
0.00410804
0.00410714
0.00410654
0.00410622
0.00410623
0.00410655
0.00410715
0.00410804
0.00410941
0.00411191
0.00411584
0.00412011
0.00412108
0.00411072
0.00407418
0.00398569
0.00380242
0.0034541
0.00280874
0.00132562
0.00136203
0.00291987
0.00361002
0.00399034
0.00419559
0.00429787
0.00434125
0.00435184
0.0043445
0.00432836
0.00431024
0.00429509
0.00428486
0.00427936
0.00427671
0.00427493
0.00427365
0.00427297
0.00427298
0.00427366
0.00427495
0.00427671
0.00427927
0.00428445
0.00429366
0.00430587
0.00431621
0.00431356
0.0042794
0.00418486
0.0039849
0.00360765
0.00291904
0.00136197
0.00137748
0.00297082
0.00368475
0.00408235
0.00429822
0.00440418
0.00444392
0.00444321
0.00441738
0.00437823
0.00433795
0.00430677
0.00428718
0.00427775
0.00427381
0.00427062
0.00426807
0.00426673
0.00426674
0.00426809
0.00427065
0.00427382
0.00427766
0.00428674
0.00430519
0.00433307
0.00436467
0.0043831
0.00436386
0.00427489
0.00407045
0.00367946
0.00296888
0.00137721
0.00138348
0.00299225
0.0037176
0.0041233
0.00434259
0.0044454
0.00447297
0.00444826
0.00438539
0.00430022
0.00421731
0.00416048
0.00412873
0.0041163
0.00411279
0.00410776
0.0041032
0.00410082
0.00410083
0.00410322
0.0041078
0.00411282
0.00411624
0.00412832
0.00415891
0.00421227
0.00428595
0.00434918
0.00436481
0.00429654
0.00409992
0.00370709
0.00298824
0.0013828
0.00138556
0.00300024
0.00373017
0.00413824
0.00435563
0.00444895
0.00445429
0.00438779
0.00425765
0.00408374
0.00392001
0.0038346
0.00379905
0.00379214
0.00379481
0.00378855
0.00378188
0.00377851
0.00377852
0.0037819
0.00378859
0.00379485
0.00379212
0.00379874
0.0038332
0.00391512
0.00406928
0.00422041
0.00430198
0.00427372
0.00409719
0.00371169
0.00299302
0.00138419
0.00138616
0.00300263
0.00373378
0.00414114
0.00435344
0.00443273
0.0044069
0.0042784
0.004036
0.00368674
0.00334368
0.00328256
0.00330101
0.00332675
0.00334324
0.00334326
0.00333859
0.00333586
0.00333587
0.00333861
0.00334329
0.00334329
0.00332678
0.00330086
0.00328157
0.00333934
0.00367241
0.00399806
0.00419097
0.00422379
0.00407754
0.00370532
0.00299137
0.00138386
0.00138625
0.00300298
0.00373407
0.00413978
0.00434654
0.00441168
0.00435316
0.00415205
0.00374716
0.00301757
0.00187771
0.00242117
0.00271183
0.00281973
0.00283443
0.00287313
0.00288225
0.00288318
0.00288319
0.00288228
0.00287318
0.00283449
0.00281983
0.00271194
0.00242102
0.00187506
0.00300366
0.0037083
0.00406309
0.00416817
0.00405438
0.0036962
0.00298789
0.00138304
0.0013862
0.00300282
0.00373378
0.00413858
0.00434244
0.00440004
0.00432324
0.00407617
0.00353064