/*--------------------------------*- C++ -*----------------------------------*\
| =========                 |                                                 |
| \\      /  F ield         | OpenFOAM: The Open Source CFD Toolbox           |
|  \\    /   O peration     | Version:  2112                                  |
|   \\  /    A nd           | Website:  www.openfoam.com                      |
|    \\/     M anipulation  |                                                 |
\*---------------------------------------------------------------------------*/
FoamFile
{
    version     2.0;
    format      ascii;
    arch        "LSB;label=32;scalar=64";
    class       volScalarField;
    location    "2.7";
    object      nut;
}
// * * * * * * * * * * * * * * * * * * * * * * * * * * * * * * * * * * * * * //

dimensions      [0 2 -1 0 0 0 0];

internalField   nonuniform List<scalar> 
64906
(
5.62542e-05
5.89418e-05
6.0439e-05
6.10877e-05
6.13438e-05
6.14377e-05
6.14699e-05
6.14802e-05
6.14833e-05
6.1484e-05
6.14841e-05
6.14839e-05
6.14837e-05
6.14833e-05
6.14828e-05
6.14822e-05
6.14815e-05
6.14808e-05
6.14805e-05
6.14809e-05
6.14815e-05
6.14821e-05
6.14826e-05
6.14829e-05
6.1483e-05
6.14824e-05
6.14795e-05
6.14697e-05
6.1438e-05
6.13444e-05
6.10886e-05
6.04403e-05
5.89431e-05
5.62553e-05
5.8943e-05
7.14777e-05
7.70481e-05
7.95353e-05
8.06314e-05
8.1088e-05
8.12637e-05
8.13249e-05
8.13424e-05
8.13444e-05
8.13417e-05
8.13384e-05
8.13363e-05
8.13354e-05
8.13352e-05
8.13352e-05
8.13352e-05
8.13351e-05
8.13351e-05
8.13352e-05
8.13353e-05
8.13354e-05
8.13354e-05
8.13359e-05
8.13364e-05
8.13339e-05
8.13179e-05
8.12597e-05
8.10869e-05
8.06326e-05
7.95379e-05
7.70514e-05
7.14809e-05
5.89456e-05
6.04426e-05
7.70502e-05
8.4413e-05
8.78363e-05
8.94304e-05
9.01358e-05
9.04231e-05
9.05252e-05
9.05504e-05
9.05458e-05
9.05325e-05
9.05206e-05
9.05134e-05
9.05107e-05
9.05106e-05
9.0511e-05
9.05112e-05
9.05113e-05
9.05114e-05
9.05115e-05
9.05114e-05
9.05112e-05
9.05111e-05
9.05129e-05
9.05167e-05
9.05172e-05
9.04954e-05
9.0402e-05
9.01247e-05
8.94272e-05
8.78381e-05
8.44173e-05
7.70554e-05
6.04468e-05
6.10929e-05
7.95393e-05
8.78384e-05
9.18155e-05
9.37336e-05
9.46121e-05
9.49763e-05
9.50973e-05
9.51078e-05
9.50719e-05
9.50248e-05
9.49867e-05
9.49635e-05
9.49539e-05
9.49516e-05
9.49506e-05
9.49494e-05
9.49488e-05
9.49489e-05
9.49498e-05
9.49512e-05
9.49524e-05
9.49545e-05
9.49627e-05
9.49806e-05
9.5002e-05
9.5e-05
9.49038e-05
9.45683e-05
9.37132e-05
9.18102e-05
8.7841e-05
7.95453e-05
6.10984e-05
6.13499e-05
8.06366e-05
8.94341e-05
9.37353e-05
9.58534e-05
9.68365e-05
9.72327e-05
9.733e-05
9.72749e-05
9.71501e-05
9.70162e-05
9.69167e-05
9.68587e-05
9.68353e-05
9.6829e-05
9.6824e-05
9.68188e-05
9.68158e-05
9.6816e-05
9.68193e-05
9.68248e-05
9.683e-05
9.6836e-05
9.68576e-05
9.6909e-05
9.69876e-05
9.70617e-05
9.70298e-05
9.67095e-05
9.57877e-05
9.37093e-05
8.94293e-05
8.06413e-05
6.13564e-05
6.14442e-05
8.10938e-05
9.01405e-05
9.46154e-05
9.68388e-05
9.78609e-05
9.82284e-05
9.82253e-05
9.80006e-05
9.76634e-05
9.73337e-05
9.71159e-05
9.70013e-05
9.69629e-05
9.6957e-05
9.69452e-05
9.69313e-05
9.69234e-05
9.69236e-05
9.6932e-05
9.69462e-05
9.69582e-05
9.69638e-05
9.70003e-05
9.71075e-05
9.73019e-05
9.7565e-05
9.77297e-05
9.75475e-05
9.66721e-05
9.45419e-05
9.01171e-05
8.1093e-05
6.14511e-05
6.14764e-05
8.12697e-05
9.04286e-05
9.49823e-05
9.72408e-05
9.82377e-05
9.84939e-05
9.82607e-05
9.76669e-05
9.68621e-05
9.61192e-05
9.5733e-05
9.5577e-05
9.55558e-05
9.5576e-05
9.55576e-05
9.55301e-05
9.55147e-05
9.55149e-05
9.55309e-05
9.55588e-05
9.55776e-05
9.55572e-05
9.55765e-05
9.5725e-05
9.60868e-05
9.67597e-05
9.73828e-05
9.75518e-05
9.68771e-05
9.4817e-05
9.03681e-05
8.1257e-05
6.14827e-05
6.14865e-05
8.13308e-05
9.05326e-05
9.51097e-05
9.73532e-05
9.82633e-05
9.83032e-05
9.7639e-05
9.63114e-05
9.44939e-05
9.2848e-05
9.24268e-05
9.24391e-05
9.25753e-05
9.2696e-05
9.2684e-05
9.2645e-05
9.26234e-05
9.26237e-05
9.26459e-05
9.26855e-05
9.2698e-05
9.25773e-05
9.24397e-05
9.24207e-05
9.28176e-05
9.43922e-05
9.60225e-05
9.6915e-05
9.66561e-05
9.47932e-05
9.04109e-05
8.12978e-05
6.14909e-05
6.1489e-05
8.13488e-05
9.05621e-05
9.51343e-05
9.73325e-05
9.81077e-05
9.78258e-05
9.64704e-05
9.37821e-05
8.96458e-05
8.55636e-05
8.63111e-05
8.74187e-05
8.81067e-05
8.84636e-05
8.85089e-05
8.84876e-05
8.84727e-05
8.8473e-05
8.84886e-05
8.85106e-05
8.8466e-05
8.81095e-05
8.74211e-05
8.6309e-05
8.55388e-05
8.95489e-05
9.3492e-05
9.57378e-05
9.61622e-05
9.46132e-05
9.03591e-05
8.12881e-05
6.14901e-05
6.14889e-05
8.13523e-05
9.0566e-05
9.5125e-05
9.72731e-05
9.79074e-05
9.72681e-05
9.50301e-05
9.01134e-05
8.03246e-05
6.75079e-05
7.57595e-05
8.08943e-05
8.28618e-05
8.35616e-05
8.37614e-05
8.38083e-05
8.38167e-05
8.38171e-05
8.38094e-05
8.37631e-05
8.35643e-05
8.28655e-05
8.08994e-05
7.57653e-05
6.74967e-05
8.02394e-05
8.98224e-05
9.42893e-05
9.55923e-05
9.43982e-05
9.02838e-05
8.12645e-05
6.1486e-05
6.14882e-05
8.13523e-05
9.05663e-05
9.51195e-05
9.72433e-05
9.7805e-05
9.69614e-05
9.41099e-05
8.70142e-05
6.82489e-05
6.4883e-05
7.56012e-05
7.88308e-05
7.97656e-05
8.0046e-05
8.01185e-05
8.01336e-05
8.01338e-05
8.01191e-05
8.0047e-05
7.97674e-05
7.8834e-05
7.56069e-05
6.48877e-05
6.82004e-05
8.67246e-05
9.33628e-05
9.52777e-05
9.42873e-05
9.02453e-05
8.1251e-05
6.14831e-05
6.14876e-05
8.13526e-05
9.05716e-05
9.51338e-05
9.72781e-05
9.78923e-05
9.72008e-05
9.48533e-05
8.97391e-05
7.9622e-05
6.67993e-05
7.34079e-05
7.80905e-05
7.98254e-05
8.03382e-05
8.05591e-05
8.06094e-05
8.06137e-05
8.06136e-05
8.06091e-05
8.05587e-05
8.03376e-05
7.98249e-05
7.80901e-05
7.34033e-05
6.67809e-05
7.95263e-05
8.9442e-05
9.41068e-05
9.55175e-05
9.43729e-05
9.02759e-05
8.12587e-05
6.14833e-05
6.14869e-05
8.13541e-05
9.05813e-05
9.51628e-05
9.73544e-05
9.80863e-05
9.76874e-05
9.60804e-05
9.29129e-05
8.79393e-05
8.26081e-05
8.15756e-05
8.12706e-05
8.12317e-05
8.12263e-05
8.12436e-05
8.12377e-05
8.12297e-05
8.12295e-05
8.1237e-05
8.12424e-05
8.12244e-05
8.12286e-05
8.12651e-05
8.15631e-05
8.25723e-05
8.78337e-05
9.26155e-05
9.53379e-05
9.60081e-05
9.45685e-05
9.03505e-05
8.12818e-05
6.14849e-05
6.14859e-05
8.13557e-05
9.05919e-05
9.5194e-05
9.74352e-05
9.82826e-05
9.81409e-05
9.70783e-05
9.49925e-05
9.18868e-05
8.83259e-05
8.54896e-05
8.32863e-05
8.22565e-05
8.18796e-05
8.1756e-05
8.17116e-05
8.16956e-05
8.16953e-05
8.17106e-05
8.17543e-05
8.18769e-05
8.22523e-05
8.32794e-05
8.54763e-05
8.82881e-05
9.17784e-05
9.46947e-05
9.63373e-05
9.64634e-05
9.47651e-05
9.04288e-05
8.13066e-05
6.14862e-05
6.14847e-05
8.13568e-05
9.06003e-05
9.52188e-05
9.74974e-05
9.8427e-05
9.84523e-05
9.76986e-05
9.61164e-05
9.36658e-05
9.0532e-05
8.72029e-05
8.43032e-05
8.28239e-05
8.22487e-05
8.20519e-05
8.19859e-05
8.19645e-05
8.1964e-05
8.19846e-05
8.20497e-05
8.22457e-05
8.28193e-05
8.4296e-05
8.71893e-05
9.04936e-05
9.3556e-05
9.58173e-05
9.69569e-05
9.67741e-05
9.4908e-05
9.04878e-05
8.13253e-05
6.14864e-05
6.14834e-05
8.13573e-05
9.06059e-05
9.52349e-05
9.75367e-05
9.85143e-05
9.86301e-05
9.80274e-05
9.66586e-05
9.44353e-05
9.1406e-05
8.79132e-05
8.47473e-05
8.30841e-05
8.24209e-05
8.21906e-05
8.21135e-05
8.20877e-05
8.2087e-05
8.21118e-05
8.21882e-05
8.24175e-05
8.30793e-05
8.474e-05
8.7897e-05
9.13673e-05
9.43246e-05
9.63582e-05
9.72842e-05
9.69502e-05
9.4993e-05
9.05237e-05
8.13363e-05
6.14855e-05
6.1482e-05
8.13572e-05
9.0609e-05
9.5244e-05
9.75579e-05
9.85594e-05
9.87175e-05
9.81801e-05
9.68939e-05
9.47456e-05
9.17383e-05
8.81845e-05
8.4919e-05
8.31865e-05
8.24888e-05
8.22448e-05
8.21619e-05
8.21326e-05
8.21316e-05
8.21598e-05
8.22421e-05
8.24853e-05
8.31816e-05
8.49116e-05
8.81683e-05
9.16995e-05
9.46344e-05
9.65925e-05
9.74356e-05
9.7036e-05
9.50361e-05
9.05424e-05
8.13416e-05
6.14838e-05
6.14807e-05
8.1357e-05
9.06105e-05
9.52481e-05
9.7567e-05
9.85781e-05
9.87523e-05
9.82383e-05
9.69793e-05
9.48527e-05
9.18483e-05
8.82735e-05
8.49752e-05
8.32202e-05
8.25107e-05
8.22616e-05
8.21758e-05
8.21437e-05
8.21425e-05
8.21734e-05
8.22587e-05
8.25071e-05
8.32152e-05
8.49677e-05
8.82573e-05
9.18095e-05
9.47413e-05
9.66775e-05
9.74932e-05
9.707e-05
9.50537e-05
9.05502e-05
8.13435e-05
6.14819e-05
6.14795e-05
8.13567e-05
9.06108e-05
9.52487e-05
9.75679e-05
9.85793e-05
9.8754e-05
9.82404e-05
9.69819e-05
9.48559e-05
9.18519e-05
8.82771e-05
8.49778e-05
8.32218e-05
8.25114e-05
8.22614e-05
8.21746e-05
8.21408e-05
8.21393e-05
8.21719e-05
8.22583e-05
8.25076e-05
8.32167e-05
8.49704e-05
8.82611e-05
9.18133e-05
9.47447e-05
9.66804e-05
9.74955e-05
9.70718e-05
9.5055e-05
9.05509e-05
8.13433e-05
6.14801e-05
6.14794e-05
8.13567e-05
9.06099e-05
9.52457e-05
9.75605e-05
9.8563e-05
9.87224e-05
9.81866e-05
9.6902e-05
9.47554e-05
9.17494e-05
8.8196e-05
8.49272e-05
8.31918e-05
8.24911e-05
8.22446e-05
8.21586e-05
8.2125e-05
8.21234e-05
8.21558e-05
8.22414e-05
8.24873e-05
8.31868e-05
8.492e-05
8.81804e-05
9.17115e-05
9.46451e-05
9.66015e-05
9.74427e-05
9.70413e-05
9.50398e-05
9.05446e-05
8.13414e-05
6.14798e-05
6.14805e-05
8.13567e-05
9.06074e-05
9.52379e-05
9.75411e-05
9.85205e-05
9.86384e-05
9.80385e-05
9.66729e-05
9.44532e-05
9.14269e-05
8.79351e-05
8.4763e-05
8.30943e-05
8.2426e-05
8.21915e-05
8.21096e-05
8.20785e-05
8.2077e-05
8.21069e-05
8.21884e-05
8.24224e-05
8.30896e-05
8.47563e-05
8.79206e-05
9.13901e-05
9.43443e-05
9.63741e-05
9.72965e-05
9.69593e-05
9.49993e-05
9.05275e-05
8.13365e-05
6.14811e-05
6.14817e-05
8.13565e-05
9.06025e-05
9.52229e-05
9.75036e-05
9.84357e-05
9.84642e-05
9.77147e-05
9.61382e-05
9.36944e-05
9.05671e-05
8.72386e-05
8.43289e-05
8.28407e-05
8.22581e-05
8.20552e-05
8.19834e-05
8.19569e-05
8.19558e-05
8.1981e-05
8.20523e-05
8.22548e-05
8.28367e-05
8.43233e-05
8.72261e-05
9.05325e-05
9.3588e-05
9.58418e-05
9.69749e-05
9.67871e-05
9.4917e-05
9.04932e-05
8.13262e-05
6.1482e-05
6.14829e-05
8.13556e-05
9.05945e-05
9.5199e-05
9.74427e-05
9.82933e-05
9.81559e-05
9.70996e-05
9.50232e-05
9.19305e-05
8.83828e-05
8.554e-05
8.33229e-05
8.22781e-05
8.18906e-05
8.17592e-05
8.17087e-05
8.16889e-05
8.16881e-05
8.17068e-05
8.17566e-05
8.18876e-05
8.22748e-05
8.3319e-05
8.55323e-05
8.83522e-05
9.1828e-05
9.4729e-05
9.63608e-05
9.64797e-05
9.47763e-05
9.04356e-05
8.13082e-05
6.14819e-05
6.14839e-05
8.1354e-05
9.05838e-05
9.51675e-05
9.73616e-05
9.8097e-05
9.77033e-05
9.61045e-05
9.29513e-05
8.80011e-05
8.26988e-05
8.1652e-05
8.13028e-05
8.12362e-05
8.12147e-05
8.12219e-05
8.12104e-05
8.11995e-05
8.1199e-05
8.12088e-05
8.12193e-05
8.12109e-05
8.12314e-05
8.12989e-05
8.16501e-05
8.26759e-05
8.79047e-05
9.26568e-05
9.53623e-05
9.60241e-05
9.45796e-05
9.03575e-05
8.12838e-05
6.14808e-05
6.14846e-05
8.13513e-05
9.05713e-05
9.51343e-05
9.728e-05
9.78969e-05
9.721e-05
9.48714e-05
8.97763e-05
7.97005e-05
6.68606e-05
7.34406e-05
7.80212e-05
7.97055e-05
8.01866e-05
8.0392e-05
8.04361e-05
8.04379e-05
8.04372e-05
8.04336e-05
8.03862e-05
8.01742e-05
7.96846e-05
7.79976e-05
7.34379e-05
6.68456e-05
7.96153e-05
8.94721e-05
9.41163e-05
9.55225e-05
9.43773e-05
9.02795e-05
8.12594e-05
6.14791e-05
6.14847e-05
8.13456e-05
9.05553e-05
9.51041e-05
9.7225e-05
9.77853e-05
9.69406e-05
9.40873e-05
8.69933e-05
6.82377e-05
6.46521e-05
7.5104e-05
7.81853e-05
7.9018e-05
7.92591e-05
7.93195e-05
7.93302e-05
7.93281e-05
7.93111e-05
7.92373e-05
7.89669e-05
7.80846e-05
7.49503e-05
6.45379e-05
6.81468e-05
8.6648e-05
9.33028e-05
9.5241e-05
9.42671e-05
9.02351e-05
8.12455e-05
6.14783e-05
6.14826e-05
8.13273e-05
9.05206e-05
9.50613e-05
9.71955e-05
9.78195e-05
9.71691e-05
9.49116e-05
8.99606e-05
8.01234e-05
6.72762e-05
7.47389e-05
7.93603e-05
8.0819e-05
8.11838e-05
8.12871e-05
8.13174e-05
8.13233e-05
8.13192e-05
8.1299e-05
8.12318e-05
8.10354e-05
8.04939e-05
7.87909e-05
7.41435e-05
6.69978e-05
7.97669e-05
8.9486e-05
9.40731e-05
9.5458e-05
9.4315e-05
9.02343e-05
8.12394e-05
6.14781e-05
6.14736e-05
8.12681e-05
9.04192e-05
9.49391e-05
9.70977e-05
9.78423e-05
9.75264e-05
9.61088e-05
9.32872e-05
8.88699e-05
8.42377e-05
8.40081e-05
8.39684e-05
8.34356e-05
8.30706e-05
8.29235e-05
8.28762e-05
8.28617e-05
8.28551e-05
8.28455e-05
8.28232e-05
8.27816e-05
8.27286e-05
8.2636e-05
8.25923e-05
8.312e-05
8.80605e-05
9.25982e-05
9.51895e-05
9.58091e-05
9.43765e-05
9.02052e-05
8.12058e-05
6.14725e-05
6.14424e-05
8.10953e-05
9.0138e-05
9.45899e-05
9.67424e-05
9.75862e-05
9.75605e-05
9.67858e-05
9.52239e-05
9.29179e-05
9.03558e-05
8.84639e-05
8.6531e-05
8.46332e-05
8.36815e-05
8.3325e-05
8.3212e-05
8.318e-05
8.31717e-05
8.31719e-05
8.31868e-05
8.3261e-05
8.35411e-05
8.43736e-05
8.62465e-05
8.86234e-05
9.17316e-05
9.43487e-05
9.58087e-05
9.58707e-05
9.42128e-05
8.99999e-05
8.10595e-05
6.14446e-05
6.13491e-05
8.06412e-05
8.9439e-05
9.37289e-05
9.5806e-05
9.66814e-05
9.68368e-05
9.64603e-05
9.55808e-05
9.41969e-05
9.23956e-05
9.03344e-05
8.79578e-05
8.56821e-05
8.45307e-05
8.40907e-05
8.39485e-05
8.39082e-05
8.38993e-05
8.39043e-05
8.39375e-05
8.4065e-05
8.44805e-05
8.56097e-05
8.79248e-05
9.05079e-05
9.29096e-05
9.46691e-05
9.55138e-05
9.52503e-05
9.34992e-05
8.93621e-05
8.06265e-05
6.13537e-05
6.10931e-05
7.95463e-05
8.78492e-05
9.18241e-05
9.37241e-05
9.4547e-05
9.47787e-05
9.46269e-05
9.41379e-05
9.3283e-05
9.20284e-05
9.03818e-05
8.84398e-05
8.66152e-05
8.56111e-05
8.51978e-05
8.50559e-05
8.50154e-05
8.50071e-05
8.50134e-05
8.50517e-05
8.5189e-05
8.55938e-05
8.65949e-05
8.8447e-05
9.04673e-05
9.22002e-05
9.33671e-05
9.3822e-05
9.33982e-05
9.17009e-05
8.78158e-05
7.95457e-05
6.10992e-05
6.04442e-05
7.7059e-05
8.44278e-05
8.78546e-05
8.94449e-05
9.01284e-05
9.0354e-05
9.03167e-05
9.00668e-05
8.95775e-05
8.87994e-05
8.77176e-05
8.64323e-05
8.52425e-05
8.45418e-05
8.42308e-05
8.41186e-05
8.40847e-05
8.40776e-05
8.4084e-05
8.41169e-05
8.42273e-05
8.45362e-05
8.52378e-05
8.64389e-05
8.77492e-05
8.88423e-05
8.95359e-05
8.97334e-05
8.92833e-05
8.78043e-05
8.44224e-05
7.70665e-05
6.04508e-05
5.89461e-05
7.14867e-05
7.70636e-05
7.95566e-05
8.06562e-05
8.11094e-05
8.12659e-05
8.12739e-05
8.11736e-05
8.09495e-05
8.05642e-05
8.0002e-05
7.93219e-05
7.86878e-05
7.82969e-05
7.8114e-05
7.80447e-05
7.80225e-05
7.80178e-05
7.80228e-05
7.80449e-05
7.8114e-05
7.82963e-05
7.86878e-05
7.93256e-05
8.00123e-05
8.05697e-05
8.09008e-05
8.09502e-05
8.06031e-05
7.95498e-05
7.70724e-05
7.14968e-05
5.8952e-05
5.62572e-05
5.89486e-05
6.04514e-05
6.11054e-05
6.13666e-05
6.14652e-05
6.15007e-05
6.15099e-05
6.15019e-05
6.14727e-05
6.14183e-05
6.13286e-05
6.12106e-05
6.1094e-05
6.102e-05
6.09834e-05
6.09669e-05
6.09587e-05
6.09558e-05
6.09592e-05
6.09673e-05
6.09835e-05
6.10197e-05
6.10931e-05
6.12094e-05
6.13275e-05
6.14161e-05
6.1463e-05
6.14602e-05
6.13754e-05
6.11177e-05
6.04623e-05
5.89561e-05
5.62614e-05
8.6976e-05
9.76553e-05
0.000103337
0.000105959
0.000107105
0.000107574
0.000107751
0.000107811
0.000107828
0.000107828
0.000107824
0.00010782
0.000107816
0.000107813
0.000107811
0.00010781
0.000107809
0.000107808
0.000107808
0.000107809
0.00010781
0.000107811
0.000107812
0.000107815
0.000107817
0.000107816
0.000107801
0.000107744
0.000107571
0.000107104
0.000105959
0.000103338
9.76562e-05
8.69773e-05
9.76556e-05
0.000281732
0.000345528
0.000373962
0.000387354
0.000393435
0.000395976
0.000396903
0.000397146
0.000397118
0.000396999
0.000396869
0.000396765
0.000396694
0.000396649
0.000396618
0.000396598
0.000396587
0.000396588
0.000396598
0.000396618
0.000396648
0.000396691
0.000396752
0.000396822
0.000396843
0.000396636
0.000395772
0.000393298
0.00038727
0.000373912
0.000345498
0.000281716
9.76567e-05
0.00010334
0.000345552
0.000435247
0.000476887
0.000497332
0.000507054
0.000511299
0.000512873
0.000513219
0.000513043
0.000512695
0.000512354
0.0005121
0.000511946
0.000511862
0.000511809
0.000511773
0.000511755
0.000511756
0.000511775
0.00051181
0.000511862
0.000511941
0.000512074
0.000512257
0.000512381
0.000512118
0.000510721
0.000506673
0.000497114
0.000476777
0.000435199
0.000345537
0.000103342
0.000105964
0.000374
0.000476904
0.000526124
0.000551004
0.000563153
0.000568504
0.00057033
0.0005704
0.000569667
0.000568694
0.000567823
0.000567206
0.000566856
0.000566679
0.000566565
0.000566486
0.000566444
0.000566445
0.000566487
0.000566568
0.00056668
0.000566849
0.000567166
0.000567677
0.000568234
0.000568356
0.000566979
0.000562142
0.000550424
0.000525837
0.000476785
0.000373966
0.000105967
0.000107112
0.0003874
0.000497362
0.00055102
0.000578628
0.000592213
0.000597975
0.000599383
0.000598398
0.000596236
0.000593809
0.000591789
0.000590427
0.000589709
0.000589376
0.000589136
0.000588956
0.000588861
0.000588862
0.000588958
0.000589139
0.000589377
0.0005897
0.000590377
0.000591607
0.000593238
0.000594631
0.000594292
0.000589765
0.000577215
0.000550312
0.000497061
0.000387307
0.000107114
0.000107582
0.000393485
0.000507098
0.000563196
0.000592256
0.00060634
0.000611613
0.000611494
0.000607999
0.000602689
0.000597223
0.000593074
0.000590445
0.000589212
0.000588734
0.000588277
0.0005879
0.000587705
0.000587706
0.000587904
0.000588281
0.000588737
0.000589204
0.000590392
0.000592873
0.000596588
0.000600899
0.000603445
0.000600945
0.000589148
0.000561627
0.000506416
0.000393259
0.00010758
0.000107759
0.000396032
0.000511369
0.000568612
0.000598143
0.000611805
0.000615428
0.00061204
0.000603437
0.000591653
0.000580147
0.000572944
0.000568847
0.000567321
0.000567013
0.000566226
0.000565523
0.000565172
0.000565173
0.000565526
0.000566232
0.000567017
0.000567315
0.000568798
0.000572747
0.000579497
0.00058978
0.000598636
0.000600949
0.000591972
0.000565504
0.000510002
0.000395559
0.000107746
0.00010782
0.000396973
0.000513
0.000570589
0.000599868
0.000612244
0.000612831
0.000603636
0.000585355
0.000560067
0.000535666
0.000527567
0.000524195
0.000523902
0.000524799
0.000523613
0.000522516
0.000522012
0.000522014
0.000522519
0.000523618
0.000524805
0.000523901
0.000524159
0.0005274
0.000535058
0.000558199
0.000580447
0.000592249
0.00058883
0.000565104
0.000510582
0.000396114
0.000107788
0.000107837
0.000397248
0.000513465
0.000570969
0.000599561
0.000610016
0.000606255
0.000588018
0.000551997
0.000495332
0.000432361
0.000446474
0.000456108
0.000461739
0.000465703
0.000464419
0.000463258
0.000462787
0.000462788
0.000463261
0.000464424
0.000465711
0.000461744
0.000456095
0.000446375
0.000431895
0.00049357
0.00054706
0.000576453
0.000581932
0.000562428
0.000509722
0.000395896
0.00010778
0.000107839
0.00039728
0.0005135
0.000570785
0.000598623
0.000607106
0.000598567
0.000568643
0.000502143
0.000361427
0.000125017
0.000304294
0.000371546
0.000392057
0.000400026
0.000400076
0.000399728
0.000399588
0.000399589
0.00039973
0.00040008
0.000400035
0.000392071
0.000371569
0.000304334
0.000124951
0.000360019
0.000497238
0.000556938
0.000574022
0.000559252
0.000508502
0.000395457
0.000107757
0.000107838
0.000397254
0.000513464
0.000570631
0.000598072
0.000605478
0.000594034
0.000555079
0.000451566
0.000127866
0.00011483
0.00030057
0.000338116
0.000346362
0.000349709
0.000350731
0.000350949
0.000350949
0.000350734
0.000349714
0.00034637
0.000338133
0.00030061
0.000114836
0.0001276
0.00044684
0.000543298
0.000569367
0.000557488
0.000507809
0.000395173
0.000107743
0.000107837
0.000397238
0.000513505
0.000570769
0.00059842
0.000606387
0.000596755
0.000564857
0.00049532
0.000351184
0.000121901
0.000272952
0.000326126
0.000339061
0.000337587
0.000344896
0.000347367
0.000347826
0.000347825
0.000347365
0.000344895
0.000337579
0.000339051
0.000326113
0.000272926
0.000121819
0.000349713
0.000490376
0.000553098
0.000572119
0.000558396
0.000508114
0.000395221
0.000107747
0.000107836
0.000397249
0.000513628
0.000571148
0.000599401
0.000608805
0.000602696
0.000579965
0.000536225
0.000467538
0.000388455
0.000375997
0.000361631
0.000356179
0.000353196
0.000354766
0.000355467
0.000355593
0.000355592
0.000355463
0.000354759
0.000353181
0.000356152
0.000361574
0.000375849
0.000387961
0.000465752
0.000531239
0.000568281
0.000578152
0.000560874
0.0005091
0.000395529
0.000107764
0.000107836
0.000397271
0.000513778
0.000571591
0.00060051
0.000611377
0.000608369
0.000592055
0.000561236
0.000516026
0.000463546
0.000420465
0.000382828
0.000367341
0.000361991
0.000360844
0.000360601
0.000360534
0.000360533
0.000360598
0.000360838
0.000361978
0.000367311
0.000382761
0.000420291
0.000462964
0.000514161
0.000556241
0.000580418
0.000583888
0.00056349
0.000510207
0.000395898
0.000107783
0.000107835
0.000397292
0.000513905
0.00057196
0.000601408
0.000613362
0.000612423
0.000599743
0.000574686
0.000536976
0.000489509
0.00043928
0.000393338
0.000373165
0.000366059
0.000363942
0.000363379
0.000363249
0.000363249
0.000363378
0.000363939
0.000366048
0.000373137
0.000393274
0.00043911
0.000488905
0.000535081
0.000569678
0.000588116
0.000587962
0.000565485
0.000511085
0.000396198
0.000107796
0.000107834
0.000397305
0.000513991
0.000572208
0.000601997
0.000614617
0.000614848
0.000603991
0.000581363
0.000546115
0.000499608
0.000447068
0.000398068
0.000375906
0.000367916
0.000365437
0.000364769
0.000364624
0.000364624
0.000364769
0.000365435
0.000367907
0.00037588
0.000398007
0.000446912
0.000498996
0.000544203
0.000576339
0.000592353
0.000590379
0.000566725
0.000511644
0.000396388
0.000107804
0.000107833
0.000397312
0.00051404
0.000572346
0.000602322
0.000615288
0.000616094
0.000606057
0.000584391
0.000549937
0.000503546
0.000450128
0.00039999
0.000377045
0.000368687
0.000366071
0.000365369
0.000365221
0.000365222
0.00036537
0.00036607
0.000368679
0.000377021
0.00039993
0.000449971
0.000502929
0.000548014
0.000579353
0.000594405
0.000591609
0.000567377
0.000511942
0.000396487
0.000107806
0.000107831
0.000397314
0.000514061
0.000572407
0.000602461
0.000615569
0.0006166
0.000606867
0.000585525
0.000551297
0.000504886
0.000451157
0.000400644
0.000377434
0.000368948
0.000366287
0.000365574
0.000365426
0.000365427
0.000365575
0.000366286
0.00036894
0.000377409
0.000400583
0.000450999
0.000504266
0.00054937
0.00058048
0.000595206
0.000592105
0.000567646
0.000512065
0.000396528
0.000107806
0.000107831
0.000397314
0.000514062
0.00057241
0.000602465
0.000615576
0.00061661
0.000606878
0.000585538
0.000551312
0.0005049
0.000451171
0.000400662
0.000377445
0.000368954
0.000366291
0.000365578
0.000365431
0.000365432
0.00036558
0.000366291
0.000368947
0.000377421
0.000400603
0.000451014
0.000504281
0.000549386
0.000580495
0.000595218
0.000592114
0.000567652
0.000512068
0.000396528
0.000107806
0.000107831
0.000397311
0.000514044
0.000572355
0.000602336
0.000615309
0.000616122
0.000606092
0.000584433
0.000549984
0.000503593
0.000450175
0.000400052
0.000377087
0.000368712
0.000366092
0.000365389
0.000365244
0.000365245
0.000365391
0.000366092
0.000368706
0.000377064
0.000399995
0.00045002
0.000502979
0.000548064
0.000579398
0.000594442
0.000591637
0.000567396
0.000511951
0.000396488
0.000107804
0.000107831
0.000397303
0.000513998
0.000572222
0.000602021
0.000614651
0.000614895
0.000604051
0.000581438
0.000546204
0.000499703
0.000447163
0.000398192
0.000375996
0.000367982
0.000365496
0.000364829
0.000364688
0.00036469
0.000364832
0.000365498
0.000367979
0.000375978
0.00039814
0.000447013
0.000499097
0.0005443
0.00057642
0.000592417
0.000590426
0.000566756
0.00051166
0.000396388
0.000107801
0.000107832
0.000397289
0.000513913
0.000571979
0.000601439
0.000613408
0.000612487
0.00059983
0.000574802
0.000537125
0.000489684
0.00043946
0.000393555
0.000373333
0.000366198
0.000364073
0.000363513
0.00036339
0.000363392
0.000363519
0.00036408
0.000366202
0.000373324
0.000393514
0.000439323
0.000489099
0.000535245
0.000569804
0.000588206
0.000588025
0.000565526
0.000511106
0.000396198
0.000107793
0.000107833
0.000397264
0.000513782
0.000571606
0.000600538
0.000611422
0.000608437
0.000592159
0.000561397
0.000516268
0.000463875
0.000420846
0.000383158
0.000367586
0.000362204
0.000361041
0.000360804
0.000360747
0.000360751
0.000360814
0.000361055
0.000362216
0.000367586
0.000383132
0.000420727
0.000463334
0.000514429
0.000556406
0.000580514
0.000583946
0.000563527
0.000510225
0.000395893
0.000107779
0.000107833
0.00039723
0.000513612
0.000571135
0.000599393
0.000608809
0.000602723
0.000580041
0.000536404
0.000467909
0.000389037
0.000376568
0.000361906
0.000356261
0.000353217
0.000354739
0.000355446
0.000355586
0.000355591
0.000355459
0.000354755
0.00035322
0.000356242
0.000361871
0.000376516
0.000388625
0.00046617
0.000531381
0.000568296
0.000578135
0.000560858
0.000509087
0.000395507
0.000107759
0.000107832
0.000397182
0.000513418
0.000570651
0.000598276
0.000606229
0.000596596
0.000564737
0.000495359
0.000351662
0.000122019
0.00027324
0.000325282
0.000337648
0.000335867
0.000343073
0.000345555
0.000346032
0.000346033
0.000345554
0.000343047
0.000335757
0.000337428
0.00032502
0.000273314
0.000121945
0.000350286
0.000490204
0.000552746
0.000571823
0.0005582
0.000507995
0.000395145
0.00010774
0.000107827
0.000397084
0.000513158
0.000570195
0.000597523
0.000604834
0.0005933
0.000554267
0.000450818
0.000127719
0.00011394
0.000294682
0.000330288
0.00033733
0.00034039
0.000341405
0.000341642
0.000341629
0.00034134
0.000340182
0.000336776
0.000329135
0.000292982
0.000113507
0.000127262
0.000445221
0.000541782
0.000568284
0.000556791
0.000507393
0.000394951
0.000107729
0.00010781
0.000396779
0.000512579
0.000569487
0.000597006
0.000605207
0.000596345
0.000565952
0.000498813
0.00035779
0.000123656
0.000290303
0.00035081
0.00036503
0.000368813
0.0003684
0.00036823
0.000368208
0.000368166
0.000368036
0.000367776
0.000367089
0.000360996
0.000343509
0.000282982
0.000122466
0.000352706
0.000490899
0.000552484
0.000571082
0.000557358
0.000507338
0.000394849
0.000107723
0.000107751
0.00039585
0.000510965
0.000567546
0.000595394
0.000605205
0.000600693
0.000581222
0.000542887
0.000481939
0.000411547
0.000411737
0.000405853
0.000394442
0.000388712
0.00038615
0.000385328
0.000385107
0.000385033
0.00038497
0.000384931
0.000385061
0.000384997
0.000386621
0.000391347
0.000395588
0.00046923
0.000531388
0.000566377
0.000575288
0.000557952
0.00050681
0.000394331
0.000107687
0.000107577
0.000393338
0.000506791
0.000562384
0.000590146
0.0006013
0.000600576
0.000589274
0.000566925
0.0005338
0.000495509
0.000465659
0.0004334
0.000400963
0.000387316
0.000382612
0.000381185
0.000380794
0.000380699
0.00038071
0.000380937
0.000381995
0.00038586
0.000398607
0.000431478
0.000468688
0.000514711
0.000552318
0.00057345
0.000575569
0.00055545
0.000503825
0.000392268
0.000107536
0.000107109
0.000387291
0.000497171
0.000550511
0.000577266
0.000588895
0.000590637
0.000584562
0.000570962
0.000549689
0.000521595
0.000488807
0.000450761
0.000413187
0.000396937
0.000391224
0.000389436
0.000388931
0.00038882
0.00038889
0.000389321
0.000390962
0.00039644
0.000412636
0.000451135
0.000491859
0.000528796
0.000555709
0.00056919
0.000567186
0.00054584
0.000495229
0.000386602
0.000107088
0.000105964
0.000373923
0.000476807
0.000525865
0.000550263
0.000561253
0.000564144
0.000561241
0.000553029
0.000539059
0.000518833
0.000492614
0.000462169
0.000433899
0.00041978
0.000414231
0.000412333
0.000411745
0.000411616
0.000411736
0.000412297
0.000414149
0.000419667
0.000433878
0.000462652
0.000494168
0.000521344
0.000540009
0.000548097
0.000543776
0.000522977
0.000475653
0.000373517
0.000105955
0.000103342
0.0003455
0.000435213
0.000476797
0.000497018
0.000506149
0.000509068
0.000507962
0.00050338
0.000494933
0.000482001
0.000464606
0.000444501
0.000426301
0.000416107
0.000411666
0.000410011
0.000409468
0.000409348
0.000409473
0.000410018
0.000411669
0.000416116
0.000426378
0.000444796
0.000465262
0.000482708
0.000494235
0.000498351
0.000493334
0.000475236
0.000434619
0.000345286
0.000103341
9.76588e-05
0.000281708
0.000345538
0.00037397
0.000387292
0.000393148
0.000395138
0.000394881
0.000392821
0.00038874
0.000382219
0.000373216
0.000362757
0.000353284
0.000347568
0.000344888
0.000343827
0.000343461
0.00034338
0.000343475
0.000343853
0.000344925
0.000347619
0.000353373
0.000362929
0.000373497
0.000382391
0.000388045
0.000389573
0.000385688
0.00037333
0.000345305
0.000281615
9.76614e-05
8.69794e-05
9.76587e-05
0.000103346
0.000105973
0.000107123
0.000107588
0.000107745
0.000107752
0.000107651
0.000107426
0.00010704
0.000106475
0.00010579
0.000105152
0.000104756
0.000104568
0.000104493
0.000104467
0.000104461
0.000104467
0.000104494
0.00010457
0.000104758
0.000105155
0.000105795
0.000106486
0.000107044
0.000107375
0.000107422
0.000107062
0.000105957
0.000103345
9.7661e-05
8.69839e-05
9.08774e-05
0.000105729
0.000113588
0.000117325
0.000119037
0.000119777
0.000120071
0.000120176
0.000120204
0.000120203
0.000120194
0.000120183
0.000120174
0.000120167
0.000120164
0.000120161
0.000120159
0.000120158
0.000120158
0.000120159
0.000120161
0.000120163
0.000120167
0.000120172
0.000120177
0.000120177
0.000120153
0.000120054
0.000119766
0.000119031
0.000117322
0.000113587
0.000105729
9.08786e-05
0.000105729
0.000366976
0.000465429
0.000510708
0.000532678
0.00054301
0.000547497
0.000549193
0.00054964
0.000549564
0.000549303
0.000549016
0.000548782
0.00054862
0.000548516
0.000548446
0.000548401
0.000548377
0.000548377
0.0005484
0.000548445
0.000548512
0.000548609
0.000548748
0.000548909
0.000548973
0.000548603
0.00054704
0.000542694
0.000532476
0.000510583
0.000465351
0.000366933
0.000105729
0.000113591
0.000465468
0.000612001
0.00068243
0.000717838
0.000735104
0.000742852
0.000745788
0.000746415
0.000746013
0.000745247
0.000744479
0.000743888
0.000743515
0.000743303
0.000743168
0.00074308
0.000743036
0.000743037
0.000743081
0.000743168
0.000743299
0.000743497
0.000743821
0.000744259
0.000744581
0.000744146
0.000741582
0.000734246
0.000717324
0.000682152
0.000611863
0.000465412
0.000113591
0.000117329
0.000510771
0.000682462
0.000767558
0.000811489
0.000833383
0.000843229
0.000846625
0.000846686
0.00084515
0.000843078
0.000841156
0.000839741
0.000838905
0.000838464
0.000838177
0.000837983
0.000837886
0.000837886
0.000837985
0.000838178
0.00083846
0.00083888
0.000839642
0.00084083
0.000842107
0.000842499
0.000840031
0.000831226
0.000810211
0.000766889
0.000682156
0.000510662
0.000117329
0.000119044
0.000532756
0.000717897
0.000811524
0.000860658
0.000885266
0.000895868
0.000898442
0.000896448
0.000892083