/*--------------------------------*- C++ -*----------------------------------*\
| =========                 |                                                 |
| \\      /  F ield         | OpenFOAM: The Open Source CFD Toolbox           |
|  \\    /   O peration     | Version:  2112                                  |
|   \\  /    A nd           | Website:  www.openfoam.com                      |
|    \\/     M anipulation  |                                                 |
\*---------------------------------------------------------------------------*/
FoamFile
{
    version     2.0;
    format      ascii;
    arch        "LSB;label=32;scalar=64";
    class       volScalarField;
    location    "2.7";
    object      p;
}
// * * * * * * * * * * * * * * * * * * * * * * * * * * * * * * * * * * * * * //

dimensions      [0 2 -2 0 0 0 0];

internalField   nonuniform List<scalar> 
64906
(
-6.45678e-06
-6.43758e-06
-6.43028e-06
-6.4286e-06
-6.45474e-06
-6.5075e-06
-6.58748e-06
-6.69515e-06
-6.83105e-06
-7.00945e-06
-7.17855e-06
-7.34993e-06
-7.51578e-06
-7.66936e-06
-7.80254e-06
-7.91133e-06
-7.99246e-06
-8.04464e-06
-8.06725e-06
-8.06041e-06
-8.02514e-06
-7.96305e-06
-7.87774e-06
-7.77348e-06
-7.65879e-06
-7.54057e-06
-7.42655e-06
-7.30205e-06
-7.22309e-06
-7.17584e-06
-7.16148e-06
-7.16293e-06
-7.17501e-06
-7.19545e-06
-6.39605e-06
-6.31409e-06
-6.24889e-06
-6.21505e-06
-6.20708e-06
-6.22623e-06
-6.27014e-06
-6.33607e-06
-6.4192e-06
-6.5022e-06
-6.61153e-06
-6.72591e-06
-6.83255e-06
-6.93029e-06
-7.01381e-06
-7.08294e-06
-7.13607e-06
-7.17328e-06
-7.19439e-06
-7.19955e-06
-7.18925e-06
-7.16367e-06
-7.12469e-06
-7.07264e-06
-7.01308e-06
-6.94715e-06
-6.88845e-06
-6.8614e-06
-6.83687e-06
-6.83394e-06
-6.85626e-06
-6.9188e-06
-7.00843e-06
-7.11197e-06
-6.37431e-06
-6.24984e-06
-6.13818e-06
-6.05323e-06
-6.00662e-06
-5.99537e-06
-6.0148e-06
-6.06129e-06
-6.12989e-06
-6.2168e-06
-6.31763e-06
-6.42661e-06
-6.52248e-06
-6.60687e-06
-6.67369e-06
-6.72762e-06
-6.76865e-06
-6.79891e-06
-6.8188e-06
-6.82847e-06
-6.8278e-06
-6.81493e-06
-6.79018e-06
-6.74907e-06
-6.69828e-06
-6.63652e-06
-6.58688e-06
-6.55684e-06
-6.55342e-06
-6.58416e-06
-6.65794e-06
-6.78082e-06
-6.93278e-06
-7.09378e-06
-6.39198e-06
-6.23031e-06
-6.07251e-06
-5.94469e-06
-5.86605e-06
-5.83444e-06
-5.84583e-06
-5.89869e-06
-5.9904e-06
-6.12279e-06
-6.27987e-06
-6.45643e-06
-6.60243e-06
-6.72312e-06
-6.80895e-06
-6.87355e-06
-6.91892e-06
-6.95046e-06
-6.96929e-06
-6.97555e-06
-6.96839e-06
-6.94264e-06
-6.89677e-06
-6.81742e-06
-6.71526e-06
-6.58556e-06
-6.48178e-06
-6.41101e-06
-6.39467e-06
-6.43661e-06
-6.54478e-06
-6.72014e-06
-6.92987e-06
-7.14116e-06
-6.46261e-06
-6.27264e-06
-6.07185e-06
-5.91638e-06
-5.81998e-06
-5.78591e-06
-5.814e-06
-5.90889e-06
-6.07433e-06
-6.32298e-06
-6.62905e-06
-6.9875e-06
-7.27172e-06
-7.49659e-06
-7.6477e-06
-7.75671e-06
-7.82788e-06
-7.87167e-06
-7.8899e-06
-7.88266e-06
-7.84838e-06
-7.77679e-06
-7.66426e-06
-7.47946e-06
-7.2387e-06
-6.92753e-06
-6.67888e-06
-6.49865e-06
-6.42046e-06
-6.43902e-06
-6.55656e-06
-6.76578e-06
-7.01988e-06
-7.27349e-06
-6.5852e-06
-6.36159e-06
-6.14133e-06
-5.96189e-06
-5.86025e-06
-5.84174e-06
-5.91145e-06
-6.08417e-06
-6.37594e-06
-6.82192e-06
-7.39217e-06
-8.10441e-06
-8.63611e-06
-9.04246e-06
-9.30715e-06
-9.49644e-06
-9.61615e-06
-9.68406e-06
-9.70223e-06
-9.67067e-06
-9.58751e-06
-9.43491e-06
-9.20795e-06
-8.8406e-06
-8.35242e-06
-7.6875e-06
-7.18127e-06
-6.81136e-06
-6.61926e-06
-6.57903e-06
-6.68191e-06
-6.90879e-06
-7.19823e-06
-7.49332e-06
-6.75862e-06
-6.50127e-06
-6.25903e-06
-6.06566e-06
-5.97088e-06
-5.98412e-06
-6.11678e-06
-6.39649e-06
-6.85797e-06
-7.58122e-06
-8.52743e-06
-9.88643e-06
-1.07829e-05
-1.1443e-05
-1.18599e-05
-1.21592e-05
-1.23457e-05
-1.24477e-05
-1.24664e-05
-1.24018e-05
-1.22525e-05
-1.19899e-05
-1.16102e-05
-1.09876e-05
-1.0135e-05
-8.82025e-06
-7.95034e-06
-7.31048e-06
-6.96045e-06
-6.8322e-06
-6.90099e-06
-7.13418e-06
-7.45544e-06
-7.7982e-06
-6.97729e-06
-6.68136e-06
-6.41641e-06
-6.216e-06
-6.14027e-06
-6.20182e-06
-6.41678e-06
-6.82096e-06
-7.47092e-06
-8.48898e-06
-9.85218e-06
-1.2423e-05
-1.37479e-05
-1.47276e-05
-1.53362e-05
-1.5781e-05
-1.60575e-05
-1.62061e-05
-1.62261e-05
-1.61173e-05
-1.58801e-05
-1.54728e-05
-1.49009e-05
-1.3956e-05
-1.26752e-05
-1.01356e-05
-8.87747e-06
-7.94553e-06
-7.41623e-06
-7.18165e-06
-7.19974e-06
-7.43097e-06
-7.779e-06
-8.18132e-06
-7.23329e-06
-6.89094e-06
-6.60182e-06
-6.39933e-06
-6.35367e-06
-6.47854e-06
-6.78993e-06
-7.32253e-06
-8.10758e-06
-9.3687e-06
-1.1103e-05
-1.5939e-05
-1.74106e-05
-1.87043e-05
-1.95111e-05
-2.00995e-05
-2.04661e-05
-2.06626e-05
-2.06846e-05
-2.05317e-05
-2.02074e-05
-1.96585e-05
-1.88887e-05
-1.76231e-05
-1.61982e-05
-1.13707e-05
-9.81633e-06
-8.61257e-06
-7.95065e-06
-7.60269e-06
-7.55715e-06
-7.77778e-06
-8.15535e-06
-8.63306e-06
-7.52057e-06
-7.11981e-06
-6.8083e-06
-6.61353e-06
-6.61934e-06
-6.84184e-06
-7.29784e-06
-7.98868e-06
-8.98574e-06
-1.14124e-05
-9.36552e-06
-1.96956e-05
-2.12381e-05
-2.30968e-05
-2.41976e-05
-2.5013e-05
-2.55234e-05
-2.5791e-05
-2.58155e-05
-2.55962e-05
-2.5133e-05
-2.43612e-05
-2.32997e-05
-2.14645e-05
-1.99984e-05
-9.52338e-06
-1.18541e-05
-9.47986e-06
-8.6385e-06
-8.1473e-06
-7.99127e-06
-8.1735e-06
-8.57222e-06
-9.14626e-06
-7.8444e-06
-7.34364e-06
-7.01877e-06
-6.83687e-06
-6.90718e-06
-7.25276e-06
-7.86045e-06
-8.58602e-06
-9.29861e-06
-7.04797e-06
-2.91364e-05
-2.63861e-05
-2.754e-05
-2.86162e-05
-2.95401e-05
-3.01539e-05
-3.04678e-05
-3.04946e-05
-3.02339e-05
-2.96723e-05
-2.87969e-05
-2.77612e-05
-2.66249e-05
-2.92913e-05
-7.84275e-06
-9.95329e-06
-9.29226e-06
-8.74388e-06
-8.4617e-06
-8.58268e-06
-8.9881e-06
-9.71041e-06
-8.16603e-06
-7.5921e-06
-7.23831e-06
-7.07775e-06
-7.24882e-06
-7.82634e-06
-8.93428e-06
-1.07534e-05
-1.37673e-05
-1.76821e-05
-2.65276e-05
-2.5597e-05
-2.87373e-05
-3.11476e-05
-3.30193e-05
-3.44115e-05
-3.52743e-05
-3.56897e-05
-3.57186e-05
-3.53614e-05
-3.45579e-05
-3.32266e-05
-3.14189e-05
-2.90799e-05
-2.60118e-05
-2.71217e-05
-1.81856e-05
-1.43184e-05
-1.14045e-05
-9.8e-06
-9.06771e-06
-9.03602e-06
-9.44061e-06
-1.02593e-05
-8.47037e-06
-7.82544e-06
-7.4394e-06
-7.28399e-06
-7.51617e-06
-8.22627e-06
-9.55131e-06
-1.16273e-05
-1.46281e-05
-1.82381e-05
-2.41719e-05
-2.75341e-05
-3.07505e-05
-3.35563e-05
-3.58137e-05
-3.74077e-05
-3.8391e-05
-3.88622e-05
-3.88923e-05
-3.84818e-05
-3.75607e-05
-3.60309e-05
-3.38411e-05
-3.10984e-05
-2.79318e-05
-2.46629e-05
-1.87582e-05
-1.51649e-05
-1.22598e-05
-1.04167e-05
-9.51013e-06
-9.41946e-06
-9.85571e-06
-1.07822e-05
-8.74125e-06
-8.03865e-06
-7.62179e-06
-7.46355e-06
-7.73369e-06
-8.52842e-06
-9.98636e-06
-1.22368e-05
-1.54319e-05
-1.94194e-05
-2.4407e-05
-2.84015e-05
-3.21752e-05
-3.53107e-05
-3.77877e-05
-3.94734e-05
-4.04998e-05
-4.09846e-05
-4.10151e-05
-4.05918e-05
-3.96289e-05
-3.80091e-05
-3.5602e-05
-3.25316e-05
-2.88218e-05
-2.48737e-05
-1.9899e-05
-1.59392e-05
-1.28538e-05
-1.08593e-05
-9.8619e-06
-9.75363e-06
-1.02349e-05
-1.1283e-05
-8.97569e-06
-8.2233e-06
-7.77555e-06
-7.60346e-06
-7.88338e-06
-8.71027e-06
-1.02157e-05
-1.25219e-05
-1.57527e-05
-1.97835e-05
-2.4491e-05
-2.88623e-05
-3.29867e-05
-3.62698e-05
-3.88217e-05
-4.05181e-05
-4.15396e-05
-4.20164e-05
-4.20467e-05
-4.16312e-05
-4.06729e-05
-3.90421e-05
-3.65594e-05
-3.33392e-05
-2.9277e-05
-2.49366e-05
-2.0244e-05
-1.62456e-05
-1.31358e-05
-1.11073e-05
-1.01e-05
-1.00161e-05
-1.05546e-05
-1.17179e-05
-9.16933e-06
-8.37699e-06
-7.90242e-06
-7.71394e-06
-7.99199e-06
-8.82923e-06
-1.03511e-05
-1.26767e-05
-1.59166e-05
-1.99684e-05
-2.46417e-05
-2.92051e-05
-3.34954e-05
-3.68536e-05
-3.94315e-05
-4.11127e-05
-4.21134e-05
-4.25755e-05
-4.26057e-05
-4.22047e-05
-4.12667e-05
-3.96503e-05
-3.71404e-05
-3.3842e-05
-2.96084e-05
-2.50741e-05
-2.04177e-05
-1.64026e-05
-1.32945e-05
-1.12659e-05
-1.02733e-05
-1.02235e-05
-1.0812e-05
-1.20515e-05
-9.31851e-06
-8.49651e-06
-8.00077e-06
-7.79697e-06
-8.06819e-06
-8.90534e-06
-1.04302e-05
-1.27627e-05
-1.60097e-05
-2.00888e-05
-2.47905e-05
-2.9455e-05
-3.38424e-05
-3.72413e-05
-3.98279e-05
-4.14949e-05
-4.24796e-05
-4.29311e-05
-4.29615e-05
-4.25714e-05
-4.16495e-05
-4.00467e-05
-3.75274e-05
-3.41883e-05
-2.98607e-05
-2.52184e-05
-2.05331e-05
-1.64943e-05
-1.33878e-05
-1.13676e-05
-1.03955e-05
-1.03779e-05
-1.10062e-05
-1.22995e-05
-9.42195e-06
-8.58117e-06
-8.07186e-06
-7.85793e-06
-8.12451e-06
-8.96212e-06
-1.04915e-05
-1.28343e-05
-1.60978e-05
-2.02094e-05
-2.49526e-05
-2.9684e-05
-3.41324e-05
-3.75633e-05
-4.01625e-05
-4.18286e-05
-4.28089e-05
-4.32573e-05
-4.32885e-05
-4.29028e-05
-4.19859e-05
-4.03843e-05
-3.7852e-05
-3.44802e-05
-3.00913e-05
-2.53796e-05
-2.06526e-05
-1.65837e-05
-1.34668e-05
-1.14464e-05
-1.04849e-05
-1.04873e-05
-1.11403e-05
-1.24666e-05
-9.4793e-06
-8.6306e-06
-8.11589e-06
-7.8984e-06
-8.16473e-06
-9.0065e-06
-1.05452e-05
-1.29043e-05
-1.61938e-05
-2.0341e-05
-2.51263e-05
-2.99021e-05
-3.43884e-05
-3.78474e-05
-4.04658e-05
-4.21452e-05
-4.31339e-05
-4.35869e-05
-4.36194e-05
-4.32315e-05
-4.23082e-05
-4.06943e-05
-3.81427e-05
-3.47421e-05
-3.03139e-05
-2.5556e-05
-2.07866e-05
-1.66831e-05
-1.35435e-05
-1.15109e-05
-1.05467e-05
-1.05537e-05
-1.12157e-05
-1.25553e-05
-9.49106e-06
-8.64524e-06
-8.13322e-06
-7.91871e-06
-8.1896e-06
-9.03885e-06
-1.0592e-05
-1.29741e-05
-1.62952e-05
-2.04801e-05
-2.53095e-05
-3.01108e-05
-3.46118e-05
-3.80936e-05
-4.07366e-05
-4.24422e-05
-4.34509e-05
-4.39161e-05
-4.39506e-05
-4.35544e-05
-4.26143e-05
-4.09767e-05
-3.84016e-05
-3.49778e-05
-3.05328e-05
-2.57476e-05
-2.09327e-05
-1.679e-05
-1.36165e-05
-1.15609e-05
-1.05811e-05
-1.05782e-05
-1.12335e-05
-1.2567e-05
-9.45888e-06
-8.62655e-06
-8.12457e-06
-7.91777e-06
-8.19416e-06
-9.04992e-06
-1.06156e-05
-1.30194e-05
-1.63804e-05
-2.06087e-05
-2.55015e-05
-3.03092e-05
-3.47893e-05
-3.82813e-05
-4.09482e-05
-4.26899e-05
-4.37286e-05
-4.42127e-05
-4.42504e-05
-4.38415e-05
-4.2877e-05
-4.12079e-05
-3.86115e-05
-3.51779e-05
-3.07499e-05
-2.59563e-05
-2.10767e-05
-1.68884e-05
-1.3672e-05
-1.15876e-05
-1.05847e-05
-1.05607e-05
-1.11953e-05
-1.25009e-05
-9.38535e-06
-8.57631e-06
-8.08977e-06
-7.89148e-06
-8.16779e-06
-9.01764e-06
-1.05786e-05
-1.29852e-05
-1.6376e-05
-2.06536e-05
-2.56849e-05
-3.04622e-05
-3.48506e-05
-3.83097e-05
-4.09751e-05
-4.27487e-05
-4.38194e-05
-4.43261e-05
-4.43684e-05
-4.39462e-05
-4.29585e-05
-4.12658e-05
-3.86768e-05
-3.52785e-05
-3.09325e-05
-2.61671e-05
-2.11493e-05
-1.69094e-05
-1.36575e-05
-1.15589e-05
-1.05418e-05
-1.04965e-05
-1.10999e-05
-1.2346e-05
-9.27542e-06
-8.49926e-06
-8.03248e-06
-7.84098e-06
-8.10662e-06
-8.92906e-06
-1.0452e-05
-1.28178e-05
-1.62044e-05
-2.05092e-05
-2.59092e-05
-3.05785e-05
-3.47109e-05
-3.80686e-05
-4.06853e-05
-4.24676e-05
-4.35576e-05
-4.40832e-05
-4.41329e-05
-4.37069e-05
-4.27148e-05
-4.10292e-05
-3.85017e-05
-3.52168e-05
-3.11239e-05
-2.64417e-05
-2.10604e-05
-1.67871e-05
-1.35306e-05
-1.14558e-05
-1.04487e-05
-1.03903e-05
-1.09563e-05
-1.212e-05
-9.13347e-06
-8.39883e-06
-7.95242e-06
-7.75848e-06
-7.98806e-06
-8.73351e-06
-1.01332e-05
-1.23258e-05
-1.54814e-05
-1.93638e-05
-2.59579e-05
-3.08112e-05
-3.42211e-05
-3.72612e-05
-3.96886e-05
-4.14072e-05
-4.24781e-05
-4.30088e-05
-4.30698e-05
-4.26623e-05
-4.17132e-05
-4.01181e-05
-3.78018e-05
-3.48593e-05
-3.15037e-05
-2.65486e-05
-1.9981e-05
-1.61396e-05
-1.31112e-05
-1.11873e-05
-1.02653e-05
-1.02301e-05
-1.07695e-05
-1.18574e-05
-8.95777e-06
-8.28454e-06
-7.86312e-06
-7.66411e-06
-7.84393e-06
-8.48032e-06
-9.70486e-06
-1.17132e-05
-1.50486e-05
-1.96177e-05
-2.76525e-05
-2.91326e-05
-3.3088e-05
-3.6093e-05
-3.8271e-05
-3.98842e-05
-4.09021e-05
-4.14186e-05
-4.14976e-05
-4.11425e-05
-4.02868e-05
-3.88448e-05
-3.68089e-05
-3.39196e-05
-2.99723e-05
-2.82143e-05
-2.04813e-05
-1.58968e-05
-1.26372e-05
-1.08474e-05
-1.00455e-05
-1.00521e-05
-1.05685e-05
-1.15921e-05
-8.78939e-06
-8.16371e-06
-7.76503e-06
-7.54909e-06
-7.64545e-06
-8.07349e-06
-8.78941e-06
-9.54437e-06
-1.01587e-05
-6.65578e-06
-3.71126e-05
-3.30195e-05
-3.43381e-05
-3.57066e-05
-3.69408e-05
-3.77896e-05
-3.82591e-05
-3.83598e-05
-3.80969e-05
-3.74561e-05
-3.64767e-05
-3.53074e-05
-3.41879e-05
-3.82449e-05
-7.48795e-06
-1.11385e-05
-1.06029e-05
-1.00437e-05
-9.69082e-06
-9.82732e-06
-1.03441e-05
-1.13206e-05
-8.62597e-06
-8.07236e-06
-7.69105e-06
-7.47814e-06
-7.55452e-06
-7.96293e-06
-8.77846e-06
-1.01184e-05
-1.23696e-05
-1.608e-05
-1.74075e-05
-2.61297e-05
-2.89976e-05
-3.17005e-05
-3.35755e-05
-3.51415e-05
-3.61117e-05
-3.66564e-05
-3.67836e-05
-3.64967e-05
-3.57409e-05
-3.46229e-05
-3.30317e-05
-3.06347e-05
-2.77744e-05
-1.97168e-05
-1.79466e-05
-1.39608e-05
-1.1505e-05
-1.01858e-05
-9.62819e-06
-9.70127e-06
-1.01614e-05
-1.10763e-05
-8.48558e-06
-8.00066e-06
-7.63673e-06
-7.4303e-06
-7.48811e-06
-7.85165e-06
-8.58324e-06
-9.76225e-06
-1.14578e-05
-1.3746e-05
-1.81031e-05
-2.38106e-05
-2.65754e-05
-2.91346e-05
-3.10527e-05
-3.25734e-05
-3.35644e-05
-3.41284e-05
-3.4284e-05
-3.40515e-05
-3.34145e-05
-3.23367e-05
-3.07502e-05
-2.85699e-05
-2.58488e-05
-2.03267e-05
-1.55556e-05
-1.30989e-05
-1.12548e-05
-1.00696e-05
-9.53737e-06
-9.59079e-06
-1.00202e-05
-1.08434e-05
-8.39373e-06
-7.95295e-06
-7.62254e-06
-7.439e-06
-7.49866e-06
-7.84149e-06
-8.5309e-06
-9.66038e-06
-1.13731e-05
-1.37978e-05
-1.70586e-05
-2.10624e-05
-2.40469e-05
-2.66855e-05
-2.868e-05
-3.02464e-05
-3.12641e-05
-3.18409e-05
-3.20077e-05
-3.17932e-05
-3.1175e-05
-3.00968e-05
-2.84821e-05
-2.6278e-05
-2.33799e-05
-1.9461e-05
-1.59403e-05
-1.32133e-05
-1.12656e-05
-1.00708e-05
-9.52716e-06
-9.54521e-06
-9.92596e-06
-1.06815e-05
-8.3454e-06
-7.94759e-06
-7.66163e-06
-7.51425e-06
-7.58699e-06
-7.91229e-06
-8.54278e-06
-9.55853e-06
-1.10628e-05
-1.31549e-05
-1.58236e-05
-1.89163e-05
-2.16628e-05
-2.41651e-05
-2.60945e-05
-2.75934e-05
-2.85648e-05
-2.91156e-05
-2.92804e-05
-2.90911e-05
-2.85208e-05
-2.75174e-05
-2.59936e-05
-2.39419e-05
-2.12954e-05
-1.82171e-05
-1.53011e-05
-1.2921e-05
-1.11869e-05
-1.00924e-05
-9.57719e-06
-9.56818e-06
-9.89559e-06
-1.05849e-05
-8.34101e-06
-7.99905e-06
-7.77472e-06
-7.68493e-06
-7.79261e-06
-8.12037e-06
-8.70548e-06
-9.6049e-06
-1.08861e-05
-1.26054e-05
-1.47386e-05
-1.71721e-05
-1.95136e-05
-2.17159e-05
-2.34564e-05
-2.47993e-05
-2.56788e-05
-2.61859e-05
-2.63402e-05
-2.61806e-05
-2.56685e-05
-2.47769e-05
-2.34292e-05
-2.16398e-05
-1.93958e-05
-1.69538e-05
-1.46203e-05
-1.26671e-05
-1.11997e-05
-1.02391e-05
-9.75558e-06
-9.70534e-06
-9.95822e-06
-1.05569e-05
-8.38669e-06
-8.10562e-06
-7.97e-06
-7.96343e-06
-8.13206e-06
-8.49242e-06
-9.06899e-06
-9.90053e-06
-1.10217e-05
-1.24603e-05
-1.41902e-05
-1.61351e-05
-1.8075e-05
-1.99183e-05
-2.14094e-05
-2.25654e-05
-2.33395e-05
-2.37872e-05
-2.39305e-05
-2.37896e-05
-2.33466e-05
-2.25759e-05
-2.14307e-05
-1.99349e-05
-1.8103e-05
-1.61623e-05
-1.43023e-05
-1.2705e-05
-1.14589e-05
-1.05958e-05
-1.01081e-05
-9.98454e-06
-1.01323e-05
-1.05858e-05
-8.44397e-06
-8.26328e-06
-8.22303e-06
-8.30728e-06
-8.55343e-06
-8.97561e-06
-9.59274e-06
-1.04232e-05
-1.14866e-05
-1.278e-05
-1.4312e-05
-1.59953e-05
-1.76817e-05
-1.92789e-05
-2.06054e-05
-2.16455e-05
-2.23624e-05
-2.2783e-05
-2.292e-05
-2.27848e-05
-2.23682e-05
-2.16566e-05
-2.06292e-05
-1.93153e-05
-1.77494e-05
-1.6101e-05
-1.45039e-05
-1.3112e-05
-1.1979e-05
-1.11407e-05
-1.06098e-05
-1.03698e-05
-1.0381e-05
-1.0661e-05
-8.51158e-06
-8.44729e-06
-8.49633e-06
-8.66606e-06
-8.99194e-06
-9.49723e-06
-1.02064e-05
-1.11417e-05
-1.23201e-05
-1.3743e-05
-1.53364e-05
-1.70458e-05
-1.87542e-05
-2.03673e-05
-2.17376e-05
-2.28278e-05
-2.35975e-05
-2.40526e-05
-2.41977e-05
-2.40386e-05
-2.35713e-05
-2.27919e-05
-2.16995e-05
-2.03329e-05
-1.87457e-05
-1.70836e-05
-1.54678e-05
-1.39966e-05
-1.27741e-05
-1.18373e-05
-1.11927e-05
-1.08241e-05
-1.06862e-05
-1.07671e-05
-6.5197e-06
-6.525e-06
-6.54128e-06
-6.56974e-06
-6.62015e-06
-6.69646e-06
-6.8016e-06
-6.9372e-06
-7.10253e-06
-7.29714e-06
-7.50467e-06
-7.71898e-06
-7.92603e-06
-8.11803e-06
-8.28385e-06
-8.41852e-06
-8.51749e-06
-8.57912e-06
-8.60248e-06
-8.58776e-06
-8.53624e-06
-8.44988e-06
-8.33361e-06
-8.19263e-06
-8.0384e-06
-7.87862e-06
-7.72718e-06
-7.58905e-06
-7.4811e-06
-7.40179e-06
-7.34915e-06
-7.31608e-06
-7.29355e-06
-7.2781e-06
-6.47519e-06
-6.44355e-06
-6.43005e-06
-6.42965e-06
-6.45194e-06
-6.50025e-06
-6.57595e-06
-6.67861e-06
-6.80368e-06
-6.94573e-06
-7.09931e-06
-7.25858e-06
-7.4085e-06
-7.54867e-06
-7.66849e-06
-7.7672e-06
-7.84078e-06
-7.88915e-06
-7.9116e-06
-7.90829e-06
-7.88024e-06
-7.8278e-06
-7.75533e-06
-7.66374e-06
-7.56397e-06
-7.45643e-06
-7.35676e-06
-7.27133e-06
-7.2052e-06
-7.16338e-06
-7.14834e-06
-7.1591e-06
-7.18014e-06
-7.21323e-06
-6.47182e-06
-6.42841e-06
-6.40029e-06
-6.37557e-06
-6.37863e-06
-6.41491e-06
-6.48662e-06
-6.59461e-06
-6.73371e-06
-6.90436e-06
-7.08844e-06
-7.28915e-06
-7.46767e-06
-7.63285e-06
-7.76594e-06
-7.87355e-06
-7.95085e-06
-8.00071e-06
-8.02258e-06
-8.01657e-06
-7.98359e-06
-7.92097e-06
-7.83397e-06
-7.71612e-06
-7.58699e-06
-7.43778e-06
-7.30917e-06
-7.19842e-06
-7.1254e-06
-7.09029e-06
-7.0962e-06
-7.13596e-06
-7.1746e-06
-7.21934e-06
-6.50713e-06
-6.44584e-06
-6.39819e-06
-6.3511e-06
-6.34042e-06
-6.37538e-06
-6.46121e-06
-6.60335e-06
-6.79798e-06
-7.05548e-06
-7.34006e-06
-7.66857e-06
-7.94473e-06
-8.19555e-06
-8.38492e-06
-8.53336e-06
-8.63414e-06
-8.69543e-06
-8.71677e-06
-8.69824e-06
-8.64065e-06
-8.53595e-06
-8.39152e-06
-8.18692e-06
-7.9599e-06
-7.68335e-06
-7.4575e-06
-7.26549e-06
-7.14729e-06
-7.09386e-06
-7.10618e-06
-7.16825e-06
-7.22708e-06
-7.29095e-06
-6.59534e-06
-6.51303e-06
-6.44801e-06
-6.38807e-06
-6.37658e-06
-6.42794e-06
-6.55265e-06
-6.76482e-06
-7.06453e-06
-7.4828e-06
-7.95644e-06
-8.53654e-06
-8.99569e-06
-9.40542e-06
-9.69877e-06
-9.9237e-06
-1.00694e-05
-1.01533e-05
-1.01745e-05
-1.01329e-05
-1.00299e-05
-9.84793e-06
-9.59881e-06
-9.23445e-06
-8.82477e-06
-8.29743e-06
-7.88758e-06
-7.54165e-06
-7.33023e-06
-7.22386e-06
-7.21903e-06
-7.28775e-06
-7.36096e-06
-7.44867e-06
-6.7378e-06
-6.62834e-06
-6.5526e-06
-6.4878e-06
-6.48861e-06
-6.57454e-06
-6.76226e-06
-7.07774e-06
-7.52767e-06
-8.18237e-06
-8.94534e-06
-9.95847e-06
-1.06962e-05
-1.13471e-05
-1.1793e-05
-1.21319e-05
-1.23447e-05
-1.24632e-05
-1.24846e-05
-1.2409e-05
-1.22391e-05
-1.19429e-05
-1.15408e-05
-1.09341e-05
-1.02462e-05
-9.28587e-06
-8.59426e-06
-8.01906e-06
-7.67007e-06
-7.47836e-06
-7.43412e-06
-7.49521e-06
-7.57774e-06
-7.69636e-06
-6.93392e-06
-6.7914e-06
-6.70649e-06
-6.64491e-06
-6.67007e-06
-6.80572e-06
-7.07399e-06
-7.51344e-06
-8.1382e-06
-9.09848e-06
-1.02465e-05
-1.19879e-05
-1.30793e-05
-1.40272e-05
-1.46452e-05
-1.51153e-05
-1.5403e-05
-1.55616e-05
-1.55839e-05
-1.54696e-05
-1.52258e-05
-1.47987e-05
-1.4224e-05
-1.33184e-05
-1.22771e-05
-1.05862e-05
-9.52291e-06
-8.64869e-06
-8.13752e-06
-7.84011e-06
-7.74112e-06
-7.78463e-06
-7.87397e-06
-8.03358e-06
-7.17971e-06
-6.9961e-06
-6.90386e-06
-6.8546e-06
-6.91926e-06
-7.12303e-06
-7.4896e-06
-8.05827e-06
-8.84611e-06
-1.00554e-05
-1.16576e-05
-1.46466e-05
-1.60758e-05
-1.73598e-05
-1.81747e-05
-1.88076e-05
-1.91913e-05
-1.9402e-05
-1.94257e-05
-1.92619e-05
-1.89242e-05
-1.8335e-05
-1.7563e-05
-1.63173e-05
-1.49364e-05
-1.19874e-05
-1.04977e-05
-9.37635e-06
-8.71425e-06
-8.30595e-06
-8.1372e-06
-8.15156e-06
-8.2432e-06
-8.457e-06
-7.46788e-06
-7.23159e-06
-7.13138e-06
-7.09993e-06
-7.2138e-06
-7.49414e-06
-7.95619e-06
-8.62047e-06
-9.42015e-06
-1.07408e-05
-1.2598e-05
-1.83306e-05
-1.9549e-05
-2.09326e-05
-2.18383e-05
-2.2554e-05
-2.29866e-05
-2.32296e-05
-2.32549e-05
-2.30618e-05
-2.26776e-05
-2.20066e-05
-2.11429e-05
-1.97891e-05
-1.8618e-05
-1.28975e-05
-1.12364e-05
-9.97981e-06
-9.31179e-06
-8.82267e-06
-8.58713e-06
-8.56939e-06
-8.66666e-06
-8.95734e-06
-7.79129e-06
-7.49033e-06
-7.38796e-06
-7.39268e-06
-7.59146e-06
-8.00406e-06
-8.64611e-06
-9.42979e-06
-1.03041e-05
-1.24599e-05
-8.77829e-06
-2.11643e-05
-2.23152e-05
-2.4144e-05
-2.52698e-05
-2.62056e-05
-2.67599e-05
-2.70619e-05
-2.70887e-05
-2.68394e-05
-2.63368e-05
-2.54483e-05
-2.43656e-05
-2.25611e-05
-2.14873e-05
-8.90953e-06
-1.29255e-05
-1.08417e-05
-1.01327e-05
-9.54157e-06
-9.15769e-06
-9.05863e-06
-9.14008e-06
-9.52856e-06
-8.13417e-06
-7.75283e-06
-7.64673e-06
-7.68841e-06
-7.97496e-06
-8.52482e-06
-9.32937e-06
-1.01853e-05
-1.05424e-05
-6.06525e-06
-3.06449e-05
-2.59315e-05
-2.66473e-05
-2.76181e-05
-2.84284e-05
-2.89695e-05
-2.92611e-05
-2.92885e-05
-2.90511e-05
-2.85629e-05
-2.78014e-05
-2.6873e-05
-2.61692e-05
-3.07534e-05
-6.95492e-06
-1.1227e-05
-1.09318e-05
-1.0253e-05
-9.72821e-06
-9.54312e-06
-9.61483e-06
-1.01394e-05
-8.46636e-06
-8.02097e-06
-7.92172e-06
-8.0301e-06
-8.47859e-06
-9.34629e-06
-1.07714e-05
-1.28391e-05
-1.61645e-05
-1.95395e-05
-2.80989e-05
-2.44672e-05
-2.65219e-05
-2.84788e-05
-2.99992e-05
-3.10787e-05
-3.17842e-05
-3.21385e-05
-3.21668e-05
-3.18691e-05
-3.12209e-05
-3.01992e-05
-2.87396e-05
-2.6851e-05
-2.48661e-05
-2.87111e-05
-2.0016e-05
-1.67115e-05
-1.35088e-05
-1.16517e-05
-1.0551e-05
-1.0112e-05
-1.01116e-05
-1.07693e-05
-8.78386e-06
-8.27432e-06
-8.16985e-06
-8.31576e-06
-8.86021e-06
-9.89546e-06
-1.15681e-05
-1.39035e-05
-1.71313e-05
-2.02284e-05
-2.52956e-05
-2.64819e-05
-2.79613e-05
-2.94901e-05
-3.09291e-05
-3.20152e-05
-3.27598e-05
-3.3137e-05
-3.31656e-05
-3.28456e-05
-3.21586e-05
-3.11285e-05
-2.97453e-05
-2.82625e-05
-2.68178e-05
-2.57397e-05
-2.07129e-05
-1.76577e-05
-1.45486e-05
-1.24408e-05
-1.11273e-05
-1.05794e-05
-1.0567e-05
-1.13609e-05
-9.0807e-06
-8.51161e-06
-8.40272e-06
-8.58204e-06
-9.21124e-06
-1.03943e-05
-1.22802e-05
-1.48849e-05
-1.83126e-05
-2.18683e-05
-2.58622e-05
-2.78396e-05
-2.94711e-05
-3.10059e-05
-3.25158e-05
-3.36339e-05
-3.44057e-05
-3.47916e-05
-3.48205e-05
-3.44926e-05
-3.37793e-05
-3.27179e-05
-3.12646e-05
-2.97741e-05
-2.81882e-05
-2.62652e-05
-2.23096e-05
-1.88073e-05
-1.551e-05
-1.31534e-05
-1.16616e-05
-1.10204e-05
-1.09943e-05
-1.18824e-05
-9.33828e-06
-8.71854e-06
-8.5984e-06
-8.78969e-06
-9.45955e-06
-1.0713e-05
-1.2688e-05
-1.53968e-05
-1.88618e-05
-2.25459e-05
-2.63015e-05
-2.8659e-05
-3.04965e-05
-3.20505e-05
-3.35861e-05
-3.4706e-05
-3.54827e-05
-3.58673e-05
-3.58963e-05
-3.55698e-05
-3.48514e-05
-3.37871e-05
-3.23066e-05
-3.07917e-05
-2.89961e-05
-2.66798e-05
-2.29673e-05
-1.93441e-05
-1.60206e-05
-1.35801e-05
-1.20308e-05
-1.13662e-05
-1.13548e-05
-1.23149e-05
-9.55057e-06
-8.89237e-06
-8.7617e-06
-8.9579e-06
-9.65197e-06
-1.0949e-05
-1.29792e-05
-1.57558e-05
-1.92563e-05
-2.30163e-05
-2.67292e-05
-2.93043e-05
-3.12439e-05
-3.2842e-05
-3.44079e-05
-3.55285e-05
-3.63033e-05
-3.66833e-05
-3.67125e-05
-3.63908e-05
-3.56743e-05
-3.46087e-05
-3.30967e-05
-3.15332e-05
-2.96227e-05
-2.70931e-05
-2.34281e-05
-1.97341e-05
-1.63862e-05
-1.38961e-05
-1.23186e-05
-1.1648e-05
-1.16541e-05
-1.26749e-05
-9.71311e-06
-9.0275e-06
-8.88698e-06
-9.0819e-06
-9.78562e-06
-1.11028e-05
-1.31588e-05
-1.59703e-05
-1.94948e-05
-2.33131e-05
-2.70464e-05
-2.97253e-05
-3.17527e-05
-3.33824e-05
-3.49642e-05
-3.60832e-05
-3.68555e-05
-3.72321e-05
-3.72618e-05
-3.6944e-05
-3.62303e-05
-3.51659e-05
-3.36374e-05
-3.20431e-05
-3.00616e-05
-2.74081e-05
-2.37226e-05
-1.99745e-05
-1.66117e-05
-1.41013e-05
-1.25188e-05
-1.18556e-05
-1.18803e-05
-1.29438e-05
-9.82487e-06
-9.12306e-06
-8.97631e-06
-9.16982e-06
-9.87889e-06
-1.12086e-05
-1.32826e-05
-1.61207e-05
-1.96729e-05
-2.35393e-05
-2.73112e-05
-3.00575e-05
-3.21377e-05
-3.37936e-05
-3.53906e-05
-3.65145e-05
-3.72889e-05
-3.76659e-05
-3.76964e-05
-3.73798e-05
-3.6665e-05
-3.55959e-05
-3.40518e-05
-3.24305e-05
-3.03955e-05
-2.76736e-05
-2.39508e-05
-2.01577e-05
-1.67736e-05
-1.42462e-05
-1.2659e-05
-1.20003e-05
-1.20363e-05
-1.31243e-05
-9.8856e-06
-9.17824e-06
-9.02932e-06
-9.22257e-06
-9.9348e-06
-1.12722e-05
-1.33596e-05
-1.62188e-05
-1.98004e-05
-2.37061e-05
-2.75207e-05
-3.03098e-05
-3.24201e-05
-3.40974e-05
-3.57095e-05
-3.68451e-05
-3.76272e-05
-3.80089e-05
-3.80408e-05
-3.77224e-05
-3.70019e-05
-3.59225e-05
-3.43634e-05
-3.27201e-05
-3.06539e-05
-2.78889e-05
-2.41245e-05
-2.02935e-05
-1.68829e-05
-1.43384e-05
-1.27432e-05
-1.20835e-05
-1.21223e-05
-1.32191e-05
-9.89582e-06
-9.19355e-06
-9.04649e-06
-9.24053e-06
-9.95363e-06
-1.12935e-05
-1.33892e-05
-1.62632e-05
-1.98743e-05
-2.38115e-05
-2.76747e-05
-3.04866e-05
-3.26057e-05
-3.42991e-05
-3.59252e-05
-3.70783e-05
-3.78733e-05
-3.82638e-05
-3.8298e-05
-3.79752e-05
-3.72456e-05
-3.61518e-05
-3.45802e-05
-3.29216e-05
-3.08459e-05
-2.80568e-05
-2.42434e-05
-2.03799e-05
-1.69385e-05
-1.43779e-05
-1.27722e-05
-1.21062e-05
-1.214e-05
-1.32297e-05
-9.85726e-06
-9.17117e-06
-9.02956e-06
-9.22412e-06
-9.93324e-06
-1.12667e-05
-1.33602e-05
-1.62369e-05
-1.98777e-05
-2.38369e-05
-2.7773e-05
-3.05894e-05
-3.26857e-05
-3.43887e-05
-3.60257e-05
-3.72017e-05
-3.80137e-05
-3.8417e-05
-3.84548e-05
-3.81264e-05
-3.73862e-05
-3.62752e-05
-3.46963e-05
-3.30304e-05
-3.09757e-05
-2.81804e-05
-2.42935e-05
-2.0405e-05
-1.693e-05
-1.43594e-05
-1.27454e-05
-1.20713e-05
-1.2093e-05
-1.31585e-05
-9.77221e-06
-9.11311e-06
-8.97758e-06
-9.16641e-06
-9.85644e-06
-1.1158e-05
-1.32156e-05
-1.60546e-05
-1.97043e-05
-2.36716e-05
-2.7765e-05
-3.05784e-05
-3.25907e-05
-3.42794e-05
-3.59046e-05
-3.70971e-05
-3.79235e-05
-3.8341e-05
-3.83841e-05
-3.80522e-05
-3.73073e-05
-3.61896e-05
-3.46292e-05
-3.29811e-05
-3.09798e-05
-2.82088e-05
-2.41671e-05
-2.02672e-05
-1.67782e-05
-1.42335e-05
-1.26377e-05
-1.19702e-05
-1.19827e-05
-1.30154e-05
-9.64698e-06
-9.02687e-06
-8.89902e-06
-9.07674e-06
-9.73343e-06
-1.09779e-05
-1.29642e-05
-1.57207e-05
-1.93609e-05
-2.32556e-05
-2.77063e-05
-3.04237e-05
-3.2295e-05
-3.40043e-05
-3.56263e-05
-3.68389e-05
-3.76768e-05
-3.81087e-05
-3.81598e-05
-3.78301e-05
-3.70891e-05
-3.59686e-05
-3.44248e-05
-3.27741e-05
-3.09388e-05
-2.82155e-05
-2.38162e-05
-1.99849e-05
-1.64988e-05
-1.40199e-05
-1.24693e-05
-1.18224e-05
-1.18248e-05
-1.28049e-05
-9.48926e-06
-8.91597e-06
-8.78958e-06
-8.93641e-06
-9.5176e-06
-1.06276e-05
-1.24128e-05
-1.49e-05
-1.829e-05
-2.16622e-05
-2.74012e-05
-3.02544e-05
-3.17511e-05
-3.34224e-05
-3.49678e-05
-3.616e-05
-3.69854e-05
-3.74234e-05
-3.74854e-05
-3.71722e-05
-3.64646e-05
-3.53893e-05
-3.3941e-05
-3.23589e-05
-3.0921e-05
-2.79655e-05
-2.22955e-05
-1.90014e-05
-1.57687e-05
-1.35397e-05
-1.21563e-05
-1.15963e-05
-1.16153e-05
-1.25193e-05
-9.32498e-06
-8.7976e-06
-8.67678e-06
-8.79661e-06
-9.30531e-06
-1.02839e-05
-1.18729e-05
-1.41391e-05
-1.77198e-05
-2.17219e-05
-2.90558e-05
-2.82919e-05
-3.10208e-05
-3.3417e-05
-3.51455e-05
-3.64025e-05
-3.72427e-05
-3.76922e-05
-3.77711e-05
-3.74825e-05
-3.67947e-05
-3.56922e-05
-3.40831e-05
-3.18127e-05
-2.91184e-05
-2.95761e-05
-2.25735e-05
-1.86072e-05
-1.51576e-05
-1.31106e-05
-1.1873e-05
-1.13846e-05
-1.14032e-05
-1.21959e-05
-9.14217e-06
-8.66963e-06
-8.54478e-06
-8.61114e-06
-8.98346e-06
-9.67649e-06
-1.06592e-05
-1.16136e-05
-1.17261e-05
-5.2269e-06
-3.91212e-05
-3.22974e-05
-3.29327e-05
-3.40101e-05
-3.49714e-05
-3.56628e-05
-3.60748e-05
-3.61712e-05
-3.59592e-05
-3.54588e-05
-3.46899e-05
-3.37505e-05
-3.32966e-05
-4.00681e-05
-6.0785e-06
-1.28065e-05
-1.28214e-05
-1.20509e-05
-1.1358e-05
-1.10851e-05
-1.11621e-05
-1.18588e-05
-8.96202e-06
-8.55724e-06
-8.4467e-06
-8.50567e-06
-8.85248e-06
-9.5322e-06
-1.06144e-05
-1.20812e-05
-1.42287e-05
-1.76915e-05
-1.74347e-05
-2.7197e-05
-2.92683e-05
-3.15655e-05
-3.30815e-05
-3.43008e-05
-3.51503e-05
-3.56623e-05
-3.57893e-05
-3.55469e-05
-3.49963e-05
-3.39352e-05
-3.25411e-05
-3.04862e-05
-2.85383e-05
-1.97221e-05
-1.94972e-05
-1.58978e-05
-1.35949e-05
-1.21625e-05
-1.12754e-05
-1.0938e-05
-1.0966e-05
-1.15639e-05
-8.80556e-06
-8.45904e-06
-8.35927e-06
-8.40571e-06
-8.70873e-06
-9.31705e-06
-1.02949e-05
-1.16837e-05
-1.34994e-05
-1.57352e-05
-1.99419e-05
-2.57717e-05
-2.74769e-05
-2.9225e-05
-3.05421e-05
-3.17634e-05
-3.25928e-05
-3.31105e-05
-3.32517e-05
-3.30322e-05
-3.24682e-05
-3.15129e-05
-3.02318e-05
-2.86126e-05
-2.70743e-05
-2.18252e-05
-1.74347e-05
-1.51991e-05
-1.33017e-05
-1.1927e-05
-1.10916e-05
-1.07652e-05
-1.07797e-05
-1.1302e-05
-8.68865e-06
-8.39259e-06
-8.31629e-06
-8.37382e-06
-8.66971e-06
-9.25868e-06
-1.02136e-05
-1.15991e-05
-1.35017e-05
-1.59547e-05
-1.91177e-05
-2.27997e-05
-2.47778e-05
-2.6448e-05
-2.77646e-05
-2.90277e-05
-2.98793e-05
-3.04053e-05
-3.05523e-05
-3.03395e-05
-2.97615e-05
-2.8804e-05
-2.74974e-05
-2.58959e-05
-2.41463e-05
-2.09469e-05
-1.78125e-05
-1.53139e-05
-1.33072e-05
-1.1898e-05
-1.10393e-05
-1.06803e-05
-1.06552e-05
-1.11083e-05
-8.61323e-06
-8.36333e-06
-8.31531e-06
-8.39031e-06
-8.67976e-06
-9.23354e-06
-1.01157e-05
-1.13886e-05
-1.31062e-05
-1.5312e-05
-1.78511e-05
-2.05997e-05
-2.24491e-05
-2.40338e-05
-2.53503e-05
-2.65677e-05
-2.73926e-05
-2.79017e-05
-2.80505e-05
-2.78584e-05
-2.7316e-05
-2.64248e-05
-2.5171e-05
-2.36713e-05
-2.19884e-05
-1.96405e-05
-1.71674e-05
-1.49318e-05
-1.31199e-05
-1.18124e-05
-1.10003e-05
-1.06382e-05
-1.05846e-05
-1.09762e-05
-8.57906e-06
-8.37797e-06
-8.36806e-06
-8.47528e-06
-8.77424e-06
-9.30598e-06
-1.01207e-05
-1.12649e-05
-1.27672e-05
-1.4629e-05
-1.67079e-05
-1.88991e-05
-2.06357e-05
-2.22093e-05
-2.35351e-05
-2.46898e-05
-2.54922e-05
-2.59924e-05
-2.61476e-05
-2.59624e-05
-2.54471e-05
-2.46061e-05
-2.34226e-05
-2.201e-05
-2.04025e-05
-1.84916e-05
-1.64576e-05
-1.45656e-05
-1.29824e-05
-1.18069e-05
-1.10488e-05
-1.06792e-05
-1.05877e-05
-1.09075e-05
-8.58221e-06
-8.43105e-06
-8.46706e-06
-8.61752e-06
-8.93873e-06
-9.46286e-06
-1.02266e-05
-1.12615e-05
-1.25791e-05
-1.41686e-05
-1.59219e-05
-1.7758e-05
-1.93841e-05
-2.08893e-05
-2.21541e-05
-2.32372e-05
-2.39982e-05
-2.4465e-05
-2.46129e-05
-2.44539e-05
-2.3981e-05
-2.32055e-05
-2.21204e-05
-2.08242e-05
-1.93308e-05
-1.76751e-05
-1.59474e-05
-1.43287e-05
-1.29506e-05
-1.18967e-05
-1.11839e-05
-1.07974e-05
-1.06589e-05
-1.08901e-05
-8.59871e-06
-8.49722e-06
-8.56245e-06
-8.74724e-06
-9.0915e-06
-9.62043e-06
-1.0361e-05
-1.1333e-05
-1.25411e-05
-1.39675e-05
-1.55438e-05
-1.71941e-05
-1.87569e-05
-2.0214e-05
-2.14503e-05
-2.24766e-05
-2.32075e-05
-2.36522e-05
-2.3796e-05
-2.36467e-05
-2.31992e-05
-2.24641e-05