/*--------------------------------*- C++ -*----------------------------------*\
| =========                 |                                                 |
| \\      /  F ield         | OpenFOAM: The Open Source CFD Toolbox           |
|  \\    /   O peration     | Version:  2112                                  |
|   \\  /    A nd           | Website:  www.openfoam.com                      |
|    \\/     M anipulation  |                                                 |
\*---------------------------------------------------------------------------*/
FoamFile
{
    version     2.0;
    format      ascii;
    arch        "LSB;label=32;scalar=64";
    class       surfaceScalarField;
    location    "2.7";
    object      phi;
}
// * * * * * * * * * * * * * * * * * * * * * * * * * * * * * * * * * * * * * //

dimensions      [0 3 -1 0 0 0 0];

oriented        oriented;

internalField   nonuniform List<scalar> 
188215
(
8.3441e-10
1.86965e-09
-2.70406e-09
2.96573e-09
9.79171e-10
-3.11049e-09
5.5835e-09
8.49518e-11
-2.70272e-09
8.45446e-09
-8.38507e-10
-2.03244e-09
1.13564e-08
-1.34641e-09
-1.55552e-09
1.42072e-08
-1.53917e-09
-1.31166e-09
1.69575e-08
-1.50406e-09
-1.24621e-09
1.94994e-08
-1.23922e-09
-1.30266e-09
2.16294e-08
-6.84991e-10
-1.44501e-09
2.30346e-08
2.21507e-10
-1.62676e-09
2.36391e-08
1.14872e-09
-1.75323e-09
2.2999e-08
2.51531e-09
-1.87514e-09
2.12755e-08
3.67982e-09
-1.95638e-09
1.85498e-08
4.70491e-09
-1.97917e-09
1.50924e-08
5.42832e-09
-1.97097e-09
1.10807e-08
5.96188e-09
-1.95011e-09
6.72482e-09
6.28823e-09
-1.93239e-09
2.20404e-09
6.44569e-09
-1.9249e-09
-2.29979e-09
6.43435e-09
-1.93052e-09
-6.60539e-09
6.25435e-09
-1.94875e-09
-1.05347e-08
5.90589e-09
-1.97659e-09
-1.3879e-08
5.35106e-09
-2.00671e-09
-1.64653e-08
4.60962e-09
-2.02337e-09
-1.80266e-08
3.57089e-09
-2.00961e-09
-1.84905e-08
2.40503e-09
-1.94106e-09
-1.77003e-08
1.05303e-09
-1.84328e-09
-1.61131e-08
1.77738e-10
-1.76497e-09
-1.37821e-08
-6.56577e-10
-1.67442e-09
-1.10527e-08
-1.01056e-09
-1.71877e-09
-8.15716e-09
-8.90003e-10
-2.00558e-09
-5.36662e-09
-1.65053e-10
-2.62549e-09
-2.70288e-09
7.91746e-10
-3.45548e-09
-6.49609e-10
2.04146e-09
-4.09473e-09
3.0582e-09
-3.70781e-09
-1.0108e-09
6.7605e-09
-3.88005e-09
1.36818e-09
6.75278e-09
-8.15258e-09
4.81134e-09
6.13791e-09
-9.49612e-09
8.20953e-09
5.66378e-09
-9.90047e-09
1.14055e-08
5.73537e-09
-1.02778e-08
1.44241e-08
6.37604e-09
-1.09337e-08
1.72929e-08
7.58196e-09
-1.19549e-08
1.99676e-08
9.44416e-09
-1.33581e-08
2.23444e-08
1.20783e-08
-1.51401e-08
2.41009e-08
1.57818e-08
-1.73168e-08
2.4836e-08
2.03074e-08
-1.98937e-08
2.41209e-08
2.59034e-08
-2.26731e-08
2.22487e-08
3.08464e-08
-2.52944e-08
1.93369e-08
3.52124e-08
-2.75957e-08
1.56964e-08
3.85442e-08
-2.94753e-08
1.15055e-08
4.10683e-08
-3.09155e-08
6.97292e-09
4.27145e-08
-3.18937e-08
2.27739e-09
4.35504e-08
-3.24092e-08
-2.39965e-09
4.35669e-08
-3.24555e-08
-6.87702e-09
4.27644e-08
-3.20327e-08
-1.09776e-08
4.11535e-08
-3.11471e-08
-1.44944e-08
3.86681e-08
-2.98003e-08
-1.7254e-08
3.53856e-08
-2.80163e-08
-1.89493e-08
3.10831e-08
-2.58169e-08
-1.9472e-08
2.62387e-08
-2.3311e-08
-1.85249e-08
2.07775e-08
-2.06715e-08
-1.65402e-08
1.6471e-08
-1.8278e-08
-1.39041e-08
1.30614e-08
-1.63541e-08
-1.08856e-08
1.08828e-08
-1.49119e-08
-7.54343e-09
9.71004e-09
-1.39422e-08
-3.86296e-09
9.50161e-09
-1.33471e-08
-2.82308e-10
1.00392e-08
-1.28281e-08
2.03744e-09
1.07953e-08
-1.10736e-08
1.05794e-08
-5.48375e-09
-2.32807e-09
1.30087e-08
-3.92013e-09
2.02503e-10
1.40494e-08
-9.82721e-09
4.13609e-09
1.41334e-08
-1.19291e-08
8.08363e-09
1.44829e-08
-1.27667e-08
1.17788e-08
1.55552e-08
-1.3515e-08
1.52701e-08
1.74666e-08
-1.45819e-08
1.86626e-08
2.03189e-08
-1.61295e-08
2.19776e-08
2.43603e-08
-1.82311e-08
2.50937e-08
2.98854e-08
-2.09232e-08
2.75257e-08
3.75833e-08
-2.42335e-08
2.87512e-08
4.71498e-08
-2.8068e-08
2.78276e-08
5.90552e-08
-3.22281e-08
2.5437e-08
6.94127e-08
-3.61758e-08
2.18479e-08
7.84545e-08
-3.96529e-08
1.7554e-08
8.53391e-08
-4.25011e-08
1.2728e-08
9.05745e-08
-4.46801e-08
7.58315e-09
9.40146e-08
-4.61552e-08
2.28454e-09
9.57779e-08
-4.69289e-08
-2.99457e-09
9.58381e-08
-4.69921e-08
-8.08082e-09
9.41953e-08
-4.63446e-08
-1.28102e-08
9.08784e-08
-4.49956e-08
-1.6969e-08
8.57703e-08
-4.29434e-08
-2.03881e-08
7.90297e-08
-4.0225e-08
-2.25732e-08
7.01542e-08
-3.6886e-08
-2.32641e-08
6.00236e-08
-3.3094e-08
-2.1766e-08
4.84019e-08
-2.91224e-08
-1.90277e-08
3.92631e-08
-2.55304e-08
-1.55085e-08
3.20782e-08
-2.25361e-08
-1.16249e-08
2.72478e-08
-2.02485e-08
-7.43263e-09
2.41355e-08
-1.86177e-08
-2.96451e-09
2.24867e-08
-1.74532e-08
1.37422e-09
2.19359e-08
-1.62354e-08
3.86736e-09
2.17508e-08
-1.34487e-08
2.01407e-08
-5.69391e-09
-3.1145e-09
1.95816e-08
-3.45843e-09
-3.16701e-10
2.14041e-08
-1.01525e-08
4.22448e-09
2.21546e-08
-1.25624e-08
8.90067e-09
2.33665e-08
-1.35598e-08
1.33672e-08
2.55483e-08
-1.44597e-08
1.7712e-08
2.88603e-08
-1.57384e-08
2.21468e-08
3.34911e-08
-1.7607e-08
2.68063e-08
3.98838e-08
-2.01829e-08
3.15766e-08
4.86387e-08
-2.35236e-08
3.56645e-08
6.11774e-08
-2.76821e-08
3.80155e-08
7.73084e-08
-3.25096e-08
3.65374e-08
9.83793e-08
-3.78459e-08
3.28863e-08
1.15944e-07
-4.28799e-08
2.77316e-08
1.30912e-07
-4.7303e-08
2.19398e-08
1.42042e-07
-5.09114e-08
1.56439e-08
1.50515e-07
-5.36448e-08
9.05812e-09
1.56076e-07
-5.54757e-08
2.32603e-09
1.58939e-07
-5.64293e-08
-4.38575e-09
1.59049e-07
-5.6499e-08
-1.091e-08
1.56404e-07
-5.56842e-08
-1.71021e-08
1.51062e-07
-5.39909e-08
-2.27439e-08
1.42807e-07
-5.13945e-08
-2.77017e-08
1.31912e-07
-4.7924e-08
-3.11014e-08
1.172e-07
-4.36457e-08
-3.22811e-08
9.99785e-08
-3.87752e-08
-2.95616e-08
7.93212e-08
-3.36389e-08
-2.50642e-08
6.38401e-08
-2.90744e-08
-1.97338e-08
5.20068e-08
-2.52589e-08
-1.42786e-08
4.41473e-08
-2.23547e-08
-8.75111e-09
3.88853e-08
-2.02773e-08
-3.14768e-09
3.56752e-08
-1.8792e-08
2.0981e-09
3.39744e-08
-1.72842e-08
4.94504e-09
3.29544e-08
-1.40505e-08
3.03086e-08
-5.22293e-09
-3.4244e-09
2.59531e-08
-2.94706e-09
-8.79955e-11
2.83691e-08
-1.03014e-08
5.2992e-09
2.97233e-08
-1.29559e-08
1.09608e-08
3.17695e-08
-1.40645e-08
1.65102e-08
3.51028e-08
-1.5104e-08
2.21264e-08
3.98739e-08
-1.66298e-08
2.82091e-08
4.63102e-08
-1.89019e-08
3.51414e-08
5.50367e-08
-2.20852e-08
4.2909e-08
6.71081e-08
-2.62371e-08
5.02729e-08
8.52639e-08
-3.14504e-08
5.49783e-08
1.10081e-07
-3.7478e-08
5.22048e-08
1.45571e-07
-4.44181e-08
4.59902e-08
1.73038e-07
-5.08799e-08
3.79464e-08
1.9556e-07
-5.6604e-08
2.95447e-08
2.11721e-07
-6.12774e-08
2.07177e-08
2.24083e-07
-6.47408e-08
1.16413e-08
2.32175e-07
-6.70223e-08
2.42064e-09
2.3636e-07
-6.81998e-08
-6.77982e-09
2.36525e-07
-6.82755e-08
-1.57939e-08
2.32666e-07
-6.72482e-08
-2.45132e-08
2.24895e-07
-6.51139e-08
-3.2751e-08
2.12839e-07
-6.17946e-08
-4.0567e-08
1.9699e-07
-5.7262e-08
-4.64689e-08
1.74784e-07
-5.1683e-08
-4.88516e-08
1.47746e-07
-4.53849e-08
-4.36392e-08
1.12757e-07
-3.86482e-08
-3.57625e-08
8.88654e-08
-3.2902e-08
-2.72829e-08
7.15858e-08
-2.80587e-08
-1.93335e-08
6.05812e-08
-2.43833e-08
-1.1867e-08
5.3169e-08
-2.17502e-08
-4.69239e-09
4.84083e-08
-1.99077e-08
1.81463e-09
4.56102e-08
-1.81429e-08
5.40442e-09
4.38752e-08
-1.45105e-08
4.04124e-08
-4.69939e-09
-3.43456e-09
3.18809e-08
-2.49327e-09
7.20674e-10
3.47993e-08
-1.05854e-08
7.33597e-09
3.66803e-08
-1.35722e-08
1.4312e-08
3.96019e-08
-1.48084e-08
2.12763e-08
4.41799e-08
-1.60415e-08
2.85608e-08
5.05066e-08
-1.79172e-08
3.68684e-08
5.8747e-08
-2.07444e-08
4.71035e-08
6.95339e-08
-2.47322e-08
5.96608e-08
8.4419e-08
-2.98683e-08
7.30633e-08
1.08124e-07
-3.62621e-08
8.27103e-08
1.43698e-07
-4.32642e-08
7.71138e-08
2.03288e-07
-5.21204e-08
6.61631e-08
2.44315e-07
-6.03258e-08
5.34028e-08
2.76225e-07
-6.79045e-08
4.10573e-08
2.98242e-07
-7.41752e-08
2.84344e-08
3.15308e-07
-7.86019e-08
1.55873e-08
3.2647e-07
-8.14478e-08
2.57342e-09
3.32275e-07
-8.29009e-08
-1.04227e-08
3.32506e-07
-8.29852e-08
-2.3214e-08
3.27156e-07
-8.16991e-08
-3.5737e-08
3.16432e-07
-7.90147e-08
-4.79187e-08
2.99764e-07
-7.47434e-08
-6.0431e-08
2.78121e-07
-6.86189e-08
-7.10017e-08
2.46542e-07
-6.11867e-08
-7.60847e-08
2.05977e-07
-5.31477e-08
-6.57159e-08
1.4688e-07
-4.44916e-08
-5.17256e-08
1.1267e-07
-3.77951e-08
-3.83177e-08
8.99827e-08
-3.18047e-08
-2.6827e-08
7.62921e-08
-2.72016e-08
-1.67917e-08
6.69746e-08
-2.38409e-08
-7.55149e-09
6.06892e-08
-2.15211e-08
6.64552e-10
5.6805e-08
-1.94109e-08
5.48813e-09
5.43202e-08
-1.52686e-08
5.01749e-08
-4.27432e-09
-3.22728e-09
3.71826e-08
-2.07444e-09
2.13819e-09
4.05344e-08
-1.11006e-08
1.0352e-08
4.29785e-08
-1.45121e-08
1.90136e-08
4.68837e-08
-1.59433e-08
2.77262e-08
5.29132e-08
-1.7446e-08
3.69867e-08
6.10274e-08
-1.97813e-08
4.78952e-08
7.11381e-08
-2.32995e-08
6.23038e-08
8.3362e-08
-2.82367e-08
8.17512e-08
9.93679e-08
-3.43963e-08
1.05446e-07
1.26153e-07
-4.1725e-08
1.25946e-07
1.71798e-07
-4.85993e-08
1.1394e-07
2.74494e-07
-5.92002e-08
9.45017e-08
3.3269e-07
-6.89366e-08
7.46629e-08
3.75094e-07
-7.90305e-08
5.69545e-08
4.03612e-07
-8.76617e-08
3.91651e-08
4.26214e-07
-9.31161e-08
2.11024e-08
4.41082e-07
-9.65501e-08
2.79517e-09
4.48867e-07
-9.82846e-08
-1.55009e-08
4.49183e-07
-9.83806e-08
-3.35276e-08
4.42018e-07
-9.68355e-08
-5.1249e-08
4.27737e-07
-9.35828e-08
-6.88278e-08
4.05644e-07
-8.8301e-08
-8.84355e-08
3.77553e-07
-7.98241e-08
-1.07438e-07
3.35428e-07
-6.98838e-08
-1.18775e-07
2.77641e-07
-6.03277e-08
-9.7176e-08
1.75199e-07
-4.99183e-08
-7.29149e-08
1.31795e-07
-4.33859e-08
-5.25169e-08
1.06077e-07
-3.64924e-08
-3.6575e-08
9.12893e-08
-3.09392e-08
-2.3486e-08
8.06139e-08
-2.67283e-08
-1.16856e-08
7.27087e-08
-2.38199e-08
-1.13108e-09
6.75164e-08
-2.12659e-08
5.34429e-09
6.4228e-08
-1.63832e-08
5.94163e-08
-3.89707e-09
-2.80827e-09
4.16362e-08
-1.64528e-09
4.19326e-09
4.53682e-08
-1.18353e-08
1.45195e-08
4.84489e-08
-1.57966e-08
2.537e-08
5.35292e-08
-1.74961e-08
3.62428e-08
6.13898e-08
-1.93493e-08
4.76548e-08
7.18678e-08
-2.22524e-08
6.09149e-08
8.4465e-08
-2.65871e-08
7.90232e-08
9.78722e-08
-3.26185e-08
1.05739e-07
1.12373e-07
-3.97206e-08
1.46228e-07
1.3363e-07
-4.79655e-08
1.91049e-07
1.7691e-07
-4.99335e-08
1.65393e-07
3.59946e-07
-5.9796e-08
1.32782e-07
4.36201e-07
-7.08997e-08
1.03661e-07
4.8926e-07
-8.50461e-08
7.92097e-08
5.25375e-07
-9.73116e-08
5.44413e-08
5.54663e-07
-1.03681e-07
2.90001e-08
5.74146e-07
-1.07622e-07
3.11048e-09
5.8435e-07
-1.09594e-07
-2.27798e-08
5.84776e-07
-1.09702e-07
-4.82231e-08
5.75406e-07
-1.07944e-07
-7.29947e-08
5.56715e-07
-1.04207e-07
-9.74196e-08
5.28101e-07
-9.80321e-08
-1.2643e-07
4.92497e-07
-8.59339e-08
-1.58652e-07
4.39609e-07
-7.19587e-08
-1.8343e-07
3.63517e-07
-6.10978e-08
-1.3679e-07
1.79928e-07
-5.13689e-08
-9.60357e-08
1.40789e-07
-4.97483e-08
-6.82833e-08
1.20308e-07
-4.19829e-08
-4.82803e-08
1.06883e-07
-3.55963e-08
-3.22305e-08
9.49877e-08
-3.04236e-08
-1.74662e-08
8.47748e-08
-2.68304e-08
-3.92404e-09
7.7688e-08
-2.37137e-08
4.90361e-09
7.3268e-08
-1.78676e-08
6.77901e-08
-3.47027e-09
-2.1703e-09
4.49934e-08
-1.18693e-09
6.93131e-09
4.90404e-08
-1.27737e-08
1.99668e-08
5.28386e-08
-1.74253e-08
3.36422e-08
5.93183e-08
-1.94644e-08
4.72342e-08
6.95332e-08
-2.17354e-08
6.09686e-08
8.34039e-08
-2.52704e-08
7.5761e-08
1.00162e-07
-3.04899e-08
9.51604e-08
1.16142e-07
-3.76693e-08
1.25847e-07
1.28029e-07
-4.63423e-08
1.89846e-07
1.2392e-07
-5.42887e-08
2.84921e-07
1.3885e-07
-5.70143e-08
2.30163e-07
4.67804e-07
-5.30999e-08
1.78339e-07
5.50027e-07
-6.2003e-08
1.39354e-07
6.09789e-07
-8.15433e-08
1.07377e-07
6.55717e-07
-9.83648e-08
7.40959e-08
6.92872e-07
-1.04928e-07
3.92513e-08
7.18492e-07
-1.09502e-07
3.55396e-09
7.31784e-07
-1.11737e-07
-3.21607e-08
7.32342e-07
-1.11851e-07
-6.70639e-08
7.2015e-07
-1.09841e-07
-1.00464e-07
6.95592e-07
-1.05477e-07
-1.32617e-07
6.59373e-07
-9.91201e-08
-1.718e-07
6.14142e-07
-8.24618e-08
-2.23525e-07
5.54453e-07
-6.31196e-08
-2.77061e-07
4.71589e-07
-5.45351e-08
-1.78934e-07
1.4071e-07
-5.8909e-08
-1.15773e-07
1.33934e-07
-5.63056e-08
-8.38145e-08
1.37138e-07
-4.8789e-08
-6.20183e-08
1.26074e-07
-4.0988e-08
-4.36062e-08
1.11415e-07
-3.48395e-08
-2.54091e-08
9.7114e-08
-3.05363e-08
-7.97975e-09
8.70463e-08
-2.67876e-08
4.08009e-09
8.09466e-08
-1.97385e-08
7.48219e-08
-2.9517e-09
-1.11906e-09
4.6812e-08
-6.99534e-10
1.06739e-08
5.11538e-08
-1.39064e-08
2.73587e-08
5.55588e-08
-1.9405e-08
4.51624e-08
6.33859e-08
-2.18714e-08
6.31795e-08
7.61765e-08
-2.46604e-08
8.09322e-08
9.45919e-08
-2.89406e-08
9.76402e-08
1.18582e-07
-3.51272e-08
1.13087e-07
1.44947e-07
-4.4252e-08
1.26754e-07
1.68628e-07
-5.42663e-08
1.77631e-07
1.43767e-07
-7.07249e-08
4.02031e-07
-8.55498e-08
3.13293e-07
5.81876e-07
-2.5334e-08
2.42165e-07
6.4595e-07
-2.47952e-08
1.94282e-07
7.01551e-07
-4.38786e-08
1.52664e-07
7.59588e-07
-6.22529e-08
1.05638e-07
8.04826e-07
-6.49279e-08
5.5437e-08
8.36667e-07
-6.79741e-08
4.18227e-09
8.52669e-07
-6.963e-08
-4.70999e-08
8.5334e-07
-6.97161e-08
-9.7402e-08
8.38685e-07
-6.82322e-08
-1.44668e-07
8.08189e-07
-6.53309e-08
-1.86724e-07
7.64274e-07
-6.28444e-08
-2.35397e-07
7.07413e-07
-4.45974e-08
-3.07782e-07
6.52531e-07
-2.56928e-08
-3.96236e-07
5.86859e-07
-2.6816e-08
-1.67077e-07
-8.84501e-08
-1.15314e-07
1.54362e-07
-7.21912e-08
-1.01381e-07
1.79727e-07
-5.65218e-08
-8.30651e-08
1.5563e-07
-4.78722e-08
-6.17014e-08
1.30159e-07
-4.01081e-08
-3.80767e-08
1.08596e-07
-3.51071e-08
-1.46725e-08
9.42888e-08
-3.06467e-08
2.15943e-09
8.62025e-08
-2.20879e-08
7.92908e-08
-2.30947e-09
1.83645e-10
4.68639e-08
-2.35559e-10
1.50737e-08
5.14829e-08
-1.52192e-08
3.61444e-08
5.61998e-08
-2.17117e-08
5.92714e-08
6.49608e-08
-2.47019e-08
8.37131e-08
7.98518e-08
-2.81171e-08
1.08445e-07
1.02906e-07
-3.30464e-08
1.29091e-07
1.37576e-07
-3.96401e-08
1.32608e-07
1.88144e-07
-4.67146e-08
1.03979e-07
2.61065e-07
-6.38078e-08
3.53138e-07
-1.05391e-07
1.85718e-07
3.19352e-07
7.68056e-08
2.51005e-07
5.41593e-07
3.907e-08
2.47689e-07
6.73356e-07
3.1511e-08
2.03134e-07
7.70995e-07
3.31489e-08
1.41382e-07
8.36655e-07
2.99222e-08
7.41311e-08
8.78107e-07
2.58116e-08
5.00614e-09
8.97958e-07
2.38356e-08
-6.41521e-08
8.98658e-07
2.38405e-08
-1.31525e-07
8.80236e-07
2.58214e-08
-1.93584e-07
8.40303e-07
2.99452e-08
-2.38866e-07
7.76358e-07
3.31977e-08
-2.43886e-07
6.80777e-07
3.16558e-08
-1.81631e-07
5.5135e-07
3.89251e-08
3.29771e-07
7.54574e-08
-1.0083e-07
3.58049e-07
-1.02858e-07
-1.24532e-07
2.69058e-07
-6.56279e-08
-1.15374e-07
1.97291e-07
-5.0819e-08
-8.80474e-08
1.48359e-07
-4.55254e-08
-5.54976e-08
1.16495e-07
-4.04486e-08
-2.36742e-08
9.7868e-08
-3.54026e-08
-5.77166e-10
8.81354e-08
-2.503e-08
8.03794e-08
-1.66577e-09
1.46656e-09
4.50102e-08
3.87188e-10
2.04116e-08
4.93259e-08
-1.6788e-08
4.72056e-08
5.36749e-08
-2.42691e-08
7.84175e-08
6.16589e-08
-2.791e-08
1.15589e-07
7.49701e-08
-3.22903e-08
1.62344e-07
9.484e-08
-3.86886e-08
2.2449e-07
1.22576e-07
-4.7146e-08
3.09256e-07
1.58141e-07
-5.47621e-08
4.30035e-07
1.98935e-07
-5.86494e-08
5.85146e-07
2.41249e-07
-4.32223e-08
4.56844e-07
8.37734e-08
4.45289e-08
4.71307e-07
2.30991e-07
7.38981e-08
4.54304e-07
4.0981e-07
1.48785e-07
3.8838e-07
5.2846e-07
2.1082e-07
2.96305e-07
6.17563e-07
2.45507e-07
1.9762e-07
6.77029e-07
2.58311e-07
1.00789e-07
7.14269e-07
2.6067e-07
5.84789e-09
7.32164e-07
2.60735e-07
-8.90713e-08
7.32774e-07
2.60803e-07
-1.85833e-07
7.16118e-07
2.6088e-07
-2.84403e-07
6.80177e-07
2.58696e-07
-3.76341e-07
6.22098e-07
2.46198e-07
-4.42158e-07
5.34461e-07
2.12133e-07
-4.58664e-07
4.16973e-07
1.50883e-07
-4.45716e-07
2.39321e-07
7.75022e-08
-5.79747e-07
8.59023e-08
4.81291e-08
-4.24498e-07
2.45279e-07
-4.24787e-08
-3.00261e-07
2.05576e-07
-6.07554e-08
-2.10095e-07
1.66395e-07
-5.92696e-08
-1.40415e-07
1.32729e-07
-5.40503e-08
-8.42201e-08
1.07879e-07
-4.75789e-08
-3.74446e-08
9.23554e-08
-4.12629e-08
-4.49819e-09
8.39903e-08
-2.88013e-08
7.67921e-08
-9.10887e-10
2.51688e-09
4.13702e-08
1.12306e-09
2.48762e-08
4.52337e-08
-1.82671e-08
5.63508e-08
4.88959e-08
-2.66956e-08
9.35124e-08
5.54504e-08
-3.09531e-08
1.38653e-07
6.60437e-08
-3.62142e-08
1.96378e-07
8.10785e-08
-4.3963e-08
2.72743e-07
1.00314e-07
-5.41026e-08
3.72388e-07
1.22246e-07
-6.37502e-08
4.97614e-07
1.41911e-07
-6.82029e-08
6.39217e-07
1.5617e-07
-5.65244e-08
6.42141e-07
1.05145e-07
-2.42952e-08
6.41758e-07
1.91428e-07
3.99463e-08
5.86848e-07
3.00175e-07
1.64545e-07
4.84498e-07
3.82909e-07
2.479e-07
3.6319e-07
4.47077e-07
2.91795e-07
2.39793e-07
4.89833e-07
3.10592e-07
1.21255e-07
5.16952e-07
3.15855e-07
6.49937e-09
5.30026e-07
3.16893e-07
-1.08216e-07
5.30526e-07
3.16963e-07
-2.26628e-07
5.18457e-07
3.16073e-07
-3.4982e-07
4.92359e-07
3.1101e-07
-4.70909e-07
4.50623e-07
2.92564e-07
-5.73289e-07
3.8744e-07
2.49402e-07
-6.28775e-07
3.05422e-07
1.67038e-07
-6.30652e-07
1.97033e-07
4.41646e-08
-6.31625e-07
1.0838e-07
-2.15046e-08
-4.91049e-07
1.60818e-07
-5.61153e-08
-3.62938e-07
1.47994e-07
-7.0529e-08
-2.57586e-07
1.29809e-07
-6.87661e-08
-1.72696e-07
1.09754e-07
-6.1915e-08
-1.03958e-07
9.32845e-08
-5.41434e-08
-4.72395e-08
8.22379e-08
-4.6601e-08
-7.12001e-09
7.6013e-08
-3.21422e-08
6.98721e-08
-1.99975e-10
3.3859e-09
3.62304e-08
1.75399e-09
2.86357e-08
3.95199e-08
-1.9536e-08
6.39866e-08
4.23423e-08
-2.87974e-08
1.05774e-07
4.72431e-08
-3.35806e-08
1.56483e-07
5.49451e-08
-3.96103e-08
2.20806e-07
6.54235e-08
-4.86678e-08
3.03995e-07
7.79813e-08
-6.08561e-08
4.08798e-07
9.14309e-08
-7.39876e-08
5.31819e-07
1.0215e-07
-8.32604e-08
6.56697e-07
1.11144e-07
-7.98507e-08
7.13654e-07
1.02358e-07
-5.41707e-08
7.33345e-07
1.517e-07
2.00364e-08
6.68094e-07
2.15632e-07
1.49794e-07
5.48958e-07
2.68558e-07
2.33486e-07
4.08195e-07
3.10684e-07
2.77157e-07
2.68048e-07
3.3898e-07
2.91e-07
1.35042e-07
3.57291e-07
2.92666e-07
7.0143e-09
3.66214e-07
2.91841e-07
-1.20967e-07
3.66632e-07
2.91875e-07
-2.53826e-07
3.5854e-07
2.92777e-07
-3.93752e-07
3.41044e-07
2.9124e-07
-5.34326e-07
3.13517e-07
2.77681e-07
-6.53683e-07
2.72096e-07
2.347e-07
-7.19934e-07
2.19662e-07
1.52011e-07
-7.02965e-07
1.56036e-07
2.40278e-08
-6.48899e-07
1.06009e-07
-5.16951e-08
-5.2438e-07
1.15676e-07
-7.93769e-08
-3.98468e-07
1.07711e-07
-8.56305e-08
-2.87631e-07
9.82753e-08
-7.93019e-08
-1.95102e-07
8.65325e-08
-6.93084e-08
-1.18453e-07
7.64341e-08
-5.97977e-08
-5.45557e-08
6.9366e-08
-5.10258e-08
-8.93052e-09
6.52259e-08
-3.48382e-08
6.02695e-08
6.72054e-10
3.91212e-09
3.00567e-08
2.26153e-09
3.12746e-08
3.27137e-08
-2.05562e-08
6.93556e-08
3.47599e-08
-3.04985e-08
1.14085e-07
3.82057e-08
-3.56922e-08
1.67823e-07
4.35128e-08
-4.23056e-08
2.35079e-07
5.05258e-08
-5.2358e-08
3.20544e-07
5.86083e-08
-6.60921e-08
4.26447e-07
6.71195e-08
-8.15917e-08
5.48078e-07
7.4193e-08
-9.36746e-08
6.70351e-07
8.22277e-08
-9.33563e-08
7.53758e-07
8.70048e-08
-6.80533e-08
7.85388e-07
1.17331e-07
2.73818e-09
7.15057e-07
1.5624e-07
1.29724e-07
5.87053e-07
1.89643e-07
2.06919e-07
4.358e-07
2.16725e-07
2.45211e-07
2.85965e-07
2.35393e-07
2.53423e-07
1.43988e-07
2.47686e-07
2.51583e-07
7.42827e-09
2.53782e-07
2.48991e-07
-1.29092e-07
2.54161e-07
2.4899e-07
-2.70948e-07
2.4881e-07
2.51587e-07
-4.20609e-07
2.37225e-07
2.53479e-07
-5.71758e-07
2.19196e-07
2.4547e-07
-7.00134e-07
1.92665e-07
2.07807e-07
-7.71732e-07
1.59655e-07
1.31605e-07
-7.43218e-07
1.21061e-07
6.46071e-09
-6.62104e-07
9.06428e-08
-6.57483e-08
-5.39894e-07
8.64695e-08
-9.30029e-08
-4.15188e-07
7.91843e-08
-9.61793e-08
-3.0288e-07
7.31438e-08
-8.71762e-08
-2.07377e-07
6.60497e-08
-7.50198e-08
-1.26761e-07
5.99795e-08
-6.41618e-08
-5.86518e-08
5.56702e-08
-5.44135e-08
-9.594e-09
5.30504e-08
-3.68823e-08
4.91795e-08
1.49598e-09
4.23086e-09
2.31808e-08
2.64506e-09
3.31054e-08
2.51802e-08
-2.13411e-08
7.31089e-08
2.6559e-08
-3.18025e-08
1.19789e-07
2.88206e-08
-3.72946e-08
1.75342e-07
3.22807e-08
-4.43214e-08
2.44122e-07
3.68201e-08
-5.5074e-08
3.30566e-07
4.2052e-08
-6.98882e-08
4.36884e-07
4.77591e-08
-8.69575e-08
5.58707e-07
5.31926e-08
-1.00822e-07
6.82933e-07
6.03152e-08
-1.02313e-07
7.79002e-07
6.79973e-08
-7.70618e-08
8.17022e-07
8.74694e-08
-8.15895e-09
7.44725e-07
1.11618e-07
1.1692e-07
6.11693e-07
1.32918e-07
1.89757e-07
4.53907e-07
1.5041e-07
2.24102e-07
2.97864e-07
1.62804e-07
2.28632e-07
1.50015e-07
1.7109e-07
2.24444e-07
7.80325e-09
1.75304e-07
2.2069e-07
-1.34383e-07
1.75676e-07
2.20671e-07
-2.82151e-07
1.72189e-07
2.24389e-07
-4.38087e-07
1.64574e-07
2.28587e-07
-5.95866e-07
1.52763e-07
2.24211e-07
-7.29398e-07
1.35743e-07
1.90454e-07
-8.03115e-07
1.14773e-07
1.186e-07
-7.68362e-07
9.08721e-08
-4.56412e-09
-6.74285e-07
7.14521e-08
-7.48864e-08
-5.49904e-07
6.41493e-08
-1.02061e-07
-4.24783e-07
5.75253e-08
-1.03462e-07
-3.11711e-07
5.28331e-08
-9.27616e-08
-2.1467e-07
4.81724e-08
-7.91634e-08
-1.31761e-07
4.44183e-08
-6.73481e-08
-6.10216e-08
4.18214e-08
-5.68901e-08
-9.80576e-09
4.0208e-08
-3.83735e-08
3.73413e-08
2.03246e-09
4.38365e-09
1.59066e-08
2.89058e-09
3.42445e-08
1.72373e-08
-2.1918e-08
7.54964e-08
1.80513e-08
-3.27443e-08
1.23393e-07
1.93582e-08
-3.84345e-08
1.80017e-07
2.13799e-08
-4.57229e-08
2.49657e-07
2.40864e-08
-5.69065e-08
3.36736e-07
2.73399e-08
-7.23666e-08
4.43661e-07
3.11538e-08
-9.03195e-08
5.66631e-07
3.53631e-08
-1.0514e-07
6.93332e-07
4.10865e-08
-1.07473e-07
7.95691e-07
4.805e-08
-8.24121e-08
8.37262e-07
6.0182e-08
-1.42836e-08
7.63762e-07
7.45109e-08
1.10607e-07
6.27626e-07
8.73873e-08
1.81667e-07
4.65833e-07
9.80397e-08
2.14163e-07
3.05853e-07
1.05832e-07
2.16951e-07
1.54157e-07
1.11129e-07
2.11657e-07
8.16788e-09
1.13932e-07
2.07361e-07
-1.37815e-07
1.14322e-07
2.07336e-07
-2.89486e-07
1.12277e-07
2.11583e-07
-4.49447e-07
1.07665e-07
2.1687e-07
-6.11347e-07
1.00445e-07
2.14218e-07
-7.48109e-07
9.02167e-08
1.82289e-07
-8.23138e-07
7.76013e-08
1.122e-07
-7.84898e-07
6.34008e-08
-1.07689e-08
-6.84384e-07
5.12758e-08
-8.03374e-08
-5.57372e-07
4.4471e-08
-1.07334e-07
-4.30913e-07
3.89924e-08
-1.07927e-07
-3.16957e-07
3.5201e-08
-9.63236e-08
-2.18876e-07
3.20091e-08
-8.19177e-08
-1.34579e-07
2.96498e-08
-6.9528e-08
-6.22507e-08
2.81118e-08
-5.86191e-08
-9.76354e-09
2.71593e-08
-3.94383e-08
2.5256e-08
2.32181e-09
4.44551e-09
8.45488e-09
3.00617e-09
3.4879e-08
9.11184e-09
-2.23081e-08
7.68719e-08
9.41528e-09
-3.33568e-08
1.25506e-07
9.88563e-09
-3.91612e-08
1.82811e-07
1.06683e-08
-4.65936e-08
2.53074e-07
1.18327e-08
-5.80092e-08
3.40762e-07
1.34613e-08
-7.381e-08
4.48434e-07
1.5692e-08
-9.22097e-08
5.72594e-07
1.87033e-08
-1.075e-07
7.01131e-07
2.2748e-08
-1.10199e-07
8.06544e-07
2.78296e-08
-8.51924e-08
8.49787e-07
3.4036e-08
-1.70965e-08
7.75562e-07
4.0453e-08
1.08283e-07
6.37574e-07
4.63336e-08
1.79042e-07
4.73401e-07
5.12007e-08
2.11012e-07
3.11011e-07
5.49951e-08
2.13227e-07
1.56919e-07
5.76693e-08
2.07551e-07
8.54874e-09
5.92366e-08
2.03066e-07
-1.39839e-07
5.96685e-08
2.03041e-07
-2.93976e-07
5.89373e-08
2.07477e-07
-4.5646e-07
5.70053e-08
2.13144e-07
-6.20884e-07
5.38105e-08
2.11059e-07
-7.59653e-07
4.93401e-08
1.79645e-07
-8.35539e-07
4.36472e-08
1.0984e-07
-7.95686e-07
3.72054e-08
-1.36575e-08
-6.92051e-07
3.08539e-08
-8.3213e-08
-5.63102e-07
2.57019e-08
-1.10179e-07
-4.35314e-07
2.16382e-08
-1.10434e-07
-3.20426e-07
1.87087e-08
-9.83959e-08
-2.21477e-07
1.6645e-08
-8.35856e-08
-1.36238e-07
1.53049e-08
-7.08933e-08
-6.29275e-08
1.45357e-08
-5.97348e-08
-9.69923e-09
1.40875e-08
-4.01564e-08
1.31304e-08
2.42631e-09
4.44098e-09
1.02104e-09
2.99285e-09
3.5077e-08
1.00066e-09
-2.25249e-08
7.73622e-08
7.91456e-10
-3.36613e-08
1.26331e-07
4.22159e-10
-3.95049e-08
1.84025e-07
-4.54677e-11
-4.69807e-08
2.54763e-07
-4.42858e-10
-5.84624e-08
3.43056e-07
-4.76892e-10
-7.4355e-08
4.51517e-07
9.37645e-11
-9.28628e-08
5.76613e-07
1.8831e-09
-1.08275e-07
7.06119e-07
4.30449e-09
-1.11063e-07
8.12336e-07
7.69851e-09
-8.60853e-08
8.55792e-07
8.47409e-09
-1.78943e-08
7.81122e-07
7.18868e-09
1.07934e-07
6.42287e-07
6.16427e-09
1.79004e-07
4.77108e-07
5.26124e-09
2.11118e-07
3.13647e-07
5.07077e-09
2.13385e-07
1.5846e-07
5.13777e-09
2.07718e-07
8.96804e-09
5.49764e-09
2.03231e-07
-1.40571e-07
6.00055e-09
2.03207e-07
-2.95893e-07
6.616e-09
2.07643e-07
-4.59592e-07
7.40424e-09
2.133e-07
-6.25211e-07
8.2704e-09
2.11159e-07
-7.6503e-07
9.57064e-09
1.79588e-07
-8.41541e-07
1.07102e-08
1.09449e-07
-8.01562e-07
1.17699e-08
-1.45436e-08
-6.97103e-07
1.06177e-08
-8.42224e-08
-5.67132e-07
6.91532e-09
-1.11185e-07
-4.38333e-07
4.20912e-09
-1.1137e-07
-3.22578e-07
2.18445e-09
-9.92307e-08
-2.22909e-07
1.29699e-09
-8.43217e-08
-1.37065e-07
1.00913e-09
-7.15482e-08
-6.32434e-08
1.02572e-09
-6.03113e-08
-9.67676e-09
1.09173e-09
-4.05709e-08
1.08939e-09
2.36429e-09
4.36938e-09
-6.19813e-09
2.84979e-09
3.48368e-08
-6.89527e-09
-2.25715e-08
7.69636e-08
-7.6726e-09
-3.36627e-08
1.25861e-07
-9.00227e-09
-3.94729e-08
1.83639e-07
-1.09259e-08
-4.68975e-08
2.54697e-07
-1.32149e-08
-5.82858e-08
3.43598e-07
-1.53432e-08
-7.40352e-08
4.52848e-07
-1.68096e-08
-9.23464e-08
5.78692e-07
-1.64404e-08
-1.07521e-07
7.08432e-07
-1.53034e-08
-1.10132e-07
8.13328e-07
-1.19987e-08
-8.51986e-08
8.55451e-07
-1.67502e-08
-1.68989e-08
7.8052e-07
-2.71267e-08
1.09246e-07
6.41802e-07
-3.62432e-08
1.81125e-07
4.76978e-07
-4.38841e-08
2.13969e-07
3.13784e-07
-4.85892e-08
2.16854e-07
1.58798e-07
-5.14221e-08
2.11546e-07
9.44453e-09
-5.23829e-08
2.07234e-07
-1.39991e-07
-5.17732e-08
2.07209e-07
-2.95221e-07
-4.9627e-08
2.11473e-07
-4.58827e-07
-4.57503e-08
2.1676e-07
-6.24331e-07
-4.02061e-08
2.13981e-07
-7.64299e-07
-3.21044e-08
1.81643e-07
-8.41332e-07
-2.29121e-08
1.10656e-07
-8.0283e-07
-1.3026e-08
-1.37071e-08
-6.99701e-07
-9.00102e-09
-8.35093e-08
-5.69481e-07
-1.28608e-08
-1.10444e-07
-4.39926e-07
-1.4543e-08
-1.10804e-07
-3.23369e-07
-1.5493e-08
-9.88795e-08
-2.23146e-07
-1.47633e-08
-8.41625e-08
-1.37043e-07
-1.35757e-08
-7.15177e-08
-6.31885e-08
-1.24635e-08
-6.03657e-08
-9.68995e-09
-1.17139e-08
-4.0693e-08
-1.07287e-08
2.12813e-09
4.20494e-09
-1.29746e-08
2.57148e-09
3.40905e-08
-1.43391e-08
-2.24417e-08
7.55459e-08
-1.57782e-08
-3.33498e-08
1.23871e-07
-1.82795e-08
-3.90478e-08
1.81306e-07
-2.20505e-08
-4.63107e-08
2.52381e-07
-2.68682e-08
-5.74212e-08
3.41787e-07
-3.20079e-08
-7.27416e-08
4.52006e-07
-3.65887e-08
-9.044e-08
5.7879e-07
-3.82673e-08
-1.04957e-07
7.08539e-07
-3.80675e-08
-1.06985e-07
8.09327e-07
-3.07602e-08
-8.20265e-08
8.47841e-07
-4.20271e-08
-1.32369e-08
7.7282e-07
-6.56658e-08
1.1356e-07
6.35376e-07
-8.61865e-08
1.87387e-07
4.72541e-07
-1.03119e-07
2.22071e-07
3.11162e-07
-1.13825e-07
2.26615e-07
1.57845e-07
-1.20411e-07
2.22306e-07
1.00297e-08
-1.23025e-07
2.18458e-07
-1.3791e-07
-1.22243e-07
2.18409e-07
-2.91601e-07
-1.18091e-07
2.22155e-07
-4.53613e-07
-1.10127e-07
2.26388e-07
-6.17449e-07
-9.82626e-08
2.21893e-07
-7.56516e-07
-8.06988e-08
1.87661e-07
-8.34036e-07
-6.00838e-08
1.14691e-07
-7.99335e-07
-3.73709e-08
-1.03552e-08
-7.00296e-07
-2.74225e-08
-8.06181e-08
-5.70063e-07
-3.55002e-08
-1.07594e-07
-4.3962e-07
-3.64728e-08
-1.08513e-07
-3.22225e-07
-3.56835e-08
-9.72044e-08
-2.21686e-07
-3.22742e-08
-8.3028e-08
-1.35821e-07
-2.86918e-08
-7.0749e-08
-6.25612e-08
-2.58626e-08
-5.98605e-08
-9.66793e-09
-2.41043e-08
-4.05029e-08
-2.20787e-08
1.68205e-09
3.87537e-09
-1.89959e-08
2.14593e-09
3.26586e-08
-2.10003e-08
-2.2122e-08
7.27666e-08
-2.31845e-08
-3.27017e-08
1.19762e-07
-2.70782e-08
-3.81965e-08
1.76043e-07
-3.3172e-08
-4.516e-08
2.46355e-07
-4.14346e-08
-5.57452e-08
3.35771e-07
-5.1186e-08
-7.02383e-08
4.47069e-07
-6.11863e-08
-8.67002e-08
5.75991e-07
-6.73796e-08
-9.98102e-08
7.07147e-07
-6.88447e-08
-1.00378e-07
7.98815e-07
-4.68207e-08
-7.56074e-08
8.29782e-07
-6.72272e-08
-5.76666e-09
7.54685e-07
-1.13086e-07
1.22517e-07
6.20287e-07
-1.51919e-07
2.0013e-07
4.62015e-07
-1.83127e-07
2.3828e-07
3.04782e-07
-2.02721e-07
2.46129e-07
1.55179e-07
-2.14673e-07
2.43864e-07
1.07724e-08
-2.19601e-07
2.40982e-07
-1.33803e-07
-2.18541e-07
2.40874e-07
-2.83923e-07
-2.115e-07
2.43529e-07
-4.42041e-07
-1.97598e-07
2.45588e-07
-6.01727e-07
-1.76242e-07
2.37665e-07
-7.38265e-07
-1.44028e-07
1.99868e-07
-8.16509e-07
-1.04919e-07
1.23079e-07
-7.89648e-07
-6.07317e-08
-3.50005e-09
-6.99557e-07
-4.28619e-08
-7.46516e-08
-5.67912e-07
-6.56769e-08
-1.01469e-07
-4.35452e-07
-6.51509e-08
-1.03782e-07
-3.17212e-07
-6.01559e-08
-9.37674e-08
-2.1702e-07
-5.1784e-08
-8.06825e-08
-1.32391e-07
-4.42198e-08
-6.91012e-08
-6.07887e-08
-3.8763e-08
-5.87015e-08
-9.38278e-09
-3.55614e-08
-3.99488e-08
-3.23769e-08
9.15479e-10
3.35609e-09
-2.39351e-08
1.5832e-09
3.04676e-08
-2.65161e-08
-2.15958e-08
6.8451e-08
-2.94675e-08
-3.17004e-08
1.13132e-07
-3.48644e-08
-3.68951e-08
1.66996e-07
-4.36225e-08
-4.34131e-08
2.34967e-07
-5.61856e-08
-5.32199e-08
3.22732e-07
-7.24605e-08
-6.64904e-08
4.33944e-07
-9.13456e-08
-8.10532e-08
5.66398e-07
-1.07886e-07
-9.1947e-08
7.04801e-07
-1.16987e-07
-9.02607e-08
7.77246e-07
-5.47068e-08
-6.45595e-08
7.92679e-07
-9.01316e-08
7.47159e-09
7.19875e-07
-1.76847e-07
1.36565e-07
5.92474e-07
-2.43396e-07
2.18878e-07
4.42747e-07
-2.94655e-07
2.61255e-07
2.93058e-07
-3.26879e-07
2.73848e-07
1.50103e-07
-3.4615e-07
2.74432e-07
1.17822e-08
-3.54207e-07
2.72927e-07
-1.2674e-07
-3.52726e-07
2.72708e-07
-2.7034e-07
-3.4166e-07
2.7376e-07
-4.21176e-07
-3.19499e-07
2.72737e-07
-5.72846e-07
-2.84444e-07
2.59872e-07
-7.03121e-07
-2.31456e-07
2.17702e-07
-7.80216e-07
-1.64052e-07
1.36228e-07
-7.69458e-07
-8.04369e-08
8.94741e-09
-6.9793e-07
-5.01619e-08
-6.42284e-08
-5.59087e-07
-1.12364e-07
-9.21554e-08
-4.23325e-07
-1.04363e-07
-9.65502e-08
-3.05504e-07
-8.94547e-08
-8.85223e-08
-2.07456e-07
-7.27589e-08
-7.70726e-08
-1.25836e-07
-5.93542e-08
-6.64856e-08
-5.74177e-08
-5.03948e-08
-5.67865e-08
-8.64265e-09
-4.53743e-08
-3.89621e-08
-4.10234e-08
3.77743e-12
2.52e-09
-2.73163e-08
8.6117e-10
2.72323e-08
-3.03656e-08
-2.08628e-08
6.20032e-08
-3.38773e-08
-3.03611e-08
1.02729e-07
-4.04328e-08
-3.51578e-08
1.51623e-07
-5.14496e-08
-4.10668e-08
2.13419e-07
-6.81754e-08
-4.98062e-08
2.94427e-07
-9.20839e-08
-6.13846e-08
4.00193e-07
-1.24163e-07
-7.29482e-08
5.35232e-07
-1.63188e-07
-7.97371e-08
7.00294e-07
-2.11731e-07
-7.03186e-08
7.35135e-07
-4.96583e-08
-3.98898e-08
7.15196e-07
-9.23665e-08
2.21739e-08
6.51443e-07
-2.58088e-07
1.44995e-07