/*--------------------------------*- C++ -*----------------------------------*\
| =========                 |                                                 |
| \\      /  F ield         | OpenFOAM: The Open Source CFD Toolbox           |
|  \\    /   O peration     | Version:  2112                                  |
|   \\  /    A nd           | Website:  www.openfoam.com                      |
|    \\/     M anipulation  |                                                 |
\*---------------------------------------------------------------------------*/
FoamFile
{
    version     2.0;
    format      ascii;
    arch        "LSB;label=32;scalar=64";
    class       volVectorField;
    location    "2.7";
    object      U;
}
// * * * * * * * * * * * * * * * * * * * * * * * * * * * * * * * * * * * * * //

dimensions      [0 1 -1 0 0 0 0];

internalField   nonuniform List<vector> 
64906
(
(1.91948e-07 6.88052e-07 -1.42008e-06)
(2.4389e-06 -7.43362e-07 -1.4603e-06)
(6.11203e-06 -2.16586e-06 -8.90485e-07)
(1.008e-05 -3.24468e-06 -1.66175e-07)
(1.42491e-05 -3.9475e-06 4.00228e-07)
(1.83852e-05 -4.42839e-06 7.93691e-07)
(2.24252e-05 -4.806e-06 1.0811e-06)
(2.62456e-05 -5.12014e-06 1.32517e-06)
(2.96667e-05 -5.37997e-06 1.56076e-06)
(3.22612e-05 -5.41033e-06 1.86931e-06)
(3.38195e-05 -5.21703e-06 2.26571e-06)
(3.3831e-05 -4.737e-06 2.70838e-06)
(3.20792e-05 -4.4601e-06 3.15039e-06)
(2.88523e-05 -4.23195e-06 3.60826e-06)
(2.4343e-05 -4.16651e-06 4.01043e-06)
(1.89336e-05 -4.1382e-06 4.34137e-06)
(1.28642e-05 -4.15636e-06 4.56909e-06)
(6.43781e-06 -4.17837e-06 4.68769e-06)
(-1.0109e-07 -4.20258e-06 4.69057e-06)
(-6.47958e-06 -4.22901e-06 4.57845e-06)
(-1.24536e-05 -4.25956e-06 4.35806e-06)
(-1.77219e-05 -4.337e-06 4.03562e-06)
(-2.20498e-05 -4.45067e-06 3.64362e-06)
(-2.50582e-05 -4.72711e-06 3.19658e-06)
(-2.65665e-05 -5.04715e-06 2.76482e-06)
(-2.62922e-05 -5.56713e-06 2.32543e-06)
(-2.44676e-05 -5.77585e-06 1.91715e-06)
(-2.15991e-05 -5.72365e-06 1.5622e-06)
(-1.78958e-05 -5.37219e-06 1.19647e-06)
(-1.3833e-05 -4.80096e-06 6.85473e-07)
(-9.70868e-06 -3.85158e-06 -6.01899e-08)
(-5.75476e-06 -2.26575e-06 -9.8736e-07)
(-2.1334e-06 -3.92169e-07 -1.85044e-06)
(6.23756e-08 1.29444e-06 -1.94546e-06)
(-1.96722e-06 5.31911e-06 -2.15713e-06)
(-5.07032e-07 4.19569e-06 -6.37623e-06)
(4.47039e-06 2.66381e-06 -7.57847e-06)
(9.39161e-06 1.47018e-06 -7.80712e-06)
(1.41343e-05 9.28313e-07 -8.02496e-06)
(1.85811e-05 9.67115e-07 -8.48274e-06)
(2.28216e-05 1.49957e-06 -9.23287e-06)
(2.68145e-05 2.55212e-06 -1.02752e-05)
(3.05415e-05 4.19238e-06 -1.1611e-05)
(3.35786e-05 6.74669e-06 -1.32698e-05)
(3.55635e-05 1.00725e-05 -1.52464e-05)
(3.56248e-05 1.43244e-05 -1.73861e-05)
(3.36553e-05 1.79991e-05 -1.9404e-05)
(3.01819e-05 2.12255e-05 -2.11635e-05)
(2.53717e-05 2.36113e-05 -2.25982e-05)
(1.97008e-05 2.53944e-05 -2.36957e-05)
(1.33584e-05 2.65283e-05 -2.44423e-05)
(6.67378e-06 2.7092e-05 -2.48364e-05)
(-1.27374e-07 2.70835e-05 -2.48725e-05)
(-6.75881e-06 2.65031e-05 -2.45504e-05)
(-1.29965e-05 2.53539e-05 -2.38757e-05)
(-1.85124e-05 2.3558e-05 -2.28506e-05)
(-2.31242e-05 2.11678e-05 -2.149e-05)
(-2.63579e-05 1.7948e-05 -1.98093e-05)
(-2.8062e-05 1.43091e-05 -1.78801e-05)
(-2.77065e-05 1.01238e-05 -1.5848e-05)
(-2.54056e-05 6.94533e-06 -1.40142e-05)
(-2.20267e-05 4.62866e-06 -1.25555e-05)
(-1.78717e-05 3.4043e-06 -1.14956e-05)
(-1.33046e-05 3.07112e-06 -1.08271e-05)
(-8.23714e-06 3.71064e-06 -1.0488e-05)
(-3.0014e-06 5.36297e-06 -1.02096e-05)
(2.13435e-06 7.33074e-06 -8.64909e-06)
(3.06481e-06 8.4763e-06 -3.10776e-06)
(-3.39959e-06 1.41452e-05 -1.963e-06)
(-2.53767e-06 1.49812e-05 -7.87446e-06)
(3.17958e-06 1.46729e-05 -9.79374e-06)
(8.8298e-06 1.46063e-05 -1.03911e-05)
(1.43227e-05 1.54266e-05 -1.09103e-05)
(1.94442e-05 1.72535e-05 -1.17086e-05)
(2.43865e-05 2.01649e-05 -1.29066e-05)
(2.91891e-05 2.43963e-05 -1.45519e-05)
(3.39508e-05 3.02158e-05 -1.66732e-05)
(3.80189e-05 3.82591e-05 -1.93012e-05)
(4.10259e-05 4.81083e-05 -2.23704e-05)
(4.13081e-05 6.01649e-05 -2.57129e-05)
(3.86722e-05 7.0825e-05 -2.88884e-05)
(3.43274e-05 8.02175e-05 -3.16704e-05)
(2.85085e-05 8.74288e-05 -3.39455e-05)
(2.19258e-05 9.29096e-05 -3.56842e-05)
(1.46736e-05 9.65084e-05 -3.68625e-05)
(7.12012e-06 9.83473e-05 -3.74816e-05)
(-5.53465e-07 9.84022e-05 -3.75325e-05)
(-8.05061e-06 9.66737e-05 -3.7015e-05)
(-1.51917e-05 9.31891e-05 -3.59381e-05)
(-2.16067e-05 8.78291e-05 -3.43015e-05)
(-2.72074e-05 8.07593e-05 -3.21308e-05)
(-3.12783e-05 7.1536e-05 -2.94596e-05)
(-3.36021e-05 6.11136e-05 -2.64087e-05)
(-3.29508e-05 4.9363e-05 -2.32174e-05)
(-2.953e-05 3.99792e-05 -2.03436e-05)
(-2.49704e-05 3.25233e-05 -1.79754e-05)
(-1.9521e-05 2.75403e-05 -1.61975e-05)
(-1.37561e-05 2.44802e-05 -1.49754e-05)
(-7.50963e-06 2.31404e-05 -1.4159e-05)
(-1.18389e-06 2.30885e-05 -1.32837e-05)
(5.00397e-06 2.33922e-05 -1.07569e-05)
(5.04764e-06 2.19541e-05 -2.96969e-06)
(-4.31596e-06 2.34306e-05 -1.43873e-06)
(-3.69e-06 2.55187e-05 -8.03928e-06)
(2.85173e-06 2.61397e-05 -1.01856e-05)
(9.47099e-06 2.7263e-05 -1.0865e-05)
(1.60397e-05 2.95855e-05 -1.14618e-05)
(2.2297e-05 3.33165e-05 -1.23903e-05)
(2.85771e-05 3.86736e-05 -1.38108e-05)
(3.50386e-05 4.615e-05 -1.5809e-05)
(4.2032e-05 5.63503e-05 -1.84282e-05)
(4.84946e-05 7.06596e-05 -2.17248e-05)
(5.3943e-05 8.86139e-05 -2.55857e-05)
(5.46775e-05 0.000111228 -2.98771e-05)
(5.03802e-05 0.000130631 -3.39281e-05)
(4.39837e-05 0.000147423 -3.7461e-05)
(3.58666e-05 0.000160112 -4.03334e-05)
(2.71917e-05 0.000169762 -4.25025e-05)
(1.78241e-05 0.000176104 -4.39557e-05)
(8.21531e-06 0.000179362 -4.47142e-05)
(-1.52965e-06 0.000179483 -4.47696e-05)
(-1.10795e-05 0.000176466 -4.41214e-05)
(-2.03298e-05 0.000170369 -4.27772e-05)
(-2.88214e-05 0.000160968 -4.07167e-05)
(-3.66934e-05 0.000148555 -3.79532e-05)
(-4.27619e-05 0.000132073 -3.45345e-05)
(-4.66731e-05 0.000113085 -3.06113e-05)
(-4.54458e-05 9.09777e-05 -2.64773e-05)
(-3.94394e-05 7.37893e-05 -2.28254e-05)
(-3.23124e-05 6.03586e-05 -1.98099e-05)
(-2.43539e-05 5.13044e-05 -1.75629e-05)
(-1.65589e-05 4.53088e-05 -1.60197e-05)
(-8.53858e-06 4.18241e-05 -1.49954e-05)
(-7.7001e-07 4.01945e-05 -1.39473e-05)
(6.57407e-06 3.92987e-05 -1.10977e-05)
(6.30608e-06 3.62158e-05 -2.36946e-06)
(-4.80908e-06 3.28013e-05 -8.94835e-07)
(-3.97477e-06 3.58806e-05 -8.07252e-06)
(3.76636e-06 3.74008e-05 -1.04025e-05)
(1.17068e-05 3.97345e-05 -1.11218e-05)
(1.97515e-05 4.36752e-05 -1.17894e-05)
(2.76506e-05 4.946e-05 -1.28864e-05)
(3.59806e-05 5.74063e-05 -1.46151e-05)
(4.51364e-05 6.82988e-05 -1.71102e-05)
(5.60276e-05 8.32829e-05 -2.04131e-05)
(6.69718e-05 0.00010513 -2.46282e-05)
(7.74754e-05 0.000133841 -2.95413e-05)
(7.90605e-05 0.000172506 -3.5254e-05)
(7.11403e-05 0.000203869 -4.05608e-05)
(6.0816e-05 0.000230239 -4.52201e-05)
(4.85973e-05 0.000249585 -4.90076e-05)
(3.63344e-05 0.00026433 -5.17921e-05)
(2.33172e-05 0.000273997 -5.36266e-05)
(1.01504e-05 0.000278984 -5.4575e-05)
(-3.19325e-06 0.000279179 -5.4635e-05)
(-1.63006e-05 0.000274579 -5.38055e-05)
(-2.91993e-05 0.000265297 -5.20871e-05)
(-4.12663e-05 0.00025093 -4.94162e-05)
(-5.32134e-05 0.000231981 -4.57388e-05)
(-6.31404e-05 0.000206033 -4.11921e-05)
(-7.05788e-05 0.000175235 -3.60102e-05)
(-6.83149e-05 0.000137235 -3.04535e-05)
(-5.70714e-05 0.000109633 -2.5761e-05)
(-4.53072e-05 8.89236e-05 -2.18477e-05)
(-3.31777e-05 7.53543e-05 -1.89511e-05)
(-2.23257e-05 6.62219e-05 -1.69622e-05)
(-1.18116e-05 6.04918e-05 -1.56853e-05)
(-2.04385e-06 5.72595e-05 -1.44866e-05)
(6.99888e-06 5.52741e-05 -1.13418e-05)
(7.01816e-06 5.0861e-05 -1.73949e-06)
(-5.09599e-06 4.16726e-05 -3.94256e-07)
(-3.60605e-06 4.55281e-05 -8.24771e-06)
(5.85951e-06 4.78391e-05 -1.08449e-05)
(1.55648e-05 5.13709e-05 -1.16255e-05)
(2.55549e-05 5.69932e-05 -1.24176e-05)
(3.55994e-05 6.49001e-05 -1.37877e-05)
(4.66405e-05 7.54156e-05 -1.59867e-05)
(5.95156e-05 8.9537e-05 -1.92088e-05)
(7.63103e-05 0.000109158 -2.34276e-05)
(9.47949e-05 0.000139509 -2.87847e-05)
(0.000115458 0.000182174 -3.46009e-05)
(0.000118794 0.00024706 -4.21588e-05)
(0.00010346 0.000294847 -4.9145e-05)
(8.64306e-05 0.000333224 -5.5552e-05)
(6.77998e-05 0.00036027 -6.08297e-05)
(5.02217e-05 0.000381022 -6.44899e-05)
(3.16872e-05 0.000394586 -6.6844e-05)
(1.31169e-05 0.00040162 -6.80466e-05)
(-5.72164e-06 0.0004019 -6.81144e-05)
(-2.42386e-05 0.00039542 -6.70458e-05)
(-4.26677e-05 0.000382394 -6.48208e-05)
(-6.00552e-05 0.000362144 -6.12848e-05)
(-7.84104e-05 0.000335595 -5.61219e-05)
(-9.4975e-05 0.000297698 -4.98281e-05)
(-0.000109728 0.000250576 -4.29664e-05)
(-0.000105422 0.000186427 -3.55543e-05)
(-8.37865e-05 0.000145354 -2.99747e-05)
(-6.43886e-05 0.00011637 -2.49451e-05)
(-4.60757e-05 9.83857e-05 -2.11796e-05)
(-3.10982e-05 8.62743e-05 -1.85356e-05)
(-1.73198e-05 7.83669e-05 -1.68716e-05)
(-4.87119e-06 7.36182e-05 -1.54304e-05)
(6.6197e-06 7.06252e-05 -1.18626e-05)
(7.4908e-06 6.51626e-05 -1.17019e-06)
(-5.28002e-06 4.97938e-05 1.10202e-07)
(-2.75056e-06 5.43371e-05 -8.62169e-06)
(9.0691e-06 5.74304e-05 -1.15831e-05)
(2.11083e-05 6.22908e-05 -1.24849e-05)
(3.35546e-05 6.98368e-05 -1.34734e-05)
(4.62006e-05 8.01277e-05 -1.52309e-05)
(6.04029e-05 9.32859e-05 -1.8059e-05)
(7.76764e-05 0.000110046 -2.2218e-05)
(0.000102374 0.000132937 -2.75114e-05)
(0.000132164 0.000170018 -3.39316e-05)
(0.000173091 0.00022886 -3.97261e-05)
(0.000180372 0.000338668 -4.92857e-05)
(0.000149583 0.000408389 -5.79116e-05)
(0.000121858 0.00046173 -6.68411e-05)
(9.41621e-05 0.000498042 -7.44485e-05)
(6.95145e-05 0.000526454 -7.90898e-05)
(4.33543e-05 0.00054506 -8.20301e-05)
(1.72786e-05 0.000554759 -8.35111e-05)
(-9.24773e-06 0.000555146 -8.35906e-05)
(-3.52881e-05 0.000546206 -8.22659e-05)
(-6.13831e-05 0.000528325 -7.94745e-05)
(-8.5886e-05 0.000500556 -7.4975e-05)
(-0.00011336 0.000464822 -6.74912e-05)
(-0.000140583 0.00041194 -5.86818e-05)
(-0.000170741 0.000342875 -5.01905e-05)
(-0.000161986 0.000233662 -4.07563e-05)
(-0.000119759 0.000177281 -3.5229e-05)
(-8.91475e-05 0.000141706 -2.91567e-05)
(-6.26346e-05 0.000120588 -2.43747e-05)
(-4.27528e-05 0.000106029 -2.08821e-05)
(-2.50415e-05 9.58778e-05 -1.86933e-05)
(-9.22221e-06 8.94407e-05 -1.69064e-05)
(5.61093e-06 8.53475e-05 -1.26823e-05)
(7.90586e-06 7.88925e-05 -5.84664e-07)
(-5.39493e-06 5.68565e-05 6.7158e-07)
(-1.39555e-06 6.19875e-05 -9.16986e-06)
(1.35607e-05 6.59225e-05 -1.26155e-05)
(2.86795e-05 7.22811e-05 -1.3701e-05)
(4.42687e-05 8.20668e-05 -1.49624e-05)
(6.00081e-05 9.51e-05 -1.72267e-05)
(7.73547e-05 0.00011097 -2.08525e-05)
(9.84202e-05 0.000129215 -2.62148e-05)
(0.000130217 0.000151593 -3.27017e-05)
(0.000173611 0.000190981 -4.06328e-05)
(0.000255313 0.000261759 -4.09323e-05)
(0.00027276 0.000453636 -5.04451e-05)
(0.00021162 0.000547416 -6.1117e-05)
(0.000169737 0.000615098 -7.44813e-05)
(0.00013061 0.00066041 -8.59273e-05)
(9.6886e-05 0.00069655 -9.14992e-05)
(6.00377e-05 0.000720438 -9.49917e-05)
(2.32476e-05 0.000732992 -9.6721e-05)
(-1.43132e-05 0.000733515 -9.68137e-05)
(-5.11008e-05 0.000721985 -9.5267e-05)
(-8.79643e-05 0.000699061 -9.19476e-05)
(-0.000121662 0.000663746 -8.65433e-05)
(-0.000160749 0.000619087 -7.52367e-05)
(-0.000202226 0.000551724 -6.20126e-05)
(-0.000262904 0.000458495 -5.15409e-05)
(-0.000242981 0.000266695 -4.20544e-05)
(-0.000159472 0.000200247 -4.20304e-05)
(-0.000115807 0.000162135 -3.44774e-05)
(-8.17983e-05 0.000141449 -2.85899e-05)
(-5.7454e-05 0.000125425 -2.40102e-05)
(-3.55503e-05 0.000112866 -2.11534e-05)
(-1.55001e-05 0.000104368 -1.88893e-05)
(3.85736e-06 9.89992e-05 -1.37928e-05)
(8.23903e-06 9.16207e-05 1.25944e-07)
(-5.46403e-06 6.25686e-05 1.30962e-06)
(4.70652e-07 6.82495e-05 -9.87709e-06)
(1.9448e-05 7.32158e-05 -1.39359e-05)
(3.85424e-05 8.15234e-05 -1.52597e-05)
(5.81749e-05 9.44621e-05 -1.68478e-05)
(7.7682e-05 0.000111785 -1.96772e-05)
(9.79362e-05 0.00013253 -2.419e-05)
(0.000120348 0.000153093 -3.08971e-05)
(0.000155919 0.000173608 -3.96548e-05)
(0.00020505 0.000202906 -4.78135e-05)
(0.000363683 0.00022265 -5.05368e-05)
(0.000406615 0.00057284 -4.60972e-05)
(0.000282077 0.000699739 -5.55684e-05)
(0.000227266 0.00078738 -7.5598e-05)
(0.000176508 0.000847051 -9.20983e-05)
(0.000131923 0.000896207 -9.82141e-05)
(8.16321e-05 0.000929024 -0.00010258)
(3.10403e-05 0.000946088 -0.000104649)
(-2.08343e-05 0.000946787 -0.000104751)
(-7.14714e-05 0.000931095 -0.000102882)
(-0.000121898 0.000899595 -9.87026e-05)
(-0.000166668 0.000851565 -9.27709e-05)
(-0.000217792 0.000792734 -7.6413e-05)
(-0.000272466 0.000705319 -5.6564e-05)
(-0.000397285 0.000578589 -4.73644e-05)
(-0.000349858 0.000225756 -5.21518e-05)
(-0.000188803 0.000213528 -4.9474e-05)
(-0.000141107 0.000185445 -4.15775e-05)
(-0.000102556 0.000166648 -3.35506e-05)
(-7.59381e-05 0.000148233 -2.77737e-05)
(-4.97114e-05 0.000131022 -2.41995e-05)
(-2.42896e-05 0.0001189 -2.1398e-05)
(1.14805e-06 0.000111397 -1.52022e-05)
(8.50931e-06 0.000102944 9.90915e-07)
(-5.3736e-06 6.63572e-05 2.0555e-06)
(3.13223e-06 7.24893e-05 -1.07347e-05)
(2.73691e-05 7.84066e-05 -1.55438e-05)
(5.20116e-05 8.86554e-05 -1.71661e-05)
(7.78329e-05 0.000104979 -1.91516e-05)
(0.00010385 0.000127436 -2.26265e-05)
(0.000128686 0.00015452 -2.80553e-05)
(0.000152958 0.00017874 -3.70568e-05)
(0.000181742 0.000187113 -4.74005e-05)
(0.000148859 0.000114243 -6.93786e-05)
(0.000437172 0.000208735 -7.24147e-05)
(0.000594307 0.00082393 -2.09072e-05)
(0.000370553 0.000896365 -2.50387e-05)
(0.000313894 0.000960869 -4.74504e-05)
(0.000250023 0.00102788 -6.68447e-05)
(0.000188314 0.00108303 -6.93151e-05)
(0.000116037 0.0011227 -7.25335e-05)
(4.31757e-05 0.00114322 -7.41332e-05)
(-3.11655e-05 0.00114411 -7.42147e-05)
(-0.000104099 0.00112537 -7.27799e-05)
(-0.000176619 0.00108743 -6.96969e-05)
(-0.000238762 0.00103383 -6.74086e-05)
(-0.000303537 0.00096796 -4.81384e-05)
(-0.000360848 0.00090343 -2.59154e-05)
(-0.00058895 0.000827692 -2.24522e-05)
(-0.000424482 0.000212004 -7.47299e-05)
(-0.000130783 0.000132571 -7.04117e-05)
(-0.000166989 0.000203302 -4.90757e-05)
(-0.000134253 0.000194188 -3.99457e-05)
(-0.000104821 0.000171218 -3.21693e-05)
(-7.22791e-05 0.000147556 -2.79323e-05)
(-3.82715e-05 0.000130783 -2.45494e-05)
(-3.77671e-06 0.000120811 -1.69692e-05)
(8.2705e-06 0.000111362 2.11685e-06)
(-5.16622e-06 6.78166e-05 2.88363e-06)
(6.32114e-06 7.44466e-05 -1.17765e-05)
(3.66724e-05 8.12162e-05 -1.74395e-05)
(6.81552e-05 9.35556e-05 -1.94266e-05)
(0.000102322 0.000114261 -2.18861e-05)
(0.000138115 0.000145605 -2.58309e-05)
(0.000172055 0.000190709 -3.14905e-05)
(0.000197226 0.00025148 -3.74959e-05)
(0.000162228 0.000329604 -5.5756e-05)
(0.000166833 0.000377458 -8.58618e-05)
(0.000270695 0.000712652 6.93181e-05)
(0.000308554 0.000910756 3.0257e-05)
(0.000377826 0.0010403 1.71674e-05)
(0.000330989 0.0011557 1.73551e-05)
(0.000250401 0.00123757 1.288e-05)
(0.000155884 0.00129198 8.44703e-06)
(5.7278e-05 0.00131854 6.46e-06)
(-4.28993e-05 0.00131957 6.46539e-06)
(-0.000141598 0.00129509 8.45667e-06)
(-0.000236405 0.00124284 1.28988e-05)
(-0.000317612 0.0011633 1.73882e-05)
(-0.000366081 0.00105039 1.72788e-05)
(-0.000300639 0.000923263 2.99823e-05)
(-0.000265691 0.000725317 6.78567e-05)
(-0.000163205 0.000390066 -8.33665e-05)
(-0.000155309 0.00034402 -5.70116e-05)
(-0.000181641 0.000266025 -4.08645e-05)
(-0.000147935 0.000206948 -3.64093e-05)
(-0.000103545 0.000165594 -3.22511e-05)
(-5.70347e-05 0.000140431 -2.85024e-05)
(-1.05904e-05 0.000126898 -1.9313e-05)
(7.64365e-06 0.000115869 3.34741e-06)
(-4.53617e-06 6.65336e-05 3.81155e-06)
(1.04542e-05 7.31565e-05 -1.30128e-05)
(4.80185e-05 7.99122e-05 -1.95262e-05)
(8.89358e-05 9.24323e-05 -2.19594e-05)
(0.000137174 0.000113678 -2.51442e-05)
(0.000196456 0.000146497 -3.02673e-05)
(0.000272353 0.000195526 -3.75491e-05)
(0.000378631 0.000266427 -4.40457e-05)
(0.000507927 0.0003686 -4.80962e-05)
(0.00076901 0.000509579 -3.12279e-05)
(0.000795922 0.000144519 4.96142e-05)
(0.000619055 0.000309436 6.59124e-05)
(0.00068755 0.000675695 0.000127805)
(0.000619377 0.000885483 0.000184576)
(0.000495878 0.00103493 0.000216552)
(0.000354993 0.00113428 0.000226775)
(0.000214098 0.00119563 0.000228449)
(7.64582e-05 0.00122478 0.000228438)
(-5.96494e-05 0.00122574 0.000228506)
(-0.000197221 0.00119857 0.000228651)
(-0.000337994 0.00113934 0.000227133)
(-0.000478649 0.0010424 0.00021717)
(-0.000601973 0.000895774 0.000185748)
(-0.000670057 0.000689308 0.000129616)
(-0.000599724 0.000325914 6.89703e-05)
(-0.000783941 0.000148016 5.2207e-05)
(-0.000763915 0.000513049 -3.02896e-05)
(-0.000497677 0.000378047 -4.97021e-05)
(-0.000362215 0.000278589 -4.769e-05)
(-0.000246893 0.000210511 -4.333e-05)
(-0.000158694 0.000165701 -3.80059e-05)
(-8.60142e-05 0.000139291 -3.33321e-05)
(-2.18072e-05 0.000125424 -2.23181e-05)
(5.3326e-06 0.00011413 4.94303e-06)
(-4.21916e-06 6.24823e-05 4.57812e-06)
(1.37778e-05 6.84819e-05 -1.41763e-05)
(5.75595e-05 7.43042e-05 -2.15093e-05)
(0.000105872 8.48227e-05 -2.43723e-05)
(0.000163796 0.000102022 -2.82186e-05)
(0.000236307 0.000126885 -3.44358e-05)
(0.000329943 0.000159624 -4.31096e-05)
(0.000456711 0.000197687 -5.15573e-05)
(0.00061054 0.000230422 -5.57449e-05)
(0.000839148 0.000246586 -4.48573e-05)
(0.000946538 0.000123473 -1.90726e-05)
(0.000929523 0.000307913 2.61914e-05)
(0.000907353 0.000499566 0.000138538)
(0.000777017 0.00064083 0.000211535)
(0.00061236 0.000750249 0.000249031)
(0.000432369 0.000823625 0.000264131)
(0.000258322 0.000869957 0.000267992)
(9.12857e-05 0.000892327 0.000268702)
(-7.26019e-05 0.00089312 0.000268768)
(-0.000239515 0.000872349 0.000268189)
(-0.000413336 0.000827658 0.000264491)
(-0.00059295 0.000755951 0.000249668)
(-0.000757488 0.000648166 0.00021279)
(-0.00088802 0.000507968 0.000140613)
(-0.000910911 0.000316314 2.99135e-05)
(-0.000933203 0.000126978 -1.66761e-05)
(-0.000830325 0.000253817 -4.44468e-05)
(-0.000599718 0.000239825 -5.75962e-05)
(-0.000439663 0.000209142 -5.56623e-05)
(-0.000302827 0.00017379 -4.96929e-05)
(-0.000195065 0.000145147 -4.33346e-05)
(-0.000106671 0.000126328 -3.77313e-05)
(-2.94595e-05 0.000115875 -2.49625e-05)
(4.30716e-06 0.000106124 6.45845e-06)
(-4.00831e-06 5.6096e-05 5.28163e-06)
(1.65281e-05 6.13378e-05 -1.51587e-05)
(6.56036e-05 6.6044e-05 -2.32047e-05)
(0.000119895 7.43236e-05 -2.64194e-05)
(0.000185067 8.75003e-05 -3.0821e-05)
(0.000266298 0.000105784 -3.80865e-05)
(0.000370075 0.000128339 -4.85138e-05)
(0.000506075 0.000153084 -6.03707e-05)
(0.00066753 0.000173467 -6.97297e-05)
(0.000864461 0.000189717 -6.91715e-05)
(0.000998775 0.000159024 -5.08882e-05)
(0.00106263 0.00024848 8.27674e-06)
(0.00103579 0.000362891 0.000124641)
(0.000883134 0.000457927 0.00019539)
(0.000691198 0.000533053 0.000231042)
(0.000484055 0.000582815 0.000240493)
(0.000288164 0.000614701 0.000240617)
(0.000101353 0.000630135 0.000239437)
(-8.11868e-05 0.000630784 0.000239469)
(-0.000267854 0.000616648 0.000240708)
(-0.000463489 0.000586056 0.000240676)
(-0.000670236 0.000537554 0.000231428)
(-0.00086218 0.000463614 0.000196336)
(-0.00101529 0.000369421 0.0001264)
(-0.00104485 0.000255545 1.17124e-05)
(-0.000986074 0.00016424 -4.88407e-05)
(-0.00085435 0.000196351 -6.86784e-05)
(-0.000655527 0.000181811 -7.16081e-05)
(-0.000487616 0.000163451 -6.47138e-05)
(-0.000340774 0.000141321 -5.56394e-05)
(-0.000221342 0.000122568 -4.78195e-05)
(-0.000122173 0.000109647 -4.12806e-05)
(-3.49776e-05 0.000102195 -2.70067e-05)
(3.75287e-06 9.40635e-05 7.85147e-06)
(-4.01406e-06 4.78514e-05 5.85456e-06)
(1.83457e-05 5.21679e-05 -1.59452e-05)
(7.1325e-05 5.56375e-05 -2.45718e-05)
(0.000129656 6.15444e-05 -2.80555e-05)
(0.000199159 7.06927e-05 -3.28666e-05)
(0.000284709 8.28746e-05 -4.09083e-05)
(0.000392592 9.70256e-05 -5.26229e-05)
(0.00053079 0.00011185 -6.66758e-05)
(0.000693902 0.000123628 -7.88325e-05)
(0.000880786 0.00013598 -8.15722e-05)
(0.00103249 0.000137089 -6.33404e-05)
(0.00113533 0.000191118 -7.31909e-06)
(0.00111036 0.000261325 0.000106338)
(0.000945091 0.000320224 0.000169992)
(0.000738779 0.000367685 0.000199965)
(0.000516493 0.000400149 0.000203879)
(0.000307414 0.000421436 0.000200682)
(0.000107988 0.000431918 0.000197841)
(-8.66332e-05 0.000432481 0.00019784)
(-0.000285936 0.000423109 0.000200675)
(-0.00049481 0.000402888 0.000203891)
(-0.000716782 0.000371403 0.000200102)
(-0.000923283 0.000324809 0.000170629)
(-0.00108921 0.000266523 0.00010777)
(-0.00111768 0.000196802 -4.12233e-06)
(-0.00101965 0.000142385 -6.14467e-05)
(-0.000869634 0.000142327 -8.11945e-05)
(-0.000680729 0.000131242 -8.08264e-05)
(-0.000510794 0.000121137 -7.12431e-05)
(-0.000361019 0.000108581 -6.01518e-05)
(-0.000236229 9.76696e-05 -5.1233e-05)
(-0.000131167 8.98983e-05 -4.39653e-05)
(-3.76392e-05 8.523e-05 -2.85334e-05)
(3.99621e-06 7.88952e-05 8.8036e-06)
(-4.09457e-06 3.84007e-05 6.30136e-06)
(1.95415e-05 4.17769e-05 -1.65449e-05)
(7.53436e-05 4.42169e-05 -2.56135e-05)
(0.00013645 4.82574e-05 -2.92894e-05)
(0.000208712 5.44396e-05 -3.4386e-05)
(0.000296684 6.25455e-05 -4.29685e-05)
(0.000406563 7.18324e-05 -5.55773e-05)
(0.000545465 8.17494e-05 -7.10552e-05)
(0.000709519 9.06072e-05 -8.49223e-05)
(0.000894933 0.000101718 -8.94914e-05)
(0.00105781 0.000112116 -7.11175e-05)
(0.0011793 0.000146702 -1.6684e-05)
(0.00115632 0.000189979 9.52877e-05)
(0.000984885 0.000227851 0.000154703)
(0.000769846 0.00025884 0.000180977)
(0.000537959 0.000280518 0.000181456)
(0.000320302 0.000294911 0.000176128)
(0.000112551 0.000302139 0.000172236)
(-9.01191e-05 0.000302672 0.000172219)
(-0.000297785 0.000296487 0.000176071)
(-0.000515316 0.00028307 0.00018138)
(-0.000747002 0.000262255 0.000180983)
(-0.000962405 0.000231992 0.000155171)
(-0.00113468 0.000194642 9.65541e-05)
(-0.0011615 0.000151789 -1.35395e-05)
(-0.00104466 0.000117239 -6.93222e-05)
(-0.000882991 0.000107542 -8.91946e-05)
(-0.000695328 9.73208e-05 -8.70247e-05)
(-0.000524044 8.97464e-05 -7.57991e-05)
(-0.000372941 8.1617e-05 -6.3395e-05)
(-0.000245192 7.48555e-05 -5.37012e-05)
(-0.000136579 7.00954e-05 -4.59075e-05)
(-3.89347e-05 6.71554e-05 -2.96311e-05)
(4.41095e-06 6.23112e-05 9.50899e-06)
(-4.22119e-06 2.81615e-05 6.60374e-06)
(2.02242e-05 3.05637e-05 -1.69854e-05)
(7.78958e-05 3.21156e-05 -2.63651e-05)
(0.000140775 3.46251e-05 -3.01666e-05)
(0.000214715 3.84688e-05 -3.54387e-05)
(0.000304068 4.35319e-05 -4.43447e-05)
(0.000415088 4.9446e-05 -5.74711e-05)
(0.000554634 5.61133e-05 -7.37131e-05)
(0.000720084 6.30023e-05 -8.84451e-05)
(0.000906945 7.23677e-05 -9.37986e-05)
(0.00107657 8.34607e-05 -7.55569e-05)
(0.00120744 0.000105587 -2.18115e-05)
(0.00118569 0.000132363 9.0159e-05)
(0.00101049 0.000156215 0.000147959)
(0.000790096 0.000175899 0.000172614)
(0.000552269 0.00019009 0.000171555)
(0.000329053 0.000199667 0.000165282)
(0.00011578 0.000204627 0.000160926)
(-9.23026e-05 0.000205168 0.000160905)
(-0.000305544 0.00020126 0.000165209)
(-0.000528739 0.000192644 0.000171452)
(-0.000766513 0.00017927 0.000172576)
(-0.000987458 0.000160223 0.000148366)
(-0.00116366 0.000136797 9.13496e-05)
(-0.00118943 0.000110303 -1.87683e-05)
(-0.00106312 8.82562e-05 -7.38488e-05)
(-0.000894445 7.7551e-05 -9.3594e-05)
(-0.000705121 6.87235e-05 -9.06664e-05)
(-0.000532109 6.2674e-05 -7.86188e-05)
(-0.000379888 5.72158e-05 -6.55176e-05)
(-0.000250319 5.30148e-05 -5.5378e-05)
(-0.000139574 5.01877e-05 -4.72602e-05)
(-3.94016e-05 4.84246e-05 -3.04182e-05)
(4.87358e-06 4.50216e-05 9.95076e-06)
(-4.32976e-06 1.75276e-05 6.77252e-06)
(2.05725e-05 1.89604e-05 -1.7283e-05)
(7.93496e-05 1.97577e-05 -2.68533e-05)
(0.000143288 2.10211e-05 -3.07269e-05)
(0.000218259 2.30137e-05 -3.60954e-05)
(0.000308536 2.57649e-05 -4.51748e-05)
(0.000420456 2.92409e-05 -5.85733e-05)
(0.000560845 3.35645e-05 -7.51959e-05)
(0.000727724 3.87757e-05 -9.03439e-05)
(0.000916375 4.58347e-05 -9.60274e-05)
(0.00108977 5.46074e-05 -7.78096e-05)
(0.00122502 6.75471e-05 -2.40762e-05)
(0.00120379 8.21768e-05 8.84416e-05)
(0.0010264 9.54551e-05 0.000146004)
(0.000802817 0.000106468 0.000170234)
(0.000561437 0.000114714 0.000168694)
(0.000334769 0.000120389 0.000162112)
(0.000118043 0.000123502 0.000157605)
(-9.34726e-05 0.000124085 0.000157584)
(-0.000310236 0.000122101 0.000162041)
(-0.000537017 0.000117436 0.000168593)
(-0.000778532 0.000110021 0.000170195)
(-0.00100289 9.95911e-05 0.000146402)
(-0.0011815 8.66369e-05 8.9608e-05)
(-0.00120691 7.20937e-05 -2.11007e-05)
(-0.0010762 5.90776e-05 -7.61772e-05)
(-0.000903611 5.03704e-05 -9.59159e-05)
(-0.00071234 4.34756e-05 -9.26817e-05)
(-0.000537667 3.86255e-05 -8.02464e-05)
(-0.000384292 3.48734e-05 -6.68028e-05)
(-0.000253402 3.22517e-05 -5.64313e-05)
(-0.000141289 3.06255e-05 -4.81355e-05)
(-3.96e-05 2.96371e-05 -3.0953e-05)
(5.19502e-06 2.75862e-05 1.0189e-05)
(-4.40346e-06 6.77389e-06 6.80824e-06)
(2.06491e-05 7.2283e-06 -1.74488e-05)
(7.98394e-05 7.30207e-06 -2.70956e-05)
(0.000144222 7.38951e-06 -3.09946e-05)
(0.000219706 7.64628e-06 -3.63925e-05)
(0.00031059 8.2382e-06 -4.55223e-05)
(0.000423276 9.44136e-06 -5.89951e-05)
(0.000564651 1.15409e-05 -7.5709e-05)
(0.000732791 1.49575e-05 -9.09636e-05)
(0.000922827 1.95143e-05 -9.67262e-05)
(0.0010976 2.53642e-05 -7.85308e-05)
(0.00123371 3.03139e-05 -2.47176e-05)
(0.00121229 3.41457e-05 8.82279e-05)
(0.00103388 3.77693e-05 0.000146075)
(0.000808902 4.07414e-05 0.000170434)
(0.000566021 4.33953e-05 0.000168939)
(0.000337782 4.54013e-05 0.000162365)
(0.000119463 4.67857e-05 0.000157857)
(-9.36912e-05 4.74403e-05 0.000157839)
(-0.000312134 4.73228e-05 0.000162296)
(-0.000540654 4.64344e-05 0.000168839)
(-0.000783917 4.46763e-05 0.000170396)
(-0.00100996 4.22684e-05 0.000146464)
(-0.00118987 3.88702e-05 8.93685e-05)
(-0.0012157 3.48877e-05 -2.18094e-05)
(-0.00108416 2.95894e-05 -7.69876e-05)
(-0.000910118 2.34646e-05 -9.67246e-05)
(-0.000717374 1.86806e-05 -9.34277e-05)
(-0.000541328 1.51271e-05 -8.0903e-05)
(-0.000386834 1.29592e-05 -6.73772e-05)
(-0.000255 1.17351e-05 -5.69443e-05)
(-0.000142099 1.11551e-05 -4.85933e-05)
(-3.9703e-05 1.08613e-05 -3.12693e-05)
(5.3383e-06 1.01727e-05 1.02367e-05)
(-4.44291e-06 -3.80949e-06 6.7123e-06)
(2.04525e-05 -4.33263e-06 -1.74846e-05)
(7.93623e-05 -5.01837e-06 -2.70953e-05)
(0.000143568 -6.18529e-06 -3.09748e-05)
(0.000219034 -7.80249e-06 -3.63407e-05)
(0.000310195 -9.57945e-06 -4.54035e-05)
(0.000423512 -1.09202e-05 -5.87664e-05)
(0.000565982 -1.13078e-05 -7.53146e-05)
(0.000735233 -9.70068e-06 -9.03563e-05)
(0.000926376 -7.31413e-06 -9.59559e-05)
(0.0011004 -3.23888e-06 -7.78143e-05)
(0.00123388 -5.99391e-06 -2.39317e-05)
(0.00121133 -1.36725e-05 8.92379e-05)
(0.001033 -2.03097e-05 0.000147784)
(0.000808389 -2.5907e-05 0.000172737)
(0.00056605 -2.91207e-05 0.000171753)
(0.000338122 -3.09401e-05 0.000165466)
(0.000120068 -3.13204e-05 0.000161102)
(-9.29285e-05 -3.05422e-05 0.000161085)
(-0.000311211 -2.86523e-05 0.000165408)
(-0.000539621 -2.55076e-05 0.000171662)
(-0.000782649 -2.12383e-05 0.000172694)
(-0.00100869 -1.50398e-05 0.000148137)
(-0.00118895 -8.26539e-06 9.03074e-05)
(-0.00121622 -1.05849e-06 -2.11477e-05)
(-0.00108738 9.50378e-07 -7.64062e-05)
(-0.000914061 -3.74943e-06 -9.61025e-05)
(-0.000720194 -6.74705e-06 -9.29649e-05)
(-0.000543017 -8.97337e-06 -8.06345e-05)
(-0.000387461 -9.3076e-06 -6.72722e-05)
(-0.000255083 -8.87191e-06 -5.69371e-05)
(-0.000141988 -8.20912e-06 -4.86459e-05)
(-3.96989e-05 -7.70154e-06 -3.13745e-05)
(5.31066e-06 -7.01297e-06 1.00961e-05)
(-4.46829e-06 -1.3938e-05 6.48139e-06)
(1.99189e-05 -1.54521e-05 -1.73847e-05)
(7.77833e-05 -1.70296e-05 -2.68422e-05)
(0.000141082 -1.9732e-05 -3.06528e-05)
(0.000215845 -2.37197e-05 -3.59131e-05)
(0.000306748 -2.86411e-05 -4.47727e-05)
(0.000420344 -3.35778e-05 -5.77987e-05)
(0.000564053 -3.75752e-05 -7.3819e-05)
(0.000734573 -3.82836e-05 -8.8261e-05)
(0.000927494 -3.74091e-05 -9.33061e-05)
(0.00109864 -3.14161e-05 -7.51498e-05)
(0.00122456 -4.25935e-05 -2.08321e-05)
(0.00119945 -6.52526e-05 9.28189e-05)
(0.00102252 -8.5271e-05 0.000153157)
(0.000800402 -0.000102004 0.000179724)
(0.000561024 -0.000112536 0.000180201)
(0.000335542 -0.000118992 0.000174764)
(0.000119837 -0.000121437 0.000170796)
(-9.10183e-05 -0.00012046 0.000170761)
(-0.000307078 -0.000116108 0.000174645)
(-0.000533287 -0.000107966 0.000180003)
(-0.000773754 -9.60586e-05 0.00017953)
(-0.000997816 -7.85838e-05 0.000153313)
(-0.00117725 -5.84699e-05 9.36639e-05)
(-0.00120758 -3.67653e-05 -1.82982e-05)
(-0.00108635 -2.69649e-05 -7.39685e-05)
(-0.000915856 -3.39129e-05 -9.36958e-05)
(-0.000720253 -3.57469e-05 -9.10888e-05)
(-0.000541934 -3.60984e-05 -7.93206e-05)
(-0.000385369 -3.34712e-05 -6.64219e-05)
(-0.000253034 -3.03256e-05 -5.63664e-05)
(-0.000140561 -2.76714e-05 -4.82616e-05)
(-3.9399e-05 -2.59519e-05 -3.12526e-05)
(5.16167e-06 -2.37671e-05 9.74909e-06)
(-4.54256e-06 -2.3207e-05 6.10618e-06)
(1.88765e-05 -2.5673e-05 -1.71386e-05)
(7.47498e-05 -2.82551e-05 -2.63191e-05)
(0.000136123 -3.27736e-05 -3.00015e-05)
(0.00020904 -3.96829e-05 -3.50584e-05)
(0.000298516 -4.87156e-05 -4.35169e-05)
(0.000411338 -5.87383e-05 -5.58629e-05)
(0.000556003 -6.81934e-05 -7.07571e-05)
(0.000728335 -7.26207e-05 -8.38334e-05)
(0.000926513 -7.33003e-05 -8.73667e-05)
(0.00109251 -5.64022e-05 -6.95038e-05)
(0.00120198 -7.79825e-05 -1.43222e-05)
(0.00117155 -0.000124864 0.000100673)
(0.000997981 -0.000164432 0.000164774)
(0.000781669 -0.000196829 0.000194622)
(0.000549034 -0.000217429 0.000198198)
(0.000329068 -0.000230158 0.000194622)
(0.000118521 -0.000235352 0.000191534)
(-8.75698e-05 -0.000234063 0.000191449)
(-0.000298606 -0.000226319 0.000194351)
(-0.000519564 -0.000211278 0.000197736)
(-0.000753782 -0.000188676 0.000194058)
(-0.000972691 -0.000155171 0.000164468)
(-0.00114969 -0.000115391 0.000101033)
(-0.00118614 -7.02292e-05 -1.22818e-05)
(-0.00108131 -5.11992e-05 -6.87053e-05)
(-0.000915746 -6.92944e-05 -8.81727e-05)
(-0.000715014 -6.989e-05 -8.70071e-05)
(-0.00053513 -6.69645e-05 -7.65034e-05)
(-0.00037803 -5.95119e-05 -6.46012e-05)
(-0.000247065 -5.21726e-05 -5.51067e-05)
(-0.000136712 -4.65819e-05 -4.73606e-05)
(-3.82503e-05 -4.31799e-05 -3.08679e-05)
(5.08997e-06 -3.94281e-05 9.12031e-06)
(-4.68251e-06 -3.12e-05 5.60638e-06)
(1.72561e-05 -3.46024e-05 -1.67268e-05)