/*--------------------------------*- C++ -*----------------------------------*\
| =========                 |                                                 |
| \\      /  F ield         | OpenFOAM: The Open Source CFD Toolbox           |
|  \\    /   O peration     | Version:  2112                                  |
|   \\  /    A nd           | Website:  www.openfoam.com                      |
|    \\/     M anipulation  |                                                 |
\*---------------------------------------------------------------------------*/
FoamFile
{
    version     2.0;
    format      ascii;
    arch        "LSB;label=32;scalar=64";
    class       volScalarField;
    location    "3.5";
    object      epsilon;
}
// * * * * * * * * * * * * * * * * * * * * * * * * * * * * * * * * * * * * * //

dimensions      [0 2 -3 0 0 0 0];

internalField   nonuniform List<scalar> 
64906
(
0.000203071
0.000238144
0.000260397
0.000271245
0.00027606
0.000278053
0.000278824
0.000279098
0.000279179
0.000279186
0.000279168
0.000279149
0.000279132
0.000279117
0.000279103
0.000279089
0.000279075
0.000279064
0.000279059
0.000279065
0.000279077
0.00027909
0.000279103
0.000279115
0.000279124
0.000279116
0.000279048
0.000278794
0.00027804
0.000276059
0.000271252
0.000260411
0.000238162
0.000203085
0.000238167
0.00043767
0.000558444
0.000622794
0.000655279
0.000670617
0.000677286
0.00067987
0.000680653
0.000680696
0.000680482
0.000680227
0.000680032
0.000679915
0.000679856
0.000679824
0.000679805
0.000679794
0.000679795
0.000679805
0.000679826
0.000679856
0.000679906
0.000679989
0.000680075
0.000679999
0.000679293
0.000676867
0.000670376
0.000655187
0.000622804
0.000558506
0.000437736
0.000238206
0.000260459
0.000558502
0.000748131
0.00085497
0.000912129
0.000940695
0.000953714
0.000958805
0.000960092
0.000959701
0.00095874
0.000957792
0.000957109
0.000956729
0.000956555
0.000956472
0.000956424
0.000956402
0.000956405
0.000956434
0.000956487
0.000956568
0.000956719
0.000957013
0.000957424
0.000957597
0.000956524
0.000951969
0.000939587
0.000911575
0.000854802
0.000748171
0.000558615
0.000260528
0.000271337
0.000622916
0.000855046
0.000990908
0.00106632
0.0011052
0.0011231
0.00112955
0.00113007
0.00112782
0.00112473
0.001122
0.0011201
0.00111907
0.00111859
0.00111833
0.00111816
0.00111808
0.00111808
0.00111818
0.00111835
0.00111861
0.00111904
0.00111993
0.00112139
0.0011229
0.00112288
0.00111788
0.00110175
0.00106442
0.000990104
0.000854868
0.000623008
0.000271428
0.000276169
0.000655447
0.000912276
0.00106641
0.00115385
0.00119938
0.00121958
0.00122495
0.00122194
0.00121481
0.00120683
0.00120034
0.00119606
0.00119386
0.0011929
0.0011923
0.00119186
0.00119164
0.00119165
0.00119188
0.00119233
0.00119292
0.00119383
0.00119584
0.00119954
0.00120444
0.00120847
0.00120656
0.00119064
0.00114887
0.00106408
0.0009115
0.000655393
0.00027627
0.000278172
0.000670813
0.000940913
0.00110542
0.00119958
0.00124791
0.00126692
0.0012672
0.00125565
0.00123805
0.00122029
0.00120727
0.00119935
0.00119575
0.00119441
0.00119333
0.00119244
0.00119196
0.00119197
0.00119246
0.00119337
0.00119445
0.00119573
0.00119912
0.00120638
0.00121759
0.00123085
0.00123824
0.00122868
0.00118852
0.00110006
0.000938892
0.000670403
0.000278263
0.000278946
0.000677506
0.000954039
0.00112358
0.00122029
0.0012677
0.00128124
0.00127045
0.00124206
0.00120411
0.00116854
0.00114702
0.00113588
0.00113208
0.00113142
0.00112991
0.00112841
0.00112761
0.00112762
0.00112844
0.00112996
0.00113146
0.00113208
0.00113567
0.00114617
0.00116582
0.00119665
0.00122373
0.00122973
0.00119862
0.00111298
0.000949842
0.000676431
0.000279
0.000279217
0.000680131
0.000959336
0.00113061
0.00122688
0.00127007
0.00127336
0.00124349
0.00118513
0.001109
0.00104126
0.00101688
0.00100993
0.00101091
0.00101367
0.00101234
0.00101044
0.00100945
0.00100946
0.00101048
0.0010124
0.00101374
0.00101095
0.00100981
0.00101621
0.00103886
0.00110187
0.00116682
0.00120209
0.00118896
0.00111219
0.0009519
0.000678046
0.000279199
0.000279295
0.000681
0.000961025
0.00113226
0.00122634
0.00126307
0.00125199
0.00119405
0.00108627
0.000936418
0.000801886
0.000811245
0.000835252
0.000852382
0.00086244
0.000863009
0.000861879
0.000861226
0.000861238
0.000861915
0.000863067
0.000862519
0.00085246
0.000835256
0.000810906
0.000800197
0.000930234
0.00106869
0.00115292
0.0011672
0.00110407
0.000949621
0.000677667
0.000279173
0.000279303
0.000681201
0.000961318
0.00113192
0.00122351
0.00125368
0.00122747
0.00113631
0.000956658
0.00066391
0.000382048
0.000533288
0.000645766
0.000693535
0.000711969
0.000716897
0.000717983
0.000718156
0.000718166
0.000718014
0.00071695
0.00071205
0.000693643
0.000645894
0.000533369
0.000381585
0.000659517
0.000940298
0.00109581
0.00114284
0.00109443
0.000946241
0.00067671
0.000279066
0.000279289
0.000681225
0.00096135
0.00113161
0.00122191
0.00124859
0.00121374
0.00110025
0.000856466
0.000398822
0.000327298
0.000515364
0.000584759
0.000606423
0.00061358
0.000615624
0.000616091
0.000616096
0.000615641
0.000613612
0.000606477
0.00058485
0.000515506
0.000327376
0.000396991
0.000841318
0.0010602
0.00112922
0.00108923
0.000944394
0.000676143
0.000278982
0.000279272
0.000681264
0.000961595
0.00113225
0.00122332
0.00125183
0.00122215
0.00112508
0.000937531
0.000637937
0.000364191
0.000468395
0.000559602
0.000596663
0.000607411
0.000613786
0.000615601
0.000615881
0.000615879
0.000615596
0.000613779
0.0006074
0.000596652
0.000559582
0.000468236
0.000363593
0.000633389
0.000921155
0.00108453
0.00113731
0.00109214
0.00094542
0.000676389
0.000278981
0.000279262
0.000681355
0.000962088
0.00113367
0.00122686
0.00126017
0.00124146
0.00116972
0.00104049
0.000861723
0.000693936
0.000648792
0.000629474
0.000623537
0.000621437
0.000621953
0.00062203
0.000621913
0.000621907
0.000622012
0.00062192
0.000621379
0.000623438
0.000629268
0.000648236
0.000692124
0.000855605
0.00102305
0.00112849
0.00115609
0.00109998
0.000948438
0.000677264
0.000279038
0.00027925
0.000681464
0.000962661
0.00113533
0.0012309
0.00126926
0.00126075
0.00120858
0.00111395
0.00098584
0.000852368
0.000751554
0.000679331
0.00064665
0.000634659
0.000630887
0.000629623
0.000629188
0.000629178
0.000629593
0.000630836
0.000634575
0.000646505
0.00067905
0.000750853
0.000850086
0.000978982
0.00109577
0.00116668
0.00117477
0.00110848
0.000951871
0.000678289
0.000279098
0.000279235
0.000681556
0.000963159
0.00113674
0.00123426
0.00127647
0.001275
0.00123453
0.00115684
0.00104744
0.000921531
0.000801334
0.000706823
0.000660915
0.000643225
0.000637161
0.00063514
0.00063449
0.000634476
0.000635099
0.000637096
0.000643126
0.000660753
0.000706516
0.000800573
0.000919056
0.00104022
0.00113819
0.00119211
0.00118847
0.00111513
0.000954665
0.00067913
0.000279132
0.000279215
0.000681613
0.000963512
0.00113774
0.00123656
0.00128119
0.00128381
0.00124941
0.00117922
0.00107636
0.00095142
0.000823594
0.00071982
0.000668076
0.000647669
0.000640522
0.000638109
0.000637309
0.000637289
0.000638057
0.000640447
0.000647562
0.000667906
0.000719501
0.000822738
0.000948855
0.00106895
0.00116028
0.00120663
0.00119687
0.00111941
0.000956514
0.000679678
0.000279138
0.000279192
0.000681638
0.000963723
0.00113833
0.00123788
0.00128383
0.00128851
0.0012569
0.00118974
0.00108899
0.000963733
0.000832825
0.000725247
0.000671136
0.000649588
0.000641972
0.000639361
0.000638447
0.000638418
0.000639298
0.000641889
0.000649474
0.00067096
0.00072492
0.000831921
0.000961125
0.00108148
0.00117064
0.0012139
0.0012013
0.00112176
0.000957548
0.000679971
0.000279122
0.00027917
0.00068164
0.000963823
0.0011386
0.00123849
0.00128499
0.0012905
0.00125994
0.00119383
0.00109366
0.000968107
0.000836065
0.000727149
0.000672212
0.000650254
0.000642458
0.00063975
0.000638751
0.000638713
0.000639678
0.000642368
0.000650135
0.000672032
0.00072682
0.000835156
0.000965483
0.00108611
0.00117466
0.00121684
0.00120317
0.00112278
0.000958004
0.000680088
0.000279095
0.000279152
0.000681631
0.000963835
0.00113863
0.00123853
0.00128505
0.00129058
0.00126005
0.00119395
0.00109381
0.000968255
0.000836202
0.000727244
0.000672267
0.000650276
0.000642452
0.000639712
0.000638662
0.000638617
0.000639632
0.000642357
0.000650154
0.000672086
0.000726916
0.0008353
0.00096564
0.00108626
0.00117479
0.00121695
0.00120325
0.00112283
0.000958033
0.000680083
0.000279066
0.000279149
0.000681617
0.000963759
0.00113841
0.00123801
0.00128401
0.00128875
0.00125721
0.00119013
0.00108944
0.000964201
0.000833264
0.000725548
0.000671315
0.000649666
0.000641967
0.000639262
0.000638216
0.000638168
0.000639177
0.000641869
0.000649543
0.000671136
0.000725227
0.000832384
0.000961623
0.00108195
0.00117105
0.00121423
0.00120155
0.00112193
0.000957638
0.000679965
0.000279055
0.000279163
0.000681592
0.000963572
0.00113787
0.00123676
0.00128149
0.00128422
0.00124994
0.00117989
0.00107715
0.000952279
0.000824416
0.000720377
0.000668416
0.000647834
0.000640547
0.000637986
0.00063702
0.000636976
0.000637903
0.000640449
0.000647714
0.000668247
0.000720078
0.000823584
0.000949781
0.0010698
0.001161
0.00120719
0.00119728
0.00111969
0.000956666
0.000679684
0.000279061
0.000279181
0.000681542
0.00096324
0.00113691
0.00123453
0.00127687
0.00127556
0.00123528
0.00115783
0.00104866
0.000922922
0.000802524
0.000707705
0.000661451
0.000643499
0.000637235
0.00063503
0.000634223
0.000634189
0.000634954
0.000637143
0.000643389
0.000661302
0.000707449
0.000801828
0.000920582
0.00104156
0.00113926
0.00119291
0.00118904
0.00111551
0.000954875
0.000679158
0.000279053
0.000279196
0.000681452
0.000962744
0.0011355
0.00123119
0.0012697
0.00126139
0.0012095
0.00111525
0.000987603
0.00085448
0.00075332
0.00068051
0.000647263
0.000634896
0.000630856
0.000629397
0.000628838
0.000628814
0.000629335
0.000630773
0.000634796
0.000647135
0.000680317
0.000752803
0.000852439
0.000980938
0.00109716
0.00116762
0.0011754
0.00110889
0.000952107
0.000678332
0.000279017
0.000279206
0.000681323
0.000962109
0.00113374
0.001227
0.00126045
0.00124196
0.00117058
0.00104194
0.00086395
0.000696835
0.000651175
0.00063031
0.000623388
0.000620723
0.000620873
0.000620753
0.000620539
0.00062052
0.000620697
0.000620779
0.000620581
0.000623198
0.000630116
0.000650919
0.000695394
0.000858085
0.00102447
0.0011292
0.00115649
0.00110024
0.000948598
0.000677289
0.000278955
0.00027921
0.000681134
0.000961367
0.0011319
0.0012229
0.00125142
0.00122189
0.00112522
0.000938509
0.000640194
0.000365468
0.000469014
0.000557022
0.000592224
0.000601826
0.000607611
0.000609198
0.000609389
0.000609363
0.000609107
0.000607401
0.000601389
0.000591506
0.000556233
0.000468826
0.000364914
0.000635826
0.000921534
0.00108398
0.00113669
0.00109175
0.00094524
0.000676293
0.000278889
0.0002792
0.000680777
0.000960365
0.00113005
0.00121987
0.00124619
0.00121111
0.00109756
0.000854291
0.000398139
0.000321807
0.000500298
0.000563927
0.000581948
0.000587757
0.000589401
0.000589733
0.000589663
0.000589125
0.000587046
0.00058033
0.000560867
0.00049602
0.000319299
0.00039506
0.000836406
0.00105531
0.00112565
0.00108702
0.000943231
0.000675666
0.00027886
0.000279127
0.000679844
0.000958312
0.00112726
0.00121744
0.0012465
0.00121934
0.00112714
0.00094658
0.000654193
0.000374959
0.000501964
0.000595277
0.000625833
0.000632981
0.00063491
0.0006355
0.000635605
0.000635461
0.000634885
0.000633123
0.00062841
0.000616015
0.000578863
0.000485947
0.000367979
0.00064001
0.000921582
0.00108143
0.00113294
0.00108813
0.000942699
0.000675231
0.00027884
0.000278872
0.00067727
0.000953079
0.00112032
0.00121111
0.00124522
0.00123164
0.00117028
0.00105686
0.0008976
0.000747298
0.00072378
0.000710074
0.000688435
0.000675456
0.000670277
0.000668598
0.000668079
0.000667851
0.000667563
0.000667014
0.000666343
0.000666587
0.000668854
0.000678155
0.00070841
0.000862677
0.00102064
0.00111974
0.00114464
0.00108915
0.000940695
0.000673708
0.000278687
0.000278121
0.0006707
0.0009403
0.00110305
0.00119262
0.00123072
0.00122939
0.00119329
0.00112402
0.00102814
0.000927005
0.000851228
0.000780375
0.00071791
0.000687682
0.000676379
0.000672731
0.000671666
0.000671383
0.000671395
0.000671944
0.000674541
0.000683981
0.000711624
0.000774823
0.000860549
0.000975206
0.00107843
0.0011398
0.00114427
0.00108054
0.000931557
0.000668317
0.000278034
0.000276141
0.000655472
0.00091209
0.00106517
0.00114965
0.0011884
0.00119497
0.00117588
0.00113356
0.0010705
0.000993062
0.000910076
0.000823453
0.000747871
0.000710994
0.000696897
0.000692232
0.000690861
0.000690545
0.000690727
0.000691874
0.000696129
0.000709647
0.000746262
0.00082379
0.000917825
0.00101218
0.00108643
0.00112481
0.0011167
0.00105031
0.0009066
0.000654123
0.000276135
0.000271329
0.00062306
0.000855222
0.000990641
0.0010645
0.00109954
0.00110937
0.00110079
0.00107602
0.00103541
0.000979924
0.000912886
0.000840748
0.000777995
0.000744421
0.00073057
0.000725656
0.000724148
0.000723835
0.000724084
0.000725519
0.000730299
0.000743996
0.000777617
0.000841598
0.000916612
0.0009862
0.0010367
0.00105866
0.00104421
0.00098199
0.000852304
0.000622491
0.000271378
0.000260475
0.000558721
0.000748525
0.000855328
0.000911921
0.000938775
0.000947859
0.000945102
0.000932377
0.000909412
0.00087573
0.000832708
0.000785592
0.000744613
0.000720899
0.000710247
0.000706278
0.000705018
0.000704743
0.000704996
0.000706222
0.000710142
0.000720757
0.000744583
0.000786059
0.000834038
0.000877018
0.000906439
0.000916584
0.000901581
0.000851319
0.000747423
0.000558651
0.00026056
0.000238208
0.000437874
0.000558846
0.000623339
0.000655789
0.000670685
0.000676068
0.0006758
0.000671084
0.000661655
0.000646862
0.000627052
0.000604809
0.000585125
0.000573095
0.000567376
0.000565131
0.000564381
0.000564215
0.000564387
0.000565137
0.000567377
0.000573094
0.000585171
0.000605002
0.000627434
0.000646886
0.00065939
0.000662332
0.00065228
0.000622253
0.000558746
0.000438017
0.000238291
0.00020311
0.000238255
0.000260611
0.000271557
0.000276458
0.000278514
0.000279285
0.000279418
0.000279084
0.00027821
0.00027676
0.000274628
0.000272032
0.000269588
0.000268038
0.000267261
0.000266912
0.000266748
0.000266691
0.000266756
0.00026692
0.000267265
0.000268035
0.000269579
0.000272023
0.000274624
0.000276714
0.000277959
0.000278062
0.000276442
0.000271704
0.000260774
0.000238368
0.000203167
0.000270406
0.000393865
0.00047562
0.000519533
0.000541332
0.000551406
0.000555695
0.000557322
0.000557799
0.000557808
0.000557651
0.000557465
0.000557311
0.000557204
0.000557135
0.000557087
0.000557054
0.000557037
0.000557035
0.000557049
0.000557079
0.000557123
0.000557185
0.00055727
0.000557355
0.000557335
0.000556914
0.000555387
0.000551208
0.000541224
0.000519489
0.000475613
0.000393875
0.000270421
0.000393871
0.000488032
0.000579964
0.000634704
0.000663689
0.000677744
0.000683958
0.000686378
0.000687088
0.00068708
0.000686819
0.000686521
0.000686283
0.000686127
0.000686035
0.000685978
0.000685943
0.000685926
0.000685927
0.000685944
0.000685979
0.000686034
0.000686116
0.000686237
0.000686363
0.000686333
0.0006857
0.000683436
0.0006774
0.000663498
0.00063462
0.000579941
0.000488035
0.000393884
0.000475666
0.000579989
0.000692326
0.000763069
0.000802552
0.000822653
0.000831887
0.000835488
0.000836357
0.000836011
0.000835248
0.000834488
0.000833919
0.000833565
0.000833368
0.000833255
0.000833186
0.000833152
0.000833153
0.000833189
0.000833259
0.000833368
0.000833545
0.000833832
0.000834198
0.000834388
0.00083367
0.000830454
0.000821684
0.000801994
0.000762805
0.000692236
0.000579982
0.000475691
0.000519624
0.000634761
0.000763106
0.000846512
0.000894577
0.000919725
0.000931351
0.000935524
0.000935819
0.000934308
0.000932264
0.000930446
0.000929165
0.000928414
0.000928019
0.000927794
0.000927653
0.000927582
0.000927583
0.000927658
0.0009278
0.000928019
0.000928383
0.000929032
0.000930012
0.000931012
0.000930999
0.000927733
0.000917242
0.000893113
0.000845784
0.00076282
0.000634695
0.000519635
0.00054146
0.000663776
0.000802629
0.000894629
0.000948611
0.00097706
0.000989723
0.000993093
0.000991236
0.000986867
0.000982035
0.000978121
0.00097556
0.000974167
0.000973479
0.000973083
0.000972816
0.000972675
0.000972677
0.000972823
0.000973092
0.00097348
0.000974128
0.000975391
0.000977571
0.000980462
0.000982766
0.000981398
0.000971313
0.000945181
0.00089287
0.00080188
0.000663537
0.00054139
0.000551563
0.000677857
0.00082278
0.000919863
0.000977187
0.00100693
0.0010187
0.00101898
0.00101215
0.00100185
0.000991647
0.000984163
0.00097979
0.000977678
0.000976734
0.000976184
0.000975752
0.000975506
0.000975509
0.000975762
0.000976197
0.000976739
0.00097764
0.000979608
0.000983549
0.000989872
0.000997221
0.00100112
0.000994831
0.00096996
0.000916106
0.00082111
0.000677248
0.000551287
0.000555877
0.000684102
0.000832098
0.000931673
0.00099018
0.00101918
0.00102763
0.00102147
0.00100509
0.000983668
0.000964094
0.000951503
0.000945676
0.000943532
0.000942761
0.000942357
0.000941835
0.000941482
0.000941486
0.000941847
0.000942374
0.000942773
0.000943506
0.000945507
0.00095089
0.000962254
0.000978786
0.000993399
0.000995925
0.00097642
0.000924514
0.000828853
0.000682839
0.000555215
0.000557537
0.000686577
0.000835864
0.000936233
0.000994313
0.00102073
0.0010232
0.00100624
0.000973601
0.000932809
0.000898571
0.000879615
0.00087572
0.000876216
0.000876698
0.000877503
0.000877319
0.000876985
0.00087699
0.000877334
0.000877526
0.000876722
0.000876213
0.000875594
0.000879068
0.00089678
0.000927883
0.00096162
0.000979995
0.000970688
0.00092406
0.000830313
0.000684344
0.000556284
0.000558071
0.000687393
0.000837044
0.000937272
0.000993973
0.00101659
0.00101095
0.000978951
0.000921953
0.000850671
0.000802836
0.000768372
0.000776444
0.000785933
0.000788979
0.000793747
0.000795088
0.000795147
0.000795153
0.000795106
0.000793777
0.000789014
0.00078596
0.000776389
0.000767953
0.000801107
0.000845762
0.000909841
0.000952343
0.000957785
0.000918931
0.000828703
0.000683979
0.000556082
0.000558174
0.000687567
0.000837212
0.000936998
0.000992192
0.00101107
0.000997397
0.000949621
0.000865388
0.000765324
0.00088656
0.000633616
0.000666214
0.000693423
0.000698892
0.000711563
0.000715728
0.000716517
0.000716523
0.000715748
0.000711597
0.000698935
0.000693482
0.000666249
0.000633369
0.000883553
0.000759948
0.000852989
0.000922711
0.000943831
0.000912901
0.000826312
0.000683066
0.000555499
0.000558155
0.000687568
0.000837179
0.000936719
0.000991133
0.0010081
0.000990311
0.000935189
0.00084855
0.000961102
0.000651009
0.000576716
0.000612861
0.000632409
0.000635628
0.000636028
0.000636063
0.000636066
0.000636038
0.000635646
0.000632442
0.000612914
0.000576775
0.000651087
0.000949847
0.000835431
0.00090799
0.000936496
0.00090964
0.000824944
0.000682489
0.000555112
0.000558135
0.000687584
0.000837289
0.000937021
0.000991818
0.00100963
0.000993737
0.000941994
0.000851002
0.00073756
0.000798799
0.000578052
0.000629946
0.000670948
0.000706948
0.000687702
0.000680271
0.000678644
0.000678639
0.000680257
0.000687676
0.000706934
0.000670927
0.000629887
0.000577677
0.000795634
0.000732099
0.000838502
0.000914908
0.000939882
0.000911048
0.000825468
0.000682648
0.000555181
0.000558143
0.000687658
0.000837582
0.000937846
0.000993853
0.00101431
0.00100404
0.000963521
0.000892231
0.000797923
0.000715614
0.00065492
0.000646743
0.00064683
0.000652393
0.000646439
0.00064353
0.000642704
0.000642701
0.000643521
0.000646423
0.000652375
0.000646777
0.000646592
0.000654405
0.000713824
0.000792933
0.000879938
0.000936522
0.000950183
0.000915667
0.000827399
0.000683396
0.000555607
0.000558162
0.000687759
0.000837945
0.000938844
0.000996258
0.00101965
0.00101513
0.000985076
0.00093069
0.000857124
0.000779409
0.000715126
0.000675009
0.000650608
0.000641403
0.00063699
0.00063529
0.00063477
0.000634767
0.000635281
0.000636971
0.000641367
0.000650525
0.000674808
0.000714542
0.000777597
0.000852098
0.000918364
0.000958034
0.000961204
0.000920902
0.000829687
0.000684312
0.000556125
0.000558176
0.000687851
0.000838268
0.000939713
0.000998294
0.00102399
0.00102366
0.00100051
0.000955951
0.000893041
0.000819967
0.000749821
0.000695962
0.00066012
0.000644676
0.000639109
0.000637313
0.000636806
0.000636803
0.000637302
0.000639087
0.000644632
0.000660026
0.000695742
0.000749199
0.000818091
0.000887925
0.000943523
0.000973354
0.000969612
0.000925106
0.000831588
0.000685086
0.000556545
0.000558175
0.000687915
0.000838498
0.000940325
0.000999691
0.00102687
0.00102905
0.00100967
0.000969927
0.000911553
0.000840093
0.000766787
0.000707039
0.000666207
0.000648093
0.000641664
0.000639659
0.000639112
0.000639108
0.000639647
0.00064164
0.000648046
0.000666108
0.000706812
0.000766141
0.000838172
0.000906362
0.000957401
0.000982402
0.000974864
0.000927843
0.000832858
0.000685604
0.000556807
0.000558163
0.000687951
0.000838635
0.000940686
0.0010005
0.00102847
0.00103194
0.00101436
0.00097669
0.00092001
0.000848897
0.00077409
0.000711884
0.000669015
0.000649814
0.000642976
0.00064085
0.000640271
0.000640266
0.000640837
0.000642951
0.000649766
0.000668914
0.000711652
0.000773422
0.00084695
0.000914772
0.000964095
0.000987006
0.000977658
0.000929348
0.00083357
0.000685892
0.000556934
0.000558146
0.000687965
0.000838698
0.00094085
0.00100086
0.00102917
0.00103316
0.00101627
0.000979336
0.000923184
0.000852088
0.000776692
0.000713604
0.000670024
0.000650441
0.00064345
0.000641274
0.000640675
0.000640669
0.000641259
0.000643425
0.000650392
0.000669922
0.00071337
0.000776016
0.00085013
0.000917926
0.000966708
0.000988871
0.000978826
0.000929992
0.000833879
0.000686015
0.000556971
0.000558131
0.000687964
0.000838702
0.000940859
0.00100087
0.00102919
0.00103319
0.00101631
0.000979389
0.000923248
0.000852159
0.000776763
0.000713662
0.000670063
0.000650461
0.000643459
0.000641275
0.00064067
0.000640663
0.00064126
0.000643433
0.000650412
0.000669961
0.00071343
0.000776091
0.000850205
0.000917993
0.000966763
0.000988914
0.000978856
0.000930011
0.000833889
0.000686016
0.000556953
0.000558125
0.000687948
0.000838647
0.000940712
0.00100054
0.00102854
0.00103203
0.00101449
0.000976854
0.000920209
0.000849123
0.000774319
0.000712071
0.000669142
0.000649885
0.000643013
0.000640867
0.000640269
0.000640262
0.000640851
0.000642988
0.000649837
0.000669043
0.000711846
0.00077366
0.000847189
0.000914984
0.000964267
0.000987135
0.000977749
0.000929405
0.000833601
0.000685898
0.000556887
0.000558125
0.000687913
0.000838516
0.000940367
0.000999763
0.00102698
0.0010292
0.00100989
0.000970216
0.000911915
0.000840514
0.000767214
0.000707392
0.00066645
0.000648239
0.000641755
0.000639719
0.000639148
0.000639142
0.000639705
0.000641733
0.000648196
0.000666361
0.000707183
0.000766584
0.000838622
0.000906749
0.000957704
0.000982624
0.000975016
0.000927938
0.000832909
0.000685617
0.000556746
0.000558119
0.000687849
0.000838289
0.000939763
0.000998384
0.00102414
0.00102388
0.00100082
0.000956379
0.000893607
0.000820648
0.0007505
0.000696518
0.000660487
0.000644888
0.00063925
0.000637419
0.000636891
0.000636887
0.000637409
0.000639234
0.000644855
0.000660414
0.000696339
0.00074993
0.000818829
0.000888531
0.000943967
0.000973658
0.00096981
0.000925227
0.000831653
0.000685105
0.000556477
0.000558097
0.00068775
0.000837953
0.000938878
0.000996332
0.00101979
0.00101535
0.000985432
0.000931236
0.000857912
0.000780411
0.000716115
0.000675681
0.000650909
0.000641438
0.000636949
0.000635221
0.000634686
0.000634684
0.000635213
0.000636934
0.000641406
0.000650843
0.00067553
0.000715619
0.000778689
0.000852928
0.000918895
0.000958346
0.000961383
0.000921004
0.000829739
0.000684326
0.000556047
0.000558055
0.000687616
0.000837529
0.000937788
0.000993807
0.00101431
0.00100412
0.000963758
0.000892732
0.000798815
0.000716905
0.000656
0.000646864
0.000646159
0.000651191
0.000645168
0.000642228
0.000641388
0.000641385
0.000642212
0.000645124
0.000651102
0.000645999
0.000646631
0.000655525
0.000715201
0.000793767
0.000880257
0.000936569
0.000950138
0.000915614
0.00082736
0.000683366
0.000555497
0.000557979
0.000687431
0.000837034
0.000936661
0.000991379
0.00100915
0.000993269
0.00094161
0.000850839
0.000737875
0.00080159
0.000577125
0.000626963
0.000666427
0.000701475
0.000681878
0.000674299
0.000672647
0.000672641
0.00067426
0.000681737
0.000701163
0.000665744
0.000625962
0.000575956
0.000798466
0.000731704
0.000837528
0.000913898
0.000939079
0.000910499
0.000825136
0.000682469
0.000554975
0.000557791
0.000687085
0.000836349
0.000935526
0.000989621
0.00100632
0.000988288
0.000932863
0.000845694
0.000954693
0.000628671
0.000559297
0.000591112
0.000607459
0.000609405
0.000609482
0.000609454
0.0006094
0.000609253
0.000608757
0.000605889
0.000587918
0.000554041
0.00061891
0.000937135
0.000829719
0.000903969
0.000933722
0.000907826
0.000823848
0.000681903
0.000554645
0.000557229
0.000686185
0.00083489
0.000933717
0.000988065
0.00100621
0.000991747
0.000942824
0.000856469
0.000751066
0.000843331
0.000596711
0.000617783
0.000632852
0.000630543
0.000639441
0.00064279
0.000643494
0.000643375
0.000642259
0.000637842
0.00062638
0.000623914
0.000602868
0.000577523
0.000810362
0.000733846
0.000837319
0.000912321
0.000936853
0.000908283
0.000823424
0.000681461
0.000554376
0.000555604
0.000683734
0.000831146
0.000929175
0.000983995
0.001005
0.000997644
0.000963058
0.000901293
0.000820602
0.000754743
0.000699279
0.000681634
0.000667503
0.00065532
0.000653241
0.000652943
0.000652796
0.000652597
0.000652028
0.000650356
0.000647502
0.000650238
0.000654075
0.000666465
0.000723237
0.00079576
0.000877403
0.000930608
0.000942825
0.000908593
0.000821881
0.000679962
0.000553361
0.000551364
0.000677585
0.000822052
0.00091791
0.0009723
0.000995734
0.000995266
0.000974158
0.000934143
0.000879854
0.000822933
0.000772601
0.000732343
0.000701747
0.00067913
0.000669742
0.000666625
0.000665692
0.000665425
0.00066537
0.000665659
0.000667707
0.000676376
0.000697207
0.000730082
0.000783901
0.000848637
0.000906593
0.000940782
0.000941855
0.000902751
0.000815301
0.000674898
0.000549808
0.000541345
0.000663622
0.000802191
0.000893388
0.000945386
0.000969507
0.000973724
0.000962269
0.000937096
0.000900241
0.000855685
0.000808197
0.000762131
0.000725296
0.000698298
0.000686169
0.000681864
0.000680542
0.000680232
0.000680421
0.000681525
0.000685471
0.000697266
0.000724231
0.000763047
0.000814587
0.00086746
0.000909276
0.000930485
0.000924181
0.000883044
0.0007977
0.000661901
0.000540395
0.000519584
0.000634708
0.000762924
0.000845904
0.00089282
0.000915343
0.000921683
0.000916287
0.000900918
0.000876218
0.000843161
0.000803908
0.000762734
0.000727461
0.000703638
0.000692371
0.000688079
0.000686682
0.000686365
0.000686646
0.000687981
0.000692173
0.00070337
0.000727381
0.000763708
0.000806937
0.000847416
0.00087681
0.000889131
0.000879053
0.000839425
0.000760227
0.000633735
0.000519094
0.000475682
0.000580004
0.000692321
0.000762904
0.00080184
0.000820562
0.000826849
0.000824835
0.000816017
0.000800482
0.000778156
0.000750053
0.000719549
0.000692819
0.000675213
0.000666529
0.000663038
0.000661845
0.000661573
0.000661846
0.00066303
0.000666505
0.000675197
0.000692942
0.000720117
0.000751266
0.00077918
0.000798262
0.000804545
0.000793801
0.000759314
0.000690919
0.000579545
0.0004755
0.000393917
0.000488073
0.000580044
0.000634776
0.000663577
0.000677037
0.000681837
0.000681361
0.000676753
0.000667911
0.000654456
0.000636789
0.000617139
0.00059971
0.000588387
0.000582719
0.00058038
0.000579559
0.000579372
0.000579574
0.000580406
0.000582753
0.000588439
0.000599834
0.00061743
0.000637248
0.000654513
0.000665747
0.000668478
0.000659544
0.000633117
0.000579466
0.000487918
0.000393903
0.000270446
0.000393916
0.000475756
0.000519742
0.000541511
0.000551304
0.000554787
0.000554622
0.000551619
0.000545591
0.000536104
0.000523309
0.000508841
0.000496003
0.000488073
0.000484246
0.000482681
0.000482119
0.000481987
0.000482134
0.000482706
0.000484277
0.000488111
0.000496075
0.000509001
0.00052356
0.000536089
0.000544098
0.00054591
0.000539163
0.0005189
0.000475535
0.000393894
0.000270497
0.000311614
0.000507501
0.000642035
0.000717626
0.000757108
0.000776328
0.000784922
0.000788311
0.000789306
0.00078927
0.000788851
0.000788365
0.00078796
0.00078768
0.000787504
0.000787391
0.00078732
0.000787285
0.000787284
0.000787318
0.000787386
0.000787492
0.000787649
0.000787871
0.000788105
0.00078811
0.000787246
0.000784096
0.000775769
0.000756778
0.000717458
0.000641965
0.000507484
0.000311629
0.000507502
0.000577857
0.000675575
0.000738203
0.000773167
0.000790912
0.00079909
0.000802393
0.000803385
0.000803366
0.000802972
0.000802518
0.000802145
0.000801892
0.000801737
0.000801643
0.000801586
0.000801559
0.00080156
0.000801587
0.000801643
0.000801732
0.000801868
0.000802063
0.00080226
0.000802224
0.000801338
0.000798259
0.000790341
0.000772825
0.000738026
0.000675497
0.000577824
0.000507481
0.000642084
0.000675591
0.000775032
0.00084418
0.000885099
0.000906891
0.000917289
0.000921475
0.000922508
0.000922085
0.000921137
0.000920171
0.000919419
0.000918925
0.000918633
0.000918462
0.000918362
0.000918314
0.000918314
0.000918363
0.000918462
0.000918624
0.000918886
0.000919286
0.000919766
0.000920006
0.000919148
0.000915416
0.000905576
0.000884294
0.000843753
0.00077484
0.000675517
0.000642039
0.000717738
0.000738249
0.00084421
0.000920787
0.000967576
0.000993127
0.00100536
0.00100988
0.00101023
0.00100859
0.00100632
0.00100425
0.00100273
0.00100178
0.00100124
0.00100093
0.00100076
0.00100067
0.00100067
0.00100076
0.00100094
0.00100123
0.00100173
0.00100254
0.00100368
0.00100478
0.0010047
0.00100113
0.000990124
0.00096571
0.000919774
0.000843736
0.000738057
0.000717602
0.00075728
0.000773248
0.000885172
0.00096763
0.00101881
0.00104687
0.00105977
0.00106336
0.00106157
0.00105716
0.00105221
0.0010481
0.0010453
0.00104363
0.0010427
0.00104222
0.00104194
0.00104179
0.00104179
0.00104194
0.00104222
0.00104269
0.00104356
0.00104507
0.0010474
0.00105033
0.00105246
0.00105078
0.00104045
0.00101478
0.000965406
0.000884092
0.000772773
0.00075689
0.000776555
0.000791031
0.000907028
0.000993287
0.00104702
0.00107596
0.00108782
0.00108841
0.00108199
0.00107221
0.00106245
0.00105502
0.00105053
0.00104797