/*--------------------------------*- C++ -*----------------------------------*\
| =========                 |                                                 |
| \\      /  F ield         | OpenFOAM: The Open Source CFD Toolbox           |
|  \\    /   O peration     | Version:  2112                                  |
|   \\  /    A nd           | Website:  www.openfoam.com                      |
|    \\/     M anipulation  |                                                 |
\*---------------------------------------------------------------------------*/
FoamFile
{
    version     2.0;
    format      ascii;
    arch        "LSB;label=32;scalar=64";
    class       volScalarField;
    location    "3.5";
    object      k;
}
// * * * * * * * * * * * * * * * * * * * * * * * * * * * * * * * * * * * * * //

dimensions      [0 2 -2 0 0 0 0];

internalField   nonuniform List<scalar> 
64906
(
0.000316905
0.000352765
0.000374682
0.000385197
0.00038985
0.000391784
0.000392537
0.000392806
0.000392885
0.000392891
0.000392873
0.000392853
0.000392836
0.00039282
0.000392806
0.000392793
0.00039278
0.000392769
0.000392764
0.00039277
0.000392782
0.000392794
0.000392807
0.000392819
0.000392828
0.000392821
0.000392755
0.000392505
0.000391769
0.000389848
0.000385203
0.000374695
0.000352783
0.00031692
0.000352788
0.000530059
0.000624128
0.000671656
0.000695161
0.000706202
0.000711012
0.000712884
0.000713453
0.000713482
0.000713322
0.000713131
0.000712984
0.000712895
0.000712849
0.000712825
0.000712809
0.000712801
0.000712801
0.00071281
0.000712825
0.000712849
0.000712888
0.000712951
0.000713016
0.000712963
0.00071245
0.000710694
0.000706015
0.000695086
0.000671658
0.000624172
0.000530112
0.000352827
0.000374744
0.000624171
0.000759151
0.000830384
0.000867462
0.000885815
0.000894173
0.00089745
0.000898279
0.00089802
0.000897388
0.000896762
0.000896307
0.00089605
0.00089593
0.000895872
0.000895838
0.000895822
0.000895825
0.000895844
0.000895881
0.000895938
0.000896042
0.000896241
0.000896515
0.000896633
0.000895943
0.000893013
0.000885069
0.00086708
0.000830259
0.000759171
0.000624254
0.000374811
0.000385285
0.000671746
0.000830435
0.00091687
0.000963355
0.000987028
0.000997891
0.00100181
0.00100213
0.00100075
0.000998845
0.000997151
0.000995965
0.000995311
0.000995005
0.000994838
0.000994731
0.000994678
0.000994681
0.00099474
0.000994851
0.000995015
0.000995295
0.000995856
0.000996763
0.000997697
0.000997691
0.000994648
0.000984857
0.000962135
0.000916333
0.0008303
0.000671806
0.000385373
0.000389955
0.000695283
0.000867557
0.000963412
0.00101596
0.00104294
0.00105485
0.00105803
0.00105625
0.00105202
0.00104727
0.00104337
0.00104077
0.00103943
0.00103883
0.00103845
0.00103819
0.00103805
0.00103806
0.0010382
0.00103847
0.00103884
0.0010394
0.00104063
0.00104287
0.0010458
0.00104819
0.00104706
0.00103765
0.00101289
0.000961924
0.000867023
0.000695231
0.00039005
0.000391898
0.000706343
0.000885957
0.000987166
0.00104306
0.00107131
0.00108238
0.00108255
0.00107585
0.00106555
0.00105509
0.00104734
0.00104258
0.00104038
0.00103954
0.00103888
0.00103834
0.00103805
0.00103806
0.00103835
0.0010389
0.00103956
0.00104036
0.00104243
0.00104679
0.00105345
0.00106123
0.00106552
0.00105992
0.00103638
0.000983814
0.000884606
0.000706025
0.000391982
0.000392653
0.000711171
0.000894386
0.000998196
0.00105529
0.00108284
0.00109069
0.0010845
0.00106805
0.00104585
0.00102478
0.0010118
0.00100497
0.00100257
0.0010021
0.00100117
0.00100025
0.000999763
0.00099977
0.00100027
0.0010012
0.00100213
0.00100256
0.00100483
0.00101126
0.0010231
0.00104133
0.00105714
0.00106057
0.00104236
0.000991653
0.000891623
0.000710363
0.0003927
0.00039292
0.000713075
0.000897801
0.00100248
0.0010592
0.00108426
0.00108622
0.001069
0.00103494
0.000989676
0.000948445
0.000933077
0.000928452
0.000928865
0.000930485
0.000929618
0.000928421
0.000927798
0.000927805
0.000928443
0.000929652
0.000930525
0.000928885
0.00092837
0.000932637
0.000946898
0.000985225
0.00102385
0.00104447
0.00103669
0.000991187
0.000892949
0.00071153
0.000392894
0.000392998
0.000713711
0.000898898
0.00100349
0.00105891
0.00108025
0.00107393
0.00104027
0.000976242
0.000883696
0.000796267
0.000801828
0.000817149
0.00082812
0.00083459
0.000834908
0.000834149
0.000833715
0.000833722
0.000834172
0.000834946
0.000834642
0.000828169
0.000817146
0.000801584
0.000795081
0.000879611
0.00096528
0.00101555
0.00102386
0.000986282
0.000891492
0.000711257
0.000392869
0.000393006
0.000713859
0.000899092
0.0010033
0.00105725
0.00107482
0.00105973
0.00100626
0.000896661
0.000702184
0.000485068
0.000605376
0.0006875
0.000720942
0.00073369
0.000737045
0.000737776
0.000737891
0.000737898
0.000737798
0.000737083
0.000733746
0.000721017
0.00068759
0.000605433
0.000484651
0.000698926
0.000886007
0.000981491
0.0010094
0.000980432
0.000889325
0.000710565
0.000392764
0.000392993
0.000713878
0.000899113
0.00100311
0.00105631
0.00107185
0.00105171
0.000984701
0.000832674
0.000499433
0.000436697
0.000590827
0.000642739
0.000658539
0.000663745
0.000665238
0.000665581
0.000665585
0.000665251
0.000663769
0.000658579
0.000642807
0.000590937
0.000436767
0.000497822
0.000822436
0.000959938
0.00100125
0.000977258
0.000888132
0.000710153
0.000392682
0.000392976
0.000713907
0.00089927
0.00100349
0.00105712
0.00107369
0.00105652
0.000999364
0.000884283
0.000683227
0.000469401
0.00055414
0.000623623
0.000650779
0.000658512
0.000663188
0.000664532
0.000664744
0.000664743
0.000664529
0.000663183
0.000658504
0.000650771
0.000623607
0.000554009
0.000468861
0.000679819
0.000873549
0.000974488
0.00100599
0.000978984
0.000888773
0.000710327
0.00039268
0.000392966
0.000713974
0.000899587
0.00100435
0.00105918
0.00107848
0.00106763
0.0010256
0.00094783
0.000834899
0.00072158
0.000688849
0.000674402
0.000669852
0.000668224
0.0006686
0.000668669
0.000668589
0.000668585
0.000668656
0.000668576
0.000668182
0.000669779
0.00067425
0.000688436
0.000720259
0.000830755
0.000936796
0.00100064
0.00101706
0.000983701
0.000890693
0.000710955
0.000392736
0.000392956
0.000714055
0.000899957
0.00100535
0.00106155
0.00108372
0.00107872
0.00104824
0.000991965
0.000913329
0.000827757
0.00076001
0.000709639
0.000686244
0.00067755
0.00067481
0.000673894
0.00067358
0.000673573
0.000673873
0.000674772
0.000677489
0.000686139
0.000709435
0.000759512
0.0008262
0.000908887
0.000980728
0.00102316
0.00102806
0.000988822
0.000892885
0.000711696
0.000392796
0.000392941
0.000714124
0.00090028
0.00100621
0.00106352
0.00108788
0.00108691
0.00106328
0.00101736
0.000951101
0.000872095
0.000793375
0.000728766
0.000696334
0.000683622
0.000679233
0.000677767
0.000677296
0.000677286
0.000677738
0.000679186
0.00068355
0.000696216
0.000728546
0.000792845
0.000870449
0.000946517
0.00100598
0.00103807
0.00103613
0.000992843
0.000894677
0.000712307
0.000392832
0.000392923
0.000714167
0.00090051
0.00100682
0.00106488
0.00109062
0.00109199
0.0010719
0.00103054
0.000968638
0.000890973
0.000808115
0.00073776
0.0007014
0.000686784
0.000681622
0.000679873
0.000679293
0.000679278
0.000679835
0.000681567
0.000686706
0.000701277
0.000737533
0.000807529
0.000889285
0.000963974
0.00101905
0.00104658
0.00104108
0.000995441
0.000895869
0.000712707
0.000392839
0.000392902
0.000714186
0.000900648
0.00100718
0.00106567
0.00109215
0.0010947
0.00107624
0.00103673
0.000976282
0.000898728
0.000814216
0.000741517
0.000703571
0.000688156
0.000682659
0.000680766
0.000680104
0.000680083
0.000680721
0.000682598
0.000688074
0.000703444
0.000741285
0.000813597
0.000897018
0.000971575
0.00102518
0.00105084
0.0010437
0.000996872
0.000896538
0.000712923
0.000392825
0.00039288
0.000714189
0.000900714
0.00100735
0.00106602
0.00109283
0.00109586
0.00107801
0.00103914
0.000979113
0.000901486
0.000816362
0.000742837
0.000704337
0.000688634
0.000683007
0.000681046
0.000680321
0.000680294
0.000680993
0.000682942
0.000688549
0.000704207
0.000742603
0.00081574
0.000899768
0.000974389
0.00102757
0.00105257
0.00104481
0.000997494
0.000896834
0.000713009
0.000392799
0.000392863
0.000714183
0.000900721
0.00100737
0.00106605
0.00109286
0.0010959
0.00107807
0.00103922
0.0009792
0.00090158
0.000816453
0.000742904
0.000704377
0.00068865
0.000683004
0.000681018
0.000680257
0.000680224
0.00068096
0.000682935
0.000688562
0.000704246
0.00074267
0.000815835
0.000899867
0.000974481
0.00102765
0.00105264
0.00104486
0.000997528
0.000896853
0.000713006
0.000392772
0.00039286
0.000714172
0.000900671
0.00100723
0.00106574
0.00109225
0.00109484
0.00107642
0.00103696
0.000976551
0.000899025
0.000814509
0.000741727
0.000703699
0.000688212
0.000682655
0.000680695
0.000679937
0.000679901
0.000680634
0.000682584
0.000688124
0.00070357
0.000741499
0.000813905
0.000897334
0.000971864
0.00102543
0.00105103
0.00104385
0.000996973
0.000896596
0.000712918
0.000392761
0.000392874
0.000714152
0.000900548
0.0010069
0.001065
0.00109079
0.00109222
0.00107221
0.00103093
0.00096912
0.000891521
0.000808663
0.00073815
0.000701643
0.000686903
0.000681639
0.000679783
0.000679082
0.000679051
0.000679723
0.000681568
0.000686817
0.000701522
0.000737937
0.000808091
0.000889875
0.000964499
0.00101948
0.00104691
0.00104132
0.00099561
0.000895966
0.000712711
0.000392765
0.00039289
0.000714113
0.000900331
0.00100631
0.00106368
0.00108811
0.00108723
0.00106372
0.00101795
0.000951853
0.000872989
0.000794173
0.000729387
0.000696718
0.000683818
0.000679285
0.000677685
0.0006771
0.000677075
0.00067763
0.000679218
0.000683739
0.00069661
0.000729202
0.00079369
0.00087143
0.000947344
0.00100662
0.00103854
0.00103646
0.00099307
0.00089481
0.000712326
0.000392755
0.000392904
0.000714046
0.000900008
0.00100545
0.00106171
0.00108396
0.00107909
0.00104878
0.000992751
0.000914436
0.000829149
0.000761225
0.000710476
0.000686684
0.000677716
0.000674779
0.000673722
0.000673317
0.000673299
0.000673677
0.000674719
0.000677643
0.00068659
0.000710334
0.000760853
0.000827751
0.000910116
0.000981569
0.00102372
0.00102843
0.000989069
0.000893033
0.000711726
0.000392719
0.000392913
0.000713949
0.000899595
0.00100438
0.00105926
0.00107863
0.00106791
0.0010261
0.000948713
0.000836358
0.000723623
0.000690568
0.000675003
0.000669727
0.000667682
0.000667786
0.000667709
0.000667558
0.000667544
0.000667668
0.000667717
0.000667577
0.000669586
0.000674857
0.000690371
0.000722563
0.000832378
0.000937655
0.00100105
0.00101728
0.000983845
0.000890787
0.00071097
0.000392656
0.000392916
0.000713808
0.000899112
0.00100326
0.00105685
0.00107342
0.00105633
0.000999412
0.00088488
0.000684856
0.000470517
0.000554625
0.000621631
0.000647434
0.00065433
0.00065858
0.00065976
0.000659907
0.000659888
0.000659692
0.000658423
0.000654003
0.000646894
0.000621026
0.000554466
0.000470014
0.000681576
0.00087375
0.000974104
0.00100557
0.000978715
0.000888639
0.00071025
0.00039259
0.000392906
0.000713544
0.000898458
0.00100213
0.00105505
0.00107039
0.00105008
0.000982976
0.000831161
0.000498821
0.000431639
0.000578926
0.000626968
0.00064023
0.000644504
0.000645721
0.000645969
0.000645916
0.000645514
0.000643971
0.000639012
0.000624643
0.000575543
0.000429332
0.000496126
0.000819067
0.00095682
0.000999008
0.000975844
0.000887347
0.000709793
0.000392561
0.000392832
0.000712859
0.000897122
0.0010004
0.00105359
0.00107051
0.0010548
0.00100056
0.00089005
0.000695009
0.000478807
0.000580783
0.00065032
0.000672208
0.000677232
0.000678566
0.000678976
0.000679047
0.000678942
0.000678526
0.000677263
0.000673901
0.000665023
0.000638094
0.000568106
0.000472676
0.000684585
0.000873752
0.000972515
0.00100328
0.00097647
0.000886982
0.000709468
0.000392541
0.00039258
0.000710991
0.000893744
0.000996164
0.0010498
0.00106966
0.0010618
0.00102589
0.000957898
0.000858305
0.000758708
0.000741772
0.000731679
0.000716279
0.000707018
0.000703305
0.000702097
0.000701723
0.000701559
0.000701356
0.000700973
0.000700526
0.000700789
0.000702642
0.000709733
0.00073163
0.000835328
0.00093521
0.000995281
0.00101011
0.000977013
0.00088566
0.000708357
0.000392389
0.000391847
0.000706251
0.000885536
0.000985665
0.00103884
0.00106112
0.00106033
0.00103916
0.000997999
0.000939652
0.000876084
0.000826724
0.000779338
0.00073651
0.00071534
0.000707336
0.000704739
0.000703979
0.000703776
0.000703785
0.00070418
0.000706041
0.000712761
0.000732228
0.000775758
0.000832979
0.000906414
0.000970081
0.00100701
0.00100976
0.000971715
0.000879775
0.00070447
0.000391753
0.000389927
0.000695293
0.000867416
0.000962598
0.00101335
0.00103628
0.00104013
0.00102878
0.00100346
0.000965219
0.00091727
0.000864546
0.000807929
0.000756996
0.000731516
0.000721647
0.000718359
0.000717389
0.000717165
0.000717294
0.000718107
0.00072111
0.000730589
0.00075593
0.000808217
0.000869564
0.000929095
0.000974715
0.000997954
0.000993224
0.000953238
0.000863736
0.000694265
0.000389914
0.000385277
0.000671846
0.000830536
0.000916667
0.000962167
0.000983461
0.00098938
0.000984103
0.000968912
0.000943816
0.000909095
0.000866387
0.000819385
0.000777473
0.000754578
0.00074502
0.000741605
0.000740552
0.000740332
0.000740508
0.000741511
0.000744833
0.000754293
0.000777232
0.000819972
0.000868794
0.000912993
0.000944496
0.000958117
0.000949401
0.000911048
0.000828518
0.000671392
0.00038532
0.000374758
0.000624335
0.000759414
0.0008306
0.000867283
0.000884499
0.000890285
0.000888467
0.000880213
0.000865289
0.000843262
0.000814822
0.00078321
0.000755253
0.000738833
0.000731387
0.000728595
0.000727706
0.000727511
0.00072769
0.000728556
0.000731314
0.000738737
0.000755239
0.000783537
0.000815708
0.000844079
0.000863296
0.000869947
0.000860391
0.000827838
0.000758599
0.000624262
0.000374839
0.000352829
0.000530225
0.00062443
0.000672047
0.000695511
0.000706211
0.000710064
0.000709841
0.000706394
0.000699525
0.000688738
0.00067423
0.000657815
0.000643152
0.000634106
0.000629776
0.000628069
0.000627496
0.000627369
0.0006275
0.000628073
0.000629778
0.000634106
0.000643189
0.000657962
0.00067451
0.000688744
0.000697855
0.000700041
0.00069287
0.000671195
0.000624329
0.000530335
0.000352912
0.000316947
0.000352877
0.000374892
0.000385498
0.000390232
0.000392222
0.000392969
0.000393093
0.000392758
0.000391895
0.00039047
0.000388384
0.000385849
0.000383462
0.000381943
0.00038118
0.000380837
0.000380676
0.000380621
0.000380684
0.000380845
0.000381184
0.00038194
0.000383453
0.000385841
0.000388381
0.000390425
0.000391648
0.000391759
0.000390201
0.000385633
0.00037505
0.00035299
0.000317006
0.000455432
0.000586041
0.000665189
0.000705994
0.00072594
0.000735133
0.000739059
0.000740557
0.000740997
0.000741005
0.000740857
0.000740682
0.000740536
0.000740435
0.000740369
0.000740324
0.000740294
0.000740277
0.000740275
0.000740289
0.000740317
0.000740359
0.000740417
0.000740497
0.000740577
0.000740559
0.00074017
0.000738766
0.000734942
0.000725836
0.000705949
0.00066518
0.00058605
0.000455448
0.000586047
0.00111639
0.00135469
0.00148078
0.00154667
0.00157941
0.00159445
0.0016005
0.00160227
0.00160212
0.00160124
0.00160025
0.00159944
0.00159888
0.00159853
0.00159832
0.00159818
0.00159812
0.00159812
0.00159818
0.00159832
0.00159852
0.00159884
0.00159928
0.00159976
0.00159982
0.0015983
0.00159271
0.00157821
0.00154594
0.00148038
0.00135451
0.00111633
0.00058606
0.000665232
0.00135478
0.00166952
0.00184248
0.00193666
0.00198537
0.00200846
0.00201773
0.00201992
0.00201877
0.00201637
0.00201393
0.00201202
0.00201078
0.00201006
0.00200963
0.00200937
0.00200924
0.00200924
0.00200937
0.00200963
0.00201004
0.00201069
0.00201171
0.00201299
0.00201376
0.00201207
0.00200393
0.00198221
0.00193473
0.00184147
0.00166908
0.00135465
0.000665254
0.000706078
0.00148094
0.00184258
0.00204675
0.00216091
0.00222123
0.00224981
0.00226027
0.00226081
0.00225645
0.00225042
0.00224484
0.00224069
0.00223813
0.00223671
0.00223587
0.00223535
0.00223509
0.00223509
0.00223536
0.00223587
0.00223669
0.002238
0.00224022
0.00224345
0.00224668
0.0022471
0.00223919
0.00221375
0.00215629
0.00204426
0.00184145
0.00148058
0.000706084
0.000726057
0.00154691
0.00193685
0.00216105
0.00228832
0.00235575
0.00238631
0.00239446
0.0023894
0.00237756
0.00236396
0.00235229
0.0023441
0.00233938
0.00233693
0.00233541
0.00233441
0.00233391
0.00233392
0.00233443
0.00233542
0.0023369
0.00233922
0.00234352
0.00235056
0.00235931
0.0023661
0.00236336
0.00233954
0.00227823
0.00215553
0.00193426
0.00154596
0.000725983
0.000735276
0.00157971
0.00198571
0.00222163
0.00235613
0.00242603
0.00245401
0.00245443
0.00243702
0.00241011
0.00238216
0.00236015
0.00234582
0.00233834
0.00233486
0.00233245
0.00233071
0.00232982
0.00232982
0.00233073
0.00233247
0.00233484
0.00233817
0.00234519
0.00235822
0.00237693
0.00239721
0.00240789
0.00239368
0.00233606
0.00221057
0.00198039
0.00157764
0.000735007
0.000739225
0.00159485
0.00200908
0.0022508
0.00238772
0.00245546
0.00247527
0.00246011
0.00241941
0.00236429
0.00231081
0.00227417
0.00225319
0.00224407
0.00224079
0.00223756
0.00223485
0.00223344
0.00223345
0.00223488
0.00223759
0.00224078
0.00224393
0.00225259
0.00227224
0.00230537
0.00235062
0.00238839
0.00239568
0.00235113
0.00223072
0.00199931
0.0015909
0.000738595
0.000740754
0.0016011
0.00201891
0.00226249
0.00239818
0.00245958
0.00246508
0.00242399
0.00234285
0.0022357
0.00213657
0.0020875
0.00206762
0.00206314
0.00206382
0.00206072
0.00205734
0.00205555
0.00205556
0.00205736
0.00206075
0.00206384
0.00206306
0.00206716
0.00208579
0.00213134
0.00222185
0.00231082
0.00235735
0.00233725
0.00222952
0.00200286
0.00159446
0.000739575
0.00074125
0.00160323
0.00202213
0.00226534
0.0023976
0.00244985
0.00243588
0.00235746
0.00221044
0.0020026
0.00180596
0.00178191
0.00179912
0.00181656
0.00182747
0.00182782
0.0018257
0.00182437
0.00182438
0.00182572
0.00182786
0.00182752
0.00181656
0.00179888
0.00178072
0.00180146
0.00198908
0.00217789
0.00228942
0.00230581
0.00221677
0.00199865
0.0015934
0.000739391
0.000741347
0.00160368
0.00202264
0.00226472
0.00239324
0.00243637
0.00240228
0.00228061
0.00203885
0.0016168
0.0010101
0.00132114
0.00148618
0.00155434
0.00157836
0.00158878
0.00159122
0.00159145
0.00159146
0.00159125
0.00158883
0.00157843
0.00155443
0.00148623
0.00132091
0.0010077
0.00160421
0.00200588
0.00221147
0.00227073
0.00220153
0.00199238
0.00159094
0.000738856
0.000741331
0.00160366
0.00202255
0.00226396
0.00239042
0.00242851
0.00238288
0.00223328
0.00190996
0.00106666
0.000819834
0.00123197
0.00134452
0.00138102
0.0013922
0.00139519
0.00139581
0.00139582
0.00139521
0.00139223
0.00138108
0.00134462
0.00123213
0.000819896
0.00105796
0.00187675
0.00216345
0.00225051
0.00219277
0.0019886
0.00158929
0.000738499
0.000741314
0.00160367
0.00202281
0.00226461
0.00239176
0.00243157
0.00239107
0.00225849
0.00199984
0.00155288
0.000940849
0.00116762
0.00131581
0.00137756
0.00140225
0.00140564
0.00140577
0.0014056
0.0014056
0.00140576
0.00140562
0.00140222
0.00137751
0.0013157
0.00116711
0.00093824
0.0015401
0.00196662
0.00218889
0.00225876
0.00219567
0.00198962
0.0015895
0.00073856
0.000741322
0.00160385
0.00202356
0.00226659
0.00239638
0.00244201
0.00241462
0.00231253
0.0021272
0.00186115
0.00158511
0.00146742
0.00140934
0.00138973
0.00138483
0.00138327
0.00138251
0.00138214
0.00138213
0.00138249
0.00138324
0.00138477
0.00138958
0.00140894
0.00146611
0.00158059
0.00184752
0.00209418
0.00224339
0.00228269
0.0022063
0.00199421
0.00159125
0.000738949
0.000741342
0.00160411
0.00202454
0.00226907
0.00240201
0.00245404
0.00243935
0.00236169
0.00222093
0.00202503
0.00180806
0.0016256
0.00148498
0.0014177
0.00139312
0.00138536
0.00138301
0.00138233
0.00138233
0.00138299
0.00138533
0.00139304
0.0014175
0.00148445
0.00162401
0.00180302
0.00201104
0.00218792
0.00229279
0.00230768
0.00221848
0.00199983
0.00159352
0.000739425
0.000741356
0.00160437
0.00202543
0.0022713
0.00240691
0.002464
0.00245836
0.00239576
0.00227751
0.00210853
0.00190673
0.00170359
0.0015303
0.00144029
0.00140513
0.00139351
0.00139008
0.00138919
0.00138918
0.00139006
0.00139348
0.00140504
0.00144007
0.00152974
0.0017019
0.00190147
0.00209432
0.0022444
0.00232686
0.00232672
0.00222844
0.00200463
0.0015955
0.000739814
0.000741358
0.00160456
0.0020261
0.00227292
0.00241037
0.00247075
0.00247053
0.00241598
0.00230805
0.00214909
0.00195097
0.00173956
0.00155299
0.00145296
0.00141279
0.00139927
0.00139528
0.00139427
0.00139427
0.00139526
0.00139924
0.00141271
0.00145274
0.00155242
0.00173786
0.00194561
0.00213473
0.0022748
0.00234698
0.00233881
0.00223509
0.00200794
0.00159688
0.000740059
0.000741348
0.00160468
0.0020265
0.00227391
0.00241243
0.00247464
0.00247723
0.0024265
0.00232291
0.00216745
0.00196988
0.00175482
0.0015629
0.00145873
0.00141644
0.00140208
0.00139784
0.00139678
0.00139678
0.00139783
0.00140205
0.00141635
0.00145852
0.00156232
0.0017531
0.00196446
0.002153
0.00228955
0.00235739
0.0023454
0.00223885
0.00200985
0.00159768
0.000740179
0.000741333
0.00160473
0.00202669
0.00227436
0.00241337
0.00247637
0.00248012
0.00243087
0.00232881
0.0021744
0.00197676
0.00176029
0.00156647
0.00146083
0.00141777
0.00140311
0.00139877
0.00139769
0.00139768
0.00139876
0.00140308
0.00141768
0.00146061
0.00156589
0.00175855
0.00197131
0.0021599
0.00229539
0.00236169
0.00234821
0.0022405
0.00201069
0.00159802
0.000740215
0.00074132
0.00160473
0.0020267
0.00227438
0.0024134
0.00247641
0.00248018
0.00243095
0.00232891
0.00217452
0.00197689
0.00176042
0.00156659
0.00146091
0.00141781
0.00140313
0.00139878
0.00139769
0.00139769
0.00139877
0.0014031
0.00141772
0.00146069
0.00156601
0.00175868
0.00197144
0.00216003
0.00229549
0.00236177
0.00234827
0.00224054
0.00201072
0.00159803
0.000740198
0.000741314
0.00160468
0.00202653
0.00227396
0.00241252
0.00247477
0.00247742
0.00242675
0.00232322
0.00216782
0.00197028
0.00175522
0.00156329
0.00145899
0.00141659
0.00140218
0.00139791
0.00139684
0.00139683
0.0013979
0.00140215
0.00141651
0.00145879
0.00156273
0.00175351
0.00196488
0.00215338
0.00228987
0.00235764
0.00234558
0.00223897
0.00200991
0.00159769
0.000740136
0.000741313
0.00160456
0.00202613
0.002273
0.00241051
0.00247097
0.00247083
0.0024164
0.0023086
0.00214977
0.00195173
0.00174032
0.00155374
0.00145348
0.00141313
0.00139952
0.00139549
0.00139447
0.00139447
0.00139548
0.0013995
0.00141307
0.0014533
0.00155322
0.00173867
0.00194642
0.00213544
0.00227537
0.0023474
0.0023391
0.00223528
0.00200804
0.0015969
0.000740003
0.000741305
0.00160436
0.00202547
0.00227138
0.00240706
0.00246425
0.00245874
0.00239632
0.00227831
0.00210959
0.00190801
0.00170497
0.00153154
0.00144115
0.00140572
0.00139398
0.00139051
0.00138961
0.00138961
0.00139051
0.00139398
0.00140568
0.00144101
0.00153109
0.00170342
0.00190286
0.00209544
0.0022452
0.00232739
0.00232707
0.00222865
0.00200474
0.00159552
0.000739753
0.000741283
0.00160407
0.00202451
0.00226907
0.00240207
0.00245419
0.00243966
0.00236227
0.00222192
0.00202656
0.00181009
0.00162778
0.00148663
0.00141865
0.00139366
0.00138573
0.00138334
0.00138267
0.00138267
0.00138336
0.00138575
0.00139364
0.00141853
0.00148625
0.00162643
0.00180524
0.00201264
0.00218883
0.00229322
0.00230787
0.00221857
0.00199986
0.0015935
0.000739354
0.000741242
0.00160368
0.00202332
0.00226627
0.00239602
0.00244167
0.00241442
0.00231266
0.00212801
0.00186308
0.00158811
0.00147017
0.0014101
0.00138897
0.0013833
0.00138141
0.00138059
0.00138022
0.00138023
0.0013806
0.0013814
0.00138319
0.00138869
0.00140963
0.00146914
0.00158387
0.00184943
0.00209452
0.00224298
0.00228213
0.00220584
0.00199392
0.00159106
0.000738847
0.000741168
0.00160316
0.00202192
0.00226334
0.00239018
0.00242976
0.00238918
0.00225681
0.00199906
0.00155449
0.000943068
0.0011673
0.00130939
0.00136759
0.00139025
0.00139285
0.00139284
0.00139268
0.00139267
0.00139277
0.00139259
0.00138951
0.00136611
0.00130744
0.00116621
0.000940486
0.00154116
0.00196403
0.00218555
0.00225593
0.00219367
0.00198837
0.00158883
0.000738367
0.00074099
0.0016022
0.00201996
0.00226027
0.00238573
0.00242295
0.00237653
0.00222625
0.00190278
0.0010617
0.000800441
0.00119455
0.00129687
0.00132646
0.00133563
0.00133836
0.001339
0.00133889
0.00133789
0.00133427
0.00132309
0.00129006
0.00118402
0.00079195
0.00104815
0.00186332
0.00215198
0.00224204
0.00218703
0.00198505
0.00158741
0.000738062
0.000740467
0.00159979
0.00201591
0.00225531
0.00238145
0.00242239
0.00238595
0.00226115
0.00201489
0.00158653
0.000976056
0.0012375
0.0013734
0.00141287
0.00141766
0.00142339
0.00142569
0.00142622
0.00142596
0.00142452
0.00141983
0.00140832
0.00139235
0.00133783
0.00119672
0.000949885
0.0015496
0.00196488
0.00218219
0.00225044
0.00218788
0.00198373
0.00158622
0.000737807
0.000738969
0.00159357
0.00200607
0.00224352
0.00237084
0.00241863
0.00239967
0.00231391
0.00215426
0.00192374
0.00168762
0.00160585
0.00155834
0.00150947
0.00148028
0.0014704
0.00146754
0.00146669
0.00146626
0.00146552
0.00146395
0.00146222
0.00146663
0.00148004
0.00151762
0.00160917
0.00185783
0.00208949
0.00222922
0.00226415
0.0021879
0.00197951
0.00158247
0.000736868
0.000735087
0.00157868
0.00198326
0.00221566
0.00234223
0.00239585
0.00239308
0.00234004
0.00223824
0.00209446
0.00193466
0.00179837
0.00167048
0.00155541
0.00149629
0.0014739
0.00146669
0.00146458
0.00146402
0.00146401
0.00146505
0.00147037
0.00149032
0.00154657
0.00166697
0.00182193
0.00200586
0.00216175
0.00225219
0.00226074
0.00217327
0.00196323
0.00157045
0.000733618
0.000725947
0.00154619
0.00193521
0.00215693
0.00227851
0.00233418
0.00234251
0.00231216
0.00224628
0.00214769
0.00202392
0.00188641
0.00174062
0.00160759
0.00153768
0.00150993
0.00150052
0.00149769
0.00149704
0.00149745
0.00149986
0.00150858
0.00153561
0.00160589
0.00174396
0.00190198
0.00205305
0.00216824
0.00222787
0.00221922
0.00212669
0.00192125
0.00154062
0.000725037
0.000706037
0.00148052
0.00184169
0.0020444
0.002155
0.00220768
0.0022215
0.00220579
0.00216375
0.00209587
0.0020034
0.00189095
0.00176872
0.00166004
0.00159846
0.00157172
0.00156191
0.00155874
0.00155802
0.00155867
0.0015617
0.00157131
0.00159798
0.00166027
0.00177157
0.00189846
0.00201337
0.00209594
0.00213321
0.00211466
0.00202449
0.00183283
0.00147712
0.000705556
0.000665245
0.00135458
0.00166919
0.00184149
0.00193376
0.00197814
0.00199246
0.00198557
0.00196041
0.00191675
0.00185413
0.00177509
0.00168861
0.00161256
0.00156667
0.0015452
0.00153673
0.00153382
0.00153316
0.00153384
0.00153673
0.00154519
0.00156674
0.00161306
0.00169025
0.00177817
0.00185636
0.00191039
0.00193098
0.00190916
0.00182987
0.00166429
0.00135278
0.000665057
0.000586093
0.00111635
0.00135472
0.00148063
0.00154578
0.00157656
0.00158734
0.00158509
0.00157212
0.00154809
0.00151221
0.00146572
0.00141439
0.00136914
0.00134078
0.00132687
0.00132114
0.0013191
0.00131863
0.00131915
0.00132124
0.00132702
0.00134101
0.00136959
0.00141529
0.001467
0.00151234
0.00154257
0.00155186
0.00153353
0.0014752
0.00135259
0.00111561
0.000586074
0.000455477
0.000586092
0.000665315
0.000706181
0.000726089
0.000735008
0.000738176
0.000738002
0.000735219
0.00072965
0.000720889
0.000709045
0.000695584
0.000683558
0.000676076
0.000672445
0.000670954
0.000670418
0.000670291
0.000670432
0.000670978
0.000672474
0.000676113
0.000683628
0.000695736
0.000709277
0.000720865
0.000728256
0.000729963
0.00072386
0.000705359
0.000665087
0.000586064
0.000455535
0.000500861
0.00069446
0.000813119
0.000876368
0.000908692
0.000924325
0.000931322
0.000934093
0.00093491
0.000934879
0.00093453
0.000934124
0.000933786
0.000933552
0.000933404
0.00093331
0.000933251
0.000933221
0.000933221
0.000933249
0.000933305
0.000933394
0.000933525
0.000933711
0.000933906
0.000933911
0.000933201
0.000930628
0.000923851
0.000908408
0.000876221
0.000813055
0.000694443
0.000500877
0.00069446
0.00139306
0.00170538
0.00187576
0.00196798
0.00201547
0.00203807
0.00204744
0.00205019
0.00204984
0.00204826
0.00204646
0.00204496
0.0020439
0.00204323
0.00204281
0.00204256
0.00204243
0.00204243
0.00204256
0.0020428
0.0020432
0.0020438
0.00204464
0.00204554
0.00204575
0.00204341
0.00203484
0.00201318
0.00196652
0.00187492
0.00170494
0.00139285
0.00069444
0.000813161
0.0017055
0.00210683
0.00233281
0.00245964
0.00252729
0.0025603
0.00257385
0.002577
0.00257503
0.00257106
0.00256694
0.00256363
0.00256141
0.00256008
0.00255927
0.00255879
0.00255856
0.00255856
0.00255879
0.00255926
0.00256002
0.00256123
0.00256305
0.00256529
0.00256673
0.0025644
0.00255265
0.00252181
0.00245616
0.00233084
0.00210585
0.00170511
0.000813118
0.000876462
0.00187598
0.00233293
0.00259607
0.0027472
0.00282922
0.00286903
0.00288382
0.0028844
0.00287766
0.00286827
0.00285932
0.00285248
0.00284811
0.0028456
0.00284409
0.00284318
0.00284274
0.00284275
0.00284319
0.00284408
0.00284553
0.00284784
0.00285165
0.00285698
0.00286224
0.00286323
0.00285227
0.00281716
0.00273948
0.00259167
0.00233074
0.0018751
0.000876338
0.000908833
0.0019683
0.00245992
0.00274741
0.0029146
0.00300528
0.00304722
0.0030585
0.00305113
0.00303379
0.00301344
0.00299534
0.00298217
0.00297427
0.00297
0.00296737
0.0029657
0.00296489
0.00296489
0.00296571
0.00296736
0.00296992
0.00297394
0.00298114
0.00299245
0.00300603
0.00301628
0.00301282
0.00298052
0.00289869
0.00273828
0.00245529
0.00196635
0.000908494
0.00092451
0.00201592
0.00252783
0.00282988
0.00300592
0.00309934
0.0031374
0.00313801
0.00311382
0.00307582
0.00303517
0.00300134
0.00297814
0.00296539
0.00295917
0.00295496
0.00295208
0.00295065
0.00295066
0.00295209
0.00295496
0.00295909
0.00296505
0.00297701
0.00299811
0.00302683
0.00305611
0.00307103
0.00305193
0.00297561
0.00281242
0.00251885
0.002012
0.000923726
0.000931561
0.00203872
0.00256136
0.00287069
0.00304953
0.0031397
0.00316668
0.00314658
0.00309167
0.00301618
0.00294001
0.00288241
0.00284623
0.00282901
0.00282216
0.0028161
0.00281149
0.00280919
0.0028092
0.0028115
0.00281611
0.0028221
0.0028287
0.00284514
0.00287913
0.00293126
0.00299515
0.0030459
0.00305504
0.00299613
0.00284012
0.00254554
0.00203164
0.00093001
0.000934418
0.00204851
0.00257591
0.00288753
0.00306448
0.00314606
0.00315418
0.0031006
0.00299407
0.00285194
0.0027139
0.00262943
0.00258557
0.00257015
0.00256733
0.00256007
0.00255377
0.00255071
0.00255071
0.00255379
0.00256009
0.00256731
0.00256993
0.00258467
0.00262644
0.00270528
0.00283031
0.00294638
0.00300541
0.002978