/*--------------------------------*- C++ -*----------------------------------*\
| =========                 |                                                 |
| \\      /  F ield         | OpenFOAM: The Open Source CFD Toolbox           |
|  \\    /   O peration     | Version:  2112                                  |
|   \\  /    A nd           | Website:  www.openfoam.com                      |
|    \\/     M anipulation  |                                                 |
\*---------------------------------------------------------------------------*/
FoamFile
{
    version     2.0;
    format      ascii;
    arch        "LSB;label=32;scalar=64";
    class       volScalarField;
    location    "3.5";
    object      nut;
}
// * * * * * * * * * * * * * * * * * * * * * * * * * * * * * * * * * * * * * //

dimensions      [0 2 -1 0 0 0 0];

internalField   nonuniform List<scalar> 
64906
(
4.45095e-05
4.70298e-05
4.85214e-05
4.92318e-05
4.95489e-05
4.96829e-05
4.97362e-05
4.97555e-05
4.97613e-05
4.97616e-05
4.97601e-05
4.97584e-05
4.9757e-05
4.97559e-05
4.97548e-05
4.97539e-05
4.9753e-05
4.97523e-05
4.9752e-05
4.97524e-05
4.97532e-05
4.9754e-05
4.97549e-05
4.97559e-05
4.97566e-05
4.97562e-05
4.97515e-05
4.97336e-05
4.96816e-05
4.95486e-05
4.92321e-05
4.85222e-05
4.7031e-05
4.45106e-05
4.70315e-05
5.77754e-05
6.27783e-05
6.51916e-05
6.63725e-05
6.69308e-05
6.71775e-05
6.72751e-05
6.73051e-05
6.73063e-05
6.72972e-05
6.72864e-05
6.7278e-05
6.72727e-05
6.72699e-05
6.72684e-05
6.72675e-05
6.7267e-05
6.7267e-05
6.72675e-05
6.72684e-05
6.72699e-05
6.72722e-05
6.7276e-05
6.72799e-05
6.72772e-05
6.72503e-05
6.7159e-05
6.69194e-05
6.63674e-05
6.5191e-05
6.27803e-05
5.77784e-05
4.70342e-05
4.85257e-05
6.27806e-05
6.93299e-05
7.25855e-05
7.42485e-05
7.50723e-05
7.54514e-05
7.56019e-05
7.56401e-05
7.56274e-05
7.55966e-05
7.55659e-05
7.55431e-05
7.55298e-05
7.55233e-05
7.552e-05
7.55181e-05
7.55172e-05
7.55173e-05
7.55184e-05
7.55203e-05
7.55235e-05
7.55292e-05
7.55395e-05
7.55533e-05
7.55596e-05
7.55279e-05
7.53938e-05
7.50344e-05
7.4228e-05
7.25779e-05
6.93299e-05
6.27846e-05
4.85303e-05
4.92378e-05
6.51962e-05
7.25878e-05
7.63528e-05
7.833e-05
7.93339e-05
7.97979e-05
7.9967e-05
7.99805e-05
7.99192e-05
7.98343e-05
7.97575e-05
7.97029e-05
7.96719e-05
7.96568e-05
7.96484e-05
7.96432e-05
7.96407e-05
7.96408e-05
7.96436e-05
7.96489e-05
7.96571e-05
7.96709e-05
7.96974e-05
7.9739e-05
7.97811e-05
7.97812e-05
7.96503e-05
7.92332e-05
7.82714e-05
7.63252e-05
7.25794e-05
6.51984e-05
4.92436e-05
4.9556e-05
6.63787e-05
7.42528e-05
7.83325e-05
8.05096e-05
8.16208e-05
8.2114e-05
8.22466e-05
8.21726e-05
8.19944e-05
8.17917e-05
8.1623e-05
8.15086e-05
8.14473e-05
8.1419e-05
8.14016e-05
8.13897e-05
8.13837e-05
8.13838e-05
8.13902e-05
8.14023e-05
8.14194e-05
8.1446e-05
8.15016e-05
8.15997e-05
8.17257e-05
8.18259e-05
8.17777e-05
8.13887e-05
8.03704e-05
7.82614e-05
7.42244e-05
6.63741e-05
4.95622e-05
4.96906e-05
6.6938e-05
7.50789e-05
7.93403e-05
8.16263e-05
8.27733e-05
8.32244e-05
8.32335e-05
8.29608e-05
8.25383e-05
8.21035e-05
8.1774e-05
8.15665e-05
8.14671e-05
8.14272e-05
8.13972e-05
8.13737e-05
8.13614e-05
8.13616e-05
8.13743e-05
8.1398e-05
8.14278e-05
8.14659e-05
8.1559e-05
8.17481e-05
8.20293e-05
8.23492e-05
8.25209e-05
8.22899e-05
8.13347e-05
7.91865e-05
7.50113e-05
6.69185e-05
4.96958e-05
4.9744e-05
6.71858e-05
7.54617e-05
7.98121e-05
8.21336e-05
8.32447e-05
8.35641e-05
8.3319e-05
8.26579e-05
8.17554e-05
8.08834e-05
8.03272e-05
8.00228e-05
7.99084e-05
7.98808e-05
7.98381e-05
7.97982e-05
7.97773e-05
7.97776e-05
7.9799e-05
7.98392e-05
7.98818e-05
7.99078e-05
8.0016e-05
8.03016e-05
8.08064e-05
8.1555e-05
8.219e-05
8.23203e-05
8.15822e-05
7.95195e-05
7.53275e-05
6.71398e-05
4.97462e-05
4.97633e-05
6.72854e-05
7.56192e-05
7.9998e-05
8.22989e-05
8.33078e-05
8.33923e-05
8.27098e-05
8.13406e-05
7.9487e-05
7.77511e-05
7.70566e-05
7.68191e-05
7.68129e-05
7.68711e-05
7.68287e-05
7.67751e-05
7.67475e-05
7.67478e-05
7.6776e-05
7.68301e-05
7.68727e-05
7.68134e-05
7.68144e-05
7.70345e-05
7.76771e-05
7.92838e-05
8.08565e-05
8.16765e-05
8.13536e-05
7.95016e-05
7.53883e-05
6.72e-05
4.976e-05
4.97691e-05
6.73193e-05
7.56709e-05
8.00436e-05
8.22899e-05
8.31497e-05
8.29069e-05
8.15673e-05
7.89626e-05
7.50549e-05
7.11619e-05
7.13268e-05
7.19494e-05
7.24092e-05
7.26876e-05
7.26949e-05
7.26579e-05
7.26374e-05
7.26377e-05
7.26589e-05
7.26966e-05
7.26899e-05
7.24113e-05
7.19486e-05
7.13132e-05
7.10998e-05
7.48569e-05
7.84686e-05
8.05093e-05
8.08307e-05
7.92952e-05
7.5323e-05
6.7186e-05
4.97581e-05
4.97698e-05
6.73274e-05
7.56804e-05
8.00362e-05
8.22231e-05
8.29327e-05
8.2342e-05
8.0198e-05
7.56384e-05
6.68397e-05
5.5428e-05
6.18488e-05
6.58738e-05
6.74489e-05
6.80467e-05
6.81984e-05
6.82304e-05
6.82352e-05
6.82355e-05
6.82315e-05
6.82002e-05
6.80494e-05
6.74525e-05
6.58781e-05
6.1851e-05
5.54e-05
6.66621e-05
7.51365e-05
7.9119e-05
8.02385e-05
7.90478e-05
7.52248e-05
6.71502e-05
4.97506e-05
4.9769e-05
6.73286e-05
7.56816e-05
8.00282e-05
8.21839e-05
8.28121e-05
8.20184e-05
7.93157e-05
7.28588e-05
5.62883e-05
5.24396e-05
6.09605e-05
6.35821e-05
6.43621e-05
6.46211e-05
6.46965e-05
6.47141e-05
6.47143e-05
6.46972e-05
6.46224e-05
6.43642e-05
6.35856e-05
6.09664e-05
5.24438e-05
5.61836e-05
7.2358e-05
7.82242e-05
7.99001e-05
7.89116e-05
7.517e-05
6.71286e-05
4.97448e-05
4.97678e-05
6.73303e-05
7.56887e-05
8.00438e-05
8.22153e-05
8.28815e-05
8.22005e-05
7.98929e-05
7.50653e-05
6.58559e-05
5.44504e-05
5.90023e-05
6.25471e-05
6.38824e-05
6.42521e-05
6.44909e-05
6.45618e-05
6.45736e-05
6.45736e-05
6.45616e-05
6.44907e-05
6.42516e-05
6.38819e-05
6.25462e-05
5.89944e-05
5.44145e-05
6.56688e-05
7.45564e-05
7.88049e-05
8.00844e-05
7.89797e-05
7.51969e-05
6.71371e-05
4.97446e-05
4.9767e-05
6.7334e-05
7.57032e-05
8.008e-05
8.22982e-05
8.30691e-05
8.26331e-05
8.0932e-05
7.77077e-05
7.2802e-05
6.75293e-05
6.58241e-05
6.50283e-05
6.47646e-05
6.4668e-05
6.46871e-05
6.46924e-05
6.46891e-05
6.46889e-05
6.46917e-05
6.46859e-05
6.46659e-05
6.47608e-05
6.50201e-05
6.58017e-05
6.74584e-05
7.25964e-05
7.7203e-05
7.98553e-05
8.05274e-05
7.9174e-05
7.52817e-05
6.71691e-05
4.97487e-05
4.97664e-05
6.73384e-05
7.57204e-05
8.01229e-05
8.23947e-05
8.32766e-05
8.30679e-05
8.18261e-05
7.95007e-05
7.61537e-05
7.23471e-05
6.91704e-05
6.67168e-05
6.55437e-05
6.51006e-05
6.49611e-05
6.49151e-05
6.48994e-05
6.48991e-05
6.4914e-05
6.49592e-05
6.50974e-05
6.55383e-05
6.67061e-05
6.91443e-05
7.22688e-05
7.59431e-05
7.89989e-05
8.07569e-05
8.09705e-05
7.93876e-05
7.538e-05
6.72073e-05
4.97531e-05
4.97655e-05
6.73423e-05
7.57355e-05
8.01603e-05
8.24763e-05
8.34436e-05
8.33916e-05
8.2421e-05
8.05226e-05
7.77258e-05
7.42779e-05
7.06945e-05
6.76252e-05
6.60285e-05
6.53899e-05
6.51675e-05
6.5093e-05
6.50691e-05
6.50686e-05
6.50915e-05
6.51651e-05
6.53862e-05
6.60225e-05
6.76137e-05
7.06673e-05
7.41971e-05
7.75129e-05
8.00211e-05
8.13546e-05
8.12979e-05
7.95572e-05
7.54614e-05
6.72394e-05
4.9756e-05
4.97643e-05
6.73448e-05
7.57465e-05
8.0187e-05
8.25331e-05
8.35548e-05
8.35944e-05
8.27643e-05
8.1054e-05
7.84524e-05
7.50931e-05
7.13633e-05
6.80532e-05
6.62747e-05
6.55436e-05
6.52823e-05
6.51933e-05
6.51638e-05
6.5163e-05
6.51914e-05
6.52795e-05
6.55396e-05
6.62684e-05
6.80415e-05
7.13341e-05
7.5011e-05
7.82379e-05
8.05514e-05
8.16978e-05
8.1501e-05
7.96682e-05
7.55162e-05
6.72607e-05
4.97568e-05
4.9763e-05
6.7346e-05
7.57532e-05
8.02032e-05
8.25665e-05
8.36179e-05
8.37043e-05
8.29394e-05
8.1306e-05
7.87712e-05
7.54296e-05
7.16421e-05
6.82337e-05
6.63816e-05
6.56113e-05
6.53331e-05
6.52368e-05
6.52031e-05
6.5202e-05
6.52345e-05
6.53301e-05
6.56071e-05
6.6375e-05
6.82216e-05
7.16109e-05
7.53468e-05
7.85555e-05
8.08022e-05
8.18718e-05
8.16099e-05
7.97301e-05
7.55474e-05
6.72724e-05
4.97561e-05
4.97616e-05
6.73463e-05
7.57564e-05
8.02108e-05
8.25818e-05
8.36461e-05
8.37515e-05
8.30115e-05
8.14051e-05
7.88904e-05
7.55504e-05
7.17411e-05
6.82978e-05
6.64197e-05
6.56352e-05
6.53505e-05
6.52506e-05
6.52137e-05
6.52124e-05
6.5248e-05
6.53472e-05
6.56308e-05
6.64131e-05
6.82856e-05
7.17097e-05
7.54673e-05
7.86742e-05
8.09006e-05
8.19433e-05
8.16564e-05
7.97573e-05
7.55614e-05
6.72772e-05
4.97545e-05
4.97604e-05
6.73459e-05
7.57567e-05
8.02115e-05
8.25828e-05
8.36474e-05
8.37534e-05
8.3014e-05
8.14082e-05
7.88941e-05
7.55546e-05
7.17454e-05
6.83011e-05
6.64217e-05
6.5636e-05
6.53503e-05
6.52492e-05
6.52105e-05
6.52088e-05
6.52463e-05
6.53468e-05
6.56315e-05
6.6415e-05
6.8289e-05
7.17142e-05
7.54717e-05
7.86781e-05
8.09039e-05
8.19459e-05
8.16584e-05
7.97587e-05
7.55622e-05
6.7277e-05
4.97527e-05
4.97602e-05
6.73453e-05
7.57542e-05
8.02052e-05
8.25695e-05
8.36221e-05
8.37099e-05
8.29467e-05
8.13154e-05
7.87827e-05
7.54429e-05
7.16559e-05
6.82441e-05
6.63881e-05
6.56142e-05
6.5333e-05
6.52332e-05
6.51946e-05
6.51928e-05
6.52301e-05
6.53293e-05
6.56096e-05
6.63814e-05
6.82323e-05
7.16253e-05
7.53609e-05
7.85678e-05
8.08123e-05
8.18798e-05
8.16159e-05
7.97343e-05
7.555e-05
6.72722e-05
4.97518e-05
4.97611e-05
6.73441e-05
7.57482e-05
8.01903e-05
8.25379e-05
8.35616e-05
8.36038e-05
8.27768e-05
8.10704e-05
7.84731e-05
7.51175e-05
7.1389e-05
6.80726e-05
6.6287e-05
6.55496e-05
6.52831e-05
6.51887e-05
6.5153e-05
6.51514e-05
6.51856e-05
6.52795e-05
6.55452e-05
6.62808e-05
6.80614e-05
7.13599e-05
7.50373e-05
7.82603e-05
8.05692e-05
8.17113e-05
8.1511e-05
7.96752e-05
7.55205e-05
6.72609e-05
4.97519e-05
4.97621e-05
6.73417e-05
7.57377e-05
8.01645e-05
8.24826e-05
8.34526e-05
8.34043e-05
8.24387e-05
8.05469e-05
7.77581e-05
7.43182e-05
7.07319e-05
6.76559e-05
6.60479e-05
6.53997e-05
6.51699e-05
6.50885e-05
6.50588e-05
6.50575e-05
6.50857e-05
6.51664e-05
6.53957e-05
6.60423e-05
6.76462e-05
7.07071e-05
7.42412e-05
7.75484e-05
8.00475e-05
8.13736e-05
8.13114e-05
7.95666e-05
7.54672e-05
6.72403e-05
4.97509e-05
4.97629e-05
6.73379e-05
7.57224e-05
8.01269e-05
8.24009e-05
8.3286e-05
8.30821e-05
8.18477e-05
7.95334e-05
7.6202e-05
7.24112e-05
6.92292e-05
6.67586e-05
6.55655e-05
6.51082e-05
6.49585e-05
6.49051e-05
6.48848e-05
6.48838e-05
6.49028e-05
6.49554e-05
6.51044e-05
6.55605e-05
6.67509e-05
6.92091e-05
7.23401e-05
7.59966e-05
7.90337e-05
8.07789e-05
8.09849e-05
7.93975e-05
7.53862e-05
6.72087e-05
4.97479e-05
4.97634e-05
6.73324e-05
7.57029e-05
8.00805e-05
8.22999e-05
8.30735e-05
8.26425e-05
8.0951e-05
7.77444e-05
7.28683e-05
6.76297e-05
6.5911e-05
6.50579e-05
6.4756e-05
6.46374e-05
6.4642e-05
6.46395e-05
6.46326e-05
6.46318e-05
6.46374e-05
6.46384e-05
6.46318e-05
6.47484e-05
6.50498e-05
6.58992e-05
6.75715e-05
7.26698e-05
7.72381e-05
7.987e-05
8.05343e-05
7.91785e-05
7.52849e-05
6.71694e-05
4.97432e-05
4.97636e-05
6.73245e-05
7.568e-05
8.00318e-05
8.2201e-05
8.28668e-05
8.21886e-05
7.98905e-05
7.50883e-05
6.5937e-05
5.45184e-05
5.90277e-05
6.24361e-05
6.37011e-05
6.40274e-05
6.42443e-05
6.43067e-05
6.43151e-05
6.43141e-05
6.4303e-05
6.42359e-05
6.40099e-05
6.36722e-05
6.24029e-05
5.90175e-05
5.44845e-05
6.57556e-05
7.456e-05
7.87827e-05
8.00619e-05
7.89645e-05
7.51885e-05
6.71321e-05
4.97383e-05
4.97627e-05
6.73099e-05
7.56488e-05
7.99816e-05
8.21257e-05
8.27444e-05
8.19421e-05
7.92322e-05
7.27792e-05
5.62467e-05
5.2106e-05
6.0292e-05
6.27351e-05
6.33914e-05
6.36057e-05
6.36681e-05
6.36811e-05
6.36782e-05
6.3657e-05
6.35773e-05
6.33266e-05
6.26105e-05
6.01034e-05
5.19554e-05
5.60743e-05
7.21878e-05
7.8077e-05
7.97949e-05
7.88433e-05
7.51296e-05
6.71079e-05
4.97361e-05
4.97572e-05
6.72731e-05
7.55856e-05
7.99046e-05
8.20603e-05
8.27425e-05
8.21223e-05
7.99381e-05
7.53206e-05
6.64535e-05
5.50276e-05
6.04781e-05
6.39408e-05
6.49816e-05
6.5212e-05
6.52702e-05
6.52882e-05
6.52912e-05
6.52858e-05
6.5265e-05
6.52032e-05
6.50416e-05
6.46137e-05
6.33047e-05
5.9774e-05
5.46444e-05
6.59038e-05
7.45565e-05
7.87111e-05
7.99616e-05
7.88643e-05
7.51101e-05
6.70897e-05
4.97344e-05
4.97388e-05
6.71751e-05
7.54293e-05
7.97192e-05
8.18971e-05
8.26964e-05
8.23848e-05
8.09378e-05
7.8138e-05
7.38658e-05
6.93264e-05
6.84191e-05
6.78547e-05
6.70724e-05
6.6605e-05
6.64164e-05
6.63547e-05
6.63355e-05
6.63272e-05
6.63172e-05
6.62994e-05
6.62818e-05
6.63072e-05
6.64324e-05
6.68503e-05
6.80049e-05
7.27961e-05
7.71239e-05
7.96189e-05
8.02256e-05
7.88782e-05
7.50461e-05
6.70309e-05
4.97234e-05
4.96869e-05
6.69318e-05
7.50566e-05
7.92696e-05
8.14402e-05
8.23398e-05
8.23067e-05
8.14451e-05
7.97493e-05
7.72904e-05
7.45163e-05
7.22633e-05
7.00472e-05
6.80033e-05
6.69699e-05
6.65739e-05
6.64443e-05
6.64061e-05
6.63958e-05
6.63964e-05
6.64167e-05
6.6511e-05
6.68478e-05
6.78087e-05
6.99025e-05
7.25663e-05
7.58228e-05
7.85359e-05
8.00722e-05
8.01954e-05
7.86462e-05
7.47785e-05
6.68322e-05
4.96786e-05
4.95539e-05
6.6378e-05
7.42436e-05
7.82916e-05
8.03893e-05
8.13276e-05
8.14813e-05
8.10073e-05
7.99471e-05
7.83262e-05
7.62536e-05
7.39165e-05
7.13427e-05
6.8961e-05
6.77367e-05
6.72548e-05
6.70926e-05
6.70443e-05
6.7033e-05
6.70395e-05
6.70801e-05
6.72289e-05
6.76935e-05
6.8915e-05
7.13645e-05
7.41456e-05
7.6755e-05
7.87037e-05
7.9686e-05
7.95064e-05
7.78623e-05
7.40609e-05
6.63182e-05
4.95516e-05
4.92371e-05
6.52006e-05
7.25907e-05
7.63396e-05
7.82704e-05
7.91671e-05
7.94129e-05
7.91811e-05
7.85217e-05
7.74293e-05
7.59048e-05
7.40031e-05
7.18709e-05
6.99257e-05
6.88387e-05
6.8378e-05
6.82115e-05
6.81594e-05
6.81484e-05
6.81574e-05
6.82069e-05
6.83691e-05
6.8826e-05
6.99163e-05
7.19011e-05
7.41124e-05
7.60699e-05
7.74444e-05
7.80408e-05
7.76877e-05
7.60708e-05
7.24855e-05
6.51721e-05
4.9239e-05
4.85265e-05
6.2789e-05
6.93415e-05
7.25928e-05
7.42347e-05
7.50025e-05
7.52588e-05
7.51703e-05
7.47871e-05
7.40976e-05
7.30798e-05
7.17588e-05
7.02753e-05
6.89441e-05
6.81492e-05
6.7784e-05
6.76456e-05
6.76011e-05
6.75913e-05
6.76003e-05
6.76437e-05
6.77805e-05
6.81448e-05
6.89443e-05
7.0292e-05
7.18004e-05
7.31139e-05
7.39986e-05
7.43114e-05
7.38975e-05
7.24504e-05
6.92947e-05
6.27821e-05
4.85315e-05
4.70343e-05
5.77849e-05
6.27939e-05
6.52106e-05
6.63875e-05
6.69256e-05
6.71192e-05
6.71036e-05
6.69207e-05
6.65606e-05
6.59992e-05
6.5246e-05
6.4392e-05
6.3624e-05
6.31451e-05
6.29136e-05
6.28214e-05
6.27902e-05
6.27832e-05
6.27904e-05
6.28216e-05
6.29137e-05
6.31453e-05
6.36263e-05
6.44002e-05
6.52606e-05
6.59978e-05
6.64708e-05
6.65907e-05
6.62388e-05
6.51588e-05
6.27849e-05
5.77899e-05
4.70399e-05
4.45126e-05
4.70377e-05
4.85359e-05
4.92522e-05
4.95744e-05
4.97117e-05
4.97635e-05
4.97712e-05
4.97459e-05
4.96831e-05
4.95809e-05
4.94334e-05
4.92558e-05
4.90892e-05
4.89828e-05
4.89291e-05
4.8905e-05
4.88937e-05
4.88898e-05
4.88942e-05
4.89055e-05
4.89294e-05
4.89826e-05
4.90887e-05
4.92554e-05
4.94334e-05
4.95777e-05
4.96652e-05
4.9675e-05
4.95695e-05
4.92601e-05
4.85462e-05
4.70456e-05
4.4517e-05
6.90355e-05
7.84786e-05
8.37281e-05
8.63439e-05
8.76155e-05
8.82069e-05
8.84635e-05
8.8563e-05
8.85927e-05
8.8593e-05
8.85826e-05
8.85703e-05
8.85599e-05
8.85527e-05
8.8548e-05
8.85449e-05
8.85428e-05
8.85416e-05
8.85415e-05
8.85425e-05
8.85444e-05
8.85474e-05
8.85515e-05
8.85572e-05
8.85628e-05
8.85617e-05
8.85355e-05
8.84424e-05
8.81929e-05
8.76076e-05
8.63403e-05
8.37273e-05
7.84791e-05
6.90367e-05
7.8479e-05
0.000229841
0.000284787
0.000310921
0.000324395
0.000331259
0.000334528
0.000335887
0.00033628
0.00033622
0.000335982
0.000335712
0.000335486
0.000335328
0.000335228
0.000335164
0.000335125
0.000335106
0.000335106
0.000335125
0.000335164
0.000335225
0.000335315
0.000335443
0.000335582
0.000335622
0.000335292
0.000334055
0.000330924
0.000324182
0.000310797
0.000284722
0.000229814
7.84798e-05
8.3731e-05
0.000284812
0.000362338
0.000400393
0.000420606
0.000431229
0.00043642
0.00043856
0.000439056
0.000438736
0.000438096
0.000437432
0.000436901
0.000436548
0.000436337
0.00043621
0.000436133
0.000436096
0.000436097
0.000436134
0.000436209
0.000436331
0.000436521
0.000436813
0.000437175
0.000437412
0.000437051
0.000435204
0.000430363
0.00042006
0.000400089
0.000362193
0.000284763
8.37321e-05
8.63493e-05
0.000310963
0.000400414
0.000445389
0.000469786
0.000482806
0.000489128
0.000491484
0.000491563
0.000490458
0.000488914
0.000487439
0.000486309
0.000485591
0.000485183
0.000484935
0.000484782
0.000484708
0.000484709
0.000484783
0.000484934
0.000485174
0.000485551
0.000486178
0.000487066
0.000487944
0.000488134
0.000486411
0.000480857
0.000468542
0.000444688
0.000400075
0.000310843
8.63488e-05
8.7623e-05
0.00032445
0.00042065
0.000469817
0.000496805
0.000511186
0.000517825
0.000519598
0.000518375
0.00051552
0.000512148
0.000509134
0.000506923
0.000505604
0.000504901
0.000504451
0.000504159
0.000504016
0.000504017
0.000504161
0.000504451
0.00050489
0.000505554
0.00050676
0.00050867
0.000510952
0.000512694
0.000512222
0.00050716
0.000494223
0.00046834
0.000419916
0.000324173
8.76164e-05
8.82161e-05
0.000331329
0.00043131
0.000482906
0.000511286
0.000526061
0.000532048
0.000532079
0.000528098
0.00052181
0.000515025
0.000509396
0.000505475
0.000503341
0.00050233
0.000501576
0.000501049
0.00050079
0.000500791
0.000501051
0.000501577
0.000502318
0.000503288
0.000505297
0.000508881
0.000513684
0.000518635
0.000521228
0.000518353
0.000506357
0.000480071
0.000429874
0.00033076
8.81956e-05
8.84744e-05
0.000334626
0.000436579
0.000489387
0.000518195
0.000532423
0.000536601
0.000533248
0.00052415
0.00051144
0.000498485
0.000489189
0.000483164
0.000480351
0.000479339
0.000478164
0.000477272
0.000476847
0.000476848
0.000477275
0.000478166
0.000479331
0.000480304
0.000482995
0.000488674
0.000497091
0.000508066
0.000516808
0.000518649
0.000509517
0.000484416
0.000434037
0.000333586
8.84289e-05
8.85763e-05
0.00033604
0.000438876
0.000492077
0.000520573
0.000533401
0.000534496
0.000525535
0.000507398
0.000482253
0.000457221
0.000445863
0.00043936
0.000437207
0.000437255
0.000435543
0.000434205
0.000433617
0.000433618
0.000434208
0.000435546
0.000437253
0.000437175
0.000439225
0.000445411
0.000455892
0.000478827
0.00049977
0.000510349
0.000506495
0.000484134
0.000434814
0.000334346
8.84934e-05
8.861e-05
0.000336535
0.000439657
0.000492769
0.000520501
0.000531344
0.000528229
0.000510943
0.00047697
0.000424297
0.000365622
0.000371915
0.000375191
0.000377881
0.000380957
0.000378815
0.000377298
0.000376723
0.000376724
0.000377301
0.000378819
0.000380961
0.000377869
0.000375116
0.000371619
0.000364586
0.000421018
0.000469189
0.000495337
0.0004996
0.000481285
0.000433829
0.00033408
8.84815e-05
8.86169e-05
0.000336639
0.000439787
0.000492645
0.000519543
0.000528378
0.000520741
0.000492938
0.000432317
0.000307403
0.000103578
0.000247923
0.000298379
0.000313573
0.000320809
0.00031927
0.000318387
0.000318129
0.000318129
0.000318389
0.000319274
0.000320818
0.000313582
0.000298385
0.000247931
0.000103436
0.000304778
0.00042453
0.000477024
0.000491676
0.000477823
0.000432356
0.000333492
8.84462e-05
8.8616e-05
0.000336629
0.000439765
0.00049246
0.00051887
0.000526527
0.000516029
0.000479988
0.000386914
0.000106543
9.29197e-05
0.000236854
0.000265468
0.000271421
0.000274436
0.000275443
0.000275675
0.000275676
0.000275446
0.000274442
0.00027143
0.000265485
0.000236891
9.29226e-05
0.000106053
0.000379441
0.000463934
0.000486743
0.000475727
0.000431432
0.000333085
8.84223e-05
8.86151e-05
0.000336625
0.000439822
0.000492583
0.000519096
0.000527057
0.000517793
0.000487337
0.000422962
0.000294251
9.97345e-05
0.000212265
0.000247359
0.000254551
0.000250326
0.000258576
0.000261451
0.000262014
0.000262014
0.000261452
0.000258578
0.00025032
0.000254541
0.000247339
0.000212217
9.95765e-05
0.000291588
0.000415127
0.000471319
0.00048855
0.000476251
0.000431599
0.000333095
8.84258e-05
8.86159e-05
0.000336663
0.000439997
0.00049301
0.000520036
0.000529133
0.000522627
0.000499523
0.000456439
0.0003907
0.000315997
0.000295912
0.000276405
0.000268729
0.000264563
0.000266397
0.000267307
0.000267506
0.000267505
0.000267304
0.000266391
0.000264546
0.000268694
0.000276312
0.000295616
0.000314986
0.000387423
0.000448556
0.000483654
0.000493549
0.000478446
0.000432585
0.000333465
8.84512e-05
8.86175e-05
0.000336726
0.000440229
0.000493565
0.00052122
0.000531562
0.000527558
0.000509587
0.000476989
0.000430587
0.000377486
0.000332575
0.000294018
0.000278029
0.000272325
0.000271167
0.000270969
0.000270927
0.000270926
0.000270967
0.000271161
0.000272308
0.000277986
0.000293897
0.000332193
0.00037626
0.000427162
0.000469129
0.000493842
0.000498629
0.000480996
0.000433826
0.000333966
8.84827e-05
8.86188e-05
0.00033679
0.00044045
0.000494078
0.00052228
0.000533612
0.000531343
0.000516306
0.000488346
0.000448053
0.000399047
0.000348348
0.000302838
0.000282824
0.000275634
0.000273458
0.000272877
0.000272745
0.000272745
0.000272876
0.000273454
0.000275619
0.000282781
0.000302712
0.000347945
0.00039776
0.000444581
0.000480497
0.000500625
0.000502499
0.000483118
0.000434915
0.00033442
8.8509e-05
8.86192e-05
0.000336839
0.000440616
0.000494462
0.000523052
0.000535041
0.000533812
0.000520294
0.000494305
0.000456007
0.000407772
0.000355177
0.000306998
0.000285194
0.00027718
0.000274624
0.000273914
0.000273755
0.000273755
0.000273914
0.000274621
0.000277167
0.000285152
0.000306873
0.000354783
0.000406463
0.000452509
0.000486449
0.000504629
0.000504997
0.000484572
0.000435684
0.000334745
8.85258e-05
8.86188e-05
0.000336869
0.000440721
0.000494701
0.000523524
0.000535888
0.000535208
0.000522409
0.000497222
0.000459568
0.000411403
0.000358026
0.000308812
0.000286259
0.000277874
0.000275167
0.000274411
0.000274244
0.000274244
0.000274411
0.000275164
0.000277861
0.000286217
0.000308686
0.000357634
0.000410082
0.000456054
0.000489354
0.000506741
0.000506394
0.000485417
0.000436141
0.000334938
8.85343e-05
8.8618e-05
0.000336883
0.00044077
0.000494814
0.000523743
0.000536272
0.000535823
0.000523306
0.0004984
0.00046093
0.00041273
0.000359056
0.000309476
0.00028665
0.000278127
0.000275366
0.000274595
0.000274426
0.000274427
0.000274596
0.000275364
0.000278115
0.000286609
0.00030935
0.00035866
0.000411402
0.000457407
0.000490523
0.000507631
0.000507004
0.000485795
0.000436346
0.000335024
8.85371e-05
8.86171e-05
0.000336883
0.000440772
0.000494817
0.000523749
0.00053628
0.000535834
0.00052332
0.000498417
0.000460948
0.000412748
0.000359074
0.000309499
0.000286664
0.000278134
0.00027537
0.000274599
0.000274431
0.000274432
0.0002746
0.000275368
0.000278122
0.000286623
0.000309373
0.000358678
0.000411421
0.000457426
0.00049054
0.000507645
0.000507015
0.000485802
0.00043635
0.000335024
8.8536e-05
8.86167e-05
0.000336869
0.000440726
0.000494711
0.00052354
0.000535911
0.000535239
0.00052245
0.000497272
0.000459625
0.000411462
0.000358085
0.000308886
0.000286307
0.000277902
0.000275187
0.00027443
0.000274266
0.000274267
0.000274432
0.000275186
0.000277891
0.000286267
0.000308763
0.000357693
0.000410142
0.000456112
0.000489405
0.000506782
0.000506425
0.000485438
0.000436152
0.00033494
8.85316e-05
8.86163e-05
0.000336837
0.000440623
0.000494476
0.000523076
0.000535076
0.000533861
0.00052036
0.000494391
0.000456111
0.000407886
0.000355292
0.000307143
0.000285296
0.000277251
0.000274682
0.000273972
0.000273816
0.000273818
0.000273975
0.000274684
0.000277243
0.000285261
0.000307028
0.00035491
0.000406582
0.000452617
0.000486535
0.000504694
0.000505044
0.000484604
0.000435702
0.000334748
8.85223e-05
8.86155e-05
0.000336785
0.000440453
0.000494089
0.0005223
0.000533645
0.000531397
0.00051639
0.000488469
0.00044822
0.000399252
0.000348598
0.000303088
0.000283006
0.000275775
0.000273582
0.000273001
0.000272874
0.000272876
0.000273007
0.000273588
0.000275774
0.000282981
0.000302987
0.000348227
0.000397981
0.000444755
0.000480615
0.000500698
0.000502543
0.000483146
0.000434929
0.00033442
8.85051e-05
8.86136e-05
0.00033671
0.000440213
0.000493548
0.000521205
0.000531557
0.000527577
0.000509652
0.000477134
0.000430843
0.00037785
0.000333006
0.000294378
0.000278273
0.000272521
0.000271329
0.000271129
0.000271094
0.000271097
0.000271139
0.000271341
0.000272528
0.000278257
0.000294296
0.000332682
0.000376658
0.000427427
0.000469246
0.000493867
0.000498617
0.00048098
0.000433813
0.00033395
8.84781e-05
8.86104e-05
0.000336614
0.000439919
0.000492901
0.000519901
0.000528987
0.000522495
0.000499456
0.00045653
0.000391073
0.000316622
0.000296534
0.000276649
0.000268714
0.000264466
0.000266205
0.000267104
0.000267314
0.000267318
0.000267116
0.000266218
0.000264459
0.000268672
0.000276565
0.000296331
0.000315684
0.000387815
0.000448542
0.000483453
0.000493328
0.000478276
0.000432475
0.0003334
8.84443e-05
8.86049e-05
0.000336485
0.000439571
0.000492222
0.000518636
0.000526519
0.000517217
0.000486811
0.000422713
0.000294736
9.98564e-05
0.000212491
0.000246117
0.000252581
0.00024798
0.000256063
0.000258936
0.000259511
0.00025951
0.000258926
0.000256018
0.000247826
0.000252296
0.000245777
0.000212523
9.96989e-05
0.000292146
0.000414514
0.0004704
0.000487743
0.00047567
0.000431234
0.000332901
8.84125e-05
8.85923e-05
0.000336251
0.000439077
0.00049148
0.000517626
0.000525045
0.000514336
0.00047816
0.000385308
0.000106263
9.17229e-05
0.000229621
0.000256076
0.000260685
0.000263458
0.0002645
0.000264765
0.000264747
0.000264415
0.000263202
0.000260032
0.00025477
0.000227729
9.12032e-05
0.000105509
0.000376605
0.00046107
0.000484521
0.000474188
0.000430466
0.000332581
8.83919e-05
8.85564e-05
0.000335683
0.000438083
0.000490277
0.000516583
0.000524859
0.000516611
0.000488057
0.000426612
0.000301619
0.00010167
0.000230976
0.000274788
0.000283885
0.000286861
0.000285161
0.000284591
0.000284493
0.000284443
0.000284361
0.000284449
0.000284976
0.000279649
0.00026719
0.000223181
0.000100209
0.000294492
0.000414978
0.000469766
0.000486527
0.000474314
0.000430113
0.0003323
8.83738e-05
8.84565e-05
0.00033427
0.000435768
0.000487533
0.000514109
0.000523861
0.00051948
0.000500359
0.000463418
0.000405884
0.000339621
0.000331895
0.00032064
0.000307213
0.000300937
0.00029788
0.000296858
0.00029658
0.000296495
0.000296457
0.00029658
0.000297184
0.000297721
0.000301413
0.000311021
0.00032223
0.000390365
0.000447842
0.000480597
0.000489354
0.000474163
0.00042909
0.00033146
8.83107e-05
8.82027e-05
0.000331029
0.00043063
0.000481335
0.000507809
0.000518821
0.000517866
0.000505896
0.000482662
0.000448722
0.000409344
0.000376744
0.000342933
0.00031028
0.000296703
0.000291924
0.000290426
0.000289999
0.000289892
0.000289913
0.000290199
0.000291414
0.000295537
0.000308757
0.000342553
0.000381104
0.000426699
0.000463917
0.000485247
0.00048838
0.00047087
0.000425466
0.000328891
8.8099e-05
8.76149e-05
0.000324227
0.000420166
0.00046868
0.000494239
0.000505777
0.000507187
0.000500014
0.000484604
0.000461134
0.000430839
0.000396276
0.000357784
0.000320686
0.000304742
0.000299036
0.000297188
0.000296642
0.000296517
0.000296598
0.000297074
0.000298806
0.000304372
0.000320476
0.000358726
0.000399685
0.000437313
0.000465329
0.000480079
0.000479609
0.000460968
0.000416459
0.00032273
8.75491e-05
8.6346e-05
0.000310813
0.000400123
0.000444687
0.000468136
0.000479217
0.000481894
0.0004779
0.000467703
0.000451191
0.000428417
0.00040031
0.000369136
0.000340935
0.000326809
0.000321109
0.000319091
0.000318446
0.000318296
0.000318432
0.00031905
0.000321036
0.000326739
0.000341066
0.000369857
0.000401983
0.000430521
0.000450915
0.000460623
0.000457836
0.000439433
0.00039769
0.000309859
8.63098e-05
8.37316e-05
0.000284723
0.000362201
0.000400046
0.000419722
0.000429186
0.000432113
0.000430176
0.000423873
0.000413067
0.000397609
0.000378085
0.00035665
0.000337794
0.000327158
0.000322398
0.000320552
0.000319917
0.00031977
0.000319922
0.000320558
0.000322408
0.000327196
0.000337946
0.00035706
0.000378787
0.000398043
0.000411472
0.000417106
0.000413251
0.000396881
0.000360804
0.000284191
8.37163e-05
7.84822e-05
0.000229805
0.000284761
0.000310825
0.000324075
0.000330409
0.000332582
0.000331875
0.000328688
0.000322935
0.000314475
0.000303632
0.000291743
0.000281316
0.000274977
0.000271921
0.000270662
0.000270209
0.000270105
0.000270223
0.000270689
0.000271963
0.000275044
0.000281444
0.000291977
0.000303944
0.0003145
0.00032168
0.000324236
0.000320909
0.000309358
0.000284151
0.000229575
7.84797e-05
6.90391e-05
7.84821e-05
8.37362e-05
8.63549e-05
8.76224e-05
8.81934e-05
8.83966e-05
8.83814e-05
8.81935e-05
8.78222e-05
8.72429e-05
8.64633e-05
8.55776e-05
8.47832e-05
8.42847e-05
8.40408e-05
8.39399e-05
8.39033e-05
8.38947e-05
8.39042e-05
8.39415e-05
8.40427e-05
8.42873e-05
8.47881e-05
8.5588e-05
8.64784e-05
8.72395e-05
8.77271e-05
8.78463e-05
8.74644e-05
8.62937e-05
8.37175e-05
7.84789e-05
6.90436e-05
7.24536e-05
8.55263e-05
9.26812e-05
9.63203e-05
9.81562e-05
9.90481e-05
9.94526e-05
9.96152e-05
9.96637e-05
9.96615e-05
9.96401e-05
9.9615e-05
9.9594e-05
9.95794e-05
9.95701e-05
9.95643e-05
9.95607e-05
9.95589e-05
9.95588e-05
9.95605e-05
9.9564e-05
9.95695e-05
9.95777e-05
9.95892e-05
9.96012e-05
9.96016e-05
9.95595e-05
9.94089e-05
9.9018e-05
9.81378e-05
9.63104e-05
9.26767e-05
8.55249e-05
7.24548e-05
8.55264e-05
0.000302245
0.000387447
0.000428966
0.000450828
0.000462241
0.000467824
0.000470197
0.000470876
0.000470725
0.000470232
0.000469673
0.000469201
0.000468864
0.000468648
0.00046851
0.000468426
0.000468385
0.000468385
0.000468425
0.000468506
0.000468637
0.000468831
0.000469104
0.000469401
0.000469516
0.000468964
0.000466831
0.000461523
0.000450357
0.000428683
0.000387291
0.000302175
8.55248e-05
9.26838e-05
0.00038749
0.000515443
0.000580183
0.000615169
0.000633866
0.00064316
0.000647034
0.000647892
0.000647198
0.000645866
0.000644471
0.000643338
0.000642571
0.000642105
0.000641819
0.000641648
0.000641567
0.000641567
0.000641647
0.000641815
0.000642085
0.000642505
0.000643141
0.000643929
0.000644482
0.000643913
0.000640631
0.000632039
0.000613985
0.000579497
0.000515095
0.000387356
9.26805e-05
9.63257e-05
0.00042904
0.000580225
0.000658742
0.000702003
0.00072539
0.000736874
0.000741158
0.000741194
0.000738939
0.000735778
0.000732702
0.000730302
0.000728759
0.00072787
0.000727319
0.000726982
0.000726821
0.000726821
0.000726982
0.000727313
0.000727841
0.000728662
0.000730012
0.000731915
0.000733808
0.000734375
0.000731367
0.000721399
0.000699409
0.000657235
0.000579461
0.000428746
9.63169e-05
9.81643e-05
0.000450928
0.000615259
0.000702071
0.000750426
0.000776462
0.000788565
0.000791735