/*--------------------------------*- C++ -*----------------------------------*\
| =========                 |                                                 |
| \\      /  F ield         | OpenFOAM: The Open Source CFD Toolbox           |
|  \\    /   O peration     | Version:  2112                                  |
|   \\  /    A nd           | Website:  www.openfoam.com                      |
|    \\/     M anipulation  |                                                 |
\*---------------------------------------------------------------------------*/
FoamFile
{
    version     2.0;
    format      ascii;
    arch        "LSB;label=32;scalar=64";
    class       volScalarField;
    location    "3.5";
    object      p;
}
// * * * * * * * * * * * * * * * * * * * * * * * * * * * * * * * * * * * * * //

dimensions      [0 2 -2 0 0 0 0];

internalField   nonuniform List<scalar> 
64906
(
-5.4245e-06
-5.40616e-06
-5.39238e-06
-5.39262e-06
-5.41245e-06
-5.45585e-06
-5.53309e-06
-5.63889e-06
-5.7585e-06
-5.88937e-06
-6.03909e-06
-6.21521e-06
-6.3723e-06
-6.51624e-06
-6.6433e-06
-6.75845e-06
-6.83961e-06
-6.88871e-06
-6.90841e-06
-6.89885e-06
-6.85741e-06
-6.78331e-06
-6.69847e-06
-6.59834e-06
-6.48692e-06
-6.35516e-06
-6.2481e-06
-6.1575e-06
-6.08562e-06
-6.04525e-06
-6.03077e-06
-6.03865e-06
-6.05296e-06
-6.07165e-06
-5.36852e-06
-5.29777e-06
-5.24236e-06
-5.20295e-06
-5.18901e-06
-5.20045e-06
-5.23647e-06
-5.29367e-06
-5.36607e-06
-5.45007e-06
-5.54061e-06
-5.62415e-06
-5.71678e-06
-5.80444e-06
-5.88065e-06
-5.94564e-06
-5.99467e-06
-6.02801e-06
-6.04626e-06
-6.04954e-06
-6.03754e-06
-6.01036e-06
-5.97294e-06
-5.92512e-06
-5.87363e-06
-5.83501e-06
-5.79045e-06
-5.75365e-06
-5.73356e-06
-5.73646e-06
-5.76617e-06
-5.82225e-06
-5.90379e-06
-5.99327e-06
-5.34196e-06
-5.23334e-06
-5.13033e-06
-5.04459e-06
-4.99259e-06
-4.97299e-06
-4.98288e-06
-5.01923e-06
-5.0774e-06
-5.15472e-06
-5.24106e-06
-5.33212e-06
-5.41512e-06
-5.48963e-06
-5.54932e-06
-5.59789e-06
-5.63464e-06
-5.6613e-06
-5.67835e-06
-5.68592e-06
-5.68383e-06
-5.67061e-06
-5.64733e-06
-5.61055e-06
-5.56737e-06
-5.51906e-06
-5.4794e-06
-5.45394e-06
-5.45622e-06
-5.49211e-06
-5.56825e-06
-5.68722e-06
-5.82761e-06
-5.96852e-06
-5.34679e-06
-5.20332e-06
-5.05617e-06
-4.92696e-06
-4.84158e-06
-4.79998e-06
-4.8003e-06
-4.84171e-06
-4.92158e-06
-5.04044e-06
-5.18184e-06
-5.34026e-06
-5.47237e-06
-5.58198e-06
-5.66016e-06
-5.71875e-06
-5.75952e-06
-5.78729e-06
-5.8032e-06
-5.80735e-06
-5.79891e-06
-5.77329e-06
-5.72924e-06
-5.65532e-06
-5.56177e-06
-5.44564e-06
-5.35347e-06
-5.29256e-06
-5.28424e-06
-5.33235e-06
-5.44237e-06
-5.61488e-06
-5.81086e-06
-5.99826e-06
-5.39717e-06
-5.22415e-06
-5.0417e-06
-4.88001e-06
-4.77456e-06
-4.72877e-06
-4.74454e-06
-4.82678e-06
-4.97829e-06
-5.20847e-06
-5.49213e-06
-5.82248e-06
-6.0859e-06
-6.29435e-06
-6.43484e-06
-6.5355e-06
-6.60064e-06
-6.6398e-06
-6.65492e-06
-6.64606e-06
-6.61156e-06
-6.542e-06
-6.43384e-06
-6.25942e-06
-6.0339e-06
-5.74613e-06
-5.51601e-06
-5.35126e-06
-5.28385e-06
-5.30995e-06
-5.42987e-06
-5.63675e-06
-5.8759e-06
-6.10275e-06
-5.49531e-06
-5.29427e-06
-5.08207e-06
-4.89815e-06
-4.7862e-06
-4.75452e-06
-4.81076e-06
-4.9691e-06
-5.24279e-06
-5.65994e-06
-6.19056e-06
-6.84764e-06
-7.33991e-06
-7.71602e-06
-7.96171e-06
-8.13631e-06
-8.24596e-06
-8.30694e-06
-8.32168e-06
-8.29016e-06
-8.21012e-06
-8.06525e-06
-7.85036e-06
-7.5066e-06
-7.05178e-06
-6.43718e-06
-5.96654e-06
-5.62298e-06
-5.4465e-06
-5.41595e-06
-5.52216e-06
-5.74656e-06
-6.02027e-06
-6.28535e-06
-5.63961e-06
-5.40956e-06
-5.16728e-06
-4.96983e-06
-4.86317e-06
-4.86157e-06
-4.97916e-06
-5.24144e-06
-5.67721e-06
-6.35328e-06
-7.22626e-06
-8.46814e-06
-9.28685e-06
-9.89019e-06
-1.02717e-05
-1.0544e-05
-1.07128e-05
-1.08036e-05
-1.08183e-05
-1.07571e-05
-1.06176e-05
-1.03739e-05
-1.00218e-05
-9.44853e-06
-8.66699e-06
-7.46466e-06
-6.66303e-06
-6.06833e-06
-5.74233e-06
-5.62742e-06
-5.701e-06
-5.93148e-06
-6.23604e-06
-6.54382e-06
-5.8259e-06
-5.55692e-06
-5.29404e-06
-5.08536e-06
-4.99462e-06
-5.03859e-06
-5.23553e-06
-5.61733e-06
-6.23083e-06
-7.17992e-06
-8.41821e-06
-1.07399e-05
-1.19221e-05
-1.28024e-05
-1.33468e-05
-1.37434e-05
-1.39886e-05
-1.41182e-05
-1.41335e-05
-1.40341e-05
-1.38187e-05
-1.34503e-05
-1.29336e-05
-1.20797e-05
-1.09344e-05
-8.6407e-06
-7.49887e-06
-6.63524e-06
-6.14183e-06
-5.92621e-06
-5.95133e-06
-6.17851e-06
-6.51381e-06
-6.87304e-06
-6.05708e-06
-5.73338e-06
-5.44544e-06
-5.23036e-06
-5.16517e-06
-5.26774e-06
-5.55562e-06
-6.05781e-06
-6.78612e-06
-7.92369e-06
-9.52192e-06
-1.38313e-05
-1.50842e-05
-1.62243e-05
-1.69247e-05
-1.74353e-05
-1.7751e-05
-1.79175e-05
-1.79336e-05
-1.77987e-05
-1.75136e-05
-1.70312e-05
-1.63573e-05
-1.52362e-05
-1.40212e-05
-9.72458e-06
-8.289e-06
-7.21106e-06
-6.6051e-06
-6.285e-06
-6.25208e-06
-6.4724e-06
-6.8341e-06
-7.26251e-06
-6.30513e-06
-5.92737e-06
-5.61488e-06
-5.40184e-06
-5.38094e-06
-5.57204e-06
-5.99383e-06
-6.6494e-06
-7.58166e-06
-9.90687e-06
-7.96758e-06
-1.70132e-05
-1.82746e-05
-1.99062e-05
-2.08356e-05
-2.15255e-05
-2.19524e-05
-2.21731e-05
-2.21899e-05
-2.20024e-05
-2.16078e-05
-2.09474e-05
-2.00451e-05
-1.84271e-05
-1.72309e-05
-8.06896e-06
-1.0245e-05
-7.97743e-06
-7.2035e-06
-6.74783e-06
-6.61641e-06
-6.80702e-06
-7.19134e-06
-7.70932e-06
-6.56718e-06
-6.12749e-06
-5.78753e-06
-5.57941e-06
-5.61353e-06
-5.91236e-06
-6.45777e-06
-7.09824e-06
-7.72324e-06
-5.59349e-06
-2.50662e-05
-2.25016e-05
-2.34897e-05
-2.43457e-05
-2.50895e-05
-2.55806e-05
-2.58292e-05
-2.58465e-05
-2.56319e-05
-2.51741e-05
-2.44607e-05
-2.3629e-05
-2.26472e-05
-2.5133e-05
-6.24676e-06
-8.254e-06
-7.69189e-06
-7.23234e-06
-7.0042e-06
-7.14931e-06
-7.5581e-06
-8.2023e-06
-6.83582e-06
-6.32645e-06
-5.96186e-06
-5.77004e-06
-5.89392e-06
-6.40445e-06
-7.41046e-06
-9.06233e-06
-1.17716e-05
-1.52071e-05
-2.27584e-05
-2.15933e-05
-2.43097e-05
-2.62738e-05
-2.77524e-05
-2.88563e-05
-2.95363e-05
-2.98603e-05
-2.98777e-05
-2.95889e-05
-2.8945e-05
-2.78784e-05
-2.644e-05
-2.45236e-05
-2.18525e-05
-2.31339e-05
-1.55437e-05
-1.217e-05
-9.57802e-06
-8.15011e-06
-7.51316e-06
-7.52202e-06
-7.92002e-06
-8.70783e-06
-7.1143e-06
-6.49744e-06
-6.11622e-06
-5.92873e-06
-6.10683e-06
-6.73717e-06
-7.93655e-06
-9.8042e-06
-1.24517e-05
-1.55406e-05
-2.06237e-05
-2.33914e-05
-2.59015e-05
-2.80781e-05
-2.98088e-05
-3.10355e-05
-3.17923e-05
-3.21526e-05
-3.21698e-05
-3.1844e-05
-3.11229e-05
-2.99331e-05
-2.82421e-05
-2.61022e-05
-2.36179e-05
-2.09191e-05
-1.58787e-05
-1.28215e-05
-1.02871e-05
-8.66219e-06
-7.87422e-06
-7.83377e-06
-8.26405e-06
-9.16701e-06
-7.35092e-06
-6.6725e-06
-6.25908e-06
-6.06559e-06
-6.27623e-06
-6.98335e-06
-8.30456e-06
-1.03332e-05
-1.3164e-05
-1.66224e-05
-2.08435e-05
-2.40899e-05
-2.70303e-05
-2.94227e-05
-3.12881e-05
-3.2556e-05
-3.33276e-05
-3.36897e-05
-3.37062e-05
-3.33775e-05
-3.26406e-05
-3.14092e-05
-2.95836e-05
-2.72289e-05
-2.43294e-05
-2.11152e-05
-1.6911e-05
-1.34942e-05
-1.07895e-05
-9.02628e-06
-8.15744e-06
-8.10416e-06
-8.57723e-06
-9.58066e-06
-7.55372e-06
-6.82621e-06
-6.3801e-06
-6.16994e-06
-6.38715e-06
-7.1233e-06
-8.48937e-06
-1.05714e-05
-1.34353e-05
-1.693e-05
-2.08932e-05
-2.44593e-05
-2.76804e-05
-3.01698e-05
-3.20759e-05
-3.33351e-05
-3.40916e-05
-3.44418e-05
-3.44577e-05
-3.41397e-05
-3.34166e-05
-3.21926e-05
-3.03254e-05
-2.78728e-05
-2.46934e-05
-2.1145e-05
-1.71967e-05
-1.37456e-05
-1.10171e-05
-9.22128e-06
-8.34347e-06
-8.31459e-06
-8.8401e-06
-9.93121e-06
-7.7209e-06
-6.95392e-06
-6.48004e-06
-6.25133e-06
-6.46449e-06
-7.20954e-06
-8.59176e-06
-1.06939e-05
-1.35683e-05
-1.7084e-05
-2.10124e-05
-2.4732e-05
-2.8099e-05
-3.06456e-05
-3.2566e-05
-3.3806e-05
-3.45406e-05
-3.48762e-05
-3.48919e-05
-3.4588e-05
-3.38864e-05
-3.26809e-05
-3.07988e-05
-2.8289e-05
-2.49736e-05
-2.12552e-05
-1.73391e-05
-1.38691e-05
-1.11391e-05
-9.34105e-06
-8.47659e-06
-8.48079e-06
-9.0538e-06
-1.0214e-05
-7.8494e-06
-7.0526e-06
-6.55723e-06
-6.31169e-06
-6.51651e-06
-7.26054e-06
-8.64588e-06
-1.07554e-05
-1.36377e-05
-1.71794e-05
-2.11338e-05
-2.4949e-05
-2.83927e-05
-3.09714e-05
-3.28974e-05
-3.41241e-05
-3.48441e-05
-3.51704e-05
-3.51865e-05
-3.48926e-05
-3.4206e-05
-3.30139e-05
-3.11255e-05
-2.858e-05
-2.51729e-05
-2.13701e-05
-1.74298e-05
-1.39366e-05
-1.12061e-05
-9.41434e-06
-8.56876e-06
-8.60416e-06
-9.21508e-06
-1.04259e-05
-7.93787e-06
-7.1218e-06
-6.61277e-06
-6.35606e-06
-6.55499e-06
-7.2983e-06
-8.68737e-06
-1.08063e-05
-1.37033e-05
-1.7274e-05
-2.12648e-05
-2.51395e-05
-2.86352e-05
-3.12409e-05
-3.31772e-05
-3.4403e-05
-3.51192e-05
-3.54431e-05
-3.54602e-05
-3.51709e-05
-3.44897e-05
-3.32998e-05
-3.14019e-05
-2.88302e-05
-2.53727e-05
-2.15053e-05
-1.75267e-05
-1.40051e-05
-1.12642e-05
-9.47177e-06
-8.63644e-06
-8.69132e-06
-9.32596e-06
-1.05684e-05
-7.98591e-06
-7.16133e-06
-6.6469e-06
-6.38599e-06
-6.58369e-06
-7.32938e-06
-8.72618e-06
-1.0859e-05
-1.37772e-05
-1.73776e-05
-2.14034e-05
-2.53152e-05
-2.8842e-05
-3.14705e-05
-3.34223e-05
-3.46589e-05
-3.53819e-05
-3.57099e-05
-3.57288e-05
-3.54388e-05
-3.47538e-05
-3.35556e-05
-3.16437e-05
-2.90497e-05
-2.55601e-05
-2.16532e-05
-1.76374e-05
-1.40851e-05
-1.13241e-05
-9.52119e-06
-8.68404e-06
-8.74405e-06
-9.38734e-06
-1.06428e-05
-7.99398e-06
-7.17162e-06
-6.66002e-06
-6.40183e-06
-6.60311e-06
-7.3553e-06
-8.76231e-06
-1.09123e-05
-1.3857e-05
-1.74876e-05
-2.15489e-05
-2.5479e-05
-2.90148e-05
-3.166e-05
-3.36307e-05
-3.48882e-05
-3.56278e-05
-3.59661e-05
-3.59875e-05
-3.56919e-05
-3.49948e-05
-3.37793e-05
-3.1851e-05
-2.9241e-05
-2.57402e-05
-2.18129e-05
-1.7759e-05
-1.4174e-05
-1.13844e-05
-9.56217e-06
-8.71183e-06
-8.76314e-06
-9.40038e-06
-1.06508e-05
-7.96382e-06
-7.15401e-06
-6.65295e-06
-6.40278e-06
-6.60922e-06
-7.3659e-06
-8.78236e-06
-1.0949e-05
-1.39248e-05
-1.75892e-05
-2.17022e-05
-2.56335e-05
-2.91477e-05
-3.17997e-05
-3.37897e-05
-3.50773e-05
-3.58422e-05
-3.61969e-05
-3.62217e-05
-3.59165e-05
-3.52002e-05
-3.39603e-05
-3.20164e-05
-2.94006e-05
-2.59153e-05
-2.19871e-05
-1.78799e-05
-1.4258e-05
-1.1433e-05
-9.58707e-06
-8.71688e-06
-8.74908e-06
-9.36709e-06
-1.05944e-05
-7.89764e-06
-7.11014e-06
-6.62586e-06
-6.38513e-06
-6.59176e-06
-7.34157e-06
-8.75064e-06
-1.09153e-05
-1.39124e-05
-1.76132e-05
-2.18467e-05
-2.57549e-05
-2.91884e-05
-3.18164e-05
-3.3809e-05
-3.51267e-05
-3.5921e-05
-3.62962e-05
-3.63254e-05
-3.60088e-05
-3.52719e-05
-3.40103e-05
-3.20709e-05
-2.94851e-05
-2.60792e-05
-2.21647e-05
-1.79347e-05
-1.42735e-05
-1.14216e-05
-9.56635e-06
-8.685e-06
-8.6978e-06
-9.28819e-06
-1.04758e-05
-7.798e-06
-7.04615e-06
-6.58305e-06
-6.35013e-06
-6.54729e-06
-7.27058e-06
-8.64187e-06
-1.07656e-05
-1.37597e-05
-1.74901e-05
-2.20444e-05
-2.58495e-05
-2.90869e-05
-3.16494e-05
-3.36169e-05
-3.49544e-05
-3.57725e-05
-3.61669e-05
-3.62027e-05
-3.58804e-05
-3.51332e-05
-3.38661e-05
-3.19634e-05
-2.94527e-05
-2.6237e-05
-2.24095e-05
-1.78694e-05
-1.41732e-05
-1.13151e-05
-9.48424e-06
-8.61338e-06
-8.61385e-06
-9.17119e-06
-1.03029e-05
-7.65819e-06
-6.97727e-06
-6.52617e-06
-6.29059e-06
-6.45474e-06
-7.10654e-06
-8.36242e-06
-1.03203e-05
-1.30834e-05
-1.63894e-05
-2.20619e-05
-2.61366e-05
-2.8738e-05
-3.10664e-05
-3.29106e-05
-3.42205e-05
-3.5038e-05
-3.54432e-05
-3.54886e-05
-3.51753e-05
-3.4449e-05
-3.32321e-05
-3.14721e-05
-2.9219e-05
-2.66567e-05
-2.24793e-05
-1.68276e-05
-1.3568e-05
-1.09431e-05
-9.25807e-06
-8.46573e-06
-8.48574e-06
-9.01707e-06
-1.00832e-05
-7.5046e-06
-6.90337e-06
-6.4643e-06
-6.22319e-06
-6.34228e-06
-6.89576e-06
-8.00079e-06
-9.82229e-06
-1.28166e-05
-1.6838e-05
-2.35781e-05
-2.44923e-05
-2.78098e-05
-3.02589e-05
-3.19642e-05
-3.32256e-05
-3.40173e-05
-3.44174e-05
-3.44785e-05
-3.42035e-05
-3.35376e-05
-3.24072e-05
-3.08113e-05
-2.8456e-05
-2.51527e-05
-2.39645e-05
-1.75289e-05
-1.34983e-05
-1.05897e-05
-8.98836e-06
-8.29225e-06
-8.3463e-06
-8.85255e-06
-9.83607e-06
-7.36286e-06
-6.81381e-06
-6.39257e-06
-6.13775e-06
-6.18112e-06
-6.54008e-06
-7.1633e-06
-7.79529e-06
-8.30341e-06
-4.99228e-06
-3.16983e-05
-2.79146e-05
-2.9003e-05
-3.00475e-05
-3.09868e-05
-3.16378e-05
-3.19987e-05
-3.20785e-05
-3.18832e-05
-3.14035e-05
-3.06534e-05
-2.9766e-05
-2.88496e-05
-3.25902e-05
-5.64385e-06
-9.10137e-06
-8.68664e-06
-8.25938e-06
-7.9913e-06
-8.16916e-06
-8.6943e-06
-9.53628e-06
-7.23485e-06
-6.73305e-06
-6.33844e-06
-6.09234e-06
-6.12257e-06
-6.47435e-06
-7.22204e-06
-8.47328e-06
-1.05536e-05
-1.3955e-05
-1.49667e-05
-2.22977e-05
-2.46635e-05
-2.69393e-05
-2.84493e-05
-2.96129e-05
-3.03744e-05
-3.08017e-05
-3.09079e-05
-3.07052e-05
-3.01816e-05
-2.92878e-05
-2.79976e-05
-2.60016e-05
-2.36732e-05
-1.69557e-05
-1.55948e-05
-1.19431e-05
-9.68738e-06
-8.46786e-06
-7.97234e-06
-8.0802e-06
-8.55089e-06
-9.30177e-06
-7.11928e-06
-6.66764e-06
-6.30138e-06
-6.06767e-06
-6.08385e-06
-6.39355e-06
-7.05279e-06
-8.1186e-06
-9.62806e-06
-1.16133e-05
-1.55315e-05
-2.04693e-05
-2.27466e-05
-2.48728e-05
-2.64369e-05
-2.76516e-05
-2.84444e-05
-2.88952e-05
-2.90204e-05
-2.88386e-05
-2.83367e-05
-2.74645e-05
-2.6166e-05
-2.43685e-05
-2.21524e-05
-1.74073e-05
-1.31029e-05
-1.10185e-05
-9.41006e-06
-8.36468e-06
-7.90655e-06
-7.99432e-06
-8.42513e-06
-9.11939e-06
-7.0436e-06
-6.63432e-06
-6.304e-06
-6.09638e-06
-6.11689e-06
-6.40781e-06
-7.02878e-06
-8.05922e-06
-9.61998e-06
-1.1796e-05
-1.46534e-05
-1.8106e-05
-2.06371e-05
-2.28414e-05
-2.44768e-05
-2.57462e-05
-2.65656e-05
-2.70279e-05
-2.71601e-05
-2.69862e-05
-2.64858e-05
-2.56083e-05
-2.42849e-05
-2.24664e-05
-2.0057e-05
-1.66903e-05
-1.36362e-05
-1.12126e-05
-9.45986e-06
-8.38776e-06
-7.91509e-06
-7.96733e-06
-8.35006e-06
-8.99323e-06
-7.01275e-06
-6.64264e-06
-6.35732e-06
-6.18781e-06
-6.22275e-06
-6.49697e-06
-7.0605e-06
-7.98126e-06
-9.34132e-06
-1.1209e-05
-1.35636e-05
-1.62426e-05
-1.8591e-05
-2.06902e-05
-2.22785e-05
-2.34977e-05
-2.42808e-05
-2.47219e-05
-2.48522e-05
-2.46965e-05
-2.42346e-05
-2.3418e-05
-2.21678e-05
-2.04683e-05
-1.82387e-05
-1.55927e-05
-1.30474e-05
-1.09455e-05
-9.3995e-06
-8.42321e-06
-7.97748e-06
-8.00287e-06
-8.33478e-06
-8.92271e-06
-7.02305e-06
-6.70087e-06
-6.4784e-06
-6.3674e-06
-6.43747e-06
-6.71383e-06
-7.23219e-06
-8.04029e-06
-9.19149e-06
-1.07215e-05
-1.25985e-05
-1.47059e-05
-1.67078e-05
-1.85569e-05
-1.99905e-05
-2.10901e-05
-2.18024e-05
-2.22095e-05
-2.23335e-05
-2.21934e-05
-2.17831e-05
-2.10572e-05
-1.99496e-05
-1.84638e-05
-1.65714e-05
-1.44751e-05
-1.24452e-05
-1.07253e-05
-9.42368e-06
-8.57306e-06
-8.15778e-06
-8.14209e-06
-8.40197e-06
-8.91403e-06
-7.07344e-06
-6.80776e-06
-6.6743e-06
-6.64568e-06
-6.77567e-06
-7.08197e-06
-7.58886e-06
-8.32678e-06
-9.3242e-06
-1.05945e-05
-1.21026e-05
-1.37738e-05
-1.54188e-05
-1.69548e-05
-1.81787e-05
-1.91177e-05
-1.97402e-05
-2.00975e-05
-2.02107e-05
-2.00954e-05
-1.97393e-05
-1.91153e-05
-1.81798e-05
-1.69459e-05
-1.54136e-05
-1.37624e-05
-1.21588e-05
-1.07644e-05
-9.66957e-06
-8.91292e-06
-8.49786e-06
-8.40819e-06
-8.55872e-06
-8.96899e-06
-7.12681e-06
-6.96221e-06
-6.91312e-06
-6.97293e-06
-7.17732e-06
-7.54106e-06
-8.08108e-06
-8.81434e-06
-9.75174e-06
-1.08893e-05
-1.22027e-05
-1.36325e-05
-1.50465e-05
-1.63649e-05
-1.74455e-05
-1.82846e-05
-1.8858e-05
-1.91923e-05
-1.93002e-05
-1.91913e-05
-1.88574e-05
-1.82846e-05
-1.74516e-05
-1.6377e-05
-1.50802e-05
-1.36937e-05
-1.23316e-05
-1.11304e-05
-1.01456e-05
-9.41609e-06
-8.95675e-06
-8.76447e-06
-8.78992e-06
-9.04707e-06
-7.19508e-06
-7.12679e-06
-7.15961e-06
-7.29819e-06
-7.5769e-06
-8.01691e-06
-8.63902e-06
-9.46061e-06
-1.04892e-05
-1.17141e-05
-1.30878e-05
-1.45374e-05
-1.59648e-05
-1.72932e-05
-1.84091e-05
-1.929e-05
-1.9908e-05
-2.02715e-05
-2.03862e-05
-2.0257e-05
-1.988e-05
-1.92496e-05
-1.83617e-05
-1.72435e-05
-1.59316e-05
-1.45398e-05
-1.31707e-05
-1.19111e-05
-1.08534e-05
-1.004e-05
-9.48264e-06
-9.17161e-06
-9.06316e-06
-9.15126e-06
-5.47936e-06
-5.48289e-06
-5.49505e-06
-5.51936e-06
-5.56346e-06
-5.63125e-06
-5.71922e-06
-5.83275e-06
-5.97993e-06
-6.15784e-06
-6.3489e-06
-6.54832e-06
-6.73853e-06
-6.91362e-06
-7.06356e-06
-7.177e-06
-7.26381e-06
-7.31904e-06
-7.3393e-06
-7.32476e-06
-7.27947e-06
-7.2081e-06
-7.10163e-06
-6.97155e-06
-6.82815e-06
-6.67698e-06
-6.53802e-06
-6.41782e-06
-6.32551e-06
-6.25341e-06
-6.20459e-06
-6.17544e-06
-6.15633e-06
-6.14316e-06
-5.437e-06
-5.41017e-06
-5.39841e-06
-5.39442e-06
-5.41049e-06
-5.45013e-06
-5.51442e-06
-5.60356e-06
-5.71458e-06
-5.84418e-06
-5.98029e-06
-6.11875e-06
-6.25235e-06
-6.37849e-06
-6.48672e-06
-6.57518e-06
-6.6413e-06
-6.68456e-06
-6.70401e-06
-6.6998e-06
-6.67324e-06
-6.62506e-06
-6.55823e-06
-6.47477e-06
-6.38554e-06
-6.29369e-06
-6.20667e-06
-6.12861e-06
-6.07104e-06
-6.0358e-06
-6.02505e-06
-6.03542e-06
-6.05366e-06
-6.08117e-06
-5.42706e-06
-5.39181e-06
-5.36727e-06
-5.34091e-06
-5.3384e-06
-5.36604e-06
-5.42696e-06
-5.52242e-06
-5.64786e-06
-5.8033e-06
-5.96974e-06
-6.14991e-06
-6.31184e-06
-6.46252e-06
-6.58447e-06
-6.68295e-06
-6.75345e-06
-6.7984e-06
-6.81726e-06
-6.81016e-06
-6.77795e-06
-6.71844e-06
-6.63663e-06
-6.52744e-06
-6.4093e-06
-6.27551e-06
-6.15954e-06
-6.05884e-06
-5.9939e-06
-5.96465e-06
-5.97284e-06
-6.01047e-06
-6.04306e-06
-6.07828e-06
-5.44805e-06
-5.39726e-06
-5.35466e-06
-5.30561e-06
-5.28823e-06
-5.313e-06
-5.38643e-06
-5.51395e-06
-5.69176e-06
-5.92777e-06
-6.18843e-06
-6.48777e-06
-6.74085e-06
-6.97091e-06
-7.14507e-06
-7.28118e-06
-7.37316e-06
-7.4284e-06
-7.44661e-06
-7.42788e-06
-7.3728e-06
-7.27416e-06
-7.13871e-06
-6.94885e-06
-6.73916e-06
-6.48665e-06
-6.27983e-06
-6.10468e-06
-5.99813e-06
-5.95255e-06
-5.96759e-06
-6.02757e-06
-6.07835e-06
-6.12991e-06
-5.5149e-06
-5.44472e-06
-5.38656e-06
-5.32273e-06
-5.30234e-06
-5.34103e-06
-5.45041e-06
-5.64362e-06
-5.91959e-06
-6.30381e-06
-6.7379e-06
-7.26594e-06
-7.68559e-06
-8.05985e-06
-8.32823e-06
-8.53311e-06
-8.66518e-06
-8.74028e-06
-8.75807e-06
-8.71856e-06
-8.62237e-06
-8.45368e-06
-8.22277e-06
-7.88739e-06
-7.51105e-06
-7.03052e-06
-6.6553e-06
-6.33934e-06
-6.14695e-06
-6.05292e-06
-6.05304e-06
-6.12072e-06
-6.18484e-06
-6.25699e-06
-5.63085e-06
-5.53605e-06
-5.46474e-06
-5.39458e-06
-5.384e-06
-5.45401e-06
-5.62213e-06
-5.91167e-06
-6.32619e-06
-6.92473e-06
-7.61832e-06
-8.53252e-06
-9.19946e-06
-9.7876e-06
-1.01905e-05
-1.04953e-05
-1.06856e-05
-1.07903e-05
-1.0808e-05
-1.07385e-05
-1.05835e-05
-1.03138e-05
-9.94708e-06
-9.39599e-06
-8.77209e-06
-7.90536e-06
-7.27783e-06
-6.75526e-06
-6.43759e-06
-6.2656e-06
-6.23017e-06
-6.29189e-06
-6.36485e-06
-6.46448e-06
-5.7956e-06
-5.67002e-06
-5.58727e-06
-5.51821e-06
-5.52874e-06
-5.64415e-06
-5.88678e-06
-6.29042e-06
-6.86311e-06
-7.73408e-06
-8.76483e-06
-1.03199e-05
-1.12921e-05
-1.21366e-05
-1.26862e-05
-1.3102e-05
-1.33551e-05
-1.34929e-05
-1.35108e-05
-1.34084e-05
-1.31905e-05
-1.28088e-05
-1.22939e-05
-1.14835e-05
-1.05539e-05
-9.04427e-06
-8.0918e-06
-7.30401e-06
-6.84152e-06
-6.57432e-06
-6.48983e-06
-6.53646e-06
-6.61595e-06
-6.75256e-06
-6.00449e-06
-5.8402e-06
-5.75022e-06
-5.6902e-06
-5.73567e-06
-5.91345e-06
-6.24681e-06
-6.76905e-06
-7.48914e-06
-8.57997e-06
-1.00003e-05
-1.26453e-05
-1.38959e-05
-1.50239e-05
-1.57351e-05
-1.6287e-05
-1.66194e-05
-1.67997e-05
-1.68181e-05
-1.6674e-05
-1.63771e-05
-1.58586e-05
-1.51801e-05
-1.40815e-05
-1.28709e-05
-1.02623e-05
-8.94459e-06
-7.93982e-06
-7.34296e-06
-6.97625e-06
-6.82912e-06
-6.85e-06
-6.93262e-06
-7.11872e-06
-6.24224e-06
-6.03695e-06
-5.93998e-06
-5.89397e-06
-5.98262e-06
-6.22911e-06
-6.64803e-06
-7.25536e-06
-7.97784e-06
-9.14377e-06
-1.08067e-05
-1.58387e-05
-1.68527e-05
-1.80445e-05
-1.88169e-05
-1.94299e-05
-1.97961e-05
-1.99994e-05
-2.00182e-05
-1.98517e-05
-1.95212e-05
-1.89405e-05
-1.81985e-05
-1.70265e-05
-1.60498e-05
-1.10353e-05
-9.54835e-06
-8.44639e-06
-7.85329e-06
-7.41728e-06
-7.21312e-06
-7.20757e-06
-7.29557e-06
-7.55344e-06
-6.51569e-06
-6.25511e-06
-6.1557e-06
-6.1404e-06
-6.30486e-06
-6.67076e-06
-7.25327e-06
-7.97463e-06
-8.78182e-06
-1.08431e-05
-7.48244e-06
-1.8241e-05
-1.91743e-05
-2.07528e-05
-2.16958e-05
-2.24898e-05
-2.29492e-05
-2.31964e-05
-2.32151e-05
-2.30047e-05
-2.25814e-05
-2.18198e-05
-2.09062e-05
-1.93417e-05
-1.8474e-05
-7.56235e-06
-1.11966e-05
-9.21151e-06
-8.56857e-06
-8.03808e-06
-7.70299e-06
-7.62698e-06
-7.70065e-06
-8.04644e-06
-6.80505e-06
-6.47816e-06
-6.37282e-06
-6.38798e-06
-6.62935e-06
-7.11427e-06
-7.82841e-06
-8.57414e-06
-8.85727e-06
-4.74149e-06
-2.6236e-05
-2.21259e-05
-2.27891e-05
-2.35848e-05
-2.42479e-05
-2.46833e-05
-2.49163e-05
-2.49341e-05
-2.47358e-05
-2.43342e-05
-2.37017e-05
-2.29315e-05
-2.22706e-05
-2.62642e-05
-5.48457e-06
-9.40843e-06
-9.19564e-06
-8.62862e-06
-8.18403e-06
-8.03759e-06
-8.10361e-06
-8.55851e-06
-7.10121e-06
-6.70298e-06
-6.60237e-06
-6.67651e-06
-7.06439e-06
-7.83729e-06
-9.11263e-06
-1.09522e-05
-1.3897e-05
-1.6833e-05
-2.40532e-05
-2.07289e-05
-2.26243e-05
-2.42947e-05
-2.55524e-05
-2.64033e-05
-2.69602e-05
-2.72402e-05
-2.72572e-05
-2.70111e-05
-2.64883e-05
-2.5672e-05
-2.44508e-05
-2.28239e-05
-2.09686e-05
-2.43995e-05
-1.71328e-05
-1.42776e-05
-1.1474e-05
-9.85336e-06
-8.89442e-06
-8.52099e-06
-8.51852e-06
-9.1007e-06
-7.3888e-06
-6.91213e-06
-6.80673e-06
-6.91428e-06
-7.3888e-06
-8.31188e-06
-9.80324e-06
-1.18631e-05
-1.46641e-05
-1.72706e-05
-2.15822e-05
-2.25542e-05
-2.37183e-05
-2.49258e-05
-2.60369e-05
-2.6869e-05
-2.74459e-05
-2.77382e-05
-2.77541e-05
-2.74935e-05
-2.6948e-05
-2.61453e-05
-2.50625e-05
-2.3875e-05
-2.27203e-05
-2.1824e-05
-1.75663e-05
-1.50125e-05
-1.2348e-05
-1.05246e-05
-9.3835e-06
-8.91464e-06
-8.90039e-06
-9.6089e-06
-7.64947e-06
-7.11142e-06
-7.00008e-06
-7.13653e-06
-7.68785e-06
-8.74527e-06
-1.04281e-05
-1.27257e-05
-1.56962e-05
-1.87203e-05
-2.20572e-05
-2.36419e-05
-2.49078e-05
-2.60653e-05
-2.7181e-05
-2.80104e-05
-2.85903e-05
-2.88803e-05
-2.88956e-05
-2.86357e-05
-2.80859e-05
-2.72839e-05
-2.61946e-05
-2.5054e-05
-2.38092e-05
-2.22611e-05
-1.8963e-05
-1.60027e-05
-1.31789e-05
-1.11384e-05
-9.83974e-06
-9.28834e-06
-9.26261e-06
-1.00706e-05
-7.87367e-06
-7.28611e-06
-7.16257e-06
-7.30796e-06
-7.89564e-06
-9.0172e-06
-1.07805e-05
-1.31696e-05
-1.6165e-05
-1.92943e-05
-2.24e-05
-2.42999e-05
-2.57317e-05
-2.68826e-05
-2.79982e-05
-2.88153e-05
-2.93899e-05
-2.96746e-05
-2.96894e-05
-2.9434e-05
-2.8888e-05
-2.80965e-05
-2.70052e-05
-2.58669e-05
-2.44545e-05
-2.25796e-05
-1.95131e-05
-1.64535e-05
-1.36138e-05
-1.1501e-05
-1.01518e-05
-9.5804e-06
-9.56982e-06
-1.04594e-05
-8.05765e-06
-7.43301e-06
-7.29832e-06
-7.44632e-06
-8.05533e-06
-9.21696e-06
-1.10308e-05
-1.34807e-05
-1.65038e-05
-1.9695e-05
-2.27529e-05
-2.48377e-05
-2.63483e-05
-2.75289e-05
-2.86619e-05
-2.94747e-05
-3.0044e-05
-3.03231e-05
-3.03379e-05
-3.00881e-05
-2.95473e-05
-2.87595e-05
-2.76501e-05
-2.64787e-05
-2.49713e-05
-2.292e-05
-1.9903e-05
-1.67848e-05
-1.39262e-05
-1.17694e-05
-1.03949e-05
-9.81895e-06
-9.82462e-06
-1.07716e-05
-8.19786e-06
-7.54684e-06
-7.40196e-06
-7.54716e-06
-8.16398e-06
-9.34371e-06
-1.1181e-05
-1.36619e-05
-1.67042e-05
-1.99441e-05
-2.30175e-05
-2.52072e-05
-2.67753e-05
-2.79794e-05
-2.91241e-05
-2.99349e-05
-3.05015e-05
-3.07777e-05
-3.07931e-05
-3.05471e-05
-3.00097e-05
-2.92242e-05
-2.81029e-05
-2.69073e-05
-2.53504e-05
-2.31822e-05
-2.015e-05
-1.69862e-05
-1.41159e-05
-1.19411e-05
-1.05624e-05
-9.99388e-06
-1.00169e-05
-1.10035e-05
-8.29346e-06
-7.62675e-06
-7.4754e-06
-7.61806e-06
-8.23876e-06
-9.42916e-06
-1.12822e-05
-1.37863e-05
-1.68512e-05
-2.01312e-05
-2.32348e-05
-2.54746e-05
-2.70942e-05
-2.83208e-05
-2.9478e-05
-3.02931e-05
-3.08616e-05
-3.11385e-05
-3.1155e-05
-3.09107e-05
-3.03735e-05
-2.95853e-05
-2.84529e-05
-2.72387e-05
-2.56608e-05
-2.34097e-05
-2.03428e-05
-1.71397e-05
-1.42512e-05
-1.20615e-05
-1.06789e-05
-1.01153e-05
-1.01488e-05
-1.11582e-05
-8.34428e-06
-7.67201e-06
-7.51829e-06
-7.65995e-06
-8.28263e-06
-9.47891e-06
-1.13429e-05
-1.38643e-05
-1.69532e-05
-2.02655e-05
-2.34035e-05
-2.56763e-05
-2.7322e-05
-2.85661e-05
-2.97353e-05
-3.05598e-05
-3.11348e-05
-3.14159e-05
-3.14343e-05
-3.11896e-05
-3.06493e-05
-2.98545e-05
-2.87121e-05
-2.74816e-05
-2.58727e-05
-2.35912e-05
-2.04888e-05
-1.72525e-05
-1.43412e-05
-1.2137e-05
-1.07479e-05
-1.0184e-05
-1.02203e-05
-1.1238e-05
-8.35084e-06
-7.68316e-06
-7.53117e-06
-7.67331e-06
-8.29598e-06
-9.49322e-06
-1.13624e-05
-1.38945e-05
-1.70077e-05
-2.03456e-05
-2.35242e-05
-2.58161e-05
-2.74647e-05
-2.87199e-05
-2.98992e-05
-3.07372e-05
-3.13225e-05
-3.16112e-05
-3.16324e-05
-3.13855e-05
-3.08397e-05
-3.00359e-05
-2.88865e-05
-2.76468e-05
-2.60364e-05
-2.37319e-05
-2.0587e-05
-1.73227e-05
-1.4385e-05
-1.21676e-05
-1.07702e-05
-1.02012e-05
-1.0233e-05
-1.12444e-05
-8.31475e-06
-7.66236e-06
-7.51589e-06
-7.65874e-06
-8.27708e-06
-9.46672e-06
-1.13316e-05
-1.38636e-05
-1.70019e-05
-2.03578e-05
-2.35998e-05
-2.59001e-05
-2.75194e-05
-2.87807e-05
-2.99684e-05
-3.08248e-05
-3.14241e-05
-3.17237e-05
-3.17487e-05
-3.14985e-05
-3.09457e-05
-3.01301e-05
-2.89771e-05
-2.77324e-05
-2.6124e-05
-2.38347e-05
-2.06272e-05
-1.73412e-05
-1.43743e-05
-1.21493e-05
-1.07457e-05
-1.01697e-05
-1.01905e-05
-1.11792e-05
-8.23791e-06
-7.61174e-06
-7.47187e-06
-7.60998e-06
-8.21004e-06
-9.36844e-06
-1.1198e-05
-1.36937e-05
-1.68397e-05
-2.02026e-05
-2.3581e-05
-2.58312e-05
-2.74287e-05
-2.86858e-05
-2.98681e-05
-3.07406e-05
-3.13541e-05
-3.16665e-05
-3.16966e-05
-3.14437e-05
-3.08864e-05
-3.00646e-05
-2.8925e-05
-2.76936e-05
-2.61152e-05
-2.38597e-05
-2.05136e-05
-1.72166e-05
-1.42372e-05
-1.20373e-05
-1.06517e-05
-1.00822e-05
-1.00938e-05
-1.10431e-05
-8.12493e-06
-7.53896e-06
-7.40755e-06
-7.53615e-06
-8.10517e-06
-9.21011e-06
-1.0974e-05
-1.3396e-05
-1.65407e-05
-1.98479e-05
-2.35544e-05
-2.57481e-05
-2.72063e-05
-2.84921e-05
-2.9687e-05
-3.05859e-05
-3.12154e-05
-3.15426e-05
-3.15798e-05
-3.1327e-05
-3.07678e-05
-2.99353e-05
-2.87952e-05
-2.75487e-05
-2.61099e-05
-2.38918e-05
-2.02243e-05
-1.69795e-05
-1.39959e-05
-1.18536e-05
-1.05087e-05
-9.95755e-06
-9.9586e-06
-1.08456e-05
-7.97973e-06
-7.4493e-06
-7.31949e-06
-7.41984e-06
-7.91921e-06
-8.90068e-06
-1.04821e-05
-1.26618e-05
-1.55809e-05
-1.83975e-05
-2.32962e-05
-2.57198e-05
-2.68118e-05
-2.80901e-05
-2.92597e-05
-3.01617e-05
-3.07952e-05
-3.1134e-05
-3.11802e-05
-3.09344e-05
-3.03885e-05
-2.95741e-05
-2.8477e-05
-2.72658e-05
-2.62132e-05
-2.3682e-05
-1.88414e-05
-1.61037e-05
-1.33532e-05
-1.14351e-05
-1.02401e-05
-9.76705e-06
-9.78282e-06
-1.05933e-05
-7.82066e-06
-7.35488e-06
-7.23122e-06
-7.3076e-06
-7.7417e-06
-8.60665e-06
-1.00221e-05
-1.20328e-05
-1.51983e-05
-1.86955e-05
-2.47098e-05
-2.38595e-05
-2.62463e-05
-2.82543e-05
-2.96533e-05
-3.06291e-05
-3.12842e-05
-3.16368e-05
-3.16973e-05
-3.14685e-05
-3.09295e-05
-3.0073e-05
-2.87646e-05
-2.6857e-05
-2.45021e-05
-2.5057e-05
-1.93638e-05
-1.58986e-05
-1.28733e-05
-1.10844e-05
-1.00075e-05
-9.59526e-06
-9.61096e-06
-1.0319e-05
-7.66034e-06
-7.25251e-06
-7.12604e-06
-7.15519e-06
-7.46555e-06
-8.06959e-06
-8.92863e-06
-9.73042e-06
-9.75259e-06
-3.75258e-06
-3.32494e-05
-2.72704e-05
-2.78275e-05
-2.86589e-05
-2.94129e-05
-2.99514e-05
-3.02721e-05
-3.03464e-05
-3.01796e-05
-2.97842e-05
-2.91872e-05
-2.84614e-05
-2.80492e-05
-3.39695e-05
-4.43756e-06
-1.06338e-05
-1.07499e-05
-1.01397e-05
-9.56215e-06
-9.34678e-06
-9.4204e-06
-1.00371e-05
-7.51646e-06
-7.16235e-06
-7.0511e-06
-7.07757e-06
-7.37004e-06
-7.97318e-06
-8.95082e-06
-1.02854e-05
-1.22482e-05
-1.53949e-05
-1.50162e-05
-2.31239e-05
-2.4836e-05
-2.6711e-05
-2.79185e-05
-2.89772e-05
-2.96627e-05
-3.00689e-05
-3.01655e-05
-2.9961e-05
-2.9458e-05
-2.85964e-05
-2.74706e-05
-2.57779e-05
-2.41852e-05
-1.69631e-05
-1.69327e-05
-1.36796e-05
-1.15912e-05
-1.03069e-05
-9.52276e-06
-9.23735e-06
-9.26375e-06
-9.78881e-06
-7.40074e-06
-7.08561e-06
-6.98568e-06
-7.00434e-06
-7.25948e-06
-7.79815e-06
-8.67494e-06
-9.91171e-06
-1.15005e-05
-1.33823e-05
-1.7097e-05
-2.204e-05
-2.33881e-05
-2.47888e-05
-2.58382e-05
-2.68249e-05
-2.74869e-05
-2.78977e-05
-2.80084e-05
-2.78309e-05
-2.737e-05
-2.65975e-05
-2.557e-05
-2.42725e-05
-2.30633e-05
-1.8646e-05
-1.4768e-05
-1.29208e-05
-1.12968e-05
-1.01025e-05
-9.37368e-06
-9.09692e-06
-9.10824e-06
-9.56739e-06
-7.31208e-06
-7.03874e-06
-6.96167e-06
-6.99416e-06
-7.24614e-06
-7.77017e-06
-8.63012e-06
-9.87201e-06
-1.15611e-05
-1.36975e-05
-1.64187e-05
-1.95294e-05
-2.11875e-05
-2.25691e-05
-2.36377e-05
-2.46558e-05
-2.53365e-05
-2.57541e-05
-2.58693e-05
-2.56972e-05
-2.5229e-05
-2.44532e-05
-2.33934e-05
-2.20783e-05
-2.05923e-05
-1.79176e-05
-1.5244e-05
-1.30876e-05
-1.1337e-05
-1.01007e-05
-9.34577e-06
-9.03532e-06
-9.00882e-06
-9.40699e-06
-7.25568e-06
-7.02503e-06
-6.97542e-06
-7.02718e-06
-7.27563e-06
-7.76863e-06
-8.5625e-06
-9.7025e-06
-1.12233e-05
-1.31419e-05
-1.53283e-05
-1.76568e-05
-1.9225e-05
-2.05641e-05
-2.16483e-05
-2.26333e-05
-2.32937e-05
-2.3697e-05
-2.38138e-05
-2.36596e-05
-2.32218e-05
-2.24989e-05
-2.14729e-05
-2.02275e-05
-1.87968e-05
-1.67939e-05
-1.46819e-05
-1.27589e-05
-1.11854e-05
-1.00397e-05
-9.32515e-06
-9.00973e-06
-8.95746e-06
-9.30157e-06
-7.23648e-06
-7.04931e-06
-7.03615e-06
-7.1205e-06
-7.37975e-06
-7.85344e-06
-8.58589e-06
-9.61017e-06
-1.09403e-05
-1.25597e-05
-1.43439e-05
-1.61935e-05
-1.76503e-05
-1.89627e-05
-2.00472e-05
-2.09857e-05
-2.16295e-05
-2.20163e-05
-2.21384e-05
-2.19998e-05
-2.15874e-05
-2.09033e-05
-1.9934e-05
-1.87656e-05
-1.74132e-05
-1.5802e-05
-1.40769e-05
-1.24541e-05
-1.10803e-05
-1.00494e-05
-9.38095e-06
-9.05646e-06
-8.97065e-06
-9.25258e-06
-7.24739e-06
-7.10617e-06
-7.13582e-06
-7.26192e-06
-7.54265e-06
-8.00858e-06
-8.69221e-06
-9.61516e-06
-1.07788e-05
-1.21596e-05
-1.36576e-05
-1.51982e-05
-1.65464e-05
-1.77789e-05
-1.88054e-05
-1.96795e-05
-2.02898e-05
-2.06614e-05
-2.07786e-05
-2.06515e-05
-2.02703e-05
-1.9642e-05
-1.87589e-05
-1.76988e-05
-1.64688e-05
-1.50904e-05
-1.36364e-05
-1.2253e-05
-1.10593e-05
-1.01362e-05
-9.5083e-06
-9.16755e-06
-9.04054e-06
-9.25045e-06
-7.26669e-06
-7.17039e-06
-7.22298e-06
-7.37909e-06
-7.67904e-06
-8.14628e-06
-8.80387e-06
-9.66543e-06
-1.07274e-05
-1.19648e-05
-1.33076e-05
-1.469e-05
-1.59805e-05
-1.7167e-05
-1.81646e-05
-1.89889e-05
-1.95738e-05
-1.99288e-05
-2.00428e-05
-1.99223e-05
-1.95618e-05
-1.8969e-05
-1.81443e-05
-1.71433e-05