/*--------------------------------*- C++ -*----------------------------------*\
| =========                 |                                                 |
| \\      /  F ield         | OpenFOAM: The Open Source CFD Toolbox           |
|  \\    /   O peration     | Version:  2112                                  |
|   \\  /    A nd           | Website:  www.openfoam.com                      |
|    \\/     M anipulation  |                                                 |
\*---------------------------------------------------------------------------*/
FoamFile
{
    version     2.0;
    format      ascii;
    arch        "LSB;label=32;scalar=64";
    class       surfaceScalarField;
    location    "3.5";
    object      phi;
}
// * * * * * * * * * * * * * * * * * * * * * * * * * * * * * * * * * * * * * //

dimensions      [0 3 -1 0 0 0 0];

oriented        oriented;

internalField   nonuniform List<scalar> 
188215
(
6.62913e-10
1.4363e-09
-2.09921e-09
2.72204e-09
4.73971e-10
-2.53309e-09
5.5043e-09
-7.94012e-10
-1.98825e-09
8.62261e-09
-1.98391e-09
-1.1344e-09
1.18313e-08
-2.74706e-09
-4.6166e-10
1.50605e-08
-3.16463e-09
-6.45872e-11
1.81982e-08
-3.33997e-09
2.02361e-10
2.11096e-08
-3.26769e-09
3.5622e-10
2.3634e-08
-2.90607e-09
3.81694e-10
2.54088e-08
-2.07954e-09
3.04705e-10
2.60445e-08
-8.16008e-10
1.80393e-10
2.52526e-08
7.02008e-10
8.98348e-11
2.33358e-08
1.78415e-09
1.32663e-10
2.03355e-08
2.74555e-09
2.54746e-10
1.65537e-08
3.38526e-09
3.96558e-10
1.21641e-08
3.82236e-09
5.67284e-10
7.40904e-09
4.07035e-09
6.84662e-10
2.48137e-09
4.18182e-09
7.45858e-10
-2.42661e-09
4.1627e-09
7.45278e-10
-7.12324e-09
4.01293e-09
6.83694e-10
-1.14173e-08
3.72669e-09
5.67394e-10
-1.50688e-08
3.25181e-09
3.99708e-10
-1.79091e-08
2.57862e-09
2.61658e-10
-1.96452e-08
1.59288e-09
1.43227e-10
-2.02667e-08
5.18921e-10
1.02588e-10
-1.93847e-08
-1.08691e-09
2.04867e-10
-1.73996e-08
-2.26204e-09
2.76979e-10
-1.46497e-08
-2.95718e-09
2.07234e-10
-1.15113e-08
-3.06611e-09
-7.23295e-11
-8.26736e-09
-2.69334e-09
-5.50552e-10
-5.12206e-09
-1.72802e-09
-1.41728e-09
-2.47096e-09
-5.09725e-11
-2.60013e-09
-4.76663e-10
1.39002e-09
-3.38432e-09
2.50308e-09
-2.97975e-09
-1.48463e-09
6.35753e-09
-3.43659e-09
8.74515e-10
6.30233e-09
-8.1875e-09
4.46314e-09
5.40795e-09
-9.79058e-09
8.13422e-09
4.60733e-09
-1.02623e-08
1.16649e-08
4.38279e-09
-1.06606e-08
1.50496e-08
4.80203e-09
-1.13513e-08
1.8292e-08
5.88565e-09
-1.2468e-08
2.13195e-08
7.75245e-09
-1.40476e-08
2.39582e-08
1.05519e-08
-1.60968e-08
2.58481e-08
1.46426e-08
-1.86121e-08
2.67448e-08
1.97891e-08
-2.15018e-08
2.60536e-08
2.60375e-08
-2.46443e-08
2.4024e-08
3.14853e-08
-2.76715e-08
2.08625e-08
3.62305e-08
-3.03234e-08
1.69302e-08
3.97921e-08
-3.24746e-08
1.24248e-08
4.24419e-08
-3.41142e-08
7.5705e-09
4.41442e-08
-3.52195e-08
2.55279e-09
4.49965e-08
-3.57969e-08
-2.44381e-09
4.50023e-08
-3.5843e-08
-7.23502e-09
4.41619e-08
-3.53578e-08
-1.16372e-08
4.24733e-08
-3.43444e-08
-1.54284e-08
3.98405e-08
-3.27975e-08
-1.84157e-08
3.63079e-08
-3.07419e-08
-2.0239e-08
3.161e-08
-2.81939e-08
-2.0682e-08
2.62527e-08
-2.52907e-08
-1.95674e-08
2.01244e-08
-2.23259e-08
-1.74176e-08
1.52316e-08
-1.96435e-08
-1.44689e-08
1.15075e-08
-1.74135e-08
-1.10541e-08
9.27616e-09
-1.5757e-08
-7.32846e-09
8.25577e-09
-1.46748e-08
-3.40385e-09
8.35795e-09
-1.40106e-08
4.57705e-10
9.36489e-09
-1.32774e-08
2.68935e-09
1.03879e-08
-1.12296e-08
1.01966e-08
-5.00414e-09
-3.11448e-09
1.29909e-08
-3.51886e-09
-7.16374e-10
1.4065e-08
-1.01608e-08
3.37033e-09
1.39509e-08
-1.26297e-08
7.63056e-09
1.4016e-08
-1.36689e-08
1.17098e-08
1.48669e-08
-1.45634e-08
1.56225e-08
1.66785e-08
-1.57892e-08
1.94564e-08
1.96106e-08
-1.75589e-08
2.32083e-08
2.3979e-08
-1.99785e-08
2.67071e-08
3.01526e-08
-2.30995e-08
2.94064e-08
3.88883e-08
-2.69449e-08
3.07554e-08
4.98199e-08
-3.13798e-08
2.97632e-08
6.32137e-08
-3.6184e-08
2.71586e-08
7.48335e-08
-4.07437e-08
2.32756e-08
8.48665e-08
-4.47529e-08
1.86718e-08
9.24203e-08
-4.80244e-08
1.35452e-08
9.80841e-08
-5.05155e-08
8.1145e-09
1.01767e-07
-5.21923e-08
2.54084e-09
1.03637e-07
-5.30667e-08
-3.01072e-09
1.03687e-07
-5.31332e-08
-8.37503e-09
1.01918e-07
-5.23916e-08
-1.33921e-08
9.83376e-08
-5.08473e-08
-1.78423e-08
9.27806e-08
-4.84899e-08
-2.15305e-08
8.53526e-08
-4.53565e-08
-2.3896e-08
7.5473e-08
-4.14974e-08
-2.46098e-08
6.40798e-08
-3.71133e-08
-2.29412e-08
5.09865e-08
-3.25307e-08
-1.98708e-08
4.05407e-08
-2.83795e-08
-1.58851e-08
3.24209e-08
-2.48991e-08
-1.1475e-08
2.7098e-08
-2.22319e-08
-6.77346e-09
2.38646e-08
-2.03104e-08
-1.89607e-09
2.23657e-08
-1.88851e-08
2.67986e-09
2.21304e-08
-1.73415e-08
4.95179e-09
2.21553e-08
-1.40393e-08
2.04463e-08
-5.29798e-09
-4.21177e-09
2.01564e-08
-2.95372e-09
-1.65565e-09
2.20825e-08
-1.05736e-08
3.06729e-09
2.26742e-08
-1.34462e-08
8.12006e-09
2.36753e-08
-1.47121e-08
1.30702e-08
2.57407e-08
-1.58239e-08
1.79688e-08
2.91044e-08
-1.73244e-08
2.30149e-08
3.40387e-08
-1.94743e-08
2.83175e-08
4.10975e-08
-2.2421e-08
3.36914e-08
5.10092e-08
-2.62306e-08
3.82177e-08
6.5315e-08
-3.09529e-08
4.07098e-08
8.37309e-08
-3.64032e-08
3.90412e-08
1.07291e-07
-4.24083e-08
3.50076e-08
1.26926e-07
-4.80592e-08
2.9394e-08
1.43503e-07
-5.30231e-08
2.31699e-08
1.5571e-07
-5.70655e-08
1.65001e-08
1.64875e-07
-6.01211e-08
9.58979e-09
1.70835e-07
-6.21578e-08
2.56183e-09
1.73879e-07
-6.32144e-08
-4.44344e-09
1.73981e-07
-6.32885e-08
-1.12848e-08
1.71139e-07
-6.23796e-08
-1.78384e-08
1.6538e-07
-6.04892e-08
-2.38932e-08
1.56415e-07
-5.758e-08
-2.92822e-08
1.44428e-07
-5.36867e-08
-3.30241e-08
1.28099e-07
-4.8884e-08
-3.43375e-08
1.08815e-07
-4.3422e-08
-3.14001e-08
8.57035e-08
-3.76544e-08
-2.63611e-08
6.80186e-08
-3.25169e-08
-2.02962e-08
5.45476e-08
-2.81917e-08
-1.40547e-08
4.57203e-08
-2.48638e-08
-7.79928e-09
4.00353e-08
-2.24261e-08
-1.6316e-09
3.67899e-08
-2.05919e-08
3.89801e-09
3.52786e-08
-1.86778e-08
6.43412e-09
3.44183e-08
-1.47991e-08
3.15957e-08
-4.71524e-09
-4.77683e-09
2.71988e-08
-2.2656e-09
-1.75362e-09
2.97759e-08
-1.07166e-08
3.87162e-09
3.09704e-08
-1.39214e-08
1.00129e-08
3.28816e-08
-1.53476e-08
1.61993e-08
3.61969e-08
-1.66426e-08
2.25776e-08
4.11521e-08
-1.84261e-08
2.95446e-08
4.8073e-08
-2.10012e-08
3.74557e-08
5.77372e-08
-2.45508e-08
4.61837e-08
7.14035e-08
-2.91222e-08
5.42559e-08
9.20418e-08
-3.47991e-08
5.91407e-08
1.20139e-07
-4.12927e-08
5.59519e-08
1.59239e-07
-4.87598e-08
4.90378e-08
1.89529e-07
-5.56881e-08
4.02252e-08
2.14157e-07
-6.18413e-08
3.11491e-08
2.31653e-07
-6.68667e-08
2.17786e-08
2.4484e-07
-7.05948e-08
1.22553e-08
2.53396e-07
-7.30373e-08
2.63988e-09
2.57789e-07
-7.42948e-08
-6.95338e-09
2.57949e-07
-7.43744e-08
-1.64083e-08
2.53869e-07
-7.32751e-08
-2.56601e-08
2.4562e-07
-7.09875e-08
-3.45538e-08
2.32722e-07
-6.74124e-08
-4.31091e-08
2.15523e-07
-6.25395e-08
-4.96627e-08
1.91202e-07
-5.65499e-08
-5.23891e-08
1.61358e-07
-4.98162e-08
-4.68934e-08
1.22804e-07
-4.25964e-08
-3.81672e-08
9.57356e-08
-3.64432e-08
-2.8547e-08
7.61237e-08
-3.11962e-08
-1.94203e-08
6.37405e-08
-2.71469e-08
-1.09038e-08
5.56697e-08
-2.4151e-08
-2.93424e-09
5.07419e-08
-2.19216e-08
3.97424e-09
4.80587e-08
-1.96886e-08
7.21238e-09
4.64761e-08
-1.5296e-08
4.27929e-08
-3.98477e-09
-4.98255e-09
3.37857e-08
-1.60434e-09
-1.10818e-09
3.68802e-08
-1.09787e-08
5.78393e-09
3.86471e-08
-1.45688e-08
1.33808e-08
4.14662e-08
-1.61814e-08
2.11864e-08
4.60939e-08
-1.77026e-08
2.95035e-08
5.26846e-08
-1.98495e-08
3.90472e-08
6.14909e-08
-2.29616e-08
5.07029e-08
7.33244e-08
-2.72429e-08
6.47099e-08
9.00321e-08
-3.26356e-08
7.92169e-08
1.1676e-07
-3.92253e-08
8.91184e-08
1.56524e-07
-4.62869e-08
8.27098e-08
2.20974e-07
-5.5326e-08
7.05695e-08
2.65337e-07
-6.36683e-08
5.65911e-08
2.9959e-07
-7.14547e-08
4.32325e-08
3.22928e-07
-7.7917e-08
2.98262e-08
3.40744e-07
-8.24978e-08
1.63477e-08
3.52293e-07
-8.54182e-08
2.78133e-09
3.58263e-07
-8.6907e-08
-1.07662e-08
3.5849e-07
-8.69935e-08
-2.41854e-08
3.52964e-07
-8.56755e-08
-3.74849e-08
3.4184e-07
-8.29205e-08
-5.06649e-08
3.24403e-07
-7.85012e-08
-6.43672e-08
3.0142e-07
-7.21952e-08
-7.6074e-08
2.67485e-07
-6.4576e-08
-8.18836e-08
2.23606e-07
-5.64384e-08
-7.113e-08
1.59703e-07
-4.7652e-08
-5.58595e-08
1.21432e-07
-4.0967e-08
-4.07698e-08
9.58829e-08
-3.4849e-08
-2.75975e-08
8.0609e-08
-3.00408e-08
-1.61005e-08
7.05621e-08
-2.63893e-08
-5.75208e-09
6.40845e-08
-2.3691e-08
3.07949e-09
6.02962e-08
-2.10691e-08
7.55153e-09
5.80535e-08
-1.60494e-08
5.36515e-08
-3.30715e-09
-4.94812e-09
3.96929e-08
-9.59078e-10
1.71538e-10
4.32237e-08
-1.14632e-08
8.7947e-09
4.55831e-08
-1.55591e-08
1.82756e-08
4.94029e-08
-1.74176e-08
2.80759e-08
5.55221e-08
-1.92285e-08
3.86672e-08
6.39166e-08
-2.18233e-08
5.11825e-08
7.45369e-08
-2.55614e-08
6.74933e-08
8.76554e-08
-3.06418e-08
8.89914e-08
1.05306e-07
-3.67722e-08
1.14295e-07
1.35302e-07
-4.38459e-08
1.35277e-07
1.85607e-07
-5.00651e-08
1.2178e-07
2.94759e-07
-6.02881e-08
1.00473e-07
3.56291e-07
-6.96456e-08
7.88611e-08
4.0087e-07
-7.96684e-08
5.97624e-08
4.30326e-07
-8.82986e-08
4.0931e-08
4.53345e-07
-9.37692e-08
2.20336e-08
4.68356e-07
-9.71664e-08
2.99793e-09
4.7618e-07
-9.88813e-08
-1.60269e-08
4.7649e-07
-9.89758e-08
-3.48892e-08
4.69273e-07
-9.7447e-08
-5.3653e-08
4.54831e-07
-9.4228e-08
-7.26158e-08
4.32296e-07
-8.89306e-08
-9.39748e-08
4.03242e-07
-8.04623e-08
-1.1479e-07
3.58917e-07
-7.06167e-08
-1.27519e-07
2.97825e-07
-6.14895e-08
-1.05285e-07
1.8899e-07
-5.15216e-08
-7.92098e-08
1.41086e-07
-4.57298e-08
-5.6473e-08
1.12316e-07
-3.91701e-08
-3.82925e-08
9.61375e-08
-3.3709e-08
-2.32917e-08
8.49234e-08
-2.93621e-08
-1.00322e-08
7.69553e-08
-2.61303e-08
1.30761e-09
7.1979e-08
-2.30226e-08
7.62467e-09
6.89223e-08
-1.71858e-08
6.39184e-08
-2.64222e-09
-4.70603e-09
4.47129e-08
-3.14029e-10
2.10233e-09
4.85912e-08
-1.21759e-08
1.30811e-08
5.15592e-08
-1.6955e-08
2.50231e-08
5.65814e-08
-1.91205e-08
3.72746e-08
6.45632e-08
-2.12926e-08
5.03171e-08
7.52996e-08
-2.44256e-08
6.54947e-08
8.82461e-08
-2.88867e-08
8.58814e-08
1.02145e-07
-3.48768e-08
1.1524e-07
1.17555e-07
-4.16074e-08
1.58103e-07
1.4154e-07
-4.91012e-08
2.04043e-07
1.8892e-07
-4.92526e-08
1.75759e-07
3.81011e-07
-5.7968e-08
1.40442e-07
4.59698e-07
-6.80906e-08
1.08919e-07
5.14449e-07
-8.2056e-08
8.27219e-08
5.50748e-07
-9.42249e-08
5.66469e-08
5.79952e-07
-1.00533e-07
3.01395e-08
5.99217e-07
-1.04354e-07
3.31468e-09
6.09274e-07
-1.0627e-07
-2.3513e-08
6.0969e-07
-1.06372e-07
-5.00295e-08
6.00447e-07
-1.04658e-07
-7.6119e-08
5.81949e-07
-1.01029e-07
-1.02298e-07
5.53385e-07
-9.49103e-08
-1.33706e-07
5.17564e-07
-8.29136e-08
-1.68579e-07
4.62938e-07
-6.9148e-08
-1.95869e-07
3.8445e-07
-5.93353e-08
-1.47951e-07
1.91894e-07
-5.08207e-08
-1.04578e-07
1.48816e-07
-5.11031e-08
-7.38381e-08
1.25766e-07
-4.4189e-08
-5.11245e-08
1.11682e-07
-3.8258e-08
-3.27391e-08
9.96872e-08
-3.31492e-08
-1.61067e-08
8.96465e-08
-2.93235e-08
-1.40103e-09
8.29139e-08
-2.56406e-08
7.40757e-09
7.88115e-08
-1.86978e-08
7.32074e-08
-1.88139e-09
-4.28613e-09
4.85586e-08
4.40443e-10
4.79957e-09
5.26612e-08
-1.31557e-08
1.87892e-08
5.63272e-08
-1.87577e-08
3.38943e-08
6.27853e-08
-2.1309e-08
4.91882e-08
7.31737e-08
-2.39044e-08
6.48099e-08
8.73023e-08
-2.76244e-08
8.16518e-08
1.04262e-07
-3.28574e-08
1.03287e-07
1.203e-07
-3.97892e-08
1.36559e-07
1.32019e-07
-4.77355e-08
2.05301e-07
1.27116e-07
-5.43188e-08
3.02275e-07
1.46757e-07
-5.48102e-08
2.43235e-07
4.88568e-07
-4.85172e-08
1.87456e-07
5.70999e-07
-5.55226e-08
1.45386e-07
6.31509e-07
-7.49904e-08
1.11401e-07
6.76475e-07
-9.17417e-08
7.66115e-08
7.12927e-07
-9.81852e-08
4.05368e-08
7.3792e-07
-1.02628e-07
3.76462e-09
7.50864e-07
-1.04818e-07
-3.30291e-08
7.51406e-07
-1.04922e-07
-6.91757e-08
7.3953e-07
-1.02936e-07
-1.04107e-07
7.15563e-07
-9.86822e-08
-1.38294e-07
6.80004e-07
-9.24314e-08
-1.80581e-07
6.35693e-07
-7.5843e-08
-2.3622e-07
5.75179e-07
-5.66017e-08
-2.93834e-07
4.92061e-07
-4.99974e-08
-1.9367e-07
1.48583e-07
-5.68534e-08
-1.25638e-07
1.37363e-07
-5.65786e-08
-9.06353e-08
1.413e-07
-5.05372e-08
-6.60362e-08
1.30654e-07
-4.35716e-08
-4.50047e-08
1.16373e-07
-3.77172e-08
-2.45156e-08
1.02461e-07
-3.3304e-08
-5.44562e-09
9.28449e-08
-2.9001e-08
6.83622e-09
8.71768e-08
-2.06472e-08
8.1039e-08
-9.95444e-10
-3.52021e-09
5.0702e-08
1.37688e-09
8.59238e-09
5.49554e-08
-1.44068e-08
2.66666e-08
5.92493e-08
-2.09962e-08
4.63843e-08
6.71029e-08
-2.40354e-08
6.65885e-08
8.01385e-08
-2.7169e-08
8.66373e-08
9.88649e-08
-3.16114e-08
1.05713e-07
1.22944e-07
-3.77582e-08
1.23708e-07
1.48965e-07
-4.66604e-08
1.39079e-07
1.72659e-07
-5.60105e-08
1.92312e-07
1.46023e-07
-7.21402e-08
4.22619e-07
-8.35507e-08
3.31898e-07
5.97106e-07
-1.78166e-08
2.5407e-07
6.62268e-07
-1.34396e-08
2.01834e-07
7.15977e-07
-3.22323e-08
1.57855e-07
7.71341e-07
-5.0887e-08
1.08913e-07
8.14892e-07
-5.3023e-08
5.70755e-08
8.45547e-07
-5.57892e-08
4.40591e-09
8.60952e-07
-5.7418e-08
-4.82959e-08
8.616e-07
-5.74923e-08
-1.00251e-07
8.47497e-07
-5.60121e-08
-1.49466e-07
8.18142e-07
-5.33652e-08
-1.93926e-07
7.75868e-07
-5.14039e-08
-2.46978e-07
7.21619e-07
-3.28741e-08
-3.26125e-07
6.68591e-07
-1.42659e-08
-4.16452e-07
6.01676e-07
-1.92882e-08
-1.81286e-07
-8.65831e-08
-1.26724e-07
1.56559e-07
-7.37574e-08
-1.10648e-07
1.83794e-07
-5.85698e-08
-8.91453e-08
1.59948e-07
-5.07958e-08
-6.47003e-08
1.353e-07
-4.33722e-08
-3.81706e-08
1.14278e-07
-3.83467e-08
-1.24258e-08
1.00428e-07
-3.33279e-08
5.177e-09
9.27983e-08
-2.32243e-08
8.62755e-08
-5.94539e-11
-2.52645e-09
5.09595e-08
2.26894e-09
1.31299e-08
5.51903e-08
-1.58912e-08
3.6104e-08
5.99069e-08
-2.36319e-08
6.17235e-08
6.87545e-08
-2.7271e-08
8.89075e-08
8.40027e-08
-3.10482e-08
1.16173e-07
1.07648e-07
-3.60484e-08
1.38316e-07
1.43139e-07
-4.23377e-08
1.40963e-07
1.94965e-07
-4.86467e-08
1.09468e-07
2.70057e-07
-6.59029e-08
3.66102e-07
-1.10611e-07
1.91587e-07
3.25058e-07
8.04604e-08
2.57584e-07
5.51164e-07
4.51067e-08
2.54202e-07
6.81856e-07
3.75031e-08
2.08119e-07
7.78412e-07
3.90111e-08
1.44516e-07
8.42996e-07
3.54987e-08
7.56992e-08
8.83578e-07
3.07846e-08
5.23591e-09
9.02987e-07
2.84283e-08
-6.5266e-08
9.0367e-07
2.84322e-08
-1.34221e-07
8.85662e-07
3.07901e-08
-1.98165e-07
8.46572e-07
3.55147e-08
-2.45048e-07
7.83691e-07
3.90605e-08
-2.50289e-07
6.892e-07
3.76611e-08
-1.87456e-07
5.60778e-07
4.49797e-08
3.35148e-07
7.90731e-08
-1.05966e-07
3.70186e-07
-1.07662e-07
-1.31898e-07
2.77743e-07
-6.8016e-08
-1.22765e-07
2.04225e-07
-5.34109e-08
-9.29738e-08
1.54574e-07
-4.90657e-08
-5.69887e-08
1.22559e-07
-4.42655e-08
-2.1993e-08
1.04155e-07
-3.87224e-08
2.65421e-09
9.47389e-08
-2.65879e-08
8.77841e-08
1.14565e-09
-9.83287e-10
4.88284e-08
3.11432e-09
1.88087e-08
5.29218e-08
-1.75234e-08
4.80612e-08
5.72114e-08
-2.6557e-08
8.25743e-08
6.52291e-08
-3.09877e-08
1.236e-07
7.88125e-08
-3.5835e-08
1.74491e-07
9.91259e-08
-4.23694e-08
2.40775e-07
1.27364e-07
-5.05088e-08
3.29344e-07
1.63552e-07
-5.71567e-08
4.53432e-07
2.05668e-07
-5.97001e-08
6.0925e-07
2.52702e-07
-4.2418e-08
4.76252e-07
8.53787e-08
4.76197e-08
4.84935e-07
2.32156e-07
8.42196e-08
4.64902e-07
4.15751e-07
1.55445e-07
3.96571e-07
5.34843e-07
2.15345e-07
3.02184e-07
6.23926e-07
2.48874e-07
2.01187e-07
6.83036e-07
2.60958e-07
1.02522e-07
7.19897e-07
2.62346e-07
6.08158e-09
7.37593e-07
2.61833e-07
-9.03366e-08
7.38194e-07
2.61894e-07
-1.88929e-07
7.21722e-07
2.62532e-07
-2.8981e-07
6.86145e-07
2.61309e-07
-3.84076e-07
6.28409e-07
2.49547e-07
-4.52335e-07
5.40772e-07
2.16687e-07
-4.71969e-07
4.22773e-07
1.57639e-07
-4.65213e-07
2.40385e-07
8.80068e-08
-6.03705e-07
8.72614e-08
5.12309e-08
-4.47792e-07
2.56017e-07
-4.1745e-08
-3.1968e-07
2.11965e-07
-6.23341e-08
-2.24771e-07
1.71873e-07
-6.25568e-08
-1.49776e-07
1.38119e-07
-5.85394e-08
-8.8271e-08
1.13435e-07
-5.23815e-08
-3.69339e-08
9.82837e-08
-4.5466e-08
-1.84056e-09
9.04295e-08
-3.0784e-08
8.371e-08
2.23346e-09
1.59085e-10
4.47261e-08
3.94322e-09
2.35058e-08
4.86084e-08
-1.90334e-08
5.7935e-08
5.21084e-08
-2.93262e-08
9.90805e-08
5.85976e-08
-3.45141e-08
1.48916e-07
6.93063e-08
-4.03294e-08
2.11708e-07
8.45548e-08
-4.82211e-08
2.92966e-07
1.03966e-07
-5.78603e-08
3.96515e-07
1.26023e-07
-6.60192e-08
5.24456e-07
1.45811e-07
-6.80838e-08
6.69287e-07
1.60962e-07
-5.30917e-08
6.68104e-07
1.05679e-07
-1.91179e-08
6.58099e-07
1.93081e-07
4.90796e-08
5.99585e-07
3.04672e-07
1.69593e-07
4.94589e-07
3.88867e-07
2.50972e-07
3.70697e-07
4.53628e-07
2.9419e-07
2.44539e-07
4.96232e-07
3.12963e-07
1.2359e-07
5.23004e-07
3.17841e-07
6.74737e-09
5.35861e-07
3.18576e-07
-1.10054e-07
5.36354e-07
3.18641e-07
-2.30869e-07
5.2449e-07
3.18047e-07
-3.56818e-07
4.98724e-07
3.1337e-07
-4.80514e-07
4.57125e-07
2.9498e-07
-5.85637e-07
3.93324e-07
2.52571e-07
-6.44954e-07
3.09807e-07
1.72283e-07
-6.56661e-07
1.98503e-07
5.35885e-08
-6.61844e-07
1.08612e-07
-1.61676e-08
-5.18118e-07
1.65206e-07
-5.2915e-08
-3.86703e-07
1.51676e-07
-7.11258e-08
-2.76369e-07
1.33697e-07
-7.21574e-08
-1.85181e-07
1.14e-07
-6.70698e-08
-1.09907e-07
9.79754e-08
-5.98145e-08
-4.74569e-08
8.74631e-08
-5.16292e-08
-4.20837e-09
8.1802e-08
-3.4621e-08
7.59797e-08
3.52202e-09
7.70461e-10
3.91187e-08
4.83694e-09
2.73314e-08
4.24479e-08
-2.04004e-08
6.60782e-08
4.5093e-08
-3.17314e-08
1.12396e-07
4.98503e-08
-3.75702e-08
1.68438e-07
5.75196e-08
-4.42561e-08
2.38515e-07
6.80066e-08
-5.35288e-08
3.27205e-07
8.0492e-08
-6.52153e-08
4.36268e-07
9.37534e-08
-7.67935e-08
5.61515e-07
1.04115e-07
-8.35504e-08
6.86265e-07
1.13126e-07
-7.69138e-08
7.38432e-07
1.02855e-07
-4.93419e-08
7.50104e-07
1.53088e-07
2.83217e-08
6.81165e-07
2.19153e-07
1.54458e-07
5.59607e-07
2.73553e-07
2.36873e-07
4.16039e-07
3.16262e-07
2.80934e-07
2.72955e-07
3.44401e-07
2.94915e-07
1.37435e-07
3.62361e-07
2.96164e-07
7.26645e-09
3.7105e-07
2.9498e-07
-1.22852e-07
3.71463e-07
2.9501e-07
-2.5822e-07
3.63595e-07
2.96263e-07
-4.01079e-07
3.46436e-07
2.95147e-07
-5.44493e-07
3.19051e-07
2.81488e-07
-6.664e-07
2.77025e-07
2.38205e-07
-7.36579e-07
2.23091e-07
1.56895e-07
-7.27988e-07
1.57297e-07
3.26145e-08
-6.78978e-07
1.063e-07
-4.6697e-08
-5.54484e-07
1.1743e-07
-7.67175e-08
-4.25675e-07
1.09594e-07
-8.67272e-08
-3.09389e-07
1.00787e-07
-8.33762e-08
-2.09773e-07
8.9642e-08
-7.52575e-08
-1.25664e-07
8.01503e-08
-6.62841e-08
-5.51492e-08
7.37028e-08
-5.67545e-08
-5.78226e-09
7.01147e-08
-3.76796e-08
6.53332e-08
4.86419e-09
1.10339e-09
3.24202e-08
5.59515e-09
2.99222e-08
3.51109e-08
-2.14818e-08
7.16861e-08
3.69903e-08
-3.36611e-08
1.21291e-07
4.02603e-08
-4.00151e-08
1.80734e-07
4.54511e-08
-4.73746e-08
2.54098e-07
5.23601e-08
-5.77167e-08
3.45299e-07
6.02654e-08
-7.09748e-08
4.55419e-07
6.85158e-08
-8.48827e-08
5.78647e-07
7.52219e-08
-9.43349e-08
6.9932e-07
8.31656e-08
-9.07127e-08
7.78143e-07
8.7625e-08
-6.35926e-08
8.02069e-07
1.18808e-07
1.03536e-08
7.27971e-07
1.59374e-07
1.33877e-07
5.97582e-07
1.93954e-07
2.09987e-07
4.43429e-07
2.21479e-07
2.48936e-07
2.90658e-07
2.40029e-07
2.57143e-07
1.46254e-07
2.5205e-07
2.54715e-07
7.67977e-09
2.57961e-07
2.51663e-07
-1.30853e-07
2.5834e-07
2.51656e-07
-2.75133e-07
2.53173e-07
2.54701e-07
-4.27733e-07
2.41855e-07
2.57182e-07
-5.81828e-07
2.23934e-07
2.49212e-07
-7.12736e-07
1.96949e-07
2.10984e-07
-7.88368e-07
1.62748e-07
1.35974e-07
-7.67973e-07
1.22515e-07
1.43866e-08
-6.91728e-07
9.11804e-08
-6.1125e-08
-5.70955e-07
8.73294e-08
-9.06729e-08
-4.43902e-07
8.02449e-08
-9.77037e-08
-3.26075e-07
7.4787e-08
-9.1827e-08
-2.23098e-07
6.82805e-08
-8.16148e-08
-1.34487e-07
6.28135e-08
-7.1275e-08
-5.92381e-08
5.9097e-08
-6.06427e-08
-6.16896e-09
5.69607e-08
-3.99151e-08
5.31978e-08
5.9664e-09
1.25454e-09
2.49837e-08
6.1819e-09
3.1649e-08
2.70102e-08
-2.22938e-08
7.55073e-08
2.82546e-08
-3.51226e-08
1.27268e-07
3.03564e-08
-4.18573e-08
1.88733e-07
3.36898e-08
-4.97035e-08
2.63796e-07
3.8112e-08
-6.08149e-08
3.56067e-07
4.31917e-08
-7.51974e-08
4.66539e-07
4.87231e-08
-9.06785e-08
5.89664e-07
5.39631e-08
-1.01866e-07
7.11727e-07
6.11279e-08
-1.00026e-07
8.03268e-07
6.89722e-08
-7.28878e-08
8.33699e-07
8.93313e-08
-9.54816e-10
7.57537e-07
1.14624e-07
1.20911e-07
6.22017e-07
1.36806e-07
1.92668e-07
4.61224e-07
1.54659e-07
2.27613e-07
3.02256e-07
1.67037e-07
2.3196e-07
1.52104e-07
1.75184e-07
2.27018e-07
8.05541e-09
1.79296e-07
2.22714e-07
-1.35967e-07
1.79675e-07
2.22687e-07
-2.86038e-07
1.76302e-07
2.26942e-07
-4.44909e-07
1.68835e-07
2.3189e-07
-6.0575e-07
1.57043e-07
2.27731e-07
-7.41929e-07
1.39659e-07
1.9347e-07
-8.19783e-07
1.17793e-07
1.22808e-07
-7.93118e-07
9.27034e-08
3.14647e-09
-7.03811e-07
7.24231e-08
-7.05496e-08
-5.81369e-07
6.49814e-08
-1.00094e-07
-4.54123e-07
5.8396e-08
-1.05396e-07
-3.35499e-07
5.40549e-08
-9.78918e-08
-2.30776e-07
4.98092e-08
-8.62527e-08
-1.39569e-07
4.65167e-08
-7.49093e-08
-6.14059e-08
4.43831e-08
-6.34495e-08
-6.08237e-09
4.31336e-08
-4.14965e-08
4.03234e-08
6.79207e-09
1.27419e-09
1.71367e-08
6.57283e-09
3.26722e-08
1.84912e-08
-2.28789e-08
7.7872e-08
1.92196e-08
-3.61649e-08
1.30963e-07
2.04206e-08
-4.31548e-08
1.93603e-07
2.23617e-08
-5.13127e-08
2.69609e-07
2.50097e-08
-6.29033e-08
3.62553e-07
2.82142e-08
-7.79667e-08
4.73608e-07
3.20094e-08
-9.43405e-08
5.97789e-07
3.62425e-08
-1.06461e-07
7.22176e-07
4.21723e-08
-1.05431e-07
8.20089e-07
4.9492e-08
-7.84332e-08
8.54065e-07
6.235e-08
-6.99404e-09
7.76635e-07
7.75081e-08
1.14546e-07
6.37881e-07
9.10462e-08
1.84514e-07
4.72978e-07
1.02035e-07
2.17527e-07
3.10065e-07
1.09932e-07
2.20018e-07
1.56139e-07
1.1523e-07
2.1388e-07
8.42667e-09
1.18022e-07
2.08986e-07
-1.3928e-07
1.18428e-07
2.08953e-07
-2.93185e-07
1.16423e-07
2.13785e-07
-4.56097e-07
1.11835e-07
2.19912e-07
-6.21171e-07
1.04528e-07
2.17589e-07
-7.60725e-07
9.39723e-08
1.85241e-07
-8.40004e-07
8.06991e-08
1.16374e-07
-8.09786e-07
6.56818e-08
-3.19671e-09
-7.13985e-07
5.28004e-08
-7.61782e-08
-5.89028e-07
4.56429e-08
-1.05618e-07
-4.60478e-07
4.00021e-08
-1.10156e-07
-3.40921e-07
3.62834e-08
-1.01786e-07
-2.35033e-07
3.32602e-08
-8.93387e-08
-1.42278e-07
3.11407e-08
-7.73793e-08
-6.23847e-08
2.98713e-08
-6.53815e-08
-5.78402e-09
2.91328e-08
-4.25999e-08
2.72428e-08
7.29654e-09
1.24812e-09
9.11391e-09
6.7747e-09
3.32204e-08
9.7923e-09
-2.32734e-08
7.92109e-08
1.00671e-08
-3.6838e-08
1.33102e-07
1.05047e-08
-4.3975e-08
1.96487e-07
1.12809e-08
-5.23045e-08
2.73172e-07
1.24776e-08
-6.41526e-08
3.66773e-07
1.41887e-08
-7.95751e-08
4.78598e-07
1.65842e-08
-9.64007e-08
6.03984e-07
1.98323e-08
-1.08975e-07
7.30206e-07
2.42313e-08
-1.08281e-07
8.31238e-07
2.9766e-08
-8.13068e-08
8.66894e-07
3.65436e-08
-9.84957e-09
7.88658e-07
4.34931e-08
1.12251e-07
6.47932e-07
4.98299e-08
1.81943e-07
4.80554e-07
5.50118e-08
2.14401e-07
3.15192e-07
5.90142e-08
2.1628e-07
1.58881e-07
6.18151e-08
2.09726e-07
8.82233e-09
6.34537e-08
2.04627e-07
-1.41256e-07
6.39105e-08
2.04596e-07
-2.97623e-07
6.31558e-08
2.09634e-07
-4.63104e-07
6.11386e-08
2.16177e-07
-6.30806e-07
5.77685e-08
2.14462e-07
-7.72496e-07
5.30024e-08
1.8266e-07
-8.52714e-07
4.68571e-08
1.1406e-07
-8.20909e-07
3.9874e-08
-5.99781e-09
-7.21901e-07
3.29279e-08
-7.91349e-08
-5.94979e-07
2.73136e-08
-1.08593e-07
-4.65048e-07
2.29043e-08
-1.12833e-07
-3.44485e-07
1.9772e-08
-1.04052e-07
-2.37633e-07
1.76104e-08
-9.12018e-08
-1.43835e-07
1.6259e-08
-7.89162e-08
-6.28831e-08
1.55375e-08
-6.66184e-08
-5.55063e-09
1.51437e-08
-4.33434e-08
1.41626e-08
7.52958e-09
1.20592e-09
1.11912e-09
6.78887e-09
3.33807e-08
1.11607e-09
-2.34986e-08
7.96867e-08
9.33846e-10
-3.71728e-08
1.33946e-07
6.03827e-10
-4.43588e-08
1.97763e-07
2.00775e-10
-5.27369e-08
2.74975e-07
-8.23174e-11
-6.46513e-08
3.69253e-07
7.15552e-11
-8.01613e-08
4.81922e-07
1.0101e-09
-9.70951e-08
6.08308e-07
3.21806e-09
-1.09771e-07
7.3555e-07
6.1366e-09
-1.09148e-07
8.37417e-07
1.00988e-08
-8.21997e-08
8.73263e-07
1.13389e-08
-1.06413e-08
7.94522e-07
1.03071e-08
1.11927e-07
6.52876e-07
9.52391e-09
1.81952e-07
4.84427e-07
8.89732e-09
2.14564e-07
3.17937e-07
9.00161e-09
2.16502e-07
1.60485e-07
9.31095e-09
2.09957e-07
9.26505e-09
9.81609e-09
2.04858e-07
-1.42007e-07
1.03536e-08
2.04829e-07
-2.9961e-07
1.08895e-08
2.0987e-07
-4.66371e-07
1.14951e-08
2.16405e-07
-6.35347e-07
1.21168e-08
2.14627e-07
-7.78172e-07
1.31716e-08
1.82656e-07
-8.5909e-07
1.40755e-08
1.13699e-07
-8.27189e-07
1.48608e-08
-6.8872e-09
-7.27322e-07
1.32112e-08
-8.01505e-08
-5.99314e-07
8.92001e-09
-1.09615e-07
-4.6829e-07
5.69248e-09
-1.13812e-07
-3.46777e-07
3.20856e-09
-1.0495e-07
-2.39126e-07
1.97273e-09
-9.20129e-08
-1.44654e-07
1.43346e-09
-7.96468e-08
-6.3142e-08
1.28479e-09
-6.72595e-08
-5.46037e-09
1.25182e-09
-4.37897e-08
1.1922e-09
7.51007e-09
1.14607e-09
-6.64155e-09
6.6146e-09
3.31504e-08
-7.33001e-09
-2.35582e-08
7.92943e-08
-8.03481e-09
-3.71752e-08
1.3349e-07
-9.27666e-09
-4.43149e-08
1.97414e-07
-1.10978e-08
-5.26258e-08
2.74989e-07
-1.32273e-08
-6.44298e-08
3.69913e-07
-1.50758e-08
-7.97764e-08
4.83496e-07
-1.61047e-08
-9.64688e-08
6.10747e-07
-1.51301e-08
-1.08903e-07
7.38332e-07
-1.33477e-08
-1.081e-07
8.38876e-07
-9.21884e-09
-8.12266e-08
8.73309e-07
-1.34827e-08
-9.61133e-09
7.94257e-07
-2.38682e-08
1.13227e-07
6.52705e-07
-3.29969e-08
1.84073e-07
4.84585e-07
-4.04473e-08
2.17464e-07
3.18303e-07
-4.47936e-08
2.20077e-07
1.60964e-07
-4.7279e-08
2.13929e-07
9.77776e-09
-4.80148e-08
2.09017e-07
-1.41499e-07
-4.73563e-08
2.08987e-07
-2.99106e-07
-4.53396e-08
2.13836e-07
-4.65847e-07
-4.17243e-08
2.19961e-07
-6.3475e-07
-3.64677e-08
2.17488e-07
-7.77767e-07
-2.85136e-08
1.84702e-07
-8.59273e-07
-1.93056e-08
1.14887e-07
-8.28926e-07
-9.4601e-09
-6.02562e-09
-7.30389e-07
-5.95854e-09
-7.93679e-08
-6.02024e-07
-1.0662e-08
-1.08783e-07
-4.70135e-07
-1.30327e-08
-1.13164e-07
-3.47731e-07
-1.46616e-08
-1.04534e-07
-2.39471e-07
-1.44772e-08
-9.18107e-08
-1.4471e-07
-1.37291e-08
-7.95986e-08
-6.31452e-08
-1.29554e-08
-6.73241e-08
-5.50225e-09
-1.24393e-08
-4.39518e-08
-1.15442e-08
7.23419e-09
1.03703e-09
-1.39248e-08
6.24617e-09
3.2441e-08
-1.52944e-08
-2.34396e-08
7.78641e-08
-1.66309e-08
-3.68269e-08
1.31437e-07
-1.90317e-08
-4.38181e-08
1.94987e-07
-2.27178e-08
-5.19292e-08
2.72579e-07
-2.7408e-08
-6.34115e-08
3.68077e-07
-3.22826e-08
-7.82909e-08
4.8275e-07
-3.64198e-08
-9.43582e-08
6.1115e-07
-3.74012e-08
-1.06128e-07
7.39021e-07
-3.64763e-08
-1.04743e-07
8.35493e-07
-2.7804e-08
-7.78862e-08
8.66185e-07
-3.82807e-08
-5.89487e-09
7.86973e-07
-6.215e-08
1.17495e-07
6.46697e-07
-8.29759e-08
1.90255e-07
4.80568e-07
-9.98618e-08
2.25543e-07
3.1603e-07
-1.10173e-07
2.29918e-07
1.60225e-07
-1.16319e-07
2.24845e-07
1.04087e-08
-1.18636e-07
2.20437e-07
-1.39542e-07
-1.17785e-07
2.2038e-07
-2.95753e-07
-1.13798e-07
2.24669e-07
-4.60982e-07
-1.06153e-07
2.29659e-07
-6.28234e-07
-9.45785e-08
2.25362e-07
-7.70366e-07
-7.69966e-08
1.90615e-07
-8.5245e-07
-5.60593e-08
1.18838e-07
-8.26021e-07
-3.31159e-08
-2.7739e-09
-7.31537e-07
-2.40897e-08
-7.63523e-08
-6.02902e-07
-3.35329e-08
-1.05764e-07
-4.69949e-07
-3.52851e-08
-1.10701e-07
-3.46619e-07
-3.53087e-08
-1.02683e-07
-2.38036e-07
-3.25449e-08
-9.05157e-08
-1.43555e-07
-2.95025e-08
-7.8707e-08
-6.26357e-08
-2.71182e-08
-6.67569e-08
-5.58411e-09
-2.56955e-08
-4.37954e-08
-2.38019e-08
6.6736e-09
8.0033e-10
-2.03995e-08
5.67438e-09
3.10341e-08
-2.24116e-08
-2.31166e-08
7.49796e-08
-2.44825e-08
-3.6094e-08
1.27073e-07
-2.83035e-08
-4.28221e-08
1.89321e-07
-3.43917e-08
-5.0574e-08
2.66032e-07
-4.26485e-08
-6.14705e-08
3.6151e-07
-5.22792e-08
-7.54808e-08
4.77395e-07
-6.20016e-08
-9.03038e-08
6.08322e-07
-6.76327e-08
-1.00695e-07
7.38316e-07
-6.86199e-08
-9.7851e-08
8.25778e-07
-4.39956e-08
-7.12703e-08
8.48795e-07
-6.26799e-08
1.38294e-09
7.6927e-07
-1.08917e-07
1.26291e-07
6.32008e-07
-1.48401e-07
2.02688e-07
4.70499e-07
-1.79756e-07
2.41402e-07
3.10067e-07
-1.98957e-07
2.49215e-07
1.57826e-07
-2.10394e-07
2.46316e-07
1.1212e-08
-2.14966e-07
2.42945e-07
-1.35583e-07
-2.13811e-07
2.42821e-07
-2.88378e-07
-2.06938e-07
2.45935e-07
-4.49764e-07
-1.93373e-07
2.48605e-07
-6.12821e-07
-1.72253e-07
2.40731e-07
-7.52466e-07
-1.39798e-07
2.02446e-07
-8.35465e-07
-1.00039e-07
1.26978e-07
-8.17135e-07
-5.56406e-08
4.19485e-09
-7.31402e-07
-3.95671e-08
-7.02553e-08
-6.00673e-07
-6.4855e-08
-9.94074e-08
-4.65374e-07
-6.48562e-08
-1.05727e-07
-3.4114e-07
-6.05871e-08
-9.89564e-08
-2.33023e-07
-5.27885e-08
-8.78733e-08
-1.39983e-07
-4.57416e-08
-7.68002e-08
-6.09229e-08
-4.0753e-08
-6.54256e-08
-5.4307e-09
-3.79549e-08
-4.32329e-08
-3.50049e-08
5.77226e-09
4.21131e-10
-2.5749e-08
4.92843e-09
2.88208e-08
-2.82453e-08
-2.2566e-08
7.04038e-08
-3.11128e-08
-3.49526e-08
1.19899e-07
-3.64981e-08
-4.13009e-08
1.79411e-07
-4.53677e-08
-4.85361e-08
2.53461e-07
-5.81011e-08
-5.8597e-08
3.47063e-07
-7.45028e-08
-7.13785e-08
4.62956e-07
-9.35232e-08
-8.43713e-08
5.98145e-07
-1.10101e-07
-9.27204e-08
7.36835e-07
-1.19536e-07
-8.77733e-08
8.05281e-07
-5.23959e-08
-6.00461e-08
8.12325e-07
-8.50695e-08
1.5346e-08
7.34829e-07
-1.71714e-07
1.40294e-07
6.04488e-07
-2.39013e-07
2.20952e-07
4.51606e-07
-2.90381e-07
2.63507e-07
2.987e-07
-3.2217e-07
2.7612e-07
1.52995e-07
-3.40854e-07
2.76165e-07
1.23111e-08
-3.48509e-07
2.74227e-07
-1.28587e-07
-3.46893e-07
2.7398e-07
-2.74977e-07
-3.35957e-07
2.75409e-07
-4.29105e-07
-3.14119e-07
2.74875e-07
-5.84085e-07
-2.79254e-07
2.61981e-07
-7.17569e-07
-2.26003e-07
2.19689e-07
-7.99782e-07
-1.57805e-07
1.3998e-07
-7.97805e-07
-7.45675e-08
1.69499e-08
-7.30407e-07
-4.72434e-08
-5.97218e-08
-5.91183e-07
-1.13854e-07
-9.0225e-08
-4.51932e-07
-1.05666e-07
-9.8441e-08
-3.28113e-07
-9.09721e-08
-9.34336e-08
-2.22482e-07
-7.45374e-08
-8.38825e-08
-1.32899e-07
-6.1528e-08
-7.37961e-08
-5.74499e-08
-5.29991e-08
-6.32034e-08
-4.8508e-09
-4.84174e-08
-4.21365e-08
-4.4433e-08
4.57729e-09
-3.22709e-10
-2.95039e-08
4.07754e-09
2.54457e-08
-3.21911e-08
-2.18225e-08
6.34583e-08
-3.56994e-08
-3.3426e-08
1.08533e-07
-4.22966e-08
-3.92758e-08
1.62499e-07
-5.35118e-08
-4.58218e-08
2.29701e-07
-7.05406e-08
-5.47628e-08
3.15839e-07
-9.47697e-08
-6.58716e-08
4.25678e-07
-1.27427e-07
-7.59349e-08
5.63814e-07
-1.67927e-07
-8.0311e-08
7.34143e-07
-2.22281e-07
-6.75848e-08
7.66855e-07
-4.96099e-08
-3.54977e-08
7.3399e-07
-8.23331e-08
3.0129e-08
6.66061e-07
-2.52126e-07
1.4834e-07
5.51078e-07
-3.49809e-07