/*--------------------------------*- C++ -*----------------------------------*\
| =========                 |                                                 |
| \\      /  F ield         | OpenFOAM: The Open Source CFD Toolbox           |
|  \\    /   O peration     | Version:  2112                                  |
|   \\  /    A nd           | Website:  www.openfoam.com                      |
|    \\/     M anipulation  |                                                 |
\*---------------------------------------------------------------------------*/
FoamFile
{
    version     2.0;
    format      ascii;
    arch        "LSB;label=32;scalar=64";
    class       volVectorField;
    location    "3.5";
    object      U;
}
// * * * * * * * * * * * * * * * * * * * * * * * * * * * * * * * * * * * * * //

dimensions      [0 1 -1 0 0 0 0];

internalField   nonuniform List<vector> 
64906
(
(1.63827e-08 1.40871e-07 -8.31475e-07)
(2.07385e-06 -1.47926e-06 -8.59094e-07)
(5.85199e-06 -3.1359e-06 -1.17117e-07)
(1.01239e-05 -4.51338e-06 8.53152e-07)
(1.47027e-05 -5.50041e-06 1.68673e-06)
(1.93342e-05 -6.22857e-06 2.3545e-06)
(2.39281e-05 -6.84596e-06 2.87759e-06)
(2.82984e-05 -7.39999e-06 3.34789e-06)
(3.22823e-05 -7.90665e-06 3.83544e-06)
(3.54388e-05 -8.26656e-06 4.36523e-06)
(3.72987e-05 -8.54606e-06 4.88427e-06)
(3.72219e-05 -8.39666e-06 5.5137e-06)
(3.52111e-05 -8.35065e-06 6.21292e-06)
(3.16393e-05 -8.34645e-06 6.92073e-06)
(2.66883e-05 -8.51142e-06 7.53435e-06)
(2.07693e-05 -8.69064e-06 8.00884e-06)
(1.41369e-05 -8.8654e-06 8.33203e-06)
(7.12925e-06 -8.97457e-06 8.50041e-06)
(5.08909e-09 -9.00973e-06 8.50965e-06)
(-6.94685e-06 -8.97121e-06 8.36043e-06)
(-1.34686e-05 -8.86829e-06 8.05703e-06)
(-1.92246e-05 -8.76247e-06 7.60346e-06)
(-2.39669e-05 -8.67077e-06 7.01331e-06)
(-2.72917e-05 -8.74809e-06 6.33066e-06)
(-2.90499e-05 -8.8532e-06 5.66024e-06)
(-2.88246e-05 -9.0097e-06 5.07794e-06)
(-2.66342e-05 -8.74649e-06 4.56116e-06)
(-2.31642e-05 -8.35668e-06 3.9887e-06)
(-1.88493e-05 -7.71633e-06 3.33288e-06)
(-1.42323e-05 -6.83959e-06 2.46135e-06)
(-9.58672e-06 -5.53791e-06 1.33966e-06)
(-5.37807e-06 -3.68418e-06 -1.39298e-08)
(-1.77044e-06 -1.37851e-06 -1.07364e-06)
(2.38986e-07 5.50388e-07 -1.20772e-06)
(-2.47984e-06 4.51357e-06 -1.66593e-06)
(-1.29516e-06 3.26118e-06 -6.31e-06)
(3.84174e-06 1.38975e-06 -7.73217e-06)
(9.07313e-06 -2.75213e-07 -8.01851e-06)
(1.42608e-05 -1.25864e-06 -8.2326e-06)
(1.9211e-05 -1.57459e-06 -8.69057e-06)
(2.39863e-05 -1.31099e-06 -9.48617e-06)
(2.8507e-05 -4.20065e-07 -1.06362e-05)
(3.26911e-05 1.19018e-06 -1.21448e-05)
(3.60298e-05 3.81484e-06 -1.4012e-05)
(3.82443e-05 7.22663e-06 -1.6192e-05)
(3.84344e-05 1.16804e-05 -1.86205e-05)
(3.63542e-05 1.55544e-05 -2.09534e-05)
(3.25769e-05 1.88974e-05 -2.29752e-05)
(2.73638e-05 2.12877e-05 -2.46059e-05)
(2.12524e-05 2.30118e-05 -2.5843e-05)
(1.44489e-05 2.40725e-05 -2.66769e-05)
(7.30077e-06 2.4584e-05 -2.71129e-05)
(3.73406e-08 2.45593e-05 -2.71482e-05)
(-7.04995e-06 2.39983e-05 -2.67825e-05)
(-1.37339e-05 2.28887e-05 -2.60186e-05)
(-1.96682e-05 2.11172e-05 -2.48519e-05)
(-2.46545e-05 1.86886e-05 -2.32934e-05)
(-2.81547e-05 1.53219e-05 -2.13495e-05)
(-2.99083e-05 1.14673e-05 -1.91099e-05)
(-2.93795e-05 7.10367e-06 -1.68199e-05)
(-2.68216e-05 3.86614e-06 -1.48016e-05)
(-2.30825e-05 1.54714e-06 -1.31611e-05)
(-1.84021e-05 4.81351e-07 -1.19754e-05)
(-1.32675e-05 4.86059e-07 -1.12527e-05)
(-7.73338e-06 1.62496e-06 -1.08758e-05)
(-2.07281e-06 3.77988e-06 -1.04306e-05)
(3.28479e-06 6.21435e-06 -8.63354e-06)
(3.75746e-06 7.49806e-06 -2.53231e-06)
(-4.24816e-06 1.37961e-05 -1.46543e-06)
(-3.90551e-06 1.46398e-05 -8.07473e-06)
(1.92484e-06 1.3999e-05 -1.03123e-05)
(7.93423e-06 1.34925e-05 -1.1071e-05)
(1.39408e-05 1.39408e-05 -1.16927e-05)
(1.96392e-05 1.55372e-05 -1.25995e-05)
(2.52026e-05 1.8421e-05 -1.39592e-05)
(3.06429e-05 2.28962e-05 -1.58496e-05)
(3.60151e-05 2.93048e-05 -1.8314e-05)
(4.05757e-05 3.83656e-05 -2.13813e-05)
(4.38916e-05 4.9619e-05 -2.49598e-05)
(4.42022e-05 6.31884e-05 -2.88641e-05)
(4.13355e-05 7.51126e-05 -3.25707e-05)
(3.66087e-05 8.54958e-05 -3.5807e-05)
(3.03369e-05 9.33683e-05 -3.84381e-05)
(2.33131e-05 9.92628e-05 -4.04363e-05)
(1.56381e-05 0.000103089 -4.17809e-05)
(7.68414e-06 0.000105022 -4.24829e-05)
(-3.80786e-07 0.000105062 -4.25364e-05)
(-8.27082e-06 0.000103209 -4.1941e-05)
(-1.58199e-05 9.94671e-05 -4.07026e-05)
(-2.26532e-05 9.3663e-05 -3.88114e-05)
(-2.86758e-05 8.59048e-05 -3.62904e-05)
(-3.30867e-05 7.56706e-05 -3.31734e-05)
(-3.55848e-05 6.39783e-05 -2.96061e-05)
(-3.48391e-05 5.07185e-05 -2.58788e-05)
(-3.103e-05 3.99983e-05 -2.25294e-05)
(-2.58726e-05 3.16536e-05 -1.97635e-05)
(-1.96862e-05 2.62779e-05 -1.76866e-05)
(-1.31668e-05 2.32372e-05 -1.62451e-05)
(-6.23103e-06 2.22265e-05 -1.52312e-05)
(5.80323e-07 2.27325e-05 -1.40954e-05)
(6.90629e-06 2.33523e-05 -1.11202e-05)
(6.22149e-06 2.18318e-05 -2.40543e-06)
(-5.48868e-06 2.38054e-05 -8.15214e-07)
(-5.60302e-06 2.59957e-05 -8.30225e-06)
(1.019e-06 2.63654e-05 -1.08421e-05)
(8.04629e-06 2.71361e-05 -1.17309e-05)
(1.52525e-05 2.92184e-05 -1.24817e-05)
(2.22497e-05 3.29191e-05 -1.35713e-05)
(2.93656e-05 3.85598e-05 -1.52088e-05)
(3.6736e-05 4.67601e-05 -1.75101e-05)
(4.4662e-05 5.82624e-05 -2.05297e-05)
(5.19211e-05 7.45717e-05 -2.43243e-05)
(5.78378e-05 9.51085e-05 -2.87491e-05)
(5.85084e-05 0.000120533 -3.36561e-05)
(5.37445e-05 0.00014232 -3.82722e-05)
(4.67148e-05 0.000160988 -4.22919e-05)
(3.79274e-05 0.000174954 -4.55494e-05)
(2.86754e-05 0.000185433 -4.80015e-05)
(1.88089e-05 0.000192254 -4.96335e-05)
(8.76234e-06 0.000195727 -5.04812e-05)
(-1.39906e-06 0.000195835 -5.05403e-05)
(-1.13795e-05 0.000192577 -4.981e-05)
(-2.11148e-05 0.000185974 -4.8294e-05)
(-3.01607e-05 0.000175717 -4.59577e-05)
(-3.86697e-05 0.000162002 -4.28174e-05)
(-4.53227e-05 0.000143629 -3.89236e-05)
(-4.96324e-05 0.000122265 -3.44542e-05)
(-4.8374e-05 9.73849e-05 -2.9733e-05)
(-4.17714e-05 7.77146e-05 -2.55575e-05)
(-3.36815e-05 6.24523e-05 -2.20898e-05)
(-2.45895e-05 5.23454e-05 -1.94833e-05)
(-1.56929e-05 4.59478e-05 -1.76496e-05)
(-6.69374e-06 4.25329e-05 -1.6351e-05)
(1.70201e-06 4.12537e-05 -1.49799e-05)
(9.17781e-06 4.06099e-05 -1.1574e-05)
(7.91379e-06 3.73221e-05 -1.65566e-06)
(-6.23874e-06 3.41103e-05 -8.49573e-08)
(-6.32746e-06 3.73839e-05 -8.31596e-06)
(1.50374e-06 3.86813e-05 -1.11028e-05)
(9.95551e-06 4.07737e-05 -1.20702e-05)
(1.88244e-05 4.46274e-05 -1.29281e-05)
(2.77168e-05 5.05971e-05 -1.42219e-05)
(3.72233e-05 5.91357e-05 -1.61997e-05)
(4.77253e-05 7.12172e-05 -1.90179e-05)
(6.00707e-05 8.82166e-05 -2.27116e-05)
(7.23018e-05 0.000113129 -2.73783e-05)
(8.35465e-05 0.000145813 -3.27579e-05)
(8.49004e-05 0.000188824 -3.90088e-05)
(7.60702e-05 0.000223724 -4.47856e-05)
(6.46454e-05 0.000252807 -4.98652e-05)
(5.1343e-05 0.000273943 -5.39903e-05)
(3.82174e-05 0.000289828 -5.70252e-05)
(2.44978e-05 0.00030015 -5.90088e-05)
(1.07415e-05 0.000305435 -6.0031e-05)
(-3.15456e-06 0.00030562 -6.00945e-05)
(-1.68455e-05 0.000300703 -5.9198e-05)
(-3.04348e-05 0.000290743 -5.7337e-05)
(-4.33434e-05 0.000275212 -5.44225e-05)
(-5.63408e-05 0.000254453 -5.04158e-05)
(-6.73134e-05 0.00022578 -4.54617e-05)
(-7.55792e-05 0.000191463 -3.98325e-05)
(-7.34217e-05 0.000149177 -3.37703e-05)
(-6.12623e-05 0.000117732 -2.8659e-05)
(-4.79831e-05 9.41595e-05 -2.43442e-05)
(-3.41211e-05 7.88664e-05 -2.10982e-05)
(-2.16533e-05 6.8918e-05 -1.87935e-05)
(-9.75731e-06 6.30116e-05 -1.71975e-05)
(8.79965e-07 5.99752e-05 -1.56212e-05)
(1.01408e-05 5.81995e-05 -1.18231e-05)
(8.9658e-06 5.34925e-05 -7.9739e-07)
(-6.729e-06 4.39469e-05 6.33548e-07)
(-6.30885e-06 4.80481e-05 -8.45465e-06)
(3.31751e-06 5.01652e-05 -1.15518e-05)
(1.37264e-05 5.35301e-05 -1.26264e-05)
(2.47882e-05 5.91818e-05 -1.36389e-05)
(3.61573e-05 6.74258e-05 -1.52285e-05)
(4.8813e-05 7.87284e-05 -1.76826e-05)
(6.35976e-05 9.43322e-05 -2.11968e-05)
(8.25434e-05 0.000116484 -2.57005e-05)
(0.000103015 0.00015086 -3.1311e-05)
(0.000124868 0.000198875 -3.72474e-05)
(0.00012768 0.000269793 -4.50767e-05)
(0.000110691 0.000322046 -5.22634e-05)
(9.187e-05 0.000363683 -5.89191e-05)
(7.1568e-05 0.000392708 -6.44121e-05)
(5.2733e-05 0.000414647 -6.82396e-05)
(3.31996e-05 0.000428858 -7.06715e-05)
(1.38021e-05 0.000436177 -7.19108e-05)
(-5.80972e-06 0.00043645 -7.19808e-05)
(-2.51503e-05 0.000429668 -7.08794e-05)
(-4.45717e-05 0.000415975 -6.85802e-05)
(-6.3201e-05 0.000394515 -6.48815e-05)
(-8.31984e-05 0.000365964 -5.95102e-05)
(-0.000101498 0.000324793 -5.29817e-05)
(-0.00011781 0.000273234 -4.59478e-05)
(-0.000113876 0.000203125 -3.83024e-05)
(-9.08307e-05 0.000156866 -3.26602e-05)
(-6.91581e-05 0.000124084 -2.74343e-05)
(-4.83312e-05 0.000103897 -2.34302e-05)
(-3.10844e-05 9.07301e-05 -2.05017e-05)
(-1.54087e-05 8.25281e-05 -1.85052e-05)
(-1.73634e-06 7.79102e-05 -1.66379e-05)
(1.0162e-05 7.51886e-05 -1.23196e-05)
(9.71849e-06 6.93766e-05 4.17677e-08)
(-7.11126e-06 5.29853e-05 1.39416e-06)
(-5.71744e-06 5.77901e-05 -8.78118e-06)
(6.40956e-06 6.07426e-05 -1.23218e-05)
(1.9397e-05 6.54708e-05 -1.35547e-05)
(3.32359e-05 7.31238e-05 -1.4785e-05)
(4.75878e-05 8.38257e-05 -1.67665e-05)
(6.38721e-05 9.78048e-05 -1.98169e-05)
(8.36406e-05 0.000116056 -2.41664e-05)
(0.000111287 0.000141604 -2.95185e-05)
(0.000143924 0.000183269 -3.58031e-05)
(0.000186835 0.000248639 -4.10357e-05)
(0.000193184 0.000366412 -5.0385e-05)
(0.000159502 0.000440992 -5.87231e-05)
(0.000129107 0.00049772 -6.76519e-05)
(9.9053e-05 0.000535778 -7.53053e-05)
(7.2731e-05 0.000565119 -7.9993e-05)
(4.52478e-05 0.000584163 -8.29065e-05)
(1.80805e-05 0.000594035 -8.43708e-05)
(-9.4677e-06 0.000594415 -8.44496e-05)
(-3.65999e-05 0.000585284 -8.31397e-05)
(-6.40201e-05 0.000566944 -8.03731e-05)
(-9.01935e-05 0.000538217 -7.58275e-05)
(-0.00012001 0.000500705 -6.83022e-05)
(-0.000149846 0.000444413 -5.95098e-05)
(-0.000182798 0.000370525 -5.13445e-05)
(-0.000174797 0.00025343 -4.21651e-05)
(-0.000130324 0.00019072 -3.72703e-05)
(-9.65241e-05 0.000150801 -3.13991e-05)
(-6.66002e-05 0.000127384 -2.66144e-05)
(-4.37503e-05 0.000111818 -2.29438e-05)
(-2.35758e-05 0.000101434 -2.04475e-05)
(-6.04209e-06 9.51977e-05 -1.81799e-05)
(9.49491e-06 9.14324e-05 -1.31417e-05)
(1.03885e-05 8.46416e-05 9.43798e-07)
(-7.43599e-06 6.08961e-05 2.25591e-06)
(-4.56155e-06 6.62664e-05 -9.29233e-06)
(1.09453e-05 7.00573e-05 -1.34368e-05)
(2.73326e-05 7.63057e-05 -1.48847e-05)
(4.4724e-05 8.62314e-05 -1.64032e-05)
(6.25897e-05 9.96377e-05 -1.88816e-05)
(8.24469e-05 0.000116116 -2.26709e-05)
(0.000106463 0.00013539 -2.80882e-05)
(0.00014183 0.000159641 -3.43436e-05)
(0.000188985 0.000203231 -4.17309e-05)
(0.000274458 0.000281393 -4.01846e-05)
(0.0002905 0.000483662 -4.87862e-05)
(0.000224315 0.000581456 -5.85521e-05)
(0.000178893 0.000651885 -7.18171e-05)
(0.000136701 0.00069804 -8.32232e-05)
(0.00010092 0.000734362 -8.87604e-05)
(6.23912e-05 0.000758159 -9.21343e-05)
(2.41998e-05 0.00077062 -9.38035e-05)
(-1.46793e-05 0.000771132 -9.3892e-05)
(-5.28739e-05 0.000759668 -9.23961e-05)
(-9.14322e-05 0.000736806 -8.91865e-05)
(-0.000127201 0.000701266 -8.38125e-05)
(-0.000169362 0.000655721 -7.25489e-05)
(-0.000214329 0.000585558 -5.94448e-05)
(-0.000279962 0.000488366 -4.99356e-05)
(-0.000261231 0.000286325 -4.13996e-05)
(-0.000173649 0.000212765 -4.32879e-05)
(-0.000125842 0.000170627 -3.63654e-05)
(-8.76813e-05 0.000148422 -3.07829e-05)
(-5.97632e-05 0.000131904 -2.61757e-05)
(-3.47983e-05 0.000119431 -2.30721e-05)
(-1.25074e-05 0.000111354 -2.03107e-05)
(7.9913e-06 0.000106385 -1.42417e-05)
(1.1035e-05 9.87679e-05 2.05107e-06)
(-7.75886e-06 6.73794e-05 3.16319e-06)
(-2.89389e-06 7.3213e-05 -1.00136e-05)
(1.70095e-05 7.80047e-05 -1.48932e-05)
(3.78176e-05 8.62546e-05 -1.66183e-05)
(5.97409e-05 9.94044e-05 -1.84737e-05)
(8.18023e-05 0.000117098 -2.14911e-05)
(0.000104866 0.000138252 -2.60872e-05)
(0.000130161 0.000159281 -3.26872e-05)
(0.000169307 0.000180956 -4.0942e-05)
(0.00022311 0.000215859 -4.80055e-05)
(0.000389601 0.000237605 -4.87781e-05)
(0.000430628 0.000601732 -4.20534e-05)
(0.000296639 0.000732393 -4.96068e-05)
(0.000237895 0.000822612 -6.97059e-05)
(0.000183467 0.000882012 -8.62081e-05)
(0.000136553 0.000930812 -9.22585e-05)
(8.43061e-05 0.000963135 -9.65122e-05)
(3.21039e-05 0.000979892 -9.85317e-05)
(-2.12934e-05 0.000980573 -9.86257e-05)
(-7.35517e-05 0.000965153 -9.67902e-05)
(-0.000125962 0.000934105 -9.27063e-05)
(-0.000173094 0.000886378 -8.68303e-05)
(-0.000227942 0.000827763 -7.04709e-05)
(-0.000286516 0.000737701 -5.05752e-05)
(-0.000420653 0.000607294 -4.33663e-05)
(-0.00037484 0.000240591 -5.05127e-05)
(-0.000205705 0.00022654 -4.98564e-05)
(-0.00015301 0.000192999 -4.31406e-05)
(-0.000110114 0.000173508 -3.57092e-05)
(-7.97914e-05 0.000155242 -3.0088e-05)
(-4.99721e-05 0.000138425 -2.63595e-05)
(-2.17149e-05 0.000126888 -2.30626e-05)
(5.47077e-06 0.000119925 -1.56847e-05)
(1.16744e-05 0.000111359 3.40846e-06)
(-7.99068e-06 7.1762e-05 4.07567e-06)
(-4.15036e-07 7.78765e-05 -1.09482e-05)
(2.5321e-05 8.36179e-05 -1.67078e-05)
(5.23259e-05 9.38647e-05 -1.87837e-05)
(8.11494e-05 0.000110467 -2.10606e-05)
(0.000110406 0.000133261 -2.47189e-05)
(0.000138564 0.000160302 -3.02084e-05)
(0.000166093 0.000183421 -3.92153e-05)
(0.000200307 0.000189428 -4.92175e-05)
(0.000164037 0.000108883 -7.2078e-05)
(0.000464087 0.000216149 -7.28381e-05)
(0.000629233 0.000854312 -1.42655e-05)
(0.000389001 0.000924299 -1.43995e-05)
(0.000327629 0.000986896 -3.69237e-05)
(0.000258826 0.00105103 -5.67459e-05)
(0.000194402 0.00110428 -5.87087e-05)
(0.000119487 0.00114252 -6.16947e-05)
(4.44924e-05 0.0011623 -6.32686e-05)
(-3.18401e-05 0.00116317 -6.33402e-05)
(-0.00010692 0.0011451 -6.19114e-05)
(-0.000182113 0.00110852 -5.90397e-05)
(-0.000247018 0.00105675 -5.72495e-05)
(-0.000316815 0.000993658 -3.75547e-05)
(-0.000378826 0.000930885 -1.52401e-05)
(-0.000623508 0.000857376 -1.58515e-05)
(-0.000450892 0.000219404 -7.5278e-05)
(-0.000145004 0.000127684 -7.31717e-05)
(-0.000184057 0.000205908 -5.10903e-05)
(-0.000144978 0.000199462 -4.24952e-05)
(-0.000111366 0.000178199 -3.48368e-05)
(-7.44714e-05 0.000155449 -3.05029e-05)
(-3.66785e-05 0.000139409 -2.66081e-05)
(5.36656e-07 0.000130107 -1.76006e-05)
(1.18149e-05 0.000120927 5.09351e-06)
(-8.22142e-06 7.36174e-05 5.00194e-06)
(2.57166e-06 7.99134e-05 -1.2083e-05)
(3.5188e-05 8.66108e-05 -1.88681e-05)
(6.98065e-05 9.90514e-05 -2.13797e-05)
(0.000107816 0.000120222 -2.41543e-05)
(0.000147475 0.000152269 -2.82064e-05)
(0.000184552 0.000198135 -3.36722e-05)
(0.000211244 0.000259789 -3.90052e-05)
(0.000171685 0.000339975 -5.80197e-05)
(0.000173513 0.000388552 -9.20952e-05)
(0.000281257 0.000730476 7.26515e-05)
(0.000314798 0.000931239 3.50174e-05)
(0.000389569 0.0010567 2.15501e-05)
(0.000339305 0.00116856 2.14859e-05)
(0.000256228 0.00124788 1.66776e-05)
(0.000159155 0.00130047 1.15976e-05)
(5.85562e-05 0.00132612 9.22422e-06)
(-4.35178e-05 0.00132712 9.22854e-06)
(-0.000144223 0.00130349 1.16021e-05)
(-0.000241621 0.00125301 1.66863e-05)
(-0.000325378 0.00117598 2.15133e-05)
(-0.000377426 0.00106656 2.16627e-05)
(-0.000306775 0.000943485 3.47337e-05)
(-0.000276274 0.000742558 7.10775e-05)
(-0.000169676 0.000400485 -8.90949e-05)
(-0.00016396 0.000354251 -5.94409e-05)
(-0.000193668 0.000274649 -4.29131e-05)
(-0.000157157 0.000215405 -3.92967e-05)
(-0.000108224 0.000174231 -3.53304e-05)
(-5.6918e-05 0.000149519 -3.11096e-05)
(-6.29923e-06 0.000136533 -2.02099e-05)
(1.18055e-05 0.000126353 6.59174e-06)
(-8.20636e-06 7.22834e-05 5.94611e-06)
(6.45468e-06 7.84777e-05 -1.33371e-05)
(4.73915e-05 8.52037e-05 -2.12572e-05)
(9.23872e-05 9.78409e-05 -2.43413e-05)
(0.00014582 0.0001196 -2.7955e-05)
(0.00021088 0.000153285 -3.32964e-05)
(0.000292765 0.00020358 -4.04759e-05)
(0.000404879 0.000276652 -4.6287e-05)
(0.000537877 0.000383231 -4.9406e-05)
(0.000804721 0.000536542 -3.09452e-05)
(0.000833061 0.00014866 5.1961e-05)
(0.000637319 0.000305938 7.53101e-05)
(0.000704793 0.000684281 0.000132608)
(0.000634186 0.000895867 0.00018663)
(0.000505881 0.00104504 0.000216926)
(0.00036169 0.00114375 0.000226335)
(0.000217739 0.00120441 0.00022696)
(7.78327e-05 0.0012332 0.000226341)
(-6.0352e-05 0.00123415 0.000226401)
(-0.000200187 0.00120732 0.000227138)
(-0.00034401 0.00114876 0.000226656)
(-0.000487975 0.00105245 0.000217516)
(-0.000616128 0.000906112 0.000187807)
(-0.000686823 0.0006979 0.000134485)
(-0.000617798 0.000322252 7.85042e-05)
(-0.000821083 0.000151772 5.4599e-05)
(-0.000799602 0.000538543 -3.00039e-05)
(-0.000527222 0.000392041 -5.13992e-05)
(-0.000386952 0.000288878 -5.06503e-05)
(-0.000264258 0.000219448 -4.72014e-05)
(-0.000168274 0.000174359 -4.20102e-05)
(-8.85103e-05 0.000148276 -3.67359e-05)
(-1.77766e-05 0.000134966 -2.35593e-05)
(1.01827e-05 0.000124577 8.21558e-06)
(-8.38542e-06 6.7683e-05 6.88326e-06)
(9.53477e-06 7.3544e-05 -1.45331e-05)
(5.7603e-05 7.92097e-05 -2.35258e-05)
(0.000110816 8.97087e-05 -2.71563e-05)
(0.000175024 0.000107189 -3.15219e-05)
(0.000254586 0.000132516 -3.7999e-05)
(0.000355481 0.000165673 -4.64441e-05)
(0.000488659 0.000203938 -5.37224e-05)
(0.000646762 0.000236366 -5.58122e-05)
(0.000880757 0.000253463 -4.15801e-05)
(0.000991174 0.000123321 -1.44297e-05)
(0.000959415 0.000312874 3.42682e-05)
(0.000926803 0.000506843 0.00014143)
(0.000793986 0.000649648 0.000212388)
(0.000625072 0.000760008 0.000248971)
(0.00044109 0.000833365 0.000263753)
(0.000263205 0.000879412 0.000267066)
(9.30824e-05 0.000901608 0.000267418)
(-7.36862e-05 0.000902392 0.00026748)
(-0.000243679 0.000881778 0.000267251)
(-0.000421326 0.000837354 0.000264098)
(-0.00060493 0.000765644 0.000249613)
(-0.000773798 0.000656872 0.000213707)
(-0.000907041 0.000515015 0.000143662)
(-0.000940605 0.000320886 3.82239e-05)
(-0.000977986 0.000126375 -1.1872e-05)
(-0.000872373 0.000259995 -4.13411e-05)
(-0.000636028 0.000245387 -5.82374e-05)
(-0.000470461 0.000215521 -5.87588e-05)
(-0.000325422 0.000180696 -5.42194e-05)
(-0.000208232 0.000152572 -4.81407e-05)
(-0.000111049 0.000134429 -4.18711e-05)
(-2.55003e-05 0.00012476 -2.66178e-05)
(9.74706e-06 0.000115573 9.86048e-06)
(-8.48427e-06 6.06148e-05 7.8462e-06)
(1.20879e-05 6.59055e-05 -1.55882e-05)
(6.60465e-05 7.03664e-05 -2.54653e-05)
(0.000125932 7.84929e-05 -2.95497e-05)
(0.000198243 9.17237e-05 -3.45718e-05)
(0.000287488 0.000110155 -4.2202e-05)
(0.00039953 0.000132753 -5.24668e-05)
(0.000542716 0.000157379 -6.31937e-05)
(0.00070904 0.000177477 -7.04215e-05)
(0.000907506 0.000194393 -6.67807e-05)
(0.00104035 0.000160728 -4.695e-05)
(0.00109256 0.000250797 1.53946e-05)
(0.00105598 0.000368403 0.000127025)
(0.000901003 0.000465686 0.000196469)
(0.000704619 0.000541698 0.000232164)
(0.000493104 0.000591194 0.000241384)
(0.000293157 0.000622516 0.000240867)
(0.000103174 0.000637582 0.000239247)
(-8.22833e-05 0.000638221 0.000239274)
(-0.000272114 0.000624433 0.000240945)
(-0.000471793 0.000594384 0.000241549)
(-0.000682918 0.000546122 0.000232552)
(-0.000879405 0.00047126 0.000197488)
(-0.00103508 0.000374773 0.00012895)
(-0.00107482 0.000257664 1.90752e-05)
(-0.00102825 0.000165598 -4.47503e-05)
(-0.000898198 0.000200543 -6.64884e-05)
(-0.000697306 0.000185593 -7.29455e-05)
(-0.000523185 0.00016796 -6.85873e-05)
(-0.000367164 0.000146598 -6.09494e-05)
(-0.000236997 0.000128641 -5.3365e-05)
(-0.000127735 0.000116571 -4.60256e-05)
(-3.08644e-05 0.000109931 -2.89497e-05)
(9.75972e-06 0.000102144 1.15109e-05)
(-8.77955e-06 5.16407e-05 8.64704e-06)
(1.36478e-05 5.60119e-05 -1.64095e-05)
(7.19034e-05 5.92266e-05 -2.70081e-05)
(0.000136277 6.48885e-05 -3.14451e-05)
(0.000213443 7.39039e-05 -3.69608e-05)
(0.000307537 8.59771e-05 -4.54612e-05)
(0.000424164 9.9889e-05 -5.70881e-05)
(0.000569706 0.00011431 -7.00432e-05)
(0.000737452 0.00012545 -8.00062e-05)
(0.000923921 0.000137579 -7.95754e-05)
(0.00107254 0.000137638 -5.97697e-05)
(0.00116492 0.000192896 -8.2051e-07)
(0.00113062 0.000265831 0.000108161)
(0.000962861 0.000326531 0.000170655)
(0.00075199 0.000374646 0.00020082)
(0.000525198 0.000406848 0.000204297)
(0.000312138 0.000427652 0.000200255)
(0.000109707 0.000437818 0.000196861)
(-8.76296e-05 0.000438376 0.000196853)
(-0.000289932 0.000429309 0.000200226)
(-0.00050278 0.000409555 0.000204278)
(-0.000729275 0.000378311 0.000200942)
(-0.00094045 0.000331036 0.000171344)
(-0.00110916 0.000270917 0.000109743)
(-0.00114746 0.000198455 2.62267e-06)
(-0.00106052 0.000142732 -5.77341e-05)
(-0.000913735 0.000143727 -7.94349e-05)
(-0.000724613 0.000133044 -8.26939e-05)
(-0.000548576 0.000123924 -7.57359e-05)
(-0.000389278 0.000112302 -6.60773e-05)
(-0.000253032 0.000102322 -5.73276e-05)
(-0.000137111 9.54637e-05 -4.91239e-05)
(-3.31114e-05 9.15603e-05 -3.06095e-05)
(1.05616e-05 8.54281e-05 1.28118e-05)
(-9.11565e-06 4.14017e-05 9.27306e-06)
(1.45707e-05 4.4822e-05 -1.70148e-05)
(7.58991e-05 4.70394e-05 -2.81649e-05)
(0.000143319 5.08261e-05 -3.28584e-05)
(0.000223548 5.68146e-05 -3.87247e-05)
(0.000320342 6.4737e-05 -4.78447e-05)
(0.000439187 7.37597e-05 -6.04416e-05)
(0.000585451 8.33368e-05 -7.48712e-05)
(0.000753962 9.17729e-05 -8.65304e-05)
(0.000938171 0.000102827 -8.7892e-05)
(0.00109737 0.000113217 -6.77929e-05)
(0.00120881 0.000149108 -1.0196e-05)
(0.0011766 0.000194299 9.69837e-05)
(0.00100249 0.000233577 0.00015518)
(0.000782684 0.000265077 0.000181535)
(0.000546187 0.000286615 0.000181369)
(0.000324657 0.000300683 0.000175022)
(0.000114133 0.000307689 0.000170484)
(-9.09768e-05 0.000308226 0.000170459)
(-0.000301413 0.000302269 0.000174939)
(-0.000522818 0.000289178 0.000181254)
(-0.000759141 0.000268498 0.000181514)
(-0.000979442 0.000237713 0.000155692)
(-0.00115468 0.000198939 9.83818e-05)
(-0.00119133 0.000154159 -6.96269e-06)
(-0.00108518 0.000118283 -6.5872e-05)
(-0.000927268 0.000108622 -8.78378e-05)
(-0.000740084 9.85933e-05 -8.93454e-05)
(-0.000562754 9.17088e-05 -8.07777e-05)
(-0.000401957 8.4327e-05 -6.97734e-05)
(-0.000262349 7.83585e-05 -6.01724e-05)
(-0.00014245 7.43799e-05 -5.13231e-05)
(-3.38865e-05 7.20599e-05 -3.17486e-05)
(1.14727e-05 6.73343e-05 1.38024e-05)
(-9.44802e-06 3.0342e-05 9.70026e-06)
(1.50102e-05 3.27798e-05 -1.74487e-05)
(7.83554e-05 3.41688e-05 -2.89869e-05)
(0.000147696 3.64778e-05 -3.38494e-05)
(0.000229765 4.01583e-05 -3.99336e-05)
(0.000328075 4.50776e-05 -4.94277e-05)
(0.000448161 5.08293e-05 -6.25926e-05)
(0.000595068 5.73426e-05 -7.78198e-05)
(0.00076492 6.41056e-05 -9.03393e-05)
(0.000950331 7.36533e-05 -9.24472e-05)
(0.00111618 8.51565e-05 -7.24123e-05)
(0.00123715 0.000108443 -1.53818e-05)
(0.00120618 0.000136598 9.18198e-05)
(0.00102813 0.000161522 0.000148379)
(0.000802748 0.000181681 0.000173011)
(0.000560218 0.000195925 0.000171186)
(0.000333184 0.000205399 0.000163803)
(0.000117285 0.000210279 0.000158757)
(-9.30634e-05 0.000210835 0.000158727)
(-0.000308934 0.000207037 0.000163704)
(-0.000535955 0.000198547 0.000171041)
(-0.000778471 0.000185134 0.000172944)
(-0.00100454 0.000165616 0.000148828)
(-0.00118393 0.000141113 9.3181e-05)
(-0.00121952 0.000113223 -1.19682e-05)
(-0.00110372 9.00143e-05 -7.05442e-05)
(-0.000938883 7.89205e-05 -9.24905e-05)
(-0.00075022 7.00012e-05 -9.32869e-05)
(-0.000571122 6.42605e-05 -8.39124e-05)
(-0.000409095 5.92359e-05 -7.21853e-05)
(-0.000267443 5.55559e-05 -6.20825e-05)
(-0.000145192 5.3269e-05 -5.28251e-05)
(-3.38709e-05 5.19284e-05 -3.25391e-05)
(1.23293e-05 4.85786e-05 1.44375e-05)
(-9.69452e-06 1.88842e-05 9.94156e-06)
(1.51881e-05 2.0349e-05 -1.7741e-05)
(7.97228e-05 2.10629e-05 -2.9517e-05)
(0.000150204 2.22243e-05 -3.44768e-05)
(0.000233398 2.41513e-05 -4.06799e-05)
(0.000332716 2.68804e-05 -5.03734e-05)
(0.000453779 3.03794e-05 -6.38358e-05)
(0.000601574 3.48096e-05 -7.946e-05)
(0.000772892 4.02138e-05 -9.23887e-05)
(0.000960074 4.76809e-05 -9.47923e-05)
(0.00112973 5.70441e-05 -7.47424e-05)
(0.00125519 7.09094e-05 -1.76911e-05)
(0.0012247 8.65022e-05 9.01567e-05)
(0.00104429 0.000100576 0.000146504)
(0.000815538 0.000112055 0.000170677)
(0.000569355 0.000120527 0.000168331)
(0.000338853 0.000126297 0.000160607)
(0.000119541 0.000129454 0.000155396)
(-9.41838e-05 0.000130065 0.000155368)
(-0.000313542 0.000128092 0.000160514)
(-0.000544174 0.00012338 0.000168193)
(-0.000790545 0.000115773 0.000170615)
(-0.00102023 0.000104898 0.000146951)
(-0.0012022 9.11547e-05 9.15029e-05)
(-0.0012375 7.56517e-05 -1.42987e-05)
(-0.0011172 6.16745e-05 -7.29442e-05)
(-0.000948371 5.23732e-05 -9.49325e-05)
(-0.00075773 4.5108e-05 -9.54647e-05)
(-0.00057687 4.01581e-05 -8.57162e-05)
(-0.000413576 3.64546e-05 -7.36355e-05)
(-0.000270454 3.39976e-05 -6.32707e-05)
(-0.000146708 3.26002e-05 -5.3788e-05)
(-3.37426e-05 3.18052e-05 -3.30762e-05)
(1.29046e-05 2.97476e-05 1.47854e-05)
(-9.83223e-06 7.31502e-06 9.999e-06)
(1.51859e-05 7.79681e-06 -1.79101e-05)
(8.01741e-05 7.87104e-06 -2.9782e-05)
(0.000151139 7.96648e-06 -3.47749e-05)
(0.000234901 8.27318e-06 -4.10116e-05)
(0.000334893 8.98588e-06 -5.07567e-05)
(0.000456812 1.04121e-05 -6.42911e-05)
(0.000605683 1.28456e-05 -8.00091e-05)
(0.000778353 1.67501e-05 -9.3028e-05)
(0.000967001 2.19186e-05 -9.54902e-05)
(0.00113811 2.84831e-05 -7.54564e-05)
(0.00126444 3.41506e-05 -1.8319e-05)
(0.00123369 3.85366e-05 8.99794e-05)
(0.00105216 4.26587e-05 0.000146637)
(0.000821907 4.60524e-05 0.000170948)
(0.000574136 4.90646e-05 0.000168652)
(0.000341989 5.13329e-05 0.000160935)
(0.000121024 5.2877e-05 0.000155725)
(-9.43975e-05 5.35764e-05 0.000155701)
(-0.000315501 5.33854e-05 0.000160849)
(-0.000547957 5.23099e-05 0.000168523)
(-0.000796179 5.02515e-05 0.000170895)
(-0.00102767 4.74549e-05 0.000147083)
(-0.00121107 4.35613e-05 9.13023e-05)
(-0.00124687 3.89994e-05 -1.5026e-05)
(-0.00112573 3.29438e-05 -7.37543e-05)
(-0.000955361 2.60823e-05 -9.5751e-05)
(-0.000763144 2.06769e-05 -9.62465e-05)
(-0.000580788 1.66427e-05 -8.64266e-05)
(-0.00041626 1.41478e-05 -7.42722e-05)
(-0.000272086 1.27295e-05 -6.38449e-05)
(-0.000147469 1.20604e-05 -5.42961e-05)
(-3.37202e-05 1.17314e-05 -3.34109e-05)
(1.31524e-05 1.09854e-05 1.48657e-05)
(-9.86333e-06 -4.06313e-06 9.87384e-06)
(1.50003e-05 -4.56757e-06 -1.79581e-05)
(7.97047e-05 -5.17685e-06 -2.97854e-05)
(0.000150493 -6.24256e-06 -3.475e-05)
(0.000234257 -7.72117e-06 -4.09432e-05)
(0.000334573 -9.27137e-06 -5.06055e-05)
(0.000457178 -1.02297e-05 -6.40088e-05)
(0.000607264 -1.00669e-05 -7.95121e-05)
(0.000781219 -7.68836e-06 -9.23052e-05)
(0.000971159 -4.47373e-06 -9.46023e-05)
(0.00114162 5.40073e-07 -7.46556e-05)
(0.00126524 -1.57939e-06 -1.74944e-05)
(0.00123324 -9.07834e-06 9.09818e-05)
(0.00105174 -1.55209e-05 0.000148361)
(0.000821834 -2.07564e-05 0.000173323)
(0.000574548 -2.34882e-05 0.000171592)
(0.000342601 -2.48814e-05 0.000164197)
(0.00012176 -2.49909e-05 0.000159141)
(-9.36622e-05 -2.41506e-05 0.000159118)
(-0.000314754 -2.24115e-05 0.000164116)
(-0.000547228 -1.95861e-05 0.000171465)
(-0.000795294 -1.57139e-05 0.000173257)
(-0.00102684 -9.82831e-06 0.000148764)
(-0.00121065 -3.2458e-06 9.22294e-05)
(-0.00124803 3.73034e-06 -1.43125e-05)
(-0.00112966 5.05284e-06 -7.30996e-05)
(-0.000959911 -6.17824e-07 -9.50308e-05)
(-0.000766395 -4.49336e-06 -9.56943e-05)
(-0.000582767 -7.56198e-06 -8.60902e-05)
(-0.000417069 -8.56567e-06 -7.41271e-05)
(-0.000272293 -8.64922e-06 -6.38256e-05)
(-0.000147449 -8.3654e-06 -5.43624e-05)
(-3.3784e-05 -8.10595e-06 -3.35513e-05)
(1.30852e-05 -7.52386e-06 1.46805e-05)
(-9.81645e-06 -1.49524e-05 9.56218e-06)
(1.45455e-05 -1.64655e-05 -1.78723e-05)
(7.81384e-05 -1.79122e-05 -2.95098e-05)
(0.000147947 -2.04685e-05 -3.43787e-05)
(0.000230943 -2.43047e-05 -4.04343e-05)
(0.000330977 -2.89965e-05 -4.98487e-05)
(0.000453898 -3.35116e-05 -6.28656e-05)
(0.000605363 -3.68388e-05 -7.781e-05)
(0.000780802 -3.65718e-05 -8.99848e-05)
(0.000972931 -3.46691e-05 -9.1731e-05)
(0.00114084 -2.72482e-05 -7.18167e-05)
(0.00125676 -3.76378e-05 -1.42798e-05)
(0.00122194 -6.04125e-05 9.45342e-05)
(0.00104184 -8.06052e-05 0.000153698)
(0.000814457 -9.71146e-05 0.000180353)
(0.000570099 -0.000107069 0.000180193)
(0.00034044 -0.000112933 0.000173722)
(0.000121721 -0.00011499 0.0001691)
(-9.18126e-05 -0.000113932 0.000169058)
(-0.000310914 -0.000109809 0.000173579)
(-0.000541359 -0.000102114 0.000179953)
(-0.000786921 -9.06649e-05 0.000180126)
(-0.00101648 -7.334e-05 0.000153884)
(-0.00119952 -5.30369e-05 9.5531e-05)
(-0.0012402 -3.12513e-05 -1.14077e-05)
(-0.00112957 -2.23554e-05 -7.05198e-05)
(-0.000962326 -3.07508e-05 -9.24375e-05)
(-0.000766707 -3.36866e-05 -9.36265e-05)
(-0.000581767 -3.515e-05 -8.45954e-05)
(-0.000414989 -3.34149e-05 -7.313e-05)
(-0.000270298 -3.10018e-05 -6.31555e-05)
(-0.000146148 -2.89307e-05 -5.39367e-05)
(-3.36922e-05 -2.76298e-05 -3.34657e-05)
(1.27654e-05 -2.56013e-05 1.42111e-05)
(-9.77406e-06 -2.49199e-05 9.05174e-06)
(1.36076e-05 -2.73984e-05 -1.76299e-05)
(7.50445e-05 -2.98195e-05 -2.89245e-05)
(0.000142727 -3.42011e-05 -3.36189e-05)
(0.000223659 -4.10238e-05 -3.94171e-05)
(0.000322069 -4.99245e-05 -4.83608e-05)
(0.000444077 -5.96104e-05 -6.06275e-05)
(0.000596559 -6.84522e-05 -7.43969e-05)
(0.00077411 -7.1796e-05 -8.52078e-05)
(0.000972423 -7.12985e-05 -8.54506e-05)
(0.00113607 -5.18927e-05 -6.59515e-05)
(0.00123537 -7.19381e-05 -7.78222e-06)
(0.00119473 -0.000119337 0.000102281)
(0.00101782 -0.000159463 0.000165106)
(0.000796335 -0.000191843 0.000195064)
(0.000558773 -0.00021182 0.000198167)
(0.000334481 -0.000223842 0.000193695)
(0.000120652 -0.000228562 0.000190025)
(-8.84355e-05 -0.000227159 0.000189927)
(-0.000302789 -0.000219666 0.000193381)
(-0.000528142 -0.000205124 0.000197631)
(-0.00076742 -0.000182965 0.000194421)
(-0.000991749 -0.000149367 0.000164774)
(-0.00117251 -0.00010902 0.000102692)
(-0.00121987 -6.34791e-05 -5.72136e-06)
(-0.0011258 -4.60739e-05 -6.5115e-05)
(-0.000962581 -6.65944e-05 -8.6621e-05)
(-0.000760982 -6.84656e-05 -8.92372e-05)
(-0.000574273 -6.68308e-05 -8.14524e-05)
(-0.000407016 -6.03465e-05 -7.10173e-05)
(-0.000263962 -5.38249e-05 -6.16687e-05)
(-0.000142229 -4.89252e-05 -5.28981e-05)
(-3.27777e-05 -4.60713e-05 -3.30815e-05)
(1.24292e-05 -4.25798e-05 1.33914e-05)
(-9.75874e-06 -3.35508e-05 8.3737e-06)