/*--------------------------------*- C++ -*----------------------------------*\
| =========                 |                                                 |
| \\      /  F ield         | OpenFOAM: The Open Source CFD Toolbox           |
|  \\    /   O peration     | Version:  2112                                  |
|   \\  /    A nd           | Website:  www.openfoam.com                      |
|    \\/     M anipulation  |                                                 |
\*---------------------------------------------------------------------------*/
FoamFile
{
    version     2.0;
    format      ascii;
    arch        "LSB;label=32;scalar=64";
    class       volScalarField;
    location    "2.8";
    object      epsilon;
}
// * * * * * * * * * * * * * * * * * * * * * * * * * * * * * * * * * * * * * //

dimensions      [0 2 -3 0 0 0 0];

internalField   nonuniform List<scalar> 
64906
(
0.00038729
0.000443808
0.000477207
0.00049196
0.000497763
0.000499862
0.000500569
0.000500794
0.000500861
0.00050088
0.000500884
0.000500883
0.000500878
0.00050087
0.000500859
0.000500846
0.00050083
0.000500815
0.000500807
0.000500816
0.000500831
0.000500844
0.000500854
0.00050086
0.000500861
0.000500847
0.000500785
0.00050057
0.000499872
0.000497779
0.000491982
0.000477236
0.000443838
0.000387312
0.000443836
0.000786303
0.000980937
0.001076
0.00111902
0.00113693
0.00114374
0.00114608
0.00114674
0.00114683
0.00114673
0.00114662
0.00114655
0.00114653
0.00114653
0.00114653
0.00114653
0.00114653
0.00114653
0.00114653
0.00114654
0.00114653
0.00114653
0.00114654
0.00114655
0.00114645
0.00114584
0.00114361
0.00113691
0.00111909
0.00107611
0.000981058
0.000786405
0.000443892
0.000477286
0.000981015
0.00128472
0.00144308
0.00151983
0.00155403
0.00156784
0.0015727
0.0015739
0.0015737
0.00157312
0.0015726
0.00157229
0.0015722
0.00157222
0.00157225
0.00157227
0.00157227
0.00157228
0.00157228
0.00157227
0.00157224
0.00157222
0.00157228
0.00157243
0.00157243
0.00157139
0.00156693
0.00155357
0.00151973
0.00144319
0.00128492
0.000981207
0.000477381
0.000492077
0.00107615
0.00144318
0.00164298
0.00174405
0.00179089
0.00181022
0.00181659
0.00181715
0.00181532
0.00181292
0.00181102
0.0018099
0.00180947
0.0018094
0.00180938
0.00180933
0.00180931
0.00180931
0.00180936
0.00180941
0.00180945
0.00180951
0.00180987
0.00181073
0.00181179
0.00181166
0.00180659
0.00178876
0.00174312
0.00164278
0.00144334
0.0010764
0.000492206
0.000497901
0.00111923
0.00152001
0.00174414
0.00186045
0.00191525
0.00193729
0.00194266
0.00193962
0.00193277
0.00192551
0.00192022
0.00191723
0.0019161
0.00191585
0.00191563
0.00191537
0.00191521
0.00191522
0.0019154
0.00191567
0.00191591
0.00191614
0.00191719
0.00191984
0.00192403
0.0019281
0.00192638
0.00190856
0.00185713
0.00174294
0.00151986
0.00111944
0.000498053
0.000500011
0.00113716
0.00155425
0.00179106
0.00191537
0.00197348
0.00199436
0.00199412
0.00198132
0.00196223
0.00194381
0.001932
0.00192603
0.0019242
0.00192405
0.00192347
0.00192273
0.00192231
0.00192232
0.00192277
0.00192353
0.00192412
0.00192426
0.00192599
0.00193158
0.00194216
0.00195698
0.0019665
0.00195628
0.00190654
0.00178743
0.00155326
0.00113718
0.000500174
0.00050072
0.00114398
0.00156811
0.00181052
0.0019377
0.00199485
0.00200948
0.00199589
0.00196167
0.00191583
0.00187437
0.00185388
0.00184622
0.00184567
0.0018471
0.0018462
0.00184474
0.00184392
0.00184393
0.00184479
0.00184627
0.00184718
0.00184576
0.00184622
0.0018535
0.00187273
0.00191046
0.00194626
0.00195636
0.00191795
0.0018021
0.00156539
0.00114356
0.000500874
0.000500939
0.00114631
0.00157304
0.0018172
0.00194387
0.00199616
0.00199821
0.00195955
0.00188354
0.00178222
0.00169393
0.00167389
0.00167649
0.00168468
0.00169145
0.00169099
0.00168901
0.00168791
0.00168793
0.00168906
0.00169106
0.00169156
0.00168479
0.00167653
0.00167363
0.0016925
0.00177715
0.00186831
0.00191974
0.00190544
0.00180079
0.00156744
0.00114514
0.000501054
0.000500994
0.00114699
0.00157442
0.00181846
0.00194264
0.00198712
0.00197037
0.00189212
0.00174218
0.00152596
0.00133075
0.00136934
0.00142467
0.00145907
0.00147678
0.00147916
0.00147821
0.00147752
0.00147754
0.00147826
0.00147924
0.0014769
0.00145921
0.00142479
0.00136928
0.00132976
0.00152161
0.00172769
0.00185281
0.00187764
0.00179113
0.00156495
0.00114477
0.000501039
0.000500992
0.00114712
0.0015746
0.00181796
0.00193929
0.00197555
0.00193801
0.00181052
0.00154842
0.00110178
0.000658439
0.000931758
0.00113466
0.00121921
0.00124997
0.00125885
0.00126095
0.00126133
0.00126134
0.00126099
0.00125893
0.00125009
0.00121937
0.00113487
0.00093197
0.000658156
0.00109871
0.001535
0.00177196
0.00184568
0.0017796
0.00156132
0.00114386
0.000500951
0.000500978
0.00114711
0.00157462
0.00181767
0.00193764
0.00196967
0.00192035
0.00175946
0.0013957
0.000679122
0.000588171
0.00093016
0.00105396
0.00109151
0.00110274
0.0011056
0.00110619
0.0011062
0.00110563
0.00110278
0.00109158
0.00105408
0.000930364
0.000588292
0.000677858
0.00138324
0.00172132
0.00182819
0.00177369
0.00155948
0.00114334
0.000500891
0.000500963
0.00114712
0.00157488
0.00181846
0.00193965
0.00197486
0.00193456
0.00180154
0.00153096
0.00107534
0.000639498
0.000852575
0.00102711
0.00109713
0.00111849
0.00112729
0.0011292
0.00112933
0.00112933
0.00112919
0.00112728
0.00111847
0.00109711
0.00102709
0.000852428
0.000639024
0.00107191
0.00151733
0.00176281
0.00184195
0.00177843
0.00156101
0.00114365
0.000500894
0.000500944
0.00114717
0.00157534
0.00182
0.00194397
0.0019862
0.00196313
0.0018716
0.00169822
0.00144653
0.0012056
0.00116707
0.00115768
0.00115747
0.00115776
0.00115845
0.00115814
0.00115779
0.00115778
0.00115812
0.0011584
0.00115768
0.00115734
0.00115746
0.00116657
0.0012042
0.00144191
0.0016836
0.00183205
0.00186979
0.00178906
0.00156464
0.00114454
0.000500927
0.000500922
0.00114723
0.00157584
0.00182165
0.0019485
0.00199757
0.00198969
0.00192928
0.00181331
0.00164829
0.0014714
0.00134101
0.00124497
0.00120182
0.00118635
0.00118127
0.00117942
0.00117875
0.00117874
0.00117938
0.00118119
0.00118624
0.00120165
0.00124468
0.00134045
0.00146972
0.00164312
0.00179799
0.00188898
0.00189557
0.00179966
0.00156842
0.00114548
0.000500952
0.000500894
0.00114727
0.00157623
0.00182294
0.00195195
0.00200585
0.00200781
0.00196528
0.00187694
0.0017442
0.00158266
0.00142165
0.00129011
0.00122643
0.00120235
0.00119419
0.00119147
0.00119058
0.00119056
0.00119141
0.00119411
0.00120222
0.00122624
0.00128981
0.00142104
0.00158089
0.00173877
0.0018612
0.00192443
0.00191307
0.00180729
0.00157124
0.00114619
0.000500951
0.000500862
0.00114728
0.00157649
0.00182378
0.00195411
0.0020108
0.00201807
0.00198428
0.00190775
0.00178629
0.0016277
0.00145563
0.0013099
0.00123764
0.00120971
0.00120015
0.00119697
0.0011959
0.00119587
0.00119689
0.00120005
0.00120957
0.00123744
0.00130959
0.0014549
0.00162588
0.00178072
0.00189176
0.00194307
0.0019229
0.00181177
0.00157293
0.0011466
0.000500926
0.000500829
0.00114728
0.00157663
0.00182424
0.00195526
0.00201333
0.00202305
0.00199301
0.00192103
0.00180321
0.00164481
0.00146856
0.0013175
0.00124201
0.00121258
0.00120244
0.00119901
0.0011978
0.00119776
0.00119893
0.00120233
0.00121243
0.0012418
0.00131718
0.00146783
0.00164297
0.00179758
0.00190491
0.00195161
0.00192763
0.00181402
0.00157381
0.00114679
0.000500886
0.000500797
0.00114726
0.0015767
0.00182445
0.00195575
0.00201437
0.00202502
0.0019963
0.0019258
0.00180899
0.00165043
0.00147277
0.00131997
0.00124343
0.0012135
0.00120314
0.0011996
0.00119827
0.00119822
0.0011995
0.00120302
0.00121334
0.00124322
0.00131965
0.00147204
0.00164858
0.00180335
0.00190964
0.00195483
0.00192949
0.00181494
0.00157417
0.00114686
0.00050084
0.000500771
0.00114725
0.00157671
0.00182448
0.00195581
0.00201444
0.00202511
0.00199643
0.00192595
0.00180917
0.00165061
0.00147294
0.00132008
0.0012435
0.00121352
0.00120313
0.00119955
0.00119815
0.00119808
0.00119944
0.00120301
0.00121337
0.00124328
0.00131976
0.00147222
0.00164878
0.00180353
0.0019098
0.00195496
0.00192959
0.00181501
0.00157421
0.00114685
0.000500799
0.000500768
0.00114725
0.00157668
0.00182434
0.00195541
0.00201354
0.00202334
0.00199338
0.00192149
0.00180374
0.00164538
0.00146911
0.00131786
0.00124223
0.00121268
0.00120243
0.00119888
0.00119748
0.00119742
0.00119876
0.0012023
0.00121252
0.00124202
0.00131755
0.00146841
0.00164358
0.00179816
0.00190542
0.00195202
0.00192794
0.00181423
0.00157391
0.00114678
0.000500792
0.000500793
0.00114726
0.00157656
0.00182394
0.00195436
0.00201116
0.00201855
0.00198492
0.00190856
0.00178725
0.00162877
0.00145666
0.00131059
0.00123807
0.00120993
0.00120019
0.0011968
0.00119551
0.00119545
0.00119669
0.00120006
0.00120977
0.00123787
0.0013103
0.00145601
0.00162704
0.00178179
0.00189266
0.00194378
0.00192341
0.00181212
0.00157312
0.0011466
0.000500824
0.000500824
0.00114725
0.00157634
0.00182317
0.00195231
0.00200636
0.00200851
0.00196622
0.00187816
0.00174572
0.00158442
0.00142333
0.00129122
0.00122714
0.00120274
0.00119434
0.00119137
0.00119027
0.00119022
0.00119127
0.00119421
0.0012026
0.00122697
0.00129099
0.00142278
0.00158283
0.00174047
0.00186256
0.00192546
0.00191381
0.00180778
0.00157151
0.00114622
0.000500849
0.000500852
0.00114723
0.00157597
0.00182193
0.00194894
0.0019982
0.00199057
0.00193051
0.001815
0.00165053
0.00147412
0.00134326
0.00124653
0.00120273
0.00118682
0.00118142
0.00117933
0.0011785
0.00117847
0.00117925
0.00118131
0.0011867
0.0012026
0.00124637
0.00134295
0.00147278
0.00164567
0.00179988
0.00189032
0.0018965
0.00180028
0.00156876
0.00114555
0.000500854
0.000500877
0.00114717
0.00157547
0.00182027
0.00194441
0.00198685
0.00196407
0.00187297
0.00170026
0.00144946
0.0012094
0.00117019
0.00115902
0.00115771
0.00115736
0.00115766
0.00115713
0.00115666
0.00115664
0.00115706
0.00115755
0.00115721
0.00115752
0.00115887
0.00117013
0.00120854
0.00144528
0.00168579
0.00183344
0.00187073
0.00178969
0.001565
0.00114462
0.000500833
0.000500894
0.00114708
0.00157489
0.00181853
0.00193982
0.00197521
0.00193517
0.00180261
0.00153284
0.0010784
0.000641177
0.000853694
0.00102465
0.00109264
0.00111273
0.00112091
0.00112257
0.0011226
0.00112257
0.00112247
0.00112068
0.00111226
0.00109185
0.00102379
0.00085363
0.000640799
0.00107538
0.00151892
0.00176346
0.00184234
0.00177874
0.00156122
0.00114369
0.0005008
0.000500898
0.00114688
0.00157415
0.00181695
0.00193676
0.00196874
0.00191941
0.0017585
0.00139495
0.000678867
0.000582416
0.000913278
0.00103012
0.00106324
0.00107278
0.00107513
0.00107553
0.00107545
0.00107481
0.00107196
0.00106132
0.00102641
0.000908048
0.00057956
0.000676461
0.0013801
0.00171853
0.00182647
0.0017728
0.00155908
0.00114316
0.000500784
0.000500855
0.0011462
0.00157253
0.00181477
0.00193525
0.00197094
0.00193291
0.0018047
0.00154159
0.00109454
0.000652419
0.000897364
0.00107551
0.00113657
0.00115233
0.00115681
0.0011581
0.00115836
0.00115819
0.00115737
0.00115459
0.00114639
0.00112362
0.00105372
0.000877362
0.000644979
0.0010813
0.00151965
0.00176124
0.00183892
0.00177554
0.00155911
0.00114295
0.00050078
0.000500659
0.00114394
0.00156773
0.00180839
0.00193001
0.00197269
0.00195424
0.00187318
0.00171753
0.00149025
0.00127458
0.00126956
0.00127162
0.0012501
0.00123497
0.00122887
0.00122692
0.00122632
0.00122605
0.00122564
0.00122468
0.00122278
0.00122004
0.00121466
0.00120955
0.00122739
0.00145277
0.00168296
0.00182427
0.00185918
0.00177915
0.00155783
0.00114168
0.000500659
0.000499973
0.00113724
0.00155421
0.00178988
0.00191035
0.00195847
0.00195699
0.00191297
0.00182576
0.00170137
0.0015702
0.00147955
0.00138987
0.00130438
0.0012629
0.00124765
0.00124287
0.00124152
0.00124117
0.00124118
0.0012418
0.00124489
0.00125669
0.00129242
0.00137565
0.00148602
0.00164103
0.00177972
0.00186015
0.00186326
0.00177067
0.00154796
0.001136
0.000500043
0.000497887
0.00111943
0.0015203
0.00174395
0.00185816
0.00190715
0.00191598
0.00189519
0.00184689
0.00177217
0.0016777
0.0015736
0.00145806
0.00135218
0.00130076
0.00128155
0.00127543
0.00127371
0.00127333
0.00127354
0.00127495
0.00128043
0.0012985
0.00134872
0.00145607
0.00158186
0.00170484
0.00179849
0.00184428
0.00182906
0.00173263
0.00151697
0.00111897
0.000498006
0.000492085
0.00107643
0.00144372
0.00164351
0.00174376
0.00178782
0.00180034
0.00179251
0.00176697
0.00172255
0.00165822
0.00157559
0.00148089
0.00139498
0.00134927
0.00133084
0.00132461
0.00132285
0.00132249
0.00132276
0.00132442
0.00133044
0.00134846
0.00139397
0.00148107
0.00157968
0.00166712
0.00172733
0.0017508
0.00172764
0.0016378
0.0014424
0.00107648
0.000492233
0.000477326
0.000981337
0.00128538
0.00144398
0.00152064
0.0015539
0.00156491
0.00156329
0.00155157
0.0015285
0.0014919
0.00144145
0.00138247
0.00132905
0.00129831
0.00128488
0.0012801
0.00127867
0.00127838
0.00127864
0.00128003
0.00128473
0.00129805
0.00132881
0.00138272
0.00144287
0.00149396
0.00152669
0.00153577
0.0015135
0.00144194
0.00128527
0.000981646
0.000477477
0.000443903
0.000786589
0.000981508
0.00107684
0.00112004
0.00113787
0.00114401
0.0011444
0.00114067
0.00113219
0.00111751
0.00109606
0.00107024
0.0010464
0.0010319
0.0010252
0.00102268
0.00102188
0.00102172
0.00102189
0.00102269
0.0010252
0.00103188
0.00104639
0.00107036
0.00109644
0.00111773
0.00113036
0.00113207
0.00111822
0.0010767
0.000981871
0.000786919
0.000444031
0.000387349
0.000443955
0.000477484
0.000492364
0.000498287
0.0005005
0.000501292
0.000501511
0.000501355
0.000500742
0.000499571
0.000497609
0.000495007
0.000492423
0.00049079
0.000489982
0.000489618
0.000489436
0.00048937
0.000489447
0.000489628
0.000489986
0.000490781
0.000492402
0.000494977
0.000497581
0.000499519
0.000500526
0.000500437
0.000498514
0.000492656
0.000477733
0.000444117
0.000387433
0.00051121
0.000719293
0.000848951
0.000912833
0.000941259
0.000952835
0.000957142
0.000958581
0.000958969
0.000958991
0.000958899
0.000958789
0.0009587
0.000958638
0.000958596
0.000958563
0.000958538
0.000958523
0.000958521
0.000958532
0.000958554
0.000958585
0.000958623
0.000958674
0.000958725
0.000958703
0.000958359
0.000956989
0.00095275
0.000941226
0.00091283
0.000848965
0.000719314
0.000511231
0.0007193
0.000873135
0.00102016
0.00110135
0.00114029
0.0011571
0.00116364
0.0011659
0.00116651
0.00116652
0.00116635
0.00116616
0.00116602
0.00116593
0.00116589
0.00116585
0.00116583
0.00116582
0.00116582
0.00116583
0.00116586
0.00116589
0.00116593
0.001166
0.00116608
0.00116604
0.0011655
0.00116335
0.00115693
0.00114022
0.00110133
0.00102018
0.000873155
0.000719324
0.000849009
0.0010202
0.00119969
0.00130513
0.00135888
0.00138347
0.00139356
0.0013971
0.0013979
0.00139764
0.00139708
0.00139656
0.0013962
0.00139601
0.00139592
0.00139587
0.00139584
0.00139582
0.00139582
0.00139584
0.00139588
0.00139593
0.00139601
0.00139617
0.0013964
0.00139651
0.00139584
0.00139262
0.0013829
0.0013586
0.00130504
0.0011997
0.00102024
0.000849069
0.000912949
0.00110142
0.00130517
0.00142903
0.00149452
0.00152553
0.00153846
0.0015427
0.00154298
0.00154162
0.00153989
0.00153848
0.0015376
0.00153717
0.00153699
0.00153689
0.0015368
0.00153676
0.00153676
0.00153681
0.0015369
0.001537
0.00153717
0.00153755
0.00153824
0.00153905
0.00153904
0.00153568
0.00152378
0.00149361
0.00142867
0.0013051
0.00110146
0.000913037
0.000941421
0.0011404
0.00135897
0.00149457
0.00156778
0.00160291
0.00161716
0.0016206
0.00161857
0.00161413
0.00160947
0.00160607
0.00160415
0.00160332
0.001603
0.0016028
0.00160262
0.00160251
0.00160252
0.00160263
0.00160282
0.00160302
0.00160332
0.00160409
0.00160577
0.00160843
0.00161094
0.00160973
0.00159817
0.00156525
0.00149346
0.00135861
0.00114037
0.000941494
0.000953024
0.00115722
0.00138359
0.00152564
0.001603
0.00163976
0.00165307
0.00165296
0.00164499
0.00163332
0.00162231
0.00161517
0.00161179
0.00161065
0.00161034
0.00161009
0.00160975
0.00160953
0.00160953
0.00160977
0.00161011
0.00161036
0.00161066
0.00161173
0.00161484
0.00162114
0.00162976
0.00163518
0.00162835
0.00159684
0.00152283
0.00138256
0.00115696
0.000952995
0.000957345
0.00116378
0.00139372
0.00153867
0.00161745
0.0016534
0.00166277
0.00165456
0.001634
0.00160725
0.00158385
0.00157104
0.00156711
0.00156687
0.00156726
0.00156734
0.00156692
0.00156657
0.00156658
0.00156694
0.00156737
0.00156729
0.00156689
0.00156705
0.00157072
0.00158265
0.00160354
0.00162372
0.00162881
0.00160427
0.0015326
0.00139136
0.00116305
0.000957069
0.000958793
0.00116606
0.00139734
0.00154315
0.00162143
0.0016543
0.00165603
0.00163312
0.00158916
0.00153362
0.00148897
0.00146882
0.00146975
0.00147461
0.00147737
0.00147915
0.00147915
0.0014788
0.00147881
0.00147917
0.00147918
0.00147741
0.00147464
0.00146973
0.00146855
0.00148782
0.00152991
0.00157873
0.00160691
0.00159651
0.00153173
0.00139282
0.00116453
0.00095808
0.000959196
0.0011667
0.00139832
0.00154394
0.0016206
0.0016487
0.00163944
0.00159459
0.00151307
0.00140889
0.00134359
0.00130177
0.00132253
0.00134211
0.00134965
0.00135651
0.00135835
0.00135846
0.00135847
0.00135837
0.00135655
0.0013497
0.00134217
0.00132256
0.00130158
0.00134249
0.00140523
0.00150261
0.00156818
0.00157948
0.00152538
0.00139094
0.00116413
0.000957881
0.000959251
0.0011668
0.00139839
0.00154351
0.00161839
0.00164165
0.00162098
0.001552
0.00142627
0.00127249
0.00148776
0.00109329
0.00115
0.00119731
0.00121081
0.00122712
0.00123232
0.0012333
0.00123331
0.00123234
0.00122716
0.00121087
0.0011974
0.00115009
0.0010932
0.00148569
0.00126849
0.00141561
0.00152539
0.00156074
0.00151795
0.00138826
0.0011632
0.000957333
0.00095922
0.00116677
0.00139832
0.00154321
0.00161722
0.0016381
0.00161176
0.00153165
0.00140129
0.0015877
0.00116433
0.00102477
0.00108509
0.00111647
0.00112229
0.00112297
0.00112297
0.00112297
0.00112298
0.00112232
0.00111651
0.00108516
0.00102486
0.00116452
0.00157887
0.00139002
0.00150479
0.0015513
0.00151415
0.00138682
0.00116264
0.000956981
0.000959186
0.00116676
0.00139843
0.00154359
0.00161826
0.00164072
0.00161814
0.0015453
0.00141235
0.00124334
0.00138596
0.00102687
0.00110639
0.00117052
0.00122001
0.00119782
0.00118823
0.00118594
0.00118593
0.00118821
0.00119778
0.00121998
0.0011705
0.00110634
0.00102657
0.00138349
0.00123916
0.00140155
0.0015185
0.00155762
0.00151663
0.00138767
0.00116286
0.000957076
0.000959168
0.0011668
0.0013987
0.0015445
0.00162082
0.00164729
0.00163393
0.0015806
0.00148336
0.00135169
0.00124249
0.0011648
0.00116396
0.00117049
0.00118042
0.00117281
0.0011686
0.00116731
0.00116731
0.00116859
0.00117278
0.00118039
0.00117043
0.00116382
0.0011644
0.0012412
0.00134785
0.00147268
0.00155382
0.00157335
0.00152307
0.00139007
0.00116365
0.00095749
0.000959152
0.00116685
0.00139901
0.00154551
0.00162359
0.00165417
0.00164963
0.00161352
0.00154536
0.00145025
0.00134952
0.00126818
0.00121966
0.00119002
0.00117902
0.00117328
0.0011709
0.00117014
0.00117013
0.00117089
0.00117325
0.00117898
0.00118994
0.00121949
0.00126775
0.00134823
0.00144637
0.00153462
0.00158665
0.00158893
0.00152978
0.00139266
0.00116453
0.00095794
0.000959129
0.0011669
0.00139926
0.00154632
0.00162574
0.00165929
0.00166077
0.0016354
0.00158348
0.00150667
0.00141441
0.00132419
0.00125458
0.00120798
0.00118802
0.00118083
0.0011785
0.00117783
0.00117783
0.00117848
0.0011808
0.00118797
0.00120788
0.0012544
0.00132375
0.00141309
0.00150273
0.00157264
0.0016084
0.0015999
0.00153473
0.00139463
0.00116521
0.000958259
0.000959097
0.00116692
0.00139942
0.00154684
0.00162708
0.00166239
0.0016672
0.00164734
0.00160298
0.00153374
0.00144454
0.00134971
0.0012713
0.00121756
0.00119392
0.00118567
0.00118314
0.00118246
0.00118245
0.00118312
0.00118564
0.00119387
0.00121746
0.00127111
0.00134924
0.0014432
0.00152974
0.00159205
0.00162022
0.00160619
0.00153767
0.00139583
0.00116562
0.000958424
0.000959063
0.00116693
0.00139951
0.00154712
0.00162779
0.00166397
0.00167035
0.00165292
0.00161163
0.00154511
0.00145671
0.00135984
0.00127798
0.00122152
0.00119648
0.00118774
0.00118509
0.00118438
0.00118437
0.00118507
0.00118771
0.00119643
0.00122142
0.0012778
0.00135937
0.00145535
0.00154109
0.00160065
0.00162573
0.00160924
0.00153914
0.00139644
0.00116583
0.00095848
0.000959032
0.00116693
0.00139955
0.00154724
0.00162809
0.00166461
0.00167158
0.00165503
0.00161476
0.00154907
0.00146079
0.00136318
0.00128018
0.00122282
0.00119733
0.00118842
0.00118571
0.00118498
0.00118497
0.0011857
0.00118839
0.00119727
0.00122272
0.00127999
0.00136271
0.00145943
0.00154504
0.00160376
0.0016278
0.00161042
0.00153973
0.00139668
0.00116591
0.000958479
0.000959014
0.00116693
0.00139955
0.00154725
0.0016281
0.00166464
0.00167162
0.00165508
0.00161482
0.00154914
0.00146087
0.00136326
0.00128024
0.00122286
0.00119735
0.00118843
0.00118572
0.00118497
0.00118496
0.0011857
0.0011884
0.00119729
0.00122276
0.00128005
0.00136279
0.00145952
0.00154512
0.00160382
0.00162785
0.00161046
0.00153975
0.0013967
0.00116591
0.000958455
0.000959016
0.00116693
0.00139952
0.00154715
0.00162784
0.00166405
0.00167046
0.00165307
0.00161182
0.00154534
0.00145696
0.0013601
0.00127819
0.00122166
0.00119656
0.00118779
0.00118511
0.00118438
0.00118437
0.00118509
0.00118776
0.00119651
0.00122156
0.00127802
0.00135964
0.00145563
0.00154134
0.00160085
0.00162588
0.00160935
0.00153921
0.00139647
0.00116583
0.000958418
0.000959035
0.00116692
0.00139944
0.00154689
0.00162717
0.00166253
0.00166739
0.0016476
0.00160332
0.00153416
0.00144503
0.00135021
0.00127171
0.00121785
0.00119411
0.0011858
0.00118323
0.00118251
0.00118251
0.00118321
0.00118577
0.00119406
0.00121776
0.00127155
0.00134979
0.00144373
0.00153021
0.00159242
0.0016205
0.00160637
0.00153778
0.00139589
0.00116564
0.000958343
0.000959059
0.0011669
0.00139929
0.00154639
0.00162586
0.00165948
0.00166105
0.00163578
0.001584
0.00150736
0.00141523
0.00132503
0.00125526
0.00120846
0.00118833
0.00118107
0.0011787
0.00117801
0.00117801
0.00117869
0.00118106
0.0011883
0.00120839
0.00125514
0.00132466
0.001414
0.00150349
0.00157321
0.0016088
0.00160017
0.00153489
0.00139471
0.00116524
0.00095817
0.000959077
0.00116685
0.00139904
0.00154559
0.00162373
0.00165439
0.00164997
0.00161401
0.00154608
0.00145125
0.00135078
0.00126943
0.00122057
0.00119055
0.00117929
0.00117348
0.00117108
0.0011703
0.0011703
0.00117108
0.00117347
0.00117927
0.00119051
0.00122048
0.00126913
0.00134963
0.00144748
0.00153538
0.00158715
0.00158924
0.00152997
0.00139276
0.00116456
0.000957844
0.000959082
0.00116678
0.0013987
0.00154455
0.00162092
0.00164748
0.00163424
0.0015811
0.00148417
0.00135294
0.00124418
0.00116629
0.00116445
0.00117019
0.00117961
0.00117195
0.00116773
0.00116643
0.00116643
0.00116772
0.00117192
0.00117954
0.00117006
0.00116428
0.00116599
0.00124306
0.00134914
0.00147342
0.00155423
0.00157358
0.00152321
0.00139013
0.00116366
0.000957376
0.000959063
0.00116668
0.00139832
0.00154346
0.00161815
0.00164065
0.00161815
0.00154545
0.00141275
0.00124422
0.00138986
0.00102621
0.00110352
0.00116601
0.00121451
0.00119193
0.00118219
0.00117987
0.00117987
0.00118216
0.0011918
0.00121419
0.00116527
0.00110242
0.001025
0.00138764
0.00123948
0.00140132
0.00151817
0.00155737
0.00151647
0.00138757
0.00116279
0.00095691
0.000958963
0.00116647
0.00139781
0.00154249
0.00161636
0.00163713
0.00161069
0.00153038
0.00139956
0.00158284
0.00113946
0.00100568
0.0010606
0.00108807
0.00109235
0.00109263
0.00109255
0.0010925
0.00109238
0.00109162
0.00108624
0.00105678
0.000999294
0.00112733
0.00156756
0.00138563
0.00150202
0.00154957
0.00151309
0.00138619
0.0011623
0.000956651
0.000958559
0.00116578
0.00139663
0.00154105
0.00161535
0.00163814
0.00161696
0.00154706
0.00141932
0.00126001
0.00144355
0.00105308
0.0010946
0.00112581
0.00112891
0.00114056
0.00114477
0.00114565
0.00114551
0.00114416
0.00113865
0.00112379
0.00111459
0.00107579
0.00102944
0.00140481
0.00124296
0.00140175
0.00151697
0.00155545
0.00151457
0.00138618
0.00116206
0.000956522
0.000957156
0.00116355
0.00139308
0.00153674
0.00161184
0.00163873
0.00162817
0.00158107
0.00149475
0.00138006
0.00129309
0.00122368
0.00121001
0.0011977
0.00118455
0.00118227
0.00118195
0.00118179
0.00118156
0.00118085
0.00117867
0.00117452
0.00117527
0.00117438
0.00118201
0.00125515
0.00135321
0.00147142
0.0015486
0.00156651
0.00151652
0.00138511
0.00116076
0.000955675
0.000952902
0.00115708
0.00138318
0.00152431
0.00159903
0.00162932
0.00162864
0.00160198
0.0015504
0.00147939
0.00140665
0.00134528
0.00129693
0.0012593
0.00123045
0.00121838
0.00121442
0.00121328
0.00121296
0.00121289
0.00121318
0.00121551
0.00122579
0.00125078
0.00129015
0.00135843
0.00144413
0.00152231
0.00156805
0.00156815
0.00151059
0.00137785
0.00115528
0.000951995
0.000941366
0.00114034
0.00135879
0.0014939
0.00156555
0.00159674
0.00160238
0.00158936
0.00155977
0.00151542
0.0014612
0.00140282
0.0013445
0.0012969
0.00126155
0.00124577
0.00124031
0.0012387
0.00123833
0.00123855
0.00123988
0.00124478
0.00125979
0.00129446
0.00134408
0.00141023
0.00147801
0.00153098
0.00155678
0.00154587
0.00148537
0.00135559
0.00113933
0.000940907
0.000912951
0.00110144
0.00130519
0.00142886
0.0014936
0.00152252
0.0015307
0.00152547
0.00150905
0.0014815
0.0014431
0.00139556
0.00134354
0.00129789
0.00126692
0.00125249
0.00124717
0.00124551
0.00124514
0.00124547
0.00124704
0.0012522
0.00126641
0.00129738
0.00134414
0.00139905
0.00144922
0.00148443
0.00149777
0.00148191
0.00142403
0.00130348
0.00110095
0.000912785
0.000849054
0.00102025
0.00119981
0.00130526
0.00135875
0.00138242
0.00139019
0.00138878
0.00138025
0.00136419
0.00133965
0.00130689
0.00126956
0.00123593
0.00121377
0.00120306
0.00119889
0.00119753
0.00119723
0.00119753
0.00119889
0.00120302
0.0012137
0.00123593
0.00127002
0.00130827
0.00134132
0.00136281
0.00136852
0.00135255
0.00130288
0.00119906
0.00102008
0.00084905
0.000719368
0.000873203
0.00102032
0.00110159
0.00114052
0.00115703
0.00116263
0.00116265
0.00115867
0.00115029
0.0011365
0.00111705
0.00109416
0.0010732
0.0010596
0.00105295
0.0010503
0.00104941
0.00104921
0.00104943
0.00105033
0.00105299
0.00105965
0.00107329
0.00109443
0.00111757
0.00113681
0.00114853
0.00115032
0.00113779
0.00110067
0.00102009
0.000873183
0.000719428
0.000511267
0.000719367
0.000849154
0.000913185
0.000941708
0.00095322
0.00095709
0.000957297
0.000954918
0.000949558
0.00094029
0.000926679
0.000910196
0.000894954
0.00088558
0.000881169
0.000879422
0.000878813
0.000878673
0.000878833
0.000879457
0.000881208
0.000885618
0.00089501
0.00091033
0.000926938
0.000940404
0.000948353
0.000949384
0.000940351
0.00091287
0.000849165
0.000719421
0.000511344
0.000581979
0.00090995
0.00112351
0.00123445
0.00128682
0.00130947
0.00131839
0.00132151
0.00132234
0.00132234
0.00132205
0.00132173
0.00132147
0.00132129
0.00132118
0.0013211
0.00132105
0.00132102
0.00132102
0.00132105
0.0013211
0.00132117
0.00132128
0.00132142
0.00132158
0.00132158
0.00132085
0.00131791
0.00130917
0.00128666
0.00123437
0.00112348
0.000909945
0.000582002
0.000909948
0.00102349
0.00117969
0.00127309
0.00132073
0.00134245
0.00135135
0.00135456
0.00135544
0.00135544
0.00135515
0.00135484
0.00135459
0.00135443
0.00135434
0.00135428
0.00135424
0.00135422
0.00135422
0.00135424
0.00135428
0.00135434
0.00135442
0.00135455
0.00135469
0.00135466
0.00135386
0.00135083
0.00134212
0.00132055
0.00127301
0.00117966
0.00102348
0.000909938
0.00112357
0.00117971
0.00133958
0.00144369
0.00150041
0.00152782
0.00153961
0.0015439
0.00154489
0.00154452
0.00154374
0.00154299
0.00154244
0.00154212
0.00154193
0.00154183
0.00154176
0.00154173
0.00154173
0.00154176
0.00154183
0.00154194
0.0015421
0.00154238
0.00154275
0.00154295
0.00154213
0.00153824
0.00152693
0.00149992
0.00144348
0.00133951
0.0011797
0.00112358
0.0012346
0.00127315
0.00144373
0.00155927
0.0016245
0.00165706
0.00167124
0.00167605
0.00167636
0.00167474
0.00167263
0.00167083
0.00166963
0.00166895
0.0016686
0.00166841
0.00166828
0.00166822
0.00166822
0.00166829
0.00166841
0.0016686
0.00166894
0.00166954
0.00167048
0.00167152
0.00167151
0.00166771
0.00165472
0.0016232
0.00155866
0.00144352
0.00127311
0.0012346
0.00128704
0.00132083
0.00150049
0.00162455
0.00169591
0.00173187
0.00174704
0.00175085
0.0017487
0.00174387
0.00173873
0.00173478
0.0017324
0.00173114
0.00173051
0.0017302
0.00172999
0.00172986
0.00172986
0.00172999
0.00173021
0.00173051
0.00173112
0.00173228
0.00173435
0.00173738
0.00173998
0.00173846
0.00172616
0.00169266
0.00162298
0.00149986
0.00132064
0.00128693
0.00130973
0.00134258
0.00152794
0.00165718
0.00173198
0.00176919
0.00178321
0.00178335
0.00177533
0.00176356
0.00175234
0.00174454
0.00174057
0.00173867
0.00173768
0.00173742
0.00173715
0.00173694
0.00173695
0.00173716
0.00173743
0.00173769
0.00173865
0.00174045
0.00174406
0.00175082
0.00175922
0.00176401
0.00175641
0.00172468
0.00165357
0.0015264
0.00134201
0.00130931
0.00131869
0.00135151
0.0015398
0.00167151
0.00174743
0.00178363
0.00179363
0.00178597
0.00176634
0.00174128
0.00171929
0.00170527
0.00170065
0.00169884
0.00169739
0.00169811
0.00169811
0.00169785
0.00169786
0.00169812
0.00169812
0.00169741
0.00169883
0.00170053
0.00170479
0.00171769
0.00173668
0.00175439
0.00175769
0.00173269
0.00166418
0.00153658
0.00135021
0.00131761
0.00132184
0.00135476
0.00154423
0.00167665
0.00175193
0.00178499
0.0017877
0.00176678
0.00172742
0.00168003
0.00164294
0.00161655
0.00161663
0.00161791
0.00161507
0.00162036
0.00162183
0.00162173
0.00162174
0.00162185
0.00162038
0.00161509
0.00161792
0.00161655
0.00161609
0.00164131
0.00167527
0.00171507
0.00173772
0.00172541
0.00166351
0.0015384
0.00135231
0.0013197
0.00132276
0.00135573
0.00154549
0.00167764
0.00175124
0.00177971
0.00177257
0.00173363
0.00166698
0.00159193
0.00156174
0.0014788
0.00150075
0.00151362
0.00150332
0.00152552
0.00153211
0.00153291
0.00153292
0.00153213
0.00152556
0.00150336
0.00151367
0.00150073
0.0014784
0.00155992
0.00158687
0.0016542
0.00170395
0.00170943
0.00165712
0.00153636
0.00135181
0.00131921
0.00132289
0.0013559
0.0015456
0.00167721
0.00174902
0.00177306
0.00175658
0.00170103
0.00161414
0.0015608
0.00208862
0.0013147
0.0013955
0.0014375
0.00139624
0.00146791
0.00148748
0.00149053
0.00149055
0.00148752
0.00146798
0.00139629
0.0014376
0.00139558
0.00131436
0.00208387
0.00155423
0.00160048
0.00167065
0.00169276
0.00164976
0.00153339
0.00135059
0.00131798