/*--------------------------------*- C++ -*----------------------------------*\
| =========                 |                                                 |
| \\      /  F ield         | OpenFOAM: The Open Source CFD Toolbox           |
|  \\    /   O peration     | Version:  2112                                  |
|   \\  /    A nd           | Website:  www.openfoam.com                      |
|    \\/     M anipulation  |                                                 |
\*---------------------------------------------------------------------------*/
FoamFile
{
    version     2.0;
    format      ascii;
    arch        "LSB;label=32;scalar=64";
    class       volScalarField;
    location    "2.8";
    object      k;
}
// * * * * * * * * * * * * * * * * * * * * * * * * * * * * * * * * * * * * * //

dimensions      [0 2 -2 0 0 0 0];

internalField   nonuniform List<scalar> 
64906
(
0.000484061
0.000530721
0.000557509
0.000569236
0.000573862
0.00057555
0.000576126
0.00057631
0.000576364
0.000576378
0.000576381
0.000576378
0.000576374
0.000576367
0.000576358
0.000576347
0.000576335
0.000576323
0.000576317
0.000576324
0.000576335
0.000576346
0.000576354
0.00057636
0.000576361
0.00057635
0.000576299
0.000576124
0.000575557
0.000573874
0.000569252
0.000557531
0.000530745
0.00048408
0.000530744
0.000778663
0.000903489
0.000961813
0.000987878
0.000998742
0.00100291
0.00100435
0.00100476
0.00100481
0.00100475
0.00100467
0.00100463
0.00100461
0.0010046
0.00100461
0.0010046
0.0010046
0.0010046
0.00100461
0.00100461
0.00100461
0.00100461
0.00100462
0.00100463
0.00100457
0.00100419
0.00100282
0.000998722
0.00098791
0.000961876
0.000903564
0.000778731
0.000530789
0.000557572
0.000903538
0.00108289
0.00117125
0.00121326
0.00123192
0.0012395
0.00124219
0.00124285
0.00124273
0.00124239
0.00124209
0.00124191
0.00124184
0.00124184
0.00124186
0.00124186
0.00124187
0.00124187
0.00124187
0.00124187
0.00124186
0.00124185
0.00124189
0.00124199
0.00124199
0.00124142
0.00123896
0.00123164
0.00121318
0.00117131
0.001083
0.000903658
0.000557648
0.000569329
0.000961908
0.00117131
0.00127833
0.00133122
0.0013556
0.0013657
0.00136904
0.00136934
0.00136835
0.00136707
0.00136604
0.00136542
0.00136517
0.00136511
0.00136509
0.00136506
0.00136504
0.00136505
0.00136507
0.00136511
0.00136513
0.00136518
0.0013654
0.00136587
0.00136645
0.00136639
0.00136373
0.00135443
0.00133069
0.00127821
0.00117139
0.000962052
0.00056943
0.000573972
0.000988003
0.00121335
0.00133127
0.0013909
0.0014188
0.00143005
0.0014328
0.00143124
0.00142772
0.00142396
0.00142118
0.00141959
0.00141896
0.0014188
0.00141867
0.00141853
0.00141845
0.00141845
0.00141854
0.00141869
0.00141883
0.00141898
0.00141956
0.00142097
0.00142316
0.00142526
0.00142436
0.00141527
0.00138911
0.00133058
0.00121324
0.000988119
0.000574091
0.000575668
0.000998882
0.00123204
0.00135569
0.00141887
0.00144817
0.00145871
0.00145861
0.00145215
0.0014425
0.00143311
0.001427
0.00142383
0.00142281
0.00142268
0.00142236
0.00142197
0.00142175
0.00142176
0.00142199
0.00142239
0.00142271
0.00142284
0.00142381
0.00142677
0.00143223
0.00143974
0.0014445
0.00143931
0.00141423
0.00135371
0.00123145
0.000998874
0.000575795
0.000576245
0.00100305
0.00123965
0.00136586
0.00143027
0.00145897
0.00146634
0.00145957
0.00144243
0.00141933
0.00139821
0.0013875
0.00138332
0.00138287
0.0013835
0.00138301
0.00138225
0.00138182
0.00138182
0.00138227
0.00138305
0.00138355
0.0013829
0.00138331
0.00138729
0.00139733
0.00141649
0.00143443
0.0014394
0.00142005
0.00136135
0.00123809
0.00100277
0.000576362
0.000576424
0.00100449
0.00124238
0.00136938
0.00143344
0.00145967
0.00146077
0.00144152
0.00140333
0.00135174
0.00130591
0.00129484
0.00129567
0.00129967
0.0013031
0.00130281
0.00130175
0.00130116
0.00130117
0.00130177
0.00130285
0.00130315
0.00129973
0.00129569
0.00129468
0.0013051
0.00134898
0.00139531
0.00142105
0.00141373
0.00136068
0.00123922
0.00100373
0.000576508
0.000576469
0.00100491
0.00124315
0.00137005
0.00143284
0.00145517
0.00144692
0.00140778
0.00133147
0.00121782
0.00111056
0.00113099
0.0011607
0.00117916
0.00118869
0.00118993
0.00118939
0.001189
0.00118901
0.00118941
0.00118997
0.00118875
0.00117923
0.00116077
0.00113094
0.00110995
0.00121533
0.00132364
0.00138732
0.00139965
0.00135567
0.00123785
0.0010035
0.000576495
0.000576468
0.00100499
0.00124325
0.00136979
0.00143115
0.00144938
0.00143077
0.00136657
0.00123015
0.000979048
0.000693174
0.000873274
0.000995693
0.0010446
0.0010622
0.00106724
0.00106843
0.00106864
0.00106865
0.00106845
0.00106728
0.00106226
0.0010447
0.000995817
0.000873406
0.000692956
0.000977085
0.00122259
0.0013462
0.00138343
0.00134968
0.00123586
0.00100295
0.000576423
0.000576456
0.00100499
0.00124326
0.00136964
0.0014303
0.00144643
0.00142192
0.0013405
0.00114745
0.000708039
0.00064163
0.000870936
0.000946727
0.00096918
0.000975904
0.000977631
0.000977988
0.000977992
0.000977645
0.000975929
0.000969223
0.000946803
0.000871066
0.00064172
0.000707088
0.00114019
0.00132016
0.00137451
0.0013466
0.00123485
0.00100263
0.000576372
0.000576444
0.001005
0.0012434
0.00137005
0.00143131
0.00144898
0.00142892
0.00136175
0.0012204
0.000962638
0.000679239
0.000821473
0.000929792
0.000971546
0.000984079
0.000989364
0.00099054
0.000990632
0.000990629
0.000990533
0.000989354
0.000984066
0.000971535
0.000929783
0.000821373
0.000678882
0.000960442
0.00121271
0.00134126
0.0013814
0.00134902
0.00123567
0.00100281
0.000576375
0.00057643
0.00100503
0.00124366
0.00137085
0.00143349
0.00145462
0.00144308
0.00139698
0.00130792
0.00117352
0.00103748
0.0010135
0.00100699
0.00100644
0.00100645
0.00100686
0.0010067
0.0010065
0.00100649
0.00100668
0.00100683
0.0010064
0.00100636
0.00100686
0.0010132
0.00103662
0.00117085
0.00129995
0.00137632
0.00139544
0.00135449
0.00123765
0.00100336
0.000576403
0.000576413
0.00100507
0.00124393
0.00137171
0.00143579
0.00146029
0.00145626
0.00142579
0.00136667
0.00128066
0.00118537
0.0011124
0.00105724
0.00103197
0.00102281
0.00101981
0.00101872
0.00101833
0.00101832
0.0010187
0.00101976
0.00102274
0.00103186
0.00105707
0.00111207
0.0011844
0.00127779
0.00135851
0.00140496
0.00140844
0.00135998
0.00123971
0.00100394
0.000576425
0.000576391
0.0010051
0.00124415
0.0013724
0.00143755
0.00146445
0.00146529
0.00144374
0.00139878
0.00133024
0.00124481
0.00115696
0.0010829
0.00104611
0.00103201
0.0010272
0.0010256
0.00102507
0.00102506
0.00102556
0.00102715
0.00103193
0.001046
0.00108273
0.00115661
0.00124381
0.00132728
0.00139049
0.00142275
0.0014173
0.00136394
0.00124126
0.00100438
0.000576427
0.000576367
0.00100511
0.0012443
0.00137284
0.00143866
0.00146695
0.00147042
0.00145323
0.0014143
0.00135184
0.00126861
0.00117558
0.00109414
0.00105258
0.00103627
0.00103065
0.00102876
0.00102814
0.00102812
0.00102872
0.00103059
0.00103619
0.00105246
0.00109395
0.00117517
0.00126759
0.00134883
0.00140592
0.00143214
0.0014223
0.00136629
0.00124221
0.00100464
0.000576409
0.000576341
0.00100511
0.00124438
0.00137309
0.00143926
0.00146824
0.00147293
0.00145762
0.00142101
0.00136054
0.00127765
0.00118269
0.00109846
0.00105511
0.00103794
0.00103198
0.00102996
0.00102924
0.00102922
0.0010299
0.00103191
0.00103785
0.00105499
0.00109828
0.00118227
0.00127663
0.00135751
0.00141259
0.00143646
0.00142472
0.00136748
0.00124269
0.00100476
0.000576378
0.000576316
0.0010051
0.00124442
0.0013732
0.00143952
0.00146877
0.00147393
0.00145929
0.00142344
0.00136353
0.00128064
0.00118501
0.00109988
0.00105594
0.00103848
0.00103239
0.0010303
0.00102951
0.00102948
0.00103024
0.00103232
0.00103839
0.00105582
0.00109969
0.00118459
0.00127961
0.00136049
0.001415
0.0014381
0.00142568
0.00136797
0.0012429
0.0010048
0.000576343
0.000576296
0.00100509
0.00124443
0.00137322
0.00143954
0.00146881
0.00147398
0.00145935
0.00142351
0.00136362
0.00128073
0.0011851
0.00109994
0.00105598
0.00103849
0.00103238
0.00103027
0.00102944
0.00102941
0.0010302
0.00103231
0.0010384
0.00105586
0.00109975
0.00118469
0.00127971
0.00136059
0.00141508
0.00143816
0.00142573
0.001368
0.00124292
0.0010048
0.000576311
0.000576293
0.00100509
0.00124441
0.00137314
0.00143933
0.00146835
0.00147308
0.00145781
0.00142124
0.00136081
0.00127796
0.00118299
0.00109867
0.00105524
0.001038
0.00103197
0.00102988
0.00102906
0.00102902
0.00102981
0.00103189
0.0010379
0.00105512
0.00109849
0.00118259
0.00127695
0.00135781
0.00141285
0.00143666
0.00142488
0.00136758
0.00124275
0.00100475
0.000576305
0.000576313
0.00100509
0.00124434
0.00137292
0.00143879
0.00146713
0.00147066
0.00145355
0.00141471
0.00135234
0.00126917
0.00117615
0.00109453
0.00105283
0.0010364
0.00103067
0.00102867
0.00102791
0.00102787
0.0010286
0.00103059
0.00103631
0.00105272
0.00109436
0.00117578
0.00126821
0.00134939
0.00140638
0.00143249
0.00142256
0.00136647
0.00124231
0.00100464
0.000576329
0.000576336
0.00100509
0.00124421
0.00137251
0.00143773
0.0014647
0.00146564
0.00144421
0.0013994
0.00133103
0.00124575
0.00115789
0.00108355
0.00104653
0.00103224
0.00102729
0.00102554
0.00102489
0.00102486
0.00102548
0.00102722
0.00103216
0.00104643
0.00108341
0.00115757
0.00124485
0.00132817
0.00139118
0.00142327
0.00141767
0.0013642
0.00124141
0.0010044
0.000576347
0.000576358
0.00100507
0.00124401
0.00137185
0.00143601
0.00146061
0.0014567
0.00142641
0.00136753
0.00128185
0.00118686
0.00111368
0.00105815
0.0010325
0.00102308
0.00101989
0.00101866
0.00101817
0.00101815
0.00101861
0.00101983
0.00102301
0.00103242
0.00105805
0.0011135
0.00118609
0.00127914
0.00135948
0.00140563
0.00140891
0.00136029
0.0012399
0.00100398
0.000576347
0.000576377
0.00100503
0.00124373
0.00137098
0.0014337
0.00145493
0.00144355
0.00139767
0.00130898
0.00117514
0.00103971
0.00101535
0.00100778
0.00100656
0.00100619
0.00100636
0.00100606
0.00100579
0.00100578
0.00100603
0.0010063
0.0010061
0.00100645
0.00100769
0.00101531
0.00103916
0.0011727
0.00130109
0.00137702
0.0013959
0.00135481
0.00123784
0.0010034
0.000576328
0.000576389
0.00100497
0.0012434
0.00137007
0.00143137
0.00144913
0.0014292
0.00136228
0.0012214
0.000964498
0.000680457
0.000822196
0.000928219
0.000968757
0.000980525
0.000985435
0.000986462
0.000986493
0.000986477
0.000986403
0.000985297
0.000980235
0.000968269
0.000927681
0.000822145
0.000680168
0.000962552
0.00121353
0.00134155
0.00138157
0.00134916
0.00123577
0.00100283
0.0005763
0.000576391
0.00100484
0.00124298
0.00136923
0.00142981
0.0014459
0.00142137
0.00133993
0.00114696
0.000707829
0.000637245
0.000859928
0.000931828
0.000951722
0.000957467
0.000958892
0.000959142
0.000959092
0.000958697
0.000956957
0.000950533
0.000929507
0.000856526
0.000635076
0.00070604
0.00113831
0.00131858
0.00137354
0.00134608
0.0012346
0.0010025
0.000576286
0.000576356
0.00100441
0.00124207
0.00136806
0.001429
0.00144694
0.00142804
0.00136338
0.00122623
0.000974426
0.000688665
0.000850755
0.000959518
0.000995285
0.00100437
0.00100695
0.00100769
0.00100784
0.00100774
0.00100725
0.00100562
0.00100081
0.000987507
0.000946164
0.000837661
0.000683193
0.000966145
0.00121391
0.00134037
0.00137977
0.00134745
0.00123459
0.00100236
0.000576281
0.000576194
0.00100302
0.00123941
0.0013647
0.00142626
0.00144769
0.00143851
0.00139777
0.00131813
0.00119775
0.00107771
0.00107338
0.00107346
0.0010606
0.00105168
0.00104808
0.00104693
0.00104658
0.00104642
0.00104618
0.00104562
0.00104456
0.00104312
0.00104043
0.00103841
0.00105013
0.00117679
0.00129953
0.00137222
0.00138989
0.00134923
0.00123385
0.00100157
0.000576182
0.000575637
0.000998922
0.00123199
0.00135502
0.0014162
0.00144042
0.00143967
0.00141747
0.00137311
0.00130875
0.00123911
0.00118939
0.00113944
0.00109113
0.00106731
0.00105847
0.00105568
0.0010549
0.00105469
0.0010547
0.00105506
0.00105688
0.00106378
0.00108446
0.00113181
0.00119326
0.00127658
0.00134894
0.0013901
0.00139179
0.00134474
0.00122843
0.000998106
0.000575683
0.000573959
0.000988115
0.00121349
0.00133112
0.00138963
0.00141451
0.00141896
0.00140831
0.00138353
0.00134487
0.00129531
0.0012397
0.00117682
0.00111795
0.00108878
0.00107776
0.00107422
0.00107323
0.00107301
0.00107313
0.00107395
0.00107712
0.00108751
0.00111606
0.00117585
0.00124424
0.00130948
0.00135824
0.00138187
0.00137428
0.00132495
0.00121155
0.000987792
0.000574046
0.000569334
0.000962076
0.0011716
0.00127859
0.001331
0.00135387
0.00136034
0.00135618
0.00134273
0.0013193
0.00128516
0.00124086
0.0011894
0.00114191
0.00111622
0.00110576
0.00110219
0.00110118
0.00110097
0.00110113
0.00110208
0.00110553
0.00111578
0.00114137
0.00118955
0.00124311
0.00128984
0.00132169
0.00133411
0.00132224
0.00127537
0.00117078
0.000962078
0.000569447
0.000557603
0.00090374
0.00108327
0.00117174
0.00121366
0.00123177
0.00123776
0.00123681
0.00123029
0.0012175
0.0011972
0.00116914
0.00113609
0.00110585
0.00108824
0.00108049
0.00107771
0.00107687
0.0010767
0.00107686
0.00107767
0.0010804
0.0010881
0.00110572
0.00113625
0.00116995
0.00119833
0.00121644
0.00122154
0.00120954
0.0011705
0.00108316
0.00090392
0.000557722
0.000530798
0.000778855
0.000903846
0.000962321
0.000988477
0.000999275
0.001003
0.00100321
0.00100087
0.000995611
0.000986556
0.000973357
0.000957443
0.000942683
0.000933648
0.000929445
0.000927859
0.000927353
0.000927247
0.000927359
0.000927865
0.000929445
0.000933635
0.000942683
0.000957524
0.000973594
0.000986689
0.000994469
0.000995588
0.000987276
0.000962188
0.000904057
0.000779074
0.000530902
0.000484112
0.000530841
0.000557731
0.000569556
0.000574276
0.000576052
0.00057669
0.00057686
0.000576723
0.00057621
0.000575245
0.000573646
0.000571538
0.000569451
0.00056813
0.000567476
0.000567181
0.000567035
0.000566982
0.000567043
0.000567188
0.000567478
0.000568124
0.000569435
0.000571516
0.000573626
0.000575204
0.000576035
0.000575976
0.000574444
0.000569783
0.000557928
0.000530973
0.000484183
0.000691673
0.000870134
0.000972992
0.00102206
0.00104372
0.00105258
0.0010559
0.00105702
0.00105732
0.00105734
0.00105727
0.00105718
0.00105711
0.00105706
0.00105702
0.001057
0.00105698
0.00105696
0.00105696
0.00105697
0.00105699
0.00105701
0.00105704
0.00105709
0.00105713
0.00105711
0.00105684
0.00105577
0.00105251
0.00104369
0.00102206
0.000973003
0.000870151
0.000691693
0.00087014
0.0016301
0.00195281
0.00211222
0.00218853
0.00222266
0.00223663
0.00224166
0.002243
0.00224292
0.00224238
0.00224177
0.0022413
0.00224099
0.00224079
0.00224067
0.00224058
0.00224054
0.00224054
0.00224058
0.00224067
0.0022408
0.00224098
0.00224124
0.00224154
0.00224157
0.0022404
0.00223568
0.00222205
0.00218818
0.00211204
0.00195272
0.00163007
0.00087016
0.000973038
0.00195291
0.00237851
0.00259843
0.00270909
0.00276119
0.0027835
0.00279165
0.00279348
0.00279269
0.00279105
0.00278948
0.00278833
0.00278765
0.00278729
0.00278707
0.00278692
0.00278685
0.00278685
0.00278693
0.00278708
0.0027873
0.00278763
0.00278821
0.00278901
0.0027895
0.00278806
0.00278076
0.00275941
0.00270811
0.00259799
0.00237836
0.0019529
0.000973084
0.00102215
0.0021124
0.00259853
0.00285767
0.00299232
0.0030576
0.00308586
0.00309541
0.00309589
0.00309236
0.00308771
0.00308366
0.00308089
0.00307937
0.00307862
0.00307816
0.00307783
0.00307766
0.00307767
0.00307784
0.00307818
0.00307863
0.00307934
0.00308071
0.00308295
0.00308544
0.00308579
0.00307844
0.00305273
0.0029896
0.00285639
0.00259807
0.00211232
0.00102222
0.00104385
0.00218877
0.00270927
0.00299242
0.00314236
0.00321575
0.00324644
0.00325397
0.0032491
0.00323836
0.00322659
0.00321719
0.00321117
0.00320812
0.00320676
0.00320582
0.0032051
0.00320471
0.00320471
0.00320511
0.00320584
0.00320678
0.00320809
0.00321094
0.0032163
0.00322377
0.0032303
0.00322808
0.00320365
0.00313551
0.0029891
0.00270795
0.00218842
0.0010439
0.00105272
0.00222294
0.00276144
0.00305784
0.00321597
0.00329235
0.00332069
0.00332031
0.00330239
0.00327554
0.00324877
0.00322949
0.00321828
0.00321335
0.00321152
0.00320988
0.00320844
0.00320765
0.00320766
0.00320846
0.00320992
0.00321155
0.00321333
0.00321803
0.00322851
0.00324562
0.00326653
0.00327906
0.00326507
0.00320052
0.00305025
0.00275828
0.00222193
0.00105268
0.00105605
0.00223693
0.00278388
0.00308641
0.00324727
0.00332161
0.00334133
0.00332367
0.00327892
0.00321895
0.0031629
0.00312914
0.00311297
0.00310794
0.00310718
0.00310492
0.00310245
0.00310108
0.00310109
0.00310248
0.00310496
0.00310722
0.00310793
0.00311275
0.00312818
0.00315967
0.00320952
0.00325434
0.00326567
0.00321597
0.00307104
0.00277733
0.00223468
0.00105582
0.00105718
0.00224203
0.0027923
0.00309667
0.00325631
0.00332392
0.00332751
0.00327904
0.00318417
0.00305825
0.00294524
0.00290111
0.00289117
0.00289432
0.00289923
0.00289741
0.0028942
0.00289239
0.0028924
0.00289423
0.00289746
0.00289928
0.00289435
0.00289102
0.00290029
0.00294218
0.00304882
0.00315909
0.00321964
0.00319948
0.00306909
0.00278048
0.0022378
0.0010566
0.0010575
0.00224352
0.00279468
0.00309863
0.00325469
0.00331215
0.00329267
0.00319737
0.00301634
0.00275544
0.00251174
0.00250983
0.00255486
0.00258872
0.00260702
0.00260962
0.00260789
0.00260659
0.0026066
0.00260792
0.00260967
0.0026071
0.00258879
0.00255484
0.00250931
0.00250913
0.00274633
0.00299109
0.00313719
0.00316319
0.00305519
0.00277615
0.00223676
0.00105645
0.00105754
0.00224373
0.00279488
0.0030977
0.00324984
0.00329694
0.00325286
0.00310138
0.00279233
0.00223557
0.00141896
0.00189587
0.00214683
0.00224967
0.00228551
0.00230041
0.00230405
0.00230451
0.00230452
0.00230408
0.00230046
0.00228559
0.00224979
0.00214698
0.00189591
0.00141754
0.00222713
0.00276689
0.00304053
0.00312241
0.00303879
0.00276996
0.00223453
0.00105602
0.00105752
0.00224363
0.00279472
0.00309695
0.00324709
0.00328878
0.00323096
0.0030435
0.00262381
0.00148305
0.00120116
0.00182026
0.00198621
0.00203893
0.00205431
0.00205805
0.00205872
0.00205873
0.00205807
0.00205435
0.00203899
0.00198633
0.00182047
0.00120129
0.00147717
0.00259816
0.00298212
0.00309991
0.00302996
0.00276651
0.00223313
0.00105575
0.0010575
0.00224358
0.00279494
0.00309772
0.00324906
0.00329381
0.00324456
0.00308343
0.00275828
0.00217617
0.00135128
0.00173498
0.00196566
0.00206024
0.00209723
0.00210183
0.00210141
0.00210088
0.00210087
0.00210138
0.0021018
0.00209719
0.00206019
0.00196558
0.00173463
0.00134956
0.00216738
0.00273257
0.00302222
0.00311355
0.00303484
0.00276817
0.00223347
0.00105582
0.00105748
0.00224366
0.00279558
0.00309972
0.00325437
0.00330703
0.00327649
0.00315963
0.00294066
0.00261773
0.00228342
0.00217038
0.00212381
0.00211192
0.00211103
0.0021092
0.00210768
0.00210695
0.00210694
0.00210766
0.00210916
0.00211096
0.00211178
0.0021235
0.00216952
0.00228057
0.00260837
0.00291503
0.0030987
0.00314571
0.00304812
0.00277334
0.00223516
0.00105614
0.00105747
0.00224379
0.00279634
0.00310202
0.00326029
0.00332106
0.00330777
0.00322544
0.0030705
0.00284845
0.00259987
0.00239563
0.00223747
0.00216291
0.00213634
0.0021276
0.00212472
0.00212383
0.00212382
0.00212469
0.00212756
0.00213625
0.00216274
0.0022371
0.00239465
0.00259674
0.00283883
0.0030448
0.00316458
0.00317707
0.00306214
0.0027791
0.00223715
0.0010565
0.00105746
0.00224391
0.00279698
0.00310391
0.00326502
0.00333179
0.00333017
0.00326843
0.00314526
0.0029618
0.00273546
0.00250264
0.00230062
0.00219658
0.0021566
0.00214354
0.00213969
0.00213868
0.00213868
0.00213967
0.00214351
0.00215652
0.0021964
0.00230024
0.00250164
0.00273223
0.00295203
0.00311943
0.00320747
0.00319938
0.00307274
0.00278362
0.00223873
0.00105675
0.00105744
0.00224398
0.00279741
0.00310518
0.00326809
0.00333848
0.00334343
0.00329216
0.00318312
0.00301384
0.00279312
0.00254929
0.00233007
0.00221352
0.00216751
0.00215237
0.002148
0.00214693
0.00214692
0.00214799
0.00215234
0.00216744
0.00221335
0.0023297
0.00254833
0.00278984
0.00300397
0.00315716
0.00323107
0.00321248
0.00307925
0.00278647
0.00223973
0.00105688
0.00105741
0.00224402
0.00279765
0.00310588
0.00326976
0.00334202
0.00335014
0.00330357
0.00320021
0.00303579
0.00281613
0.00256782
0.00234201
0.00222059
0.00217217
0.00215616
0.00215157
0.00215046
0.00215046
0.00215156
0.00215613
0.0021721
0.00222041
0.00234164
0.00256684
0.00281282
0.00302586
0.00317415
0.00324236
0.00321905
0.00308263
0.00278797
0.00224025
0.00105693
0.00105739
0.00224403
0.00279776
0.00310619
0.00327048
0.00334349
0.00335284
0.00330798
0.00320654
0.00304356
0.00282396
0.00257402
0.00234602
0.00222297
0.00217374
0.00215743
0.00215276
0.00215163
0.00215162
0.00215274
0.0021574
0.00217367
0.00222279
0.00234564
0.00257304
0.00282063
0.0030336
0.00318044
0.00324671
0.00322168
0.00308401
0.0027886
0.00224046
0.00105693
0.00105737
0.00224403
0.00279777
0.00310621
0.00327051
0.00334353
0.0033529
0.00330806
0.00320664
0.00304367
0.00282408
0.00257414
0.00234613
0.00222304
0.00217378
0.00215746
0.00215277
0.00215164
0.00215163
0.00215276
0.00215742
0.00217371
0.00222287
0.00234576
0.00257316
0.00282076
0.00303372
0.00318055
0.0032468
0.00322174
0.00308405
0.00278862
0.00224046
0.00105691
0.00105737
0.00224401
0.00279768
0.00310594
0.00326986
0.00334216
0.00335033
0.00330381
0.00320052
0.00303615
0.00281652
0.00256821
0.00234239
0.00222085
0.00217233
0.00215627
0.00215165
0.00215053
0.00215052
0.00215164
0.00215624
0.00217226
0.00222068
0.00234204
0.00256725
0.00281324
0.00302625
0.00317449
0.00324262
0.00321924
0.00308275
0.00278804
0.00224026
0.00105688
0.00105739
0.00224398
0.00279745
0.00310527
0.00326825
0.00333872
0.00334375
0.00329259
0.00318368
0.00301452
0.00279388
0.00255006
0.00233083
0.00221407
0.00216789
0.00215266
0.00214827
0.00214718
0.00214717
0.00214826
0.00215265
0.00216784
0.00221393
0.00233051
0.00254914
0.00279065
0.00300471
0.00315776
0.00323152
0.0032128
0.00307945
0.00278658
0.00223975
0.00105682
0.00105741
0.0022439
0.00279703
0.00310404
0.00326523
0.00333211
0.00333062
0.00326905
0.00314611
0.0029629
0.00273677
0.00250398
0.00230191
0.00219753
0.00215731
0.00214416
0.00214028
0.00213927
0.00213928
0.00214029
0.00214417
0.00215729
0.00219744
0.00230165
0.00250315
0.00273367
0.00295324
0.00312035
0.00320813
0.00319982
0.00307302
0.00278377
0.00223875
0.00105668
0.00105742
0.00224377
0.00279638
0.00310213
0.0032605
0.0033214
0.00330829
0.00322622
0.00307166
0.00285013
0.00260205
0.00239795
0.00223932
0.00216415
0.00213722
0.00212837
0.00212548
0.00212461
0.00212462
0.00212551
0.0021284
0.00213724
0.0021641
0.00223914
0.00239726
0.00259917
0.00284068
0.00304601
0.00316533
0.00317753
0.00306243
0.00277924
0.00223716
0.00105642
0.00105742
0.00224358
0.00279553
0.00309971
0.00325442
0.00330719
0.00327685
0.00316031
0.00294194
0.00262
0.00228675
0.00217349
0.00212508
0.00211186
0.00211032
0.00210827
0.00210675
0.00210605
0.00210606
0.00210678
0.0021083
0.00211027
0.00211168
0.0021248
0.00217302
0.0022843
0.00261081
0.00291611
0.00309908
0.00314584
0.00304818
0.00277335
0.0022351
0.00105606
0.0010574
0.00224332
0.00279455
0.0030972
0.00324846
0.0032932
0.00324402
0.00308313
0.0027587
0.00217847
0.00135386
0.00173534
0.0019603
0.00205155
0.00208665
0.00209057
0.00209005
0.00208955
0.00208955
0.00209001
0.00209036
0.002086
0.00205018
0.00195846
0.00173455
0.0013523
0.00216948
0.00273171
0.00302074
0.00311232
0.00303403
0.00276767
0.00223316
0.00105569
0.00105732
0.00224279
0.00279324
0.00309486
0.00324449
0.00328576
0.00322755
0.00303964
0.00261968
0.0014798
0.00118328
0.00178423
0.00193928
0.00198468
0.00199779
0.00200116
0.00200182
0.00200173
0.00200072
0.00199647
0.00198128
0.0019322
0.00177314
0.00117459
0.00146971
0.00258877
0.00297466
0.00309479
0.00302669
0.00276456
0.00223207
0.00105549
0.001057
0.00224115
0.00279031
0.00309127
0.00324186
0.00328762
0.00324202
0.0030882
0.00277521
0.00221219
0.00138944
0.00181461
0.00203186
0.00210104
0.00211472
0.00212387
0.00212714
0.00212786
0.00212761
0.00212597
0.00212019
0.00210471
0.00207841
0.00199232
0.00177031
0.00136364
0.00218022
0.00273405
0.00301868
0.00310817
0.0030296
0.00276428
0.00223149
0.00105538
0.0010559
0.00223613
0.00278199
0.00308125
0.00323353
0.00328782
0.00326477
0.00316354
0.00297093
0.00268707
0.00240017
0.00233167
0.00229894
0.00225274
0.00222309
0.00221314
0.00221031
0.00220948
0.00220904
0.0022082
0.0022061
0.00220278
0.0022036
0.00220856
0.00223201
0.00231636
0.00262339
0.0029139
0.00308776
0.00313039
0.00303293
0.00276157
0.00222862
0.00105472
0.00105262
0.00222233
0.00276006
0.003054
0.00320566
0.00326707
0.00326431
0.00320586
0.00309157
0.00292774
0.00274721
0.00260069
0.00245982
0.00232803
0.0022602
0.0022348
0.0022268
0.00222455
0.00222396
0.00222393
0.00222491
0.00223033
0.00225164
0.00231344
0.00244847
0.00262281
0.00283783
0.00302107
0.0031259
0.00313231
0.0030197
0.00274572
0.00221715
0.00105188
0.0010438
0.00218837
0.00270848
0.00299014
0.00313594
0.0031996
0.00321001
0.00317961
0.00311132
0.00300663
0.00287281
0.00272141
0.00255481
0.00239881
0.00231722
0.00228538
0.00227491
0.00227187
0.0022712
0.00227162
0.00227416
0.00228369
0.00231416
0.00239505
0.00255578
0.00273758
0.00290953
0.00303835
0.00310236
0.00308648
0.00296754
0.00269928
0.00218514
0.00104342
0.00102215
0.00211217
0.00259822
0.00285666
0.00298906
0.00304875
0.00306496
0.00305121
0.00301106
0.00294343
0.00284735
0.00272539
0.00258711
0.00246109
0.00239018
0.00236009
0.0023494
0.00234607
0.00234534
0.002346
0.00234918
0.00235958
0.00238938
0.00246061
0.0025892
0.00273332
0.00286039
0.00294861
0.00298524
0.00295792
0.00284298
0.00259289
0.00211037
0.001022
0.000973072
0.0019528
0.00237851
0.00259824
0.00270792
0.00275726
0.00277323
0.00276844
0.00274643
0.0027058
0.002644
0.00256154
0.00246708
0.00238183
0.00233076
0.00230743
0.00229854
0.00229561
0.00229496
0.00229563
0.00229855
0.0023074
0.00233072
0.00238208
0.00246843
0.00256481
0.00264759
0.00270217
0.00272002
0.00269049
0.00259099
0.00237585
0.00195193
0.000973059
0.000870196
0.00163009
0.00195298
0.00211245
0.0021885
0.0022216
0.00223288
0.002232
0.00222176
0.00220117
0.00216815
0.00212246
0.00206936
0.00202115
0.00199113
0.00197676
0.00197103
0.00196907
0.00196863
0.00196913
0.00197114
0.00197691
0.00199133
0.00202152
0.00207014
0.0021238
0.00216891
0.00219727
0.00220385
0.0021807
0.00210945
0.00195198
0.00162975
0.000870242
0.000691725
0.000870195
0.00097315
0.00102233
0.00104406
0.00105284
0.00105581
0.00105595
0.00105407
0.00104988
0.00104268
0.00103214
0.00101937
0.00100754
0.00100023
0.00099677
0.000995395
0.000994914
0.000994803
0.000994929
0.000995421
0.0009968
0.00100026
0.00100759
0.00101948
0.00103234
0.00104276
0.00104893
0.00104979
0.00104295
0.00102205
0.000973146
0.000870236
0.000691796
0.000754598
0.00101882
0.00117413
0.00125137
0.00128732
0.00130287
0.00130903
0.0013112
0.00131179
0.00131178
0.00131158
0.00131135
0.00131116
0.00131104
0.00131096
0.0013109
0.00131087
0.00131085
0.00131085
0.00131086
0.0013109
0.00131095
0.00131103
0.00131113
0.00131125
0.00131124
0.00131073
0.00130868
0.00130264
0.00128719
0.0012513
0.00117411
0.00101881
0.000754618
0.00101881
0.00201566
0.00243898
0.00265585
0.0027642
0.00281488
0.00283657
0.00284469
0.00284689
0.00284666
0.0028456
0.00284443
0.00284348
0.00284283
0.00284243
0.00284216
0.00284199
0.0028419
0.0028419
0.00284199
0.00284216
0.00284242
0.00284279
0.00284333
0.00284395
0.00284409
0.00284221
0.00283466
0.00281359
0.0027634
0.0026554
0.00243872
0.00201552
0.00101881
0.00117418
0.00243911
0.00298284
0.00327221
0.00342333
0.00349732
0.00353024
0.00354264
0.00354537
0.0035439
0.00354097
0.00353806
0.00353585
0.00353446
0.00353366
0.00353318
0.00353286
0.00353271
0.00353271
0.00353287
0.00353318
0.00353365
0.00353439
0.00353558
0.00353717
0.00353825
0.0035362
0.00352525
0.00349396
0.00342136
0.00327119
0.00298238
0.00243893
0.00117418
0.00125146
0.00265609
0.00327233
0.0036091
0.00379005
0.0038809
0.00392155
0.00393557
0.00393608
0.00393031
0.00392257
0.00391555
0.00391048
0.00390749
0.00390591
0.00390493
0.00390428
0.00390395
0.00390395
0.00390429
0.00390494
0.0039059
0.0039074
0.00391009
0.00391425
0.0039187
0.00391968
0.00390914
0.00387252
0.00378512
0.00360658
0.00327123
0.00265571
0.00125146
0.00128746
0.00276452
0.00342358
0.0037902
0.00399045
0.00409161
0.00413512
0.00414591
0.00413851
0.00412207
0.0041035
0.00408782
0.0040771
0.00407123
0.00406834
0.00406644
0.0040651
0.0040644
0.00406441
0.00406511
0.00406646
0.00406833
0.00407111
0.00407663
0.00408621
0.00409874
0.00410915
0.00410634
0.00407217
0.00397898
0.00378427
0.00342093
0.00276356
0.00128737
0.00130304
0.00281527
0.00349771
0.00388131
0.004092
0.00419673
0.00423654
0.00423604
0.00421026
0.00417103
0.00413045
0.00409865
0.00407837
0.00406838
0.00406409
0.00406075
0.00405814
0.00405678
0.00405679
0.00405816
0.00406077
0.00406409
0.00406827
0.00407786
0.00409687
0.00412512
0.00415658
0.00417457
0.00415516
0.00406756
0.00386861
0.00349193
0.00281308
0.00130272
0.00130923
0.00283705
0.00353089
0.00392254
0.00413659
0.00423815
0.00426584
0.00424168
0.00417965
0.00409553
0.00401324
0.00395588
0.00392318
0.0039099
0.00390585
0.00390065
0.00389607
0.0038937
0.00389371
0.00389609
0.00390068
0.00390587
0.00390981
0.0039227
0.00395411
0.00400771
0.00408029
0.00414187
0.00415648
0.0040892
0.00389803
0.00351963
0.00283264
0.00130845
0.00131144
0.00284534
0.00354384
0.00393787
0.00415
0.00424213
0.00424797
0.0041831
0.00405604
0.00388647
0.00372616
0.00364023
0.00360293
0.00359451
0.0035963
0.00358988
0.00358324
0.00357991
0.00357992
0.00358327
0.00358991
0.00359633
0.00359447
0.00360255
0.00363864
0.0037208
0.00387099
0.00401711
0.00409536
0.00406695
0.00389548
0.00352435
0.00283755
0.0013099
0.00131208
0.00284789
0.00354765
0.00394098
0.00414804
0.00422633
0.0042018
0.00407711
0.00384254
0.00350571
0.00317426
0.00310993
0.00312351
0.00314612
0.00316107
0.00316083
0.00315623
0.00315355
0.00315355
0.00315625
0.00316087
0.00316112
0.00314613
0.00312332
0.0031088
0.00316949
0.00349035
0.00380281
0.0039876
0.00401804
0.00387603
0.00351797
0.00283589
0.00130956
0.00131218
0.0028483
0.003548
0.00393968
0.00414122
0.00420562
0.00414942
0.00395512
0.00356579
0.00286797
0.00178089
0.00228845
0.00256246
0.00266366
0.00267602
0.00271401
0.00272297
0.00272388
0.00272389
0.002723
0.00271406
0.00267609
0.00266376
0.00256256
0.00228825
0.00177799
0.00285305
0.00352508
0.00386396
0.00396367
0.00385309
0.0035088
0.00283233
0.00130871
0.00131214
0.00284816