/*--------------------------------*- C++ -*----------------------------------*\
| =========                 |                                                 |
| \\      /  F ield         | OpenFOAM: The Open Source CFD Toolbox           |
|  \\    /   O peration     | Version:  2112                                  |
|   \\  /    A nd           | Website:  www.openfoam.com                      |
|    \\/     M anipulation  |                                                 |
\*---------------------------------------------------------------------------*/
FoamFile
{
    version     2.0;
    format      ascii;
    arch        "LSB;label=32;scalar=64";
    class       volScalarField;
    location    "2.8";
    object      nut;
}
// * * * * * * * * * * * * * * * * * * * * * * * * * * * * * * * * * * * * * //

dimensions      [0 2 -1 0 0 0 0];

internalField   nonuniform List<scalar> 
64906
(
5.44511e-05
5.71189e-05
5.8619e-05
5.92785e-05
5.95436e-05
5.9643e-05
5.96777e-05
5.96891e-05
5.96924e-05
5.9693e-05
5.96931e-05
5.96928e-05
5.96924e-05
5.96919e-05
5.96914e-05
5.96907e-05
5.969e-05
5.96894e-05
5.9689e-05
5.96894e-05
5.96901e-05
5.96907e-05
5.96912e-05
5.96916e-05
5.96917e-05
5.96911e-05
5.9688e-05
5.96773e-05
5.96431e-05
5.95442e-05
5.92792e-05
5.86203e-05
5.71202e-05
5.44522e-05
5.71202e-05
6.93987e-05
7.48941e-05
7.73771e-05
7.84892e-05
7.89616e-05
7.91473e-05
7.92132e-05
7.92323e-05
7.92343e-05
7.92308e-05
7.92268e-05
7.92241e-05
7.92228e-05
7.92224e-05
7.92222e-05
7.92221e-05
7.9222e-05
7.9222e-05
7.92222e-05
7.92223e-05
7.92225e-05
7.92228e-05
7.92236e-05
7.92244e-05
7.92219e-05
7.92045e-05
7.91419e-05
7.89596e-05
7.84899e-05
7.73795e-05
7.48972e-05
6.94019e-05
5.71229e-05
5.86227e-05
7.48962e-05
8.21495e-05
8.5557e-05
8.71668e-05
8.78918e-05
8.81927e-05
8.83016e-05
8.83285e-05
8.83229e-05
8.83077e-05
8.82937e-05
8.82847e-05
8.8281e-05
8.82803e-05
8.82803e-05
8.82803e-05
8.82803e-05
8.82804e-05
8.82806e-05
8.82808e-05
8.82808e-05
8.82814e-05
8.8284e-05
8.8289e-05
8.82901e-05
8.82669e-05
8.81678e-05
8.78779e-05
8.71619e-05
8.5558e-05
8.21535e-05
7.49013e-05
5.8627e-05
5.92837e-05
7.73812e-05
8.55592e-05
8.95158e-05
9.14498e-05
9.23502e-05
9.27299e-05
9.2858e-05
9.28689e-05
9.28297e-05
9.27778e-05
9.2735e-05
9.27081e-05
9.26961e-05
9.26924e-05
9.26906e-05
9.2689e-05
9.26881e-05
9.26883e-05
9.26894e-05
9.26912e-05
9.26931e-05
9.26965e-05
9.27068e-05
9.27277e-05
9.27517e-05
9.275e-05
9.26486e-05
9.23e-05
9.14253e-05
8.95083e-05
8.55608e-05
7.73869e-05
5.92893e-05
5.95498e-05
7.84946e-05
8.71706e-05
9.14516e-05
9.3587e-05
9.45935e-05
9.50054e-05
9.51079e-05
9.505e-05
9.49175e-05
9.47742e-05
9.46656e-05
9.46004e-05
9.45724e-05
9.45636e-05
9.45571e-05
9.45511e-05
9.45478e-05
9.45479e-05
9.45516e-05
9.45579e-05
9.45645e-05
9.45729e-05
9.45987e-05
9.46563e-05
9.47416e-05
9.48196e-05
9.47853e-05
9.44535e-05
9.35128e-05
9.14207e-05
8.71634e-05
7.84984e-05
5.95563e-05
5.96496e-05
7.89675e-05
8.78967e-05
9.23538e-05
9.45961e-05
9.56417e-05
9.6023e-05
9.60213e-05
9.57886e-05
9.54382e-05
9.50931e-05
9.48595e-05
9.47323e-05
9.4686e-05
9.4676e-05
9.4662e-05
9.46469e-05
9.46384e-05
9.46386e-05
9.46475e-05
9.4663e-05
9.46772e-05
9.46868e-05
9.47307e-05
9.48494e-05
9.50567e-05
9.5329e-05
9.54957e-05
9.53055e-05
9.44137e-05
9.22709e-05
8.78685e-05
7.89649e-05
5.96564e-05
5.96845e-05
7.91534e-05
8.81987e-05
9.27367e-05
9.50147e-05
9.60336e-05
9.63e-05
9.60632e-05
9.54567e-05
9.46351e-05
9.38719e-05
9.34604e-05
9.32833e-05
9.32496e-05
9.32639e-05
9.32425e-05
9.32133e-05
9.31971e-05
9.31973e-05
9.32141e-05
9.32437e-05
9.32654e-05
9.32509e-05
9.32822e-05
9.34507e-05
9.38347e-05
9.45212e-05
9.51489e-05
9.53133e-05
9.46257e-05
9.25555e-05
8.81298e-05
7.91373e-05
5.96904e-05
5.96956e-05
7.92195e-05
8.83099e-05
9.28723e-05
9.51344e-05
9.60637e-05
9.61097e-05
9.54387e-05
9.40993e-05
9.22714e-05
9.06091e-05
9.01461e-05
9.01222e-05
9.02389e-05
9.03518e-05
9.03361e-05
9.02951e-05
9.02726e-05
9.02729e-05
9.0296e-05
9.03375e-05
9.03538e-05
9.02408e-05
9.01223e-05
9.01386e-05
9.05742e-05
9.21578e-05
9.37855e-05
9.46714e-05
9.44018e-05
9.2532e-05
8.8175e-05
7.91807e-05
5.96993e-05
5.96984e-05
7.92394e-05
8.8342e-05
9.28994e-05
9.51146e-05
9.59061e-05
9.56277e-05
9.42678e-05
9.15826e-05
8.74713e-05
8.34118e-05
8.4071e-05
8.51083e-05
8.57649e-05
8.61119e-05
8.61527e-05
8.61295e-05
8.61139e-05
8.61142e-05
8.61306e-05
8.61544e-05
8.61143e-05
8.57677e-05
8.51104e-05
8.40679e-05
8.33832e-05
8.73628e-05
9.12669e-05
9.34902e-05
9.39008e-05
9.23471e-05
8.81209e-05
7.91704e-05
5.96984e-05
5.96983e-05
7.92433e-05
8.83465e-05
9.289e-05
9.50534e-05
9.57021e-05
9.50664e-05
9.28332e-05
8.79566e-05
7.82987e-05
6.56767e-05
7.36615e-05
7.86372e-05
8.05502e-05
8.12367e-05
8.14313e-05
8.14769e-05
8.14849e-05
8.14853e-05
8.14779e-05
8.14331e-05
8.12393e-05
8.05539e-05
7.86423e-05
7.3667e-05
6.56638e-05
7.82031e-05
8.76392e-05
9.2046e-05
9.33255e-05
9.21266e-05
8.80422e-05
7.91451e-05
5.96938e-05
5.96975e-05
7.92434e-05
8.83469e-05
9.2884e-05
9.50223e-05
9.55968e-05
9.47567e-05
9.19176e-05
8.49022e-05
6.64368e-05
6.29954e-05
7.33935e-05
7.65365e-05
7.74505e-05
7.7729e-05
7.78024e-05
7.7818e-05
7.78182e-05
7.7803e-05
7.77301e-05
7.74524e-05
7.65398e-05
7.33992e-05
6.3e-05
6.63821e-05
8.45864e-05
9.11235e-05
9.30073e-05
9.20121e-05
8.80015e-05
7.91306e-05
5.96904e-05
5.96969e-05
7.92439e-05
8.83524e-05
9.28987e-05
9.50571e-05
9.56826e-05
9.49897e-05
9.26394e-05
8.75552e-05
7.7557e-05
6.49306e-05
7.12354e-05
7.57527e-05
7.74305e-05
7.79236e-05
7.8148e-05
7.82016e-05
7.8207e-05
7.82069e-05
7.82013e-05
7.81476e-05
7.7923e-05
7.74301e-05
7.57523e-05
7.12305e-05
6.49104e-05
7.7451e-05
8.72317e-05
9.18462e-05
9.32409e-05
9.20963e-05
8.80322e-05
7.91386e-05
5.96906e-05
5.96962e-05
7.92456e-05
8.83628e-05
9.2929e-05
9.51351e-05
9.58775e-05
9.54718e-05
9.38444e-05
9.06584e-05
8.56837e-05
8.03516e-05
7.92126e-05
7.88327e-05
7.87605e-05
7.87421e-05
7.87598e-05
7.87555e-05
7.87481e-05
7.87479e-05
7.87548e-05
7.87586e-05
7.87401e-05
7.87573e-05
7.88269e-05
7.9199e-05
8.03121e-05
8.55667e-05
9.03352e-05
9.3056e-05
9.37279e-05
9.22935e-05
8.81089e-05
7.91631e-05
5.96925e-05
5.96953e-05
7.92475e-05
8.83742e-05
9.2962e-05
9.52188e-05
9.60774e-05
9.59263e-05
9.48329e-05
9.27037e-05
8.95523e-05
8.5945e-05
8.30494e-05
8.08038e-05
7.97507e-05
7.93635e-05
7.92374e-05
7.91925e-05
7.91766e-05
7.91763e-05
7.91915e-05
7.92356e-05
7.93607e-05
7.97463e-05
8.07965e-05
8.30349e-05
8.59028e-05
8.94322e-05
9.23803e-05
9.40467e-05
9.41849e-05
9.24943e-05
8.81907e-05
7.91898e-05
5.96943e-05
5.96941e-05
7.9249e-05
8.83835e-05
9.29885e-05
9.52843e-05
9.62264e-05
9.62422e-05
9.5454e-05
9.38187e-05
9.13076e-05
8.81168e-05
8.474e-05
8.18081e-05
8.03079e-05
7.9722e-05
7.9521e-05
7.94537e-05
7.94318e-05
7.94314e-05
7.94523e-05
7.95188e-05
7.97189e-05
8.03031e-05
8.18004e-05
8.47251e-05
8.80739e-05
9.1186e-05
9.34942e-05
9.46675e-05
9.45006e-05
9.26422e-05
8.82531e-05
7.92103e-05
5.96947e-05
5.96928e-05
7.92496e-05
8.83897e-05
9.30061e-05
9.53262e-05
9.63178e-05
9.64253e-05
9.57878e-05
9.43631e-05
9.20751e-05
8.8986e-05
8.54474e-05
8.22519e-05
8.05673e-05
7.98923e-05
7.9657e-05
7.9578e-05
7.95517e-05
7.9551e-05
7.95763e-05
7.96545e-05
7.98889e-05
8.05623e-05
8.22441e-05
8.54298e-05
8.89427e-05
9.19524e-05
9.40372e-05
9.49998e-05
9.46821e-05
9.27314e-05
8.82917e-05
7.92226e-05
5.9694e-05
5.96914e-05
7.92497e-05
8.83932e-05
9.3016e-05
9.5349e-05
9.63656e-05
9.65167e-05
9.59451e-05
9.46027e-05
9.23887e-05
8.93208e-05
8.57213e-05
8.24257e-05
8.06709e-05
7.99606e-05
7.9711e-05
7.96261e-05
7.95961e-05
7.95951e-05
7.96239e-05
7.97083e-05
7.9957e-05
8.06658e-05
8.24179e-05
8.57036e-05
8.92773e-05
9.22653e-05
9.42758e-05
9.51558e-05
9.47719e-05
9.27773e-05
8.83121e-05
7.92286e-05
5.96924e-05
5.969e-05
7.92495e-05
8.83949e-05
9.30205e-05
9.53591e-05
9.63857e-05
9.65535e-05
9.60057e-05
9.46908e-05
9.24983e-05
8.94331e-05
8.58122e-05
8.24834e-05
8.07053e-05
7.9983e-05
7.9728e-05
7.96401e-05
7.96073e-05
7.96061e-05
7.96377e-05
7.97251e-05
7.99792e-05
8.07001e-05
8.24755e-05
8.57945e-05
8.93896e-05
9.23747e-05
9.43634e-05
9.52158e-05
9.48079e-05
9.27963e-05
8.83206e-05
7.92308e-05
5.96905e-05
5.96889e-05
7.92492e-05
8.83952e-05
9.30211e-05
9.53599e-05
9.63869e-05
9.65551e-05
9.60078e-05
9.46935e-05
9.25015e-05
8.94368e-05
8.58159e-05
8.24861e-05
8.0707e-05
7.99836e-05
7.97278e-05
7.96389e-05
7.96044e-05
7.96029e-05
7.96362e-05
7.97247e-05
7.99798e-05
8.07017e-05
8.24782e-05
8.57984e-05
8.93935e-05
9.23782e-05
9.43663e-05
9.52181e-05
9.48097e-05
9.27976e-05
8.83214e-05
7.92307e-05
5.96888e-05
5.96888e-05
7.92491e-05
8.83942e-05
9.30178e-05
9.53517e-05
9.63694e-05
9.65217e-05
9.59516e-05
9.46111e-05
9.23987e-05
8.93323e-05
8.57331e-05
8.24343e-05
8.06763e-05
7.9963e-05
7.97108e-05
7.96228e-05
7.95884e-05
7.95868e-05
7.96199e-05
7.97076e-05
7.99591e-05
8.06711e-05
8.24266e-05
8.5716e-05
8.92896e-05
9.22763e-05
9.42849e-05
9.5163e-05
9.47773e-05
9.27811e-05
8.83143e-05
7.92284e-05
5.96884e-05
5.96898e-05
7.9249e-05
8.83913e-05
9.30091e-05
9.53307e-05
9.6324e-05
9.64338e-05
9.57991e-05
9.43778e-05
9.20933e-05
8.90074e-05
8.54699e-05
8.2268e-05
8.05777e-05
7.98976e-05
7.96579e-05
7.95741e-05
7.95423e-05
7.95408e-05
7.95713e-05
7.96547e-05
7.98939e-05
8.05728e-05
8.22609e-05
8.54539e-05
8.8966e-05
9.19725e-05
9.40534e-05
9.50123e-05
9.46913e-05
9.27379e-05
8.82956e-05
7.92228e-05
5.96895e-05
5.96911e-05
7.92486e-05
8.83857e-05
9.29927e-05
9.52905e-05
9.62351e-05
9.62543e-05
9.54705e-05
9.3841e-05
9.13367e-05
8.81526e-05
8.47758e-05
8.18345e-05
8.03251e-05
7.97315e-05
7.95243e-05
7.9451e-05
7.9424e-05
7.94228e-05
7.94485e-05
7.95213e-05
7.97281e-05
8.03208e-05
8.18284e-05
8.4762e-05
8.81135e-05
9.12185e-05
9.3519e-05
9.46858e-05
9.45138e-05
9.26513e-05
8.82586e-05
7.92112e-05
5.96902e-05
5.96922e-05
7.92474e-05
8.83769e-05
9.29669e-05
9.52263e-05
9.6088e-05
9.59414e-05
9.48544e-05
9.27348e-05
8.95967e-05
8.60029e-05
8.3101e-05
8.08411e-05
7.97724e-05
7.93741e-05
7.92399e-05
7.91889e-05
7.9169e-05
7.91682e-05
7.91869e-05
7.92373e-05
7.9371e-05
7.97689e-05
8.08368e-05
8.30921e-05
8.5968e-05
8.94825e-05
9.24149e-05
9.40702e-05
9.42011e-05
9.25054e-05
8.81975e-05
7.91915e-05
5.96898e-05
5.96931e-05
7.92454e-05
8.83651e-05
9.29333e-05
9.51419e-05
9.58878e-05
9.54873e-05
9.38682e-05
9.06969e-05
8.57463e-05
8.04438e-05
7.92905e-05
7.88646e-05
7.87633e-05
7.87281e-05
7.87352e-05
7.8725e-05
7.87147e-05
7.87141e-05
7.87233e-05
7.87325e-05
7.87241e-05
7.87582e-05
7.88602e-05
7.92876e-05
8.04172e-05
8.56383e-05
9.03761e-05
9.30796e-05
9.37431e-05
9.23041e-05
8.81157e-05
7.9165e-05
5.96882e-05
5.96937e-05
7.92422e-05
8.83514e-05
9.28981e-05
9.50575e-05
9.56855e-05
9.4997e-05
9.26557e-05
8.75912e-05
7.76363e-05
6.49929e-05
7.12673e-05
7.5678e-05
7.73025e-05
7.77622e-05
7.79703e-05
7.80173e-05
7.80201e-05
7.80194e-05
7.80147e-05
7.79641e-05
7.77492e-05
7.72806e-05
7.56531e-05
7.12638e-05
6.4976e-05
7.75403e-05
8.72591e-05
9.18525e-05
9.32431e-05
9.20988e-05
8.80347e-05
7.91388e-05
5.96863e-05
5.96936e-05
7.92356e-05
8.83336e-05
9.28654e-05
9.49998e-05
9.55721e-05
9.47302e-05
9.18886e-05
8.48751e-05
6.64224e-05
6.27511e-05
7.28725e-05
7.58623e-05
7.66708e-05
7.6909e-05
7.69701e-05
7.69812e-05
7.6979e-05
7.69613e-05
7.68862e-05
7.66177e-05
7.5758e-05
7.27135e-05
6.26318e-05
6.63221e-05
8.44987e-05
9.10534e-05
9.2963e-05
9.19868e-05
8.79883e-05
7.91237e-05
5.96853e-05
5.96914e-05
7.92152e-05
8.82955e-05
9.28184e-05
9.49659e-05
9.56023e-05
9.49533e-05
9.26981e-05
8.77839e-05
7.80746e-05
6.54233e-05
7.25909e-05
7.70435e-05
7.84409e-05
7.87864e-05
7.88847e-05
7.89138e-05
7.89193e-05
7.8915e-05
7.88947e-05
7.88278e-05
7.8635e-05
7.81095e-05
7.64627e-05
7.1978e-05
6.51304e-05
7.76927e-05
8.72714e-05
9.1806e-05
9.31741e-05
9.20317e-05
8.79854e-05
7.91163e-05
5.96849e-05
5.96813e-05
7.9151e-05
8.81868e-05
9.26876e-05
9.48595e-05
9.56166e-05
9.53e-05
9.3872e-05
9.10446e-05
8.66392e-05
8.2013e-05
8.16768e-05
8.15561e-05
8.09837e-05
8.06033e-05
8.04503e-05
8.04011e-05
8.03859e-05
8.03791e-05
8.03693e-05
8.03474e-05
8.03086e-05
8.02669e-05
8.02068e-05
8.02344e-05
8.08628e-05
8.57922e-05
9.0311e-05
9.28965e-05
9.35153e-05
9.20878e-05
8.79521e-05
7.90795e-05
5.96788e-05
5.96476e-05
7.89683e-05
8.78921e-05
9.23231e-05
9.44886e-05
9.53458e-05
9.53194e-05
9.45286e-05
9.29413e-05
9.0606e-05
8.80054e-05
8.60525e-05
8.40713e-05
8.21472e-05
8.1181e-05
8.08178e-05
8.07022e-05
8.06692e-05
8.06607e-05
8.06608e-05
8.06764e-05
8.07536e-05
8.10426e-05
8.18963e-05
8.38072e-05
8.62361e-05
8.93769e-05
9.20179e-05
9.34951e-05
9.3565e-05
9.19144e-05
8.77375e-05
7.89258e-05
5.96488e-05
5.95489e-05
7.84987e-05
8.71741e-05
9.14416e-05
9.35313e-05
9.44212e-05
9.4578e-05
9.41863e-05
9.32773e-05
9.18541e-05
9.00069e-05
8.78976e-05
8.54846e-05
8.31872e-05
8.20218e-05
8.15742e-05
8.14286e-05
8.13871e-05
8.13778e-05
8.13831e-05
8.14174e-05
8.15484e-05
8.19722e-05
8.31182e-05
8.54597e-05
8.8081e-05
9.05229e-05
9.23178e-05
9.31861e-05
9.2932e-05
9.11873e-05
8.70854e-05
7.84795e-05
5.95528e-05
5.92838e-05
7.73881e-05
8.55694e-05
8.95224e-05
9.1435e-05
9.22734e-05
9.25093e-05
9.23463e-05
9.18318e-05
9.09401e-05
8.96419e-05
8.79522e-05
8.59758e-05
8.4128e-05
8.31085e-05
8.26869e-05
8.25409e-05
8.24987e-05
8.24899e-05
8.24966e-05
8.25367e-05
8.2678e-05
8.30917e-05
8.4109e-05
8.59865e-05
8.80421e-05
8.9815e-05
9.10173e-05
9.1494e-05
9.10767e-05
8.93822e-05
8.55283e-05
7.73848e-05
5.92896e-05
5.86243e-05
7.4905e-05
8.21642e-05
8.55744e-05
8.71786e-05
8.78779e-05
8.81097e-05
8.80661e-05
8.77977e-05
8.72794e-05
8.64648e-05
8.53448e-05
8.40261e-05
8.28117e-05
8.2095e-05
8.1775e-05
8.16587e-05
8.16232e-05
8.16157e-05
8.16225e-05
8.1657e-05
8.17715e-05
8.20894e-05
8.28076e-05
8.40342e-05
8.53783e-05
8.65076e-05
8.72314e-05
8.74451e-05
8.69962e-05
8.55141e-05
8.21547e-05
7.49113e-05
5.86307e-05
5.71233e-05
6.94078e-05
7.49097e-05
7.73984e-05
7.85133e-05
7.89806e-05
7.91433e-05
7.9149e-05
7.90382e-05
7.87959e-05
7.83856e-05
7.7795e-05
7.70879e-05
7.64324e-05
7.60276e-05
7.58373e-05
7.57646e-05
7.57411e-05
7.57361e-05
7.57413e-05
7.57648e-05
7.58373e-05
7.60271e-05
7.64327e-05
7.70922e-05
7.78061e-05
7.83908e-05
7.87424e-05
7.88006e-05
7.84498e-05
7.73871e-05
7.49169e-05
6.94176e-05
5.71292e-05
5.44541e-05
5.71259e-05
5.86317e-05
5.92965e-05
5.95669e-05
5.96709e-05
5.97085e-05
5.97178e-05
5.97079e-05
5.96747e-05
5.96144e-05
5.95172e-05
5.93912e-05
5.92676e-05
5.91892e-05
5.91503e-05
5.91327e-05
5.91242e-05
5.91211e-05
5.91247e-05
5.91332e-05
5.91504e-05
5.91889e-05
5.92668e-05
5.93901e-05
5.95163e-05
5.96121e-05
5.96642e-05
5.96626e-05
5.95745e-05
5.93086e-05
5.86427e-05
5.71335e-05
5.44584e-05
8.42257e-05
9.47347e-05
0.000100364
0.000102993
0.000104161
0.000104648
0.000104836
0.000104901
0.000104919
0.00010492
0.000104915
0.00010491
0.000104905
0.000104902
0.0001049
0.000104898
0.000104897
0.000104897
0.000104896
0.000104897
0.000104898
0.000104899
0.000104901
0.000104904
0.000104906
0.000104905
0.00010489
0.000104828
0.000104643
0.000104159
0.000102992
0.000100365
9.47356e-05
8.4227e-05
9.4735e-05
0.000273898
0.000336428
0.000364583
0.000378036
0.000384256
0.00038691
0.000387899
0.000388162
0.000388131
0.000387999
0.000387854
0.000387737
0.000387657
0.000387606
0.000387572
0.00038755
0.000387539
0.000387539
0.000387551
0.000387573
0.000387606
0.000387653
0.000387721
0.000387799
0.000387822
0.000387597
0.000386679
0.0003841
0.00037794
0.000364527
0.000336394
0.000273882
9.47361e-05
0.000100367
0.000336451
0.000424407
0.0004656
0.000486082
0.000495979
0.00050038
0.00050204
0.000502409
0.000502216
0.000501832
0.000501452
0.000501166
0.00050099
0.000500893
0.000500832
0.000500792
0.000500772
0.000500772
0.000500793
0.000500833
0.000500893
0.000500984
0.000501135
0.000501339
0.000501477
0.000501199
0.000499731
0.000495546
0.00048583
0.000465472
0.00042435
0.000336434
0.000100369
0.000102998
0.000364621
0.000465618
0.000514311
0.00053921
0.000551547
0.000557069
0.00055898
0.000559053
0.000558269
0.000557219
0.000556269
0.000555587
0.000555193
0.000554989
0.000554859
0.000554771
0.000554726
0.000554726
0.000554773
0.000554862
0.000554989
0.000555182
0.000555539
0.0005561
0.000556702
0.000556833
0.000555397
0.000550424
0.000538556
0.000513981
0.000465477
0.00036458
0.000103001
0.000104167
0.000378082
0.000486114
0.000539228
0.000566851
0.000580626
0.000586552
0.000588022
0.000586999
0.000584731
0.000582167
0.000580007
0.000578528
0.000577731
0.000577351
0.000577085
0.000576891
0.00057679
0.000576791
0.000576894
0.000577089
0.000577352
0.000577718
0.000578467
0.000579795
0.000581525
0.000582974
0.000582611
0.000577974
0.000565295
0.000538431
0.000485767
0.000377972
0.000104169
0.000104656
0.000384308
0.000496027
0.000551596
0.000580675
0.000594942
0.000600354
0.000600256
0.000596672
0.0005912
0.000585528
0.000581154
0.000578337
0.000576977
0.000576428
0.000575932
0.000575535
0.000575331
0.000575332
0.000575538
0.000575936
0.00057643
0.000576965
0.000578272
0.000580921
0.000584812
0.000589237
0.000591799
0.000589223
0.000577326
0.00054987
0.000495259
0.000384047
0.000104652
0.000104844
0.00038697
0.000500459
0.000557192
0.000586743
0.000600568
0.000604297
0.000600893
0.000592176
0.000580214
0.000568462
0.000560928
0.000556536
0.000554821
0.000554416
0.000553576
0.000552846
0.000552484
0.000552485
0.000552849
0.000553582
0.00055442
0.000554812
0.000556476
0.000560698
0.000567728
0.000578154
0.000587028
0.000589272
0.000580217
0.000553839
0.00049895
0.000386434
0.000104828
0.00010491
0.000387976
0.000502187
0.000559275
0.000588565
0.000601079
0.000601746
0.000592538
0.000574208
0.000548872
0.000524324
0.000515705
0.000511851
0.000511281
0.000512057
0.000510799
0.000509667
0.000509151
0.000509153
0.000509671
0.000510804
0.000512063
0.000511278
0.000511806
0.000515509
0.000523636
0.000546814
0.000568932
0.000580585
0.000577071
0.000553451
0.00049956
0.00038702
0.000104873
0.000104929
0.000388279
0.000502693
0.000559695
0.000588281
0.000598854
0.000595173
0.000577003
0.000541182
0.000485005
0.000422593
0.000435509
0.000444194
0.000449391
0.000453223
0.000451827
0.000450619
0.000450134
0.000450135
0.000450622
0.000451832
0.000453231
0.000449394
0.000444176
0.00043539
0.000422063
0.000483059
0.000535865
0.000564843
0.000570138
0.000550732
0.000498676
0.000386794
0.000104864
0.000104932
0.000388319
0.000502737
0.000559515
0.000587331
0.000595917
0.000587482
0.000557777
0.000492013
0.000353478
0.0001218
0.000295885
0.000360693
0.000380426
0.000388268
0.000388121
0.000387707
0.000387553
0.000387553
0.000387709
0.000388125
0.000388278
0.000380439
0.000360715
0.000295922
0.000121726
0.000351922
0.000486724
0.000545457
0.000562199
0.000547502
0.000497415
0.000386333
0.00010484
0.000104931
0.000388294
0.000502702
0.000559355
0.000586761
0.000594253
0.000582916
0.000544288
0.000442162
0.000124676
0.000111524
0.000290994
0.000327211
0.00033512
0.00033843
0.000339458
0.00033968
0.000339681
0.00033946
0.000338435
0.000335128
0.000327228
0.000291033
0.00011153
0.000124382
0.00043707
0.000531885
0.000557499
0.000545689
0.00049669
0.000386033
0.000104824
0.000104929
0.000388279
0.000502746
0.000559494
0.000587099
0.000595121
0.000585515
0.000553732
0.000484815
0.000342798
0.000118572
0.000263824
0.000314305
0.000326362
0.000324469
0.00033193
0.000334473
0.000334952
0.000334951
0.000334472
0.000331929
0.000324462
0.000326353
0.000314292
0.000263796
0.000118482
0.000341182
0.000479488
0.000541354
0.000560133
0.000546557
0.000496985
0.00038608
0.000104828
0.000104929
0.000388294
0.000502877
0.000559885
0.000588087
0.000597513
0.000591329
0.000568452
0.00052467
0.000456261
0.000377677
0.000363968
0.000348768
0.00034295
0.00033978
0.000341391
0.000342126
0.000342265
0.000342263
0.000342123
0.000341384
0.000339765
0.000342922
0.000348707
0.000363805
0.000377126
0.000454295
0.000519301
0.000556161
0.000566049
0.000549018
0.000497983
0.000386401
0.000104847
0.000104929
0.000388321
0.00050304
0.000560349
0.000589221
0.000600091
0.000596934
0.000580295
0.000549074
0.000503521
0.000450782
0.000407288
0.000369418
0.000353806
0.000348386
0.000347232
0.000346995
0.000346932
0.000346931
0.000346993
0.000347226
0.000348372
0.000353776
0.000369347
0.000407093
0.000450129
0.000501467
0.000543701
0.000568061
0.000571731
0.000551651
0.000499123
0.000386793
0.000104867
0.000104928
0.000388347
0.00050318
0.000560741
0.000590153
0.000602109
0.000600988
0.000587889
0.000562268
0.000524003
0.000476132
0.000425683
0.000379693
0.000359481
0.000352337
0.000350203
0.000349634
0.000349504
0.000349504
0.000349634
0.0003502
0.000352326
0.000359452
0.000379623
0.000425487
0.000475452
0.000521917
0.000556884
0.000575671
0.000575811
0.000553686
0.00050004
0.000387116
0.000104883
0.000104927
0.000388364
0.000503276
0.000561009
0.000590774
0.000603404
0.000603446
0.000592136
0.00056888
0.000533008
0.000486063
0.000433353
0.000384356
0.000362176
0.000354152
0.000351652
0.000350974
0.000350827
0.000350827
0.000350975
0.00035165
0.000354143
0.000362149
0.000384289
0.000433174
0.000485373
0.000530904
0.00056348
0.000579909
0.000578265
0.000554971
0.000500633
0.000387325
0.000104891
0.000104926
0.000388373
0.000503331
0.000561162
0.000591122
0.000604108
0.000604728
0.000594232
0.000571918
0.000536817
0.000489978
0.0004364
0.000386273
0.000363311
0.000354916
0.000352276
0.000351562
0.000351411
0.000351411
0.000351563
0.000352274
0.000354907
0.000363284
0.000386206
0.000436218
0.000489282
0.000534701
0.000566503
0.000581991
0.000579533
0.000555657
0.000500955
0.000387437
0.000104894
0.000104925
0.000388377
0.000503356
0.000561229
0.000591273
0.000604407
0.000605257
0.000595064
0.00057307
0.000538189
0.000491325
0.000437436
0.000386932
0.000363702
0.000355177
0.00035249
0.000351765
0.000351614
0.000351615
0.000351766
0.000352489
0.000355169
0.000363676
0.000386865
0.000437253
0.000490626
0.000536068
0.000567648
0.000582814
0.000580051
0.000555943
0.00050109
0.000387482
0.000104895
0.000104924
0.000388376
0.000503357
0.000561232
0.000591278
0.000604414
0.000605266
0.000595075
0.000573084
0.000538204
0.00049134
0.00043745
0.000386951
0.000363714
0.000355184
0.000352494
0.000351769
0.000351619
0.00035162
0.000351771
0.000352494
0.000355176
0.000363688
0.000386885
0.000437268
0.000490642
0.000536084
0.000567663
0.000582826
0.00058006
0.000555949
0.000501093
0.000387483
0.000104894
0.000104924
0.000388372
0.000503335
0.000561171
0.000591137
0.00060413
0.000604757
0.000594268
0.000571961
0.000536865
0.000490027
0.000436448
0.000386336
0.000363353
0.000354942
0.000352296
0.000351583
0.000351434
0.000351435
0.000351584
0.000352296
0.000354935
0.000363329
0.000386273
0.000436268
0.000489333
0.000534752
0.00056655
0.000582029
0.000579561
0.000555676
0.000500965
0.000387437
0.000104892
0.000104925
0.000388363
0.000503283
0.000561024
0.000590798
0.000603439
0.000603493
0.000592198
0.000568958
0.000533099
0.00048616
0.000433451
0.000384483
0.000362268
0.00035422
0.00035171
0.000351034
0.000350891
0.000350892
0.000351038
0.000351713
0.000354216
0.000362249
0.000384425
0.000433277
0.000485477
0.000531002
0.000563563
0.000579974
0.000578312
0.000555002
0.00050065
0.000387326
0.000104888
0.000104925
0.000388344
0.000503187
0.00056076
0.000590183
0.000602154
0.000601052
0.000587978
0.000562386
0.000524156
0.000476312
0.00042587
0.000379915
0.000359652
0.000352476
0.000350333
0.000349768
0.000349644
0.000349646
0.000349774
0.00035034
0.00035248
0.000359641
0.000379868
0.000425711
0.00047565
0.000522084
0.000557009
0.000575761
0.000575873
0.000553726
0.000500061
0.000387116
0.000104879
0.000104926
0.000388313
0.000503042
0.000560362
0.000589246
0.000600132
0.000597
0.000580397
0.000549236
0.000503766
0.000451117
0.000407677
0.000369753
0.000354052
0.000348596
0.000347425
0.000347193
0.000347139
0.000347143
0.000347203
0.000347438
0.000348607
0.00035405
0.000369721
0.000407537
0.000450503
0.000501738
0.000543862
0.000568151
0.000571783
0.000551684
0.000499138
0.000386788
0.000104864
0.000104925
0.000388272
0.000502856
0.000559863
0.000588068
0.000597503
0.000591342
0.000568515
0.000524842
0.000456634
0.000378266
0.000364547
0.000349038
0.000343017
0.000339783
0.00034134
0.000342079
0.000342231
0.000342236
0.000342092
0.000341355
0.000339784
0.000342995
0.000348997
0.00036448
0.000377796
0.000454712
0.000519427
0.000556153
0.000566012
0.000548988
0.000497962
0.000386376
0.000104842
0.000104924
0.000388216
0.000502643
0.000559351
0.000586923
0.000594924
0.000585314
0.00055357
0.000484825
0.00034328
0.000118692
0.000264104
0.000313405
0.000324868
0.000322656
0.000330005
0.000332558
0.000333053
0.000333054
0.000332555
0.000329976
0.000322539
0.000324638
0.000313131
0.000264174
0.000118608
0.000341756
0.000479265
0.000540938
0.000559781
0.00054632
0.000496841
0.000385993
0.000104821
0.000104919
0.000388102
0.000502355
0.000558858
0.000586135
0.000593516
0.000582074
0.000543359
0.000441314
0.000124513
0.000110591
0.000284895
0.000319132
0.000325812
0.000328837
0.000329861
0.000330105
0.00033009
0.000329793
0.000328621
0.000325242
0.000317952
0.000283161
0.000110145
0.000124018
0.000435295
0.000530201
0.000556281
0.000544897
0.000496215
0.000385782
0.000104808
0.000104899
0.000387765
0.000501722
0.000558086
0.000585549
0.000593818
0.000585023
0.00055481
0.000488375
0.000349552
0.000120362
0.000281416
0.000339449
0.000352895
0.000356525
0.000355946
0.000355726
0.000355696
0.000355652
0.000355526
0.000355305
0.000354768
0.000348809
0.000332075
0.000273992
0.000119131
0.00034418
0.000479938
0.000540629
0.000558977
0.000545409
0.000496123
0.000385659
0.000104801
0.000104835
0.000386769
0.000500009
0.000556028
0.000583813
0.000593681
0.000589179
0.000569688
0.000531446
0.000470871
0.000400957
0.000399861
0.000393104
0.000381343
0.000375495
0.000372858
0.000372008
0.000371779
0.000371703
0.000371642
0.000371621
0.000371813
0.000371852
0.000373814
0.000379327
0.000384731
0.000457723
0.000519346
0.000554102
0.000563
0.000545906
0.000495529
0.000385098
0.000104762
0.00010465
0.000384146
0.00049568
0.000550693
0.000578389
0.000589595
0.000588845
0.000577396
0.000554827
0.000521465
0.000482881
0.000452488
0.000419885
0.000387338
0.000373657
0.000368925
0.000367482
0.000367085
0.000366987
0.000366999
0.000367235
0.000368319
0.00037224
0.000385105
0.000418209
0.000455763
0.00050189
0.000539588
0.000560833
0.000563099
0.00054328
0.00049244
0.000382953
0.000104603
0.000104164
0.000377963
0.000485892
0.000538648
0.000565342
0.000577034
0.000578751
0.00057249
0.00055856
0.000536868
0.00050833
0.000475148
0.000436916
0.000399324
0.000383066
0.000377332
0.000375527
0.000375013
0.000374899
0.000374971
0.000375411
0.000377073
0.000382586
0.000398824
0.000437386
0.000478285
0.000515479
0.000542684
0.000556417
0.000554621
0.000533581
0.00048374
0.000377185
0.000104139
0.000102997
0.000364538
0.000465502
0.000514006
0.000538366
0.00054944
0.000552332
0.000549266
0.000540727
0.00052632
0.000505625
0.000479015
0.000448354
0.00042001
0.00040584
0.000400245
0.00039832
0.000397721
0.000397588
0.000397711
0.000398283
0.000400163
0.000405731
0.000420011
0.000448879
0.000480607
0.000508111
0.000527129
0.000535496
0.000531366
0.000510824
0.000464203
0.000364075
0.000102986
0.000100369
0.000336396
0.000424364
0.000465486
0.000485708
0.000494946
0.000497897
0.000496681
0.000491838
0.000483013
0.000469652
0.000451863
0.000431478
0.000413112
0.00040281
0.000398302
0.000396612
0.000396053
0.000395928
0.000396058
0.000396618
0.000398306
0.000402823
0.000413199
0.000431793
0.000452537
0.000470339
0.000482208
0.00048656
0.00048167
0.000463737
0.000423684
0.000336151
0.000100366
9.47383e-05
0.000273873
0.000336434
0.000364583
0.000377949
0.000383911
0.000385949
0.000385639
0.000383421
0.000379092
0.000372265
0.000362952
0.000352233
0.000342577
0.000336744
0.000333996
0.000332901
0.000332521
0.000332437
0.000332535
0.000332927
0.000334034
0.000336797
0.000342672
0.000352416
0.000363242
0.000372426
0.000378328
0.000380002
0.000376159
0.000363852
0.000336165
0.000273767
9.47405e-05
8.42291e-05
9.47382e-05
0.000100373
0.000103007
0.000104177
0.000104659
0.000104824
0.000104828
0.000104717
0.000104472
0.00010406
0.000103464
0.000102748
0.000102087
0.000101675
0.000101478
0.000101399
0.000101372
0.000101365
0.000101373
0.000101401
0.00010148
0.000101676
0.000102089
0.000102755
0.000103475
0.000104064
0.000104416
0.000104472
0.000104106
0.000102986
0.000100371
9.47401e-05
8.42337e-05
8.80575e-05
0.000102664
0.000110434
0.000114166
0.000115903
0.000116666
0.000116976
0.000117088
0.000117119
0.000117119
0.000117107
0.000117095
0.000117085
0.000117078
0.000117073
0.00011707
0.000117068
0.000117067
0.000117067
0.000117068
0.00011707
0.000117073
0.000117077
0.000117083
0.000117089
0.000117089
0.000117062
0.000116956
0.000116653
0.000115895
0.000114162
0.000110432
0.000102663
8.80587e-05
0.000102664
0.000357266
0.000453829
0.000498645
0.000520674
0.000531208
0.000535871
0.000537668
0.000538148
0.000538065
0.000537777
0.000537459
0.000537198
0.000537017
0.000536902
0.000536825
0.000536775
0.000536751
0.00053675
0.000536775
0.000536823
0.000536897
0.000537005
0.000537159
0.000537335
0.000537404
0.000537008
0.000535358
0.000530851
0.000520446
0.000498505
0.000453743
0.000357221
0.000102663
0.000110436
0.000453868
0.000597771
0.000667498
0.000702962
0.000720513
0.000728521
0.000731603
0.000732267
0.000731829
0.000730992
0.000730146
0.00072949
0.000729072
0.000728832
0.00072868
0.000728584
0.000728535
0.000728536
0.000728584
0.00072868
0.000728827
0.00072905
0.000729412
0.000729894
0.000730245
0.000729787
0.000727106
0.000719548
0.000702378
0.00066718
0.000597614
0.000453806
0.000110436
0.000114171
0.000498709
0.000667532
0.000751831
0.000795814
0.00081803
0.000828166
0.000831709
0.00083177
0.000830135
0.000827914
0.000825838
0.000824295
0.00082337
0.000822875
0.000822557
0.000822346
0.000822241
0.000822241
0.000822348
0.000822558
0.00082287
0.000823339
0.000824178
0.000825464
0.000826829
0.000827244
0.00082468
0.000815652
0.000794385
0.000751072
0.000667179
0.000498583
0.00011417
0.00011591
0.000520755
0.000703025
0.000795853
0.000845052
0.000869994
0.000880877