/*--------------------------------*- C++ -*----------------------------------*\
| =========                 |                                                 |
| \\      /  F ield         | OpenFOAM: The Open Source CFD Toolbox           |
|  \\    /   O peration     | Version:  2112                                  |
|   \\  /    A nd           | Website:  www.openfoam.com                      |
|    \\/     M anipulation  |                                                 |
\*---------------------------------------------------------------------------*/
FoamFile
{
    version     2.0;
    format      ascii;
    arch        "LSB;label=32;scalar=64";
    class       volScalarField;
    location    "2.8";
    object      p;
}
// * * * * * * * * * * * * * * * * * * * * * * * * * * * * * * * * * * * * * //

dimensions      [0 2 -2 0 0 0 0];

internalField   nonuniform List<scalar> 
64906
(
-6.29783e-06
-6.27849e-06
-6.26885e-06
-6.26907e-06
-6.29465e-06
-6.34605e-06
-6.42428e-06
-6.52989e-06
-6.66327e-06
-6.83193e-06
-7.00548e-06
-7.17555e-06
-7.33924e-06
-7.49063e-06
-7.62184e-06
-7.72898e-06
-7.80884e-06
-7.86017e-06
-7.88237e-06
-7.87557e-06
-7.84077e-06
-7.77953e-06
-7.69541e-06
-7.59252e-06
-7.47902e-06
-7.36046e-06
-7.23857e-06
-7.12532e-06
-7.04916e-06
-7.00183e-06
-6.981e-06
-6.98982e-06
-7.00393e-06
-7.02458e-06
-6.23762e-06
-6.15756e-06
-6.09483e-06
-6.05909e-06
-6.05013e-06
-6.06801e-06
-6.11041e-06
-6.17458e-06
-6.25561e-06
-6.34216e-06
-6.44379e-06
-6.55563e-06
-6.66044e-06
-6.75651e-06
-6.83858e-06
-6.9065e-06
-6.95869e-06
-6.99523e-06
-7.01594e-06
-7.02098e-06
-7.01084e-06
-6.98571e-06
-6.94743e-06
-6.89633e-06
-6.838e-06
-6.77443e-06
-6.72485e-06
-6.69188e-06
-6.66839e-06
-6.6674e-06
-6.6961e-06
-6.7527e-06
-6.84076e-06
-6.94209e-06
-6.21487e-06
-6.09312e-06
-5.98263e-06
-5.89749e-06
-5.84987e-06
-5.83719e-06
-5.85502e-06
-5.89983e-06
-5.96683e-06
-6.0528e-06
-6.15055e-06
-6.25709e-06
-6.35107e-06
-6.43384e-06
-6.49936e-06
-6.5522e-06
-6.59239e-06
-6.62203e-06
-6.64152e-06
-6.65101e-06
-6.6504e-06
-6.63786e-06
-6.61369e-06
-6.57354e-06
-6.52408e-06
-6.46442e-06
-6.41777e-06
-6.38794e-06
-6.38558e-06
-6.41779e-06
-6.49321e-06
-6.6148e-06
-6.7649e-06
-6.9229e-06
-6.22982e-06
-6.07067e-06
-5.91598e-06
-5.78747e-06
-5.70733e-06
-5.67391e-06
-5.68346e-06
-5.73451e-06
-5.82446e-06
-5.95493e-06
-6.10955e-06
-6.28343e-06
-6.42726e-06
-6.54609e-06
-6.6305e-06
-6.69393e-06
-6.73841e-06
-6.76928e-06
-6.78769e-06
-6.79377e-06
-6.78669e-06
-6.76132e-06
-6.71612e-06
-6.63795e-06
-6.53737e-06
-6.40992e-06
-6.3083e-06
-6.23912e-06
-6.22424e-06
-6.2676e-06
-6.37668e-06
-6.55174e-06
-6.75965e-06
-6.96753e-06
-6.2962e-06
-6.10595e-06
-5.91625e-06
-5.75651e-06
-5.65767e-06
-5.62138e-06
-5.64744e-06
-5.74044e-06
-5.90398e-06
-6.15018e-06
-6.45318e-06
-6.80764e-06
-7.08871e-06
-7.3109e-06
-7.4601e-06
-7.56753e-06
-7.63756e-06
-7.68053e-06
-7.6983e-06
-7.69096e-06
-7.65694e-06
-7.58605e-06
-7.47464e-06
-7.29178e-06
-7.05354e-06
-6.74587e-06
-6.49996e-06
-6.322e-06
-6.24556e-06
-6.26563e-06
-6.38407e-06
-6.59334e-06
-6.84567e-06
-7.09561e-06
-6.41571e-06
-6.19546e-06
-5.97713e-06
-5.79668e-06
-5.69294e-06
-5.6721e-06
-5.7397e-06
-5.91049e-06
-6.20009e-06
-6.64255e-06
-7.20774e-06
-7.91245e-06
-8.43838e-06
-8.84e-06
-9.10145e-06
-9.28815e-06
-9.40604e-06
-9.47275e-06
-9.4904e-06
-9.45901e-06
-9.37665e-06
-9.22568e-06
-9.00107e-06
-8.63765e-06
-8.15452e-06
-7.49663e-06
-6.99511e-06
-6.62864e-06
-6.4387e-06
-6.4001e-06
-6.50395e-06
-6.73097e-06
-7.01882e-06
-7.30991e-06
-6.58474e-06
-6.33106e-06
-6.08952e-06
-5.89492e-06
-5.79786e-06
-5.8086e-06
-5.93908e-06
-6.21673e-06
-6.67541e-06
-7.39312e-06
-8.33011e-06
-9.67317e-06
-1.05583e-05
-1.12096e-05
-1.16206e-05
-1.19153e-05
-1.20988e-05
-1.21989e-05
-1.2217e-05
-1.21531e-05
-1.20057e-05
-1.17465e-05
-1.13716e-05
-1.0757e-05
-9.91494e-06
-8.61565e-06
-7.7545e-06
-7.1202e-06
-6.77311e-06
-6.64677e-06
-6.71656e-06
-6.94945e-06
-7.27039e-06
-7.60796e-06
-6.79798e-06
-6.50604e-06
-6.24156e-06
-6.03938e-06
-5.96091e-06
-6.01962e-06
-6.23214e-06
-6.63387e-06
-7.28003e-06
-8.29006e-06
-9.63751e-06
-1.21741e-05
-1.34777e-05
-1.44418e-05
-1.50399e-05
-1.54767e-05
-1.57479e-05
-1.58934e-05
-1.59127e-05
-1.58055e-05
-1.55721e-05
-1.51715e-05
-1.4609e-05
-1.36786e-05
-1.24183e-05
-9.91272e-06
-8.66941e-06
-7.74573e-06
-7.2206e-06
-6.98848e-06
-7.00792e-06
-7.23934e-06
-7.58619e-06
-7.98309e-06
-7.0478e-06
-6.7101e-06
-6.42126e-06
-6.21631e-06
-6.16717e-06
-6.28851e-06
-6.59676e-06
-7.12604e-06
-7.90485e-06
-9.15083e-06
-1.08689e-05
-1.56309e-05
-1.70685e-05
-1.83378e-05
-1.91271e-05
-1.97027e-05
-2.0061e-05
-2.02525e-05
-2.02736e-05
-2.01237e-05
-1.9806e-05
-1.92683e-05
-1.85144e-05
-1.72722e-05
-1.58803e-05
-1.11277e-05
-9.58757e-06
-8.39959e-06
-7.74432e-06
-7.3999e-06
-7.35647e-06
-7.57782e-06
-7.95374e-06
-8.42604e-06
-7.32848e-06
-6.93388e-06
-6.6218e-06
-6.42343e-06
-6.42455e-06
-6.6421e-06
-7.09336e-06
-7.78012e-06
-8.76988e-06
-1.11873e-05
-9.1577e-06
-1.93031e-05
-2.08011e-05
-2.2624e-05
-2.36971e-05
-2.44923e-05
-2.49893e-05
-2.52495e-05
-2.52727e-05
-2.50586e-05
-2.46065e-05
-2.38526e-05
-2.2817e-05
-2.10162e-05
-1.95933e-05
-9.30749e-06
-1.16149e-05
-9.25109e-06
-8.41813e-06
-7.93168e-06
-7.77949e-06
-7.96342e-06
-8.36018e-06
-8.93052e-06
-7.64489e-06
-7.15876e-06
-6.82675e-06
-6.63919e-06
-6.70314e-06
-7.04139e-06
-7.64013e-06
-8.35398e-06
-9.05486e-06
-6.8205e-06
-2.85366e-05
-2.58082e-05
-2.69349e-05
-2.79757e-05
-2.88711e-05
-2.94654e-05
-2.97691e-05
-2.97944e-05
-2.95411e-05
-2.89959e-05
-2.81461e-05
-2.7143e-05
-2.60319e-05
-2.86767e-05
-7.59524e-06
-9.69299e-06
-9.04621e-06
-8.51081e-06
-8.23681e-06
-8.36117e-06
-8.76299e-06
-9.48737e-06
-7.97105e-06
-7.39262e-06
-7.03761e-06
-6.8714e-06
-7.03446e-06
-7.6016e-06
-8.69486e-06
-1.04907e-05
-1.34619e-05
-1.73071e-05
-2.59611e-05
-2.49947e-05
-2.80715e-05
-3.0413e-05
-3.22233e-05
-3.35706e-05
-3.44049e-05
-3.48061e-05
-3.48334e-05
-3.4487e-05
-3.37085e-05
-3.24182e-05
-3.06678e-05
-2.83933e-05
-2.53836e-05
-2.65186e-05
-1.77857e-05
-1.39924e-05
-1.11249e-05
-9.54595e-06
-8.82814e-06
-8.80351e-06
-9.20858e-06
-1.00255e-05
-8.26091e-06
-7.61806e-06
-7.23117e-06
-7.06953e-06
-7.29239e-06
-7.99002e-06
-9.2968e-06
-1.13433e-05
-1.42937e-05
-1.78277e-05
-2.36362e-05
-2.69098e-05
-3.0018e-05
-3.27266e-05
-3.4902e-05
-3.6439e-05
-3.73873e-05
-3.78415e-05
-3.78699e-05
-3.74729e-05
-3.65832e-05
-3.51062e-05
-3.29935e-05
-3.03433e-05
-2.72805e-05
-2.40974e-05
-1.83223e-05
-1.48089e-05
-1.19578e-05
-1.01465e-05
-9.25816e-06
-9.17695e-06
-9.61671e-06
-1.05554e-05
-8.52397e-06
-7.82504e-06
-7.40693e-06
-7.24165e-06
-7.50133e-06
-8.28212e-06
-9.71991e-06
-1.19387e-05
-1.50816e-05
-1.89924e-05
-2.38673e-05
-2.77503e-05
-3.13954e-05
-3.44155e-05
-3.67974e-05
-3.84183e-05
-3.94056e-05
-3.98719e-05
-3.99008e-05
-3.9493e-05
-3.85658e-05
-3.70069e-05
-3.46903e-05
-3.17307e-05
-2.81456e-05
-2.43081e-05
-1.9448e-05
-1.55678e-05
-1.25377e-05
-1.05768e-05
-9.59924e-06
-9.50145e-06
-9.98641e-06
-1.10509e-05
-8.75251e-06
-8.00433e-06
-7.55497e-06
-7.37514e-06
-7.64375e-06
-8.45583e-06
-9.94034e-06
-1.22142e-05
-1.53921e-05
-1.93449e-05
-2.39426e-05
-2.81938e-05
-3.21784e-05
-3.53382e-05
-3.77899e-05
-3.94189e-05
-4.03999e-05
-4.0858e-05
-4.08872e-05
-4.04881e-05
-3.95676e-05
-3.80012e-05
-3.56151e-05
-3.25149e-05
-2.85894e-05
-2.43677e-05
-1.9785e-05
-1.5866e-05
-1.2811e-05
-1.08163e-05
-9.82886e-06
-9.75522e-06
-1.02942e-05
-1.14532e-05
-8.94141e-06
-8.15344e-06
-7.67697e-06
-7.48017e-06
-7.74621e-06
-8.56797e-06
-1.00683e-05
-1.23611e-05
-1.55476e-05
-1.95208e-05
-2.40838e-05
-2.85227e-05
-3.26686e-05
-3.59007e-05
-3.8377e-05
-3.99906e-05
-4.09513e-05
-4.13952e-05
-4.14249e-05
-4.10408e-05
-4.01414e-05
-3.85907e-05
-3.61802e-05
-3.3006e-05
-2.89152e-05
-2.45024e-05
-1.99544e-05
-1.60178e-05
-1.29637e-05
-1.09684e-05
-9.99558e-06
-9.95578e-06
-1.05438e-05
-1.1775e-05
-9.08683e-06
-8.26924e-06
-7.77138e-06
-7.55877e-06
-7.81739e-06
-8.63845e-06
-1.01412e-05
-1.24402e-05
-1.56329e-05
-1.96319e-05
-2.42213e-05
-2.87578e-05
-3.29999e-05
-3.62728e-05
-3.87584e-05
-4.03588e-05
-4.13044e-05
-4.17386e-05
-4.17691e-05
-4.13963e-05
-4.05133e-05
-3.89767e-05
-3.65577e-05
-3.33436e-05
-2.91595e-05
-2.46418e-05
-2.00657e-05
-1.61054e-05
-1.30526e-05
-1.10654e-05
-1.01128e-05
-1.01051e-05
-1.07325e-05
-1.20161e-05
-9.18745e-06
-8.35107e-06
-7.83947e-06
-7.61634e-06
-7.86979e-06
-8.69072e-06
-1.01973e-05
-1.25056e-05
-1.57134e-05
-1.97429e-05
-2.43714e-05
-2.89724e-05
-3.32752e-05
-3.65805e-05
-3.90794e-05
-4.068e-05
-4.16222e-05
-4.20541e-05
-4.20859e-05
-4.1718e-05
-4.08406e-05
-3.93056e-05
-3.68741e-05
-3.36278e-05
-2.93828e-05
-2.47978e-05
-2.01812e-05
-1.61912e-05
-1.3128e-05
-1.11405e-05
-1.01986e-05
-1.02107e-05
-1.08629e-05
-1.2179e-05
-9.24293e-06
-8.39861e-06
-7.88148e-06
-7.65454e-06
-7.90722e-06
-8.73184e-06
-1.0247e-05
-1.2571e-05
-1.58026e-05
-1.98654e-05
-2.45334e-05
-2.91768e-05
-3.35169e-05
-3.68506e-05
-3.93694e-05
-4.09839e-05
-4.19349e-05
-4.2372e-05
-4.24057e-05
-4.20362e-05
-4.1153e-05
-3.96066e-05
-3.71566e-05
-3.38823e-05
-2.95987e-05
-2.4969e-05
-2.03111e-05
-1.62873e-05
-1.32018e-05
-1.12025e-05
-1.0258e-05
-1.02749e-05
-1.09359e-05
-1.22656e-05
-9.25381e-06
-8.41232e-06
-7.89785e-06
-7.67382e-06
-7.93111e-06
-8.7625e-06
-1.02911e-05
-1.26356e-05
-1.58983e-05
-1.99968e-05
-2.47065e-05
-2.93733e-05
-3.37277e-05
-3.70842e-05
-3.96275e-05
-4.1268e-05
-4.22391e-05
-4.26885e-05
-4.27246e-05
-4.23475e-05
-4.14484e-05
-3.98793e-05
-3.74069e-05
-3.41105e-05
-2.98112e-05
-2.51552e-05
-2.04531e-05
-1.63913e-05
-1.32728e-05
-1.1251e-05
-1.02912e-05
-1.02984e-05
-1.09528e-05
-1.22773e-05
-9.22181e-06
-8.39366e-06
-7.88927e-06
-7.67299e-06
-7.93564e-06
-8.7734e-06
-1.0314e-05
-1.26798e-05
-1.59803e-05
-2.01203e-05
-2.48903e-05
-2.95606e-05
-3.38956e-05
-3.72626e-05
-3.98296e-05
-4.15056e-05
-4.25061e-05
-4.29742e-05
-4.30137e-05
-4.26245e-05
-4.17018e-05
-4.01022e-05
-3.76093e-05
-3.43038e-05
-3.00217e-05
-2.53582e-05
-2.05934e-05
-1.64874e-05
-1.33272e-05
-1.12774e-05
-1.0295e-05
-1.02814e-05
-1.09154e-05
-1.2215e-05
-9.14956e-06
-8.34435e-06
-7.85558e-06
-7.64807e-06
-7.91084e-06
-8.74277e-06
-1.02785e-05
-1.26467e-05
-1.59759e-05
-2.0163e-05
-2.50673e-05
-2.97009e-05
-3.39527e-05
-3.72894e-05
-3.98553e-05
-4.15628e-05
-4.25948e-05
-4.3085e-05
-4.31291e-05
-4.27268e-05
-4.17813e-05
-4.01583e-05
-3.76721e-05
-3.44005e-05
-3.01979e-05
-2.5563e-05
-2.06628e-05
-1.65074e-05
-1.33132e-05
-1.125e-05
-1.02538e-05
-1.02192e-05
-1.08237e-05
-1.20767e-05
-9.04231e-06
-8.26901e-06
-7.80039e-06
-7.60014e-06
-7.85275e-06
-8.65773e-06
-1.01558e-05
-1.24835e-05
-1.5809e-05
-2.00245e-05
-2.52928e-05
-2.98266e-05
-3.38235e-05
-3.70618e-05
-3.95817e-05
-4.12988e-05
-4.23504e-05
-4.28593e-05
-4.29104e-05
-4.2504e-05
-4.15531e-05
-3.99353e-05
-3.75067e-05
-3.43427e-05
-3.03852e-05
-2.58326e-05
-2.05768e-05
-1.6388e-05
-1.31893e-05
-1.11502e-05
-1.0164e-05
-1.01162e-05
-1.06834e-05
-1.18506e-05
-8.90525e-06
-8.17095e-06
-7.72343e-06
-7.52145e-06
-7.73888e-06
-8.46804e-06
-9.84436e-06
-1.20004e-05
-1.50956e-05
-1.88883e-05
-2.53406e-05
-3.00732e-05
-3.33584e-05
-3.62907e-05
-3.86306e-05
-4.02884e-05
-4.1323e-05
-4.18375e-05
-4.18997e-05
-4.15104e-05
-4.05995e-05
-3.9066e-05
-3.68381e-05
-3.40033e-05
-3.07709e-05
-2.59333e-05
-1.95019e-05
-1.57468e-05
-1.27772e-05
-1.08881e-05
-9.986e-06
-9.96044e-06
-1.04998e-05
-1.15804e-05
-8.74149e-06
-8.06117e-06
-7.63838e-06
-7.43179e-06
-7.60049e-06
-8.22245e-06
-9.42743e-06
-1.14067e-05
-1.46906e-05
-1.91759e-05
-2.7011e-05
-2.83986e-05
-3.22573e-05
-3.51795e-05
-3.72855e-05
-3.88428e-05
-3.98265e-05
-4.03282e-05
-4.04083e-05
-4.007e-05
-3.92497e-05
-3.78604e-05
-3.58956e-05
-3.30891e-05
-2.92391e-05
-2.75718e-05
-2.00338e-05
-1.55302e-05
-1.23209e-05
-1.05587e-05
-9.77325e-06
-9.78802e-06
-1.0303e-05
-1.1318e-05
-8.55985e-06
-7.94815e-06
-7.54593e-06
-7.3224e-06
-7.40881e-06
-7.8246e-06
-8.52496e-06
-9.25964e-06
-9.85586e-06
-6.37476e-06
-3.62755e-05
-3.22203e-05
-3.35053e-05
-3.482e-05
-3.59872e-05
-3.68004e-05
-3.72584e-05
-3.73614e-05
-3.71158e-05
-3.65188e-05
-3.55834e-05
-3.44646e-05
-3.33798e-05
-3.73968e-05
-7.19458e-06
-1.0822e-05
-1.03052e-05
-9.76651e-06
-9.42722e-06
-9.57054e-06
-1.00844e-05
-1.10493e-05
-8.38744e-06
-7.86894e-06
-7.47776e-06
-7.25674e-06
-7.32403e-06
-7.72217e-06
-8.52619e-06
-9.85211e-06
-1.20783e-05
-1.57442e-05
-1.70189e-05
-2.55289e-05
-2.83206e-05
-3.09698e-05
-3.27766e-05
-3.41438e-05
-3.50621e-05
-3.56122e-05
-3.57492e-05
-3.54872e-05
-3.48622e-05
-3.37931e-05
-3.22661e-05
-2.9933e-05
-2.71489e-05
-1.92971e-05
-1.75903e-05
-1.36519e-05
-1.12239e-05
-9.9196e-06
-9.37277e-06
-9.45434e-06
-9.92273e-06
-1.07884e-05
-8.26541e-06
-7.79087e-06
-7.42547e-06
-7.21313e-06
-7.26292e-06
-7.6169e-06
-8.33669e-06
-9.4984e-06
-1.11659e-05
-1.34081e-05
-1.76996e-05
-2.3291e-05
-2.59803e-05
-2.84747e-05
-3.03359e-05
-3.17877e-05
-3.2743e-05
-3.32948e-05
-3.34508e-05
-3.32323e-05
-3.2634e-05
-3.15954e-05
-3.00584e-05
-2.79367e-05
-2.52924e-05
-1.98865e-05
-1.51839e-05
-1.27809e-05
-1.09711e-05
-9.80665e-06
-9.28737e-06
-9.35134e-06
-9.79624e-06
-1.05472e-05
-8.18072e-06
-7.74518e-06
-7.41408e-06
-7.22562e-06
-7.27795e-06
-7.61174e-06
-8.29004e-06
-9.40435e-06
-1.10944e-05
-1.34822e-05
-1.6683e-05
-2.06042e-05
-2.35199e-05
-2.60934e-05
-2.80329e-05
-2.95511e-05
-3.05383e-05
-3.11e-05
-3.12644e-05
-3.10598e-05
-3.04647e-05
-2.94207e-05
-2.78523e-05
-2.57061e-05
-2.28762e-05
-1.90432e-05
-1.55909e-05
-1.29075e-05
-1.09879e-05
-9.8117e-06
-9.28037e-06
-9.30812e-06
-9.70157e-06
-1.03959e-05
-8.13655e-06
-7.74257e-06
-7.45598e-06
-7.30422e-06
-7.37008e-06
-7.68662e-06
-8.30631e-06
-9.30773e-06
-1.07908e-05
-1.28499e-05
-1.54719e-05
-1.85027e-05
-2.11894e-05
-2.36315e-05
-2.55097e-05
-2.69661e-05
-2.791e-05
-2.84461e-05
-2.8608e-05
-2.84266e-05
-2.78752e-05
-2.69024e-05
-2.54211e-05
-2.34221e-05
-2.08365e-05
-1.7822e-05
-1.496e-05
-1.26198e-05
-1.09127e-05
-9.83585e-06
-9.33196e-06
-9.32964e-06
-9.65879e-06
-1.03242e-05
-8.13598e-06
-7.79509e-06
-7.57114e-06
-7.47731e-06
-7.57834e-06
-7.89737e-06
-8.47151e-06
-9.35754e-06
-1.06198e-05
-1.23113e-05
-1.44065e-05
-1.67913e-05
-1.90818e-05
-2.12313e-05
-2.29274e-05
-2.42324e-05
-2.50884e-05
-2.55822e-05
-2.57334e-05
-2.55811e-05
-2.50843e-05
-2.42193e-05
-2.29086e-05
-2.11644e-05
-1.8972e-05
-1.65805e-05
-1.4291e-05
-1.23714e-05
-1.0928e-05
-9.98381e-06
-9.51125e-06
-9.4658e-06
-9.71811e-06
-1.03079e-05
-8.18147e-06
-7.90374e-06
-7.76816e-06
-7.75683e-06
-7.91881e-06
-8.27011e-06
-8.83376e-06
-9.65347e-06
-1.07569e-05
-1.21714e-05
-1.38677e-05
-1.57715e-05
-1.7667e-05
-1.94642e-05
-2.09153e-05
-2.20388e-05
-2.2791e-05
-2.32265e-05
-2.33669e-05
-2.32318e-05
-2.28034e-05
-2.20563e-05
-2.09435e-05
-1.94869e-05
-1.76993e-05
-1.5801e-05
-1.39783e-05
-1.24103e-05
-1.11862e-05
-1.03393e-05
-9.86495e-06
-9.74282e-06
-9.89197e-06
-1.03407e-05
-8.239e-06
-8.06023e-06
-8.0177e-06
-8.0987e-06
-8.33848e-06
-8.75207e-06
-9.35971e-06
-1.01734e-05
-1.12182e-05
-1.24918e-05
-1.39879e-05
-1.5633e-05
-1.72786e-05
-1.8834e-05
-2.01237e-05
-2.11339e-05
-2.18299e-05
-2.22386e-05
-2.23726e-05
-2.22428e-05
-2.184e-05
-2.11506e-05
-2.01531e-05
-1.88751e-05
-1.73491e-05
-1.57392e-05
-1.41764e-05
-1.28122e-05
-1.17007e-05
-1.08779e-05
-1.03554e-05
-1.01267e-05
-1.01393e-05
-1.04167e-05
-8.30617e-06
-8.24156e-06
-8.28796e-06
-8.45309e-06
-8.77198e-06
-9.26772e-06
-9.96422e-06
-1.0882e-05
-1.2037e-05
-1.3426e-05
-1.49914e-05
-1.66634e-05
-1.83302e-05
-1.99007e-05
-2.12331e-05
-2.22922e-05
-2.30397e-05
-2.3482e-05
-2.36237e-05
-2.34703e-05
-2.30178e-05
-2.22619e-05
-2.12007e-05
-1.98714e-05
-1.83252e-05
-1.67029e-05
-1.51232e-05
-1.36829e-05
-1.24841e-05
-1.15649e-05
-1.09325e-05
-1.05734e-05
-1.044e-05
-1.0522e-05
-6.35961e-06
-6.36452e-06
-6.3798e-06
-6.4081e-06
-6.45765e-06
-6.53262e-06
-6.63609e-06
-6.76975e-06
-6.93272e-06
-7.12266e-06
-7.32892e-06
-7.54113e-06
-7.74582e-06
-7.93555e-06
-8.0994e-06
-8.23245e-06
-8.33019e-06
-8.39098e-06
-8.41393e-06
-8.39919e-06
-8.34806e-06
-8.2625e-06
-8.14739e-06
-8.00787e-06
-7.85511e-06
-7.6964e-06
-7.54522e-06
-7.41142e-06
-7.30501e-06
-7.22624e-06
-7.17299e-06
-7.14185e-06
-7.12057e-06
-7.10573e-06
-6.31531e-06
-6.28449e-06
-6.27151e-06
-6.27037e-06
-6.29166e-06
-6.33864e-06
-6.4127e-06
-6.51345e-06
-6.63641e-06
-6.77716e-06
-6.9272e-06
-7.08374e-06
-7.2314e-06
-7.36951e-06
-7.48761e-06
-7.58491e-06
-7.65741e-06
-7.70503e-06
-7.72707e-06
-7.72367e-06
-7.69589e-06
-7.64407e-06
-7.57255e-06
-7.48226e-06
-7.38408e-06
-7.27873e-06
-7.18238e-06
-7.09726e-06
-7.03242e-06
-6.99201e-06
-6.97877e-06
-6.98864e-06
-7.00916e-06
-7.0414e-06
-6.31068e-06
-6.26865e-06
-6.24126e-06
-6.21622e-06
-6.21829e-06
-6.25316e-06
-6.32319e-06
-6.42929e-06
-6.56641e-06
-6.73507e-06
-6.91627e-06
-7.11407e-06
-7.29021e-06
-7.45324e-06
-7.58461e-06
-7.6908e-06
-7.76703e-06
-7.81614e-06
-7.83758e-06
-7.83149e-06
-7.79875e-06
-7.73675e-06
-7.65071e-06
-7.53429e-06
-7.40691e-06
-7.26011e-06
-7.13397e-06
-7.02456e-06
-6.95288e-06
-6.91907e-06
-6.92595e-06
-6.96522e-06
-7.00288e-06
-7.04616e-06
-6.34327e-06
-6.28362e-06
-6.23748e-06
-6.18994e-06
-6.17795e-06
-6.21117e-06
-6.29505e-06
-6.43505e-06
-6.62735e-06
-6.88194e-06
-7.16316e-06
-7.48762e-06
-7.76051e-06
-8.0083e-06
-8.19537e-06
-8.34191e-06
-8.4413e-06
-8.50166e-06
-8.52255e-06
-8.50407e-06
-8.44698e-06
-8.34334e-06
-8.20042e-06
-7.99811e-06
-7.7737e-06
-7.50068e-06
-7.27773e-06
-7.08817e-06
-6.97181e-06
-6.91985e-06
-6.93299e-06
-6.9949e-06
-7.05264e-06
-7.11468e-06
-6.42758e-06
-6.34674e-06
-6.28495e-06
-6.22376e-06
-6.21039e-06
-6.25958e-06
-6.38196e-06
-6.59152e-06
-6.88816e-06
-7.30203e-06
-7.77047e-06
-8.34351e-06
-8.79713e-06
-9.20179e-06
-9.49144e-06
-9.71334e-06
-9.85697e-06
-9.93949e-06
-9.96016e-06
-9.91899e-06
-9.81707e-06
-9.63724e-06
-9.39095e-06
-9.03087e-06
-8.626e-06
-8.10517e-06
-7.70004e-06
-7.35818e-06
-7.14945e-06
-7.04504e-06
-7.04125e-06
-7.11012e-06
-7.18223e-06
-7.26776e-06
-6.56616e-06
-6.4589e-06
-6.38438e-06
-6.31856e-06
-6.3173e-06
-6.40067e-06
-6.5856e-06
-6.89774e-06
-7.34332e-06
-7.99093e-06
-8.7449e-06
-9.74461e-06
-1.04724e-05
-1.11143e-05
-1.15537e-05
-1.18875e-05
-1.20969e-05
-1.22133e-05
-1.22341e-05
-1.21595e-05
-1.19919e-05
-1.16998e-05
-1.13031e-05
-1.07046e-05
-1.00259e-05
-9.07838e-06
-8.39524e-06
-7.8269e-06
-7.48202e-06
-7.29309e-06
-7.25035e-06
-7.31185e-06
-7.39342e-06
-7.50947e-06
-6.75755e-06
-6.61743e-06
-6.53303e-06
-6.47003e-06
-6.49271e-06
-6.62528e-06
-6.89008e-06
-7.32511e-06
-7.94356e-06
-8.89257e-06
-1.00253e-05
-1.1741e-05
-1.28152e-05
-1.37478e-05
-1.43554e-05
-1.48171e-05
-1.50995e-05
-1.52548e-05
-1.52764e-05
-1.5164e-05
-1.49243e-05
-1.45043e-05
-1.39389e-05
-1.30476e-05
-1.20228e-05
-1.03569e-05
-9.30831e-06
-8.44525e-06
-7.94028e-06
-7.6469e-06
-7.55008e-06
-7.59433e-06
-7.68292e-06
-7.83939e-06
-6.99783e-06
-6.81676e-06
-6.72474e-06
-6.67353e-06
-6.73504e-06
-6.93499e-06
-7.2972e-06
-7.86024e-06
-8.63998e-06
-9.83438e-06
-1.14128e-05
-1.43538e-05
-1.57561e-05
-1.70163e-05
-1.78149e-05
-1.84352e-05
-1.88108e-05
-1.90167e-05
-1.90396e-05
-1.88789e-05
-1.85478e-05
-1.79697e-05
-1.72126e-05
-1.59898e-05
-1.46348e-05
-1.17335e-05
-1.02665e-05
-9.16006e-06
-8.50614e-06
-8.10327e-06
-7.93764e-06
-7.95332e-06
-8.0441e-06
-8.25435e-06
-7.27986e-06
-7.04637e-06
-6.94617e-06
-6.91207e-06
-7.02187e-06
-7.29728e-06
-7.75364e-06
-8.41097e-06
-9.20149e-06
-1.05027e-05
-1.23359e-05
-1.79692e-05
-1.91542e-05
-2.05071e-05
-2.13912e-05
-2.20904e-05
-2.25124e-05
-2.27491e-05
-2.27733e-05
-2.25845e-05
-2.2209e-05
-2.15526e-05
-2.0709e-05
-1.93848e-05
-1.82459e-05
-1.26257e-05
-1.09863e-05
-9.74942e-06
-9.09076e-06
-8.60859e-06
-8.37753e-06
-8.36194e-06
-8.45839e-06
-8.74526e-06
-7.59591e-06
-7.29885e-06
-7.19621e-06
-7.1973e-06
-7.3906e-06
-7.79641e-06
-8.43045e-06
-9.20637e-06
-1.00731e-05
-1.22201e-05
-8.58875e-06
-2.0739e-05
-2.18525e-05
-2.36414e-05
-2.47377e-05
-2.5651e-05
-2.61903e-05
-2.64837e-05
-2.65091e-05
-2.6266e-05
-2.5776e-05
-2.49078e-05
-2.38524e-05
-2.20865e-05
-2.10489e-05
-8.7128e-06
-1.26705e-05
-1.05965e-05
-9.89564e-06
-9.31267e-06
-8.93574e-06
-8.84033e-06
-8.92129e-06
-9.30626e-06
-7.92486e-06
-7.55521e-06
-7.44831e-06
-7.48511e-06
-7.76448e-06
-8.30487e-06
-9.09684e-06
-9.93763e-06
-1.02849e-05
-5.85741e-06
-2.99959e-05
-2.5365e-05
-2.60697e-05
-2.70116e-05
-2.77986e-05
-2.8323e-05
-2.86054e-05
-2.86313e-05
-2.84001e-05
-2.79256e-05
-2.71844e-05
-2.62819e-05
-2.55875e-05
-3.00905e-05
-6.72642e-06
-1.09516e-05
-1.06685e-05
-1.00057e-05
-9.4925e-06
-9.31323e-06
-9.38461e-06
-9.90628e-06
-8.24997e-06
-7.81458e-06
-7.71527e-06
-7.81791e-06
-8.25702e-06
-9.11101e-06
-1.05153e-05
-1.25511e-05
-1.58225e-05
-1.9132e-05
-2.74869e-05
-2.39028e-05
-2.59323e-05
-2.78438e-05
-2.93218e-05
-3.03652e-05
-3.10475e-05
-3.13902e-05
-3.14169e-05
-3.11274e-05
-3.04988e-05
-2.95092e-05
-2.80876e-05
-2.62397e-05
-2.42745e-05
-2.80526e-05
-1.95821e-05
-1.6347e-05
-1.32021e-05
-1.13789e-05
-1.02986e-05
-9.86966e-06
-9.87025e-06
-1.05226e-05
-8.56704e-06
-8.06169e-06
-7.95624e-06
-8.09551e-06
-8.62905e-06
-9.64802e-06
-1.12952e-05
-1.35918e-05
-1.67581e-05
-1.97821e-05
-2.47357e-05
-2.58885e-05
-2.73165e-05
-2.87931e-05
-3.01793e-05
-3.12254e-05
-3.19439e-05
-3.23082e-05
-3.23352e-05
-3.20247e-05
-3.13599e-05
-3.03655e-05
-2.90301e-05
-2.75941e-05
-2.61959e-05
-2.51481e-05
-2.02399e-05
-1.72612e-05
-1.42172e-05
-1.21503e-05
-1.08618e-05
-1.03259e-05
-1.03136e-05
-1.109e-05
-8.85806e-06
-8.29292e-06
-8.18253e-06
-8.35429e-06
-8.9712e-06
-1.0136e-05
-1.19932e-05
-1.45545e-05
-1.79161e-05
-2.13931e-05
-2.52883e-05
-2.72058e-05
-2.87759e-05
-3.02488e-05
-3.16956e-05
-3.27684e-05
-3.35108e-05
-3.38824e-05
-3.39099e-05
-3.35932e-05
-3.29058e-05
-3.18855e-05
-3.04904e-05
-2.90565e-05
-2.75266e-05
-2.56637e-05
-2.1809e-05
-1.83879e-05
-1.51597e-05
-1.28483e-05
-1.13843e-05
-1.07566e-05
-1.07302e-05
-1.15963e-05
-9.10995e-06
-8.49441e-06
-8.37249e-06
-8.55552e-06
-9.21219e-06
-1.04461e-05
-1.2391e-05
-1.50544e-05
-1.84511e-05
-2.20527e-05
-2.57096e-05
-2.79969e-05
-2.97668e-05
-3.12551e-05
-3.2724e-05
-3.37969e-05
-3.45431e-05
-3.49133e-05
-3.49413e-05
-3.46268e-05
-3.39362e-05
-3.29158e-05
-3.14983e-05
-3.00457e-05
-2.83143e-05
-2.60665e-05
-2.24522e-05
-1.89126e-05
-1.56592e-05
-1.32654e-05
-1.17447e-05
-1.10941e-05
-1.10839e-05
-1.20355e-05
-9.31735e-06
-8.66356e-06
-8.53089e-06
-8.71826e-06
-9.39841e-06
-1.06751e-05
-1.26742e-05
-1.54039e-05
-1.88342e-05
-2.25088e-05
-2.6122e-05
-2.86292e-05
-3.04899e-05
-3.20198e-05
-3.35177e-05
-3.45913e-05
-3.53358e-05
-3.57018e-05
-3.57305e-05
-3.54215e-05
-3.4734e-05
-3.37136e-05
-3.22674e-05
-3.07705e-05
-2.89339e-05
-2.64717e-05
-2.29037e-05
-1.92944e-05
-1.6017e-05
-1.35741e-05
-1.20255e-05
-1.13692e-05
-1.13765e-05
-1.23891e-05
-9.47595e-06
-8.79489e-06
-8.65219e-06
-8.83782e-06
-9.52703e-06
-1.08232e-05
-1.28472e-05
-1.56105e-05
-1.90632e-05
-2.27932e-05
-2.64233e-05
-2.90235e-05
-3.09779e-05
-3.25403e-05
-3.40547e-05
-3.51277e-05
-3.58705e-05
-3.6234e-05
-3.62637e-05
-3.59592e-05
-3.5275e-05
-3.42564e-05
-3.27947e-05
-3.12673e-05
-2.93587e-05
-2.6778e-05
-2.31911e-05
-1.9529e-05
-1.6237e-05
-1.3774e-05
-1.22205e-05
-1.15716e-05
-1.15973e-05
-1.26522e-05
-9.58478e-06
-8.88758e-06
-8.73849e-06
-8.92234e-06
-9.61639e-06
-1.09244e-05
-1.29655e-05
-1.57541e-05
-1.92324e-05
-2.30076e-05
-2.66731e-05
-2.93368e-05
-3.13445e-05
-3.29341e-05
-3.44647e-05
-3.55438e-05
-3.62896e-05
-3.66543e-05
-3.66855e-05
-3.63828e-05
-3.5698e-05
-3.46753e-05
-3.31987e-05
-3.16445e-05
-2.96811e-05
-2.70361e-05
-2.34136e-05
-1.97075e-05
-1.63947e-05
-1.3915e-05
-1.23569e-05
-1.17127e-05
-1.17495e-05
-1.28286e-05
-9.64361e-06
-8.94085e-06
-8.78947e-06
-8.9728e-06
-9.66958e-06
-1.09847e-05
-1.30383e-05
-1.58467e-05
-1.93523e-05
-2.31642e-05
-2.68693e-05
-2.95733e-05
-3.1611e-05
-3.32228e-05
-3.47695e-05
-3.5861e-05
-3.66152e-05
-3.69851e-05
-3.70184e-05
-3.67144e-05
-3.60247e-05
-3.49925e-05
-3.35017e-05
-3.19262e-05
-2.99319e-05
-2.72456e-05
-2.35827e-05
-1.98396e-05
-1.65009e-05
-1.40044e-05
-1.24386e-05
-1.17934e-05
-1.18332e-05
-1.2921e-05
-9.65302e-06
-8.95525e-06
-8.80566e-06
-8.98968e-06
-9.68714e-06
-1.10042e-05
-1.30653e-05
-1.58872e-05
-1.9421e-05
-2.32622e-05
-2.70134e-05
-2.97385e-05
-3.17849e-05
-3.34129e-05
-3.49739e-05
-3.60829e-05
-3.68502e-05
-3.72292e-05
-3.72651e-05
-3.69574e-05
-3.62593e-05
-3.52137e-05
-3.37113e-05
-3.21214e-05
-3.01186e-05
-2.74088e-05
-2.36981e-05
-1.99233e-05
-1.65545e-05
-1.40424e-05
-1.24664e-05
-1.18151e-05
-1.18498e-05
-1.2931e-05
-9.61472e-06
-8.93295e-06
-8.7888e-06
-8.97337e-06
-9.6668e-06
-1.09773e-05
-1.30358e-05
-1.58598e-05
-1.94223e-05
-2.32847e-05
-2.71066e-05
-2.98342e-05
-3.18588e-05
-3.34964e-05
-3.5068e-05
-3.61993e-05
-3.69833e-05
-3.73749e-05
-3.74146e-05
-3.71017e-05
-3.63937e-05
-3.53318e-05
-3.38227e-05
-3.22262e-05
-3.02451e-05
-2.75288e-05
-2.3746e-05
-1.99469e-05
-1.65454e-05
-1.40238e-05
-1.24398e-05
-1.17806e-05
-1.18032e-05
-1.28601e-05
-9.53106e-06
-8.87598e-06
-8.73798e-06
-8.91706e-06
-9.59163e-06
-1.08704e-05
-1.28932e-05
-1.56799e-05
-1.92514e-05
-2.31221e-05
-2.70979e-05
-2.98058e-05
-3.17648e-05
-3.33899e-05
-3.49501e-05
-3.60974e-05
-3.68954e-05
-3.73008e-05
-3.73457e-05
-3.70295e-05
-3.63168e-05
-3.52483e-05
-3.37567e-05
-3.21768e-05
-3.02445e-05
-2.75552e-05
-2.36205e-05
-1.98104e-05
-1.63953e-05
-1.38998e-05
-1.2334e-05
-1.16813e-05
-1.16939e-05
-1.27103e-05
-9.40823e-06
-8.7917e-06
-8.66157e-06
-8.83e-06
-9.47179e-06
-1.06942e-05
-1.26467e-05
-1.53525e-05
-1.89162e-05
-2.27178e-05
-2.70492e-05
-2.96794e-05
-3.14852e-05
-3.31298e-05
-3.4688e-05
-3.58555e-05
-3.66652e-05
-3.70846e-05
-3.71372e-05
-3.68228e-05
-3.61131e-05
-3.50405e-05
-3.35629e-05
-3.19783e-05
-3.0208e-05
-2.75649e-05
-2.32776e-05
-1.9534e-05
-1.61211e-05
-1.36904e-05
-1.21694e-05
-1.1537e-05
-1.15401e-05
-1.25069e-05
-9.25337e-06
-8.68351e-06
-8.55532e-06
-8.69362e-06
-9.26104e-06
-1.03508e-05
-1.2105e-05
-1.45457e-05
-1.78634e-05
-2.11473e-05
-2.6754e-05
-2.95359e-05
-3.09667e-05
-3.25777e-05
-3.40667e-05
-3.52168e-05
-3.60159e-05
-3.64419e-05
-3.65048e-05
-3.62055e-05
-3.55262e-05
-3.44945e-05
-3.3104e-05
-3.15823e-05
-3.02076e-05
-2.73194e-05
-2.17754e-05
-1.85654e-05
-1.54032e-05
-1.3219e-05
-1.18629e-05
-1.13163e-05
-1.13364e-05
-1.22342e-05
-9.08614e-06
-8.56819e-06
-8.44655e-06
-8.55861e-06
-9.0548e-06
-1.00154e-05
-1.1578e-05
-1.38056e-05
-1.73236e-05
-2.12467e-05
-2.83734e-05
-2.75866e-05
-3.0261e-05
-3.25998e-05
-3.42798e-05
-3.54969e-05
-3.63113e-05
-3.67484e-05
-3.68276e-05
-3.65519e-05
-3.589e-05
-3.48286e-05
-3.32689e-05
-3.10557e-05
-2.84142e-05
-2.8893e-05
-2.20907e-05
-1.81993e-05
-1.4811e-05
-1.28014e-05
-1.15872e-05
-1.11105e-05
-1.11297e-05
-1.19158e-05
-8.91255e-06
-8.44638e-06
-8.31989e-06
-8.37911e-06
-8.74073e-06
-9.41935e-06
-1.03828e-05
-1.13132e-05
-1.14095e-05
-4.974e-06
-3.82121e-05
-3.15024e-05
-3.21278e-05
-3.31719e-05
-3.41134e-05
-3.47845e-05
-3.51821e-05
-3.52776e-05
-3.50773e-05
-3.45913e-05
-3.3851e-05
-3.29458e-05
-3.25009e-05
-3.91546e-05
-5.81467e-06
-1.24736e-05
-1.2505e-05
-1.17584e-05
-1.10828e-05
-1.08188e-05
-1.0895e-05
-1.15821e-05
-8.7362e-06
-8.33993e-06
-8.22685e-06
-8.27901e-06
-8.61623e-06
-9.28354e-06
-1.03497e-05
-1.17966e-05
-1.39168e-05
-1.73331e-05
-1.70507e-05
-2.65551e-05
-2.85643e-05
-3.0794e-05
-3.22707e-05
-3.35632e-05
-3.43982e-05
-3.48751e-05
-3.49944e-05
-3.47673e-05
-3.41658e-05
-3.3136e-05
-3.17734e-05
-2.97733e-05
-2.78827e-05
-1.93062e-05
-1.91131e-05
-1.55628e-05
-1.32903e-05
-1.18794e-05
-1.10078e-05
-1.06794e-05
-1.07078e-05
-1.12863e-05
-8.58522e-06
-8.24362e-06
-8.14288e-06
-8.18383e-06
-8.47848e-06
-9.07562e-06
-1.00382e-05
-1.14047e-05
-1.31866e-05
-1.53682e-05
-1.95005e-05
-2.51931e-05
-2.68376e-05
-2.85351e-05
-2.98126e-05
-3.1009e-05
-3.18154e-05
-3.23163e-05
-3.24547e-05
-3.22456e-05
-3.16949e-05
-3.07695e-05
-2.95279e-05
-2.79596e-05
-2.64741e-05
-2.13489e-05
-1.70333e-05
-1.48556e-05
-1.29979e-05
-1.16494e-05
-1.08303e-05
-1.05133e-05
-1.05289e-05
-1.10263e-05
-8.47296e-06
-8.18018e-06
-8.10317e-06
-8.15599e-06
-8.44436e-06
-9.02305e-06
-9.9638e-06
-1.13284e-05
-1.31997e-05
-1.56055e-05
-1.87016e-05
-2.22957e-05
-2.4222e-05
-2.58488e-05
-2.71279e-05
-2.83553e-05
-2.91824e-05
-2.96936e-05
-2.98379e-05
-2.96339e-05
-2.90748e-05
-2.81474e-05
-2.68802e-05
-2.53243e-05
-2.36244e-05
-2.04945e-05
-1.74269e-05
-1.49787e-05
-1.30091e-05
-1.1625e-05
-1.07821e-05
-1.04319e-05
-1.04077e-05
-1.08394e-05
-8.40138e-06
-8.15384e-06
-8.10505e-06
-8.17583e-06
-8.45838e-06
-9.00259e-06
-9.87166e-06
-1.11254e-05
-1.28145e-05
-1.49779e-05
-1.74639e-05
-2.01481e-05
-2.1953e-05
-2.34998e-05
-2.47805e-05
-2.59633e-05
-2.67648e-05
-2.72597e-05
-2.74057e-05
-2.72212e-05
-2.66973e-05
-2.58343e-05
-2.46165e-05
-2.31557e-05
-2.15113e-05
-1.92144e-05
-1.67948e-05
-1.4605e-05
-1.28276e-05
-1.15435e-05
-1.07457e-05
-1.03909e-05
-1.03371e-05
-1.07178e-05
-8.37056e-06
-8.17042e-06
-8.15975e-06
-8.26297e-06
-8.55536e-06
-9.07798e-06
-9.88036e-06
-1.10074e-05
-1.2485e-05
-1.43114e-05
-1.63461e-05
-1.84852e-05
-2.01782e-05
-2.17108e-05
-2.29981e-05
-2.41217e-05
-2.49015e-05
-2.5386e-05
-2.55382e-05
-2.53595e-05
-2.48646e-05
-2.40506e-05
-2.29006e-05
-2.15245e-05
-1.99553e-05
-1.80891e-05
-1.6101e-05
-1.42483e-05
-1.26953e-05
-1.15406e-05
-1.07956e-05
-1.04323e-05
-1.0341e-05
-1.06555e-05
-8.37463e-06
-8.22489e-06
-8.2597e-06
-8.40594e-06
-8.72061e-06
-9.23566e-06
-9.98711e-06
-1.10062e-05
-1.23019e-05
-1.38611e-05
-1.55762e-05
-1.73675e-05
-1.89509e-05
-2.04139e-05
-2.1642e-05
-2.26939e-05
-2.34333e-05
-2.38871e-05
-2.40319e-05
-2.38791e-05
-2.34221e-05
-2.2671e-05
-2.16174e-05
-2.03567e-05
-1.8903e-05
-1.72886e-05
-1.56014e-05
-1.40169e-05
-1.26654e-05
-1.16304e-05
-1.09303e-05
-1.05497e-05
-1.04129e-05
-1.06415e-05
-8.3917e-06
-8.29079e-06
-8.3538e-06
-8.53426e-06
-8.8718e-06
-9.39159e-06
-1.01202e-05
-1.10756e-05
-1.22624e-05
-1.36616e-05
-1.52027e-05
-1.68127e-05
-1.83343e-05
-1.97503e-05
-2.09504e-05
-2.19466e-05
-2.26563e-05
-2.30886e-05
-2.32291e-05
-2.30855e-05
-2.26526e-05
-2.19403e-05