/*--------------------------------*- C++ -*----------------------------------*\
| =========                 |                                                 |
| \\      /  F ield         | OpenFOAM: The Open Source CFD Toolbox           |
|  \\    /   O peration     | Version:  2112                                  |
|   \\  /    A nd           | Website:  www.openfoam.com                      |
|    \\/     M anipulation  |                                                 |
\*---------------------------------------------------------------------------*/
FoamFile
{
    version     2.0;
    format      ascii;
    arch        "LSB;label=32;scalar=64";
    class       surfaceScalarField;
    location    "2.8";
    object      phi;
}
// * * * * * * * * * * * * * * * * * * * * * * * * * * * * * * * * * * * * * //

dimensions      [0 3 -1 0 0 0 0];

oriented        oriented;

internalField   nonuniform List<scalar> 
188215
(
8.14208e-10
1.81149e-09
-2.6257e-09
2.94225e-09
9.08735e-10
-3.03677e-09
5.56508e-09
-7.08827e-12
-2.61575e-09
8.4778e-09
-1.00031e-09
-1.9124e-09
1.14228e-08
-1.5389e-09
-1.40611e-09
1.43206e-08
-1.76197e-09
-1.13577e-09
1.71209e-08
-1.75477e-09
-1.04553e-09
1.97173e-08
-1.51869e-09
-1.07778e-09
2.19284e-08
-1.01272e-09
-1.19834e-09
2.33358e-08
-2.82003e-11
-1.37924e-09
2.39373e-08
8.99083e-10
-1.50051e-09
2.32885e-08
2.25201e-09
-1.60324e-09
2.15416e-08
3.41066e-09
-1.66377e-09
1.87797e-08
4.42815e-09
-1.66623e-09
1.52785e-08
5.14072e-09
-1.63948e-09
1.12186e-08
5.66338e-09
-1.60349e-09
6.81279e-09
5.98073e-09
-1.57495e-09
2.24157e-09
6.13282e-09
-1.56159e-09
-2.31238e-09
6.12039e-09
-1.56644e-09
-6.66694e-09
5.94355e-09
-1.58899e-09
-1.06427e-08
5.60187e-09
-1.62606e-09
-1.40287e-08
5.0557e-09
-1.6697e-09
-1.66484e-08
4.32291e-09
-1.70325e-09
-1.82301e-08
3.28989e-09
-1.70818e-09
-1.87004e-08
2.12907e-09
-1.65874e-09
-1.79165e-08
7.9386e-10
-1.57781e-09
-1.63134e-08
-1.06625e-10
-1.4965e-09
-1.39017e-08
-1.00041e-09
-1.41123e-09
-1.11172e-08
-1.30194e-09
-1.48259e-09
-8.17415e-09
-1.14252e-09
-1.80052e-09
-5.33142e-09
-3.93769e-10
-2.44896e-09
-2.67103e-09
6.77571e-10
-3.33797e-09
-6.2601e-10
1.95504e-09
-4.00005e-09
2.9857e-09
-3.61171e-09
-1.07814e-09
6.71072e-09
-3.82109e-09
1.2948e-09
6.69557e-09
-8.15977e-09
4.77434e-09
6.0465e-09
-9.53312e-09
8.2037e-09
5.52299e-09
-9.95267e-09
1.14432e-08
5.55457e-09
-1.0333e-08
1.45088e-08
6.16516e-09
-1.09928e-08
1.74256e-08
7.35341e-09
-1.20249e-08
2.0144e-08
9.2131e-09
-1.34502e-08
2.25343e-08
1.18649e-08
-1.52678e-08
2.43409e-08
1.56322e-08
-1.7467e-08
2.50978e-08
2.02281e-08
-2.00859e-08
2.43746e-08
2.58982e-08
-2.2923e-08
2.24794e-08
3.09032e-08
-2.55973e-08
1.95344e-08
3.53157e-08
-2.79425e-08
1.58557e-08
3.86746e-08
-2.98552e-08
1.16245e-08
4.12133e-08
-3.13187e-08
7.05098e-09
4.28657e-08
-3.23115e-08
2.31466e-09
4.37032e-08
-3.28341e-08
-2.40284e-09
4.37183e-08
-3.28804e-08
-6.9201e-09
4.29113e-08
-3.24505e-08
-1.10593e-08
4.12914e-08
-3.15503e-08
-1.46121e-08
3.87886e-08
-3.01801e-08
-1.74023e-08
3.54762e-08
-2.83631e-08
-1.91174e-08
3.1125e-08
-2.612e-08
-1.96439e-08
2.62175e-08
-2.35619e-08
-1.86654e-08
2.06826e-08
-2.08673e-08
-1.6634e-08
1.63048e-08
-1.84428e-08
-1.39764e-08
1.28413e-08
-1.64993e-08
-1.09083e-08
1.06593e-08
-1.50293e-08
-7.51447e-09
9.50976e-09
-1.40461e-08
-3.8034e-09
9.3435e-09
-1.34483e-08
-1.80937e-10
9.94818e-09
-1.28931e-08
2.12733e-09
1.07437e-08
-1.10969e-08
1.05328e-08
-5.41977e-09
-2.4357e-09
1.30126e-08
-3.86618e-09
7.93311e-11
1.40566e-08
-9.87608e-09
4.03726e-09
1.41144e-08
-1.20258e-08
8.02677e-09
1.44245e-08
-1.2891e-08
1.17725e-08
1.54664e-08
-1.36575e-08
1.53181e-08
1.73633e-08
-1.47438e-08
1.87669e-08
2.02238e-08
-1.63191e-08
2.21368e-08
2.43048e-08
-1.84616e-08
2.52997e-08
2.99113e-08
-2.12094e-08
2.77737e-08
3.77449e-08
-2.45867e-08
2.90167e-08
4.74868e-08
-2.85017e-08
2.80808e-08
5.95847e-08
-3.27506e-08
2.56604e-08
7.01049e-08
-3.67813e-08
2.2032e-08
7.92738e-08
-4.03298e-08
1.76978e-08
8.6243e-08
-4.32342e-08
1.28334e-08
9.15322e-08
-4.54544e-08
7.65246e-09
9.50027e-08
-4.6956e-08
2.31934e-09
9.67793e-08
-4.7743e-08
-2.99393e-09
9.68382e-08
-4.78067e-08
-8.11525e-09
9.51795e-08
-4.71469e-08
-1.28813e-08
9.18297e-08
-4.57723e-08
-1.70781e-08
8.66652e-08
-4.36799e-08
-2.05334e-08
7.98379e-08
-4.09064e-08
-2.27445e-08
7.08336e-08
-3.74975e-08
-2.34422e-08
6.05403e-08
-3.3625e-08
-2.19192e-08
4.87282e-08
-2.95687e-08
-1.91318e-08
3.94204e-08
-2.59029e-08
-1.55546e-08
3.21124e-08
-2.28484e-08
-1.16032e-08
2.72204e-08
-2.05124e-08
-7.34388e-09
2.40957e-08
-1.88453e-08
-2.82154e-09
2.24698e-08
-1.76486e-08
1.55054e-09
2.19631e-08
-1.6387e-08
4.0156e-09
2.18091e-08
-1.35305e-08
2.01882e-08
-5.63976e-09
-3.26381e-09
1.96658e-08
-3.38941e-09
-4.96343e-10
2.1501e-08
-1.02118e-08
4.07246e-09
2.22301e-08
-1.26845e-08
8.79995e-09
2.34135e-08
-1.37165e-08
1.333e-08
2.5579e-08
-1.46426e-08
1.77459e-08
2.88964e-08
-1.5949e-08
2.22589e-08
3.35647e-08
-1.78539e-08
2.70014e-08
4.00415e-08
-2.04793e-08
3.18515e-08
4.89452e-08
-2.38839e-08
3.60005e-08
6.17164e-08
-2.81205e-08
3.83714e-08
7.81519e-08
-3.30361e-08
3.68662e-08
9.95582e-08
-3.84682e-08
3.31626e-08
1.17399e-07
-4.35903e-08
2.79463e-08
1.3258e-07
-4.80901e-08
2.20979e-08
1.43851e-07
-5.17596e-08
1.57541e-08
1.52414e-07
-5.45382e-08
9.12737e-09
1.58027e-07
-5.63977e-08
2.35827e-09
1.60914e-07
-5.73658e-08
-4.39021e-09
1.61023e-07
-5.74361e-08
-1.09544e-08
1.58352e-07
-5.66083e-08
-1.71928e-08
1.52956e-07
-5.48876e-08
-2.28886e-08
1.44608e-07
-5.22473e-08
-2.79046e-08
1.33571e-07
-4.87172e-08
-3.13518e-08
1.18645e-07
-4.43644e-08
-3.25516e-08
1.01149e-07
-3.94089e-08
-2.98022e-08
8.01605e-08
-3.41816e-08
-2.52308e-08
6.43848e-08
-2.95359e-08
-1.98032e-08
5.23349e-08
-2.565e-08
-1.42448e-08
4.43506e-08
-2.26886e-08
-8.62154e-09
3.90363e-08
-2.05639e-08
-2.94268e-09
3.58247e-08
-1.90338e-08
2.3413e-09
3.41513e-08
-1.74722e-08
5.14757e-09
3.31548e-08
-1.4152e-08
3.04878e-08
-5.15209e-09
-3.60795e-09
2.6127e-08
-2.85325e-09
-3.11111e-10
2.85622e-08
-1.03581e-08
5.11113e-09
2.98967e-08
-1.30889e-08
1.08372e-08
3.19245e-08
-1.42371e-08
1.64695e-08
3.52551e-08
-1.53084e-08
2.21836e-08
4.00497e-08
-1.68673e-08
2.83805e-08
4.6548e-08
-1.91802e-08
3.5442e-08
5.53953e-08
-2.24153e-08
4.33401e-08
6.76758e-08
-2.66288e-08
5.08037e-08
8.6165e-08
-3.19122e-08
5.55357e-08
1.11432e-07
-3.80121e-08
5.2704e-08
1.47424e-07
-4.5034e-08
4.63927e-08
1.75278e-07
-5.15684e-08
3.82445e-08
1.98087e-07
-5.73584e-08
2.97533e-08
2.14427e-07
-6.20853e-08
2.08556e-08
2.269e-07
-6.55885e-08
1.17219e-08
2.35055e-07
-6.78942e-08
2.45088e-09
2.39269e-07
-6.90836e-08
-6.7996e-09
2.39433e-07
-6.916e-08
-1.58701e-08
2.35544e-07
-6.8122e-08
-2.46586e-08
2.27709e-07
-6.59648e-08
-3.29835e-08
2.1554e-07
-6.2607e-08
-4.09001e-08
1.9951e-07
-5.80224e-08
-4.68926e-08
1.77017e-07
-5.23798e-08
-4.93245e-08
1.49594e-07
-4.60129e-08
-4.40725e-08
1.14108e-07
-3.91999e-08
-3.6078e-08
8.97797e-08
-3.33894e-08
-2.7444e-08
7.21854e-08
-2.84845e-08
-1.9338e-08
6.0999e-08
-2.47544e-08
-1.17329e-08
5.35022e-08
-2.20709e-08
-4.453e-09
4.87216e-08
-2.01769e-08
2.10693e-09
4.5941e-08
-1.83497e-08
5.64983e-09
4.42269e-08
-1.4615e-08
4.07368e-08
-4.59911e-09
-3.64244e-09
3.21411e-08
-2.37161e-09
4.78286e-10
3.50811e-08
-1.06396e-08
7.13131e-09
3.69499e-08
-1.37062e-08
1.41893e-08
3.98577e-08
-1.49912e-08
2.12625e-08
4.44429e-08
-1.62611e-08
2.868e-08
5.0805e-08
-1.81729e-08
3.71492e-08
5.91195e-08
-2.10407e-08
4.75752e-08
7.00431e-08
-2.50737e-08
6.03341e-08
8.51703e-08
-3.02534e-08
7.38961e-08
1.09288e-07
-3.6685e-08
8.35827e-08
1.45452e-07
-4.37068e-08
7.78715e-08
2.05736e-07
-5.26006e-08
6.67544e-08
2.47232e-07
-6.0836e-08
5.38266e-08
2.79468e-07
-6.84531e-08
4.13448e-08
3.01667e-07
-7.47576e-08
2.86182e-08
3.18838e-07
-7.92105e-08
1.56885e-08
3.30054e-07
-8.20693e-08
2.60242e-09
3.35883e-07
-8.35285e-08
-1.04657e-08
3.36115e-07
-8.36133e-08
-2.33391e-08
3.3074e-07
-8.2322e-08
-3.59647e-08
3.1996e-07
-7.96255e-08
-4.82806e-08
3.03185e-07
-7.5329e-08
-6.09567e-08
2.81358e-07
-6.9172e-08
-7.16869e-08
2.49451e-07
-6.17038e-08
-7.68736e-08
2.0842e-07
-5.36395e-08
-6.64486e-08
1.48636e-07
-4.49523e-08
-5.22764e-08
1.13853e-07
-3.82457e-08
-3.86365e-08
9.07726e-08
-3.22272e-08
-2.69191e-08
7.687e-08
-2.75883e-08
-1.66899e-08
6.74567e-08
-2.41838e-08
-7.30341e-09
6.11464e-08
-2.18113e-08
9.94997e-10
5.72757e-08
-1.96331e-08
5.76941e-09
5.48223e-08
-1.53699e-08
5.0645e-08
-4.13881e-09
-3.45945e-09
3.75215e-08
-1.92101e-09
1.87133e-09
4.08985e-08
-1.11482e-08
1.01446e-08
4.33301e-08
-1.46535e-08
1.89142e-08
4.72269e-08
-1.61388e-08
2.77673e-08
5.32713e-08
-1.76814e-08
3.71998e-08
6.14253e-08
-2.00528e-08
4.83202e-08
7.16044e-08
-2.36052e-08
6.2988e-08
8.39453e-08
-2.857e-08
8.27249e-08
1.0017e-07
-3.47367e-08
1.06657e-07
1.27398e-07
-4.20426e-08
1.27232e-07
1.73714e-07
-4.88364e-08
1.15012e-07
2.77351e-07
-5.93962e-08
9.53103e-08
3.36024e-07
-6.90901e-08
7.52267e-08
3.78736e-07
-7.91843e-08
5.73299e-08
4.07386e-07
-8.78228e-08
3.94013e-08
4.3005e-07
-9.32843e-08
2.1228e-08
4.44943e-07
-9.67155e-08
2.82383e-09
4.52736e-07
-9.84481e-08
-1.55691e-08
4.53052e-07
-9.85442e-08
-3.37065e-08
4.45878e-07
-9.70011e-08
-5.1567e-08
4.31572e-07
-9.37511e-08
-6.93332e-08
4.09414e-07
-8.84625e-08
-8.91829e-08
3.81187e-07
-7.99794e-08
-1.08442e-07
3.38752e-07
-7.00415e-08
-1.19979e-07
2.80492e-07
-6.05341e-08
-9.82854e-08
1.77115e-07
-5.01735e-08
-7.37612e-08
1.33062e-07
-4.3733e-08
-5.30362e-08
1.06921e-07
-3.68735e-08
-3.67895e-08
9.1946e-08
-3.13227e-08
-2.34458e-08
8.11992e-08
-2.70862e-08
-1.1454e-08
7.32845e-08
-2.41298e-08
-7.992e-10
6.81198e-08
-2.14988e-08
5.65416e-09
6.48581e-08
-1.64891e-08
6.00218e-08
-3.72264e-09
-3.06402e-09
4.20424e-08
-1.45689e-09
3.91371e-09
4.58006e-08
-1.18798e-08
1.43271e-08
4.88679e-08
-1.59512e-08
2.532e-08
5.3945e-08
-1.77109e-08
3.63704e-08
6.18274e-08
-1.96065e-08
4.79935e-08
7.23455e-08
-2.25433e-08
6.15075e-08
8.49919e-08
-2.69015e-08
7.99282e-08
9.84616e-08
-3.2937e-08
1.07018e-07
1.1308e-07
-3.99995e-08
1.47861e-07
1.34706e-07
-4.81511e-08
1.92853e-07
1.78592e-07
-4.98698e-08
1.66814e-07
3.6297e-07
-5.95795e-08
1.33822e-07
4.39568e-07
-7.05532e-08
1.04373e-07
4.92868e-07
-8.46828e-08
7.96843e-08
5.29015e-07
-9.69401e-08
5.47403e-08
5.58299e-07
-1.03305e-07
2.9156e-08
5.77758e-07
-1.07231e-07
3.13985e-09
5.87947e-07
-1.09195e-07
-2.28772e-08
5.88372e-07
-1.09303e-07
-4.84645e-08
5.79017e-07
-1.07552e-07
-7.34131e-08
5.60348e-07
-1.03828e-07
-9.80761e-08
5.31735e-07
-9.76578e-08
-1.27415e-07
4.96095e-07
-8.55686e-08
-1.6001e-07
4.4296e-07
-7.16135e-08
-1.85155e-07
3.66528e-07
-6.08911e-08
-1.38323e-07
1.81606e-07
-5.1323e-08
-9.7185e-08
1.41887e-07
-4.99632e-08
-6.9014e-08
1.21055e-07
-4.2305e-08
-4.86402e-08
1.07543e-07
-3.59706e-08
-3.22782e-08
9.56351e-08
-3.07979e-08
-1.72673e-08
8.5441e-08
-2.71674e-08
-3.57009e-09
7.83946e-08
-2.39721e-08
5.24796e-09
7.40148e-08
-1.79748e-08
6.85193e-08
-3.24956e-09
-2.45264e-09
4.54579e-08
-9.62804e-10
6.64679e-09
4.95222e-08
-1.2821e-08
1.98078e-08
5.33082e-08
-1.76013e-08
3.36687e-08
5.97922e-08
-1.97082e-08
4.74803e-08
7.00395e-08
-2.20237e-08
6.14592e-08
8.39548e-08
-2.55883e-08
7.65234e-08
1.00746e-07
-3.08182e-08
9.62326e-08
1.16728e-07
-3.79755e-08
1.27293e-07
1.28584e-07
-4.65636e-08
1.91965e-07
1.24368e-07
-5.43339e-08
2.87334e-07
1.3997e-07
-5.67462e-08
2.31945e-07
4.70857e-07
-5.24985e-08
1.79576e-07
5.53082e-07
-6.1145e-08
1.40175e-07
6.12954e-07
-8.06848e-08
1.07926e-07
6.58765e-07
-9.75006e-08
7.44414e-08
6.95836e-07
-1.04052e-07
3.943e-08
7.2138e-07
-1.08611e-07
3.58504e-09
7.34631e-07
-1.1084e-07
-3.22778e-08
7.35188e-07
-1.10953e-07
-6.73497e-08
7.23036e-07
-1.08947e-07
-1.00957e-07
6.98551e-07
-1.04596e-07
-1.33385e-07
6.62413e-07
-9.82494e-08
-1.72988e-07
6.17294e-07
-8.15971e-08
-2.25253e-07
5.57484e-07
-6.22591e-08
-2.79392e-07
4.7461e-07
-5.39423e-08
-1.8095e-07
1.41826e-07
-5.86622e-08
-1.17104e-07
1.34425e-07
-5.6384e-08
-8.47121e-08
1.37721e-07
-4.90581e-08
-6.253e-08
1.26719e-07
-4.13582e-08
-4.37676e-08
1.12112e-07
-3.52391e-08
-2.52681e-08
9.78544e-08
-3.09129e-08
-7.62315e-09
8.78342e-08
-2.70845e-08
4.46474e-09
8.17832e-08
-1.98562e-08
7.56625e-08
-2.67848e-09
-1.44493e-09
4.73551e-08
-4.52238e-10
1.03975e-08
5.1645e-08
-1.39652e-08
2.72638e-08
5.60552e-08
-1.96134e-08
4.53166e-08
6.38967e-08
-2.21572e-08
6.36185e-08
7.6733e-08
-2.49955e-08
8.1672e-08
9.52059e-08
-2.93046e-08
9.86942e-08
1.19221e-07
-3.54968e-08
1.14488e-07
1.45539e-07
-4.46049e-08
1.28406e-07
1.69211e-07
-5.45446e-08
1.79656e-07
1.44103e-07
-7.09853e-08
4.04962e-07
-8.53363e-08
3.15871e-07
5.84258e-07
-2.43102e-08
2.43814e-07
6.48398e-07
-2.32595e-08
1.95342e-07
7.03746e-07
-4.23204e-08
1.534e-07
7.61444e-07
-6.0737e-08
1.06107e-07
8.06474e-07
-6.3345e-08
5.56745e-08
8.3817e-07
-6.63574e-08
4.21648e-09
8.54099e-07
-6.80094e-08
-4.72696e-08
8.54768e-07
-6.80941e-08
-9.78057e-08
8.40184e-07
-6.66115e-08
-1.45344e-07
8.09831e-07
-6.37412e-08
-1.87731e-07
7.6612e-07
-6.13204e-08
-2.36998e-07
7.09593e-07
-4.30314e-08
-3.10323e-07
6.54961e-07
-2.41514e-08
-3.99117e-07
5.89201e-07
-2.57972e-08
-1.69031e-07
-8.82595e-08
-1.1684e-07
1.54706e-07
-7.24722e-08
-1.02602e-07
1.80324e-07
-5.68406e-08
-8.38535e-08
1.56266e-07
-4.82956e-08
-6.20776e-08
1.30901e-07
-4.05653e-08
-3.80678e-08
1.09395e-07
-3.55499e-08
-1.4355e-08
9.51263e-08
-3.10049e-08
2.60055e-09
8.70589e-08
-2.22313e-08
8.02493e-08
-1.98618e-09
-1.0395e-10
4.74369e-08
2.20906e-11
1.48291e-08
5.19988e-08
-1.52868e-08
3.61378e-08
5.67071e-08
-2.19605e-08
5.95901e-08
6.54859e-08
-2.50416e-08
8.4396e-08
8.04384e-08
-2.85113e-08
1.09472e-07
1.03591e-07
-3.34612e-08
1.30331e-07
1.38391e-07
-4.00295e-08
1.3374e-07
1.89145e-07
-4.70154e-08
1.04733e-07
2.62369e-07
-6.41511e-08
3.55025e-07
-1.06188e-07
1.86567e-07
3.20286e-07
7.7405e-08
2.52002e-07
5.43084e-07
3.98788e-08
2.4868e-07
6.74775e-07
3.22938e-08
2.03897e-07
7.72316e-07
3.39111e-08
1.41866e-07
8.37868e-07
3.06366e-08
7.43755e-08
8.79226e-07
2.64352e-08
5.04319e-09
8.99028e-07
2.44032e-08
-6.43232e-08
8.99727e-07
2.4408e-08
-1.31938e-07
8.81354e-07
2.64445e-08
-1.94282e-07
8.41515e-07
3.06587e-08
-2.39801e-07
7.7768e-07
3.39598e-08
-2.44851e-07
6.82203e-07
3.24397e-08
-1.8247e-07
5.52845e-07
3.97343e-08
3.30686e-07
7.60449e-08
-1.01543e-07
3.59844e-07
-1.03596e-07
-1.25538e-07
2.70329e-07
-6.6009e-08
-1.16371e-07
1.98308e-07
-5.12096e-08
-8.86986e-08
1.49259e-07
-4.60304e-08
-5.56852e-08
1.17355e-07
-4.0974e-08
-2.34597e-08
9.87428e-08
-3.5842e-08
-2.71561e-10
8.90616e-08
-2.51908e-08
8.13056e-08
-1.32788e-09
1.15169e-09
4.55072e-08
7.77989e-10
2.02004e-08
4.98258e-08
-1.68758e-08
4.73154e-08
5.41602e-08
-2.45682e-08
7.89659e-08
6.21538e-08
-2.83184e-08
1.16661e-07
7.55134e-08
-3.27704e-08
1.63997e-07
9.54594e-08
-3.92035e-08
2.2675e-07
1.23278e-07
-4.76398e-08
3.12108e-07
1.5893e-07
-5.5143e-08
4.33446e-07
1.99887e-07
-5.88564e-08
5.88769e-07
2.42844e-07
-4.31411e-08
4.59783e-07
8.39812e-08
4.50046e-08
4.73465e-07
2.31259e-07
7.5345e-08
4.56016e-07
4.10788e-07
1.49744e-07
3.89707e-07
5.29561e-07
2.11523e-07
2.97256e-07
6.18712e-07
2.46055e-07
1.98199e-07
6.78162e-07
2.58763e-07
1.01071e-07
7.15371e-07
2.60983e-07
5.88743e-09
7.33249e-07
2.60963e-07
-8.92749e-08
7.33859e-07
2.6103e-07
-1.86333e-07
7.17222e-07
2.6119e-07
-2.85275e-07
6.81313e-07
2.59144e-07
-3.7759e-07
6.23251e-07
2.46744e-07
-4.43796e-07
5.35568e-07
2.12841e-07
-4.60757e-07
4.17949e-07
1.51856e-07
-4.48646e-07
2.39597e-07
7.89781e-08
-5.8335e-07
8.60832e-08
4.86207e-08
-4.27894e-07
2.46789e-07
-4.24013e-08
-3.03023e-07
2.06489e-07
-6.10312e-08
-2.12137e-07
1.67194e-07
-5.97718e-08
-1.4169e-07
1.33511e-07
-5.46988e-08
-8.47559e-08
1.08668e-07
-4.82463e-08
-3.7365e-08
9.31793e-08
-4.18274e-08
-4.13589e-09
8.48752e-08
-2.90427e-08
7.77223e-08
-5.52548e-10
2.17518e-09
4.18167e-08
1.51538e-09
2.46839e-08
4.56892e-08
-1.83721e-08
5.65525e-08
4.93337e-08
-2.7042e-08
9.42475e-08
5.58854e-08
-3.14266e-08
1.40031e-07
6.65036e-08
-3.67738e-08
1.98475e-07
8.15786e-08
-4.45637e-08
2.75572e-07
1.00846e-07
-5.4664e-08
3.75842e-07
1.22792e-07
-6.41322e-08
5.01537e-07
1.42457e-07
-6.82647e-08
6.43657e-07
1.56826e-07
-5.61027e-08
6.46033e-07
1.05211e-07
-2.3605e-08
6.44362e-07
1.91705e-07
4.12248e-08
5.8893e-07
3.00887e-07
1.65333e-07
4.86141e-07
3.83853e-07
2.48497e-07
3.64392e-07
4.48128e-07
2.92333e-07
2.40546e-07
4.90878e-07
3.11131e-07
1.21625e-07
5.17959e-07
3.16333e-07
6.54219e-09
5.31009e-07
3.17322e-07
-1.085e-07
5.31509e-07
3.17392e-07
-2.27294e-07
5.19466e-07
3.16549e-07
-3.50934e-07
4.93406e-07
3.11547e-07
-4.72466e-07
4.51678e-07
2.93105e-07
-5.753e-07
3.88388e-07
2.50014e-07
-6.31337e-07
3.06133e-07
1.67854e-07
-6.34529e-07
1.97302e-07
4.54868e-08
-6.36073e-07
1.08413e-07
-2.07861e-08
-4.94995e-07
1.61429e-07
-5.57177e-08
-3.66338e-07
1.48516e-07
-7.06837e-08
-2.60217e-07
1.30372e-07
-6.92999e-08
-1.74404e-07
1.10366e-07
-6.26676e-08
-1.04748e-07
9.3947e-08
-5.4936e-08
-4.72483e-08
8.29613e-08
-4.72813e-08
-6.71707e-09
7.68077e-08
-3.24638e-08
7.07458e-08
2.59396e-10
3.02209e-09
3.66163e-08
2.1783e-09
2.84511e-08
3.99135e-08
-1.96533e-08
6.42524e-08
4.27158e-08
-2.91834e-08
1.06646e-07
4.76023e-08
-3.41106e-08
1.58086e-07
5.53065e-08
-4.02426e-08
2.23228e-07
6.57932e-08
-4.93563e-08
3.07241e-07
7.83453e-08
-6.15127e-08
4.1273e-07
9.17655e-08
-7.44629e-08
5.36165e-07
1.02423e-07
-8.34008e-08
6.61106e-07
1.11407e-07
-7.95222e-08
7.17444e-07
1.02421e-07
-5.35492e-08
7.36045e-07
1.51914e-07
2.11909e-08
6.7026e-07
2.16153e-07
1.50518e-07
5.50702e-07
2.69287e-07
2.34125e-07
4.09454e-07
3.11495e-07
2.77881e-07
2.68824e-07
3.39771e-07
2.91736e-07
1.3542e-07
3.58036e-07
2.93327e-07
7.05891e-09
3.66929e-07
2.92442e-07
-1.21255e-07
3.67347e-07
2.92476e-07
-2.54513e-07
3.59287e-07
2.93437e-07
-3.94919e-07
3.41837e-07
2.91976e-07
-5.35984e-07
3.14331e-07
2.7841e-07
-6.55779e-07
2.72826e-07
2.35358e-07
-7.22597e-07
2.20181e-07
1.5277e-07
-7.06767e-07
1.56241e-07
2.52311e-08
-6.53361e-07
1.06051e-07
-5.10432e-08
-5.2877e-07
1.15916e-07
-7.90778e-08
-4.02357e-07
1.07979e-07
-8.5875e-08
-2.90675e-07
9.86376e-08
-7.9948e-08
-1.97105e-07
8.69771e-08
-7.01815e-08
-1.19406e-07
7.69552e-08
-6.07066e-08
-5.46041e-08
6.99626e-08
-5.18037e-08
-8.46171e-09
6.58892e-08
-3.5224e-08
6.09582e-08
1.32586e-09
3.52555e-09
3.0373e-08
2.71773e-09
3.10832e-08
3.30362e-08
-2.06803e-08
6.96502e-08
3.50625e-08
-3.09137e-08
1.1503e-07
3.84883e-08
-3.62655e-08
1.69547e-07
4.37841e-08
-4.29949e-08
2.3767e-07
5.07875e-08
-5.31175e-08
3.23997e-07
5.88478e-08
-6.68294e-08
4.30591e-07
6.73204e-08
-8.21485e-08
5.52561e-07
7.43357e-08
-9.38831e-08
6.74701e-07
8.23506e-08
-9.30834e-08
7.57521e-07
8.70881e-08
-6.74872e-08
7.88095e-07
1.17555e-07
3.78552e-09
7.17211e-07
1.5668e-07
1.30357e-07
5.88785e-07
1.90236e-07
2.07478e-07
4.3703e-07
2.17372e-07
2.45878e-07
2.86711e-07
2.36018e-07
2.54071e-07
1.44348e-07
2.48273e-07
2.52128e-07
7.47387e-09
2.54344e-07
2.49458e-07
-1.2936e-07
2.54724e-07
2.49457e-07
-2.71602e-07
2.494e-07
2.52129e-07
-4.21746e-07
2.37855e-07
2.54126e-07
-5.73403e-07
2.19847e-07
2.46142e-07
-7.02224e-07
1.93262e-07
2.08384e-07
-7.74411e-07
1.60095e-07
1.32274e-07
-7.47007e-07
1.21274e-07
7.56252e-09
-6.66523e-07
9.07182e-08
-6.51512e-08
-5.44431e-07
8.65868e-08
-9.27632e-08
-4.19288e-07
7.93345e-08
-9.64988e-08
-3.06115e-07
7.33793e-08
-8.79153e-08
-2.09514e-07
6.63661e-08
-7.59893e-08
-1.27775e-07
6.03744e-08
-6.51583e-08
-5.86939e-08
5.61396e-08
-5.52582e-08
-9.09469e-09
5.35794e-08
-3.72894e-08
4.97216e-08
2.14189e-09
3.82283e-09
2.34226e-08
3.12753e-09
3.28998e-08
2.54272e-08
-2.1468e-08
7.34104e-08
2.67895e-08
-3.22375e-08
1.20765e-07
2.90321e-08
-3.78985e-08
1.77123e-07
3.24781e-08
-4.5052e-08
2.46793e-07
3.70044e-08
-5.58869e-08
3.34113e-07
4.22169e-08
-7.0689e-08
4.41118e-07
4.78985e-08
-8.75828e-08
5.63247e-07
5.33012e-08
-1.01095e-07
6.87272e-07
6.04252e-08
-1.02099e-07
7.82772e-07
6.81271e-08
-7.65392e-08
8.19722e-07
8.77147e-08
-7.11059e-09
7.46864e-07
1.12025e-07
1.17513e-07
6.13395e-07
1.33441e-07
1.90265e-07
4.55091e-07
1.50976e-07
2.247e-07
2.98567e-07
1.63363e-07
2.2918e-07
1.5035e-07
1.71628e-07
2.24861e-07
7.84984e-09
1.75827e-07
2.21017e-07
-1.34624e-07
1.76201e-07
2.20997e-07
-2.8276e-07
1.72731e-07
2.24805e-07
-4.39178e-07
1.6514e-07
2.29133e-07
-5.97483e-07
1.53338e-07
2.24814e-07
-7.31479e-07
1.36277e-07
1.90981e-07
-8.05806e-07
1.15193e-07
1.19228e-07
-7.72161e-07
9.11396e-08
-3.51059e-09
-6.787e-07
7.15911e-08
-7.43337e-08
-5.54499e-07
6.42665e-08
-1.0188e-07
-4.28965e-07
5.76493e-08
-1.03849e-07
-3.15018e-07
5.30074e-08
-9.35755e-08
-2.1685e-07
4.84033e-08
-8.02051e-08
-1.32779e-07
4.47096e-08
-6.84062e-08
-6.10332e-08
4.21717e-08
-5.77777e-08
-9.26919e-09
4.0604e-08
-3.87886e-08
3.77435e-08
2.709e-09
3.95793e-09
1.60725e-08
3.39218e-09
3.40233e-08
1.74076e-08
-2.20459e-08
7.57937e-08
1.82111e-08
-3.3192e-08
1.24379e-07
1.95052e-08
-3.90584e-08
1.8182e-07
2.15179e-08
-4.64804e-08
2.5236e-07
2.42185e-08
-5.77542e-08
3.40319e-07
2.74667e-08
-7.32094e-08
4.4793e-07
3.1278e-08
-9.09907e-08
5.71199e-07
3.54895e-08
-1.05457e-07
6.97681e-07
4.12397e-08
-1.07297e-07
7.99478e-07
4.82508e-08
-8.19208e-08
8.39992e-07
6.048e-08
-1.32787e-08
7.65912e-07
7.49224e-08
1.11183e-07
6.29316e-07
8.78859e-08
1.82151e-07
4.6699e-07
9.85807e-08
2.14721e-07
3.06529e-07
1.06385e-07
2.17439e-07
1.54477e-07
1.1168e-07
2.12e-07
8.21597e-09
1.14481e-07
2.07606e-07
-1.38038e-07
1.14874e-07
2.07581e-07
-2.90066e-07
1.12835e-07
2.11924e-07
-4.5051e-07
1.08228e-07
2.17356e-07
-6.12951e-07
1.01e-07
2.14779e-07
-7.50198e-07
9.07309e-08
1.82793e-07
-8.25852e-07
7.803e-08
1.12817e-07
-7.88729e-07
6.37179e-08
-9.70132e-09
-6.88817e-07
5.14904e-08
-7.98109e-08
-5.61995e-07
4.46369e-08
-1.07193e-07
-4.35122e-07
3.91361e-08
-1.0836e-07
-3.20282e-07
3.53547e-08
-9.71877e-08
-2.21057e-07
3.2185e-08
-8.30067e-08
-1.35578e-07
2.98566e-08
-7.06252e-08
-6.22267e-08
2.83528e-08
-5.95328e-08
-9.19351e-09
2.74273e-08
-3.98565e-08
2.55249e-08
3.02502e-09
4.00791e-09
8.54524e-09
3.51938e-09
3.46464e-08
9.20589e-09
-2.24368e-08
7.71639e-08
9.50586e-09
-3.38122e-08
1.26494e-07
9.97252e-09
-3.9797e-08
1.84623e-07
1.0755e-08
-4.73669e-08
2.55793e-07
1.19255e-08
-5.88767e-08
3.44369e-07
1.35671e-08
-7.46764e-08
4.52732e-07
1.58217e-08
-9.29065e-08
5.77195e-07
1.88669e-08
-1.0784e-07
7.05515e-07
2.29616e-08
-1.10042e-07
8.10374e-07
2.81062e-08
-8.47145e-08
8.52563e-07
3.43908e-08
-1.60994e-08
7.77744e-07
4.08809e-08
1.0886e-07
6.39278e-07
4.68238e-08
1.79529e-07
4.74559e-07
5.17338e-08
2.11566e-07
3.11682e-07
5.55567e-08
2.13704e-07
1.57236e-07
5.82482e-08
2.07878e-07
8.59908e-09
5.98251e-08
2.03293e-07
-1.40055e-07
6.02603e-08
2.03267e-07
-2.94548e-07
5.95255e-08
2.07802e-07
-4.57521e-07
5.75813e-08
2.1362e-07
-6.22501e-07
5.43621e-08
2.11618e-07
-7.61774e-07
4.98509e-08
1.80153e-07
-8.38299e-07
4.40959e-08
1.10459e-07
-7.99565e-07
3.75798e-08
-1.25959e-08
-6.96522e-07
3.11466e-08
-8.26996e-08
-5.67757e-07
2.59303e-08
-1.10058e-07
-4.39546e-07
2.18179e-08
-1.10893e-07
-3.23761e-07
1.88591e-08
-9.92888e-08
-2.23654e-07
1.67805e-08
-8.47022e-08
-1.37222e-07
1.54377e-08
-7.20137e-08
-6.28788e-08
1.46739e-08
-6.06642e-08
-9.10646e-09
1.42326e-08
-4.05775e-08
1.32717e-08
3.14672e-09
3.99811e-09
1.03706e-09
3.51008e-09
3.48396e-08
1.01945e-09
-2.2655e-08
7.76526e-08
8.13737e-10
-3.41209e-08
1.27321e-07
4.49756e-10
-4.01461e-08
1.85847e-07
-1.09008e-11
-4.77598e-08
2.57499e-07
-3.901e-10
-5.93364e-08
3.4669e-07
-3.95577e-10
-7.52279e-08
4.55851e-07
2.28307e-10
-9.35674e-08
5.81259e-07
2.07809e-09
-1.08619e-07
7.10555e-07
4.57199e-09
-1.10907e-07
8.16222e-07
8.04678e-09
-8.56072e-08
8.5862e-07
8.88724e-09
-1.68953e-08
7.83348e-07
7.6376e-09
1.08516e-07
6.44024e-07
6.64951e-09
1.79498e-07
4.78289e-07
5.78777e-09
2.11681e-07
3.14333e-07
5.64048e-09
2.13872e-07
1.58785e-07
5.74225e-09
2.08054e-07
9.02134e-09
6.12209e-09
2.03467e-07
-1.4079e-07
6.62912e-09
2.03443e-07
-2.96475e-07
7.23213e-09
2.07978e-07
-4.60673e-07
7.99236e-09
2.13787e-07
-6.26859e-07
8.8209e-09
2.11727e-07
-7.67194e-07
1.00827e-08
1.80103e-07
-8.44356e-07
1.11853e-08
1.10073e-07
-8.055e-07
1.22058e-08
-1.34819e-08
-7.01628e-07
1.09849e-08
-8.37105e-08
-5.71831e-07
7.20037e-09
-1.11067e-07
-4.42597e-07
4.41953e-09
-1.11836e-07
-3.25933e-07
2.32872e-09
-1.00133e-07
-2.25095e-07
1.39153e-09
-8.5449e-08
-1.38047e-07
1.06866e-09
-7.26791e-08
-6.3187e-08
1.06311e-09
-6.12495e-08
-9.07401e-09
1.11647e-09
-4.09969e-08
1.10622e-09
3.09152e-09
3.92769e-09
-6.25414e-09
3.36351e-09
3.46009e-08
-6.9499e-09
-2.27039e-08
7.72559e-08
-7.71836e-09
-3.41229e-08
1.26856e-07
-9.03729e-09
-4.01133e-08
1.85468e-07
-1.09484e-08
-4.76745e-08
2.57448e-07
-1.32157e-08
-5.9154e-08
3.47255e-07
-1.53042e-08
-7.48982e-08
4.57221e-07
-1.67063e-08
-9.30319e-08
5.83393e-07
-1.62464e-08
-1.07847e-07
7.12936e-07
-1.50127e-08
-1.09958e-07
8.17281e-07
-1.15903e-08
-8.47075e-08
8.58334e-07
-1.62729e-08
-1.58934e-08
7.82794e-07
-2.66528e-08
1.0983e-07
6.43585e-07
-3.57667e-08
1.81626e-07
4.78201e-07
-4.33762e-08
2.14548e-07
3.14504e-07
-4.80276e-08
2.17365e-07
1.59143e-07
-5.08107e-08
2.11914e-07
9.50237e-09
-5.174e-08
2.07503e-07
-1.40221e-07
-5.11246e-08
2.07477e-07
-2.95829e-07
-4.89984e-08
2.11838e-07
-4.59944e-07
-4.51616e-08
2.17269e-07
-6.26022e-07
-3.96634e-08
2.14562e-07
-7.66512e-07
-3.15895e-08
1.82162e-07
-8.44203e-07
-2.24021e-08
1.11279e-07
-8.06834e-07
-1.2521e-08
-1.26424e-08
-7.04293e-07
-8.56801e-09
-8.29884e-08
-5.74234e-07
-1.25454e-08
-1.10313e-07
-4.44229e-07
-1.43279e-08
-1.11258e-07
-3.26751e-07
-1.53767e-08
-9.97723e-08
-2.25351e-07
-1.47245e-08
-8.5284e-08
-1.38039e-07
-1.35969e-08
-7.26468e-08
-6.31408e-08
-1.2529e-08
-6.13062e-08
-9.08929e-09
-1.18089e-08
-4.11262e-08
-1.08372e-08
2.85415e-09
3.7698e-09
-1.30982e-08
3.07426e-09
3.38598e-08
-1.44635e-08
-2.25764e-08
7.58384e-08
-1.58907e-08
-3.38062e-08
1.24862e-07
-1.83807e-08
-3.96797e-08
1.8313e-07
-2.21428e-08
-4.70736e-08
2.55128e-07
-2.69452e-08
-5.82689e-08
3.45449e-07
-3.20482e-08
-7.35773e-08
4.56401e-07
-3.65627e-08
-9.10952e-08
5.83539e-07
-3.81342e-08
-1.0525e-07
7.13126e-07
-3.78221e-08
-1.06778e-07
8.13367e-07
-3.0322e-08
-8.1509e-08
8.50789e-07
-4.14799e-08
-1.22154e-08
7.75154e-07
-6.5163e-08
1.14146e-07
6.3722e-07
-8.57247e-08
1.87891e-07
4.73825e-07
-1.02647e-07
2.22666e-07
3.11931e-07
-1.13294e-07
2.2716e-07
1.5822e-07
-1.19819e-07
2.22719e-07
1.0093e-08
-1.22391e-07
2.18779e-07
-1.3816e-07
-1.216e-07
2.18729e-07
-2.9225e-07
-1.17473e-07
2.22565e-07
-4.54784e-07
-1.09557e-07
2.26929e-07
-6.19197e-07
-9.77383e-08
2.22488e-07
-7.58787e-07
-8.01789e-08
1.88179e-07
-8.36972e-07
-5.9526e-08
1.15309e-07
-8.03422e-07
-3.67859e-08
-9.28515e-09
-7.04965e-07
-2.69474e-08
-8.00784e-08
-5.74861e-07
-3.5213e-08
-1.07436e-07
-4.43947e-07
-3.63025e-08
-1.08939e-07
-3.2562e-07
-3.56337e-08
-9.80698e-08
-2.23902e-07
-3.23163e-08
-8.41264e-08
-1.36831e-07
-2.88064e-08
-7.18619e-08
-6.25316e-08
-2.60342e-08
-6.07939e-08
-9.0782e-09
-2.43185e-08
-4.09438e-08
-2.23192e-08
2.40375e-09
3.45017e-09
-1.91798e-08
2.63143e-09
3.24316e-08
-2.11872e-08
-2.22577e-08
7.30478e-08
-2.3359e-08
-3.31479e-08
1.20724e-07
-2.72462e-08
-3.88103e-08
1.77821e-07
-3.33438e-08
-4.5896e-08
2.49042e-07
-4.16106e-08
-5.65558e-08
3.39369e-07
-5.13476e-08
-7.10274e-08
4.51414e-07
-6.13044e-08
-8.73039e-08
5.8074e-07
-6.74064e-08
-1.00054e-07
7.11829e-07
-6.8787e-08
-1.00124e-07
8.02966e-07
-4.64051e-08
-7.50541e-08
8.3281e-07
-6.66058e-08
-4.71839e-09
7.57076e-07
-1.12529e-07
1.23101e-07
6.22189e-07
-1.51456e-07
2.00618e-07
4.63366e-07
-1.82687e-07
2.38863e-07
3.05612e-07
-2.02227e-07
2.46687e-07
1.55592e-07
-2.14109e-07
2.44311e-07
1.08431e-08
-2.18989e-07
2.41348e-07
-1.34076e-07
-2.17917e-07
2.41237e-07
-2.84619e-07
-2.109e-07
2.4397e-07
-4.43268e-07
-1.97044e-07
2.46136e-07
-6.03523e-07
-1.75723e-07
2.3824e-07
-7.40588e-07
-1.43473e-07
2.00359e-07
-8.19527e-07
-1.04265e-07
1.23679e-07
-7.93831e-07
-6.00242e-08
-2.45782e-09
-7.04305e-07
-4.23839e-08
-7.40893e-08
-5.72702e-07
-6.55444e-08
-1.01271e-07
-4.39731e-07
-6.5109e-08
-1.04165e-07
-3.20554e-07
-6.02254e-08
-9.45851e-08
-2.19199e-07
-5.1935e-08
-8.17363e-08
-1.33389e-07
-4.44379e-08
-7.0178e-08
-6.07719e-08
-3.90393e-08
-5.96121e-08
-8.80707e-09
-3.58928e-08
-4.03904e-08
-3.27892e-08
1.66296e-09
2.94221e-09
-2.41703e-08
2.04829e-09
3.02383e-08
-2.67537e-08
-2.17295e-08
6.87011e-08
-2.96931e-08
-3.21287e-08
1.14027e-07
-3.50917e-08
-3.74804e-08
1.68665e-07
-4.38718e-08
-4.41097e-08
2.37501e-07
-5.64671e-08
-5.39796e-08
3.2614e-07
-7.27653e-08
-6.72219e-08
4.38103e-07
-9.16641e-08
-8.16027e-08
5.7105e-07
-1.08196e-07
-9.21574e-08
7.09587e-07
-1.17327e-07
-8.99962e-08
7.81525e-07
-5.43652e-08
-6.39779e-08
7.95788e-07
-8.94384e-08
8.5692e-09
7.22309e-07
-1.76208e-07
1.37158e-07
5.94414e-07
-2.42889e-07
2.19328e-07
4.4415e-07
-2.94182e-07
2.61758e-07
2.93938e-07
-3.26357e-07
2.74342e-07
1.50551e-07
-3.45554e-07
2.74832e-07
1.18642e-08
-3.53559e-07
2.73256e-07
-1.27026e-07
-3.5206e-07
2.73032e-07
-2.71064e-07
-3.4101e-07
2.74148e-07
-4.22433e-07
-3.18887e-07
2.73212e-07
-5.74661e-07
-2.83848e-07
2.60353e-07
-7.05468e-07
-2.30804e-07
2.18138e-07
-7.83297e-07
-1.63259e-07
1.36822e-07
-7.73756e-07
-7.96277e-08
1.00632e-08
-7.02757e-07
-4.97386e-08
-6.36447e-08
-5.63772e-07
-1.12569e-07
-9.19611e-08
-4.27417e-07
-1.04555e-07
-9.69088e-08
-3.08669e-07
-8.96853e-08
-8.9288e-08
-2.09511e-07
-7.30278e-08
-7.80661e-08
-1.26772e-07
-5.96699e-08
-6.75064e-08
-5.73987e-08
-5.07596e-08
-5.76531e-08
-8.1256e-09
-4.57934e-08
-3.93726e-08
-4.15017e-08
5.86906e-10
2.11893e-09
-2.76094e-08
1.3202e-09
2.69892e-08
-3.06346e-08
-2.09894e-08
6.21915e-08
-3.41322e-08
-3.07633e-08
1.03499e-07
-4.0695e-08
-3.57044e-08
1.53087e-07
-5.17477e-08
-4.17119e-08
2.15651e-07
-6.85282e-08
-5.05024e-08
2.97427e-07
-9.24931e-08
-6.20485e-08
4.03848e-07
-1.24651e-07
-7.34337e-08
5.39415e-07
-1.63863e-07
-7.99002e-08
7.05287e-07
-2.13201e-07
-6.99974e-08
7.39855e-07
-4.96223e-08
-3.93111e-08
7.18149e-07
-9.10157e-08
2.32835e-08
6.53802e-07
-2.57405e-07
1.45544e-07
5.41264e-07