/*--------------------------------*- C++ -*----------------------------------*\
| =========                 |                                                 |
| \\      /  F ield         | OpenFOAM: The Open Source CFD Toolbox           |
|  \\    /   O peration     | Version:  2112                                  |
|   \\  /    A nd           | Website:  www.openfoam.com                      |
|    \\/     M anipulation  |                                                 |
\*---------------------------------------------------------------------------*/
FoamFile
{
    version     2.0;
    format      ascii;
    arch        "LSB;label=32;scalar=64";
    class       volVectorField;
    location    "2.8";
    object      U;
}
// * * * * * * * * * * * * * * * * * * * * * * * * * * * * * * * * * * * * * //

dimensions      [0 1 -1 0 0 0 0];

internalField   nonuniform List<vector> 
64906
(
(1.69561e-07 6.14179e-07 -1.34275e-06)
(2.39799e-06 -8.46243e-07 -1.38211e-06)
(6.07862e-06 -2.3129e-06 -7.95363e-07)
(1.00812e-05 -3.41878e-06 -3.0527e-08)
(1.43126e-05 -4.15629e-06 5.71133e-07)
(1.85138e-05 -4.66949e-06 9.97753e-07)
(2.26239e-05 -5.07747e-06 1.31772e-06)
(2.65203e-05 -5.42281e-06 1.59466e-06)
(3.00404e-05 -5.72174e-06 1.86021e-06)
(3.26963e-05 -5.83762e-06 2.1687e-06)
(3.42559e-05 -5.68964e-06 2.59139e-06)
(3.42589e-05 -5.23313e-06 3.07226e-06)
(3.24827e-05 -4.98397e-06 3.55261e-06)
(2.92118e-05 -4.78524e-06 4.04735e-06)
(2.46435e-05 -4.74986e-06 4.48212e-06)
(1.91674e-05 -4.74713e-06 4.83942e-06)
(1.30269e-05 -4.78432e-06 5.08563e-06)
(6.52807e-06 -4.81688e-06 5.21403e-06)
(-8.3432e-08 -4.84258e-06 5.21771e-06)
(-6.53339e-06 -4.86146e-06 5.09739e-06)
(-1.25767e-05 -4.87604e-06 4.86021e-06)
(-1.79089e-05 -4.93108e-06 4.51316e-06)
(-2.22922e-05 -5.018e-06 4.09037e-06)
(-2.53404e-05 -5.26852e-06 3.60827e-06)
(-2.68694e-05 -5.56415e-06 3.13985e-06)
(-2.66042e-05 -6.06233e-06 2.66413e-06)
(-2.47708e-05 -6.21731e-06 2.23564e-06)
(-2.18313e-05 -6.08242e-06 1.877e-06)
(-1.80283e-05 -5.68694e-06 1.47648e-06)
(-1.38905e-05 -5.07335e-06 9.22307e-07)
(-9.6931e-06 -4.07588e-06 1.28446e-07)
(-5.70264e-06 -2.45482e-06 -8.55948e-07)
(-2.08323e-06 -5.24994e-07 -1.74646e-06)
(8.71272e-08 1.19617e-06 -1.84728e-06)
(-2.03843e-06 5.21306e-06 -2.09111e-06)
(-6.1971e-07 4.06865e-06 -6.3702e-06)
(4.38841e-06 2.48359e-06 -7.5971e-06)
(9.3593e-06 1.23527e-06 -7.83951e-06)
(1.41567e-05 6.36911e-07 -8.05735e-06)
(1.86684e-05 6.28856e-07 -8.51474e-06)
(2.29775e-05 1.12656e-06 -9.26958e-06)
(2.70369e-05 2.15683e-06 -1.03242e-05)
(3.08072e-05 3.78471e-06 -1.16795e-05)
(3.38921e-05 6.31455e-06 -1.33467e-05)
(3.59311e-05 9.65245e-06 -1.53566e-05)
(3.60018e-05 1.39394e-05 -1.75412e-05)
(3.40078e-05 1.76389e-05 -1.95993e-05)
(3.04925e-05 2.08776e-05 -2.13909e-05)
(2.56293e-05 2.32615e-05 -2.2849e-05)
(1.99013e-05 2.50366e-05 -2.39625e-05)
(1.35e-05 2.61612e-05 -2.4719e-05)
(6.75663e-06 2.67183e-05 -2.51177e-05)
(-1.03079e-07 2.67076e-05 -2.51537e-05)
(-6.79233e-06 2.61294e-05 -2.48268e-05)
(-1.3087e-05 2.49849e-05 -2.41421e-05)
(-1.86571e-05 2.31924e-05 -2.31007e-05)
(-2.33185e-05 2.07996e-05 -2.17165e-05)
(-2.65898e-05 1.75632e-05 -2.00036e-05)
(-2.83131e-05 1.38962e-05 -1.80345e-05)
(-2.79381e-05 9.67545e-06 -1.59592e-05)
(-2.55787e-05 6.49333e-06 -1.40991e-05)
(-2.21487e-05 4.20666e-06 -1.26348e-05)
(-1.79405e-05 3.01085e-06 -1.15619e-05)
(-1.32999e-05 2.72642e-06 -1.08875e-05)
(-8.17112e-06 3.43459e-06 -1.05449e-05)
(-2.8794e-06 5.15133e-06 -1.02446e-05)
(2.28983e-06 7.18222e-06 -8.65005e-06)
(3.16062e-06 8.34912e-06 -3.03033e-06)
(-3.51573e-06 1.41066e-05 -1.89535e-06)
(-2.72407e-06 1.49422e-05 -7.90592e-06)
(3.01366e-06 1.45927e-05 -9.86775e-06)
(8.71601e-06 1.4462e-05 -1.04873e-05)
(1.42768e-05 1.52315e-05 -1.1019e-05)
(1.94733e-05 1.70265e-05 -1.18301e-05)
(2.44949e-05 1.99317e-05 -1.30476e-05)
(2.93781e-05 2.41905e-05 -1.47234e-05)
(3.42156e-05 3.00818e-05 -1.68877e-05)
(3.83511e-05 3.82668e-05 -1.95699e-05)
(4.14051e-05 4.82881e-05 -2.27075e-05)
(4.16895e-05 6.05313e-05 -2.61263e-05)
(3.90194e-05 7.1351e-05 -2.93727e-05)
(3.46226e-05 8.08683e-05 -3.22147e-05)
(2.8744e-05 8.81613e-05 -3.45364e-05)
(2.21044e-05 9.36929e-05 -3.6309e-05)
(1.47985e-05 9.73194e-05 -3.75089e-05)
(7.19469e-06 9.91696e-05 -3.81388e-05)
(-5.27992e-07 9.92226e-05 -3.81902e-05)
(-8.0745e-06 9.74788e-05 -3.76626e-05)
(-1.52674e-05 9.39627e-05 -3.65647e-05)
(-2.17362e-05 8.85479e-05 -3.48949e-05)
(-2.73929e-05 8.13929e-05 -3.26784e-05)
(-3.15107e-05 7.20422e-05 -2.99484e-05)
(-3.3862e-05 6.14596e-05 -2.68283e-05)
(-3.31994e-05 4.95245e-05 -2.35637e-05)
(-2.97214e-05 3.99727e-05 -2.06268e-05)
(-2.50815e-05 3.23918e-05 -1.82102e-05)
(-1.95389e-05 2.73619e-05 -1.63957e-05)
(-1.3676e-05 2.43095e-05 -1.51473e-05)
(-7.33908e-06 2.30166e-05 -1.43069e-05)
(-9.47998e-07 2.30423e-05 -1.33977e-05)
(5.26191e-06 2.33928e-05 -1.08098e-05)
(5.20778e-06 2.19466e-05 -2.8925e-06)
(-4.47455e-06 2.34911e-05 -1.35334e-06)
(-3.94742e-06 2.55911e-05 -8.07894e-06)
(2.60979e-06 2.61786e-05 -1.02783e-05)
(9.28627e-06 2.72536e-05 -1.0985e-05)
(1.59393e-05 2.95429e-05 -1.16005e-05)
(2.22924e-05 3.32679e-05 -1.25483e-05)
(2.86792e-05 3.86588e-05 -1.39959e-05)
(3.52572e-05 4.62251e-05 -1.60335e-05)
(4.23724e-05 5.65911e-05 -1.87063e-05)
(4.89429e-05 7.1162e-05 -2.20707e-05)
(5.44574e-05 8.94538e-05 -2.60105e-05)
(5.51828e-05 0.000112439 -3.0389e-05)
(5.08204e-05 0.000132154 -3.45197e-05)
(4.43381e-05 0.00014919 -3.81208e-05)
(3.61319e-05 0.000162043 -4.10467e-05)
(2.73824e-05 0.000171799 -4.3255e-05)
(1.79514e-05 0.000178202 -4.4733e-05)
(8.28768e-06 0.000181488 -4.55039e-05)
(-1.50939e-06 0.000181607 -4.55598e-05)
(-1.11132e-05 0.000178559 -4.49002e-05)
(-2.04251e-05 0.000172398 -4.35323e-05)
(-2.89883e-05 0.000162887 -4.14337e-05)
(-3.69451e-05 0.000150307 -3.86178e-05)
(-4.30933e-05 0.00013358 -3.51324e-05)
(-4.70613e-05 0.000114281 -3.11318e-05)
(-4.5831e-05 9.18074e-05 -2.69143e-05)
(-3.97422e-05 7.4293e-05 -2.31891e-05)
(-3.24859e-05 6.06215e-05 -2.01123e-05)
(-2.43782e-05 5.14334e-05 -1.78181e-05)
(-1.6439e-05 4.53899e-05 -1.6238e-05)
(-8.29075e-06 4.19191e-05 -1.51795e-05)
(-4.38567e-07 4.03392e-05 -1.40891e-05)
(6.92644e-06 3.94809e-05 -1.11645e-05)
(6.52363e-06 3.63743e-05 -2.27084e-06)
(-5.00085e-06 3.29871e-05 -7.84004e-07)
(-4.28899e-06 3.60899e-05 -8.10889e-06)
(3.46845e-06 3.75813e-05 -1.04999e-05)
(1.14785e-05 3.98822e-05 -1.12511e-05)
(1.96311e-05 4.38104e-05 -1.19419e-05)
(2.76581e-05 4.96177e-05 -1.30631e-05)
(3.6139e-05 5.76387e-05 -1.48243e-05)
(4.54699e-05 6.8683e-05 -1.7364e-05)
(5.65557e-05 8.39289e-05 -2.07231e-05)
(6.76779e-05 0.000106183 -2.50054e-05)
(7.82883e-05 0.00013543 -2.99899e-05)
(7.9842e-05 0.00017469 -3.57854e-05)
(7.17945e-05 0.000206531 -4.11648e-05)
(6.13194e-05 0.000233264 -4.58884e-05)
(4.8955e-05 0.000252848 -4.97269e-05)
(3.65791e-05 0.000267743 -5.2549e-05)
(2.34711e-05 0.000277497 -5.44058e-05)
(1.0229e-05 0.000282524 -5.53653e-05)
(-3.18501e-06 0.000282718 -5.54258e-05)
(-1.63668e-05 0.000278076 -5.45863e-05)
(-2.93546e-05 0.000268705 -5.28467e-05)
(-4.15317e-05 0.000254184 -5.01392e-05)
(-5.36201e-05 0.000234996 -4.64119e-05)
(-6.36909e-05 0.000208683 -4.18024e-05)
(-7.12462e-05 0.000177409 -3.65508e-05)
(-6.89979e-05 0.000138823 -3.09153e-05)
(-5.76255e-05 0.0001107 -2.61579e-05)
(-4.56538e-05 8.96087e-05 -2.21847e-05)
(-3.32921e-05 7.58146e-05 -1.92383e-05)
(-2.22269e-05 6.65788e-05 -1.72069e-05)
(-1.15324e-05 6.08295e-05 -1.58888e-05)
(-1.65052e-06 5.76269e-05 -1.46403e-05)
(7.42315e-06 5.56715e-05 -1.14079e-05)
(7.28031e-06 5.12226e-05 -1.60901e-06)
(-5.3152e-06 4.1986e-05 -2.5445e-07)
(-3.96508e-06 4.58713e-05 -8.27764e-06)
(5.52584e-06 4.81597e-05 -1.09427e-05)
(1.53238e-05 5.16687e-05 -1.17604e-05)
(2.54531e-05 5.72949e-05 -1.25794e-05)
(3.56679e-05 6.52456e-05 -1.39776e-05)
(4.69175e-05 7.58629e-05 -1.6212e-05)
(6.00448e-05 9.01769e-05 -1.94778e-05)
(7.71332e-05 0.000110132 -2.37432e-05)
(9.58992e-05 0.000141028 -2.91458e-05)
(0.000116738 0.000184436 -3.49905e-05)
(0.000120003 0.000250171 -4.26e-05)
(0.000104435 0.000298579 -4.96266e-05)
(8.71571e-05 0.000337405 -5.60792e-05)
(6.82986e-05 0.000364719 -6.1395e-05)
(5.05535e-05 0.000385634 -6.50837e-05)
(3.18875e-05 0.000399287 -6.74515e-05)
(1.32092e-05 0.000406361 -6.86605e-05)
(-5.7306e-06 0.000406641 -6.87288e-05)
(-2.43551e-05 0.000400119 -6.76545e-05)
(-4.29146e-05 0.000387002 -6.54166e-05)
(-6.04669e-05 0.000366587 -6.18529e-05)
(-7.90458e-05 0.000339767 -5.66528e-05)
(-9.58512e-05 0.00030142 -5.03149e-05)
(-0.000110826 0.000253681 -4.34163e-05)
(-0.000106572 0.000188691 -3.59574e-05)
(-8.47326e-05 0.000146896 -3.0357e-05)
(-6.50163e-05 0.000117396 -2.52901e-05)
(-4.6361e-05 9.91184e-05 -2.14853e-05)
(-3.10814e-05 8.68697e-05 -1.87997e-05)
(-1.70543e-05 7.89257e-05 -1.70907e-05)
(-4.44709e-06 7.41969e-05 -1.55928e-05)
(7.09761e-06 7.12402e-05 -1.1924e-05)
(7.79022e-06 6.57342e-05 -1.00273e-06)
(-5.52585e-06 5.02268e-05 2.8379e-07)
(-3.14276e-06 5.48046e-05 -8.64386e-06)
(8.72076e-06 5.78803e-05 -1.16853e-05)
(2.08814e-05 6.27249e-05 -1.2628e-05)
(3.35083e-05 7.02873e-05 -1.36465e-05)
(4.63737e-05 8.06345e-05 -1.5434e-05)
(6.08465e-05 9.39013e-05 -1.82956e-05)
(7.84529e-05 0.000110857 -2.24882e-05)
(0.000103559 0.000134102 -2.78009e-05)
(0.00013376 0.000171813 -3.42162e-05)
(0.000174984 0.000231585 -3.99458e-05)
(0.000182134 0.000342542 -4.94921e-05)
(0.000150932 0.000412954 -5.80917e-05)
(0.000122835 0.000466772 -6.70354e-05)
(9.48165e-05 0.000503327 -7.466e-05)
(6.99449e-05 0.000531872 -7.9314e-05)
(4.36084e-05 0.000550543 -8.22536e-05)
(1.73879e-05 0.00056027 -8.37336e-05)
(-9.27479e-06 0.000560656 -8.38131e-05)
(-3.54599e-05 0.000551688 -8.24897e-05)
(-6.17313e-05 0.000533741 -7.96991e-05)
(-8.64574e-05 0.000505836 -7.51872e-05)
(-0.000114252 0.000469855 -6.76868e-05)
(-0.000141839 0.000416494 -5.8865e-05)
(-0.000172398 0.000346741 -5.04047e-05)
(-0.00016375 0.000236388 -4.09891e-05)
(-0.000121192 0.000179105 -3.55363e-05)
(-9.01265e-05 0.000142929 -2.94782e-05)
(-6.31439e-05 0.000121502 -2.46857e-05)
(-4.28641e-05 0.000106809 -2.11625e-05)
(-2.48288e-05 9.66275e-05 -1.89295e-05)
(-8.78761e-06 9.02172e-05 -1.70776e-05)
(6.13643e-06 8.61646e-05 -1.27427e-05)
(8.24111e-06 7.96674e-05 -3.74803e-07)
(-5.66733e-06 5.73952e-05 8.85332e-07)
(-1.81453e-06 6.25637e-05 -9.18742e-06)
(1.32159e-05 6.64797e-05 -1.27271e-05)
(2.84987e-05 7.28288e-05 -1.38585e-05)
(4.43204e-05 8.26388e-05 -1.51528e-05)
(6.03333e-05 9.5727e-05 -1.74475e-05)
(7.80069e-05 0.00011168 -2.11012e-05)
(9.94682e-05 0.000130059 -2.64811e-05)
(0.000131762 0.000152686 -3.2949e-05)
(0.000175705 0.000192662 -4.08183e-05)
(0.000257967 0.000264502 -4.08669e-05)
(0.000275212 0.000457904 -5.02659e-05)
(0.000213351 0.000552262 -6.08233e-05)
(0.000170978 0.000620333 -7.4189e-05)
(0.000131432 0.000665767 -8.56407e-05)
(9.74327e-05 0.00070194 -9.12132e-05)
(6.03581e-05 0.000725823 -9.46917e-05)
(2.33795e-05 0.00073837 -9.6413e-05)
(-1.43607e-05 0.000738892 -9.65055e-05)
(-5.13376e-05 0.000727368 -9.49659e-05)
(-8.84293e-05 0.000704448 -9.16599e-05)
(-0.000122405 0.000669096 -8.62547e-05)
(-0.000161912 0.00062431 -7.49429e-05)
(-0.000203871 0.000556549 -6.17198e-05)
(-0.000265261 0.000462749 -5.13699e-05)
(-0.000245508 0.00026944 -4.20014e-05)
(-0.0001614 0.00020197 -4.22376e-05)
(-0.00011714 0.00016329 -3.47584e-05)
(-8.25574e-05 0.000142399 -2.89011e-05)
(-5.77322e-05 0.00012631 -2.43089e-05)
(-3.54241e-05 0.000113759 -2.14138e-05)
(-1.50854e-05 0.000105312 -1.90818e-05)
(4.41892e-06 9.99919e-05 -1.38508e-05)
(8.61801e-06 9.25822e-05 3.88501e-07)
(-5.7659e-06 6.31993e-05 1.57105e-06)
(2.89126e-08 6.89122e-05 -9.89421e-06)
(1.91247e-05 7.38604e-05 -1.40639e-05)
(3.84413e-05 8.21687e-05 -1.54399e-05)
(5.83691e-05 9.5146e-05 -1.70634e-05)
(7.82054e-05 0.000112529 -1.99216e-05)
(9.88262e-05 0.000133334 -2.44539e-05)
(0.000121626 0.00015395 -3.11592e-05)
(0.000157701 0.000174608 -3.98658e-05)
(0.0002075 0.000204676 -4.78902e-05)
(0.000367275 0.000224732 -5.03428e-05)
(0.000409935 0.000577022 -4.55874e-05)
(0.000284048 0.000704448 -5.48033e-05)
(0.00022871 0.000792457 -7.48605e-05)
(0.000177457 0.000852103 -9.13737e-05)
(0.000132559 0.000901226 -9.74862e-05)
(8.20015e-05 0.000933986 -0.00010184)
(3.11903e-05 0.000951017 -0.000103902)
(-2.08952e-05 0.000951715 -0.000104003)
(-7.17532e-05 0.000936056 -0.00010214)
(-0.00012245 0.000904609 -9.79708e-05)
(-0.000167538 0.000856608 -9.20416e-05)
(-0.000219164 0.000797795 -7.5671e-05)
(-0.000274362 0.000710003 -5.57972e-05)
(-0.000400516 0.000582754 -4.68629e-05)
(-0.000353316 0.000227824 -5.19754e-05)
(-0.00019109 0.000215314 -4.95772e-05)
(-0.000142691 0.000186479 -4.18259e-05)
(-0.000103533 0.000167598 -3.38642e-05)
(-7.64154e-05 0.000149207 -2.80972e-05)
(-4.97137e-05 0.00013204 -2.44947e-05)
(-2.39229e-05 0.000119982 -2.16227e-05)
(1.74191e-06 0.000112543 -1.52651e-05)
(8.94008e-06 0.00010408 1.31736e-06)
(-5.71253e-06 6.70874e-05 2.3675e-06)
(2.672e-06 7.31958e-05 -1.07556e-05)
(2.70978e-05 7.91077e-05 -1.56967e-05)
(5.2047e-05 8.93694e-05 -1.73799e-05)
(7.8258e-05 0.000105746 -1.94058e-05)
(0.000104698 0.000128267 -2.2911e-05)
(0.000129971 0.000155359 -2.83583e-05)
(0.000154683 0.000179427 -3.73749e-05)
(0.00018422 0.000187455 -4.76909e-05)
(0.000150866 0.000113493 -6.98268e-05)
(0.000440999 0.00020985 -7.25339e-05)
(0.000599217 0.000828502 -2.00177e-05)
(0.000373079 0.000900481 -2.36252e-05)
(0.000315808 0.000964717 -4.60684e-05)
(0.000251269 0.00103136 -6.55321e-05)
(0.000189183 0.00108627 -6.7938e-05)
(0.000116534 0.00112576 -7.11284e-05)
(4.33691e-05 0.00114619 -7.27237e-05)
(-3.12607e-05 0.00114708 -7.28041e-05)
(-0.0001045 0.00112842 -7.13714e-05)
(-0.000177398 0.00109065 -6.83141e-05)
(-0.000239925 0.00103729 -6.60895e-05)
(-0.000305381 0.000971782 -4.67506e-05)
(-0.000363303 0.0009075 -2.44992e-05)
(-0.000593814 0.000832181 -2.15728e-05)
(-0.000428234 0.000213119 -7.48708e-05)
(-0.000132653 0.000131904 -7.08694e-05)
(-0.000169269 0.000203697 -4.93926e-05)
(-0.000135658 0.00019496 -4.03185e-05)
(-0.00010566 0.000172215 -3.25449e-05)
(-7.25397e-05 0.000148657 -2.82847e-05)
(-3.80332e-05 0.000131957 -2.48251e-05)
(-3.17279e-06 0.000122038 -1.70478e-05)
(8.76191e-06 0.000112665 2.51489e-06)
(-5.59295e-06 6.86265e-05 3.20135e-06)
(5.81234e-06 7.518e-05 -1.17921e-05)
(3.64865e-05 8.19486e-05 -1.7624e-05)
(6.83696e-05 9.43144e-05 -1.96845e-05)
(0.000103041 0.000115102 -2.219e-05)
(0.000139351 0.000146567 -2.6158e-05)
(0.000173723 0.0001918 -3.18066e-05)
(0.00019912 0.000252705 -3.77366e-05)
(0.0001635 0.000331115 -5.61244e-05)
(0.000167798 0.000379121 -8.6782e-05)
(0.000272222 0.000715469 6.98849e-05)
(0.000309503 0.000913862 3.08921e-05)
(0.000379574 0.0010429 1.77172e-05)
(0.00033226 0.00115788 1.78627e-05)
(0.000251298 0.00123945 1.33302e-05)
(0.000156393 0.00129365 8.79856e-06)
(5.74789e-05 0.0013201 6.75469e-06)
(-4.29938e-05 0.00132112 6.75999e-06)
(-0.000142002 0.00129675 8.80763e-06)
(-0.000237203 0.00124472 1.33477e-05)
(-0.000318793 0.00116548 1.78949e-05)
(-0.000367762 0.00105299 1.78284e-05)
(-0.000301565 0.000926365 3.06144e-05)
(-0.000267216 0.00072809 6.84033e-05)
(-0.000164149 0.000391667 -8.42171e-05)
(-0.000156485 0.000345527 -5.74018e-05)
(-0.000183274 0.000267296 -4.11797e-05)
(-0.000149167 0.000208174 -3.68239e-05)
(-0.000104155 0.000166815 -3.26756e-05)
(-5.70183e-05 0.000141685 -2.88473e-05)
(-9.96496e-06 0.0001282 -1.93938e-05)
(8.25984e-06 0.000117242 3.78311e-06)
(-5.04557e-06 6.73105e-05 4.08667e-06)
(9.89351e-06 7.38964e-05 -1.30464e-05)
(4.79352e-05 8.06378e-05 -1.97527e-05)
(8.93883e-05 9.31823e-05 -2.22747e-05)
(0.000138321 0.000114516 -2.55229e-05)
(0.000198398 0.000147478 -3.06889e-05)
(0.000275151 0.000196705 -3.79783e-05)
(0.000382307 0.000267914 -4.44016e-05)
(0.000512224 0.000370688 -4.83382e-05)
(0.000774317 0.000513385 -3.12099e-05)
(0.000801479 0.000145078 5.00079e-05)
(0.00062195 0.000309101 6.72584e-05)
(0.000690297 0.000677149 0.000128535)
(0.000621739 0.000887284 0.000184993)
(0.0004975 0.00103678 0.000216759)
(0.000356079 0.0011361 0.000226865)
(0.000214692 0.00119739 0.000228385)
(7.66837e-05 0.00122651 0.000228285)
(-5.97614e-05 0.00122747 0.000228351)
(-0.0001977 0.00120034 0.000228585)
(-0.000338965 0.00114117 0.000227219)
(-0.000480156 0.00104426 0.000217375)
(-0.000604224 0.000897593 0.000186166)
(-0.000672714 0.000690793 0.000130357)
(-0.000602555 0.000325596 7.03413e-05)
(-0.000789484 0.000148533 5.26301e-05)
(-0.000769223 0.000516677 -3.02648e-05)
(-0.000501915 0.000380059 -4.99955e-05)
(-0.000365687 0.000280086 -4.81452e-05)
(-0.000249279 0.000211806 -4.38909e-05)
(-0.000159982 0.000166931 -3.8562e-05)
(-8.63335e-05 0.000140542 -3.37879e-05)
(-2.12622e-05 0.000126749 -2.24619e-05)
(5.96718e-06 0.000115484 5.46569e-06)
(-4.77112e-06 6.31663e-05 4.88293e-06)
(1.31968e-05 6.91757e-05 -1.42261e-05)
(5.75525e-05 7.49751e-05 -2.17752e-05)
(0.000106518 8.54993e-05 -2.4741e-05)
(0.000165288 0.000102752 -2.86643e-05)
(0.00023878 0.000127697 -3.49347e-05)
(0.000333469 0.000160509 -4.36061e-05)
(0.000461227 0.000198599 -5.19221e-05)
(0.000615784 0.000231262 -5.58367e-05)
(0.000845272 0.000247519 -4.44653e-05)
(0.000953127 0.000123431 -1.84703e-05)
(0.00093413 0.000308675 2.73245e-05)
(0.000910542 0.000500742 0.00013905)
(0.000779781 0.000642294 0.00021187)
(0.000614409 0.000751896 0.000249281)
(0.000433758 0.000825304 0.000264342)
(0.000259096 0.000871618 0.000268119)
(9.15728e-05 0.000893974 0.000268773)
(-7.2766e-05 0.000894768 0.000268838)
(-0.000240165 0.000874013 0.000268314)
(-0.0004146 0.000829342 0.000264701)
(-0.000594872 0.000757606 0.000249919)
(-0.000760134 0.000649634 0.000213135)
(-0.000891123 0.000509136 0.000141149)
(-0.000915461 0.000317046 3.10838e-05)
(-0.000939789 0.000126883 -1.60446e-05)
(-0.000836495 0.000254673 -4.40715e-05)
(-0.000604964 0.000240623 -5.77633e-05)
(-0.000444018 0.000210074 -5.61546e-05)
(-0.00030595 0.000174789 -5.03544e-05)
(-0.00019684 0.000146199 -4.40039e-05)
(-0.000107233 0.000127452 -3.82874e-05)
(-2.89171e-05 0.000117095 -2.51661e-05)
(5.0138e-06 0.000107431 6.99817e-06)
(-4.59764e-06 5.66984e-05 5.62102e-06)
(1.59236e-05 6.1953e-05 -1.52186e-05)
(6.56464e-05 6.6632e-05 -2.35026e-05)
(0.000120681 7.4899e-05 -2.6833e-05)
(0.000186815 8.80944e-05 -3.13266e-05)
(0.000269161 0.000106411 -3.86639e-05)
(0.00037414 0.00012898 -4.9106e-05)
(0.000511254 0.000153703 -6.08474e-05)
(0.000673539 0.000174024 -6.99373e-05)
(0.000870828 0.000190342 -6.89406e-05)
(0.00100502 0.000159249 -5.04145e-05)
(0.00106732 0.000248852 9.26879e-06)
(0.00103914 0.000363732 0.000125071)
(0.000886068 0.0004591 0.000195747)
(0.000693368 0.000534365 0.000231439)
(0.000485495 0.000584099 0.000240849)
(0.000288953 0.000615916 0.000240865)
(0.000101644 0.000631303 0.000239614)
(-8.13497e-05 0.000631952 0.000239644)
(-0.000268514 0.000617864 0.000240955)
(-0.000464797 0.000587343 0.00024103)
(-0.000672275 0.00053887 0.000231826)
(-0.000864996 0.000464788 0.000196705)
(-0.00101855 0.000370258 0.000126856)
(-0.00104951 0.000255907 1.27437e-05)
(-0.000992376 0.00016443 -4.8341e-05)
(-0.000860805 0.000196923 -6.84682e-05)
(-0.00066156 0.000182346 -7.18999e-05)
(-0.000492641 0.000164103 -6.53333e-05)
(-0.000344415 0.000142079 -5.64182e-05)
(-0.000223446 0.000123423 -4.85919e-05)
(-0.00012288 0.000110603 -4.19185e-05)
(-3.43724e-05 0.000103251 -2.72573e-05)
(4.56706e-06 9.51931e-05 8.34657e-06)
(-4.64052e-06 4.83581e-05 6.22385e-06)
(1.77078e-05 5.26847e-05 -1.60093e-05)
(7.13835e-05 5.61245e-05 -2.4892e-05)
(0.000130513 6.20046e-05 -2.85021e-05)
(0.000201045 7.11427e-05 -3.3417e-05)
(0.00028778 8.33177e-05 -4.15461e-05)
(0.000396935 9.744e-05 -5.32919e-05)
(0.000536281 0.000112204 -6.7242e-05)
(0.000700207 0.000123881 -7.91271e-05)
(0.000887195 0.000136191 -8.14171e-05)
(0.00103857 0.000137163 -6.29266e-05)
(0.00114001 0.000191393 -6.42166e-06)
(0.00111373 0.00026197 0.000106668)
(0.000948022 0.000321109 0.000170252)
(0.000740922 0.000368654 0.000200268)
(0.000517884 0.000401078 0.0002041)
(0.000308165 0.000422298 0.000200762)
(0.000108266 0.000432738 0.00019783)
(-8.67795e-05 0.000433302 0.000197828)
(-0.000286555 0.000423974 0.000200751)
(-0.000496068 0.00040382 0.000204109)
(-0.000718793 0.000372375 0.000200404)
(-0.0009261 0.000325697 0.000170898)
(-0.00109251 0.000267164 0.000108125)
(-0.00112235 0.00019706 -3.18451e-06)
(-0.00102581 0.000142438 -6.1007e-05)
(-0.00087615 0.00014252 -8.10646e-05)
(-0.000687063 0.000131498 -8.12111e-05)
(-0.000516119 0.000121538 -7.19617e-05)
(-0.000364904 0.000109111 -6.10207e-05)
(-0.000238475 9.83196e-05 -5.20803e-05)
(-0.000131916 9.06619e-05 -4.46572e-05)
(-3.69685e-05 8.60875e-05 -2.8801e-05)
(4.89015e-06 7.97805e-05 9.33732e-06)
(-4.75371e-06 3.88027e-05 6.69431e-06)
(1.88681e-05 4.21871e-05 -1.66097e-05)
(7.53975e-05 4.46001e-05 -2.59484e-05)
(0.000137336 4.86108e-05 -2.97586e-05)
(0.000210664 5.4772e-05 -3.49676e-05)
(0.000299856 6.2858e-05 -4.36499e-05)
(0.000411036 7.2111e-05 -5.63042e-05)
(0.000551092 8.19785e-05 -7.16917e-05)
(0.000715947 9.07704e-05 -8.52893e-05)
(0.000901369 0.000101865 -8.94036e-05)
(0.00106385 0.000112263 -7.07435e-05)
(0.00118397 0.000147037 -1.57891e-05)
(0.00115969 0.000190571 9.55828e-05)
(0.000987791 0.000228624 0.000154907)
(0.000771934 0.000259672 0.000181198)
(0.000539281 0.000281324 0.000181558)
(0.000321001 0.000295669 0.000176061)
(0.00011281 0.000302866 0.000172064)
(-9.02438e-05 0.000303401 0.000172046)
(-0.000298349 0.00029725 0.000176)
(-0.000516503 0.000283883 0.000181478)
(-0.000748959 0.000263096 0.000181201)
(-0.000965201 0.000232775 0.000155382)
(-0.00113799 0.000195243 9.68713e-05)
(-0.00116618 0.000152132 -1.26385e-05)
(-0.00105078 0.000117387 -6.89256e-05)
(-0.00088954 0.000107693 -8.91329e-05)
(-0.00070178 9.7502e-05 -8.74845e-05)
(-0.000529487 9.0027e-05 -7.65928e-05)
(-0.000376915 8.20001e-05 -6.43286e-05)
(-0.000247474 7.53423e-05 -5.45989e-05)
(-0.00013731 7.06815e-05 -4.66322e-05)
(-3.81904e-05 6.78189e-05 -2.9903e-05)
(5.37184e-06 6.29889e-05 1.00793e-05)
(-4.90637e-06 2.84547e-05 7.0133e-06)
(1.95193e-05 3.08636e-05 -1.70497e-05)
(7.79361e-05 3.23953e-05 -2.6709e-05)
(0.000141665 3.48807e-05 -3.065e-05)
(0.00021669 3.87057e-05 -3.604e-05)
(0.000307278 4.37527e-05 -4.50532e-05)
(0.000419613 4.96465e-05 -5.82339e-05)
(0.000560313 5.62918e-05 -7.43931e-05)
(0.000726562 6.31601e-05 -8.88571e-05)
(0.000913405 7.25466e-05 -9.375e-05)
(0.00108262 8.36929e-05 -7.52117e-05)
(0.00121215 0.000105971 -2.09498e-05)
(0.00118911 0.000132939 9.04406e-05)
(0.0010134 0.000156931 0.00014814)
(0.000792155 0.000176672 0.000172793)
(0.000553549 0.000190865 0.000171595)
(0.000329719 0.000200425 0.000165138)
(0.000116028 0.000205373 0.000160671)
(-9.24123e-05 0.000205917 0.000160648)
(-0.000306071 0.000202026 0.000165062)
(-0.000529881 0.000193431 0.000171487)
(-0.000768438 0.000180059 0.000172752)
(-0.000990256 0.000160957 0.000148556)
(-0.001167 0.000137394 9.16573e-05)
(-0.00119416 0.000110718 -1.78564e-05)
(-0.00106928 8.85057e-05 -7.34772e-05)
(-0.000901022 7.77451e-05 -9.35726e-05)
(-0.000711619 6.89058e-05 -9.11732e-05)
(-0.000537584 6.28999e-05 -7.94594e-05)
(-0.000383879 5.75002e-05 -6.64915e-05)
(-0.000252589 5.33672e-05 -5.63063e-05)
(-0.000140267 5.06091e-05 -4.80037e-05)
(-3.8591e-05 4.88995e-05 -3.069e-05)
(5.88658e-06 4.55021e-05 1.05462e-05)
(-5.03225e-06 1.77117e-05 7.19177e-06)
(1.98457e-05 1.91502e-05 -1.73469e-05)
(7.93783e-05 1.99373e-05 -2.72026e-05)
(0.000144177 2.11885e-05 -3.12188e-05)
(0.000220244 2.31741e-05 -3.6708e-05)
(0.000311766 2.59248e-05 -4.58985e-05)
(0.00042501 2.94062e-05 -5.93556e-05)
(0.000566562 3.37454e-05 -7.58989e-05)
(0.000734247 3.89834e-05 -9.0779e-05)
(0.000922881 4.60984e-05 -9.59969e-05)
(0.00109587 5.49517e-05 -7.74752e-05)
(0.0012298 6.80163e-05 -2.32175e-05)
(0.00120727 8.27778e-05 8.873e-05)
(0.00102935 9.61623e-05 0.000146193)
(0.000804884 0.000107236 0.000170413)
(0.000562711 0.000115511 0.000168728)
(0.000335428 0.000121198 0.000161956)
(0.00011829 0.000124316 0.000157335)
(-9.35748e-05 0.000124903 0.000157314)
(-0.00031075 0.000122922 0.000161883)
(-0.000538149 0.000118251 0.000168622)
(-0.000780463 0.000110812 0.000170372)
(-0.00100572 0.000100324 0.000146599)
(-0.0011849 8.7265e-05 8.9923e-05)
(-0.00121171 7.25904e-05 -2.01916e-05)
(-0.00108242 5.94436e-05 -7.58167e-05)
(-0.000910236 5.06541e-05 -9.59136e-05)
(-0.000718877 4.37075e-05 -9.32135e-05)
(-0.000543165 3.88426e-05 -8.11128e-05)
(-0.000388289 3.50955e-05 -6.77995e-05)
(-0.000255659 3.2494e-05 -5.73774e-05)
(-0.000141954 3.08966e-05 -4.88903e-05)
(-3.8745e-05 2.99328e-05 -3.12251e-05)
(6.24133e-06 2.788e-05 1.07986e-05)
(-5.11389e-06 6.85e-06 7.23044e-06)
(1.99122e-05 7.30898e-06 -1.75134e-05)
(7.98633e-05 7.38299e-06 -2.7448e-05)
(0.000145111 7.47204e-06 -3.14905e-05)
(0.000221699 7.73656e-06 -3.70095e-05)
(0.000313838 8.3456e-06 -4.62511e-05)
(0.000427861 9.58098e-06 -5.97827e-05)
(0.000570412 1.17299e-05 -7.64177e-05)
(0.000739372 1.52178e-05 -9.14022e-05)
(0.000929403 1.98626e-05 -9.66962e-05)
(0.00110378 2.58133e-05 -7.81954e-05)
(0.00123857 3.08623e-05 -2.38555e-05)
(0.00121583 3.47709e-05 8.85222e-05)
(0.00103688 3.84648e-05 0.000146274)
(0.000811009 4.14966e-05 0.000170623)
(0.000567323 4.42012e-05 0.000168983)
(0.000338458 4.6244e-05 0.00016222)
(0.000119719 4.76506e-05 0.000157598)
(-9.37932e-05 4.83108e-05 0.00015758)
(-0.000312658 4.8182e-05 0.000162149)
(-0.000541807 4.72659e-05 0.00016888)
(-0.000785884 4.54637e-05 0.000170584)
(-0.00101284 4.2999e-05 0.000146672)
(-0.00119335 3.95296e-05 8.96896e-05)
(-0.00122059 3.54662e-05 -2.08983e-05)
(-0.00109046 3.00634e-05 -7.66272e-05)
(-0.000916814 2.38359e-05 -9.67246e-05)
(-0.000723966 1.89635e-05 -9.39654e-05)
(-0.000546863 1.53409e-05 -8.17775e-05)
(-0.000390851 1.31258e-05 -6.83827e-05)
(-0.000257262 1.18739e-05 -5.78988e-05)
(-0.000142757 1.12813e-05 -4.93549e-05)
(-3.88311e-05 1.09829e-05 -3.1544e-05)
(6.3982e-06 1.0286e-05 1.08506e-05)
(-5.15213e-06 -3.8389e-06 7.13065e-06)
(1.97171e-05 -4.35904e-06 -1.7551e-05)
(7.93881e-05 -5.0352e-06 -2.74485e-05)
(0.000144461 -6.18921e-06 -3.14707e-05)
(0.000221035 -7.78804e-06 -3.69569e-05)
(0.000313458 -9.53461e-06 -4.61285e-05)
(0.000428122 -1.08214e-05 -5.95465e-05)
(0.000571787 -1.1128e-05 -7.60091e-05)
(0.000741881 -9.4067e-06 -9.07784e-05)
(0.000933042 -6.89795e-06 -9.59091e-05)
(0.00110668 -2.68843e-06 -7.74672e-05)
(0.00123883 -5.35361e-06 -2.30652e-05)
(0.00121495 -1.30073e-05 8.95336e-05)
(0.00103606 -1.96118e-05 0.000147989)
(0.00081056 -2.51533e-05 0.000172945)
(0.000567407 -2.82958e-05 0.000171824)
(0.000338836 -3.00542e-05 0.000165353)
(0.000120341 -3.03966e-05 0.000160876)
(-9.30357e-05 -2.96108e-05 0.000160858)
(-0.000311762 -2.77443e-05 0.000165292)
(-0.000540821 -2.46482e-05 0.000171727)
(-0.000784675 -2.04409e-05 0.000172899)
(-0.00101164 -1.42946e-05 0.00014835)
(-0.0011925 -7.55553e-06 9.06279e-05)
(-0.00122119 -3.82329e-07 -2.02338e-05)
(-0.00109378 1.5316e-06 -7.60367e-05)
(-0.000920845 -3.30382e-06 -9.60887e-05)
(-0.000726853 -6.42767e-06 -9.34897e-05)
(-0.0005486 -8.7754e-06 -8.14995e-05)
(-0.00039151 -9.20454e-06 -6.82728e-05)
(-0.000257366 -8.84012e-06 -5.78907e-05)
(-0.000142661 -8.22742e-06 -4.94099e-05)
(-3.88365e-05 -7.75152e-06 -3.16541e-05)
(6.36507e-06 -7.07865e-06 1.07043e-05)
(-5.16799e-06 -1.40688e-05 6.88918e-06)
(1.91938e-05 -1.55826e-05 -1.74532e-05)
(7.78122e-05 -1.71445e-05 -2.71929e-05)
(0.000141971 -1.98295e-05 -3.11431e-05)
(0.000217836 -2.37993e-05 -3.65196e-05)
(0.000310002 -2.86908e-05 -4.54819e-05)
(0.000424952 -3.35681e-05 -5.85552e-05)
(0.000569875 -3.74667e-05 -7.44829e-05)
(0.000741265 -3.80283e-05 -8.8648e-05)
(0.000934257 -3.6998e-05 -9.32248e-05)
(0.00110506 -3.08009e-05 -7.47765e-05)
(0.00122963 -4.18667e-05 -1.9949e-05)
(0.00120315 -6.45508e-05 9.31173e-05)
(0.00102568 -8.45874e-05 0.000153372)
(0.000802663 -0.000101282 0.000179956)
(0.000562466 -0.000111727 0.000180314)
(0.000336317 -0.000118099 0.000174705)
(0.000120137 -0.00012049 0.000170631)
(-9.11363e-05 -0.000119503 0.000170595)
(-0.000307674 -0.000115186 0.000174583)
(-0.000534558 -0.000107111 0.000180111)
(-0.000775861 -9.52765e-05 0.000179757)
(-0.00100085 -7.78341e-05 0.000153531)
(-0.00118089 -5.77058e-05 9.39821e-05)
(-0.00121267 -3.59946e-05 -1.73761e-05)
(-0.00109288 -2.63079e-05 -7.35782e-05)
(-0.00092273 -3.3457e-05 -9.36525e-05)
(-0.000726955 -3.54531e-05 -9.15834e-05)
(-0.00054754 -3.59671e-05 -8.01587e-05)
(-0.000389431 -3.34665e-05 -6.74026e-05)
(-0.000255333 -3.04202e-05 -5.73078e-05)
(-0.000141256 -2.78417e-05 -4.90211e-05)
(-3.85674e-05 -2.61756e-05 -3.15373e-05)
(6.19167e-06 -2.40193e-05 1.03435e-05)
(-5.22686e-06 -2.34309e-05 6.49635e-06)
(1.81651e-05 -2.58999e-05 -1.72082e-05)
(7.47726e-05 -2.84637e-05 -2.66623e-05)
(0.000136982 -3.29676e-05 -3.04787e-05)
(0.000210976 -3.98701e-05 -3.56446e-05)
(0.000301693 -4.88895e-05 -4.41952e-05)
(0.000415852 -5.88668e-05 -5.65755e-05)
(0.000561736 -6.82298e-05 -7.13652e-05)
(0.000734974 -7.24918e-05 -8.41614e-05)
(0.000933343 -7.29923e-05 -8.7228e-05)
(0.00109912 -5.57442e-05 -6.90906e-05)
(0.0012072 -7.71281e-05 -1.33914e-05)
(0.00117533 -0.000124095 0.000100975)
(0.00100121 -0.000163739 0.000164986)
(0.000784019 -0.00019613 0.000194866)
(0.000550572 -0.000216639 0.000198354)
(0.000329916 -0.000229271 0.000194628)
(0.000118855 -0.0002344 0.000191444)
(-8.77005e-05 -0.000233096 0.000191358)
(-0.000299256 -0.000225389 0.00019435)
(-0.000520913 -0.00021042 0.000197881)
(-0.000755963 -0.000187886 0.00019429)
(-0.000975785 -0.000154374 0.000164676)
(-0.00115341 -0.000114517 0.00010134)
(-0.00119137 -6.92905e-05 -1.13745e-05)
(-0.001088 -5.04689e-05 -6.82872e-05)
(-0.00092267 -6.89036e-05 -8.80788e-05)
(-0.000721658 -6.96887e-05 -8.74488e-05)
(-0.000540655 -6.69533e-05 -7.72897e-05)
(-0.000382021 -5.96382e-05 -6.55399e-05)
(-0.000249328 -5.24076e-05 -5.60181e-05)
(-0.000137406 -4.69047e-05 -4.81027e-05)
(-3.74612e-05 -4.35754e-05 -3.11515e-05)
(6.07661e-06 -3.99003e-05 9.70373e-06)
(-5.34713e-06 -3.15065e-05 5.97368e-06)
(1.65569e-05 -3.49137e-05 -1.67942e-05)