/*--------------------------------*- C++ -*----------------------------------*\
| =========                 |                                                 |
| \\      /  F ield         | OpenFOAM: The Open Source CFD Toolbox           |
|  \\    /   O peration     | Version:  2112                                  |
|   \\  /    A nd           | Website:  www.openfoam.com                      |
|    \\/     M anipulation  |                                                 |
\*---------------------------------------------------------------------------*/
FoamFile
{
    version     2.0;
    format      ascii;
    arch        "LSB;label=32;scalar=64";
    class       volScalarField;
    location    "2.3";
    object      epsilon;
}
// * * * * * * * * * * * * * * * * * * * * * * * * * * * * * * * * * * * * * //

dimensions      [0 2 -3 0 0 0 0];

internalField   nonuniform List<scalar> 
64906
(
0.000684262
0.000768609
0.000814907
0.000833384
0.000839812
0.000841846
0.000842448
0.000842626
0.000842688
0.000842717
0.000842736
0.000842747
0.000842752
0.00084275
0.000842743
0.000842729
0.000842713
0.000842695
0.000842682
0.000842695
0.000842711
0.000842724
0.000842732
0.000842733
0.000842726
0.000842707
0.000842653
0.00084248
0.000841881
0.00083985
0.000833425
0.000814951
0.000768653
0.000684295
0.00076864
0.00131363
0.00160375
0.00173294
0.00178504
0.00180406
0.00181036
0.00181227
0.0018128
0.00181291
0.00181291
0.00181291
0.00181293
0.00181296
0.001813
0.00181302
0.00181304
0.00181305
0.00181305
0.00181304
0.00181303
0.00181301
0.00181297
0.00181293
0.00181289
0.00181277
0.00181228
0.00181043
0.00180419
0.00178521
0.00173312
0.00160392
0.00131377
0.000768716
0.000814998
0.00160386
0.00205357
0.00226933
0.00236337
0.00240042
0.00241359
0.00241775
0.00241877
0.00241876
0.00241853
0.00241838
0.00241839
0.00241851
0.00241867
0.00241879
0.00241886
0.00241889
0.0024189
0.00241887
0.00241881
0.00241871
0.00241856
0.00241842
0.00241834
0.00241817
0.00241725
0.00241336
0.00240046
0.0023636
0.00226965
0.0020539
0.00160412
0.000815124
0.000833524
0.00173314
0.00226946
0.00253907
0.00266221
0.00271294
0.00273153
0.00273711
0.00273769
0.00273643
0.00273488
0.00273389
0.00273353
0.00273363
0.00273389
0.00273406
0.00273413
0.00273416
0.00273417
0.00273415
0.0027341
0.00273395
0.0027337
0.00273358
0.00273381
0.00273429
0.00273403
0.00272948
0.002712
0.00266206
0.00253934
0.00226988
0.0017335
0.000833691
0.000839979
0.0017853
0.00236358
0.00266231
0.00280245
0.0028614
0.00288266
0.00288743
0.00288479
0.00287898
0.00287315
0.00286962
0.0028682
0.00286816
0.00286856
0.00286868
0.00286861
0.00286855
0.00286856
0.00286865
0.00286874
0.00286864
0.00286824
0.00286825
0.00286951
0.00287238
0.00287595
0.00287463
0.00285705
0.00280074
0.00266204
0.00236391
0.00178571
0.00084018
0.000842024
0.00180434
0.00240067
0.00271309
0.00286147
0.00292372
0.00294396
0.00294334
0.00293083
0.00291217
0.00289487
0.00288592
0.00288291
0.0028832
0.00288425
0.0028842
0.0028837
0.00288339
0.0028834
0.00288374
0.00288427
0.00288435
0.0028833
0.00288299
0.00288581
0.00289403
0.00290881
0.00291962
0.00291012
0.00285543
0.00271117
0.00240054
0.00180469
0.00084225
0.000842627
0.00181064
0.00241384
0.00273172
0.00288286
0.00294422
0.00295827
0.00294348
0.00290656
0.00285586
0.00281122
0.00279535
0.00279375
0.00279745
0.00280114
0.00280096
0.00279969
0.00279895
0.00279896
0.00279974
0.00280104
0.00280125
0.00279759
0.00279386
0.00279527
0.0028104
0.00285247
0.00289504
0.00290914
0.00286691
0.00272597
0.00241253
0.00181076
0.000842866
0.000842795
0.00181252
0.00241799
0.00273742
0.00288805
0.00294457
0.00294508
0.00290088
0.00281103
0.00268613
0.00257815
0.00256984
0.00258787
0.00260566
0.00261696
0.00261752
0.00261564
0.00261455
0.00261457
0.0026157
0.00261761
0.0026171
0.00260582
0.00258801
0.00256984
0.00257744
0.00268295
0.00279972
0.00286651
0.00285301
0.00272444
0.00241442
0.00181216
0.000843025
0.000842837
0.00181301
0.00241904
0.00273833
0.00288654
0.00293477
0.00291329
0.00281842
0.00262705
0.00233629
0.00206891
0.00215543
0.00225657
0.00231386
0.00234053
0.0023449
0.00234421
0.00234356
0.00234358
0.00234428
0.00234501
0.00234068
0.00231405
0.00225678
0.00215556
0.00206842
0.00233358
0.00261634
0.00278461
0.00282149
0.0027144
0.00241208
0.00181187
0.00084303
0.000842845
0.00181309
0.00241916
0.00273784
0.00288318
0.00292214
0.00287464
0.00271262
0.00235903
0.0017228
0.00106759
0.00151704
0.0018472
0.00198113
0.00202717
0.00204029
0.00204336
0.00204394
0.00204396
0.00204342
0.00204038
0.00202732
0.00198134
0.00184749
0.00151736
0.00106743
0.00172089
0.00234913
0.00267951
0.00278335
0.00270198
0.00240862
0.00181111
0.000842981
0.000842839
0.00181308
0.00241921
0.00273765
0.00288165
0.00291582
0.0028532
0.00264419
0.00213966
0.00109111
0.000983319
0.00154849
0.00174816
0.00180638
0.00182209
0.00182565
0.0018263
0.0018263
0.00182567
0.00182214
0.00180647
0.00174832
0.00154876
0.000983483
0.00109033
0.00213045
0.00261145
0.00276208
0.00269565
0.00240692
0.00181067
0.000842952
0.000842822
0.00181307
0.00241945
0.00273848
0.00288402
0.00292258
0.00287329
0.00270674
0.00234492
0.00169802
0.00104916
0.00142814
0.00172448
0.00184104
0.00187691
0.00188778
0.00188931
0.00188915
0.00188914
0.0018893
0.00188775
0.00187688
0.00184101
0.00172447
0.001428
0.00104875
0.00169559
0.0023347
0.00267337
0.00278165
0.00270189
0.00240873
0.00181096
0.000842954
0.000842796
0.00181308
0.00241985
0.00273995
0.00288855
0.00293578
0.00290999
0.00280403
0.00259
0.00226052
0.00193761
0.00192612
0.00194078
0.00195202
0.00195652
0.00195728
0.00195637
0.0019557
0.00195569
0.00195633
0.00195722
0.00195642
0.00195187
0.00194054
0.00192565
0.00193649
0.0022573
0.00257896
0.00276986
0.00281756
0.00271431
0.00241251
0.00181174
0.000842966
0.000842761
0.00181309
0.00242024
0.00274139
0.0028929
0.00294797
0.00294157
0.00287913
0.00275071
0.00255669
0.00234253
0.00219184
0.00207689
0.00202564
0.00200763
0.00200141
0.00199896
0.00199805
0.00199803
0.00199891
0.00200132
0.0020075
0.00202543
0.00207658
0.00219135
0.0023413
0.00255313
0.00273911
0.00284426
0.00284837
0.00272569
0.0024161
0.00181249
0.000842957
0.000842721
0.00181308
0.00242052
0.00274243
0.00289595
0.00295607
0.00296133
0.00292243
0.00283374
0.00268978
0.00250321
0.00230874
0.00214253
0.0020627
0.00203315
0.00202326
0.00201992
0.00201881
0.00201878
0.00201985
0.00202315
0.00203299
0.00206248
0.00214221
0.0023081
0.00250197
0.00268607
0.00282183
0.00288709
0.00286756
0.00273318
0.00241854
0.00181298
0.000842923
0.000842678
0.00181306
0.0024207
0.00274306
0.00289769
0.00296048
0.00297148
0.00294325
0.00287061
0.00274372
0.00256346
0.00235443
0.00216904
0.00207803
0.00204368
0.00203218
0.00202835
0.00202704
0.002027
0.00202826
0.00203205
0.00204351
0.0020778
0.00216872
0.00235378
0.00256222
0.00273995
0.00285854
0.00290765
0.00287735
0.0027372
0.00241989
0.00181323
0.000842869
0.000842634
0.00181304
0.0024208
0.00274339
0.00289857
0.00296255
0.00297597
0.00295193
0.00288505
0.00276348
0.00258436
0.00237037
0.00217836
0.00208347
0.00204739
0.00203526
0.00203117
0.00202967
0.00202962
0.00203105
0.00203511
0.00204721
0.00208323
0.00217803
0.00236973
0.00258311
0.00275969
0.00287291
0.0029162
0.00288166
0.00273905
0.00242053
0.00181333
0.000842808
0.000842592
0.00181302
0.00242085
0.00274355
0.00289894
0.00296336
0.00297762
0.00295495
0.00288983
0.0027697
0.00259067
0.00237516
0.00218115
0.0020851
0.00204848
0.00203612
0.0020319
0.00203025
0.00203018
0.00203177
0.00203597
0.00204829
0.00208486
0.00218082
0.00237452
0.00258943
0.0027659
0.00287767
0.00291917
0.00288324
0.00273976
0.00242079
0.00181336
0.000842746
0.000842558
0.00181301
0.00242086
0.00274359
0.00289899
0.00296344
0.00297773
0.00295509
0.00289
0.0027699
0.00259088
0.00237536
0.00218128
0.00208518
0.00204851
0.00203611
0.00203183
0.00203009
0.00203001
0.00203168
0.00203595
0.00204832
0.00208493
0.00218095
0.00237473
0.00258966
0.00276612
0.00287786
0.00291933
0.00288335
0.00273984
0.00242083
0.00181335
0.000842693
0.000842555
0.00181302
0.00242085
0.00274351
0.00289874
0.00296279
0.00297629
0.00295235
0.00288558
0.0027641
0.00258502
0.00237101
0.00217877
0.00208372
0.0020475
0.00203524
0.00203099
0.00202926
0.00202917
0.00203083
0.00203507
0.0020473
0.00208348
0.00217845
0.00237041
0.00258383
0.00276037
0.0028735
0.00291666
0.00288201
0.00273928
0.00242065
0.00181333
0.00084269
0.000842592
0.00181304
0.00242079
0.00274325
0.00289799
0.0029609
0.00297204
0.00294398
0.00287154
0.00274484
0.00256471
0.00235566
0.00216983
0.00207854
0.00204394
0.00203222
0.00202814
0.00202653
0.00202646
0.00202799
0.00203205
0.00204375
0.00207831
0.00216954
0.00235511
0.00256359
0.0027412
0.00285959
0.00290846
0.00287796
0.0027376
0.0024201
0.00181324
0.000842744
0.000842636
0.00181307
0.00242066
0.0027427
0.00289636
0.00295666
0.00296213
0.0029235
0.00283515
0.00269156
0.0025053
0.00231082
0.00214385
0.00206357
0.00203365
0.00202346
0.00201982
0.00201843
0.00201837
0.00201969
0.0020233
0.00203348
0.00206337
0.00214361
0.00231039
0.0025043
0.00268809
0.00282344
0.00288831
0.00286843
0.00273377
0.00241885
0.00181302
0.0008428
0.000842679
0.00181309
0.00242041
0.00274174
0.00289344
0.00294873
0.00294262
0.00288057
0.00275269
0.00255937
0.00234583
0.00219461
0.00207881
0.00202685
0.00200836
0.00200176
0.00199902
0.0019979
0.00199786
0.00199892
0.00200163
0.00200822
0.00202671
0.00207867
0.00219442
0.00234505
0.00255622
0.00274139
0.0028459
0.00284952
0.00272645
0.00241651
0.00181257
0.000842841
0.000842717
0.00181309
0.00242006
0.00274035
0.00288917
0.00293667
0.00291122
0.00280577
0.00259251
0.0022641
0.00194232
0.00192995
0.00194266
0.00195276
0.00195659
0.00195694
0.00195578
0.00195497
0.00195494
0.0019557
0.00195683
0.00195645
0.0019526
0.00194257
0.00193006
0.00194191
0.00226148
0.00258181
0.00277178
0.00281889
0.00271519
0.002413
0.00181186
0.000842855
0.000842746
0.00181307
0.00241963
0.00273884
0.00288458
0.00292342
0.00287448
0.00270847
0.00234752
0.00170181
0.00105124
0.00142982
0.00172244
0.00183702
0.00187163
0.00188189
0.00188316
0.00188288
0.00188286
0.00188306
0.00188166
0.00187117
0.00183624
0.00172163
0.00142991
0.00105098
0.00170003
0.00233734
0.002675
0.00278281
0.00270271
0.00240922
0.00181109
0.000842849
0.000842761
0.00181298
0.00241911
0.00273756
0.00288165
0.00291598
0.00285353
0.00264459
0.00214009
0.0010912
0.000977625
0.00153113
0.00172335
0.00177679
0.00179064
0.00179359
0.00179401
0.00179392
0.00179325
0.00178976
0.00177473
0.00171929
0.00152535
0.000974641
0.00108947
0.00212912
0.00261063
0.00276195
0.00269582
0.00240709
0.00181068
0.000842847
0.000842738
0.00181253
0.00241796
0.00273603
0.00288102
0.00291989
0.00287232
0.00270996
0.00235556
0.00171851
0.00106328
0.00148276
0.00178455
0.00189013
0.00191832
0.00192606
0.0019281
0.00192849
0.00192832
0.00192731
0.00192359
0.00191151
0.00187474
0.00175856
0.00146028
0.00105604
0.00170735
0.00233846
0.00267304
0.00277981
0.00270005
0.0024076
0.00181065
0.000842852
0.000842591
0.00181075
0.00241398
0.00273078
0.00287733
0.00292461
0.00290229
0.00280551
0.00260922
0.00230742
0.00201735
0.00205284
0.00208734
0.00207279
0.00205776
0.00205114
0.00204906
0.00204844
0.00204815
0.00204765
0.00204627
0.00204287
0.00203526
0.00201613
0.00198155
0.00196575
0.00227108
0.0025798
0.00276343
0.00280856
0.00270607
0.00240707
0.00180969
0.000842761
0.00084201
0.00180456
0.00240108
0.00271301
0.00285866
0.00291232
0.00291066
0.00286254
0.00276277
0.00261451
0.0024585
0.00236463
0.00226426
0.00215827
0.00210686
0.00208832
0.00208269
0.00208117
0.00208079
0.00208079
0.00208143
0.00208474
0.00209786
0.00213901
0.00223694
0.00236236
0.00255253
0.00272131
0.00281631
0.00281767
0.00269865
0.00239745
0.00180428
0.000842221
0.000839988
0.00178562
0.00236424
0.00266299
0.00280198
0.00285667
0.00286667
0.00284661
0.00279736
0.00271775
0.00261439
0.0024982
0.00235956
0.00222526
0.00216071
0.00213729
0.00213014
0.00212823
0.00212783
0.00212805
0.0021296
0.00213589
0.00215752
0.00221952
0.0023538
0.00250462
0.00264802
0.00275315
0.00280164
0.00277959
0.00265582
0.00236291
0.00178587
0.000840221
0.00083356
0.00173352
0.00227029
0.00254022
0.00266318
0.00271231
0.00272599
0.00271988
0.00269679
0.00265389
0.0025878
0.0024972
0.00238574
0.0022798
0.00222401
0.00220216
0.00219522
0.00219337
0.00219301
0.00219327
0.00219495
0.00220165
0.00222282
0.00227804
0.00238476
0.00250066
0.0025982
0.00266143
0.0026832
0.00265243
0.00253747
0.00227031
0.00173405
0.000833794
0.000815069
0.00160427
0.00205446
0.00227067
0.00236497
0.00240176
0.00241335
0.00241297
0.00240368
0.00238348
0.0023485
0.00229614
0.00223034
0.002168
0.00213248
0.00211748
0.00211241
0.002111
0.00211072
0.00211096
0.00211232
0.00211729
0.00213212
0.00216752
0.00223019
0.00229725
0.00235084
0.00238266
0.00238922
0.00236119
0.00227036
0.00205512
0.00160487
0.000815287
0.00076874
0.00131401
0.0016045
0.00173404
0.00178647
0.00180569
0.00181186
0.00181275
0.00181032
0.00180374
0.00179102
0.00177059
0.00174404
0.00171835
0.00170286
0.00169593
0.00169345
0.0016927
0.00169256
0.00169271
0.00169346
0.00169592
0.00170282
0.00171828
0.00174405
0.00177085
0.0017913
0.00180236
0.00180258
0.00178616
0.00173467
0.00160522
0.0013145
0.000768919
0.000684347
0.000768796
0.000815247
0.000833878
0.000840455
0.000842643
0.000843395
0.000843677
0.000843697
0.000843396
0.000842597
0.000841012
0.000838685
0.000836225
0.000834674
0.00083391
0.000833553
0.00083336
0.000833286
0.000833372
0.000833564
0.000833911
0.000834659
0.00083619
0.000838631
0.000840951
0.00084252
0.000843184
0.000842917
0.000840883
0.000834292
0.000815576
0.00076901
0.000684464
0.000896182
0.00122123
0.00141122
0.00149668
0.0015306
0.00154272
0.00154665
0.00154781
0.00154809
0.00154812
0.00154808
0.00154802
0.00154797
0.00154793
0.0015479
0.00154788
0.00154785
0.00154784
0.00154784
0.00154785
0.00154787
0.00154789
0.00154792
0.00154795
0.00154798
0.00154796
0.00154771
0.0015466
0.00154271
0.00153061
0.0014967
0.00141125
0.00122126
0.000896213
0.00122123
0.00145183
0.00166906
0.00177991
0.00182787
0.00184621
0.00185248
0.00185438
0.00185485
0.00185487
0.00185477
0.00185466
0.00185459
0.00185454
0.00185452
0.0018545
0.00185449
0.00185448
0.00185448
0.00185449
0.0018545
0.00185452
0.00185455
0.00185458
0.00185463
0.00185459
0.00185417
0.00185235
0.00184615
0.00182787
0.00177993
0.0016691
0.00145187
0.00122127
0.00141129
0.0016691
0.00193393
0.00207847
0.00214541
0.00217278
0.00218273
0.00218585
0.00218652
0.00218636
0.00218599
0.00218569
0.00218552
0.00218545
0.00218543
0.00218543
0.00218541
0.00218541
0.00218541
0.00218542
0.00218543
0.00218545
0.00218546
0.00218551
0.00218562
0.00218566
0.00218509
0.00218221
0.00217251
0.00214533
0.0020785
0.00193401
0.00166919
0.00141138
0.00149682
0.00178
0.00207853
0.00224742
0.0023288
0.00236338
0.00237628
0.00238011
0.00238036
0.00237928
0.00237797
0.00237704
0.00237658
0.00237643
0.00237643
0.00237642
0.00237639
0.00237637
0.00237637
0.0023764
0.00237643
0.00237644
0.00237645
0.00237657
0.00237693
0.00237748
0.00237746
0.00237439
0.00236232
0.00232836
0.00224735
0.00207861
0.00178013
0.00149697
0.0015308
0.00182801
0.00214552
0.00232885
0.00241915
0.00245818
0.00247246
0.00247559
0.00247366
0.00246959
0.00246554
0.00246298
0.00246188
0.00246163
0.00246166
0.00246163
0.00246153
0.00246146
0.00246147
0.00246155
0.00246165
0.00246168
0.00246165
0.00246188
0.00246285
0.00246493
0.00246736
0.00246649
0.00245472
0.00241754
0.00232831
0.00214547
0.00182812
0.00153098
0.00154295
0.00184636
0.00217291
0.00236347
0.00245824
0.00249901
0.00251241
0.00251195
0.00250369
0.00249167
0.00248078
0.00247487
0.00247305
0.00247307
0.00247341
0.00247344
0.00247321
0.00247303
0.00247304
0.00247323
0.00247346
0.00247344
0.0024731
0.00247305
0.00247473
0.00248011
0.00248922
0.00249583
0.00248932
0.00245358
0.00236167
0.00217243
0.00184637
0.0015431
0.00154689
0.00185263
0.00218287
0.00237641
0.00247263
0.00251262
0.00252192
0.00251243
0.00248921
0.00245851
0.00243259
0.00242137
0.00242075
0.00242301
0.00242467
0.00242525
0.00242496
0.00242464
0.00242465
0.00242498
0.00242528
0.00242471
0.00242306
0.00242076
0.00242125
0.0024319
0.00245598
0.00248106
0.00248898
0.00246125
0.00237184
0.0021814
0.00185234
0.00154691
0.00154804
0.00185452
0.00218601
0.00238037
0.00247609
0.00251285
0.00251355
0.0024861
0.00243224
0.00236217
0.00230774
0.00228973
0.00229876
0.00230947
0.00231486
0.00231766
0.00231787
0.00231754
0.00231755
0.00231789
0.00231769
0.00231491
0.00230953
0.0022988
0.00228963
0.00230709
0.00235966
0.00242403
0.00246238
0.00245218
0.0023707
0.00218274
0.00185366
0.00154778
0.00154832
0.00185499
0.00218675
0.00238091
0.00247498
0.00250645
0.00249375
0.00243725
0.0023303
0.00218856
0.00210506
0.00205998
0.00210057
0.00213373
0.0021467
0.0021557
0.002158
0.00215816
0.00215817
0.00215802
0.00215574
0.00214677
0.00213382
0.00210066
0.00205995
0.00210444
0.00218609
0.00232211
0.00241345
0.00243213
0.00236378
0.00218085
0.00185327
0.00154762
0.00154834
0.00185502
0.00218676
0.00238044
0.00247262
0.0024984
0.00247093
0.00238047
0.00220734
0.00198745
0.002341
0.00176179
0.00185406
0.00192835
0.00195216
0.00197193
0.00197794
0.00197906
0.00197907
0.00197797
0.00197198
0.00195223
0.00192846
0.0018542
0.00176182
0.00233968
0.00198474
0.00219902
0.00235654
0.00240913
0.00235547
0.00217814
0.00185242
0.00154716
0.0015483
0.00185497
0.00218669
0.00238016
0.00247145
0.00249444
0.00245956
0.00235316
0.00217181
0.00246449
0.00192715
0.00168751
0.00177991
0.00182606
0.00183477
0.00183563
0.00183556
0.00183556
0.00183564
0.0018348
0.0018261
0.00177999
0.00168764
0.00192744
0.00245822
0.00216302
0.00232901
0.00239757
0.00235129
0.00217671
0.0018519
0.00154685
0.00154825
0.00185494
0.00218677
0.00238056
0.00247271
0.00249802
0.00246911
0.0023753
0.00219527
0.00195978
0.00223377
0.00168937
0.00180687
0.00190083
0.00196593
0.00194088
0.00192898
0.00192597
0.00192596
0.00192896
0.00194084
0.0019659
0.00190081
0.00180683
0.00168911
0.00223187
0.00195683
0.00218677
0.00235118
0.00240702
0.00235469
0.00217775
0.00185212
0.00154693
0.00154821
0.00185494
0.00218698
0.00238143
0.00247546
0.00250593
0.00249008
0.0024261
0.00230373
0.00213258
0.00199875
0.00190933
0.00192381
0.00194072
0.00195624
0.00194711
0.00194155
0.00193978
0.00193977
0.00194153
0.00194708
0.0019562
0.00194065
0.00192367
0.001909
0.00199783
0.00212985
0.00229529
0.00240196
0.00242791
0.00236245
0.00218031
0.00185283
0.00154725
0.00154817
0.00185495
0.00218721
0.00238232
0.00247821
0.00251357
0.0025094
0.00247023
0.00239247
0.0022797
0.00216035
0.002068
0.00201643
0.00198408
0.00197224
0.00196542
0.00196242
0.00196142
0.00196142
0.0019624
0.00196539
0.00197218
0.00198398
0.00201627
0.00206767
0.00215946
0.00227696
0.00238398
0.00244599
0.00244708
0.00236988
0.00218284
0.00185356
0.00154756
0.00154812
0.00185496
0.00218738
0.00238297
0.00248016
0.00251877
0.00252197
0.00249731
0.00244322
0.0023587
0.00225343
0.00214882
0.00206784
0.0020127
0.00198926
0.00198086
0.00197812
0.00197733
0.00197733
0.0019781
0.00198083
0.0019892
0.0020126
0.00206767
0.00214848
0.00225254
0.00235593
0.00243465
0.00247295
0.00245949
0.0023749
0.0021846
0.00185406
0.00154775
0.00154806
0.00185495
0.00218748
0.00238336
0.00248128
0.00252163
0.00252857
0.00251079
0.00246705
0.0023937
0.00229359
0.00218294
0.00209018
0.00202592
0.00199797
0.00198841
0.00198553
0.00198476
0.00198475
0.00198551
0.00198838
0.00199791
0.00202581
0.00209002
0.00218259
0.0022927
0.00239091
0.00245842
0.00248634
0.00246596
0.00237761
0.00218557
0.00185433
0.00154781
0.00154801
0.00185495
0.00218753
0.00238355
0.00248182
0.00252296
0.0025315
0.00251651
0.00247666
0.00240715
0.00230846
0.00219536
0.00209833
0.00203082
0.00200128
0.00199122
0.00198824
0.00198744
0.00198743
0.00198822
0.00199119
0.00200123
0.00203071
0.00209817
0.00219501
0.00230757
0.00240434
0.00246801
0.00249201
0.00246881
0.00237885
0.00218602
0.00185445
0.0015478
0.00154797
0.00185494
0.00218755
0.00238363
0.00248203
0.00252346
0.00253256
0.0025185
0.00247986
0.00241145
0.00231306
0.00219914
0.00210079
0.0020323
0.00200228
0.00199206
0.00198902
0.00198821
0.0019882
0.001989
0.00199202
0.00200222
0.00203219
0.00210063
0.00219879
0.00231217
0.00240864
0.0024712
0.00249397
0.00246984
0.00237931
0.0021862
0.00185449
0.00154777
0.00154795
0.00185494
0.00218755
0.00238364
0.00248205
0.00252349
0.0025326
0.00251855
0.00247993
0.00241153
0.00231314
0.00219922
0.00210086
0.00203234
0.00200231
0.00199207
0.00198903
0.00198819
0.00198818
0.001989
0.00199203
0.00200225
0.00203224
0.0021007
0.00219888
0.00231226
0.00240872
0.00247127
0.00249402
0.00246988
0.00237934
0.00218621
0.00185449
0.00154774
0.00154796
0.00185494
0.00218754
0.00238359
0.00248188
0.00252305
0.00253162
0.00251667
0.00247687
0.0024074
0.00230873
0.00219564
0.00209855
0.00203097
0.00200138
0.00199128
0.00198826
0.00198743
0.00198742
0.00198824
0.00199124
0.00200132
0.00203087
0.0020984
0.00219531
0.00230787
0.00240462
0.00246823
0.00249218
0.00246893
0.00237893
0.00218606
0.00185446
0.00154773
0.00154799
0.00185495
0.0021875
0.00238342
0.00248138
0.00252178
0.00252878
0.00251108
0.00246742
0.00239417
0.00229413
0.0021835
0.00209063
0.00202624
0.00199819
0.00198857
0.00198564
0.00198483
0.00198482
0.00198562
0.00198854
0.00199814
0.00202616
0.00209049
0.0021832
0.00229329
0.00239143
0.00245883
0.00248665
0.00246617
0.00237775
0.00218564
0.00185434
0.00154771
0.00154803
0.00185496
0.00218742
0.00238306
0.00248031
0.00251899
0.00252228
0.00249774
0.00244381
0.00235948
0.00225437
0.00214979
0.00206861
0.00201327
0.00198968
0.0019812
0.00197842
0.0019776
0.00197759
0.00197841
0.00198119
0.00198965
0.00201321
0.00206852
0.00214954
0.00225359
0.0023568
0.00243531
0.00247342
0.00245981
0.00237509
0.0021847
0.00185408
0.00154763
0.00154807
0.00185495
0.00218726
0.00238243
0.0024784
0.00251385
0.00250981
0.00247082
0.00239332
0.00228088
0.00216184
0.00206949
0.00201756
0.00198485
0.00197275
0.00196589
0.00196287
0.00196186
0.00196186
0.00196286
0.00196589
0.00197275
0.00198482
0.00201752
0.00206933
0.00216114
0.00227829
0.00238492
0.00244662
0.00244749
0.00237013
0.00218297
0.00185359
0.00154744
0.00154811
0.00185494
0.00218703
0.00238154
0.00247566
0.00250624
0.00249054
0.00242679
0.00230478
0.00213413
0.00200082
0.00191122
0.00192471
0.00194088
0.00195595
0.00194681
0.00194125
0.00193948
0.00193949
0.00194126
0.0019468
0.00195593
0.0019408
0.00192461
0.00191108
0.00200015
0.00213155
0.00229637
0.00240264
0.00242834
0.00236271
0.00218044
0.00185286
0.00154712
0.00154813
0.0018549
0.00218675
0.00238059
0.00247281
0.00249822
0.00246944
0.00237583
0.00219611
0.00196117
0.00223884
0.00168914
0.00180443
0.00189678
0.00196097
0.00193555
0.0019235
0.00192047
0.00192047
0.00192348
0.00193544
0.00196069
0.00189607
0.00180333
0.00168798
0.0022374
0.00195786
0.00218722
0.00235142
0.00240721
0.00235482
0.0021778
0.00185211
0.00154677
0.00154811
0.0018548
0.00218642
0.00237982
0.00247109
0.00249411
0.00245923
0.00235275
0.00217108
0.00246124
0.00190174
0.00166835
0.0017547
0.00179656
0.00180361
0.00180405
0.00180389
0.00180383
0.0018038
0.00180287
0.00179463
0.00175055
0.0016613
0.0018881
0.00244913
0.00216013
0.00232749
0.00239676
0.00235085
0.00217644
0.00185173
0.0015466
0.00154785
0.00185433
0.00218556
0.00237879
0.00247066
0.00249624
0.00246851
0.00237742
0.00220265
0.00197774
0.00230052
0.00172197
0.00179621
0.00185131
0.00186276
0.0018773
0.00188222
0.00188322
0.00188309
0.00188159
0.00187525
0.00185704
0.0018385
0.0017746
0.00169558
0.00225908
0.0019623
0.00218814
0.00235059
0.00240568
0.00235334
0.0021768
0.00185168
0.00154658
0.00154675
0.00185249
0.00218251
0.00237511
0.00246806
0.00249876
0.00248524
0.00242703
0.00231584
0.00216379
0.00205718
0.00197985
0.00197904
0.00197348
0.0019613
0.00195925
0.00195898
0.00195882
0.00195858
0.0019578
0.00195521
0.00194964
0.00194693
0.00193711
0.00193178
0.00201568
0.00213731
0.00229529
0.00239779
0.00242213
0.00235695
0.0021763
0.00185067
0.00154594
0.00154287
0.00184629
0.00217275
0.00236275
0.00245544
0.00249026
0.00248926
0.00245885
0.00239803
0.00231229
0.00222699
0.00216073
0.0021101
0.00206923
0.00203579
0.00202171
0.00201718
0.00201592
0.00201558
0.0020155
0.00201576
0.00201812
0.00202902
0.0020556
0.00209613
0.00217303
0.0022761
0.00237219
0.00242786
0.00242699
0.00235157
0.00216901
0.00184528
0.00154249
0.00153078
0.00182801
0.00214554
0.00232866
0.00241792
0.00245379
0.00246024
0.00244694
0.00241553
0.00236707
0.00230742
0.00224324
0.00217712
0.00212211
0.0020801
0.00206156
0.00205533
0.00205357
0.00205319
0.00205342
0.00205485
0.00206034
0.00207762
0.00211796
0.00217436
0.00225029
0.00232838
0.00238871
0.00241695
0.00240159
0.00232247
0.00214359
0.00182756
0.00153068
0.00149685
0.00178006
0.00207867
0.00224759
0.00232859
0.00236176
0.00237088
0.00236639
0.00235074
0.00232323
0.00228327
0.00223168
0.00217258
0.00211945
0.00208311
0.0020665
0.0020606
0.00205884
0.00205847
0.0020588
0.00206046
0.00206616
0.00208238
0.00211841
0.00217245
0.00223497
0.00229059
0.00232819
0.00234097
0.00231987
0.00224451
0.00207782
0.00177993
0.00149691
0.00141136
0.00166919
0.00193415
0.00207882
0.00214573
0.0021726
0.00218097
0.00218027
0.00217298
0.00215824
0.0021342
0.00210006
0.00205904
0.00202104
0.00199599
0.00198415
0.00197972
0.00197834
0.00197805
0.00197834
0.00197972
0.0019841
0.00199586
0.00202089
0.00205926
0.00210132
0.00213621
0.00215766
0.00216196
0.00214161
0.00207753
0.00193389
0.00166921
0.00141147
0.00122132
0.00145192
0.00166928
0.00178029
0.00182836
0.00184662
0.00185237
0.00185278
0.00184977
0.00184276
0.00183023
0.00181117
0.00178735
0.00176476
0.00175018
0.00174322
0.00174055
0.00173968
0.0017395
0.00173971
0.00174059
0.00174327
0.00175022
0.00176483
0.00178754
0.00181164
0.00183066
0.00184144
0.00184205
0.00182682
0.00177995
0.0016693
0.00145199
0.00122144
0.000896259
0.00122132
0.00141148
0.00149715
0.00153125
0.00154347
0.00154726
0.00154773
0.00154613
0.00154198
0.00153402
0.00152121
0.00150453
0.0014884
0.00147854
0.00147402
0.00147228
0.00147169
0.00147155
0.00147171
0.00147232
0.00147407
0.00147858
0.00148843
0.00150461
0.00152142
0.00153417
0.00154106
0.00154121
0.00153074
0.00149723
0.00141165
0.00122143
0.000896364
0.00100966
0.00151851
0.00183177
0.00198148
0.002045
0.00206926
0.00207763
0.0020802
0.00208082
0.00208083
0.00208065
0.00208045
0.00208028
0.00208017
0.00208009
0.00208003
0.00207999
0.00207996
0.00207996
0.00207998
0.00208002
0.00208008
0.00208015
0.00208025
0.00208036
0.00208037
0.00207982
0.00207737
0.00206911
0.00204492
0.00198144
0.00183175
0.00151851
0.00100969
0.0015185
0.0016857
0.00191639
0.00204471
0.00210425
0.0021285
0.0021373
0.00214011
0.0021408
0.00214081
0.00214061
0.00214041
0.00214025
0.00214016
0.0021401
0.00214006
0.00214003
0.00214001
0.00214001
0.00214003
0.00214006
0.0021401
0.00214015
0.00214024
0.00214033
0.00214031
0.00213968
0.002137
0.00212833
0.00210416
0.00204469
0.00191639
0.0016857
0.0015185
0.00183185
0.00191642
0.00215381
0.00229813
0.00237015
0.00240155
0.00241362
0.00241759
0.00241842
0.00241814
0.00241756
0.00241703
0.00241669
0.0024165
0.0024164
0.00241634
0.0024163
0.00241627
0.00241627
0.0024163
0.00241634
0.0024164
0.0024165
0.00241666
0.0024169
0.00241705
0.00241636
0.00241273
0.00240102
0.00236991
0.00229807
0.00215384
0.00191646
0.00183189
0.00198166
0.00204479
0.00229818
0.00245841
0.00254151
0.0025791
0.00259389
0.00259844
0.00259869
0.00259726
0.00259549
0.0025941
0.00259329
0.00259289
0.00259271
0.00259261
0.00259253
0.00259249
0.00259249
0.00259254
0.00259262
0.00259272
0.00259289
0.00259325
0.00259392
0.00259477
0.00259483
0.00259122
0.00257749
0.00254073
0.00245814
0.00229817
0.00204486
0.00198175
0.00204525
0.00210437
0.00237024
0.00254156
0.00263219
0.00267377
0.00268973
0.00269334
0.00269108
0.00268632
0.00268147
0.00267808
0.00267634
0.0026756
0.00267528
0.00267514
0.002675
0.00267489
0.0026749
0.002675
0.00267515
0.00267529
0.0026756
0.0026763
0.00267785
0.00268059
0.0026834
0.00268228
0.0026692
0.00262987
0.00254062
0.00236999
0.00210438
0.00204533
0.00206957
0.00212865
0.00240167
0.0025792
0.00267384
0.0027169
0.00273172
0.00273137
0.00272246
0.0027096
0.00269778
0.00269044
0.00268759
0.00268663
0.00268615
0.0026862
0.00268604
0.00268586
0.00268586
0.00268605
0.00268622
0.00268617
0.00268664
0.00268754
0.00269019
0.00269681
0.00270638
0.00271283
0.00270528
0.00266785
0.00257662
0.00240078
0.00212845
0.00206949
0.00207795
0.00213745
0.00241378
0.00259407
0.00268998
0.00273202
0.00274238
0.00273279
0.00270936
0.00267926
0.00265376
0.00263947
0.00263715
0.00263727
0.00263668
0.00263809
0.00263831
0.00263808
0.00263808
0.00263833
0.00263811
0.00263671
0.0026373
0.00263711
0.00263922
0.00265275
0.00267589
0.00269929
0.00270567
0.00267642
0.0025881
0.00241155
0.00213675
0.00207749
0.00208053
0.00214027
0.0024178
0.00259883
0.00269408
0.00273262
0.00273427
0.00270762
0.00265716
0.00259537
0.00254911
0.00251906
0.0025247
0.0025304
0.00252884
0.00253604
0.00253804
0.00253798
0.00253799
0.00253805
0.00253607
0.00252888
0.00253044
0.00252469
0.00251884
0.00254809
0.00259191
0.00264686
0.00267995
0.00266728
0.00258701
0.00241325
0.00213868
0.00207932
0.00208117
0.00214099
0.00241879
0.00259953
0.00269296
0.0027261
0.00271511
0.00266346
0.0025726
0.00246772
0.00243245
0.00232053
0.00235387
0.00237688
0.00236866
0.00239539
0.00240301
0.00240389
0.0024039
0.00240303
0.00239544
0.00236871
0.00237695
0.00235392
0.00232035
0.00243131
0.00246407
0.00256201
0.00263537
0.0026475
0.00257963
0.00241104
0.00213817
0.00207887
0.00208122
0.00214107
0.0024188
0.00259899
0.00269042
0.00271812
0.00269448
0.00261826
0.00249395
0.0024129
0.00322632
0.00207538
0.00216443
0.00222774
0.00219433
0.00227083
0.00229161
0.00229482
0.00229483
0.00229165
0.0022709
0.0021944
0.00222787
0.00216457
0.00207522
0.00322317
0.00240822
0.00248272
0.00258962
0.00262632
0.00257106
0.0024079
0.002137
0.00207778
0.00208113
0.00214102
0.0024187
0.00259861
0.0026891
0.00271426
0.00268529
0.00260419
0.00252984
0.00350421
0.00227943
0.00193926
0.00204323
0.00210807