/*--------------------------------*- C++ -*----------------------------------*\
| =========                 |                                                 |
| \\      /  F ield         | OpenFOAM: The Open Source CFD Toolbox           |
|  \\    /   O peration     | Version:  2112                                  |
|   \\  /    A nd           | Website:  www.openfoam.com                      |
|    \\/     M anipulation  |                                                 |
\*---------------------------------------------------------------------------*/
FoamFile
{
    version     2.0;
    format      ascii;
    arch        "LSB;label=32;scalar=64";
    class       volScalarField;
    location    "2.3";
    object      k;
}
// * * * * * * * * * * * * * * * * * * * * * * * * * * * * * * * * * * * * * //

dimensions      [0 2 -2 0 0 0 0];

internalField   nonuniform List<scalar> 
64906
(
0.000702282
0.000759962
0.000790969
0.000803319
0.000807655
0.000809045
0.000809462
0.000809586
0.000809629
0.000809648
0.000809659
0.000809666
0.000809668
0.000809667
0.000809661
0.000809652
0.000809641
0.000809629
0.000809621
0.000809629
0.00080964
0.000809649
0.000809654
0.000809656
0.000809652
0.000809639
0.000809602
0.000809482
0.000809067
0.000807679
0.000803346
0.000790998
0.000759991
0.000702305
0.000759984
0.00108933
0.00124636
0.00131387
0.00134097
0.00135095
0.0013543
0.00135533
0.00135561
0.00135567
0.00135566
0.00135566
0.00135566
0.00135568
0.0013557
0.00135571
0.00135571
0.00135572
0.00135572
0.00135572
0.00135571
0.0013557
0.00135568
0.00135567
0.00135564
0.00135558
0.00135532
0.00135433
0.00135101
0.00134106
0.00131396
0.00124646
0.00108942
0.000760035
0.000791031
0.00124642
0.00147224
0.00157556
0.00162008
0.00163771
0.00164405
0.00164607
0.00164657
0.00164656
0.00164643
0.00164634
0.00164633
0.00164638
0.00164644
0.0016465
0.00164653
0.00164654
0.00164655
0.00164653
0.00164651
0.00164646
0.0016464
0.00164634
0.00164631
0.00164624
0.0016458
0.00164391
0.00163771
0.00162018
0.0015757
0.0014724
0.00124656
0.000791115
0.000803413
0.00131398
0.00157562
0.00170029
0.0017564
0.00177958
0.00178815
0.00179075
0.00179102
0.00179041
0.00178966
0.00178916
0.00178896
0.00178898
0.00178909
0.00178915
0.00178918
0.00178919
0.00178919
0.00178919
0.00178917
0.00178911
0.00178901
0.00178898
0.00178912
0.00178937
0.00178926
0.00178714
0.00177909
0.0017563
0.0017004
0.0015758
0.00131416
0.000803523
0.000807766
0.00134111
0.00162018
0.00175645
0.00181932
0.0018458
0.00185543
0.00185761
0.0018564
0.00185373
0.00185103
0.00184936
0.00184864
0.00184857
0.00184872
0.00184876
0.00184872
0.00184868
0.00184869
0.00184873
0.00184878
0.00184875
0.0018486
0.00184866
0.0018493
0.00185066
0.00185229
0.00185168
0.00184373
0.00181847
0.00175628
0.00162032
0.00134131
0.000807898
0.000809164
0.00135109
0.00163783
0.00177965
0.00184584
0.00187362
0.00188271
0.00188245
0.00187683
0.00186845
0.00186063
0.00185645
0.00185494
0.00185496
0.00185538
0.00185533
0.00185509
0.00185495
0.00185495
0.00185511
0.00185536
0.00185542
0.00185501
0.00185497
0.00185639
0.00186022
0.00186686
0.00187165
0.00186735
0.00184298
0.00177869
0.00163773
0.00135126
0.000809312
0.000809581
0.00135444
0.00164417
0.00178824
0.00185553
0.00188283
0.00188914
0.00188258
0.00186619
0.00184365
0.00182364
0.00181615
0.00181507
0.00181652
0.00181808
0.00181796
0.00181737
0.00181703
0.00181704
0.0018174
0.001818
0.00181813
0.00181658
0.00181512
0.00181611
0.00182324
0.00184204
0.00186084
0.00186696
0.00184816
0.00178548
0.00164348
0.00135448
0.000809737
0.000809699
0.00135546
0.00164619
0.00179091
0.00185791
0.00188303
0.00188333
0.00186382
0.00182404
0.00176835
0.00171947
0.0017148
0.00172224
0.00172996
0.00173496
0.00173516
0.00173428
0.00173377
0.00173378
0.00173431
0.0017352
0.00173502
0.00173003
0.0017223
0.00171479
0.00171911
0.0017668
0.00181872
0.00184809
0.00184195
0.00178478
0.00164439
0.00135522
0.000809846
0.000809728
0.00135572
0.00164671
0.00179134
0.00185724
0.00187868
0.0018693
0.00182746
0.00174214
0.00160926
0.00148239
0.00152221
0.0015689
0.00159531
0.00160766
0.00160965
0.0016093
0.00160898
0.00160899
0.00160933
0.0016097
0.00160773
0.00159539
0.001569
0.00152226
0.00148213
0.00160788
0.00173699
0.00181182
0.00182788
0.00178019
0.00164326
0.00135507
0.000809848
0.000809732
0.00135577
0.00164677
0.00179111
0.00185573
0.00187308
0.00185229
0.00178063
0.00162021
0.00131129
0.00095052
0.00120135
0.0013701
0.00143586
0.00145827
0.00146464
0.00146614
0.00146642
0.00146643
0.00146617
0.00146469
0.00145834
0.00143596
0.00137025
0.00120152
0.000950411
0.00131021
0.00161527
0.00176512
0.0018109
0.00177453
0.00164159
0.00135465
0.000809811
0.000809728
0.00135576
0.00164679
0.00179102
0.00185503
0.00187027
0.00184285
0.00175017
0.00151743
0.000965018
0.000897984
0.00121617
0.00131905
0.00134845
0.00135642
0.00135824
0.00135858
0.00135858
0.00135825
0.00135644
0.00134849
0.00131913
0.00121632
0.000898087
0.000964501
0.00151269
0.0017347
0.00180143
0.00177164
0.00164077
0.00135442
0.00080979
0.000809716
0.00135576
0.00164691
0.0017914
0.00185608
0.00187322
0.00185158
0.00177777
0.00161324
0.00129791
0.000938867
0.00115183
0.0013061
0.00136446
0.00138219
0.00138771
0.00138854
0.00138848
0.00138847
0.00138853
0.0013877
0.00138217
0.00136445
0.00130609
0.00115174
0.00093861
0.00129655
0.00160813
0.00176213
0.00181002
0.00177443
0.00164162
0.00135458
0.000809791
0.000809699
0.00135576
0.0016471
0.00179207
0.00185811
0.00187904
0.00186763
0.00182061
0.00172452
0.00157223
0.00141591
0.00140778
0.00141347
0.00141841
0.00142042
0.00142081
0.00142039
0.00142006
0.00142006
0.00142037
0.00142078
0.00142037
0.00141833
0.00141335
0.00140754
0.00141533
0.00157059
0.00171919
0.00180479
0.0018259
0.00178005
0.00164342
0.00135499
0.0008098
0.000809676
0.00135577
0.00164729
0.00179274
0.00186008
0.00188445
0.00188152
0.0018536
0.00179602
0.00170788
0.0016082
0.00153568
0.00147944
0.001454
0.00144499
0.00144189
0.00144068
0.00144023
0.00144022
0.00144065
0.00144184
0.00144492
0.0014539
0.00147929
0.00153543
0.00160759
0.00170613
0.00179053
0.0018376
0.00183959
0.00178524
0.00164515
0.0013554
0.000809797
0.000809649
0.00135577
0.00164743
0.00179323
0.00186147
0.00188809
0.00189027
0.00187267
0.00183271
0.00176751
0.00168184
0.00159062
0.00151099
0.00147195
0.00145733
0.00145241
0.00145075
0.0014502
0.00145019
0.00145072
0.00145236
0.00145725
0.00147184
0.00151083
0.00159031
0.00168123
0.00176572
0.00182713
0.00185654
0.00184818
0.00178869
0.00164634
0.00135567
0.000809776
0.000809621
0.00135576
0.00164752
0.00179353
0.00186227
0.00189008
0.00189481
0.00188191
0.00184905
0.00179163
0.00170929
0.00161204
0.00152376
0.00147942
0.00146246
0.00145675
0.00145485
0.0014542
0.00145418
0.0014548
0.00145669
0.00146238
0.00147931
0.0015236
0.00161172
0.00170868
0.00178982
0.00184343
0.00186569
0.00185261
0.00179056
0.001647
0.00135581
0.000809741
0.000809592
0.00135575
0.00164756
0.00179368
0.00186268
0.00189103
0.00189684
0.0018858
0.00185551
0.00180052
0.00171886
0.00161955
0.00152828
0.0014821
0.00146429
0.00145827
0.00145623
0.00145549
0.00145547
0.00145618
0.00145819
0.0014642
0.00148198
0.00152812
0.00161924
0.00171825
0.00179871
0.00184986
0.00186954
0.00185457
0.00179143
0.00164732
0.00135587
0.000809701
0.000809565
0.00135574
0.00164759
0.00179376
0.00186285
0.0018914
0.00189759
0.00188716
0.00185766
0.00180334
0.00172177
0.00162183
0.00152965
0.00148291
0.00146484
0.0014587
0.00145659
0.00145578
0.00145575
0.00145653
0.00145862
0.00146474
0.00148279
0.00152949
0.00162152
0.00172117
0.00180153
0.001852
0.00187089
0.0018553
0.00179176
0.00164745
0.00135588
0.00080966
0.000809542
0.00135573
0.0016476
0.00179378
0.00186287
0.00189143
0.00189763
0.00188722
0.00185774
0.00180343
0.00172187
0.00162192
0.00152971
0.00148295
0.00146485
0.00145869
0.00145656
0.0014557
0.00145566
0.00145649
0.00145861
0.00146476
0.00148282
0.00152955
0.00162162
0.00172128
0.00180162
0.00185209
0.00187095
0.00185535
0.0017918
0.00164747
0.00135588
0.000809625
0.00080954
0.00135574
0.00164759
0.00179374
0.00186275
0.00189113
0.00189698
0.00188598
0.00185574
0.0018008
0.00171916
0.00161985
0.00152848
0.00148222
0.00146435
0.00145826
0.00145614
0.00145529
0.00145524
0.00145607
0.00145817
0.00146425
0.0014821
0.00152833
0.00161956
0.00171858
0.00179901
0.00185012
0.00186974
0.00185472
0.00179153
0.00164738
0.00135586
0.000809623
0.000809564
0.00135575
0.00164756
0.00179361
0.0018624
0.00189026
0.00189505
0.00188223
0.00184946
0.00179213
0.00170986
0.00161262
0.00152415
0.00147967
0.00146259
0.00145677
0.00145474
0.00145395
0.00145391
0.00145467
0.00145669
0.0014625
0.00147956
0.001524
0.00161235
0.00170931
0.00179038
0.00184389
0.00186605
0.00185287
0.00179074
0.0016471
0.00135581
0.000809659
0.000809593
0.00135576
0.00164749
0.00179335
0.00186165
0.00188834
0.00189062
0.00187315
0.00183333
0.00176832
0.0016828
0.00159161
0.00151163
0.00147237
0.00145757
0.00145251
0.0014507
0.00145001
0.00144999
0.00145064
0.00145243
0.00145749
0.00147228
0.00151151
0.00159139
0.00168231
0.00176664
0.00182785
0.00185708
0.00184857
0.00178895
0.00164649
0.00135569
0.000809695
0.000809621
0.00135577
0.00164737
0.0017929
0.00186031
0.00188478
0.00188198
0.00185424
0.00179691
0.00170911
0.00160975
0.00153701
0.00148038
0.0014546
0.00144534
0.00144206
0.0014407
0.00144015
0.00144013
0.00144065
0.00144199
0.00144527
0.00145452
0.00148031
0.00153691
0.00160935
0.00170755
0.00179156
0.00183833
0.0018401
0.00178558
0.00164535
0.00135544
0.00080972
0.000809646
0.00135577
0.00164719
0.00179225
0.00185838
0.00187942
0.00186817
0.00182138
0.00172567
0.00157393
0.00141827
0.00140971
0.0014144
0.00141876
0.00142043
0.00142061
0.00142005
0.00141966
0.00141965
0.00142002
0.00142055
0.00142036
0.00141867
0.00141436
0.00140976
0.00141804
0.00157258
0.00172049
0.00180564
0.00182648
0.00178044
0.00164365
0.00135505
0.000809727
0.000809666
0.00135576
0.00164698
0.00179154
0.00185632
0.00187357
0.00185209
0.00177853
0.00161445
0.00129989
0.000940148
0.00115274
0.00130498
0.00136233
0.0013794
0.00138461
0.00138531
0.00138519
0.00138517
0.00138526
0.0013845
0.00137916
0.00136191
0.00130454
0.00115278
0.000939981
0.00129887
0.00160935
0.00176283
0.00181051
0.00177479
0.00164184
0.00135464
0.000809721
0.000809675
0.0013557
0.00164672
0.00179095
0.00185499
0.0018703
0.00184295
0.00175029
0.00151759
0.000965055
0.000894303
0.00120654
0.00130584
0.00133286
0.0013399
0.00134143
0.00134165
0.0013416
0.00134125
0.00133945
0.00133178
0.00130369
0.00120336
0.000892379
0.000963932
0.00151193
0.00173422
0.0018013
0.00177167
0.00164082
0.00135442
0.000809719
0.000809658
0.00135546
0.00164615
0.00179022
0.00185467
0.00187196
0.00185112
0.00177926
0.00161837
0.00130882
0.000947687
0.0011821
0.00133732
0.00138944
0.00140318
0.00140696
0.00140796
0.00140816
0.00140807
0.00140756
0.0014057
0.0013997
0.00138158
0.00132378
0.00116956
0.000943108
0.00130271
0.00160988
0.00176192
0.00180913
0.00177354
0.00164104
0.00135439
0.000809722
0.000809554
0.00135449
0.00164421
0.00178776
0.00185293
0.00187393
0.00186413
0.00182131
0.00173351
0.00159492
0.00145604
0.00147096
0.00148594
0.00147805
0.00147042
0.00146711
0.00146606
0.00146575
0.0014656
0.00146535
0.00146468
0.00146306
0.00145954
0.00145082
0.00143542
0.00142998
0.00157716
0.00171952
0.0018018
0.00182174
0.00177618
0.00164075
0.00135387
0.000809657
0.000809151
0.0013512
0.001638
0.00177956
0.00184447
0.00186833
0.00186759
0.00184616
0.00180159
0.00173467
0.00166282
0.00161794
0.00156976
0.00151876
0.00149371
0.0014846
0.00148182
0.00148106
0.00148087
0.00148087
0.00148119
0.00148285
0.00148937
0.00150965
0.00155727
0.00161749
0.00170579
0.00178236
0.0018249
0.00182561
0.00177271
0.00163614
0.001351
0.000809285
0.000807769
0.00134127
0.00162048
0.00175672
0.00181902
0.00184351
0.00184797
0.00183886
0.00181658
0.00178045
0.00173313
0.00167923
0.00161436
0.00155069
0.00151957
0.00150816
0.00150465
0.00150371
0.00150351
0.00150362
0.00150438
0.00150747
0.00151804
0.001548
0.00161183
0.00168241
0.00174838
0.00179618
0.00181817
0.0018085
0.0017532
0.00161974
0.00134136
0.000807919
0.000803435
0.00131417
0.001576
0.0017008
0.00175679
0.00177918
0.0017854
0.00178251
0.00177175
0.00175184
0.00172116
0.00167898
0.0016268
0.0015767
0.00154996
0.00153938
0.00153599
0.00153508
0.0015349
0.00153503
0.00153586
0.00153913
0.00154939
0.00157589
0.0016264
0.00168067
0.00172595
0.0017552
0.00176536
0.00175155
0.00169937
0.00157595
0.00131443
0.000803587
0.000791077
0.00124664
0.00147267
0.00157618
0.00162081
0.00163828
0.0016438
0.00164356
0.00163898
0.00162913
0.00161217
0.00158688
0.00155508
0.00152481
0.0015074
0.00149999
0.00149747
0.00149676
0.00149662
0.00149674
0.00149743
0.0014999
0.00150723
0.00152459
0.00155503
0.00158744
0.00161329
0.00162869
0.00163198
0.00161882
0.00157595
0.00147297
0.00124695
0.000791221
0.000760051
0.00108955
0.00124676
0.00131445
0.0013417
0.00135177
0.00135502
0.00135546
0.00135411
0.00135053
0.00134369
0.00133278
0.00131868
0.00130504
0.00129677
0.00129305
0.00129171
0.0012913
0.00129122
0.00129131
0.00129171
0.00129305
0.00129675
0.00130501
0.0013187
0.00133293
0.00134383
0.00134978
0.00134998
0.00134146
0.00131474
0.00124714
0.00108982
0.000760171
0.000702341
0.000760089
0.000791198
0.000803649
0.000808082
0.000809573
0.000810088
0.000810275
0.000810275
0.000810047
0.000809475
0.000808366
0.000806757
0.000805068
0.000804001
0.000803476
0.000803232
0.000803101
0.000803052
0.00080311
0.00080324
0.000803477
0.000803992
0.000805045
0.000806722
0.000808327
0.000809425
0.000809903
0.000809736
0.000808358
0.000803921
0.000791417
0.000760235
0.000702423
0.000998382
0.00123007
0.00135667
0.0014123
0.00143437
0.00144233
0.00144495
0.00144573
0.00144593
0.00144594
0.00144591
0.00144587
0.00144584
0.00144581
0.00144579
0.00144577
0.00144576
0.00144575
0.00144575
0.00144575
0.00144577
0.00144578
0.0014458
0.00144582
0.00144584
0.00144583
0.00144566
0.00144491
0.00144232
0.00143437
0.00141231
0.00135669
0.00123009
0.000998405
0.00123007
0.00226698
0.00268246
0.00287324
0.00295642
0.00298969
0.00300172
0.00300556
0.00300649
0.00300644
0.0030061
0.00300575
0.00300548
0.00300529
0.00300518
0.00300509
0.00300503
0.003005
0.003005
0.00300503
0.00300509
0.00300518
0.00300529
0.00300545
0.00300564
0.00300567
0.00300487
0.00300123
0.00298938
0.00295625
0.00287316
0.00268242
0.00226696
0.0012301
0.00135672
0.00268257
0.00322975
0.00349443
0.00361672
0.0036687
0.00368862
0.00369519
0.00369657
0.00369607
0.00369505
0.00369414
0.00369353
0.00369321
0.00369307
0.00369297
0.0036929
0.00369285
0.00369286
0.0036929
0.00369298
0.00369308
0.00369322
0.00369349
0.00369392
0.0036942
0.00369308
0.00368711
0.00366781
0.0036163
0.00349429
0.00322974
0.00268262
0.00135677
0.00141239
0.00287344
0.00349453
0.00380549
0.00395447
0.00402007
0.00404574
0.00405367
0.00405406
0.00405144
0.00404816
0.00404553
0.00404394
0.00404321
0.00404293
0.00404273
0.00404255
0.00404244
0.00404245
0.00404256
0.00404275
0.00404296
0.00404322
0.00404388
0.00404521
0.00404689
0.00404716
0.00404098
0.00401721
0.00395306
0.00380496
0.00349443
0.0028735
0.00141248
0.00143449
0.00295667
0.00361689
0.00395455
0.00411979
0.00419362
0.00422179
0.00422809
0.00422382
0.00421485
0.00420543
0.0041986
0.00419478
0.00419324
0.00419274
0.00419226
0.00419177
0.00419149
0.00419149
0.00419179
0.00419229
0.00419278
0.00419326
0.00419472
0.00419821
0.00420386
0.00420962
0.00420814
0.00418532
0.00411558
0.00395281
0.00361637
0.00295663
0.0014346
0.00144248
0.00298996
0.00366892
0.00402023
0.00419374
0.00427065
0.00429684
0.00429581
0.0042789
0.00425392
0.00422994
0.00421466
0.00420723
0.00420493
0.00420457
0.00420361
0.00420247
0.00420181
0.00420182
0.0042025
0.00420365
0.00420462
0.00420497
0.00420717
0.00421423
0.00422822
0.00424815
0.00426167
0.00424931
0.00418281
0.00401551
0.00366727
0.00298959
0.00144257
0.0014451
0.00300199
0.00368889
0.00404604
0.00422222
0.00429737
0.00431532
0.00429677
0.00425118
0.00418972
0.00413406
0.00410609
0.00409655
0.00409615
0.00409785
0.00409649
0.00409432
0.00409307
0.00409308
0.00409435
0.00409653
0.00409791
0.0040962
0.00409651
0.00410569
0.00413231
0.00418374
0.00423324
0.00424842
0.00419738
0.00403521
0.00368489
0.00300087
0.0014451
0.00144588
0.00300583
0.00369555
0.00405433
0.00422941
0.00429811
0.00429948
0.00424705
0.00414328
0.00400263
0.00387918
0.00384558
0.00384944
0.00386154
0.0038707
0.00387011
0.00386715
0.00386541
0.00386542
0.00386718
0.00387016
0.00387077
0.00386161
0.00384944
0.00384525
0.00387754
0.00399672
0.00412514
0.00419793
0.00417981
0.00403286
0.0036875
0.00300338
0.00144568
0.00144607
0.00300679
0.00369718
0.00405555
0.00422727
0.00428568
0.00426175
0.00415433
0.00394413
0.00363142
0.00334025
0.0033721
0.00345287
0.00350578
0.00353176
0.00353635
0.00353496
0.00353371
0.00353372
0.00353499
0.0035364
0.00353184
0.00350587
0.00345295
0.00337195
0.00333888
0.00362576
0.003926
0.00410486
0.00414127
0.00401909
0.0036835
0.00300247
0.00144557
0.00144609
0.00300684
0.00369719
0.00405456
0.0042225
0.00426996
0.00421773
0.00404124
0.00366664
0.00296475
0.00190876
0.0025929
0.00294781
0.00309074
0.00313955
0.0031582
0.00316267
0.00316327
0.00316328
0.0031627
0.00315826
0.00313964
0.00309088
0.00294801
0.00259309
0.00190797
0.00295952
0.00364846
0.0039914
0.00409666
0.00400261
0.00367785
0.0030006
0.00144526
0.00144606
0.0030067
0.00369701
0.0040539
0.00421999
0.00426182
0.00419383
0.00397263
0.0034539
0.00197722
0.00167075
0.00254478
0.00277382
0.00284458
0.00286373
0.00286784
0.00286846
0.00286847
0.00286786
0.00286376
0.00284464
0.00277394
0.00254501
0.00167092
0.00197355
0.00343554
0.00392239
0.00407231
0.00399397
0.0036748
0.00299942
0.00144506
0.00144603
0.0030066
0.00369717
0.00405466
0.00422225
0.00426826
0.00421232
0.00402805
0.00363926
0.00291317
0.00184713
0.00243405
0.00276645
0.00290018
0.00295115
0.00295634
0.00295489
0.00295387
0.00295386
0.00295486
0.0029563
0.0029511
0.00290012
0.00276637
0.00243378
0.00184599
0.00290748
0.00362077
0.00397788
0.00409078
0.00400024
0.00367673
0.00299975
0.00144511
0.00144601
0.00300659
0.00369763
0.00405641
0.00422754
0.00428292
0.00425086
0.0041256
0.00388089
0.003507
0.00311973
0.00302756
0.0030028
0.00300292
0.00300735
0.00300526
0.00300288
0.00300176
0.00300175
0.00300285
0.0030052
0.00300727
0.00300278
0.00300254
0.00302695
0.00311796
0.00350097
0.00386239
0.00407555
0.0041294
0.00401484
0.0036818
0.00300114
0.00144533
0.00144598
0.00300662
0.00369815
0.00405828
0.004233
0.00429735
0.00428614
0.00420536
0.00404618
0.00380934
0.00354072
0.00332696
0.00315954
0.00308192
0.003055
0.00304576
0.00304248
0.00304142
0.00304141
0.00304246
0.00304571
0.00305492
0.00308176
0.00315925
0.00332634
0.00353886
0.00380317
0.00402759
0.00415528
0.00416463
0.00402913
0.00368699
0.00300263
0.00144554
0.00144595
0.00300663
0.00369855
0.00405969
0.004237
0.00430751
0.00430956
0.00425409
0.00413618
0.00395119
0.00371373
0.00346301
0.00324058
0.00312731
0.00308468
0.00307098
0.00306695
0.0030659
0.0030659
0.00306694
0.00307094
0.0030846
0.00312715
0.0032403
0.00346247
0.00371185
0.00394494
0.00411747
0.00420387
0.00418789
0.00403908
0.00369072
0.00300373
0.00144568
0.00144592
0.00300663
0.00369879
0.00406055
0.00423937
0.0043133
0.00432225
0.0042789
0.00417854
0.00401219
0.00378287
0.00351878
0.00327565
0.00314795
0.00309865
0.00308287
0.00307843
0.00307736
0.00307736
0.00307842
0.00308283
0.00309858
0.0031478
0.00327538
0.00351823
0.00378099
0.00400589
0.00415974
0.00422856
0.00420042
0.00404467
0.00369287
0.00300434
0.00144573
0.00144588
0.00300662
0.00369891
0.004061
0.00424056
0.00431609
0.00432812
0.00428982
0.00419612
0.00403593
0.00380842
0.0035393
0.00328876
0.00315581
0.00310404
0.00308744
0.00308283
0.00308175
0.00308174
0.00308282
0.00308741
0.00310397
0.00315566
0.0032885
0.00353875
0.00380652
0.0040296
0.00417726
0.00423938
0.00420618
0.00404732
0.0036939
0.00300462
0.00144573
0.00144586
0.00300661
0.00369896
0.00406118
0.00424104
0.00431717
0.00433031
0.00429373
0.00420215
0.00404371
0.00381646
0.00354568
0.00329285
0.00315826
0.00310571
0.00308885
0.00308418
0.00308309
0.00308308
0.00308417
0.00308882
0.00310565
0.00315811
0.00329258
0.00354513
0.00381457
0.00403738
0.00418326
0.00424325
0.00420831
0.00404833
0.00369429
0.00300472
0.00144571
0.00144584
0.0030066
0.00369897
0.0040612
0.00424107
0.00431722
0.00433037
0.0042938
0.00420224
0.00404382
0.00381658
0.00354579
0.00329296
0.00315833
0.00310576
0.00308887
0.0030842
0.0030831
0.00308309
0.00308418
0.00308885
0.00310569
0.00315819
0.0032927
0.00354525
0.00381469
0.00403749
0.00418336
0.00424334
0.00420837
0.00404837
0.00369431
0.00300472
0.00144569
0.00144585
0.00300661
0.00369893
0.00406105
0.00424065
0.00431623
0.0043283
0.00429005
0.00419641
0.00403627
0.00380878
0.00353967
0.00328913
0.00315606
0.0031042
0.00308755
0.00308292
0.00308182
0.00308182
0.00308291
0.00308753
0.00310414
0.00315593
0.00328888
0.00353914
0.00380692
0.00402998
0.00417758
0.00423964
0.00420636
0.00404744
0.00369396
0.00300462
0.00144568
0.00144587
0.00300662
0.00369882
0.00406065
0.00423953
0.00431353
0.00432257
0.00427932
0.00417908
0.00401283
0.0037836
0.00351952
0.00327639
0.00314849
0.00309905
0.00308319
0.00307873
0.00307765
0.00307765
0.00307873
0.00308318
0.00309901
0.00314839
0.00327618
0.00351903
0.00378178
0.00400661
0.00416034
0.00422902
0.00420075
0.00404488
0.00369297
0.00300434
0.00144566
0.00144589
0.00300662
0.0036986
0.00405983
0.00423722
0.00430784
0.00431001
0.00425471
0.00413702
0.00395229
0.00371503
0.00346434
0.00324189
0.00312832
0.00308548
0.00307171
0.00306767
0.00306662
0.00306662
0.00306768
0.00307173
0.00308548
0.00312826
0.00324174
0.00346393
0.00371331
0.00394618
0.00411842
0.00420456
0.00418836
0.00403938
0.00369087
0.00300374
0.0014456
0.00144592
0.00300659
0.00369821
0.00405844
0.00423327
0.00429776
0.00428673
0.00420621
0.0040474
0.00381107
0.00354297
0.00332935
0.00316153
0.00308339
0.00305619
0.00304689
0.00304363
0.0030426
0.00304261
0.00304367
0.00304694
0.00305624
0.0030834
0.00316147
0.00332906
0.00354141
0.00380514
0.00402894
0.00415617
0.00416521
0.00402949
0.00368716
0.00300264
0.00144547
0.00144594
0.00300655
0.00369767
0.00405654
0.00422779
0.00428332
0.00425146
0.00412654
0.00388241
0.00350947
0.0031233
0.00303094
0.00300455
0.00300356
0.00300749
0.00300529
0.00300297
0.00300191
0.00300193
0.00300302
0.00300535
0.0030075
0.00300348
0.00300443
0.00303082
0.00312202
0.00350376
0.00386392
0.0040764
0.00412991
0.00401515
0.00368194
0.00300111
0.00144524
0.00144595
0.00300646
0.00369704
0.00405454
0.0042222
0.00426831
0.00421252
0.00402854
0.00364039
0.0029159
0.00184999
0.00243509
0.00276241
0.00289326
0.00294262
0.00294729
0.00294579
0.00294484
0.00294485
0.00294579
0.00294715
0.0029421
0.00289208
0.0027608
0.00243459
0.00184911
0.00291033
0.00362117
0.00397768
0.00409058
0.00400013
0.00367663
0.00299959
0.001445
0.00144593
0.00300623
0.00369624
0.00405287
0.00421877
0.0042605
0.00419239
0.00397097
0.00345198
0.0019753
0.00165518
0.00251221
0.00273052
0.00279411
0.00281098
0.00281471
0.00281531
0.00281523
0.00281433
0.00280978
0.00279091
0.00272365
0.00250129
0.00164688
0.00196829
0.00342971
0.00391818
0.00406969
0.00399242
0.00367386
0.00299885
0.00144489
0.00144575
0.00300522
0.00369429
0.00405051
0.00421758
0.00426437
0.00421133
0.00403329
0.00365563
0.0029483
0.00188521
0.00251928
0.00283832
0.0029446
0.00296972
0.00298212
0.00298608
0.00298691
0.00298668
0.002985
0.00297857
0.0029597
0.0029213
0.00279711
0.00247442
0.00186141
0.00292244
0.00362444
0.00397667
0.00408769
0.00399702
0.00367441
0.00299872
0.00144487
0.00144501
0.00300146
0.0036878
0.00404268
0.0042118
0.00426824
0.00424209
0.00413037
0.00391059
0.00357688
0.00324272
0.00320385
0.00319798
0.00316046
0.00313303
0.00312373
0.00312109
0.0031203
0.00311989
0.00311904
0.00311663
0.00311178
0.00310758
0.00309957
0.00309814
0.00315881
0.00351916
0.00386409
0.00406782
0.00411767
0.00400323
0.0036731
0.00299671
0.00144443
0.00144243
0.00298957
0.00366823
0.00401805
0.00418676
0.00425102
0.0042481
0.00418817
0.00406782
0.0038914
0.003699
0.00355422
0.00341013
0.00326766
0.00319438
0.00316736
0.00315908
0.00315683
0.00315627
0.00315624
0.00315712
0.00316226
0.00318336
0.00324666
0.00338817
0.00357011
0.00380581
0.00400749
0.00412108
0.00412522
0.00399231
0.00365876
0.00298656
0.00144214
0.00143448
0.00295642
0.0036166
0.00395353
0.0041161
0.00418263
0.00419385
0.0041657
0.00410013
0.00399663
0.00386188
0.00370688
0.00352835
0.00335562
0.00326614
0.00323205
0.00322122
0.00321823
0.00321759
0.00321798
0.00322047
0.00323016
0.00326222
0.00334963
0.00352579
0.00372124
0.00390339
0.00403685
0.00410041
0.00407815
0.0039381
0.00361111
0.00295472
0.00143439
0.00141241
0.00287329
0.00349452
0.00380528
0.00395306
0.00401501
0.00403178
0.00402082
0.00398575
0.00392378
0.00383154
0.00370868
0.00356238
0.00342514
0.00334875
0.00331726
0.00330647
0.00330326
0.00330258
0.0033032
0.00330627
0.00331671
0.0033477
0.0034239
0.00356321
0.00371582
0.00384593
0.00393262
0.00396546
0.00393121
0.00379683
0.00349168
0.00287243
0.00141243
0.00135676
0.0026825
0.0032299
0.00349467
0.00361659
0.00366705
0.00368286
0.00368008
0.00366264
0.00362817
0.00357221
0.00349273
0.00339679
0.00330761
0.00325474
0.00323126
0.00322265
0.00321994
0.00321937
0.00321997
0.00322268
0.00323122
0.00325462
0.0033076
0.00339765
0.00349561
0.00357629
0.00362666
0.00364033
0.00360546
0.00349067
0.00322866
0.00268211
0.00135683
0.00123014
0.00226697
0.00268269
0.00287365
0.00295684
0.00298967
0.00300021
0.00300029
0.002993
0.00297703
0.00294933
0.00290816
0.00285748
0.00280995
0.0027806
0.00276692
0.00276167
0.00275993
0.00275956
0.00276
0.00276179
0.00276709
0.0027808
0.00281024
0.00285809
0.00290933
0.00295033
0.00297445
0.00297813
0.0029524
0.00287223
0.00268231
0.00226682
0.00123021
0.00099844
0.00123014
0.00135684
0.0014126
0.00143478
0.0014428
0.00144531
0.0014456
0.00144449
0.00144167
0.00143631
0.00142776
0.00141667
0.00140597
0.00139941
0.00139639
0.00139522
0.00139482
0.00139473
0.00139484
0.00139525
0.00139642
0.00139944
0.001406
0.00141673
0.0014279
0.00143641
0.00144104
0.0014412
0.00143439
0.00141263
0.00135695
0.00123021
0.000998521
0.00108178
0.00142419
0.00161671
0.00170559
0.00174307
0.00175749
0.00176252
0.00176409
0.00176447
0.00176447
0.00176436
0.00176424
0.00176413
0.00176406
0.00176402
0.00176398
0.00176395
0.00176394
0.00176394
0.00176395
0.00176398
0.00176401
0.00176405
0.00176412
0.00176418
0.00176418
0.00176385
0.00176235
0.00175739
0.00174301
0.00170557
0.0016167
0.0014242
0.00108181
0.00142419
0.0027791
0.00332491
0.00358647
0.00370637
0.00375696
0.00377627
0.00378271
0.00378429
0.00378414
0.00378345
0.00378271
0.00378212
0.00378172
0.00378146
0.00378128
0.00378115
0.00378109
0.00378109
0.00378115
0.00378128
0.00378145
0.0037817
0.00378205
0.00378246
0.00378259
0.00378124
0.00377517
0.00375624
0.00370593
0.00358619
0.00332473
0.00277898
0.00142419
0.00161676
0.00332505
0.00402603
0.00437718
0.00454676
0.00462235
0.0046527
0.00466307
0.00466521
0.00466418
0.0046622
0.00466031
0.00465895
0.00465816
0.00465773
0.00465745
0.00465725
0.00465715
0.00465715
0.00465726
0.00465746
0.00465774
0.00465814
0.00465884
0.00465986
0.0046606
0.00465899
0.00464968
0.00462044
0.00454573
0.00437669
0.00402582
0.00332498
0.00161678
0.00170569
0.00358672
0.00437731
0.00478534
0.00498895
0.00508258
0.00512077
0.00513289
0.00513327
0.00512872
0.00512285
0.00511782
0.00511443
0.00511263
0.00511177
0.00511118
0.00511074
0.00511051
0.00511051
0.00511075
0.0051112
0.00511178
0.00511261
0.00511428
0.00511716
0.00512056
0.00512145
0.00511225
0.00507723
0.00498609
0.00478405
0.00437683
0.0035866
0.00170574
0.00174322
0.0037067
0.004547
0.00498907
0.00521388
0.00531847
0.00535984
0.00536922
0.00536241
0.00534801
0.0053323
0.00531982
0.00531194
0.00530812
0.00530648
0.00530521
0.00530417
0.0053036
0.00530361
0.00530418
0.00530523
0.0053065
0.0053081
0.00531176
0.00531901
0.00532948
0.0053392
0.00533738
0.00530434
0.00520629
0.00498558
0.00454566
0.00370632
0.00174325
0.00175766
0.00375733
0.00462266
0.00508285
0.0053187
0.00542724
0.00546536
0.00546382
0.00543855
0.00540077
0.00536282
0.00533523
0.00531924
0.0053125
0.00531018
0.00530768
0.00530539
0.00530415
0.00530415
0.00530541
0.00530771
0.00531021
0.00531249
0.00531905
0.00533436
0.00535969
0.00539101
0.00541102
0.00539326
0.00530046
0.00507438
0.00461929
0.00375626
0.0017576
0.00176271
0.00377667
0.00465314
0.00512135
0.0053607
0.00546638
0.00549245
0.00546608
0.005401
0.00531272
0.00522855
0.00517574
0.00514947
0.00514136
0.00514038
0.00513612
0.0051317
0.00512936
0.00512936
0.00513172
0.00513616
0.00514042
0.00514137
0.0051493
0.00517488
0.00522535
0.00530254
0.00537218
0.00539244
0.00532148
0.00510314
0.00464576
0.00377416
0.0017624
0.00176429
0.00378317
0.00466377
0.00513421
0.00537177
0.00546804
0.00547088
0.00539855
0.00525655
0.00506445
0.00488658
0.00480661
0.00478129
0.00478212
0.00478897
0.00478351
0.0047767
0.00477323
0.00477324
0.00477672
0.00478355
0.00478903
0.00478215
0.00478118
0.00480586
0.00488351
0.00505423
0.00522715
0.00532335
0.00529686
0.00509982
0.00464976
0.00377827
0.00176351
0.00176468
0.00378488
0.00466648
0.00513622
0.00536882
0.00545059
0.00541924
0.00527534
0.00499879
0.00459197
0.00419463
0.00415426
0.0041993
0.00424093
0.00426472
0.00426579
0.00426085
0.00425796
0.00425796
0.00426087
0.00426583
0.00426478
0.004241
0.00419928
0.00415376
0.00419192
0.00458192
0.00496902
0.0051991
0.00524347
0.00507986
0.00464362
0.00377674
0.00176324
0.00176472
0.00378502
0.00466652
0.00513472
0.00536184
0.00542856
0.00536015
0.00512958
0.0046526
0.00376903
0.00236723
0.00309877
0.00347484
0.00361631
0.00364269
0.00368405
0.00369365
0.00369462
0.00369463
0.00369368
0.0036841
0.00364276
0.00361643
0.00347501
0.00309883
0.00236553
0.0037593
0.00462223
0.00505226
0.00518299
0.00505627
0.00463498
0.00377365
0.00176257
0.00176466
0.00378481
0.00466621
0.00513361
0.00535796
0.00541688
0.00532796
0.00504252
0.00439135
0.00250385
0.00187002
0.00277353
0.00300729
0.00308265