/*--------------------------------*- C++ -*----------------------------------*\
| =========                 |                                                 |
| \\      /  F ield         | OpenFOAM: The Open Source CFD Toolbox           |
|  \\    /   O peration     | Version:  2112                                  |
|   \\  /    A nd           | Website:  www.openfoam.com                      |
|    \\/     M anipulation  |                                                 |
\*---------------------------------------------------------------------------*/
FoamFile
{
    version     2.0;
    format      ascii;
    arch        "LSB;label=32;scalar=64";
    class       volScalarField;
    location    "2.3";
    object      nut;
}
// * * * * * * * * * * * * * * * * * * * * * * * * * * * * * * * * * * * * * //

dimensions      [0 2 -1 0 0 0 0];

internalField   nonuniform List<scalar> 
64906
(
6.48698e-05
6.76271e-05
6.90961e-05
6.96905e-05
6.99055e-05
6.99769e-05
6.99991e-05
7.00057e-05
7.00079e-05
7.00088e-05
7.00093e-05
7.00095e-05
7.00095e-05
7.00094e-05
7.00091e-05
7.00086e-05
7.00081e-05
7.00075e-05
7.00071e-05
7.00075e-05
7.0008e-05
7.00085e-05
7.00088e-05
7.00089e-05
7.00088e-05
7.00082e-05
7.00063e-05
6.99998e-05
6.99778e-05
6.99065e-05
6.96917e-05
6.90975e-05
6.76285e-05
6.4871e-05
6.76282e-05
8.13003e-05
8.71757e-05
8.96532e-05
9.06639e-05
9.10476e-05
9.11813e-05
9.12237e-05
9.12354e-05
9.12374e-05
9.12368e-05
9.1236e-05
9.12358e-05
9.12361e-05
9.12366e-05
9.1237e-05
9.12372e-05
9.12373e-05
9.12373e-05
9.12372e-05
9.12371e-05
9.12367e-05
9.12363e-05
9.12358e-05
9.12353e-05
9.1233e-05
9.12222e-05
9.11814e-05
9.10493e-05
9.06666e-05
8.96564e-05
8.71791e-05
8.13035e-05
6.76307e-05
6.90992e-05
8.71778e-05
9.49925e-05
9.8449e-05
9.99507e-05
0.000100561
0.000100788
0.000100863
0.000100881
0.000100879
0.000100873
0.000100869
0.000100867
0.000100868
0.00010087
0.000100871
0.000100872
0.000100872
0.000100872
0.000100872
0.000100871
0.00010087
0.000100868
0.000100867
0.000100867
0.000100866
0.000100849
0.00010078
0.000100559
9.99527e-05
9.84534e-05
9.49978e-05
8.7183e-05
6.91031e-05
6.9695e-05
8.9657e-05
9.84511e-05
0.000102474
0.000104292
0.00010506
0.000105353
0.000105444
0.000105453
0.00010543
0.000105401
0.000105381
0.000105371
0.00010537
0.000105372
0.000105373
0.000105374
0.000105374
0.000105374
0.000105374
0.000105374
0.000105373
0.00010537
0.000105371
0.000105378
0.000105389
0.000105386
0.000105313
0.000105039
0.000104285
0.000102476
9.84567e-05
8.96636e-05
6.97003e-05
6.99109e-05
9.06688e-05
9.99541e-05
0.000104293
0.000106298
0.000107161
0.000107483
0.000107557
0.000107515
0.000107423
0.000107328
0.000107265
0.000107235
0.000107228
0.000107231
0.000107231
0.000107229
0.000107227
0.000107227
0.000107229
0.000107232
0.000107232
0.00010723
0.000107235
0.000107262
0.000107313
0.00010737
0.000107348
0.000107083
0.000106263
0.000104284
9.99568e-05
9.06756e-05
6.99171e-05
6.99827e-05
9.1053e-05
0.000100565
0.000105062
0.000107162
0.000108061
0.000108362
0.000108355
0.000108169
0.000107892
0.00010763
0.00010748
0.000107417
0.000107409
0.000107417
0.000107414
0.000107405
0.000107399
0.0001074
0.000107405
0.000107415
0.000107419
0.00010741
0.000107417
0.000107477
0.000107614
0.000107833
0.000107985
0.00010784
0.000107056
0.000105023
0.000100558
9.10577e-05
6.99896e-05
7.00049e-05
9.11865e-05
0.000100792
0.000105356
0.000107487
0.000108367
0.000108576
0.000108365
0.000107839
0.000107118
0.00010647
0.000106197
0.000106131
0.00010616
0.000106202
0.000106195
0.000106174
0.000106163
0.000106163
0.000106175
0.000106196
0.000106203
0.000106162
0.000106132
0.000106194
0.000106454
0.000107058
0.000107648
0.000107832
0.000107228
0.000105252
0.000100762
9.11852e-05
7.00119e-05
7.00112e-05
9.12285e-05
0.000100867
0.00010545
0.000107569
0.000108377
0.000108393
0.000107776
0.000106524
0.000104773
0.00010321
0.000102982
0.000103154
0.00010337
0.00010352
0.000103522
0.000103491
0.000103474
0.000103474
0.000103492
0.000103523
0.000103521
0.000103372
0.000103156
0.000102981
0.000103195
0.000104714
0.000106331
0.000107235
0.000107027
0.000105229
0.000100795
9.12151e-05
7.00176e-05
7.00128e-05
9.12398e-05
0.000100886
0.000105466
0.000107548
0.000108236
0.000107949
0.000106643
0.000103978
9.97631e-05
9.55936e-05
9.67514e-05
9.81718e-05
9.89905e-05
9.93837e-05
9.94446e-05
9.94309e-05
9.94192e-05
9.94196e-05
9.94319e-05
9.94463e-05
9.9386e-05
9.89934e-05
9.81749e-05
9.67526e-05
9.55816e-05
9.97072e-05
0.000103787
0.000106098
0.000106575
0.000105075
0.000100754
9.12085e-05
7.00175e-05
7.00128e-05
9.12417e-05
0.000100889
0.000105458
0.000107498
0.000108057
0.000107418
0.000105196
0.00010015
8.98259e-05
7.61657e-05
8.56213e-05
9.14608e-05
9.36598e-05
9.44116e-05
9.46267e-05
9.46775e-05
9.46869e-05
9.46872e-05
9.46785e-05
9.46284e-05
9.44141e-05
9.36633e-05
9.14659e-05
8.56277e-05
7.61599e-05
8.97774e-05
9.99599e-05
0.000104649
0.000106038
0.000104888
0.000100694
9.11917e-05
7.00151e-05
7.00126e-05
9.12414e-05
0.000100889
0.000105454
0.000107474
0.000107967
0.000107125
0.000104258
9.68541e-05
7.68149e-05
7.3805e-05
8.59654e-05
8.95747e-05
9.0594e-05
9.08776e-05
9.09448e-05
9.09577e-05
9.09578e-05
9.09453e-05
9.08786e-05
9.05956e-05
8.95777e-05
8.59709e-05
7.38095e-05
7.67878e-05
9.66649e-05
0.000103707
0.000105741
0.000104792
0.000100664
9.1182e-05
7.00138e-05
7.0012e-05
9.12414e-05
0.000100893
0.000105467
0.000107507
0.000108057
0.000107386
0.000105087
9.98872e-05
8.92866e-05
7.56155e-05
8.36074e-05
8.90299e-05
9.1013e-05
9.16078e-05
9.18102e-05
9.18452e-05
9.18446e-05
9.18445e-05
9.18449e-05
9.18097e-05
9.16072e-05
9.10125e-05
8.90297e-05
8.36039e-05
7.56031e-05
8.92276e-05
9.96909e-05
0.000104534
0.000106001
0.00010488
0.000100693
9.11883e-05
7.00139e-05
7.00111e-05
9.12419e-05
0.0001009
0.00010549
0.000107573
0.00010824
0.000107878
0.000106389
0.000103343
9.8416e-05
9.31215e-05
9.26039e-05
9.2649e-05
9.27598e-05
9.28097e-05
9.28246e-05
9.2812e-05
9.28016e-05
9.28014e-05
9.28114e-05
9.28234e-05
9.28079e-05
9.2757e-05
9.26445e-05
9.25947e-05
9.30981e-05
9.83511e-05
0.000103145
0.000105837
0.000106493
0.000105062
0.000100756
9.12052e-05
7.00146e-05
7.001e-05
9.12424e-05
0.000100907
0.000105513
0.000107639
0.000108415
0.000108313
0.000107403
0.00010554
0.000102678
9.93659e-05
9.68349e-05
9.48467e-05
9.39309e-05
9.36025e-05
9.3491e-05
9.34485e-05
9.34329e-05
9.34326e-05
9.34476e-05
9.34894e-05
9.36e-05
9.39272e-05
9.48412e-05
9.68259e-05
9.93425e-05
0.000102611
0.000105341
0.00010685
0.000106927
0.000105235
0.000100818
9.12221e-05
7.00147e-05
7.00088e-05
9.12426e-05
0.000100913
0.000105531
0.000107687
0.000108535
0.000108593
0.000108
0.000106677
0.000104532
0.000101698
9.86282e-05
9.59042e-05
9.45346e-05
9.40127e-05
9.3836e-05
9.37766e-05
9.3757e-05
9.37565e-05
9.37753e-05
9.38341e-05
9.40099e-05
9.45306e-05
9.58985e-05
9.86175e-05
0.000101675
0.000104465
0.000106476
0.000107446
0.000107206
0.000105353
0.000100862
9.12339e-05
7.00139e-05
7.00075e-05
9.12424e-05
0.000100916
0.000105541
0.000107715
0.000108603
0.000108743
0.000108296
0.000107193
0.000105293
0.000102576
9.9336e-05
9.63405e-05
9.47926e-05
9.41889e-05
9.39834e-05
9.39149e-05
9.38918e-05
9.38911e-05
9.39133e-05
9.39812e-05
9.4186e-05
9.47885e-05
9.63347e-05
9.93246e-05
0.000102553
0.000105225
0.000106992
0.000107741
0.000107353
0.000105418
0.000100887
9.12401e-05
7.00124e-05
7.00061e-05
9.1242e-05
0.000100918
0.000105547
0.00010773
0.000108636
0.000108811
0.000108425
0.000107403
0.00010558
0.000102889
9.959e-05
9.64987e-05
9.48875e-05
9.42535e-05
9.40365e-05
9.39632e-05
9.39369e-05
9.3936e-05
9.39613e-05
9.4034e-05
9.42504e-05
9.48832e-05
9.64929e-05
9.95787e-05
0.000102866
0.000105512
0.0001072
0.000107868
0.00010742
0.000105449
0.000100899
9.12428e-05
7.00105e-05
7.00049e-05
9.12416e-05
0.000100919
0.00010555
0.000107736
0.000108649
0.000108837
0.000108471
0.000107474
0.000105673
0.000102987
9.96686e-05
9.65476e-05
9.49168e-05
9.42732e-05
9.4052e-05
9.39762e-05
9.39473e-05
9.39461e-05
9.3974e-05
9.40493e-05
9.42699e-05
9.49125e-05
9.65418e-05
9.96574e-05
0.000102964
0.000105606
0.000107272
0.000107914
0.000107446
0.000105461
0.000100904
9.12436e-05
7.00086e-05
7.00038e-05
9.12414e-05
0.000100919
0.00010555
0.000107736
0.00010865
0.000108838
0.000108472
0.000107476
0.000105676
0.00010299
9.96718e-05
9.65498e-05
9.49182e-05
9.42737e-05
9.40518e-05
9.39751e-05
9.39445e-05
9.39431e-05
9.39726e-05
9.40489e-05
9.42704e-05
9.49139e-05
9.6544e-05
9.96607e-05
0.000102968
0.000105609
0.000107274
0.000107916
0.000107447
0.000105462
0.000100905
9.12435e-05
7.0007e-05
7.00037e-05
9.12415e-05
0.000100919
0.000105549
0.000107732
0.000108639
0.000108816
0.00010843
0.00010741
0.000105589
0.000102899
9.96002e-05
9.65058e-05
9.48919e-05
9.42556e-05
9.40362e-05
9.39601e-05
9.39297e-05
9.39282e-05
9.39575e-05
9.40333e-05
9.42521e-05
9.48877e-05
9.65002e-05
9.95895e-05
0.000102877
0.000105522
0.000107209
0.000107875
0.000107425
0.000105452
0.000100901
9.12427e-05
7.00068e-05
7.00048e-05
9.12419e-05
0.000100918
0.000105544
0.000107719
0.000108609
0.00010875
0.000108306
0.000107206
0.000105309
0.000102595
9.93557e-05
9.6354e-05
9.48015e-05
9.41935e-05
9.39842e-05
9.39113e-05
9.38831e-05
9.38818e-05
9.39088e-05
9.39813e-05
9.41902e-05
9.47974e-05
9.63488e-05
9.93459e-05
0.000102574
0.000105243
0.000107006
0.000107752
0.000107362
0.000105424
0.00010089
9.12403e-05
7.00084e-05
7.00061e-05
9.12423e-05
0.000100915
0.000105534
0.000107693
0.000108543
0.000108604
0.000108014
0.000106696
0.000104558
0.00010173
9.86619e-05
9.59269e-05
9.45497e-05
9.40215e-05
9.38395e-05
9.37747e-05
9.37504e-05
9.37494e-05
9.37725e-05
9.38368e-05
9.40185e-05
9.45462e-05
9.59227e-05
9.86537e-05
0.00010171
0.000104495
0.000106499
0.000107463
0.000107218
0.000105361
0.000100867
9.12346e-05
7.001e-05
7.00074e-05
9.12424e-05
0.00010091
0.000105518
0.000107647
0.000108425
0.000108327
0.000107423
0.000105569
0.000102718
9.94182e-05
9.68805e-05
9.488e-05
9.39518e-05
9.36144e-05
9.34963e-05
9.34486e-05
9.34294e-05
9.34287e-05
9.34468e-05
9.34941e-05
9.3612e-05
9.39491e-05
9.48774e-05
9.68766e-05
9.94018e-05
0.000102657
0.000105374
0.000106873
0.000106943
0.000105246
0.000100825
9.12237e-05
7.0011e-05
7.00086e-05
9.12421e-05
0.000100903
0.000105495
0.000107582
0.000108252
0.000107895
0.000106413
0.00010338
9.84738e-05
9.32058e-05
9.26735e-05
9.26815e-05
9.27702e-05
9.28073e-05
9.28141e-05
9.27969e-05
9.2784e-05
9.27835e-05
9.27956e-05
9.2812e-05
9.28044e-05
9.27668e-05
9.26794e-05
9.26746e-05
9.31949e-05
9.84184e-05
0.000103186
0.000105863
0.000106511
0.000105075
0.000100764
9.12074e-05
7.00111e-05
7.00095e-05
9.12412e-05
0.000100895
0.000105471
0.000107514
0.000108067
0.000107401
0.00010511
9.99267e-05
8.93606e-05
7.56719e-05
8.36422e-05
8.89824e-05
9.09264e-05
9.14964e-05
9.16869e-05
9.17168e-05
9.17141e-05
9.17136e-05
9.17149e-05
9.16824e-05
9.14869e-05
9.09102e-05
8.89645e-05
8.36428e-05
7.56633e-05
8.93136e-05
9.97291e-05
0.000104554
0.000106014
0.00010489
0.0001007
9.11902e-05
7.00105e-05
7.00099e-05
9.12386e-05
0.000100885
0.00010545
0.00010747
0.000107964
0.000107124
0.000104257
9.68544e-05
7.68142e-05
7.36273e-05
8.55691e-05
8.90537e-05
8.99868e-05
9.02366e-05
9.0293e-05
9.03017e-05
9.03e-05
9.02861e-05
9.02188e-05
8.99447e-05
8.89693e-05
8.54397e-05
7.35354e-05
7.67575e-05
9.66285e-05
0.000103683
0.00010573
0.000104789
0.000100664
9.11811e-05
7.00103e-05
7.00089e-05
9.12278e-05
0.000100863
0.000105423
0.000107456
0.000108012
0.000107369
0.000105138
0.00010007
8.97115e-05
7.60191e-05
8.48163e-05
9.01952e-05
9.19251e-05
9.2373e-05
9.24985e-05
9.25328e-05
9.25396e-05
9.25362e-05
9.25176e-05
9.24512e-05
9.22439e-05
9.1633e-05
8.9684e-05
8.43043e-05
7.58027e-05
8.94574e-05
9.97464e-05
0.000104523
0.000105967
0.000104846
0.00010067
9.11791e-05
7.00104e-05
7.00032e-05
9.11877e-05
0.000100791
0.000105335
0.000107392
0.000108064
0.000107759
0.000106414
0.000103654
9.9218e-05
9.45825e-05
9.48617e-05
9.52029e-05
9.48564e-05
9.45651e-05
9.44431e-05
9.44044e-05
9.43926e-05
9.43872e-05
9.43784e-05
9.43555e-05
9.43032e-05
9.42013e-05
9.39623e-05
9.35826e-05
9.36208e-05
9.85738e-05
0.000103151
0.000105732
0.000106349
0.000104925
0.000100656
9.11573e-05
7.00069e-05
6.99818e-05
9.10565e-05
0.000100569
0.000105055
0.000107108
0.000107872
0.000107849
0.000107159
0.000105732
0.000103583
0.000101219
9.96332e-05
9.79453e-05
9.61865e-05
9.53098e-05
9.49869e-05
9.48871e-05
9.48596e-05
9.48527e-05
9.48527e-05
9.48647e-05
9.49257e-05
9.51637e-05
9.58923e-05
9.75699e-05
9.96736e-05
0.000102594
0.000105064
0.000106424
0.000106455
0.000104803
0.000100492
9.10438e-05
6.99873e-05
6.99108e-05
9.06744e-05
9.9963e-05
0.000104299
0.000106281
0.000107071
0.000107214
0.000106909
0.00010617
0.000104976
0.000103403
0.000101587
9.9406e-05
9.72544e-05
9.61804e-05
9.57796e-05
9.56542e-05
9.562e-05
9.56127e-05
9.56168e-05
9.56446e-05
9.57556e-05
9.61287e-05
9.71691e-05
9.93372e-05
0.00010171
0.000103895
0.000105466
0.000106193
0.0001059
0.000104162
9.99281e-05
9.06744e-05
6.99173e-05
6.96959e-05
8.96642e-05
9.84636e-05
0.000102489
0.0001043
0.000105037
0.000105243
0.000105137
0.000104762
0.000104076
0.000103028
0.000101597
9.98361e-05
9.81395e-05
9.72176e-05
9.68469e-05
9.67254e-05
9.66924e-05
9.66857e-05
9.66907e-05
9.67209e-05
9.68386e-05
9.71988e-05
9.8114e-05
9.98285e-05
0.00010166
0.000103187
0.000104179
0.000104534
0.000104099
0.000102427
9.84556e-05
8.96717e-05
6.97028e-05
6.91012e-05
8.71862e-05
9.50074e-05
9.84695e-05
9.9973e-05
0.000100575
0.000100768
0.000100754
0.00010058
0.000100217
9.96035e-05
9.8703e-05
9.7583e-05
9.65192e-05
9.58997e-05
9.56318e-05
9.55389e-05
9.55122e-05
9.55068e-05
9.55116e-05
9.55374e-05
9.56286e-05
9.58938e-05
9.65123e-05
9.75835e-05
9.87252e-05
9.96429e-05
0.000100197
0.000100327
9.98875e-05
9.84533e-05
9.50147e-05
8.71972e-05
6.91079e-05
6.76314e-05
8.13089e-05
8.71906e-05
8.96741e-05
9.069e-05
9.10757e-05
9.12027e-05
9.12175e-05
9.11576e-05
9.1007e-05
9.07272e-05
9.02912e-05
8.97362e-05
8.92031e-05
8.88775e-05
8.8729e-05
8.86747e-05
8.86581e-05
8.86547e-05
8.86583e-05
8.86749e-05
8.8729e-05
8.88768e-05
8.92023e-05
8.97373e-05
9.02978e-05
9.07329e-05
9.09756e-05
9.09919e-05
9.06726e-05
8.96816e-05
8.72038e-05
8.13198e-05
6.76371e-05
6.48728e-05
6.76333e-05
6.91072e-05
6.97063e-05
6.9926e-05
7.00022e-05
7.00287e-05
7.00375e-05
7.0036e-05
7.00215e-05
6.9989e-05
6.99288e-05
6.9844e-05
6.97564e-05
6.97011e-05
6.96738e-05
6.96613e-05
6.96547e-05
6.96523e-05
6.96552e-05
6.96616e-05
6.96739e-05
6.97006e-05
6.97554e-05
6.98425e-05
6.99272e-05
6.99867e-05
7.00143e-05
7.00074e-05
6.99382e-05
6.97191e-05
6.91176e-05
6.76404e-05
6.48769e-05
0.000100101
0.000111508
0.00011738
0.00011994
0.000120976
0.000121363
0.000121494
0.000121535
0.000121545
0.000121546
0.000121544
0.000121542
0.00012154
0.000121538
0.000121537
0.000121536
0.000121536
0.000121535
0.000121535
0.000121535
0.000121536
0.000121537
0.000121538
0.000121539
0.00012154
0.000121539
0.00012153
0.000121491
0.000121361
0.000120976
0.000119941
0.000117381
0.000111509
0.000100102
0.000111508
0.000318583
0.000388006
0.000417436
0.000430356
0.000435724
0.000437753
0.000438423
0.000438583
0.000438564
0.000438491
0.000438413
0.000438351
0.000438308
0.00043828
0.000438259
0.000438245
0.000438237
0.000438237
0.000438245
0.000438259
0.00043828
0.000438307
0.000438345
0.00043839
0.000438407
0.00043827
0.00043764
0.00043565
0.000430309
0.000417405
0.000387983
0.000318569
0.000111509
0.000117383
0.000388028
0.000485444
0.000528752
0.000548733
0.000557507
0.000561012
0.000562205
0.000562454
0.000562343
0.000562128
0.000561927
0.000561787
0.000561708
0.000561668
0.000561641
0.00056162
0.00056161
0.00056161
0.000561622
0.000561642
0.00056167
0.000561708
0.000561777
0.000561881
0.000561954
0.000561761
0.000560685
0.000557305
0.000548626
0.000528701
0.000485421
0.000388021
0.000117385
0.000119945
0.000417471
0.000528768
0.000579934
0.000604348
0.000615426
0.000619929
0.000621357
0.000621411
0.000620891
0.000620226
0.000619666
0.000619298
0.000619112
0.000619029
0.000618969
0.00061892
0.000618894
0.000618895
0.000618922
0.000618971
0.000619032
0.000619112
0.000619283
0.000619595
0.000619968
0.000620055
0.000618962
0.000614825
0.000604032
0.000579793
0.000528716
0.000417459
0.000119949
0.000120982
0.000430398
0.000548759
0.000604361
0.000631438
0.000643881
0.000648792
0.000649906
0.000649105
0.000647413
0.000645581
0.000644156
0.000643271
0.000642863
0.000642704
0.000642562
0.000642438
0.00064237
0.000642371
0.00064244
0.000642566
0.000642708
0.000642864
0.000643253
0.000644068
0.000645261
0.000646391
0.000646166
0.00064224
0.000630567
0.000603966
0.000548611
0.000430359
0.000120987
0.000121369
0.000435768
0.000557541
0.000615452
0.000643904
0.000656845
0.000661377
0.000661182
0.000658153
0.000653629
0.000649117
0.000645973
0.000644172
0.000643464
0.000643267
0.000642965
0.000642675
0.00064252
0.000642521
0.000642678
0.000642969
0.000643272
0.000643466
0.000644154
0.000645878
0.000648763
0.000652498
0.000654918
0.000652829
0.000641768
0.000614475
0.000557162
0.000435659
0.000121372
0.000121501
0.000437798
0.000561055
0.000619986
0.000648882
0.000661488
0.000664567
0.000661352
0.000653432
0.0006426
0.000632307
0.000626669
0.000623921
0.000623215
0.000623308
0.000622743
0.000622159
0.000621862
0.000621863
0.000622163
0.000622749
0.000623314
0.000623219
0.000623906
0.000626578
0.00063195
0.000641429
0.000650055
0.000652642
0.000644233
0.000617859
0.000560217
0.000437541
0.000121499
0.000121542
0.00043847
0.000562272
0.000621493
0.000650184
0.000661652
0.000661893
0.000652978
0.000635222
0.000610411
0.000586861
0.000581275
0.000580154
0.0005811
0.000582503
0.000581622
0.000580678
0.000580237
0.000580238
0.000580681
0.000581628
0.000582511
0.000581106
0.000580145
0.000581201
0.000586532
0.000609257
0.000631803
0.000644106
0.000641214
0.000617437
0.000560666
0.00043796
0.000121528
0.000121552
0.00043864
0.000562579
0.000621725
0.000649817
0.000659512
0.000655491
0.000637301
0.000600803
0.000542297
0.000477019
0.000496799
0.000510816
0.000518407
0.000522941
0.000522114
0.000521147
0.000520739
0.00052074
0.00052115
0.000522119
0.000522949
0.000518415
0.000510819
0.000496761
0.000476769
0.000541219
0.000597394
0.000628349
0.000634633
0.00061502
0.000559937
0.000437784
0.000121523
0.000121553
0.000438646
0.000562582
0.000621545
0.000648969
0.000656792
0.000647948
0.000617462
0.000548164
0.000398037
0.00014007
0.000343446
0.000421809
0.000445843
0.000454426
0.00045523
0.000455131
0.000455047
0.000455048
0.000455133
0.000455235
0.000454434
0.000445856
0.000421835
0.000343492
0.000140032
0.000397175
0.000544793
0.000608442
0.000626964
0.00061214
0.000558914
0.000437441
0.000121507
0.000121552
0.000438617
0.000562546
0.000621418
0.000648505
0.00065533
0.000643585
0.000603598
0.000494357
0.000142767
0.000130361
0.000345378
0.000389046
0.000398809
0.000402275
0.000403244
0.000403435
0.000403435
0.000403246
0.000402279
0.000398816
0.000389062
0.000345417
0.000130368
0.000142599
0.000491101
0.000594529
0.000622519
0.000610586
0.000558352
0.00043722
0.000121496
0.000121551
0.000438596
0.000562573
0.000621543
0.000648871
0.000656371
0.000646762
0.000614771
0.000542975
0.000389732
0.000137467
0.000315628
0.000381206
0.000398243
0.000398711
0.000405277
0.000407376
0.000407734
0.000407733
0.000407373
0.000405274
0.000398702
0.000398232
0.000381195
0.000315608
0.000137415
0.000388798
0.000539562
0.000605706
0.00062571
0.000611617
0.000558674
0.000437263
0.000121499
0.00012155
0.000438593
0.000562659
0.000621854
0.000649774
0.0006588
0.000653104
0.000631405
0.000588401
0.00051905
0.000438246
0.000432062
0.000421827
0.000418184
0.000416091
0.00041746
0.000417994
0.000418063
0.000418062
0.00041799
0.000417453
0.000416077
0.00041816
0.000421783
0.000431965
0.00043795
0.00051793
0.000584946
0.000622371
0.000632097
0.000614069
0.000559557
0.0004375
0.000121511
0.000121549
0.000438596
0.000562757
0.000622194
0.000650728
0.000661232
0.000658878
0.000644335
0.000615867
0.000572881
0.000522278
0.000481712
0.000445562
0.000430851
0.000425899
0.000424794
0.000424528
0.000424448
0.000424447
0.000424526
0.000424788
0.000425887
0.000430827
0.000445514
0.00048161
0.000521944
0.000571714
0.000612393
0.000635312
0.000637892
0.000616507
0.000560484
0.000437765
0.000121523
0.000121547
0.0004386
0.000562834
0.000622458
0.000651448
0.000662989
0.000662776
0.000652202
0.0006302
0.000595698
0.000550832
0.000502287
0.000457058
0.000437326
0.000430497
0.000428492
0.00042796
0.000427838
0.000427838
0.00042796
0.000428489
0.000430488
0.000437304
0.000457016
0.000502207
0.000550493
0.000594514
0.000626709
0.00064317
0.000641783
0.000618248
0.000561168
0.000437964
0.00012153
0.000121546
0.0004386
0.000562882
0.000622621
0.000651884
0.000664019
0.00066495
0.000656291
0.000636965
0.000605249
0.000561527
0.000510488
0.000462011
0.000440226
0.000432513
0.000430175
0.000429561
0.000429431
0.000429431
0.000429561
0.000430174
0.000432506
0.000440207
0.000461972
0.00051041
0.000561185
0.000604055
0.000633459
0.000647243
0.000643937
0.000619253
0.00056157
0.000438079
0.000121534
0.000121544
0.000438599
0.000562906
0.000622706
0.000652107
0.000664528
0.000665985
0.000658144
0.000639839
0.000609013
0.00056547
0.000513537
0.00046391
0.000441359
0.000433299
0.000430842
0.000430202
0.000430073
0.000430073
0.000430203
0.000430842
0.000433293
0.000441341
0.000463871
0.00051346
0.000565126
0.000607813
0.000636324
0.000649081
0.000644956
0.000619742
0.000561768
0.000438133
0.000121534
0.000121543
0.000438597
0.000562916
0.000622742
0.000652197
0.000664728
0.000666379
0.000658824
0.000640851
0.000610275
0.000566734
0.000514504
0.000464519
0.000441724
0.000433551
0.000431056
0.000430409
0.000430281
0.000430282
0.000430411
0.000431056
0.000433545
0.000441706
0.000464481
0.000514427
0.000566389
0.000609073
0.000637331
0.000649755
0.000645341
0.000619931
0.000561845
0.000438153
0.000121533
0.000121543
0.000438597
0.000562917
0.000622744
0.000652202
0.000664734
0.000666386
0.000658834
0.000640862
0.000610287
0.000566746
0.000514516
0.000464535
0.000441734
0.000433556
0.000431061
0.000430414
0.000430286
0.000430287
0.000430415
0.000431061
0.000433551
0.000441716
0.000464498
0.000514439
0.000566402
0.000609086
0.000637344
0.000649765
0.000645349
0.000619936
0.000561848
0.000438153
0.000121533
0.000121543
0.000438597
0.000562909
0.000622714
0.00065212
0.000664546
0.000666009
0.000658174
0.000639876
0.000609053
0.00056551
0.000513577
0.000463964
0.000441396
0.000433323
0.000430862
0.000430223
0.000430096
0.000430097
0.000430225
0.000430863
0.000433319
0.00044138
0.000463929
0.000513502
0.000565169
0.000607858
0.000636364
0.000649114
0.00064498
0.000619758
0.000561776
0.000438133
0.000121532
0.000121544
0.000438598
0.000562887
0.000622634
0.000651906
0.000664049
0.000664991
0.000656345
0.000637032
0.000605327
0.00056161
0.000510571
0.000462122
0.000440309
0.000432576
0.000430233
0.00042962
0.000429495
0.000429496
0.000429624
0.000430236
0.000432575
0.000440297
0.000462092
0.000510499
0.000561275
0.000604142
0.000633534
0.000647302
0.000643981
0.000619281
0.000561584
0.000438078
0.000121531
0.000121545
0.000438596
0.000562841
0.000622476
0.000651477
0.000663032
0.000662836
0.000652283
0.000630306
0.000595833
0.000550989
0.000502444
0.000457257
0.000437485
0.000430633
0.000428623
0.000428097
0.000427981
0.000427983
0.000428102
0.00042863
0.000430638
0.000437481
0.000457236
0.000502381
0.000550667
0.000594666
0.000626828
0.000643258
0.000641845
0.000618287
0.000561187
0.000437962
0.000121527
0.000121546
0.00043859
0.000562763
0.000622214
0.000650762
0.000661284
0.000658952
0.000644441
0.000616021
0.000573105
0.000522581
0.000482057
0.000445872
0.000431095
0.000426119
0.000425008
0.000424752
0.000424683
0.000424686
0.000424762
0.000425023
0.000426133
0.000431101
0.000445865
0.000482009
0.000522289
0.000571972
0.000612563
0.000635422
0.000637964
0.000616553
0.000560505
0.000437761
0.000121519
0.000121547
0.00043858
0.000562658
0.000621864
0.000649797
0.00065884
0.000653169
0.000631513
0.000588594
0.000519403
0.000438795
0.000432599
0.000422122
0.000418328
0.00041619
0.000417536
0.000418083
0.000418168
0.000418173
0.000418097
0.000417554
0.0004162
0.000418322
0.000422108
0.000432598
0.000438583
0.000518341
0.000585135
0.000622454
0.000632142
0.000614096
0.000559567
0.000437487
0.000121507
0.000121547
0.000438564
0.000562536
0.0006215
0.000648827
0.000656333
0.000646739
0.000614785
0.000543106
0.000390187
0.000137581
0.00031594
0.000380609
0.00039719
0.00039741
0.000403908
0.000406027
0.000406404
0.000406407
0.00040603
0.000403894
0.000397328
0.000397016
0.000380399
0.000316029
0.000137538
0.000389356
0.00053957
0.00060558
0.000625604
0.000611551
0.00055863
0.00043722
0.000121494
0.000121545
0.00043852
0.000562381
0.000621188
0.000648225
0.000655012
0.000643228
0.000603197
0.000493974
0.000142678
0.000129653
0.00034046
0.00038241
0.000391101
0.000394288
0.00039524
0.000395444
0.000395434
0.000395188
0.000394115
0.000390624
0.000381391
0.000338939
0.000129283
0.000142366
0.000490091
0.000593641
0.000621928
0.000610225
0.000558137
0.000437093
0.000121488
0.000121535
0.000438336
0.000562007
0.000620735
0.000647973
0.000655642
0.000646615
0.000615822
0.000546037
0.000395564
0.000139039
0.000331719
0.000403653
0.000421517
0.000426106
0.000426343
0.000426358
0.000426369
0.000426334
0.000426193
0.000425794
0.000424536
0.000417765
0.00039679
0.000324992
0.000138036
0.000391713
0.000540317
0.000605487
0.000625116
0.000610986
0.000558211
0.000437067
0.000121486
0.000121496
0.000437676
0.000560815
0.000619295
0.000646879
0.00065617
0.000651677
0.000632623
0.000594316
0.000532152
0.000460034
0.000466611
0.000465093
0.000455524
0.000450431
0.00044823
0.000447532
0.000447344
0.00044728
0.000447216
0.000447116
0.000446997
0.000446413
0.000446368
0.000447184
0.000445521
0.000521498
0.000585463
0.000621089
0.000630011
0.000611945
0.000557944
0.00043672
0.000121463
0.000121366
0.000435671
0.000557374
0.000614973
0.000642495
0.000653107
0.00065247
0.000642037
0.000621027
0.000589403
0.00055296
0.000526175
0.000495998
0.000464417
0.00045111
0.000446599
0.000445265
0.00044491
0.000444827
0.000444835
0.000445025
0.000445953
0.000449497
0.000461507
0.000492895
0.000527887
0.000572725
0.000609307
0.000629567
0.000631056
0.000610004
0.000555454
0.000435034
0.000121348
0.000120981
0.000430324
0.000548666
0.000604097
0.000630625
0.000641658
0.000643413
0.000638255
0.000626361
0.000607322
0.000581718
0.000551293
0.000514639
0.000477553
0.000461561
0.00045604
0.000454363
0.000453906
0.00045381
0.000453871
0.000454256
0.000455776
0.000461002
0.00047678
0.000514546
0.000553836
0.00058894
0.000613995
0.00062608
0.000623261
0.000600989
0.000547499
0.000429936
0.000120974
0.000119945
0.000417414
0.000528728
0.000579828
0.00060397
0.000614299
0.000617057
0.000614874
0.000608215
0.000596429
0.000578671
0.000554687
0.000525709
0.000498167
0.000484502
0.000479253
0.000477506
0.000476986
0.000476875
0.000476979
0.000477479
0.000479174
0.000484368
0.00049805
0.000525988
0.000556007
0.000581163
0.000597843
0.000604554
0.000599557
0.000578047
0.000528085
0.000417195
0.000119945
0.000117385
0.000387985
0.000485435
0.000528737
0.000548613
0.000557052
0.000559711
0.000559045
0.000555617
0.000548932
0.000538122
0.000522808
0.000504331
0.000487189
0.000477658
0.000473599
0.000472134
0.00047167
0.00047157
0.000471676
0.000472142
0.000473601
0.000477654
0.000487221
0.000504533
0.000523356
0.000538844
0.000548622
0.000551665
0.000546291
0.00052785
0.000485129
0.000387869
0.000117387
0.000111511
0.000318561
0.00038802
0.000417466
0.000430365
0.000435623
0.000437339
0.000437264
0.000435853
0.000432853
0.000427745
0.000420262
0.000411151
0.000402674
0.000397593
0.000395262
0.000394366
0.000394066
0.000394002
0.000394079
0.000394391
0.000395297
0.000397637
0.000402742
0.00041128
0.000420492
0.000427935
0.000432414
0.00043334
0.000429434
0.000417132
0.000387907
0.000318504
0.000111514
0.000100104
0.000111511
0.000117389
0.000119954
0.000120995
0.000121382
0.000121506
0.000121519
0.000121458
0.000121309
0.000121034
0.000120604
0.000120055
0.00011953
0.000119206
0.000119056
0.000118997
0.000118977
0.000118972
0.000118978
0.000118999
0.000119057
0.000119208
0.000119532
0.000120059
0.000120611
0.000121038
0.000121276
0.000121292
0.000120969
0.000119953
0.000117393
0.000111514
0.000100109
0.000104316
0.000120217
0.000128421
0.00013213
0.000133714
0.000134342
0.000134568
0.000134641
0.00013466
0.00013466
0.000134654
0.000134648
0.000134643
0.000134639
0.000134637
0.000134636
0.000134634
0.000134634
0.000134634
0.000134634
0.000134635
0.000134637
0.000134639
0.000134642
0.000134645
0.000134645
0.000134629
0.00013456
0.000134336
0.000133712
0.000132129
0.00012842
0.000120217
0.000104317
0.000120217
0.000412355
0.000519183
0.000566166
0.00058755
0.000596818
0.000600485
0.000601748
0.000602054
0.000602003
0.000601838
0.00060166
0.000601517
0.000601417
0.000601351
0.000601305
0.000601273
0.000601256
0.000601256
0.000601272
0.000601303
0.000601349
0.000601411
0.0006015
0.000601605
0.000601652
0.000601398
0.00060022
0.000596636
0.000587431
0.000566086
0.000519125
0.000412319
0.000120216
0.000128423
0.000519219
0.000677313
0.000750336
0.000785003
0.000800713
0.000807204
0.000809478
0.000809942
0.000809678
0.000809183
0.000808703
0.000808349
0.000808138
0.000808022
0.000807944
0.000807889
0.00080786
0.000807861
0.00080789
0.000807944
0.000808021
0.000808131
0.000808319
0.000808591
0.000808799
0.000808471
0.000806452
0.000800229
0.000784727
0.000750189
0.000677234
0.000519182
0.000128424
0.000132135
0.000566224
0.000750365
0.00083833
0.00088139
0.000901453
0.000909835
0.000912542
0.000912593
0.000911475
0.000910012
0.000908709
0.000907794
0.000907293
0.000907049
0.000906876
0.000906747
0.00090668
0.000906681
0.000906749
0.000906878
0.00090705
0.000907285
0.000907751
0.000908542
0.000909448
0.000909745
0.000907744
0.000900119
0.000880652
0.000837969
0.000750205
0.000566166
0.000132136
0.000133721
0.00058762
0.000785053
0.000881416
0.000929497
0.000952122
0.000961253