/*--------------------------------*- C++ -*----------------------------------*\
| =========                 |                                                 |
| \\      /  F ield         | OpenFOAM: The Open Source CFD Toolbox           |
|  \\    /   O peration     | Version:  2112                                  |
|   \\  /    A nd           | Website:  www.openfoam.com                      |
|    \\/     M anipulation  |                                                 |
\*---------------------------------------------------------------------------*/
FoamFile
{
    version     2.0;
    format      ascii;
    arch        "LSB;label=32;scalar=64";
    class       volScalarField;
    location    "2.3";
    object      p;
}
// * * * * * * * * * * * * * * * * * * * * * * * * * * * * * * * * * * * * * //

dimensions      [0 2 -2 0 0 0 0];

internalField   nonuniform List<scalar> 
64906
(
-7.22742e-06
-7.20769e-06
-7.2021e-06
-7.21039e-06
-7.23749e-06
-7.29841e-06
-7.39339e-06
-7.52843e-06
-7.67898e-06
-7.84147e-06
-8.01712e-06
-8.19957e-06
-8.37632e-06
-8.53975e-06
-8.68119e-06
-8.79653e-06
-8.88235e-06
-8.9373e-06
-8.96074e-06
-8.95284e-06
-8.91464e-06
-8.84784e-06
-8.75621e-06
-8.64413e-06
-8.52061e-06
-8.39334e-06
-8.27523e-06
-8.1735e-06
-8.0936e-06
-8.03405e-06
-7.99613e-06
-7.98405e-06
-7.99272e-06
-8.01356e-06
-7.16543e-06
-7.07711e-06
-7.01083e-06
-6.97344e-06
-6.97486e-06
-7.0015e-06
-7.05099e-06
-7.11428e-06
-7.20507e-06
-7.31883e-06
-7.43985e-06
-7.56355e-06
-7.67886e-06
-7.78444e-06
-7.87444e-06
-7.94865e-06
-8.00536e-06
-8.04473e-06
-8.0666e-06
-8.07116e-06
-8.05891e-06
-8.03e-06
-7.98645e-06
-7.92866e-06
-7.86281e-06
-7.79031e-06
-7.72296e-06
-7.66538e-06
-7.6292e-06
-7.62371e-06
-7.65553e-06
-7.72308e-06
-7.81627e-06
-7.92838e-06
-7.1484e-06
-7.01413e-06
-6.90036e-06
-6.81652e-06
-6.77634e-06
-6.77302e-06
-6.80026e-06
-6.85358e-06
-6.93229e-06
-7.03474e-06
-7.14781e-06
-7.26768e-06
-7.37262e-06
-7.46478e-06
-7.53761e-06
-7.59612e-06
-7.6403e-06
-7.67245e-06
-7.69304e-06
-7.70223e-06
-7.69992e-06
-7.68411e-06
-7.65519e-06
-7.60835e-06
-7.5507e-06
-7.48033e-06
-7.42046e-06
-7.37586e-06
-7.36229e-06
-7.38722e-06
-7.46022e-06
-7.58487e-06
-7.74283e-06
-7.91651e-06
-7.17644e-06
-7.00285e-06
-6.84503e-06
-6.72003e-06
-6.64883e-06
-6.62699e-06
-6.6486e-06
-6.71169e-06
-6.81474e-06
-6.96053e-06
-7.13074e-06
-7.32081e-06
-7.47758e-06
-7.60721e-06
-7.69949e-06
-7.76895e-06
-7.81756e-06
-7.85103e-06
-7.87051e-06
-7.87614e-06
-7.86717e-06
-7.83817e-06
-7.7877e-06
-7.70149e-06
-7.59082e-06
-7.44983e-06
-7.3348e-06
-7.25183e-06
-7.22502e-06
-7.2587e-06
-7.36209e-06
-7.5365e-06
-7.75247e-06
-7.97846e-06
-7.26218e-06
-7.05614e-06
-6.86484e-06
-6.71098e-06
-6.62362e-06
-6.60137e-06
-6.6415e-06
-6.74817e-06
-6.92594e-06
-7.18949e-06
-7.51216e-06
-7.89044e-06
-8.18982e-06
-8.42686e-06
-8.58608e-06
-8.70118e-06
-8.77629e-06
-8.82237e-06
-8.84117e-06
-8.83281e-06
-8.79591e-06
-8.71979e-06
-8.60103e-06
-8.40628e-06
-8.15284e-06
-7.82425e-06
-7.56107e-06
-7.3672e-06
-7.2776e-06
-7.28627e-06
-7.39681e-06
-7.60309e-06
-7.86303e-06
-8.13274e-06
-7.40607e-06
-7.16885e-06
-6.9512e-06
-6.77893e-06
-6.68938e-06
-6.68486e-06
-6.76803e-06
-6.95361e-06
-7.25951e-06
-7.72549e-06
-8.32172e-06
-9.06971e-06
-9.62757e-06
-1.00541e-05
-1.03315e-05
-1.05304e-05
-1.06561e-05
-1.07273e-05
-1.07459e-05
-1.0712e-05
-1.0624e-05
-1.04633e-05
-1.02255e-05
-9.84032e-06
-9.32877e-06
-8.63092e-06
-8.10133e-06
-7.71285e-06
-7.50747e-06
-7.45604e-06
-7.55048e-06
-7.77314e-06
-8.06785e-06
-8.38132e-06
-7.6044e-06
-7.33285e-06
-7.09181e-06
-6.90868e-06
-6.82883e-06
-6.85824e-06
-7.00583e-06
-7.30004e-06
-7.7795e-06
-8.5331e-06
-9.52535e-06
-1.09578e-05
-1.19045e-05
-1.26013e-05
-1.30408e-05
-1.33568e-05
-1.35536e-05
-1.36612e-05
-1.36802e-05
-1.36106e-05
-1.34519e-05
-1.31738e-05
-1.27733e-05
-1.21165e-05
-1.12168e-05
-9.83179e-06
-8.91977e-06
-8.25138e-06
-7.88425e-06
-7.74308e-06
-7.80245e-06
-8.0316e-06
-8.35513e-06
-8.71991e-06
-7.85141e-06
-7.53889e-06
-7.27543e-06
-7.08813e-06
-7.03044e-06
-7.11084e-06
-7.34305e-06
-7.76469e-06
-8.43894e-06
-9.50147e-06
-1.09433e-05
-1.36706e-05
-1.50906e-05
-1.61354e-05
-1.6785e-05
-1.72598e-05
-1.75546e-05
-1.7713e-05
-1.77332e-05
-1.76148e-05
-1.73596e-05
-1.69231e-05
-1.63118e-05
-1.5304e-05
-1.39316e-05
-1.12389e-05
-9.90936e-06
-8.93493e-06
-8.38238e-06
-8.1319e-06
-8.13847e-06
-8.36358e-06
-8.71587e-06
-9.14346e-06
-8.14078e-06
-7.77478e-06
-7.48923e-06
-7.3036e-06
-7.28015e-06
-7.42808e-06
-7.76112e-06
-8.31654e-06
-9.13867e-06
-1.04795e-05
-1.23018e-05
-1.74779e-05
-1.91051e-05
-2.05018e-05
-2.13778e-05
-2.20157e-05
-2.2413e-05
-2.26256e-05
-2.26475e-05
-2.24781e-05
-2.21231e-05
-2.15249e-05
-2.06865e-05
-1.93199e-05
-1.77438e-05
-1.25763e-05
-1.09482e-05
-9.66689e-06
-8.97012e-06
-8.60108e-06
-8.53981e-06
-8.75087e-06
-9.1324e-06
-9.64391e-06
-8.4778e-06
-8.01987e-06
-7.72517e-06
-7.55346e-06
-7.5876e-06
-7.84049e-06
-8.32675e-06
-9.04596e-06
-1.00872e-05
-1.25597e-05
-1.04709e-05
-2.16512e-05
-2.33985e-05
-2.54088e-05
-2.66235e-05
-2.75204e-05
-2.80822e-05
-2.83763e-05
-2.84002e-05
-2.81535e-05
-2.76381e-05
-2.67842e-05
-2.56084e-05
-2.36223e-05
-2.19572e-05
-1.0622e-05
-1.30289e-05
-1.06105e-05
-9.72654e-06
-9.20846e-06
-9.02813e-06
-9.1938e-06
-9.58601e-06
-1.02212e-05
-8.8063e-06
-8.29334e-06
-7.97233e-06
-7.81585e-06
-7.92147e-06
-8.30882e-06
-8.96688e-06
-9.75738e-06
-1.05375e-05
-8.23589e-06
-3.20644e-05
-2.9224e-05
-3.04922e-05
-3.17206e-05
-3.27638e-05
-3.34556e-05
-3.38074e-05
-3.38333e-05
-3.35329e-05
-3.28917e-05
-3.18956e-05
-3.07069e-05
-2.94548e-05
-3.22043e-05
-9.0735e-06
-1.123e-05
-1.05007e-05
-9.88891e-06
-9.56323e-06
-9.66042e-06
-1.00694e-05
-1.08222e-05
-9.13393e-06
-8.5684e-06
-8.22557e-06
-8.09683e-06
-8.31258e-06
-8.94658e-06
-1.01311e-05
-1.20671e-05
-1.52894e-05
-1.95452e-05
-2.93014e-05
-2.85718e-05
-3.20063e-05
-3.47268e-05
-3.68737e-05
-3.84621e-05
-3.94454e-05
-3.99162e-05
-3.99437e-05
-3.95284e-05
-3.86021e-05
-3.70731e-05
-3.49908e-05
-3.2345e-05
-2.89925e-05
-2.99314e-05
-2.00843e-05
-1.58867e-05
-1.2766e-05
-1.10448e-05
-1.02421e-05
-1.01727e-05
-1.05743e-05
-1.14258e-05
-9.44587e-06
-8.82703e-06
-8.45752e-06
-8.33983e-06
-8.62415e-06
-9.40099e-06
-1.08193e-05
-1.30409e-05
-1.62895e-05
-2.02734e-05
-2.6813e-05
-3.06124e-05
-3.43389e-05
-3.75924e-05
-4.02217e-05
-4.207e-05
-4.32052e-05
-4.3745e-05
-4.37733e-05
-4.32906e-05
-4.22147e-05
-4.04289e-05
-3.78679e-05
-3.46825e-05
-3.10171e-05
-2.7332e-05
-2.08338e-05
-1.68776e-05
-1.37286e-05
-1.17406e-05
-1.07471e-05
-1.06089e-05
-1.10362e-05
-1.1993e-05
-9.73905e-06
-9.06583e-06
-8.66828e-06
-8.55249e-06
-8.88069e-06
-9.7491e-06
-1.13088e-05
-1.3715e-05
-1.71658e-05
-2.15298e-05
-2.70673e-05
-3.16061e-05
-3.59862e-05
-3.96559e-05
-4.25684e-05
-4.45464e-05
-4.57458e-05
-4.63078e-05
-4.63362e-05
-4.5832e-05
-4.46928e-05
-4.27789e-05
-3.99375e-05
-3.63387e-05
-3.20356e-05
-2.75622e-05
-2.20556e-05
-1.77313e-05
-1.43951e-05
-1.22458e-05
-1.11525e-05
-1.09893e-05
-1.14536e-05
-1.25046e-05
-1.00071e-05
-9.27518e-06
-8.84679e-06
-8.72014e-06
-9.06189e-06
-9.96594e-06
-1.15759e-05
-1.40396e-05
-1.75271e-05
-2.19374e-05
-2.71818e-05
-3.21401e-05
-3.69209e-05
-4.07777e-05
-4.37927e-05
-4.57974e-05
-4.70006e-05
-4.75579e-05
-4.75864e-05
-4.70868e-05
-4.5944e-05
-4.40035e-05
-4.10599e-05
-3.72732e-05
-3.25664e-05
-2.76613e-05
-2.24512e-05
-1.8086e-05
-1.47248e-05
-1.25395e-05
-1.14328e-05
-1.12894e-05
-1.1804e-05
-1.29363e-05
-1.0227e-05
-9.4497e-06
-8.99409e-06
-8.85295e-06
-9.19519e-06
-1.01114e-05
-1.17383e-05
-1.42207e-05
-1.77151e-05
-2.21454e-05
-2.73543e-05
-3.25211e-05
-3.74934e-05
-4.14429e-05
-4.44955e-05
-4.64905e-05
-4.76759e-05
-4.82197e-05
-4.82487e-05
-4.77636e-05
-4.66395e-05
-4.47094e-05
-4.17291e-05
-3.78504e-05
-3.29577e-05
-2.78325e-05
-2.26584e-05
-1.8277e-05
-1.49189e-05
-1.27331e-05
-1.16396e-05
-1.15276e-05
-1.20888e-05
-1.32838e-05
-1.04074e-05
-9.58703e-06
-9.10827e-06
-8.95266e-06
-9.2894e-06
-1.02063e-05
-1.1836e-05
-1.43238e-05
-1.78232e-05
-2.22797e-05
-2.75183e-05
-3.27958e-05
-3.78749e-05
-4.1873e-05
-4.49397e-05
-4.69232e-05
-4.8094e-05
-4.86283e-05
-4.86584e-05
-4.81852e-05
-4.70778e-05
-4.51612e-05
-4.21682e-05
-3.82415e-05
-3.32414e-05
-2.80034e-05
-2.27999e-05
-1.83948e-05
-1.50389e-05
-1.28614e-05
-1.17874e-05
-1.17059e-05
-1.2305e-05
-1.35461e-05
-1.05272e-05
-9.68325e-06
-9.19008e-06
-9.02481e-06
-9.3576e-06
-1.02753e-05
-1.1909e-05
-1.4406e-05
-1.79204e-05
-2.24091e-05
-2.76907e-05
-3.30401e-05
-3.81872e-05
-4.22235e-05
-4.5308e-05
-4.7294e-05
-4.84629e-05
-4.89958e-05
-4.90279e-05
-4.85602e-05
-4.74583e-05
-4.55422e-05
-4.25338e-05
-3.85699e-05
-3.35015e-05
-2.81896e-05
-2.29421e-05
-1.85053e-05
-1.51383e-05
-1.29599e-05
-1.18955e-05
-1.18327e-05
-1.24558e-05
-1.37267e-05
-1.05854e-05
-9.73733e-06
-9.23957e-06
-9.07111e-06
-9.4039e-06
-1.03257e-05
-1.19686e-05
-1.44818e-05
-1.80217e-05
-2.25464e-05
-2.7872e-05
-3.32699e-05
-3.84608e-05
-4.2532e-05
-4.5642e-05
-4.76461e-05
-4.88274e-05
-4.93674e-05
-4.94025e-05
-4.89331e-05
-4.78241e-05
-4.58939e-05
-4.28629e-05
-3.88656e-05
-3.37526e-05
-2.83899e-05
-2.30959e-05
-1.86215e-05
-1.52296e-05
-1.30374e-05
-1.19693e-05
-1.19105e-05
-1.25425e-05
-1.3828e-05
-1.05818e-05
-9.75015e-06
-9.25737e-06
-9.09202e-06
-9.42881e-06
-1.03579e-05
-1.2015e-05
-1.45516e-05
-1.81255e-05
-2.26902e-05
-2.80629e-05
-3.34896e-05
-3.87006e-05
-4.28018e-05
-4.59434e-05
-4.79806e-05
-4.91863e-05
-4.97418e-05
-4.97802e-05
-4.93021e-05
-4.81744e-05
-4.6217e-05
-4.31582e-05
-3.9133e-05
-3.3999e-05
-2.86039e-05
-2.32589e-05
-1.87407e-05
-1.53113e-05
-1.30938e-05
-1.2009e-05
-1.19401e-05
-1.25663e-05
-1.38509e-05
-1.05377e-05
-9.72657e-06
-9.24496e-06
-9.08687e-06
-9.42844e-06
-1.03635e-05
-1.20339e-05
-1.4594e-05
-1.82107e-05
-2.2823e-05
-2.8264e-05
-3.36978e-05
-3.88901e-05
-4.30057e-05
-4.61764e-05
-4.82553e-05
-4.94959e-05
-5.00737e-05
-5.01169e-05
-4.96256e-05
-4.84712e-05
-4.64788e-05
-4.33958e-05
-3.93586e-05
-3.42412e-05
-2.88335e-05
-2.34158e-05
-1.88457e-05
-1.53685e-05
-1.31197e-05
-1.20109e-05
-1.19215e-05
-1.25286e-05
-1.37958e-05
-1.04484e-05
-9.66789e-06
-9.20232e-06
-9.05151e-06
-9.39148e-06
-1.03197e-05
-1.19857e-05
-1.45507e-05
-1.82018e-05
-2.28699e-05
-2.84589e-05
-3.38558e-05
-3.89488e-05
-4.30264e-05
-4.61928e-05
-4.83051e-05
-4.95803e-05
-5.01831e-05
-5.02323e-05
-4.97278e-05
-4.855e-05
-4.65344e-05
-4.34626e-05
-3.94678e-05
-3.44456e-05
-2.90642e-05
-2.34949e-05
-1.8865e-05
-1.53471e-05
-1.30818e-05
-1.19586e-05
-1.18495e-05
-1.24296e-05
-1.36632e-05
-1.03187e-05
-9.57899e-06
-9.13358e-06
-8.98747e-06
-9.31422e-06
-1.0213e-05
-1.184e-05
-1.43643e-05
-1.80117e-05
-2.27072e-05
-2.86967e-05
-3.39793e-05
-3.87726e-05
-4.27188e-05
-4.58168e-05
-4.79283e-05
-4.92189e-05
-4.98406e-05
-4.98985e-05
-4.9393e-05
-4.8217e-05
-4.62196e-05
-4.32288e-05
-3.93738e-05
-3.46396e-05
-2.93504e-05
-2.33859e-05
-1.87234e-05
-1.52006e-05
-1.29594e-05
-1.18478e-05
-1.17288e-05
-1.22778e-05
-1.34601e-05
-1.01759e-05
-9.46764e-06
-9.03934e-06
-8.88707e-06
-9.17348e-06
-9.99036e-06
-1.14882e-05
-1.38341e-05
-1.72518e-05
-2.15333e-05
-2.87662e-05
-3.41715e-05
-3.8176e-05
-4.17373e-05
-4.45928e-05
-4.661e-05
-4.78659e-05
-4.84879e-05
-4.85591e-05
-4.80809e-05
-4.69672e-05
-4.50932e-05
-4.23669e-05
-3.89182e-05
-3.49785e-05
-2.94775e-05
-2.22797e-05
-1.80397e-05
-1.47417e-05
-1.26564e-05
-1.16365e-05
-1.15464e-05
-1.2075e-05
-1.31954e-05
-1.00156e-05
-9.34341e-06
-8.93395e-06
-8.77199e-06
-9.00328e-06
-9.70334e-06
-1.10109e-05
-1.31414e-05
-1.66969e-05
-2.1636e-05
-3.05804e-05
-3.24928e-05
-3.6892e-05
-4.02907e-05
-4.28096e-05
-4.46706e-05
-4.58487e-05
-4.64482e-05
-4.65404e-05
-4.61291e-05
-4.514e-05
-4.34734e-05
-4.11181e-05
-3.78497e-05
-3.3455e-05
-3.1263e-05
-2.2622e-05
-1.76686e-05
-1.41827e-05
-1.22652e-05
-1.13818e-05
-1.13417e-05
-1.18513e-05
-1.28997e-05
-9.84755e-06
-9.21015e-06
-8.81664e-06
-8.63303e-06
-8.77453e-06
-9.2568e-06
-1.00397e-05
-1.08818e-05
-1.15739e-05
-7.98284e-06
-4.08921e-05
-3.66504e-05
-3.8141e-05
-3.97308e-05
-4.11368e-05
-4.21125e-05
-4.26545e-05
-4.27734e-05
-4.24771e-05
-4.1754e-05
-4.06215e-05
-3.92597e-05
-3.79859e-05
-4.21999e-05
-8.95254e-06
-1.26878e-05
-1.20627e-05
-1.14067e-05
-1.09873e-05
-1.10868e-05
-1.16035e-05
-1.25899e-05
-9.6907e-06
-9.08726e-06
-8.7193e-06
-8.53821e-06
-8.65565e-06
-9.1099e-06
-9.97451e-06
-1.13708e-05
-1.37214e-05
-1.76118e-05
-1.91775e-05
-2.88532e-05
-3.20687e-05
-3.50687e-05
-3.71506e-05
-3.87771e-05
-3.9856e-05
-4.0466e-05
-4.062e-05
-4.03352e-05
-3.96001e-05
-3.83548e-05
-3.66247e-05
-3.39268e-05
-3.07093e-05
-2.17038e-05
-1.96379e-05
-1.54512e-05
-1.2879e-05
-1.14952e-05
-1.08896e-05
-1.09328e-05
-1.13969e-05
-1.23138e-05
-9.5545e-06
-8.98136e-06
-8.64147e-06
-8.46715e-06
-8.56382e-06
-8.97109e-06
-9.75363e-06
-1.10046e-05
-1.28189e-05
-1.53062e-05
-1.99456e-05
-2.61689e-05
-2.92833e-05
-3.21581e-05
-3.42815e-05
-3.59585e-05
-3.70666e-05
-3.77001e-05
-3.78796e-05
-3.76305e-05
-3.69378e-05
-3.5735e-05
-3.39679e-05
-3.15305e-05
-2.84501e-05
-2.24009e-05
-1.73253e-05
-1.46284e-05
-1.2634e-05
-1.13592e-05
-1.07732e-05
-1.07947e-05
-1.1216e-05
-1.20738e-05
-9.44003e-06
-8.92157e-06
-8.60991e-06
-8.45568e-06
-8.5522e-06
-8.93753e-06
-9.67612e-06
-1.08704e-05
-1.26793e-05
-1.52617e-05
-1.87846e-05
-2.3156e-05
-2.64535e-05
-2.93939e-05
-3.16225e-05
-3.33789e-05
-3.45248e-05
-3.5176e-05
-3.53666e-05
-3.5129e-05
-3.44387e-05
-3.32271e-05
-3.14154e-05
-2.89493e-05
-2.57327e-05
-2.14305e-05
-1.76047e-05
-1.46849e-05
-1.26136e-05
-1.13381e-05
-1.07421e-05
-1.0728e-05
-1.10996e-05
-1.18912e-05
-9.37045e-06
-8.90583e-06
-8.63486e-06
-8.51345e-06
-8.62083e-06
-8.98796e-06
-9.66726e-06
-1.07458e-05
-1.23416e-05
-1.45765e-05
-1.74501e-05
-2.08189e-05
-2.38353e-05
-2.66128e-05
-2.8771e-05
-3.04585e-05
-3.15571e-05
-3.21776e-05
-3.23651e-05
-3.21542e-05
-3.1516e-05
-3.03848e-05
-2.86733e-05
-2.6379e-05
-2.34509e-05
-2.0083e-05
-1.69238e-05
-1.43663e-05
-1.25134e-05
-1.13412e-05
-1.0775e-05
-1.0735e-05
-1.10552e-05
-1.17706e-05
-9.35107e-06
-8.94839e-06
-8.73824e-06
-8.67068e-06
-8.81008e-06
-9.18039e-06
-9.81513e-06
-1.07758e-05
-1.21412e-05
-1.39823e-05
-1.62831e-05
-1.8934e-05
-2.15048e-05
-2.3947e-05
-2.58899e-05
-2.74049e-05
-2.8411e-05
-2.89676e-05
-2.91418e-05
-2.8964e-05
-2.84059e-05
-2.73931e-05
-2.58869e-05
-2.38775e-05
-2.13926e-05
-1.8719e-05
-1.61862e-05
-1.40829e-05
-1.25088e-05
-1.1475e-05
-1.09425e-05
-1.0862e-05
-1.11103e-05
-1.17209e-05
-9.36896e-06
-9.06468e-06
-8.93369e-06
-8.94143e-06
-9.13499e-06
-9.54494e-06
-1.0175e-05
-1.10677e-05
-1.22701e-05
-1.38176e-05
-1.56939e-05
-1.78219e-05
-1.99613e-05
-2.20147e-05
-2.3688e-05
-2.49936e-05
-2.58722e-05
-2.63779e-05
-2.65407e-05
-2.63822e-05
-2.58836e-05
-2.50109e-05
-2.37208e-05
-2.20422e-05
-2.00046e-05
-1.7869e-05
-1.58394e-05
-1.41103e-05
-1.2765e-05
-1.18308e-05
-1.12965e-05
-1.11388e-05
-1.12774e-05
-1.17427e-05
-9.41822e-06
-9.22707e-06
-9.19215e-06
-9.30175e-06
-9.58516e-06
-1.00396e-05
-1.07055e-05
-1.16036e-05
-1.27512e-05
-1.4147e-05
-1.58242e-05
-1.76758e-05
-1.95455e-05
-2.13324e-05
-2.28268e-05
-2.40045e-05
-2.4819e-05
-2.52974e-05
-2.54537e-05
-2.53003e-05
-2.48273e-05
-2.40198e-05
-2.2858e-05
-2.1379e-05
-1.96293e-05
-1.78046e-05
-1.60516e-05
-1.45342e-05
-1.33018e-05
-1.23895e-05
-1.18016e-05
-1.1531e-05
-1.15297e-05
-1.18169e-05
-9.48649e-06
-9.42384e-06
-9.48471e-06
-9.67864e-06
-1.0039e-05
-1.05865e-05
-1.13514e-05
-1.23608e-05
-1.3637e-05
-1.51938e-05
-1.69281e-05
-1.88103e-05
-2.07082e-05
-2.25148e-05
-2.4059e-05
-2.52919e-05
-2.61648e-05
-2.66817e-05
-2.68471e-05
-2.6667e-05
-2.61377e-05
-2.52557e-05
-2.40225e-05
-2.24855e-05
-2.0711e-05
-1.88669e-05
-1.70861e-05
-1.54733e-05
-1.41445e-05
-1.31258e-05
-1.24209e-05
-1.20128e-05
-1.18535e-05
-1.19272e-05
-7.29549e-06
-7.30225e-06
-7.3217e-06
-7.35561e-06
-7.41155e-06
-7.49583e-06
-7.61155e-06
-7.76171e-06
-7.93989e-06
-8.14169e-06
-8.3595e-06
-8.58581e-06
-8.80455e-06
-9.00719e-06
-9.18191e-06
-9.32363e-06
-9.42761e-06
-9.49221e-06
-9.51649e-06
-9.50064e-06
-9.446e-06
-9.35459e-06
-9.23152e-06
-9.08214e-06
-8.91861e-06
-8.74947e-06
-8.59108e-06
-8.45093e-06
-8.33726e-06
-8.2501e-06
-8.18805e-06
-8.14747e-06
-8.12083e-06
-8.10319e-06
-7.25094e-06
-7.21672e-06
-7.20377e-06
-7.20564e-06
-7.23436e-06
-7.29033e-06
-7.37413e-06
-7.48429e-06
-7.62003e-06
-7.77831e-06
-7.94467e-06
-8.11582e-06
-8.27637e-06
-8.42606e-06
-8.55361e-06
-8.65837e-06
-8.73617e-06
-8.78708e-06
-8.81038e-06
-8.80623e-06
-8.77575e-06
-8.71915e-06
-8.64099e-06
-8.54208e-06
-8.43411e-06
-8.31731e-06
-8.20765e-06
-8.10823e-06
-8.03293e-06
-7.98565e-06
-7.96925e-06
-7.97949e-06
-8.00136e-06
-8.03777e-06
-7.25358e-06
-7.20524e-06
-7.17656e-06
-7.15431e-06
-7.16339e-06
-7.20763e-06
-7.28806e-06
-7.40521e-06
-7.55555e-06
-7.74065e-06
-7.93809e-06
-8.15213e-06
-8.34172e-06
-8.51678e-06
-8.65751e-06
-8.77108e-06
-8.85246e-06
-8.90478e-06
-8.92744e-06
-8.92058e-06
-8.88521e-06
-8.81845e-06
-8.72582e-06
-8.60028e-06
-8.46245e-06
-8.30232e-06
-8.1627e-06
-8.03939e-06
-7.9569e-06
-7.91553e-06
-7.91899e-06
-7.95899e-06
-8.0008e-06
-8.05183e-06
-7.30053e-06
-7.2328e-06
-7.18511e-06
-7.14162e-06
-7.13816e-06
-7.18275e-06
-7.27925e-06
-7.43298e-06
-7.64075e-06
-7.9144e-06
-8.2155e-06
-8.5629e-06
-8.85404e-06
-9.11825e-06
-9.31747e-06
-9.47365e-06
-9.5796e-06
-9.64394e-06
-9.66604e-06
-9.646e-06
-9.58488e-06
-9.47427e-06
-9.32206e-06
-9.10635e-06
-8.86682e-06
-8.57382e-06
-8.33379e-06
-8.12754e-06
-7.99826e-06
-7.93646e-06
-7.94413e-06
-8.00514e-06
-8.06772e-06
-8.13957e-06
-7.40541e-06
-7.3151e-06
-7.25228e-06
-7.19728e-06
-7.19498e-06
-7.25826e-06
-7.39596e-06
-7.6224e-06
-7.93858e-06
-8.37891e-06
-8.87733e-06
-9.48953e-06
-9.97308e-06
-1.04044e-05
-1.07129e-05
-1.09497e-05
-1.11033e-05
-1.11916e-05
-1.12135e-05
-1.1169e-05
-1.10597e-05
-1.08677e-05
-1.06056e-05
-1.02221e-05
-9.79075e-06
-9.23396e-06
-8.80196e-06
-8.4359e-06
-8.21003e-06
-8.0925e-06
-8.08064e-06
-8.14661e-06
-8.22356e-06
-8.32088e-06
-7.56965e-06
-7.4518e-06
-7.37737e-06
-7.32025e-06
-7.33313e-06
-7.43378e-06
-7.63731e-06
-7.97075e-06
-8.4431e-06
-9.13199e-06
-9.93698e-06
-1.10103e-05
-1.17913e-05
-1.24799e-05
-1.29512e-05
-1.33102e-05
-1.35359e-05
-1.36616e-05
-1.36837e-05
-1.36022e-05
-1.34209e-05
-1.31064e-05
-1.26812e-05
-1.20395e-05
-1.13115e-05
-1.0294e-05
-9.56366e-06
-8.95634e-06
-8.58687e-06
-8.38008e-06
-8.32608e-06
-8.38256e-06
-8.46868e-06
-8.59883e-06
-7.79114e-06
-7.63937e-06
-7.55578e-06
-7.50448e-06
-7.54492e-06
-7.69865e-06
-7.98654e-06
-8.44955e-06
-9.10644e-06
-1.01213e-05
-1.13419e-05
-1.31988e-05
-1.43658e-05
-1.53774e-05
-1.6037e-05
-1.65399e-05
-1.68482e-05
-1.70181e-05
-1.7041e-05
-1.69166e-05
-1.66536e-05
-1.61954e-05
-1.55814e-05
-1.46148e-05
-1.35016e-05
-1.16985e-05
-1.05674e-05
-9.64104e-06
-9.0997e-06
-8.78144e-06
-8.66922e-06
-8.70619e-06
-8.79833e-06
-8.97184e-06
-8.06513e-06
-7.87102e-06
-7.78082e-06
-7.74475e-06
-7.8284e-06
-8.05439e-06
-8.44552e-06
-9.04443e-06
-9.87472e-06
-1.11589e-05
-1.28775e-05
-1.6086e-05
-1.76339e-05
-1.90179e-05
-1.98976e-05
-2.05808e-05
-2.09955e-05
-2.12233e-05
-2.12475e-05
-2.10675e-05
-2.07e-05
-2.0062e-05
-1.92271e-05
-1.78842e-05
-1.63885e-05
-1.32234e-05
-1.16253e-05
-1.0432e-05
-9.72962e-06
-9.2937e-06
-9.10715e-06
-9.11216e-06
-9.20665e-06
-9.43702e-06
-8.38389e-06
-8.13504e-06
-8.03833e-06
-8.02375e-06
-8.16146e-06
-8.46984e-06
-8.96364e-06
-9.6659e-06
-1.05162e-05
-1.19376e-05
-1.39229e-05
-2.01169e-05
-2.14845e-05
-2.29958e-05
-2.3988e-05
-2.47689e-05
-2.5242e-05
-2.55079e-05
-2.55334e-05
-2.5318e-05
-2.48941e-05
-2.41587e-05
-2.321e-05
-2.17303e-05
-2.04145e-05
-1.42325e-05
-1.24598e-05
-1.11058e-05
-1.03903e-05
-9.86598e-06
-9.60587e-06
-9.57443e-06
-9.67381e-06
-9.98487e-06
-8.74019e-06
-8.42234e-06
-8.32704e-06
-8.35374e-06
-8.58309e-06
-9.03269e-06
-9.71805e-06
-1.05455e-05
-1.14666e-05
-1.36725e-05
-9.80699e-06
-2.32928e-05
-2.46072e-05
-2.65974e-05
-2.78415e-05
-2.8867e-05
-2.94789e-05
-2.98124e-05
-2.98389e-05
-2.95579e-05
-2.89975e-05
-2.80192e-05
-2.68184e-05
-2.48524e-05
-2.36203e-05
-9.92781e-06
-1.41715e-05
-1.20392e-05
-1.12873e-05
-1.06554e-05
-1.02356e-05
-1.01152e-05
-1.01953e-05
-1.06086e-05
-9.11113e-06
-8.7206e-06
-8.62113e-06
-8.68883e-06
-9.01358e-06
-9.61296e-06
-1.0482e-05
-1.14166e-05
-1.18344e-05
-7.16245e-06
-3.38175e-05
-2.87308e-05
-2.94834e-05
-3.05734e-05
-3.1476e-05
-3.20811e-05
-3.24052e-05
-3.24318e-05
-3.21602e-05
-3.16062e-05
-3.0751e-05
-2.97021e-05
-2.89583e-05
-3.39032e-05
-8.09885e-06
-1.25629e-05
-1.22083e-05
-1.14537e-05
-1.08726e-05
-1.06563e-05
-1.07258e-05
-1.12714e-05
-9.48757e-06
-9.02275e-06
-8.93143e-06
-9.07191e-06
-9.56943e-06
-1.05056e-05
-1.20319e-05
-1.42528e-05
-1.78387e-05
-2.15451e-05
-3.1094e-05
-2.7286e-05
-2.94606e-05
-3.1619e-05
-3.33263e-05
-3.45605e-05
-3.53608e-05
-3.57575e-05
-3.57841e-05
-3.54407e-05
-3.46946e-05
-3.35159e-05
-3.18693e-05
-2.97821e-05
-2.76858e-05
-3.17344e-05
-2.20597e-05
-1.84406e-05
-1.49794e-05
-1.297e-05
-1.1775e-05
-1.12868e-05
-1.12779e-05
-1.1955e-05
-9.84877e-06
-9.30792e-06
-9.21185e-06
-9.39455e-06
-9.99551e-06
-1.11108e-05
-1.29045e-05
-1.54253e-05
-1.89517e-05
-2.24192e-05
-2.80549e-05
-2.94378e-05
-3.11679e-05
-3.29356e-05
-3.46123e-05
-3.58731e-05
-3.6726e-05
-3.71521e-05
-3.71784e-05
-3.68051e-05
-3.60056e-05
-3.47974e-05
-3.31756e-05
-3.14564e-05
-2.97717e-05
-2.85225e-05
-2.29458e-05
-1.95369e-05
-1.61339e-05
-1.38425e-05
-1.24154e-05
-1.18083e-05
-1.17848e-05
-1.25999e-05
-1.01775e-05
-9.57339e-06
-9.47408e-06
-9.69444e-06
-1.03863e-05
-1.16581e-05
-1.36782e-05
-1.64876e-05
-2.02352e-05
-2.41867e-05
-2.86861e-05
-3.09908e-05
-3.29171e-05
-3.4737e-05
-3.65334e-05
-3.78508e-05
-3.8748e-05
-3.91898e-05
-3.92164e-05
-3.88276e-05
-3.79844e-05
-3.67198e-05
-3.49788e-05
-3.32057e-05
-3.13377e-05
-2.91113e-05
-2.46756e-05
-2.07953e-05
-1.71851e-05
-1.46257e-05
-1.30072e-05
-1.22993e-05
-1.22616e-05
-1.31888e-05
-1.04542e-05
-9.80362e-06
-9.69454e-06
-9.92978e-06
-1.0666e-05
-1.20121e-05
-1.41262e-05
-1.70464e-05
-2.08388e-05
-2.49336e-05
-2.91943e-05
-3.19281e-05
-3.40911e-05
-3.59521e-05
-3.77938e-05
-3.91237e-05
-4.00331e-05
-4.04765e-05
-4.05034e-05
-4.01135e-05
-3.92582e-05
-3.79805e-05
-3.61934e-05
-3.4375e-05
-3.22671e-05
-2.95995e-05
-2.541e-05
-2.13944e-05
-1.77515e-05
-1.51013e-05
-1.34204e-05
-1.26858e-05
-1.26648e-05
-1.36868e-05
-1.06852e-05
-9.99689e-06
-9.87816e-06
-1.01203e-05
-1.0883e-05
-1.22749e-05
-1.44461e-05
-1.74368e-05
-2.12676e-05
-2.54465e-05
-2.96674e-05
-3.26297e-05
-3.49273e-05
-3.68473e-05
-3.87304e-05
-4.00661e-05
-4.09771e-05
-4.14173e-05
-4.1445e-05
-4.10598e-05
-4.02045e-05
-3.8922e-05
-3.70948e-05
-3.52185e-05
-3.29897e-05
-3.00739e-05
-2.59255e-05
-2.18298e-05
-1.81584e-05
-1.5455e-05
-1.37433e-05
-1.30008e-05
-1.29978e-05
-1.40884e-05
-1.0854e-05
-1.01461e-05
-1.00188e-05
-1.02609e-05
-1.10346e-05
-1.24476e-05
-1.46449e-05
-1.76708e-05
-2.15264e-05
-2.57675e-05
-3.00133e-05
-3.30983e-05
-3.54878e-05
-3.74465e-05
-3.93517e-05
-4.06889e-05
-4.15996e-05
-4.20378e-05
-4.20668e-05
-4.16865e-05
-4.08341e-05
-3.95527e-05
-3.77056e-05
-3.57914e-05
-3.34664e-05
-3.04302e-05
-2.62584e-05
-2.21028e-05
-1.8414e-05
-1.56883e-05
-1.397e-05
-1.32336e-05
-1.32497e-05
-1.4388e-05
-1.09736e-05
-1.02519e-05
-1.01187e-05
-1.03601e-05
-1.11397e-05
-1.25656e-05
-1.47809e-05
-1.78332e-05
-2.17163e-05
-2.6007e-05
-3.0294e-05
-3.34545e-05
-3.59032e-05
-3.78953e-05
-3.9822e-05
-4.11683e-05
-4.20843e-05
-4.25249e-05
-4.2556e-05
-4.21777e-05
-4.13243e-05
-4.00376e-05
-3.81723e-05
-3.62268e-05
-3.38424e-05
-3.07299e-05
-2.65163e-05
-2.23112e-05
-1.85985e-05
-1.58539e-05
-1.41295e-05
-1.33967e-05
-1.3424e-05
-1.45893e-05
-1.1043e-05
-1.03133e-05
-1.01777e-05
-1.04189e-05
-1.12018e-05
-1.26354e-05
-1.48641e-05
-1.79373e-05
-2.18497e-05
-2.61802e-05
-3.05114e-05
-3.37183e-05
-3.62033e-05
-3.82242e-05
-4.01727e-05
-4.1535e-05
-4.24638e-05
-4.29118e-05
-4.2946e-05
-4.25664e-05
-4.17069e-05
-4.04082e-05
-3.8525e-05
-3.65535e-05
-3.41334e-05
-3.09724e-05
-2.67124e-05
-2.24655e-05
-1.87234e-05
-1.59597e-05
-1.42261e-05
-1.34914e-05
-1.35212e-05
-1.46948e-05
-1.10645e-05
-1.03311e-05
-1.01962e-05
-1.04378e-05
-1.12212e-05
-1.26571e-05
-1.4894e-05
-1.79823e-05
-2.19252e-05
-2.62873e-05
-3.06686e-05
-3.38992e-05
-3.6398e-05
-3.8442e-05
-4.04113e-05
-4.1799e-05
-4.27427e-05
-4.32026e-05
-4.32412e-05
-4.28575e-05
-4.19876e-05
-4.06717e-05
-3.87726e-05
-3.67815e-05
-3.43482e-05
-3.11601e-05
-2.68464e-05
-2.25637e-05
-1.87877e-05
-1.60057e-05
-1.42603e-05
-1.35188e-05
-1.35428e-05
-1.47065e-05
-1.10256e-05
-1.03061e-05
-1.01761e-05
-1.04175e-05
-1.11962e-05
-1.26252e-05
-1.48602e-05
-1.79517e-05
-2.19254e-05
-2.63095e-05
-3.07657e-05
-3.39959e-05
-3.64762e-05
-3.85351e-05
-4.05198e-05
-4.19352e-05
-4.29013e-05
-4.33774e-05
-4.3421e-05
-4.30315e-05
-4.21494e-05
-4.08131e-05
-3.89043e-05
-3.6903e-05
-3.4489e-05
-3.12951e-05
-2.69022e-05
-2.25923e-05
-1.87797e-05
-1.5986e-05
-1.42314e-05
-1.34814e-05
-1.34925e-05
-1.46264e-05
-1.0936e-05
-1.02413e-05
-1.01164e-05
-1.03507e-05
-1.11089e-05
-1.2505e-05
-1.47034e-05
-1.77568e-05
-2.17396e-05
-2.61304e-05
-3.07479e-05
-3.39461e-05
-3.63572e-05
-3.84014e-05
-4.0372e-05
-4.1806e-05
-4.27887e-05
-4.32812e-05
-4.33313e-05
-4.29386e-05
-4.2052e-05
-4.07089e-05
-3.88222e-05
-3.68429e-05
-3.45015e-05
-3.13236e-05
-2.67662e-05
-2.24447e-05
-1.86167e-05
-1.58491e-05
-1.41129e-05
-1.33699e-05
-1.33699e-05
-1.44555e-05
-1.08044e-05
-1.01445e-05
-1.00263e-05
-1.02474e-05
-1.09698e-05
-1.23062e-05
-1.44305e-05
-1.73973e-05
-2.13667e-05
-2.56762e-05
-3.06719e-05
-3.37886e-05
-3.60076e-05
-3.80572e-05
-4.00115e-05
-4.14615e-05
-4.24536e-05
-4.29613e-05
-4.30207e-05
-4.2632e-05
-4.17539e-05
-4.04136e-05
-3.85554e-05
-3.65829e-05
-3.44212e-05
-3.13074e-05
-2.63744e-05
-2.2132e-05
-1.83106e-05
-1.56131e-05
-1.39251e-05
-1.32045e-05
-1.31923e-05
-1.42047e-05
-1.06234e-05
-1.00182e-05
-9.90111e-06
-1.00883e-05
-1.07306e-05
-1.1926e-05
-1.38389e-05
-1.65212e-05
-2.02258e-05
-2.39978e-05
-3.03444e-05
-3.35303e-05
-3.53545e-05
-3.73334e-05
-3.91705e-05
-4.0582e-05
-4.15496e-05
-4.20599e-05
-4.21321e-05
-4.17671e-05
-4.09375e-05
-3.96629e-05
-3.79399e-05
-3.60644e-05
-3.43084e-05
-3.10303e-05
-2.47666e-05
-2.1077e-05
-1.75224e-05
-1.50903e-05
-1.35802e-05
-1.29527e-05
-1.29578e-05
-1.38829e-05
-1.04238e-05
-9.88118e-06
-9.77017e-06
-9.927e-06
-1.04912e-05
-1.1546e-05
-1.32451e-05
-1.56736e-05
-1.95258e-05
-2.3884e-05
-3.21779e-05
-3.15262e-05
-3.45042e-05
-3.71848e-05
-3.91663e-05
-4.06345e-05
-4.16113e-05
-4.21317e-05
-4.2223e-05
-4.18887e-05
-4.10885e-05
-3.98006e-05
-3.79578e-05
-3.54194e-05
-3.24748e-05
-3.28147e-05
-2.48635e-05
-2.05491e-05
-1.68221e-05
-1.46064e-05
-1.32602e-05
-1.27124e-05
-1.27191e-05
-1.35316e-05
-1.02172e-05
-9.734e-06
-9.61708e-06
-9.71563e-06
-1.01352e-05
-1.08899e-05
-1.19538e-05
-1.30095e-05
-1.31928e-05
-6.42833e-06
-4.32265e-05
-3.58983e-05
-3.66079e-05
-3.78747e-05
-3.90081e-05
-3.98169e-05
-4.02966e-05
-4.04082e-05
-4.01586e-05
-3.95657e-05
-3.86653e-05
-3.75537e-05
-3.7053e-05
-4.43354e-05
-7.40951e-06
-1.44161e-05
-1.43499e-05
-1.34694e-05
-1.26965e-05
-1.23784e-05
-1.24487e-05
-1.31623e-05
-1.00254e-05
-9.59989e-06
-9.49701e-06
-9.58573e-06
-9.97486e-06
-1.07079e-05
-1.18569e-05
-1.34049e-05
-1.56632e-05
-1.93168e-05
-1.91754e-05
-3.01012e-05
-3.24506e-05
-3.50436e-05
-3.67887e-05
-3.83148e-05
-3.93073e-05
-3.99003e-05
-4.00428e-05
-3.97462e-05
-3.90276e-05
-3.77993e-05
-3.61405e-05
-3.38467e-05
-3.1629e-05
-2.16867e-05
-2.13049e-05
-1.74932e-05
-1.50601e-05
-1.35343e-05
-1.2579e-05
-1.22023e-05
-1.22253e-05
-1.28377e-05
-9.85634e-06
-9.47984e-06
-9.38764e-06
-9.46154e-06
-9.80311e-06
-1.04604e-05
-1.15024e-05
-1.29842e-05
-1.49426e-05
-1.74168e-05
-2.19491e-05
-2.83952e-05
-3.03891e-05
-3.24708e-05
-3.39151e-05
-3.53059e-05
-3.62534e-05
-3.68456e-05
-3.70069e-05
-3.67543e-05
-3.6104e-05
-3.5013e-05
-3.35388e-05
-3.16868e-05
-2.989e-05
-2.40608e-05
-1.93308e-05
-1.683e-05
-1.47574e-05
-1.32696e-05
-1.23648e-05
-1.20007e-05
-1.20092e-05
-1.25519e-05
-9.72195e-06
-9.39733e-06
-9.3267e-06
-9.40887e-06
-9.74035e-06
-1.03752e-05
-1.13904e-05
-1.28635e-05
-1.48991e-05
-1.75595e-05
-2.10191e-05
-2.50998e-05
-2.73212e-05
-2.92079e-05
-3.06943e-05
-3.21267e-05
-3.30949e-05
-3.36935e-05
-3.38617e-05
-3.36212e-05
-3.29669e-05
-3.18811e-05
-3.03959e-05
-2.85837e-05
-2.66115e-05
-2.3074e-05
-1.96309e-05
-1.69034e-05
-1.47323e-05
-1.32143e-05
-1.22886e-05
-1.1893e-05
-1.18615e-05
-1.23344e-05
-9.63028e-06
-9.3546e-06
-9.31115e-06
-9.40816e-06
-9.73055e-06
-1.03278e-05
-1.12667e-05
-1.2621e-05
-1.44606e-05
-1.68522e-05
-1.96296e-05
-2.26724e-05
-2.47291e-05
-2.64922e-05
-2.79734e-05
-2.9352e-05
-3.02884e-05
-3.08674e-05
-3.10373e-05
-3.08208e-05
-3.0206e-05
-2.91982e-05
-2.77801e-05
-2.60984e-05
-2.42341e-05
-2.16434e-05
-1.89221e-05
-1.64784e-05
-1.4514e-05
-1.31048e-05
-1.22297e-05
-1.18329e-05
-1.17728e-05
-1.21799e-05
-9.58333e-06
-9.35918e-06
-9.35423e-06
-9.48142e-06
-9.81106e-06
-1.03849e-05
-1.12537e-05
-1.24724e-05
-1.40818e-05
-1.60995e-05
-1.8376e-05
-2.0805e-05
-2.2744e-05
-2.45078e-05
-2.60084e-05
-2.73115e-05
-2.82197e-05
-2.87976e-05
-2.89733e-05
-2.87655e-05
-2.81606e-05
-2.72191e-05
-2.58727e-05
-2.42958e-05
-2.25048e-05
-2.03823e-05
-1.81359e-05
-1.60653e-05
-1.43483e-05
-1.30815e-05
-1.22655e-05
-1.18627e-05
-1.17634e-05
-1.20925e-05
-9.57247e-06
-9.40953e-06
-9.45079e-06
-9.61939e-06
-9.96957e-06
-1.05364e-05
-1.1354e-05
-1.24596e-05
-1.38741e-05
-1.55976e-05
-1.75205e-05
-1.95595e-05
-2.13818e-05
-2.30818e-05
-2.45158e-05
-2.57437e-05
-2.66068e-05
-2.71365e-05
-2.73043e-05
-2.71251e-05
-2.65886e-05
-2.57116e-05
-2.4482e-05
-2.30185e-05
-2.13375e-05
-1.94876e-05
-1.75736e-05
-1.57998e-05
-1.43033e-05
-1.31662e-05
-1.23983e-05
-1.19778e-05
-1.18276e-05
-1.20643e-05
-9.58204e-06
-9.47656e-06
-9.55071e-06
-9.75816e-06
-1.01354e-05
-1.07047e-05
-1.14989e-05
-1.25428e-05
-1.3845e-05
-1.53944e-05
-1.71253e-05
-1.89565e-05
-2.07066e-05
-2.23518e-05
-2.3754e-05
-2.49193e-05
-2.57491e-05
-2.62537e-05
-2.6417e-05
-2.62481e-05
-2.57411e-05
-2.49076e-05
-2.37503e-05
-2.23527e-05