/*--------------------------------*- C++ -*----------------------------------*\
| =========                 |                                                 |
| \\      /  F ield         | OpenFOAM: The Open Source CFD Toolbox           |
|  \\    /   O peration     | Version:  2112                                  |
|   \\  /    A nd           | Website:  www.openfoam.com                      |
|    \\/     M anipulation  |                                                 |
\*---------------------------------------------------------------------------*/
FoamFile
{
    version     2.0;
    format      ascii;
    arch        "LSB;label=32;scalar=64";
    class       surfaceScalarField;
    location    "2.3";
    object      phi;
}
// * * * * * * * * * * * * * * * * * * * * * * * * * * * * * * * * * * * * * //

dimensions      [0 3 -1 0 0 0 0];

oriented        oriented;

internalField   nonuniform List<scalar> 
188215
(
9.19708e-10
2.10681e-09
-3.02651e-09
3.0599e-09
1.27492e-09
-3.41511e-09
5.66595e-09
4.57986e-10
-3.06403e-09
8.34615e-09
-1.14532e-10
-2.56566e-09
1.10639e-08
-5.09288e-10
-2.2085e-09
1.37122e-08
-5.68808e-10
-2.07948e-09
1.62209e-08
-3.83476e-10
-2.12518e-09
1.84921e-08
-1.32234e-13
-2.27104e-09
2.04649e-08
4.63302e-10
-2.43611e-09
2.18456e-08
1.23928e-09
-2.62003e-09
2.24122e-08
2.26561e-09
-2.83218e-09
2.18003e-08
3.65953e-09
-3.0476e-09
2.01731e-08
4.85021e-09
-3.22303e-09
1.75976e-08
5.91324e-09
-3.33775e-09
1.43222e-08
6.68885e-09
-3.41342e-09
1.05098e-08
7.2734e-09
-3.46103e-09
6.36082e-09
7.64121e-09
-3.49223e-09
2.04904e-09
7.82309e-09
-3.51131e-09
-2.24714e-09
7.8165e-09
-3.52031e-09
-6.34993e-09
7.6216e-09
-3.51882e-09
-1.00865e-08
7.24133e-09
-3.50472e-09
-1.32583e-08
6.64526e-09
-3.47352e-09
-1.57061e-08
5.86137e-09
-3.41356e-09
-1.71853e-08
4.79408e-09
-3.31482e-09
-1.76379e-08
3.61016e-09
-3.15759e-09
-1.69043e-08
2.23442e-09
-2.96805e-09
-1.53601e-08
1.2542e-09
-2.79835e-09
-1.32155e-08
5.46973e-10
-2.69157e-09
-1.07568e-08
2.21476e-10
-2.6802e-09
-8.11265e-09
1.89538e-10
-2.83369e-09
-5.39419e-09
5.19026e-10
-3.23748e-09
-2.80104e-09
1.32287e-09
-3.91602e-09
-7.40074e-10
2.41963e-09
-4.4806e-09
3.36335e-09
-4.10342e-09
-7.18648e-10
6.94844e-09
-4.12298e-09
1.67994e-09
6.98056e-09
-8.10423e-09
4.95298e-09
6.50794e-09
-9.32299e-09
8.22335e-09
6.25511e-09
-9.64001e-09
1.12354e-08
6.49249e-09
-1.00138e-08
1.40614e-08
7.26018e-09
-1.06551e-08
1.67584e-08
8.54567e-09
-1.16261e-08
1.9297e-08
1.04122e-08
-1.29509e-08
2.14976e-08
1.29293e-08
-1.46666e-08
2.30657e-08
1.64163e-08
-1.67452e-08
2.37505e-08
2.06914e-08
-1.91105e-08
2.30741e-08
2.59901e-08
-2.16542e-08
2.12982e-08
3.06882e-08
-2.40621e-08
1.85244e-08
3.48743e-08
-2.61873e-08
1.50416e-08
3.81061e-08
-2.79344e-08
1.10166e-08
4.05791e-08
-2.92807e-08
6.65183e-09
4.22061e-08
-3.02001e-08
2.1235e-09
4.30383e-08
-3.06869e-08
-2.38778e-09
4.3061e-08
-3.07332e-08
-6.70157e-09
4.22744e-08
-3.0339e-08
-1.0643e-08
4.06951e-08
-2.95123e-08
-1.40114e-08
3.82731e-08
-2.82595e-08
-1.66441e-08
3.51021e-08
-2.6608e-08
-1.82558e-08
3.09896e-08
-2.45838e-08
-1.87533e-08
2.6396e-08
-2.22884e-08
-1.78718e-08
2.12314e-08
-1.98784e-08
-1.60937e-08
1.71614e-08
-1.76853e-08
-1.36441e-08
1.39368e-08
-1.58394e-08
-1.0791e-08
1.1809e-08
-1.44407e-08
-7.61922e-09
1.05377e-08
-1.35199e-08
-4.19413e-09
1.01047e-08
-1.30107e-08
-7.34508e-10
1.0417e-08
-1.25537e-08
1.6452e-09
1.10037e-08
-1.09638e-08
1.07591e-08
-5.75052e-09
-1.86334e-09
1.29565e-08
-4.14469e-09
7.3668e-10
1.39828e-08
-9.60222e-09
4.54321e-09
1.41968e-08
-1.14954e-08
8.30876e-09
1.47061e-08
-1.22166e-08
1.17919e-08
1.59034e-08
-1.28941e-08
1.50623e-08
1.7876e-08
-1.38863e-08
1.82335e-08
2.06985e-08
-1.53241e-08
2.13297e-08
2.45814e-08
-1.72655e-08
2.42288e-08
2.9774e-08
-1.97437e-08
2.64861e-08
3.69339e-08
-2.27749e-08
2.76491e-08
4.57939e-08
-2.62654e-08
2.67825e-08
5.69068e-08
-3.00502e-08
2.45197e-08
6.66001e-08
-3.36491e-08
2.1095e-08
7.51266e-08
-3.68276e-08
1.69676e-08
8.16746e-08
-3.94411e-08
1.22985e-08
8.66963e-08
-4.1448e-08
7.30004e-09
9.00168e-08
-4.28123e-08
2.14096e-09
9.17277e-08
-4.35304e-08
-3.00009e-09
9.17934e-08
-4.35914e-08
-7.94432e-09
9.02139e-08
-4.29953e-08
-1.25238e-08
8.70276e-08
-4.17531e-08
-1.6526e-08
8.21442e-08
-3.98689e-08
-1.9793e-08
7.57497e-08
-3.73805e-08
-2.18659e-08
6.73965e-08
-3.4334e-08
-2.25188e-08
5.79304e-08
-3.08815e-08
-2.11087e-08
4.70918e-08
-2.72706e-08
-1.85786e-08
3.86317e-08
-2.40004e-08
-1.53204e-08
3.19349e-08
-2.12563e-08
-1.17129e-08
2.73541e-08
-1.91526e-08
-7.79593e-09
2.42851e-08
-1.76644e-08
-3.58401e-09
2.25289e-08
-1.66362e-08
6.15695e-10
2.1802e-08
-1.55847e-08
3.2269e-09
2.1482e-08
-1.30895e-08
1.99107e-08
-5.92473e-09
-2.48199e-09
1.91859e-08
-3.74741e-09
4.18508e-10
2.09561e-08
-9.87383e-09
4.84617e-09
2.18059e-08
-1.20367e-08
9.3048e-09
2.31316e-08
-1.28841e-08
1.35081e-08
2.53793e-08
-1.36792e-08
1.7564e-08
2.86699e-08
-1.48497e-08
2.16841e-08
3.31508e-08
-1.65725e-08
2.60042e-08
3.92059e-08
-1.89445e-08
3.04368e-08
4.73573e-08
-2.20159e-08
3.42648e-08
5.89431e-08
-2.58372e-08
3.65322e-08
7.38041e-08
-3.02777e-08
3.51735e-08
9.34575e-08
-3.5192e-08
3.17475e-08
1.09864e-07
-3.9838e-08
2.6853e-08
1.23946e-07
-4.39252e-08
2.12959e-08
1.34499e-07
-4.72672e-08
1.51961e-08
1.426e-07
-4.98041e-08
8.776e-09
1.47947e-07
-5.15099e-08
2.19306e-09
1.50712e-07
-5.24009e-08
-4.37105e-09
1.50825e-07
-5.24676e-08
-1.07339e-08
1.48286e-07
-5.17097e-08
-1.67373e-08
1.43167e-07
-5.01358e-08
-2.21549e-08
1.35292e-07
-4.77304e-08
-2.6867e-08
1.24982e-07
-4.452e-08
-3.00614e-08
1.11161e-07
-4.05697e-08
-3.11486e-08
9.50923e-08
-3.60746e-08
-2.85509e-08
7.58358e-08
-3.13418e-08
-2.43668e-08
6.15844e-08
-2.71368e-08
-1.94468e-08
5.06408e-08
-2.36259e-08
-1.44204e-08
4.32878e-08
-2.09602e-08
-9.2932e-09
3.82329e-08
-1.90749e-08
-4.01626e-09
3.50223e-08
-1.77704e-08
1.06126e-09
3.32063e-08
-1.64819e-08
4.07703e-09
3.20781e-08
-1.36119e-08
2.95176e-08
-5.52983e-09
-2.6591e-09
2.51851e-08
-3.34011e-09
7.90895e-10
2.75313e-08
-1.00252e-08
6.06327e-09
2.89365e-08
-1.2403e-08
1.14575e-08
3.10685e-08
-1.33311e-08
1.6666e-08
3.44129e-08
-1.42421e-08
2.18854e-08
3.90866e-08
-1.56361e-08
2.75045e-08
4.52705e-08
-1.77388e-08
3.39025e-08
5.3506e-08
-2.06981e-08
4.11146e-08
6.47189e-08
-2.45737e-08
4.80422e-08
8.14791e-08
-2.94637e-08
5.26263e-08
1.04371e-07
-3.51507e-08
5.01062e-08
1.37682e-07
-4.17042e-08
4.431e-08
1.63483e-07
-4.78224e-08
3.6713e-08
1.8478e-07
-5.32369e-08
2.86867e-08
2.00187e-07
-5.76616e-08
2.01524e-08
2.12075e-07
-6.09405e-08
1.1311e-08
2.19899e-07
-6.31107e-08
2.29586e-09
2.2396e-07
-6.42331e-08
-6.70038e-09
2.24127e-07
-6.43058e-08
-1.54836e-08
2.20397e-07
-6.33278e-08
-2.39173e-08
2.129e-07
-6.12992e-08
-3.17907e-08
2.01324e-07
-5.81589e-08
-3.91763e-08
1.86236e-07
-5.38688e-08
-4.46841e-08
1.65259e-07
-4.85907e-08
-4.6849e-08
1.39879e-07
-4.26215e-08
-4.18103e-08
1.07047e-07
-3.62496e-08
-3.44425e-08
8.50277e-08
-3.08111e-08
-2.66181e-08
6.90707e-08
-2.62543e-08
-1.93234e-08
5.88153e-08
-2.28223e-08
-1.24338e-08
5.17471e-08
-2.04038e-08
-5.70391e-09
4.70662e-08
-1.87737e-08
5.62747e-10
4.42075e-08
-1.72679e-08
4.3577e-09
4.23458e-08
-1.40626e-08
3.90098e-08
-5.1345e-09
-2.55224e-09
3.07475e-08
-3.01019e-09
1.75398e-09
3.35715e-08
-1.03465e-08
8.18044e-09
3.55038e-08
-1.29938e-08
1.48071e-08
3.84761e-08
-1.40343e-08
2.13241e-08
4.30176e-08
-1.51218e-08
2.80688e-08
4.91922e-08
-1.68503e-08
3.57155e-08
5.71246e-08
-1.95009e-08
4.51496e-08
6.73506e-08
-2.32787e-08
5.68343e-08
8.12315e-08
-2.81973e-08
6.95207e-08
1.03179e-07
-3.43859e-08
7.89753e-08
1.36172e-07
-4.12555e-08
7.38798e-08
1.92673e-07
-4.98962e-08
6.36568e-08
2.3163e-07
-5.79245e-08
5.16211e-08
2.62111e-07
-6.52954e-08
3.98548e-08
2.83342e-07
-7.13885e-08
2.76673e-08
2.99944e-07
-7.56813e-08
1.51658e-08
3.1086e-07
-7.846e-08
2.45387e-09
3.16553e-07
-7.98814e-08
-1.02413e-08
3.16786e-07
-7.99635e-08
-2.26902e-08
3.11551e-07
-7.87047e-08
-3.47835e-08
3.01077e-07
-7.60836e-08
-4.6396e-08
2.84879e-07
-7.19421e-08
-5.82006e-08
2.64031e-07
-6.59897e-08
-6.80721e-08
2.33887e-07
-5.87563e-08
-7.26977e-08
1.95381e-07
-5.08765e-08
-6.25887e-08
1.39348e-07
-4.24105e-08
-4.9404e-08
1.0765e-07
-3.58068e-08
-3.69958e-08
8.66415e-08
-2.9979e-08
-2.64605e-08
7.38356e-08
-2.55556e-08
-1.72309e-08
6.49126e-08
-2.2395e-08
-8.58816e-09
5.8726e-08
-2.03026e-08
-6.47807e-10
5.47642e-08
-1.84971e-08
4.3051e-09
5.22071e-08
-1.48143e-08
4.81733e-08
-4.85846e-09
-2.24242e-09
3.57171e-08
-2.72712e-09
3.25522e-09
3.89625e-08
-1.08886e-08
1.12065e-08
4.14576e-08
-1.3905e-08
1.94145e-08
4.53869e-08
-1.51187e-08
2.75526e-08
5.13411e-08
-1.64616e-08
3.61145e-08
5.92753e-08
-1.86449e-08
4.61504e-08
6.90929e-08
-2.20042e-08
5.94597e-08
8.08347e-08
-2.67934e-08
7.76375e-08
9.59313e-08
-3.28776e-08
1.00246e-07
1.20821e-07
-4.02509e-08
1.20378e-07
1.63462e-07
-4.7422e-08
1.09316e-07
2.6188e-07
-5.81449e-08
9.10398e-08
3.17926e-07
-6.80193e-08
7.22675e-08
3.58948e-07
-7.80643e-08
5.53662e-08
3.8687e-07
-8.66274e-08
3.81676e-08
4.09171e-07
-9.20285e-08
2.05733e-08
4.23918e-07
-9.54636e-08
2.67747e-09
4.31651e-07
-9.72021e-08
-1.52076e-08
4.31968e-07
-9.72975e-08
-3.27671e-08
4.24858e-07
-9.57473e-08
-4.99002e-08
4.10703e-07
-9.24928e-08
-6.66782e-08
3.8892e-07
-8.72628e-08
-8.5234e-08
3.61437e-07
-7.88502e-08
-1.03107e-07
3.20709e-07
-6.89491e-08
-1.1355e-07
2.65056e-07
-5.92315e-08
-9.24019e-08
1.6687e-07
-4.86701e-08
-6.93294e-08
1.2637e-07
-4.17922e-08
-5.03567e-08
1.02473e-07
-3.48047e-08
-3.57107e-08
8.84706e-08
-2.92809e-08
-2.36871e-08
7.80929e-08
-2.52039e-08
-1.26877e-08
7.02351e-08
-2.25086e-08
-2.58569e-09
6.49409e-08
-2.02786e-08
4.01936e-09
6.15441e-08
-1.5942e-08
5.68454e-08
-4.65271e-09
-1.71747e-09
3.9882e-08
-2.44752e-09
5.36111e-09
4.35158e-08
-1.16318e-08
1.53114e-08
4.66437e-08
-1.51364e-08
2.55699e-08
5.17198e-08
-1.65915e-08
3.5718e-08
5.94649e-08
-1.82718e-08
4.62727e-08
6.97471e-08
-2.10265e-08
5.84852e-08
8.21192e-08
-2.52388e-08
7.52626e-08
9.52718e-08
-3.12146e-08
1.00337e-07
1.09294e-07
-3.84364e-08
1.39191e-07
1.28999e-07
-4.70323e-08
1.83185e-07
1.69519e-07
-5.00515e-08
1.59243e-07
3.4636e-07
-6.0537e-08
1.28304e-07
4.2104e-07
-7.2176e-08
1.00613e-07
4.72996e-07
-8.63562e-08
7.71803e-08
5.0893e-07
-9.86271e-08
5.31636e-08
5.38188e-07
-1.05e-07
2.83345e-08
5.57746e-07
-1.08999e-07
2.99048e-09
5.67998e-07
-1.11003e-07
-2.23537e-08
5.68426e-07
-1.11113e-07
-4.7183e-08
5.59013e-07
-1.09326e-07
-7.11998e-08
5.40254e-07
-1.05534e-07
-9.46036e-08
5.11682e-07
-9.93581e-08
-1.22191e-07
4.76276e-07
-8.72517e-08
-1.5277e-07
4.24519e-07
-7.32315e-08
-1.75899e-07
3.49986e-07
-6.18016e-08
-1.30177e-07
1.72567e-07
-5.14192e-08
-9.11684e-08
1.36057e-07
-4.86964e-08
-6.5246e-08
1.1707e-07
-4.05192e-08
-4.68252e-08
1.04003e-07
-3.39534e-08
-3.20822e-08
9.2162e-08
-2.88122e-08
-1.83442e-08
8.1892e-08
-2.53948e-08
-5.44954e-09
7.46618e-08
-2.26156e-08
3.42848e-09
7.00838e-08
-1.74177e-08
6.47014e-08
-4.4275e-09
-9.35665e-10
4.2967e-08
-2.14924e-09
8.12099e-09
4.70121e-08
-1.2553e-08
2.06206e-08
5.08206e-08
-1.66765e-08
3.35275e-08
5.72519e-08
-1.84389e-08
4.62246e-08
6.72914e-08
-2.05237e-08
5.89654e-08
8.09269e-08
-2.39206e-08
7.2638e-08
9.75112e-08
-2.90646e-08
9.07087e-08
1.13492e-07
-3.62908e-08
1.1973e-07
1.25537e-07
-4.52644e-08
1.80757e-07
1.21878e-07
-5.39068e-08
2.74381e-07
1.33872e-07
-5.79775e-08
2.22477e-07
4.53771e-07
-5.55061e-08
1.7302e-07
5.36006e-07
-6.55085e-08
1.35814e-07
5.9522e-07
-8.50181e-08
1.0501e-07
6.41574e-07
-1.0184e-07
7.26051e-08
6.79027e-07
-1.08434e-07
3.84812e-08
7.04932e-07
-1.13062e-07
3.42786e-09
7.18376e-07
-1.15325e-07
-3.16413e-08
7.18938e-07
-1.15443e-07
-6.58183e-08
7.06603e-07
-1.13413e-07
-9.8332e-08
6.81772e-07
-1.09004e-07
-1.29299e-07
6.4527e-07
-1.02622e-07
-1.66694e-07
5.99634e-07
-8.59626e-08
-2.16071e-07
5.40536e-07
-6.664e-08
-2.66872e-07
4.577e-07
-5.69123e-08
-1.70274e-07
1.35758e-07
-5.97893e-08
-1.1013e-07
1.31702e-07
-5.57893e-08
-8.00887e-08
1.34543e-07
-4.75138e-08
-5.99468e-08
1.23198e-07
-3.93364e-08
-4.30001e-08
1.08317e-07
-3.31019e-08
-2.60588e-08
9.38727e-08
-2.8922e-08
-9.52265e-09
8.36479e-08
-2.55223e-08
2.42671e-09
7.73678e-08
-1.92334e-08
7.12737e-08
-4.14557e-09
2.02451e-10
4.45683e-08
-1.80375e-09
1.18073e-08
4.90571e-08
-1.36498e-08
2.77391e-08
5.34157e-08
-1.85269e-08
4.45131e-08
6.11483e-08
-2.06704e-08
6.13589e-08
7.36929e-08
-2.32473e-08
7.78773e-08
9.17923e-08
-2.73838e-08
9.32893e-08
1.15606e-07
-3.35064e-08
1.07275e-07
1.42154e-07
-4.26482e-08
1.19815e-07
1.65908e-07
-5.29106e-08
1.68927e-07
1.42101e-07
-6.93346e-08
3.88957e-07
-8.6158e-08
3.02038e-07
5.70297e-07
-2.96069e-08
2.34951e-07
6.34333e-07
-3.12406e-08
1.89591e-07
6.9097e-07
-5.039e-08
1.49393e-07
7.50341e-07
-6.85683e-08
1.03549e-07
7.96379e-07
-7.15082e-08
5.43811e-08
8.28779e-07
-7.46791e-08
4.044e-09
8.45068e-07
-7.63539e-08
-4.63187e-08
8.45746e-07
-7.64456e-08
-9.55806e-08
8.3082e-07
-7.49543e-08
-1.41649e-07
7.99782e-07
-7.19412e-08
-1.82262e-07
7.55079e-07
-6.91961e-08
-2.28391e-07
6.96908e-07
-5.1145e-08
-2.96686e-07
6.41002e-07
-3.21699e-08
-3.83382e-07
5.75473e-07
-3.10784e-08
-1.58658e-07
-8.89651e-08
-1.08908e-07
1.52674e-07
-7.07224e-08
-9.63196e-08
1.76957e-07
-5.50018e-08
-7.98306e-08
1.52676e-07
-4.59677e-08
-6.01927e-08
1.26786e-07
-3.81068e-08
-3.818e-08
1.05061e-07
-3.32008e-08
-1.60722e-08
9.06549e-08
-2.91148e-08
2.0405e-10
8.25216e-08
-2.14301e-08
7.52505e-08
-3.77282e-09
1.25087e-09
4.4663e-08
-1.34557e-09
1.60573e-08
4.92495e-08
-1.49989e-08
3.61521e-08
5.39984e-08
-2.06776e-08
5.79249e-08
6.26521e-08
-2.32765e-08
8.08422e-08
7.7223e-08
-2.64475e-08
1.04115e-07
9.97743e-08
-3.12546e-08
1.23825e-07
1.33793e-07
-3.78971e-08
1.2777e-07
1.83492e-07
-4.52833e-08
1.00722e-07
2.55061e-07
-6.21058e-08
3.44461e-07
-1.01637e-07
1.81865e-07
3.14564e-07
7.38679e-08
2.46319e-07
5.34215e-07
3.56648e-08
2.43041e-07
6.65957e-07
2.82906e-08
1.99547e-07
7.63804e-07
3.00306e-08
1.3911e-07
8.29766e-07
2.70506e-08
7.29927e-08
8.71528e-07
2.33684e-08
4.85709e-09
8.91555e-07
2.16481e-08
-6.33101e-08
8.9226e-07
2.16531e-08
-1.29543e-07
8.73673e-07
2.33792e-08
-1.90273e-07
8.33436e-07
2.70755e-08
-2.34452e-07
7.69182e-07
3.00766e-08
-2.39342e-07
6.73371e-07
2.84259e-08
-1.77826e-07
5.43971e-07
3.55149e-08
3.25074e-07
7.25741e-08
-9.77258e-08
3.49765e-07
-9.93651e-08
-1.20208e-07
2.63213e-07
-6.37739e-08
-1.11131e-07
1.92607e-07
-4.90073e-08
-8.53233e-08
1.44262e-07
-4.32829e-08
-5.47596e-08
1.12672e-07
-3.81749e-08
-2.465e-08
9.40739e-08
-3.35286e-08
-2.0187e-09
8.42167e-08
-2.43264e-08
7.64409e-08
-3.20911e-09
2.72223e-09
4.28222e-08
-8.81485e-10
2.12696e-08
4.71697e-08
-1.64676e-08
4.67233e-08
5.15699e-08
-2.30251e-08
7.60885e-08
5.9482e-08
-2.61952e-08
1.11028e-07
7.2533e-08
-3.02489e-08
1.55244e-07
9.20032e-08
-3.64458e-08
2.14635e-07
1.19309e-07
-4.49072e-08
2.96578e-07
1.54472e-07
-5.29225e-08
4.14528e-07
1.94617e-07
-5.75062e-08
5.68242e-07
2.34192e-07
-4.34457e-08
4.43156e-07
8.28671e-08
4.22194e-08
4.60878e-07
2.29294e-07
6.75483e-08
4.45874e-07
4.04791e-07
1.44428e-07
3.81841e-07
5.22621e-07
2.0737e-07
2.9164e-07
6.11314e-07
2.4269e-07
1.94797e-07
6.70714e-07
2.55895e-07
9.94301e-08
7.08013e-07
2.58881e-07
5.69207e-09
7.25956e-07
2.59337e-07
-8.80267e-08
7.26569e-07
2.5941e-07
-1.83331e-07
7.09874e-07
2.59104e-07
-2.80073e-07
6.73878e-07
2.563e-07
-3.70144e-07
6.15865e-07
2.43388e-07
-4.34074e-07
5.28642e-07
2.08659e-07
-4.48563e-07
4.12005e-07
1.46454e-07
-4.32111e-07
2.37617e-07
7.10046e-08
-5.62942e-07
8.51674e-08
4.56638e-08
-4.09076e-07
2.38607e-07
-4.27079e-08
-2.87988e-07
2.01457e-07
-5.93326e-08
-2.01184e-07
1.6272e-07
-5.69168e-08
-1.34946e-07
1.29171e-07
-5.11467e-08
-8.19689e-08
1.04375e-07
-4.46801e-08
-3.78113e-08
8.87856e-08
-3.88692e-08
-6.02264e-09
8.02522e-08
-2.78242e-08
7.30568e-08
-2.6385e-09
3.92637e-09
3.93573e-08
-4.61437e-10
2.5665e-08
4.32658e-08
-1.78347e-08
5.54868e-08
4.69974e-08
-2.52493e-08
9.03972e-08
5.35378e-08
-2.89662e-08
1.3278e-07
6.39827e-08
-3.38326e-08
1.87327e-07
7.87895e-08
-4.13329e-08
2.60322e-07
9.78372e-08
-5.15235e-08
3.56916e-07
1.19704e-07
-6.18265e-08
4.79715e-07
1.39419e-07
-6.76012e-08
6.18748e-07
1.53257e-07
-5.80985e-08
6.23979e-07
1.048e-07
-2.71633e-08
6.29009e-07
1.89916e-07
3.4348e-08
5.76469e-07
2.96601e-07
1.6073e-07
4.76368e-07
3.78182e-07
2.4454e-07
3.57328e-07
4.41796e-07
2.88558e-07
2.36177e-07
4.84527e-07
3.07338e-07
1.19511e-07
5.11776e-07
3.12904e-07
6.33679e-09
5.24949e-07
3.14181e-07
-1.06801e-07
5.25454e-07
3.14254e-07
-2.23353e-07
5.13296e-07
3.13129e-07
-3.44315e-07
4.87078e-07
3.07762e-07
-4.63145e-07
4.45379e-07
2.89316e-07
-5.6325e-07
3.82764e-07
2.45983e-07
-6.16258e-07
3.01921e-07
1.63093e-07
-6.12618e-07
1.95624e-07
3.83515e-08
-6.11183e-07
1.08246e-07
-2.45125e-08
-4.73107e-07
1.58138e-07
-5.76073e-08
-3.47744e-07
1.45643e-07
-6.95496e-08
-2.46054e-07
1.27234e-07
-6.6204e-08
-1.65344e-07
1.06982e-07
-5.85209e-08
-1.00622e-07
9.03507e-08
-5.06986e-08
-4.72073e-08
7.91078e-08
-4.37366e-08
-8.68417e-09
7.26514e-08
-3.09223e-08
6.6442e-08
-2.0694e-09
4.94054e-09
3.45107e-08
-9.39737e-11
2.94033e-08
3.78204e-08
-1.90173e-08
6.28586e-08
4.07228e-08
-2.71808e-08
1.0209e-07
4.56642e-08
-3.13579e-08
1.49667e-07
5.33257e-08
-3.69198e-08
2.10373e-07
6.373e-08
-4.56464e-08
2.89752e-07
7.62801e-08
-5.78226e-08
3.91185e-07
8.98506e-08
-7.15789e-08
5.11953e-07
1.00866e-07
-8.22146e-08
6.3617e-07
1.09945e-07
-8.09042e-08
6.95618e-07
1.01994e-07
-5.66421e-08
7.19984e-07
1.50512e-07
1.50377e-08
6.57183e-07
2.13101e-07
1.463e-07
5.40285e-07
2.65108e-07
2.29973e-07
4.02053e-07
3.06867e-07
2.73162e-07
2.64326e-07
3.35255e-07
2.86998e-07
1.33274e-07
3.53764e-07
2.89064e-07
6.85256e-09
3.62823e-07
2.88547e-07
-1.19525e-07
3.63247e-07
2.88585e-07
-2.50446e-07
3.55032e-07
2.89185e-07
-3.87968e-07
3.37351e-07
2.87249e-07
-5.26017e-07
3.09748e-07
2.73679e-07
-6.43094e-07
2.68714e-07
2.31127e-07
-7.06785e-07
2.17234e-07
1.48377e-07
-6.84964e-07
1.55036e-07
1.87672e-08
-6.28239e-07
1.05821e-07
-5.43005e-08
-5.04415e-07
1.14635e-07
-8.03212e-08
-3.81112e-07
1.065e-07
-8.41604e-08
-2.74315e-07
9.66172e-08
-7.61797e-08
-1.86502e-07
8.45267e-08
-6.53581e-08
-1.14435e-07
7.41344e-08
-5.58503e-08
-5.43438e-08
6.67819e-08
-4.77658e-08
-1.06501e-08
6.23746e-08
-3.34168e-08
5.72892e-08
-1.49731e-09
5.58851e-09
2.86611e-08
2.6109e-10
3.20789e-08
3.13216e-08
-1.99916e-08
6.81133e-08
3.34469e-08
-2.87584e-08
1.10107e-07
3.69625e-08
-3.32917e-08
1.60514e-07
4.22956e-08
-3.93773e-08
2.23946e-07
4.93244e-08
-4.90266e-08
3.05429e-07
5.74804e-08
-6.26831e-08
4.07902e-07
6.61522e-08
-7.87743e-08
5.27537e-07
7.34919e-08
-9.22616e-08
6.49957e-07
8.163e-08
-9.41047e-08
7.35646e-07
8.65693e-08
-7.02644e-08
7.71942e-07
1.16289e-07
-2.0731e-09
7.04148e-07
1.54203e-07
1.26692e-07
5.78418e-07
1.86963e-07
2.03875e-07
4.29791e-07
2.1384e-07
2.41654e-07
2.82389e-07
2.32622e-07
2.50035e-07
1.42308e-07
2.45096e-07
2.48749e-07
7.27098e-09
2.51314e-07
2.46547e-07
-1.2773e-07
2.51697e-07
2.46552e-07
-2.67701e-07
2.46234e-07
2.48768e-07
-4.14942e-07
2.34478e-07
2.50114e-07
-5.63465e-07
2.16348e-07
2.41922e-07
-6.89511e-07
1.90039e-07
2.04722e-07
-7.58403e-07
1.57684e-07
1.28443e-07
-7.25151e-07
1.20043e-07
1.74122e-09
-6.41541e-07
9.03003e-08
-6.80893e-08
-5.19241e-07
8.59525e-08
-9.3617e-08
-3.96926e-07
7.84966e-08
-9.43113e-08
-2.88776e-07
7.20664e-08
-8.35994e-08
-1.98245e-07
6.46277e-08
-7.06321e-08
-1.22514e-07
5.82421e-08
-5.98384e-08
-5.84969e-08
5.36373e-08
-5.08727e-08
-1.15726e-08
5.0769e-08
-3.53187e-08
4.67975e-08
-1.08095e-09
6.00974e-09
2.21339e-08
5.17433e-10
3.39723e-08
2.41149e-08
-2.07559e-08
7.18406e-08
2.55574e-08
-2.99788e-08
1.15683e-07
2.78885e-08
-3.47687e-08
1.67807e-07
3.13939e-08
-4.12225e-08
2.32675e-07
3.59718e-08
-5.15147e-08
3.15075e-07
4.12717e-08
-6.61919e-08
4.17958e-07
4.70818e-08
-8.38118e-08
5.3789e-07
5.26494e-08
-9.90897e-08
6.62529e-07
5.97676e-08
-1.02777e-07
7.60842e-07
6.73511e-08
-7.90948e-08
8.0351e-07
8.63029e-08
-1.2683e-08
7.33859e-07
1.09764e-07
1.1409e-07
6.03195e-07
1.30601e-07
1.87026e-07
4.48113e-07
1.47939e-07
2.20983e-07
2.94493e-07
1.60389e-07
2.25854e-07
1.48458e-07
1.68784e-07
2.22347e-07
7.64971e-09
1.73071e-07
2.19051e-07
-1.33135e-07
1.73443e-07
2.19039e-07
-2.79098e-07
1.69883e-07
2.22313e-07
-4.32622e-07
1.62163e-07
2.25839e-07
-5.87692e-07
1.50303e-07
2.21115e-07
-7.188e-07
1.33445e-07
1.87702e-07
-7.89741e-07
1.12945e-07
1.1568e-07
-7.5016e-07
8.9722e-08
-9.26036e-09
-6.53693e-07
7.08435e-08
-7.70103e-08
-5.28992e-07
6.36252e-08
-1.02374e-07
-4.06193e-07
5.6956e-08
-1.01258e-07
-2.97333e-07
5.2037e-08
-8.88311e-08
-2.05388e-07
4.71371e-08
-7.44544e-08
-1.2752e-07
4.31381e-08
-6.27634e-08
-6.10208e-08
4.03038e-08
-5.31659e-08
-1.20211e-08
3.84999e-08
-3.67306e-08
3.55818e-08
-8.05401e-10
6.23151e-09
1.51881e-08
7.14367e-10
3.51758e-08
1.64997e-08
-2.13291e-08
7.42464e-08
1.73543e-08
-3.08676e-08
1.19254e-07
1.87078e-08
-3.58271e-08
1.72403e-07
2.07585e-08
-4.25135e-08
2.38096e-07
2.34798e-08
-5.32004e-08
3.21106e-07
2.67464e-08
-6.84851e-08
4.24584e-07
3.05653e-08
-8.69618e-08
5.45674e-07
3.4759e-08
-1.03199e-07
6.72839e-07
4.03601e-08
-1.07758e-07
7.77407e-07
4.71071e-08
-8.43235e-08
8.23604e-07
5.88101e-08
-1.87043e-08
7.52852e-07
7.26585e-08
1.07857e-07
6.19191e-07
8.51814e-08
1.7908e-07
4.6017e-07
9.56709e-08
2.1129e-07
3.02611e-07
1.03429e-07
2.14518e-07
1.52677e-07
1.08741e-07
2.09977e-07
8.01454e-09
1.1156e-07
2.06173e-07
-1.36642e-07
1.11945e-07
2.06155e-07
-2.86557e-07
1.09874e-07
2.09925e-07
-4.44104e-07
1.0524e-07
2.14471e-07
-6.03225e-07
9.8051e-08
2.11372e-07
-7.37457e-07
8.79873e-08
1.79691e-07
-8.09617e-07
7.57304e-08
1.09374e-07
-7.66547e-07
6.20126e-08
-1.53606e-08
-6.63702e-07
5.03248e-08
-8.23266e-08
-5.36344e-07
4.37268e-08
-1.07459e-07
-4.12227e-07
3.83398e-08
-1.05501e-07
-3.0253e-07
3.45042e-08
-9.21637e-08
-2.09613e-07
3.1222e-08
-7.70025e-08
-1.30436e-07
2.87397e-08
-6.47784e-08
-6.24142e-08
2.70654e-08
-5.47835e-08
-1.21608e-08
2.60027e-08
-3.77563e-08
2.40966e-08
-6.75573e-10
6.34132e-09
8.06166e-09
7.85093e-10
3.58568e-08
8.69992e-09
-2.17157e-08
7.56424e-08
9.01617e-09
-3.14474e-08
1.21356e-07
9.49889e-09
-3.65046e-08
1.75157e-07
1.02773e-08
-4.33197e-08
2.41445e-07
1.1412e-08
-5.422e-08
3.25038e-07
1.29799e-08
-6.98265e-08
4.2923e-07
1.51111e-08
-8.87384e-08
5.51479e-07
1.79584e-08
-1.05448e-07
6.80461e-07
2.17778e-08
-1.10399e-07
7.88043e-07
2.65783e-08
-8.70539e-08
8.35914e-07
3.2442e-08
-2.15024e-08
7.64514e-07
3.85418e-08
1.05516e-07
6.29088e-07
4.41549e-08
1.76453e-07
4.67747e-07
4.88377e-08
2.08174e-07
3.07798e-07
5.25101e-08
2.10868e-07
1.55458e-07
5.51103e-08
2.05971e-07
8.39024e-09
5.66379e-08
2.0199e-07
-1.38695e-07
5.70579e-08
2.01972e-07
-2.91083e-07
5.63443e-08
2.05917e-07
-4.51127e-07
5.44682e-08
2.10816e-07
-6.12707e-07
5.1382e-08
2.08248e-07
-7.48856e-07
4.70899e-08
1.77046e-07
-8.21795e-07
4.16661e-08
1.07004e-07
-7.7711e-07
3.55473e-08
-1.82199e-08
-6.71193e-07
2.95503e-08
-8.51424e-08
-5.41937e-07
2.46798e-08
-1.1021e-07
-4.16542e-07
2.08322e-08
-1.07887e-07
-3.05966e-07
1.8035e-08
-9.41069e-08
-2.12234e-07
1.60411e-08
-7.85515e-08
-1.32166e-07
1.47186e-08
-6.60469e-08
-6.31987e-08
1.39314e-08
-5.58329e-08
-1.22024e-08
1.34614e-08
-3.84549e-08
1.25464e-08
-6.52232e-10
6.3612e-09
9.48386e-10
7.52079e-10
3.60743e-08
9.10966e-10
-2.19242e-08
7.61375e-08
6.87209e-10
-3.17342e-08
1.22165e-07
2.96497e-10
-3.68254e-08
1.76328e-07
-2.05172e-10
-4.36807e-08
2.43059e-07
-6.74559e-10
-5.46443e-08
3.2722e-07
-8.38351e-10
-7.03424e-08
4.32143e-07
-4.42072e-10
-8.93696e-08
5.55289e-07
1.01665e-09
-1.06204e-07
6.85205e-07
3.11884e-09
-1.11257e-07
7.93575e-07
6.15797e-09
-8.795e-08
8.41679e-07
6.65126e-09
-2.23133e-08
7.69878e-07
5.20058e-09
1.05143e-07
6.33653e-07
3.9995e-09
1.7638e-07
4.71349e-07
2.89974e-09
2.08242e-07
3.10367e-07
2.50937e-09
2.10984e-07
1.56963e-07
2.41646e-09
2.06098e-07
8.79845e-09
2.68702e-09
2.02115e-07
-1.39411e-07
3.17145e-09
2.02096e-07
-2.92949e-07
3.84163e-09
2.06041e-07
-4.54168e-07
4.75938e-09
2.10927e-07
-6.16892e-07
5.7999e-09
2.08306e-07
-7.54035e-07
7.28097e-09
1.76952e-07
-8.27553e-07
8.59393e-09
1.06591e-07
-7.82722e-07
9.82813e-09
-1.91125e-08
-6.76002e-07
8.97777e-09
-8.61467e-08
-5.45765e-07
5.64173e-09
-1.11199e-07
-4.19415e-07
3.27269e-09
-1.08791e-07
-3.08027e-07
1.54585e-09
-9.48987e-08
-2.13624e-07
8.78908e-10
-7.92404e-08
-1.32991e-07
7.4319e-10
-6.66572e-08
-6.35412e-08
8.555e-10
-5.63744e-08
-1.22044e-08
9.84355e-10
-3.88598e-08
1.06636e-09
-7.24327e-10
6.29193e-09
-5.93321e-09
5.89666e-10
3.58271e-08
-6.66613e-09
-2.19581e-08
7.5729e-08
-7.48218e-09
-3.17325e-08
1.21675e-07
-8.85346e-09
-3.67959e-08
1.75901e-07
-1.08244e-08
-4.36068e-08
2.42912e-07
-1.31968e-08
-5.44894e-08
3.27624e-07
-1.54907e-08
-7.00587e-08
4.33308e-07
-1.72288e-08
-8.88975e-08
5.5712e-07
-1.72768e-08
-1.05519e-07
6.87215e-07
-1.65776e-08
-1.10398e-07
7.94273e-07
-1.3786e-08
-8.7114e-08
8.41094e-07
-1.88292e-08
-2.13403e-08
7.69053e-07
-2.91988e-08
1.06441e-07
6.32957e-07
-3.83575e-08
1.78452e-07
4.71029e-07
-4.61648e-08
2.10993e-07
3.10355e-07
-5.11279e-08
2.14311e-07
1.57207e-07
-5.41913e-08
2.09756e-07
9.25379e-09
-5.52959e-08
2.05936e-07
-1.38779e-07
-5.47147e-08
2.05919e-07
-2.92163e-07
-5.24792e-08
2.09704e-07
-4.53234e-07
-4.84215e-08
2.14252e-07
-6.15812e-07
-4.26613e-08
2.1104e-07
-7.53082e-07
-3.44184e-08
1.7897e-07
-8.27094e-07
-2.51867e-08
1.07792e-07
-7.8369e-07
-1.52838e-08
-1.82917e-08
-6.78297e-07
-1.09414e-08
-8.5474e-08
-5.47863e-07
-1.4275e-08
-1.10518e-07
-4.20815e-07
-1.54959e-08
-1.0828e-07
-3.08681e-07
-1.59982e-08
-9.45894e-08
-2.13769e-07
-1.4928e-08
-7.9105e-08
-1.32906e-07
-1.34868e-08
-6.66334e-08
-6.34358e-08
-1.21907e-08
-5.64239e-08
-1.21632e-08
-1.13069e-08
-3.89813e-08
-1.01995e-08
-8.97352e-10
6.09143e-09
-1.23896e-08
3.64933e-10
3.50545e-08
-1.38059e-08
-2.18233e-08
7.43058e-08
-1.52973e-08
-3.14363e-08
1.19695e-07
-1.78388e-08
-3.64039e-08
1.73578e-07
-2.16338e-08
-4.30739e-08
2.40589e-07
-2.64998e-08
-5.37081e-08
3.25768e-07
-3.1785e-08
-6.88838e-08
4.32338e-07
-3.66554e-08
-8.71438e-08
5.56999e-07
-3.88254e-08
-1.03112e-07
6.86967e-07
-3.91473e-08
-1.07399e-07
7.89905e-07
-3.26779e-08
-8.40461e-08
8.33199e-07
-4.43906e-08
-1.77328e-08
7.61078e-07
-6.78125e-08
1.10734e-07
6.26241e-07
-8.81757e-08
1.84655e-07
4.66302e-07
-1.05182e-07
2.18957e-07
3.07497e-07
-1.16166e-07
2.23843e-07
1.56115e-07
-1.23036e-07
2.20227e-07
9.81217e-09
-1.25837e-07
2.16844e-07
-1.3661e-07
-1.25095e-07
2.16803e-07
-2.88354e-07
-1.20837e-07
2.20102e-07
-4.4777e-07
-1.12664e-07
2.23658e-07
-6.08669e-07
-1.00586e-07
2.18824e-07
-7.45042e-07
-8.29883e-08
1.84943e-07
-8.19518e-07
-6.25336e-08
1.11823e-07
-7.79838e-07
-3.99846e-08
-1.49797e-08
-6.78546e-07
-2.95606e-08
-8.2672e-08
-5.48224e-07
-3.68019e-08
-1.07796e-07
-4.20371e-07
-3.72238e-08
-1.06124e-07
-3.07447e-07
-3.58815e-08
-9.30411e-08
-2.12235e-07
-3.20701e-08
-7.80701e-08
-1.31603e-07
-2.81881e-08
-6.59309e-08
-6.27091e-08
-2.51312e-08
-5.59529e-08
-1.20157e-08
-2.31937e-08
-3.88066e-08
-2.1021e-08
-1.1942e-09
5.69833e-09
-1.81123e-08
2.43845e-11
3.35993e-08
-2.01936e-08
-2.15133e-08
7.15673e-08
-2.24327e-08
-3.08325e-08
1.15695e-07
-2.63408e-08
-3.56252e-08
1.68487e-07
-3.2395e-08
-4.20316e-08
2.34788e-07
-4.06102e-08
-5.21901e-08
3.19995e-07
-5.04004e-08
-6.65922e-08
4.27587e-07
-6.05908e-08
-8.36565e-08
5.54198e-07
-6.72209e-08
-9.82155e-08
6.85193e-07
-6.91176e-08
-1.01024e-07
7.78944e-07
-4.86509e-08
-7.77786e-08
8.14826e-07
-6.98516e-08
-1.042e-08
7.42695e-07
-1.15355e-07
1.19673e-07
6.10883e-07
-1.53747e-07
1.97383e-07
4.55463e-07
-1.84849e-07
2.35087e-07
3.00838e-07
-2.04682e-07
2.43141e-07
1.53273e-07
-2.16936e-07
2.41465e-07
1.0518e-08
-2.22077e-07
2.38995e-07
-1.324e-07
-2.21076e-07
2.38899e-07
-2.80465e-07
-2.1394e-07
2.41169e-07
-4.35947e-07
-1.99847e-07
2.42665e-07
-5.92728e-07
-1.78354e-07
2.34548e-07
-7.26577e-07
-1.4631e-07
1.97171e-07
-8.01689e-07
-1.07656e-07
1.20234e-07
-7.69739e-07
-6.37563e-08
-8.17798e-09
-6.77467e-07
-4.50032e-08
-7.68301e-08
-5.46085e-07
-6.63065e-08
-1.01877e-07
-4.16375e-07
-6.53183e-08
-1.01616e-07
-3.02621e-07
-5.97998e-08
-8.98357e-08
-2.07691e-07
-5.10756e-08
-7.59246e-08
-1.28196e-07
-4.32498e-08
-6.44333e-08
-6.08576e-08
-3.7581e-08
-5.48885e-08
-1.15562e-08
-3.41959e-08
-3.82993e-08
-3.09154e-08
-1.66177e-09
5.08333e-09
-2.28295e-08
-3.6615e-10
3.14052e-08
-2.54919e-08
-2.10235e-08
6.73729e-08
-2.84909e-08
-2.99095e-08
1.09333e-07
-3.38604e-08
-3.44403e-08
1.59877e-07
-4.24897e-08
-4.04491e-08
2.24024e-07
-5.48688e-08
-4.98892e-08
3.07747e-07
-7.10031e-08
-6.31202e-08
4.15286e-07
-8.98304e-08
-7.82997e-08
5.45089e-07
-1.06454e-07
-9.05691e-08
6.8247e-07
-1.15485e-07
-9.1013e-08
7.56921e-07
-5.62283e-08
-6.68736e-08
7.77448e-07
-9.31017e-08
2.72289e-09
7.0774e-07
-1.79275e-07
1.33629e-07
5.82917e-07
-2.45123e-07
2.16198e-07
4.35962e-07
-2.96145e-07
2.58252e-07
2.88882e-07
-3.28543e-07
2.70941e-07
1.48037e-07
-3.48108e-07
2.72017e-07
1.14726e-08
-3.56386e-07
2.70873e-07
-1.25287e-07
-3.54991e-07
2.70674e-07
-2.66758e-07
-3.43878e-07
2.71409e-07
-4.14953e-07
-3.21592e-07
2.69938e-07
-5.63786e-07
-2.86521e-07
2.57001e-07
-6.91368e-07
-2.33867e-07
2.15139e-07
-7.65175e-07
-1.67199e-07
1.33351e-07
-7.49143e-07
-8.39344e-08
4.14569e-09
-6.75555e-07
-5.20684e-08
-6.65221e-08
-5.37775e-07
-1.11463e-07
-9.26229e-08
-4.05058e-07
-1.03468e-07
-9.45674e-08
-2.91639e-07
-8.83515e-08
-8.48677e-08
-1.98625e-07
-7.14939e-08
-7.25957e-08
-1.21886e-07
-5.79332e-08
-6.20557e-08
-5.75048e-08
-4.88204e-08
-5.31415e-08
-1.06705e-08
-4.36442e-08
-3.73859e-08
-3.92954e-08
-2.29053e-09
4.13278e-09
-2.61436e-08
-8.18625e-10
2.82175e-08
-2.92181e-08
-2.03585e-08
6.1179e-08
-3.27682e-08
-2.86843e-08
9.94482e-08
-3.92652e-08
-3.28644e-08
1.45366e-07
-5.00841e-08
-3.83232e-08
2.03773e-07
-6.65113e-08
-4.67643e-08
2.81231e-07
-9.01105e-08
-5.83515e-08
3.83778e-07
-1.21826e-07
-7.05509e-08
5.16084e-07
-1.60099e-07
-7.86611e-08
6.77265e-07
-2.0524e-07
-7.14271e-08
7.13192e-07
-4.98847e-08
-4.227e-08
7.00838e-07
-9.80371e-08
1.72894e-08
6.39792e-07