/*--------------------------------*- C++ -*----------------------------------*\
| =========                 |                                                 |
| \\      /  F ield         | OpenFOAM: The Open Source CFD Toolbox           |
|  \\    /   O peration     | Version:  2112                                  |
|   \\  /    A nd           | Website:  www.openfoam.com                      |
|    \\/     M anipulation  |                                                 |
\*---------------------------------------------------------------------------*/
FoamFile
{
    version     2.0;
    format      ascii;
    arch        "LSB;label=32;scalar=64";
    class       volVectorField;
    location    "2.3";
    object      U;
}
// * * * * * * * * * * * * * * * * * * * * * * * * * * * * * * * * * * * * * //

dimensions      [0 1 -1 0 0 0 0];

internalField   nonuniform List<vector> 
64906
(
(2.88032e-07 9.93493e-07 -1.74238e-06)
(2.60899e-06 -3.10656e-07 -1.78795e-06)
(6.25075e-06 -1.54178e-06 -1.29105e-06)
(1.00688e-05 -2.5152e-06 -7.43499e-07)
(1.39641e-05 -3.07415e-06 -3.24361e-07)
(1.78213e-05 -3.42034e-06 -6.45737e-08)
(2.15402e-05 -3.66153e-06 9.96014e-08)
(2.49902e-05 -3.79054e-06 2.47e-07)
(2.80976e-05 -3.77195e-06 4.32282e-07)
(3.05551e-05 -3.55402e-06 6.64868e-07)
(3.20597e-05 -3.24112e-06 9.07181e-07)
(3.2064e-05 -2.66376e-06 1.18667e-06)
(3.04081e-05 -2.26386e-06 1.46922e-06)
(2.73629e-05 -1.90633e-06 1.77488e-06)
(2.30985e-05 -1.70998e-06 2.04332e-06)
(1.79657e-05 -1.57109e-06 2.26684e-06)
(1.21908e-05 -1.50714e-06 2.41955e-06)
(6.06447e-06 -1.48378e-06 2.49831e-06)
(-1.73486e-07 -1.50171e-06 2.49775e-06)
(-6.25584e-06 -1.56089e-06 2.41843e-06)
(-1.19431e-05 -1.66069e-06 2.26584e-06)
(-1.69464e-05 -1.83545e-06 2.04331e-06)
(-2.10446e-05 -2.06621e-06 1.77726e-06)
(-2.38901e-05 -2.45727e-06 1.4747e-06)
(-2.53249e-05 -2.88452e-06 1.19559e-06)
(-2.50834e-05 -3.48412e-06 9.15606e-07)
(-2.33397e-05 -3.79486e-06 6.64015e-07)
(-2.06426e-05 -3.97692e-06 3.99033e-07)
(-1.72751e-05 -3.88227e-06 1.27441e-07)
(-1.35912e-05 -3.5067e-06 -2.25463e-07)
(-9.70562e-06 -2.71126e-06 -7.51497e-07)
(-5.86128e-06 -1.41883e-06 -1.52093e-06)
(-2.31467e-06 1.81321e-07 -2.28297e-06)
(-3.84913e-08 1.70697e-06 -2.35518e-06)
(-1.66015e-06 5.7467e-06 -2.43362e-06)
(-2.58547e-08 4.72205e-06 -6.38356e-06)
(4.80624e-06 3.41753e-06 -7.47996e-06)
(9.50845e-06 2.44162e-06 -7.64751e-06)
(1.40226e-05 2.13283e-06 -7.8683e-06)
(1.82001e-05 2.36682e-06 -8.3302e-06)
(2.21782e-05 3.05476e-06 -9.06515e-06)
(2.5947e-05 4.24731e-06 -1.00794e-05)
(2.9441e-05 6.03268e-06 -1.13907e-05)
(3.22074e-05 8.64951e-06 -1.29772e-05)
(3.40097e-05 1.18924e-05 -1.4795e-05)
(3.40647e-05 1.60072e-05 -1.67562e-05)
(3.22013e-05 1.95978e-05 -1.86156e-05)
(2.89022e-05 2.27918e-05 -2.02483e-05)
(2.43124e-05 2.52027e-05 -2.15908e-05)
(1.88762e-05 2.70316e-05 -2.26247e-05)
(1.2776e-05 2.8213e-05 -2.33322e-05)
(6.33251e-06 2.88083e-05 -2.37074e-05)
(-2.28552e-07 2.88093e-05 -2.37437e-05)
(-6.62304e-06 2.82163e-05 -2.3441e-05)
(-1.26265e-05 2.70388e-05 -2.28061e-05)
(-1.79194e-05 2.52167e-05 -2.18454e-05)
(-2.23256e-05 2.28208e-05 -2.05777e-05)
(-2.54023e-05 1.96524e-05 -1.90239e-05)
(-2.70191e-05 1.61146e-05 -1.7252e-05)
(-2.66906e-05 1.20797e-05 -1.53948e-05)
(-2.4596e-05 8.9879e-06 -1.37114e-05)
(-2.15076e-05 6.59591e-06 -1.23099e-05)
(-1.76142e-05 5.19248e-06 -1.12616e-05)
(-1.32917e-05 4.63749e-06 -1.0605e-05)
(-8.5378e-06 5.01857e-06 -1.03034e-05)
(-3.58127e-06 6.30386e-06 -1.00505e-05)
(1.459e-06 7.96695e-06 -8.62892e-06)
(2.6491e-06 9.0021e-06 -3.43375e-06)
(-2.89901e-06 1.42645e-05 -2.2498e-06)
(-1.74489e-06 1.51075e-05 -7.72113e-06)
(3.86865e-06 1.4985e-05 -9.45255e-06)
(9.29021e-06 1.51895e-05 -9.95919e-06)
(1.44942e-05 1.62195e-05 -1.04311e-05)
(1.93073e-05 1.81807e-05 -1.11827e-05)
(2.39328e-05 2.11242e-05 -1.23065e-05)
(2.84178e-05 2.52398e-05 -1.38358e-05)
(3.2854e-05 3.07364e-05 -1.57921e-05)
(3.66256e-05 3.82494e-05 -1.81917e-05)
(3.94435e-05 4.74324e-05 -2.09732e-05)
(3.97285e-05 5.87306e-05 -2.39977e-05)
(3.72427e-05 6.8749e-05 -2.68793e-05)
(3.31172e-05 7.76445e-05 -2.94135e-05)
(2.75472e-05 8.45373e-05 -3.14966e-05)
(2.11973e-05 8.98219e-05 -3.30956e-05)
(1.41641e-05 9.33161e-05 -3.41843e-05)
(6.81438e-06 9.51121e-05 -3.47585e-05)
(-6.605e-07 9.51754e-05 -3.48077e-05)
(-7.95811e-06 9.35065e-05 -3.43319e-05)
(-1.48885e-05 9.01433e-05 -3.33413e-05)
(-2.10828e-05 8.49961e-05 -3.18413e-05)
(-2.64507e-05 7.82597e-05 -2.98591e-05)
(-3.03225e-05 6.95452e-05 -2.74312e-05)
(-3.25207e-05 5.97685e-05 -2.46671e-05)
(-3.18984e-05 4.87681e-05 -2.17825e-05)
(-2.87082e-05 4.00192e-05 -1.91784e-05)
(-2.44993e-05 3.30329e-05 -1.70141e-05)
(-1.94481e-05 2.82622e-05 -1.53751e-05)
(-1.40821e-05 2.51636e-05 -1.4252e-05)
(-8.22938e-06 2.35903e-05 -1.3529e-05)
(-2.19572e-06 2.32614e-05 -1.2781e-05)
(3.89522e-06 2.33634e-05 -1.05129e-05)
(4.35904e-06 2.19498e-05 -3.2999e-06)
(-3.64189e-06 2.31186e-05 -1.80239e-06)
(-2.59233e-06 2.5157e-05 -7.84735e-06)
(3.86356e-06 2.59395e-05 -9.77419e-06)
(1.02183e-05 2.72575e-05 -1.03379e-05)
(1.64341e-05 2.97158e-05 -1.08635e-05)
(2.23e-05 3.34733e-05 -1.17196e-05)
(2.815e-05 3.86976e-05 -1.30343e-05)
(3.4141e-05 4.58131e-05 -1.4873e-05)
(4.06278e-05 5.53412e-05 -1.72706e-05)
(4.66323e-05 6.85949e-05 -2.02775e-05)
(5.17963e-05 8.51653e-05 -2.37981e-05)
(5.25728e-05 0.000106238 -2.77109e-05)
(4.85592e-05 0.000124352 -3.14164e-05)
(4.25278e-05 0.000140142 -3.46548e-05)
(3.47838e-05 0.000152167 -3.72975e-05)
(2.64153e-05 0.000161388 -3.92983e-05)
(1.73066e-05 0.000167484 -4.06454e-05)
(7.91911e-06 0.00017063 -4.13506e-05)
(-1.61569e-06 0.000170758 -4.14036e-05)
(-1.09484e-05 0.000167866 -4.08039e-05)
(-1.99482e-05 0.00016203 -3.95613e-05)
(-2.81464e-05 0.000153071 -3.76647e-05)
(-3.56629e-05 0.000141333 -3.51262e-05)
(-4.1391e-05 0.000125861 -3.19961e-05)
(-4.50513e-05 0.000108158 -2.84091e-05)
(-4.38285e-05 8.75737e-05 -2.46393e-05)
(-3.8171e-05 7.17201e-05 -2.13052e-05)
(-3.15905e-05 5.92631e-05 -1.85513e-05)
(-2.4256e-05 5.07515e-05 -1.64971e-05)
(-1.70598e-05 4.49404e-05 -1.50988e-05)
(-9.57747e-06 4.13843e-05 -1.4207e-05)
(-2.171e-06 3.95524e-05 -1.33301e-05)
(5.07107e-06 3.84888e-05 -1.07978e-05)
(5.37885e-06 3.54981e-05 -2.79516e-06)
(-3.99998e-06 3.19625e-05 -1.36655e-06)
(-2.63967e-06 3.49513e-05 -7.89497e-06)
(5.01017e-06 3.65766e-05 -9.97894e-06)
(1.26278e-05 3.90504e-05 -1.05628e-05)
(2.02278e-05 4.30426e-05 -1.11425e-05)
(2.76068e-05 4.87352e-05 -1.21474e-05)
(3.5327e-05 5.63802e-05 -1.37449e-05)
(4.3768e-05 6.66592e-05 -1.60509e-05)
(5.3843e-05 8.05756e-05 -1.9107e-05)
(6.40194e-05 0.000100738 -2.30178e-05)
(7.4046e-05 0.000127185 -2.76014e-05)
(7.57625e-05 0.000163312 -3.29283e-05)
(6.83989e-05 0.000192649 -3.7897e-05)
(5.87231e-05 0.000217486 -4.22583e-05)
(4.71228e-05 0.000235847 -4.58112e-05)
(3.53289e-05 0.00024996 -4.84242e-05)
(2.26863e-05 0.000259263 -5.01568e-05)
(9.82673e-06 0.000264082 -5.10547e-05)
(-3.22826e-06 0.000264282 -5.11122e-05)
(-1.60324e-05 0.000259859 -5.03283e-05)
(-2.85643e-05 0.000250951 -4.87072e-05)
(-4.01752e-05 0.000237226 -4.62034e-05)
(-5.15231e-05 0.000219271 -4.27558e-05)
(-6.08309e-05 0.000194861 -3.8501e-05)
(-6.77539e-05 0.000166079 -3.36465e-05)
(-6.54216e-05 0.00013059 -2.84593e-05)
(-5.47441e-05 0.000105184 -2.40694e-05)
(-4.3868e-05 8.60623e-05 -2.04287e-05)
(-3.27149e-05 7.34127e-05 -1.77478e-05)
(-2.27487e-05 6.46951e-05 -1.59344e-05)
(-1.29846e-05 5.90367e-05 -1.48217e-05)
(-3.70554e-06 5.56884e-05 -1.38281e-05)
(5.19474e-06 5.35415e-05 -1.10491e-05)
(5.90846e-06 4.92846e-05 -2.30258e-06)
(-4.16866e-06 4.02996e-05 -9.89952e-07)
(-2.10426e-06 4.40353e-05 -8.10932e-06)
(7.23407e-06 4.64189e-05 -1.04129e-05)
(1.65465e-05 5.0048e-05 -1.10481e-05)
(2.59576e-05 5.56507e-05 -1.17389e-05)
(3.53099e-05 6.33726e-05 -1.29994e-05)
(4.55047e-05 7.34701e-05 -1.5049e-05)
(5.73398e-05 8.68053e-05 -1.80722e-05)
(7.28838e-05 0.000105046 -2.2067e-05)
(9.01285e-05 0.000133096 -2.71889e-05)
(0.000109983 0.000172549 -3.28365e-05)
(0.000113616 0.000233706 -4.01152e-05)
(9.93131e-05 0.000278794 -4.68774e-05)
(8.33645e-05 0.000315233 -5.30423e-05)
(6.57101e-05 0.000341132 -5.81217e-05)
(4.8834e-05 0.000361183 -6.1638e-05)
(3.0852e-05 0.00037436 -6.39216e-05)
(1.27326e-05 0.000381214 -6.50907e-05)
(-5.68085e-06 0.000381498 -6.51565e-05)
(-2.37502e-05 0.000375201 -6.41173e-05)
(-4.16326e-05 0.000362569 -6.19593e-05)
(-5.83295e-05 0.000343031 -5.85637e-05)
(-7.57263e-05 0.000317638 -5.35951e-05)
(-9.12428e-05 0.000281685 -4.75373e-05)
(-0.000105012 0.000237248 -4.08867e-05)
(-0.00010049 0.000176794 -3.37359e-05)
(-7.9776e-05 0.000138847 -2.82924e-05)
(-6.17679e-05 0.000112054 -2.34615e-05)
(-4.49107e-05 9.5285e-05 -1.98844e-05)
(-3.11921e-05 8.37352e-05 -1.74241e-05)
(-1.84342e-05 7.59733e-05 -1.59482e-05)
(-6.68227e-06 7.11341e-05 -1.47544e-05)
(4.57604e-06 6.80024e-05 -1.15794e-05)
(6.23658e-06 6.27133e-05 -1.889e-06)
(-4.2455e-06 4.79155e-05 -6.2506e-07)
(-1.11431e-06 5.23117e-05 -8.51353e-06)
(1.05037e-05 5.54781e-05 -1.11361e-05)
(2.20311e-05 6.03925e-05 -1.18768e-05)
(3.37331e-05 6.78571e-05 -1.27507e-05)
(4.54893e-05 7.79017e-05 -1.43862e-05)
(5.85905e-05 9.06036e-05 -1.7063e-05)
(7.44778e-05 0.000106559 -2.10514e-05)
(9.74161e-05 0.000127974 -2.6218e-05)
(0.000125365 0.000162365 -3.26013e-05)
(0.000164911 0.000217097 -3.86193e-05)
(0.000172742 0.000321727 -4.81631e-05)
(0.000143787 0.000388357 -5.68416e-05)
(0.000117692 0.000439586 -6.56455e-05)
(9.13906e-05 0.000474824 -7.31282e-05)
(6.76919e-05 0.000502632 -7.76886e-05)
(4.22815e-05 0.000520938 -8.06182e-05)
(1.68183e-05 0.000530502 -8.20982e-05)
(-9.12568e-06 0.000530891 -8.21767e-05)
(-3.4555e-05 0.000522089 -8.08514e-05)
(-5.99021e-05 0.000504515 -7.80695e-05)
(-8.34625e-05 0.000477361 -7.36495e-05)
(-0.000109555 0.000442715 -6.62877e-05)
(-0.000135181 0.000391958 -5.75975e-05)
(-0.000163556 0.000325965 -4.90359e-05)
(-0.000154351 0.000221897 -3.95976e-05)
(-0.000113642 0.00016951 -3.38063e-05)
(-8.50441e-05 0.000136511 -2.77293e-05)
(-6.05481e-05 0.000116691 -2.30313e-05)
(-4.23367e-05 0.000102684 -1.96895e-05)
(-2.59735e-05 9.26631e-05 -1.76913e-05)
(-1.10643e-05 8.61067e-05 -1.61717e-05)
(3.38914e-06 8.18876e-05 -1.24264e-05)
(6.48415e-06 7.55993e-05 -1.48627e-06)
(-4.24899e-06 5.45292e-05 -2.2524e-07)
(3.53183e-07 5.95115e-05 -9.07815e-06)
(1.49825e-05 6.3519e-05 -1.21313e-05)
(2.9412e-05 6.98977e-05 -1.30342e-05)
(4.4048e-05 7.95562e-05 -1.41667e-05)
(5.86793e-05 9.23321e-05 -1.63011e-05)
(7.46932e-05 0.00010784 -1.97886e-05)
(9.41074e-05 0.000125536 -2.50355e-05)
(0.000123759 0.000146881 -3.15496e-05)
(0.000164674 0.00018371 -3.9685e-05)
(0.000243782 0.000249745 -4.1037e-05)
(0.000262085 0.000434631 -5.09776e-05)
(0.000204156 0.000525771 -6.20903e-05)
(0.000164411 0.000591683 -7.53766e-05)
(0.00012709 0.000636426 -8.67392e-05)
(9.45422e-05 0.000672369 -9.22851e-05)
(5.86673e-05 0.000696251 -9.58272e-05)
(2.26859e-05 0.000708814 -9.75882e-05)
(-1.40963e-05 0.00070934 -9.76817e-05)
(-5.00742e-05 0.000697806 -9.61052e-05)
(-8.59598e-05 0.000674898 -9.27381e-05)
(-0.000118478 0.000639797 -8.73608e-05)
(-0.000155759 0.000595729 -7.61356e-05)
(-0.000195126 0.000530165 -6.29814e-05)
(-0.000252639 0.000439552 -5.20403e-05)
(-0.000231988 0.000254681 -4.21113e-05)
(-0.000151232 0.0001928 -4.09931e-05)
(-0.000110228 0.000157176 -3.31844e-05)
(-7.86889e-05 0.000137349 -2.72155e-05)
(-5.63667e-05 0.000121598 -2.27215e-05)
(-3.61421e-05 0.000109023 -2.00398e-05)
(-1.72765e-05 0.000100338 -1.8064e-05)
(1.4783e-06 9.47716e-05 -1.3544e-05)
(6.63636e-06 8.75439e-05 -9.9747e-07)
(-4.18272e-06 5.98309e-05 2.30556e-07)
(2.32324e-06 6.54362e-05 -9.78889e-06)
(2.07815e-05 7.04438e-05 -1.33857e-05)
(3.89468e-05 7.87142e-05 -1.44989e-05)
(5.73699e-05 9.14462e-05 -1.59435e-05)
(7.55417e-05 0.000108463 -1.8643e-05)
(9.4303e-05 0.000128919 -2.30432e-05)
(0.000115089 0.000149278 -2.97061e-05)
(0.000148471 0.000169249 -3.86071e-05)
(0.000194643 0.000195261 -4.72674e-05)
(0.000348084 0.000213524 -5.11425e-05)
(0.000392158 0.00055388 -4.80614e-05)
(0.000273606 0.000678366 -5.85943e-05)
(0.000221051 0.000764312 -7.8422e-05)
(0.000172413 0.000824006 -9.47977e-05)
(0.000129171 0.000873229 -0.000100907)
(8.00368e-05 0.000906235 -0.00010531)
(3.03956e-05 0.000923412 -0.000107407)
(-2.05521e-05 0.000924115 -0.000107511)
(-7.02346e-05 0.00090832 -0.00010562)
(-0.000119493 0.000876642 -0.000101409)
(-0.000162905 0.000828566 -9.54873e-05)
(-0.000211882 0.00076974 -7.92538e-05)
(-0.000264325 0.000684064 -5.95969e-05)
(-0.000383205 0.000559703 -4.92959e-05)
(-0.00033483 0.000216715 -5.26853e-05)
(-0.000179081 0.000205816 -4.88169e-05)
(-0.000134476 0.000180957 -4.03751e-05)
(-9.85537e-05 0.000162473 -3.21365e-05)
(-7.40436e-05 0.000143952 -2.63607e-05)
(-4.97877e-05 0.000126594 -2.29294e-05)
(-2.58894e-05 0.000114251 -2.04361e-05)
(-1.37467e-06 0.000106502 -1.49289e-05)
(6.6918e-06 9.81451e-05 -3.97815e-07)
(-3.88248e-06 6.32633e-05 8.09442e-07)
(5.09492e-06 6.94949e-05 -1.06608e-05)
(2.84645e-05 7.53868e-05 -1.48966e-05)
(5.18409e-05 8.55356e-05 -1.62656e-05)
(7.60598e-05 0.000101568 -1.80827e-05)
(0.000100345 0.000123672 -2.14146e-05)
(0.00012339 0.000150646 -2.67273e-05)
(0.00014581 0.000175494 -3.56054e-05)
(0.000171367 0.000185417 -4.59891e-05)
(0.000140562 0.000117381 -6.7152e-05)
(0.000420192 0.00020353 -7.16217e-05)
(0.000572634 0.000802475 -2.46118e-05)
(0.000359595 0.000877212 -3.09101e-05)
(0.000305479 0.000942838 -5.31133e-05)
(0.000244475 0.00101134 -7.21428e-05)
(0.000184432 0.00106742 -7.48788e-05)
(0.000113821 0.00110779 -7.82017e-05)
(4.23207e-05 0.00112866 -7.98252e-05)
(-3.07083e-05 0.00112957 -7.99112e-05)
(-0.000102277 0.00111049 -7.84613e-05)
(-0.000173114 0.00107187 -7.52835e-05)
(-0.000233568 0.00101736 -7.27322e-05)
(-0.000295425 0.000950055 -5.38255e-05)
(-0.000350206 0.000884488 -3.18005e-05)
(-0.000567458 0.000806634 -2.61154e-05)
(-0.000407824 0.000206804 -7.38405e-05)
(-0.000123068 0.000135352 -6.81482e-05)
(-0.000157433 0.000201383 -4.75563e-05)
(-0.000128444 0.000190612 -3.8257e-05)
(-0.000101408 0.00016672 -3.05193e-05)
(-7.12774e-05 0.000142703 -2.64116e-05)
(-3.93552e-05 0.000125702 -2.33715e-05)
(-6.3353e-06 0.000115549 -1.66258e-05)
(6.21459e-06 0.000105867 4.25901e-07)
(-3.36607e-06 6.45892e-05 1.5155e-06)
(8.44943e-06 7.12943e-05 -1.17385e-05)
(3.73996e-05 7.80451e-05 -1.66645e-05)
(6.72304e-05 9.02238e-05 -1.83429e-05)
(9.92996e-05 0.000110495 -2.06052e-05)
(0.000132917 0.000141207 -2.44258e-05)
(0.000165006 0.000185635 -3.00767e-05)
(0.000189157 0.000245742 -3.63354e-05)
(0.000156828 0.0003226 -5.39442e-05)
(0.000162479 0.000369572 -8.16502e-05)
(0.000263768 0.000698808 6.64658e-05)
(0.000304068 0.000895833 2.75844e-05)
(0.000369747 0.00102727 1.49909e-05)
(0.000325011 0.00114421 1.53989e-05)
(0.00024618 0.00122715 1.12224e-05)
(0.000153496 0.00128235 7.25401e-06)
(5.63565e-05 0.00130933 5.52492e-06)
(-4.24067e-05 0.00131037 5.53038e-06)
(-0.000139634 0.00128549 7.26497e-06)
(-0.000232595 0.00123246 1.12446e-05)
(-0.000312014 0.00115185 1.54328e-05)
(-0.000358297 0.0010374 1.5099e-05)
(-0.000296258 0.00090837 2.73213e-05)
(-0.000258791 0.000711667 6.50976e-05)
(-0.000158921 0.00038244 -7.94562e-05)
(-0.000150278 0.000337057 -5.51115e-05)
(-0.000174658 0.00026014 -3.93831e-05)
(-0.00014274 0.000201362 -3.4562e-05)
(-0.00010103 0.000160163 -3.04121e-05)
(-5.71896e-05 0.000134985 -2.70285e-05)
(-1.32415e-05 0.000121345 -1.89506e-05)
(5.10692e-06 0.000110055 1.47978e-06)
(-2.58355e-06 6.33461e-05 2.28852e-06)
(1.26356e-05 6.99597e-05 -1.29033e-05)
(4.83268e-05 7.67644e-05 -1.85777e-05)
(8.70018e-05 8.9133e-05 -2.06363e-05)
(0.000132306 0.000109918 -2.35443e-05)
(0.000188167 0.000142002 -2.84455e-05)
(0.000260262 0.000190058 -3.56153e-05)
(0.000362468 0.000259558 -4.23406e-05)
(0.000488651 0.000359138 -4.68164e-05)
(0.000744474 0.000492614 -3.12288e-05)
(0.000770199 0.000142079 4.756e-05)
(0.000605071 0.00031009 5.99038e-05)
(0.000674168 0.000668051 0.000124345)
(0.000607844 0.000875877 0.000182181)
(0.0004879 0.00102478 0.000214952)
(0.000349679 0.00112399 0.000225692)
(0.000211214 0.00118544 0.000228062)
(7.53981e-05 0.00121468 0.000228463)
(-5.90386e-05 0.00121565 0.000228534)
(-0.000194793 0.0011884 0.000228275)
(-0.000333152 0.00112907 0.000226068)
(-0.000471163 0.00103225 0.000215581)
(-0.000590949 0.000886135 0.000183338)
(-0.000657121 0.000681568 0.000126099)
(-0.000586108 0.000326513 6.28343e-05)
(-0.000758318 0.000145771 5.00067e-05)
(-0.000739391 0.000496872 -3.03346e-05)
(-0.00047869 0.000368948 -4.82117e-05)
(-0.000346954 0.000271739 -4.55593e-05)
(-0.000236582 0.000204623 -4.08205e-05)
(-0.000153224 0.000160227 -3.55938e-05)
(-8.47025e-05 0.000133864 -3.13966e-05)
(-2.41353e-05 0.000119817 -2.17327e-05)
(2.68048e-06 0.000108529 2.71093e-06)
(-2.05271e-06 5.9439e-05 3.03252e-06)
(1.60986e-05 6.5488e-05 -1.39871e-05)
(5.75585e-05 7.13949e-05 -2.03965e-05)
(0.000103131 8.18478e-05 -2.28296e-05)
(0.000157466 9.87492e-05 -2.6338e-05)
(0.000225729 0.000123165 -3.22758e-05)
(0.000314628 0.000155502 -4.08514e-05)
(0.000436711 0.000193424 -4.9738e-05)
(0.00058682 0.00022656 -5.50116e-05)
(0.000811015 0.000242467 -4.62784e-05)
(0.000916173 0.000123635 -2.15085e-05)
(0.000907514 0.00030417 2.12304e-05)
(0.000891415 0.000493598 0.000135824)
(0.000763307 0.000633287 0.000209129)
(0.000602309 0.000741697 0.000246824)
(0.000425642 0.000814816 0.00026207)
(0.00025463 0.000861154 0.000266339)
(8.99616e-05 0.00088356 0.00026732)
(-7.17463e-05 0.000884358 0.000267388)
(-0.000236303 0.000863561 0.000266541)
(-0.000407112 0.000818873 0.000262438)
(-0.000583427 0.000747436 0.000247458)
(-0.0007443 0.000640679 0.000210342)
(-0.000872512 0.000502119 0.000137794)
(-0.000889235 0.000312785 2.47709e-05)
(-0.000902937 0.000127468 -1.9247e-05)
(-0.000802087 0.000250068 -4.58147e-05)
(-0.000576072 0.000236185 -5.65556e-05)
(-0.000420418 0.000204848 -5.33015e-05)
(-0.000289286 0.000169245 -4.67205e-05)
(-0.0001875 0.000140478 -4.0437e-05)
(-0.000104314 0.00012146 -3.539e-05)
(-3.16559e-05 0.000110716 -2.41937e-05)
(1.46366e-06 0.000100926 3.84027e-06)
(-1.62309e-06 5.33958e-05 3.73815e-06)
(1.90219e-05 5.86806e-05 -1.49082e-05)
(6.54054e-05 6.34946e-05 -2.19576e-05)
(0.000116574 7.17945e-05 -2.46923e-05)
(0.000177674 8.48385e-05 -2.86924e-05)
(0.000254072 0.000102912 -3.55869e-05)
(0.000352438 0.000125348 -4.58117e-05)
(0.000483142 0.000150178 -5.79874e-05)
(0.000640345 0.000170899 -6.83664e-05)
(0.000835058 0.000186947 -6.9715e-05)
(0.000969494 0.000157942 -5.26073e-05)
(0.00103991 0.000246466 3.98433e-06)
(0.00101891 0.00035873 0.000122334)
(0.00086848 0.000452239 0.000192937)
(0.000680529 0.000526701 0.000228296)
(0.000477096 0.000576562 0.00023797)
(0.000284414 0.000608733 0.00023864)
(0.000100026 0.000624365 0.000237818)
(-8.03258e-05 0.000625023 0.000237853)
(-0.000264582 0.000610706 0.000238742)
(-0.000457034 0.000579848 0.000238169)
(-0.000660098 0.000531269 0.000228687)
(-0.000848045 0.000458019 0.000193849)
(-0.000998823 0.000365396 0.000123989)
(-0.00102234 0.000253733 7.22381e-06)
(-0.000956683 0.00016342 -5.06744e-05)
(-0.000824706 0.000193879 -6.91492e-05)
(-0.000628368 0.000179401 -6.99006e-05)
(-0.000465443 0.000160465 -6.1728e-05)
(-0.00032502 0.000137895 -5.21362e-05)
(-0.0002124 0.00011879 -4.44848e-05)
(-0.000119202 0.000105511 -3.86146e-05)
(-3.72807e-05 9.7695e-05 -2.61076e-05)
(6.2959e-07 8.94282e-05 4.988e-06)
(-1.43411e-06 4.5604e-05 4.27717e-06)
(2.10264e-05 4.99368e-05 -1.56628e-05)
(7.10709e-05 5.35254e-05 -2.323e-05)
(0.000126045 5.95215e-05 -2.61949e-05)
(0.000191201 6.86764e-05 -3.05564e-05)
(0.000271628 8.0843e-05 -3.81539e-05)
(0.0003738 9.50804e-05 -4.95755e-05)
(0.000506523 0.000110157 -6.38562e-05)
(0.00066537 0.000122402 -7.70105e-05)
(0.000851043 0.000134967 -8.16934e-05)
(0.00100368 0.000136641 -6.47513e-05)
(0.00111247 0.00018969 -1.10724e-05)
(0.00109328 0.00025826 0.000104544)
(0.000930407 0.000316135 0.000168112)
(0.000728223 0.000363266 0.000197849)
(0.000509762 0.00039593 0.000202214)
(0.000303848 0.000417516 0.000199739)
(0.000106736 0.000428194 0.000197345)
(-8.58343e-05 0.000428765 0.000197349)
(-0.000282834 0.000419213 0.000199748)
(-0.000488564 0.000398713 0.000202254)
(-0.000706731 0.000367051 0.00019801)
(-0.000909077 0.000320817 0.000168735)
(-0.00107246 0.000263589 0.000105886)
(-0.00109496 0.000195534 -8.16969e-06)
(-0.000990704 0.000142126 -6.29661e-05)
(-0.000839623 0.000141476 -8.12186e-05)
(-0.000652231 0.000130069 -7.86344e-05)
(-0.000487359 0.000119301 -6.7783e-05)
(-0.00034428 0.000106197 -5.62507e-05)
(-0.000226735 9.48073e-05 -4.75868e-05)
(-0.000128067 8.65925e-05 -4.10824e-05)
(-4.02843e-05 8.15398e-05 -2.7556e-05)
(5.12167e-07 7.50387e-05 5.86896e-06)
(-1.35629e-06 3.66412e-05 4.67879e-06)
(2.23955e-05 4.00068e-05 -1.62501e-05)
(7.51124e-05 4.25533e-05 -2.42098e-05)
(0.000132727 4.67019e-05 -2.73379e-05)
(0.000200496 5.29477e-05 -3.19502e-05)
(0.00028321 6.11088e-05 -4.00339e-05)
(0.000387257 7.05151e-05 -5.2277e-05)
(0.000520639 8.06359e-05 -6.79066e-05)
(0.000680452 8.97873e-05 -8.27412e-05)
(0.000865013 0.000100976 -8.92725e-05)
(0.00102909 0.000111365 -7.23388e-05)
(0.00115635 0.00014513 -2.04223e-05)
(0.00113916 0.00018727 9.36977e-05)
(0.000970296 0.000224403 0.000153173)
(0.00075955 0.000255184 0.000179376)
(0.000531555 0.000277017 0.000180497)
(0.000316985 0.000291639 0.000176026)
(0.000111395 0.000299017 0.000172651)
(-8.94054e-05 0.000299553 0.00017264)
(-0.000294919 0.000293226 0.00017599)
(-0.00050938 0.00027959 0.000180456)
(-0.000737189 0.000258636 0.000179417)
(-0.00094827 0.0002286 0.000153644)
(-0.00111785 0.000192 9.48953e-05)
(-0.00113863 0.000150246 -1.74727e-05)
(-0.00101572 0.000116578 -7.06301e-05)
(-0.000852799 0.000106869 -8.8867e-05)
(-0.000666341 9.64859e-05 -8.44612e-05)
(-0.000500159 8.84623e-05 -7.19903e-05)
(-0.000355875 7.98982e-05 -5.92135e-05)
(-0.000235588 7.27159e-05 -4.98476e-05)
(-0.000133586 6.7558e-05 -4.28908e-05)
(-4.19559e-05 6.4294e-05 -2.86186e-05)
(6.08798e-07 5.93387e-05 6.53185e-06)
(-1.37157e-06 2.6892e-05 4.9193e-06)
(2.32127e-05 2.9268e-05 -1.66902e-05)
(7.77204e-05 3.08979e-05 -2.4923e-05)
(0.000137037 3.34969e-05 -2.81574e-05)
(0.000206411 3.7403e-05 -3.29248e-05)
(0.000290451 4.25157e-05 -4.12999e-05)
(0.000395593 4.84992e-05 -5.4018e-05)
(0.000529601 5.52514e-05 -7.03689e-05)
(0.000690791 6.22245e-05 -8.60517e-05)
(0.000876879 7.14937e-05 -9.33914e-05)
(0.00104774 8.23391e-05 -7.6656e-05)
(0.00118428 0.000103792 -2.54763e-05)
(0.00116835 0.000129757 8.86375e-05)
(0.000995907 0.000153049 0.00014657)
(0.00077995 0.000172524 0.000171264)
(0.000546068 0.00018674 0.000170951)
(0.000325893 0.000196409 0.000165604)
(0.000114683 0.000201434 0.000161798)
(-9.16469e-05 0.000201971 0.000161783)
(-0.000302831 0.000197992 0.000165554)
(-0.000522998 0.000189282 0.000170885)
(-0.000756836 0.000175887 0.000171266)
(-0.000973309 0.000157056 0.000146987)
(-0.00114665 0.000134197 8.97726e-05)
(-0.00116633 0.000108508 -2.2598e-05)
(-0.00103405 8.71538e-05 -7.50229e-05)
(-0.000864121 7.66774e-05 -9.30714e-05)
(-0.000675964 6.78881e-05 -8.78814e-05)
(-0.000508118 6.16447e-05 -7.46005e-05)
(-0.000362791 5.59425e-05 -6.1166e-05)
(-0.000240794 5.14663e-05 -5.13993e-05)
(-0.000136764 4.8361e-05 -4.4166e-05)
(-4.27379e-05 4.63762e-05 -2.93941e-05)
(8.32765e-07 4.2931e-05 6.93135e-06)
(-1.40804e-06 1.6729e-05 5.04994e-06)
(2.36524e-05 1.8135e-05 -1.69877e-05)
(7.92205e-05 1.89715e-05 -2.53875e-05)
(0.000139555 2.02788e-05 -2.86828e-05)
(0.000209916 2.22913e-05 -3.35358e-05)
(0.000294841 2.50338e-05 -4.20686e-05)
(0.000400842 2.84766e-05 -5.50383e-05)
(0.000535658 3.27308e-05 -7.17512e-05)
(0.000698225 3.78088e-05 -8.78441e-05)
(0.000886078 4.46145e-05 -9.55348e-05)
(0.00106066 5.30252e-05 -7.88626e-05)
(0.00120153 6.54166e-05 -2.77415e-05)
(0.00118617 7.94832e-05 8.689e-05)
(0.00101167 9.23206e-05 0.000144596)
(0.000792646 0.000103085 0.000168901)
(0.000555272 0.000111218 0.000168143)
(0.000331649 0.00011685 0.000162511)
(0.000116957 0.000119945 0.000158564)
(-9.28435e-05 0.000120516 0.00015855)
(-0.000307575 0.000118528 0.000162462)
(-0.000531316 0.000113888 0.000168077)
(-0.000768829 0.000106574 0.000168901)
(-0.000988591 9.639e-05 0.000145002)
(-0.0011642 8.38808e-05 8.80037e-05)
(-0.00118347 6.99054e-05 -2.49171e-05)
(-0.00104685 5.74509e-05 -7.73e-05)
(-0.000873071 4.90988e-05 -9.53028e-05)
(-0.000683018 4.24289e-05 -8.9782e-05)
(-0.000513593 3.76468e-05 -7.61151e-05)
(-0.000367182 3.38817e-05 -6.23555e-05)
(-0.000243942 3.11836e-05 -5.23796e-05)
(-0.000138606 2.94452e-05 -4.4995e-05)
(-4.31285e-05 2.83611e-05 -2.99248e-05)
(1.01452e-06 2.63374e-05 7.12e-06)
(-1.45031e-06 6.44058e-06 5.07287e-06)
(2.37698e-05 6.86946e-06 -1.715e-05)
(7.97283e-05 6.94101e-06 -2.56167e-05)
(0.000140482 7.02016e-06 -2.89333e-05)
(0.000211322 7.24322e-06 -3.38132e-05)
(0.000296813 7.75837e-06 -4.23937e-05)
(0.000403531 8.8171e-06 -5.54364e-05)
(0.000539265 1.06858e-05 -7.22451e-05)
(0.000703019 1.37917e-05 -8.84445e-05)
(0.000892204 1.79558e-05 -9.62264e-05)
(0.00106812 2.33593e-05 -7.9586e-05)
(0.00120985 2.7874e-05 -2.83977e-05)
(0.00119434 3.13657e-05 8.66487e-05)
(0.0010189 3.46739e-05 0.000144625)
(0.000798551 3.73781e-05 0.000169054)
(0.000559732 3.98057e-05 0.000168338)
(0.000334589 4.16485e-05 0.000162716)
(0.000118343 4.29342e-05 0.000158769)
(-9.30592e-05 4.35646e-05 0.000158755)
(-0.000309428 4.3499e-05 0.000162666)
(-0.000534852 4.27355e-05 0.00016827)
(-0.000774047 4.11777e-05 0.000169049)
(-0.000995407 3.90254e-05 0.000145018)
(-0.00117224 3.59456e-05 8.77345e-05)
(-0.00119188 3.23181e-05 -2.56395e-05)
(-0.00105443 2.74767e-05 -7.81093e-05)
(-0.000879258 2.18065e-05 -9.60989e-05)
(-0.000687801 1.7418e-05 -9.04994e-05)
(-0.000517086 1.41761e-05 -7.67347e-05)
(-0.00036963 1.22198e-05 -6.28906e-05)
(-0.000245512 1.11197e-05 -5.28568e-05)
(-0.000139436 1.0598e-05 -4.54255e-05)
(-4.32807e-05 1.03357e-05 -3.0237e-05)
(1.11917e-06 9.73792e-06 7.10954e-06)
(-1.49799e-06 -3.66839e-06 4.9905e-06)
(2.35645e-05 -4.22984e-06 -1.71791e-05)
(7.92418e-05 -4.95688e-06 -2.56134e-05)
(0.00013981 -6.17501e-06 -2.89132e-05)
(0.000210612 -7.86341e-06 -3.37648e-05)
(0.000296336 -9.76487e-06 -4.2288e-05)
(0.000403616 -1.13363e-05 -5.52343e-05)
(0.000540378 -1.20891e-05 -7.1889e-05)
(0.000705166 -1.0982e-05 -8.79049e-05)
(0.000895349 -9.14124e-06 -9.55266e-05)
(0.00107046 -5.65501e-06 -7.89144e-05)
(0.00120962 -8.79795e-06 -2.76234e-05)
(0.00119307 -1.65998e-05 8.76497e-05)
(0.0010177 -2.34148e-05 0.000146285)
(0.000797746 -2.92875e-05 0.00017126)
(0.00055951 -3.28355e-05 0.000171016)
(0.000334751 -3.49348e-05 0.000165656)
(0.000118863 -3.549e-05 0.000161841)
(-9.2274e-05 -3.47478e-05 0.00016183)
(-0.000308383 -3.27536e-05 0.000165616)
(-0.00053361 -2.93897e-05 0.000170956)
(-0.000772512 -2.48318e-05 0.000171254)
(-0.000993837 -1.83833e-05 0.000146647)
(-0.00117099 -1.14306e-05 8.86687e-05)
(-0.00119199 -4.07324e-06 -2.49877e-05)
(-0.00105719 -1.64457e-06 -7.75675e-05)
(-0.000882795 -5.7374e-06 -9.55382e-05)
(-0.000690305 -8.1616e-06 -9.0093e-05)
(-0.000518543 -9.84137e-06 -7.65054e-05)
(-0.000370099 -9.75828e-06 -6.28039e-05)
(-0.000245487 -9.01846e-06 -5.28509e-05)
(-0.000139246 -8.14433e-06 -4.54691e-05)
(-4.31875e-05 -7.48889e-06 -3.03373e-05)
(1.15108e-06 -6.65017e-06 6.90298e-06)
(-1.58405e-06 -1.332e-05 4.75899e-06)
(2.29647e-05 -1.48966e-05 -1.70773e-05)
(7.7644e-05 -1.65427e-05 -2.53717e-05)
(0.000137333 -1.93107e-05 -2.86124e-05)
(0.000207444 -2.33606e-05 -3.33727e-05)
(0.000292898 -2.83922e-05 -4.17174e-05)
(0.000400422 -3.35716e-05 -5.43639e-05)
(0.000538333 -3.79931e-05 -7.05354e-05)
(0.000704276 -3.93724e-05 -8.59696e-05)
(0.000896043 -3.92082e-05 -9.30333e-05)
(0.00106812 -3.41056e-05 -7.63569e-05)
(0.00119982 -4.57495e-05 -2.45713e-05)
(0.00118081 -6.82965e-05 9.12072e-05)
(0.00100683 -8.828e-05 0.000151578)
(0.000789333 -0.000105228 0.000178072)
(0.000554093 -0.000116174 0.000179194)
(0.000331895 -0.000123018 0.000174627)
(0.000118509 -0.000125709 0.000171181)
(-9.03173e-05 -0.000124781 0.000171152)
(-0.000304045 -0.000120277 0.000174528)
(-0.000526948 -0.000111833 0.000179034)
(-0.000763242 -9.95839e-05 0.000177923)
(-0.000982597 -8.19386e-05 0.000151752)
(-0.00115894 -6.18633e-05 9.20119e-05)
(-0.00118287 -4.02188e-05 -2.21818e-05)
(-0.0010556 -2.99143e-05 -7.52266e-05)
(-0.000884176 -3.59609e-05 -9.32725e-05)
(-0.000690128 -3.70446e-05 -8.83589e-05)
(-0.000517305 -3.66578e-05 -7.53106e-05)
(-0.000367902 -3.34762e-05 -6.20344e-05)
(-0.000243334 -2.9915e-05 -5.23258e-05)
(-0.000137696 -2.69515e-05 -4.5102e-05)
(-4.26871e-05 -2.49999e-05 -3.02144e-05)
(1.15215e-06 -2.2622e-05 6.48863e-06)
(-1.7621e-06 -2.21399e-05 4.37173e-06)
(2.1821e-05 -2.46972e-05 -1.68402e-05)
(7.46258e-05 -2.73599e-05 -2.48815e-05)
(0.000132483 -3.19256e-05 -2.80125e-05)
(0.000200846 -3.8838e-05 -3.25964e-05)
(0.000284958 -4.78955e-05 -4.05869e-05)
(0.000391774 -5.80898e-05 -5.26183e-05)
(0.000530619 -6.79474e-05 -6.77349e-05)
(0.000698243 -7.31347e-05 -8.18344e-05)
(0.000894786 -7.46426e-05 -8.7381e-05)
(0.00106125 -5.9271e-05 -7.08876e-05)
(0.00117663 -8.16338e-05 -1.81916e-05)
(0.00115258 -0.000128089 9.90117e-05)
(0.000981956 -0.000167333 0.000163104)
(0.000770178 -0.000199786 0.000192773)
(0.000541651 -0.000220805 0.000196834)
(0.000325079 -0.000233974 0.000194015)
(0.000117034 -0.000239461 0.000191394)
(-8.68157e-05 -0.000238241 0.000191319)
(-0.000295334 -0.000230342 0.000193775)
(-0.000512869 -0.00021499 0.000196429)
(-0.00074293 -0.000192083 0.00019228)
(-0.000957201 -0.000158595 0.000162851)
(-0.00113107 -0.00011915 9.93644e-05)
(-0.00116085 -7.43325e-05 -1.62501e-05)
(-0.00104988 -5.44528e-05 -7.01203e-05)
(-0.000883839 -7.10462e-05 -8.8011e-05)
(-0.000685096 -7.07602e-05 -8.45446e-05)
(-0.000510788 -6.6966e-05 -7.27353e-05)
(-0.000360808 -5.8915e-05 -6.03931e-05)
(-0.000237478 -5.1135e-05 -5.11844e-05)
(-0.000133813 -4.52054e-05 -4.42655e-05)
(-4.12981e-05 -4.15316e-05 -2.98433e-05)
(1.29121e-06 -3.76059e-05 5.81424e-06)
(-2.04977e-06 -2.97491e-05 3.82491e-06)
(2.00732e-05 -3.32608e-05 -1.64565e-05)