/*--------------------------------*- C++ -*----------------------------------*\
| =========                 |                                                 |
| \\      /  F ield         | OpenFOAM: The Open Source CFD Toolbox           |
|  \\    /   O peration     | Version:  2112                                  |
|   \\  /    A nd           | Website:  www.openfoam.com                      |
|    \\/     M anipulation  |                                                 |
\*---------------------------------------------------------------------------*/
FoamFile
{
    version     2.0;
    format      ascii;
    arch        "LSB;label=32;scalar=64";
    class       volScalarField;
    location    "3.8";
    object      epsilon;
}
// * * * * * * * * * * * * * * * * * * * * * * * * * * * * * * * * * * * * * //

dimensions      [0 2 -3 0 0 0 0];

internalField   nonuniform List<scalar> 
64906
(
0.000160101
0.00018937
0.000208378
0.000217949
0.000222369
0.000224284
0.00022506
0.000225347
0.000225434
0.000225438
0.000225413
0.000225384
0.000225362
0.000225344
0.000225329
0.000225315
0.000225302
0.000225292
0.000225288
0.000225294
0.000225305
0.000225317
0.000225331
0.000225346
0.000225357
0.000225354
0.000225284
0.000225018
0.000224262
0.000222361
0.000217951
0.000208387
0.000189386
0.000160113
0.000189392
0.000352398
0.000453154
0.000508356
0.000537212
0.000551401
0.00055784
0.000560435
0.000561238
0.000561263
0.000561004
0.000560698
0.000560454
0.000560299
0.000560215
0.000560168
0.00056014
0.000560126
0.000560126
0.000560141
0.000560168
0.000560213
0.000560284
0.000560395
0.000560508
0.000560442
0.000559722
0.000557302
0.000551066
0.000537054
0.000508323
0.00045319
0.000352451
0.000189426
0.000208435
0.000453206
0.000611732
0.000703272
0.000753792
0.000779969
0.000792358
0.000797365
0.000798644
0.000798195
0.000797125
0.000796044
0.000795233
0.00079475
0.000794504
0.000794377
0.000794305
0.000794272
0.000794275
0.000794313
0.000794388
0.00079451
0.000794723
0.000795098
0.00079559
0.000795816
0.000794764
0.000790323
0.000778621
0.000753061
0.000702987
0.000611703
0.000453285
0.000208495
0.000218032
0.000508469
0.00070334
0.000820009
0.000886647
0.000922151
0.000939041
0.000945303
0.000945797
0.00094348
0.000940249
0.000937312
0.000935197
0.000933974
0.000933362
0.000933023
0.000932815
0.000932715
0.00093272
0.000932829
0.00093304
0.000933369
0.000933925
0.000934967
0.000936566
0.000938165
0.00093818
0.000933368
0.00091828
0.000884411
0.000818974
0.000703025
0.000508496
0.00021811
0.000222468
0.00053737
0.000753931
0.000886739
0.000964134
0.00100566
0.00102462
0.00102981
0.00102692
0.00101992
0.00101196
0.00100529
0.00100074
0.000998255
0.000997079
0.000996366
0.000995885
0.000995644
0.000995651
0.000995903
0.000996389
0.000997088
0.00099819
0.00100043
0.00100431
0.00100925
0.00101312
0.00101124
0.000996434
0.00095867
0.000884037
0.000752919
0.000537207
0.000222551
0.000224392
0.000551589
0.00078019
0.000922395
0.00100589
0.00104993
0.00106774
0.00106816
0.00105737
0.00104072
0.00102367
0.00101073
0.00100253
0.000998531
0.000996873
0.000995661
0.000994736
0.00099426
0.000994268
0.000994759
0.000995691
0.00099689
0.000998469
0.0010022
0.00100964
0.0010206
0.00103298
0.00103957
0.00103056
0.000994354
0.000916541
0.000777816
0.000551009
0.000224457
0.000225171
0.000558061
0.000792715
0.000939603
0.00102544
0.0010686
0.00108136
0.00107173
0.00104585
0.0010111
0.0009781
0.000957098
0.000945497
0.000940993
0.000939788
0.000938143
0.000936657
0.000935887
0.000935896
0.000936683
0.000938182
0.000939819
0.000940955
0.000945209
0.000956051
0.000975004
0.00100305
0.00102703
0.00103184
0.00100375
0.000928531
0.000788068
0.000556749
0.000225188
0.000225457
0.000560718
0.000797982
0.000946533
0.00103198
0.00107126
0.00107476
0.00104823
0.000996202
0.000928525
0.00086774
0.000843413
0.000834652
0.000833931
0.000835614
0.000834076
0.000832237
0.000831299
0.000831309
0.000832267
0.000834122
0.000835664
0.000833936
0.000834464
0.00084258
0.000864984
0.000920788
0.000977324
0.00100751
0.000995225
0.000927935
0.000790078
0.000558331
0.000225391
0.000225546
0.000561639
0.000799744
0.000948287
0.00103171
0.00106513
0.00105589
0.00100497
0.000910737
0.000780853
0.000664147
0.000667298
0.00068386
0.000696607
0.000704566
0.00070463
0.000703465
0.000702836
0.000702846
0.000703496
0.00070468
0.000704633
0.000696661
0.000683816
0.000666845
0.000662203
0.000774121
0.00089256
0.000964403
0.000975809
0.000920543
0.000787954
0.000557967
0.000225364
0.000225559
0.000561867
0.000800085
0.00094804
0.00102916
0.00105667
0.00103416
0.00095476
0.000799904
0.000550718
0.00031288
0.000433565
0.000523141
0.000561373
0.000576477
0.000580239
0.000581008
0.000581115
0.000581125
0.000581035
0.000580285
0.000576547
0.000561463
0.000523238
0.000433596
0.000312345
0.000545921
0.000782947
0.00091475
0.000954122
0.000911708
0.000784752
0.000557024
0.000225254
0.000225548
0.000561902
0.000800128
0.000947744
0.00102763
0.00105192
0.00102175
0.000923196
0.000714394
0.000328168
0.000263477
0.000413287
0.000468866
0.000486351
0.0004923
0.000494057
0.000494472
0.000494477
0.000494073
0.00049233
0.000486399
0.000468945
0.000413407
0.000263541
0.000326151
0.000698704
0.000883619
0.000941792
0.000906816
0.000782939
0.000556448
0.00022517
0.000225531
0.000561949
0.000800363
0.000948305
0.00102879
0.00105449
0.0010284
0.000943182
0.000780839
0.00052556
0.000295792
0.000374288
0.000445171
0.000474082
0.000482211
0.000487763
0.000489451
0.000489743
0.000489742
0.000489448
0.000487759
0.000482202
0.000474073
0.000445147
0.000374122
0.000295144
0.000520683
0.000763923
0.000903159
0.000948171
0.000909099
0.000783759
0.000556658
0.000225163
0.00022552
0.000562052
0.000800847
0.000949633
0.00103195
0.00106169
0.00104467
0.00098028
0.000865899
0.000709813
0.00056417
0.000520163
0.000499982
0.000493253
0.000490769
0.000491215
0.000491365
0.000491302
0.000491297
0.000491349
0.000491187
0.000490719
0.000493162
0.00049978
0.000519577
0.000562211
0.000703264
0.000847933
0.000939639
0.000963991
0.000915876
0.000786467
0.000557486
0.000225224
0.000225512
0.000562177
0.000801427
0.000951221
0.00103567
0.00106976
0.00106132
0.00101313
0.000927168
0.000812435
0.000693944
0.000603992
0.000540075
0.000511111
0.000500409
0.000497084
0.000496
0.000495633
0.000495625
0.000495974
0.000497039
0.000500334
0.000510976
0.000539793
0.000603234
0.000691454
0.000805101
0.000908479
0.000971889
0.000980111
0.000923436
0.000789651
0.000558491
0.000225292
0.0002255
0.000562286
0.000801945
0.000952622
0.00103886
0.00107635
0.00107392
0.00103552
0.000963495
0.000863946
0.000751245
0.000645111
0.000562637
0.000522584
0.000507069
0.000501729
0.000499948
0.000499378
0.000499366
0.000499913
0.000501671
0.00050698
0.000522431
0.000562326
0.000644282
0.000748535
0.000856226
0.000944343
0.000993793
0.000992225
0.000929522
0.00079232
0.000559344
0.000225337
0.000225484
0.000562359
0.000802323
0.000953635
0.0010411
0.00108079
0.00108194
0.00104868
0.000982876
0.000888606
0.000776485
0.000663819
0.000573557
0.000528535
0.000510679
0.000504378
0.000502239
0.00050153
0.000501512
0.000502193
0.000504311
0.000510581
0.000528373
0.000573233
0.000662926
0.000773672
0.000880681
0.000963432
0.00100661
0.000999855
0.000933557
0.000794142
0.000559919
0.000225352
0.000225465
0.000562396
0.000802556
0.000954253
0.00104243
0.00108334
0.00108633
0.0010555
0.00099223
0.000899651
0.000787145
0.000671779
0.00057824
0.000531156
0.000512294
0.000505571
0.000503251
0.000502439
0.000502414
0.000503195
0.000505497
0.000512191
0.000530989
0.000577908
0.000670812
0.00078428
0.000891619
0.00097262
0.0010132
0.001004
0.000935834
0.000795191
0.000560239
0.000225344
0.000225446
0.000562404
0.000802667
0.000954547
0.00104305
0.00108449
0.00108824
0.00105833
0.000995951
0.000903834
0.000791024
0.000674645
0.000579924
0.000532102
0.00051287
0.000505983
0.000503575
0.000502687
0.000502654
0.000503511
0.000505903
0.000512763
0.000531932
0.000579588
0.000673666
0.000788139
0.000895758
0.000976267
0.00101594
0.00100578
0.000936843
0.000795663
0.000560372
0.000225323
0.00022543
0.000562396
0.000802678
0.000954572
0.00104309
0.00108454
0.00108832
0.00105843
0.000996068
0.000903966
0.000791162
0.000674772
0.000580012
0.000532154
0.000512891
0.000505978
0.000503541
0.000502609
0.000502569
0.000503471
0.000505893
0.00051278
0.000531982
0.000579677
0.000673798
0.000788283
0.000895898
0.000976391
0.00101604
0.00100586
0.000936895
0.00079569
0.000560367
0.000225298
0.000225427
0.000562376
0.000802589
0.000954327
0.00104255
0.00108351
0.00108656
0.00105579
0.000992587
0.000900059
0.000787577
0.000672183
0.000578519
0.00053132
0.000512364
0.000505567
0.000503162
0.000502234
0.000502191
0.000503088
0.000505479
0.000512253
0.000531151
0.000578191
0.000671231
0.000784736
0.000892054
0.000972999
0.00101351
0.00100423
0.000935989
0.000795275
0.000560233
0.000225285
0.000225438
0.000562339
0.000802378
0.000953753
0.00104129
0.00108106
0.00108231
0.00104917
0.000983492
0.000889332
0.000777274
0.00066456
0.000574069
0.000528844
0.000510825
0.000504397
0.000502127
0.00050127
0.000501231
0.000502053
0.00050431
0.000510717
0.000528684
0.000573762
0.000663661
0.000774516
0.000881462
0.00096409
0.00100712
0.00100023
0.000933812
0.000794282
0.000559925
0.000225283
0.000225452
0.000562271
0.000802014
0.000952771
0.00103909
0.0010767
0.00107442
0.0010362
0.000964392
0.000865059
0.000752513
0.000646177
0.000563439
0.000523062
0.000507304
0.00050178
0.000499834
0.000499123
0.000499093
0.000499767
0.000501697
0.000507204
0.000522921
0.000563173
0.000645416
0.000749918
0.000857437
0.000945299
0.000994498
0.000992724
0.000929855
0.000792506
0.000559368
0.000225265
0.000225462
0.000562159
0.000801486
0.000951354
0.00103589
0.00107011
0.00106186
0.00101393
0.000928332
0.000814026
0.000695852
0.000605593
0.000541129
0.000511632
0.000500579
0.000497003
0.000495741
0.000495262
0.00049524
0.000495685
0.000496928
0.000500485
0.000511507
0.000540921
0.000604997
0.000693568
0.000806848
0.000909694
0.000972678
0.000980623
0.000923771
0.000789842
0.000558524
0.000225218
0.00022547
0.000562002
0.000800818
0.000949615
0.00103197
0.0010618
0.00104498
0.00098093
0.000867124
0.000711794
0.000566769
0.000522302
0.000500673
0.000493012
0.000489997
0.000490092
0.000490053
0.0004899
0.000489882
0.000490001
0.000490003
0.00048986
0.000492825
0.000500467
0.000521973
0.000565126
0.000705439
0.000849066
0.000940098
0.000964177
0.000915986
0.000786543
0.000557483
0.000225145
0.000225471
0.000561779
0.000800033
0.000947789
0.00102813
0.00105378
0.0010278
0.000942961
0.000781479
0.000527534
0.000296937
0.000374763
0.000442635
0.000469792
0.000476847
0.000481835
0.000483306
0.000483514
0.00048349
0.000483219
0.000481635
0.000476433
0.000469117
0.000441888
0.000374541
0.000296316
0.000522764
0.000763901
0.000902201
0.000947194
0.000908442
0.00078342
0.0005565
0.000225071
0.000225455
0.00056137
0.000798952
0.000945881
0.00102516
0.001049
0.00101852
0.0009199
0.000711743
0.000327339
0.000258173
0.000399139
0.000449472
0.000463646
0.000468392
0.000469797
0.000470094
0.000470027
0.00046954
0.000467733
0.000462158
0.000446681
0.000395245
0.000255829
0.000324073
0.000693317
0.000878122
0.000937646
0.000904155
0.000781495
0.000555851
0.000225041
0.000225369
0.000560364
0.000796791
0.00094294
0.0010225
0.00104873
0.00102512
0.000944648
0.000788983
0.000540459
0.000305654
0.000404018
0.00047658
0.000499798
0.000504943
0.000506178
0.000506562
0.000506622
0.000506489
0.000505997
0.000504556
0.000500848
0.000491065
0.000462043
0.000389573
0.000298983
0.000526337
0.000763696
0.000899565
0.000943408
0.000904758
0.000780789
0.000555346
0.00022501
0.000225095
0.000557748
0.000791558
0.000936019
0.00101602
0.00104662
0.00103468
0.000980279
0.000880663
0.000742239
0.000611693
0.000585918
0.000569965
0.00054946
0.000537541
0.000532766
0.000531205
0.000530721
0.000530513
0.000530269
0.000529851
0.000529497
0.000530319
0.000533928
0.000545386
0.0005762
0.00070903
0.000844982
0.000930769
0.000952549
0.00090502
0.000778613
0.000553776
0.000224845
0.000224337
0.000551397
0.000779375
0.000919649
0.000998454
0.00103252
0.0010312
0.000998387
0.000935949
0.000850198
0.000759784
0.000690755
0.000627207
0.000572417
0.000545955
0.000536012
0.000532774
0.000531818
0.000531561
0.000531577
0.000532092
0.000534471
0.000542962
0.000567586
0.00062362
0.00069999
0.000800879
0.000891846
0.000946356
0.000951072
0.000896662
0.00076996
0.000548629
0.000224195
0.000222436
0.000537326
0.000753564
0.000885132
0.000959358
0.000993998
0.000999669
0.000981691
0.000942418
0.000884554
0.000814174
0.000739496
0.000662963
0.000597186
0.000565097
0.000552757
0.000548628
0.000547397
0.00054711
0.000547277
0.000548314
0.000552107
0.000564017
0.000596046
0.000663731
0.000746648
0.000830485
0.000897112
0.000932174
0.000926156
0.00086948
0.000747418
0.000535654
0.000222386
0.00021802
0.000508558
0.000703373
0.000819444
0.000884309
0.00091572
0.000924401
0.000915874
0.000892195
0.000854053
0.000802881
0.000742228
0.000678204
0.000623233
0.000593816
0.000581596
0.000577204
0.000575825
0.00057553
0.000575773
0.000577084
0.000581368
0.000593494
0.000623014
0.000679141
0.000745626
0.000808123
0.000854192
0.000874921
0.000863238
0.000809982
0.000699921
0.000507751
0.000218035
0.000208444
0.000453385
0.000612021
0.000703417
0.000753204
0.000777431
0.000785609
0.00078258
0.000769991
0.000747857
0.000716176
0.00067665
0.000634229
0.000597803
0.000576703
0.000567149
0.00056354
0.000562375
0.000562117
0.000562354
0.00056349
0.00056706
0.000576596
0.000597823
0.00063472
0.00067786
0.000717119
0.00074454
0.000754593
0.000742044
0.000698784
0.000610559
0.000453166
0.000208505
0.000189426
0.000352574
0.000453493
0.000508787
0.000537525
0.000551138
0.000556099
0.000555608
0.000550728
0.000541322
0.000527005
0.000508345
0.000487846
0.000469946
0.000458996
0.000453746
0.000451657
0.000450947
0.000450788
0.000450952
0.000451662
0.000453748
0.000459002
0.000470005
0.000488046
0.000508696
0.00052693
0.000538942
0.000542142
0.000533492
0.000507367
0.000453217
0.000352645
0.000189494
0.000160135
0.000189471
0.000208572
0.000218229
0.000222722
0.000224679
0.000225423
0.000225523
0.000225135
0.000224201
0.000222702
0.000220579
0.000218062
0.00021573
0.000214249
0.000213502
0.000213166
0.00021301
0.000212956
0.000213017
0.000213173
0.000213506
0.000214247
0.000215724
0.000218058
0.000220579
0.000222653
0.000223933
0.000224097
0.000222618
0.000218321
0.000208704
0.000189568
0.000160184
0.000213865
0.00031535
0.0003839
0.000421758
0.000441225
0.000450598
0.000454765
0.000456412
0.000456907
0.000456909
0.000456728
0.000456513
0.000456332
0.000456204
0.000456122
0.000456067
0.00045603
0.000456011
0.000456009
0.000456025
0.000456059
0.00045611
0.000456183
0.000456282
0.000456381
0.000456364
0.000455927
0.000454391
0.000450349
0.000441084
0.000421694
0.000383882
0.000315355
0.000213877
0.000315356
0.000393436
0.000470346
0.000517276
0.000542932
0.000555849
0.000561797
0.000564205
0.00056493
0.000564913
0.000564621
0.000564283
0.000564008
0.000563823
0.00056371
0.000563643
0.000563602
0.000563582
0.000563582
0.000563602
0.000563643
0.000563707
0.000563806
0.000563947
0.000564091
0.000564066
0.000563421
0.000561184
0.000555436
0.000542698
0.000517177
0.000470333
0.000393475
0.000315364
0.000383942
0.000470368
0.000564423
0.000624998
0.0006598
0.00067813
0.000686859
0.000690377
0.000691243
0.000690873
0.000690056
0.000689226
0.000688586
0.000688174
0.000687936
0.000687799
0.000687717
0.000687678
0.000687679
0.000687719
0.000687801
0.000687932
0.000688143
0.000688473
0.000688879
0.000689089
0.00068838
0.000685262
0.000677028
0.000659152
0.000624692
0.000564338
0.000470406
0.000383951
0.000421841
0.000517328
0.000625032
0.00069653
0.000738866
0.000761716
0.000772624
0.000776654
0.000776946
0.000775428
0.000773333
0.000771422
0.000770032
0.000769183
0.000768716
0.000768449
0.000768287
0.000768208
0.000768209
0.000768291
0.000768452
0.000768709
0.000769135
0.00076986
0.000770907
0.000771934
0.000771921
0.000768788
0.000759027
0.000737239
0.000695706
0.000624721
0.000517295
0.000421819
0.000441344
0.000543013
0.000659875
0.00073892
0.00078651
0.000812321
0.000824146
0.000827396
0.00082565
0.000821425
0.000816665
0.000812696
0.00081
0.00080846
0.000807661
0.000807204
0.000806911
0.000806761
0.000806763
0.000806916
0.000807208
0.000807652
0.0008084
0.000809782
0.000812043
0.000814906
0.000817078
0.000815717
0.000806374
0.000782861
0.000736996
0.000659049
0.000542778
0.000441212
0.000450747
0.00055596
0.000678262
0.00076187
0.000812465
0.000839423
0.000850394
0.000850791
0.000844494
0.000834857
0.000825151
0.000817786
0.000813263
0.000810926
0.000809808
0.000809173
0.000808717
0.000808467
0.00080847
0.000808724
0.000809181
0.000809802
0.000810864
0.000813023
0.000817051
0.000823158
0.000829933
0.000833322
0.000827405
0.000805076
0.000757904
0.000676455
0.000555311
0.000450372
0.000454945
0.000561948
0.000687094
0.000772991
0.000824661
0.000850917
0.000858858
0.000853459
0.000838693
0.000819246
0.000801195
0.000789073
0.000782978
0.000780405
0.000779331
0.00077879
0.000778245
0.000777899
0.000777902
0.000778254
0.000778802
0.000779333
0.000780354
0.000782749
0.000788331
0.000799111
0.00081402
0.000826791
0.000828629
0.000811074
0.00076568
0.00068367
0.000560595
0.00045414
0.000456637
0.000564429
0.000690811
0.00077746
0.000828737
0.000852643
0.000855234
0.000840364
0.000811539
0.000775491
0.000744746
0.000726804
0.000722025
0.000721491
0.000721376
0.000721895
0.00072166
0.000721336
0.00072134
0.000721671
0.000721912
0.000721389
0.000721466
0.000721846
0.000726134
0.000742702
0.000770179
0.000799282
0.000814748
0.000806083
0.000765371
0.000685097
0.000562066
0.000455197
0.000457206
0.000565289
0.000692036
0.000778565
0.00082858
0.00084907
0.000844541
0.000816724
0.000767287
0.000705686
0.000663335
0.000631938
0.000637219
0.000644183
0.000646056
0.000650169
0.000651334
0.000651373
0.000651378
0.000651348
0.000650192
0.000646084
0.000644197
0.00063713
0.000631437
0.000661353
0.000700339
0.000754833
0.000790671
0.000794652
0.000760743
0.000683619
0.000561728
0.000455005
0.000457327
0.00056549
0.000692242
0.000778362
0.000826993
0.000844146
0.000832621
0.000791408
0.000719275
0.0006342
0.000731779
0.000517872
0.000544655
0.000566687
0.000570117
0.00058157
0.000585338
0.000586045
0.00058605
0.000585355
0.000581599
0.000570156
0.000566741
0.000544687
0.000517602
0.000728458
0.000628327
0.000706465
0.000765
0.000782287
0.000755256
0.000681378
0.000560845
0.000454425
0.000457316
0.000565504
0.000692224
0.000778102
0.000825993
0.000841387
0.000826226
0.0007787
0.000704631
0.00079783
0.000524198
0.000465784
0.000495637
0.000511989
0.000514438
0.000514721
0.000514753
0.000514755
0.00051473
0.000514454
0.00051202
0.000495689
0.000465862
0.000524235
0.000785977
0.000691047
0.000751986
0.000775628
0.000752199
0.000680053
0.00056027
0.000454028
0.000457302
0.000565528
0.000692332
0.000778366
0.000826545
0.000842558
0.000828788
0.000783687
0.0007051
0.00060755
0.000650468
0.000466761
0.000511561
0.000546397
0.000578523
0.000560255
0.000553454
0.000552014
0.00055201
0.000553441
0.000560232
0.00057851
0.000546374
0.000511492
0.000466386
0.000647079
0.000601621
0.000692239
0.000757111
0.000778161
0.000753256
0.000680451
0.000560394
0.000454078
0.000457318
0.00056561
0.00069262
0.00077913
0.000828347
0.000846564
0.000837363
0.000801279
0.000738379
0.000655643
0.000582321
0.000527889
0.000518647
0.000517416
0.000521872
0.000516461
0.000513935
0.000513243
0.00051324
0.000513927
0.000516447
0.000521853
0.000517357
0.000518472
0.000527292
0.00058031
0.00065027
0.000725757
0.000774821
0.000786761
0.000757217
0.000682169
0.000561093
0.000454487
0.000457349
0.000565723
0.000692986
0.000780082
0.000830546
0.000851275
0.000846867
0.000819346
0.000770146
0.000704172
0.000634549
0.000576631
0.000539981
0.000517689
0.000509252
0.000505305
0.000503825
0.00050338
0.000503376
0.000503815
0.000505285
0.000509213
0.000517596
0.000539742
0.000575942
0.000632503
0.000698764
0.000757513
0.000792872
0.000796222
0.000761851
0.000684276
0.000561981
0.000455005
0.000457375
0.000565829
0.000693322
0.000780937
0.000832464
0.000855216
0.000854375
0.000832593
0.000791451
0.000734142
0.000668235
0.000605331
0.000557075
0.000525008
0.000511185
0.000506206
0.000504604
0.000504153
0.000504149
0.000504592
0.000506183
0.000511137
0.0005249
0.000556809
0.000604591
0.000666111
0.00072864
0.000778725
0.000806025
0.000803628
0.000765679
0.00068608
0.000562755
0.000455442
0.000457386
0.000565906
0.000693569
0.000781558
0.000833821
0.000857903
0.000859249
0.000840674
0.000803532
0.000749936
0.000685299
0.000619693
0.000566433
0.000530062
0.000513911
0.000508154
0.000506349
0.000505854
0.000505849
0.000506336
0.000508129
0.000513859
0.000529948
0.000566157
0.000618923
0.000683121
0.000744355
0.000790709
0.000813999
0.000808385
0.000768246
0.000687324
0.000563291
0.000455727
0.000457383
0.000565951
0.000693721
0.000781935
0.000834627
0.00085945
0.000861945
0.000844929
0.000809538
0.000757341
0.000692951
0.000626032
0.000570646
0.000532484
0.000515364
0.000509233
0.000507313
0.000506786
0.000506781
0.000507299
0.000509207
0.000515311
0.000532367
0.000570363
0.000625238
0.000690742
0.000751708
0.000796646
0.000818169
0.000810989
0.000769698
0.000688042
0.000563599
0.000455874
0.000457371
0.000565971
0.000693792
0.00078211
0.000834995
0.000860139
0.00086311
0.000846703
0.000811945
0.000760188
0.000695792
0.000628347
0.000572181
0.00053338
0.000515911
0.000509638
0.000507669
0.000507124
0.000507118
0.000507654
0.000509611
0.000515857
0.000533261
0.000571895
0.000627542
0.000693569
0.000754531
0.000799018
0.0008199
0.000812103
0.000770334
0.00068836
0.000563733
0.000455924
0.000457357
0.000565969
0.000693795
0.000782118
0.000835009
0.00086016
0.00086314
0.000846744
0.000811996
0.000760249
0.00069586
0.000628415
0.000572236
0.000533416
0.00051593
0.000509647
0.000507671
0.000507119
0.000507111
0.000507654
0.000509619
0.000515876
0.000533298
0.000571951
0.000627611
0.00069364
0.000754595
0.00079907
0.000819939
0.000812131
0.000770352
0.000688369
0.000563735
0.000455907
0.000457348
0.000565949
0.000693731
0.000781958
0.000834668
0.000859513
0.000862035
0.00084505
0.000809695
0.000757531
0.000693165
0.000626249
0.000570823
0.000532603
0.000515429
0.000509266
0.000507326
0.000506782
0.000506774
0.00050731
0.000509239
0.000515376
0.000532489
0.000570546
0.00062546
0.000690967
0.000751908
0.000796807
0.00081829
0.000811073
0.000769751
0.00068807
0.000563605
0.000455831
0.00045734
0.000565904
0.000693585
0.000781595
0.000833886
0.000858004
0.000859397
0.000840881
0.000803806
0.000750281
0.000685696
0.00062009
0.000566764
0.000530286
0.000514041
0.000508231
0.000506397
0.00050588
0.000505873
0.000506382
0.000508207
0.000513993
0.000530181
0.000566504
0.000619336
0.000683543
0.000744717
0.00079099
0.000814201
0.000808522
0.000768331
0.00068737
0.000563304
0.00045567
0.000457321
0.000565825
0.000693337
0.000780977
0.000832539
0.00085534
0.000854567
0.000832877
0.000791853
0.000734677
0.000668877
0.000605964
0.000557589
0.000525337
0.000511363
0.000506314
0.000504678
0.000504206
0.000504202
0.000504666
0.000506294
0.000511324
0.000525248
0.000557361
0.000605272
0.000666801
0.000729202
0.000779128
0.000806293
0.000803797
0.000765781
0.000686135
0.000562772
0.000455378
0.000457285
0.000565708
0.000692981
0.000780094
0.000830588
0.00085137
0.000847046
0.000819656
0.000770647
0.000704911
0.00063549
0.000577542
0.000540578
0.000517921
0.00050922
0.000505196
0.000503684
0.000503224
0.000503221
0.000503674
0.000505176
0.00050918
0.000517839
0.000540384
0.000576935
0.000633519
0.00069952
0.000757971
0.000793117
0.000796347
0.000761914
0.000684306
0.000561986
0.000454928
0.000457225
0.000565553
0.000692537
0.000779023
0.000828235
0.00084648
0.000837354
0.000801423
0.000738796
0.000656474
0.000583551
0.000528852
0.00051867
0.000516656
0.000520583
0.000515099
0.000512538
0.00051183
0.000511824
0.000512518
0.000515049
0.000520485
0.000516486
0.000518413
0.000528309
0.000581608
0.000650985
0.000725949
0.000774743
0.000786611
0.000757086
0.000682083
0.00056104
0.00045437
0.000457126
0.000565339
0.000692013
0.000777909
0.000825975
0.000841918
0.000828136
0.000783113
0.000704781
0.00060775
0.000652903
0.000465839
0.000508623
0.00054199
0.000573196
0.000554601
0.000547658
0.000546193
0.000546186
0.000547618
0.000554462
0.000572896
0.000541342
0.000507691
0.000464727
0.000649499
0.000601097
0.000691042
0.000755878
0.000777162
0.000752559
0.000680024
0.000560164
0.000453847
0.000456904
0.00056495
0.000691277
0.000776738
0.000824252
0.000839327
0.000823871
0.000776015
0.000701417
0.000791024
0.000503179
0.000449277
0.000475205
0.000488641
0.000489941
0.000489935
0.00048991
0.000489858
0.000489717
0.000489332
0.000487186
0.000472276
0.000444504
0.000494336
0.000773132
0.000685023
0.000747611
0.000772529
0.000750132
0.000678786
0.000559585
0.000453503
0.000456294
0.000563992
0.000689753
0.000774849
0.000822559
0.000838888
0.000826496
0.000784083
0.000709834
0.000619641
0.00069011
0.000482856
0.000499428
0.000510688
0.000507266
0.000515288
0.000518319
0.000518952
0.00051884
0.000517824
0.000513816
0.000503476
0.000502599
0.000485936
0.000465432
0.000659623
0.00060267
0.000690602
0.000754196
0.00077488
0.000750289
0.000678243
0.000559081
0.000453191
0.000454635
0.000561529
0.000686041
0.000770354
0.000818429
0.000837211
0.00083086
0.000800419
0.000746361
0.000675954
0.000617169
0.000567215
0.000549773
0.000535906
0.000524409
0.000522466
0.00052218
0.000522039
0.000521855
0.000521341
0.000519854
0.000517391
0.000520447
0.000525032
0.000537605
0.000588221
0.000652267
0.000722866
0.000768811
0.000779409
0.000750144
0.000676595
0.000557554
0.000452144
0.000450513
0.00055564
0.000677432
0.000759744
0.000807391
0.000828269
0.000827833
0.0008088
0.000772895
0.000724336
0.000673102
0.000627342
0.000590593
0.000562779
0.000542408
0.000533988
0.000531182
0.000530334
0.000530089
0.000530042
0.000530323
0.000532228
0.000540186
0.000559246
0.000589251
0.000637548
0.000695018
0.000746193
0.00077648
0.00077783
0.000744504
0.000670395
0.000552754
0.00044873
0.000441201
0.000542824
0.000659354
0.000737512
0.00078303
0.000804514
0.000808183
0.000797497
0.000774268
0.000740493
0.000699837
0.000656708
0.000615232
0.00058225
0.000558156
0.000547329
0.000543462
0.000542261
0.000541976
0.00054215
0.000543159
0.00054673
0.000557326
0.00058151
0.000616326
0.000662473
0.000709841
0.00074745
0.000766804
0.000761895
0.000726833
0.000654551
0.000540938
0.000440066
0.000421781
0.00051726
0.000624802
0.000695801
0.000736878
0.000756994
0.000762598
0.00075731
0.000742711
0.000719562
0.000688977
0.000653146
0.000616046
0.000584498
0.000563226
0.00055313
0.000549248
0.000547968
0.000547673
0.000547934
0.000549159
0.000552959
0.00056302
0.000584504
0.000617022
0.000655864
0.0006925
0.000719389
0.000731035
0.000722785
0.000688919
0.000621834
0.000516173
0.000421161
0.000383945
0.000470391
0.000564412
0.000624777
0.000658942
0.000675765
0.000681411
0.000679259
0.000670623
0.00065572
0.000634712
0.000608749
0.000581
0.000556896
0.000541029
0.000533159
0.000529963
0.000528856
0.0005286
0.000528855
0.000529955
0.000533139
0.000541026
0.000557036
0.000581549
0.000609828
0.000635451
0.000653245
0.000659482
0.000650467
0.000620836
0.000562814
0.000469866
0.000383688
0.000315394
0.00039351
0.00047046
0.000517357
0.00054277
0.000554995
0.00055939
0.000558752
0.000554079
0.000545366
0.00053243
0.000515824
0.000497684
0.000481759
0.000471411
0.000466197
0.000464021
0.000463247
0.000463068
0.00046326
0.000464044
0.000466228
0.000471464
0.000481884
0.000497965
0.000516231
0.000532374
0.000543097
0.000546012
0.000538356
0.000515447
0.000469756
0.000393313
0.000315348
0.0002139
0.000315392
0.000384009
0.000421908
0.000441294
0.000450304
0.000453546
0.00045325
0.000450131
0.000444083
0.000434842
0.000422709
0.000409284
0.000397527
0.000390257
0.000386721
0.000385259
0.000384728
0.000384602
0.000384741
0.000385282
0.00038675
0.000390296
0.000397602
0.000409444
0.000422938
0.000434764
0.000442512
0.0004445
0.000438629
0.000420873
0.000383695
0.000315338
0.000213942
0.000247585
0.000408965
0.000521739
0.000586716
0.000621768
0.000639489
0.00064774
0.00065112
0.000652139
0.000652088
0.000651622
0.000651076
0.000650617
0.000650295
0.000650091
0.000649962
0.000649883
0.000649844
0.000649843
0.00064988
0.000649956
0.000650076
0.000650256
0.000650507
0.000650767
0.000650778
0.000649897
0.000646777
0.000638823
0.000621364
0.000586504
0.000521648
0.00040894
0.000247597
0.000408966
0.000467551
0.000549395
0.000603041
0.000633879
0.000650079
0.000657829
0.000661073
0.000662075
0.000662047
0.000661619
0.000661118
0.000660699
0.00066041
0.00066023
0.000660121
0.000660057
0.000660026
0.000660026
0.000660057
0.000660119
0.000660221
0.000660378
0.000660596
0.000660812
0.00066078
0.000659889
0.000656884
0.000649421
0.000633485
0.000602851
0.000549341
0.000467574
0.000408938
0.000521784
0.00054941
0.000632674
0.000691811
0.000727749
0.000747487
0.00075722
0.000761261
0.000762283
0.00076185
0.000760865
0.000759842
0.000759027
0.000758479
0.000758147
0.000757952
0.000757839
0.000757786
0.000757786
0.00075784
0.00075795
0.000758133
0.000758426
0.000758862
0.000759371
0.000759618
0.000758771
0.000755193
0.000746045
0.000726859
0.000691355
0.000632511
0.000549407
0.000521711
0.000586819
0.000603083
0.00069184
0.000757325
0.00079835
0.000821395
0.000832752
0.000837071
0.000837432
0.000835825
0.000833557
0.00083144
0.000829849
0.00082882
0.000828217
0.000827876
0.00082768
0.000827585
0.000827586
0.00082768
0.000827873
0.000828197
0.000828744
0.000829615
0.000830786
0.000831868
0.000831772
0.000828373
0.000818232
0.000796353
0.000756242
0.000691372
0.000602952
0.000586618
0.000621929
0.000633956
0.000727822
0.000798407
0.00084327
0.000868525
0.000880449
0.000883877
0.000882243
0.000878068
0.000873296
0.000869223
0.000866362
0.000864589
0.000863577
0.000863048
0.000862738
0.000862582
0.000862583