/*--------------------------------*- C++ -*----------------------------------*\
| =========                 |                                                 |
| \\      /  F ield         | OpenFOAM: The Open Source CFD Toolbox           |
|  \\    /   O peration     | Version:  2112                                  |
|   \\  /    A nd           | Website:  www.openfoam.com                      |
|    \\/     M anipulation  |                                                 |
\*---------------------------------------------------------------------------*/
FoamFile
{
    version     2.0;
    format      ascii;
    arch        "LSB;label=32;scalar=64";
    class       volScalarField;
    location    "3.8";
    object      k;
}
// * * * * * * * * * * * * * * * * * * * * * * * * * * * * * * * * * * * * * //

dimensions      [0 2 -2 0 0 0 0];

internalField   nonuniform List<scalar> 
64906
(
0.000271039
0.000303417
0.000323612
0.000333593
0.000338181
0.000340173
0.000340984
0.000341286
0.000341377
0.000341381
0.000341354
0.000341323
0.000341299
0.000341279
0.000341263
0.000341248
0.000341235
0.000341225
0.000341221
0.000341226
0.000341238
0.000341251
0.000341266
0.000341281
0.000341293
0.000341291
0.000341217
0.000340939
0.000340148
0.000338172
0.000333595
0.000323621
0.000303433
0.000271053
0.00030344
0.000459635
0.000543965
0.000587652
0.000609967
0.000620856
0.000625799
0.000627797
0.000628417
0.000628434
0.00062823
0.000627987
0.000627793
0.00062767
0.000627602
0.000627564
0.000627541
0.00062753
0.00062753
0.000627541
0.000627564
0.0006276
0.000627657
0.000627746
0.000627836
0.000627787
0.000627232
0.00062537
0.000620585
0.000609835
0.00058762
0.000543992
0.00045968
0.000303477
0.000323672
0.000544008
0.000664951
0.000730184
0.00076512
0.000783007
0.000791449
0.000794865
0.000795738
0.000795425
0.000794682
0.000793928
0.00079336
0.000793018
0.000792843
0.000792751
0.000792699
0.000792675
0.000792677
0.000792704
0.000792758
0.000792846
0.000792998
0.000793263
0.000793608
0.000793769
0.000793051
0.000790022
0.000782051
0.00076459
0.000729967
0.000664921
0.000544068
0.000323735
0.00033368
0.00058774
0.000730232
0.000809402
0.000853101
0.000876042
0.000886904
0.000890931
0.000891247
0.000889744
0.000887642
0.000885722
0.000884331
0.00088352
0.00088311
0.000882882
0.000882743
0.000882676
0.000882679
0.000882751
0.000882892
0.000883113
0.000883485
0.000884175
0.000885225
0.000886268
0.000886281
0.000883183
0.000873477
0.000851589
0.000808674
0.000729991
0.000587753
0.00033376
0.000338284
0.000610088
0.000765216
0.000853162
0.00090256
0.000928626
0.000940461
0.000943699
0.000941893
0.000937511
0.000932495
0.00092827
0.000925361
0.000923763
0.000922997
0.000922534
0.000922224
0.00092207
0.000922074
0.000922235
0.000922548
0.000923001
0.000923718
0.00092516
0.000927633
0.00093075
0.000933182
0.000931999
0.000922736
0.000899003
0.000851338
0.000764483
0.000609947
0.000338367
0.000340284
0.000621002
0.000783159
0.000876203
0.000928773
0.000956021
0.000966975
0.000967247
0.00096062
0.000950333
0.000939713
0.000931575
0.000926366
0.000923796
0.000922716
0.000921934
0.000921345
0.000921042
0.000921047
0.000921359
0.000921953
0.000922725
0.000923753
0.000926149
0.000930866
0.000937746
0.000945436
0.000949485
0.000943901
0.000921422
0.000872337
0.000781484
0.000620531
0.000340348
0.000341098
0.00062597
0.000791698
0.000887276
0.000940986
0.000967517
0.00097533
0.000969486
0.000953628
0.000932117
0.000911411
0.000898013
0.000890504
0.000887532
0.000886703
0.000885625
0.000884664
0.000884168
0.000884174
0.000884681
0.00088565
0.000886722
0.000887503
0.000890309
0.00089732
0.000909395
0.00092697
0.000941804
0.000944718
0.000927309
0.000880051
0.000788462
0.000624928
0.00034111
0.0003414
0.000628018
0.000795297
0.000891742
0.000945079
0.000969189
0.000971371
0.000955196
0.000923057
0.000880401
0.000841128
0.000824911
0.000818866
0.000818226
0.000819258
0.000818202
0.000816969
0.000816342
0.000816349
0.000816989
0.000818233
0.00081929
0.000818226
0.000818731
0.000824334
0.000839259
0.000875309
0.000910992
0.000929711
0.000922013
0.000879683
0.000789836
0.000626143
0.000341322
0.000341494
0.000628733
0.000796508
0.000892884
0.000944942
0.000965474
0.000959896
0.000928596
0.000869263
0.00078408
0.000703363
0.000705061
0.000716309
0.00072503
0.000730509
0.000730503
0.000729668
0.000729222
0.000729229
0.00072969
0.000730538
0.000730555
0.000725066
0.000716271
0.000704718
0.00070192
0.000779381
0.000857283
0.000902821
0.000909869
0.000874945
0.000788396
0.000625865
0.000341294
0.000341508
0.000628912
0.000796746
0.000892734
0.000943367
0.000960299
0.000946581
0.000897252
0.000797015
0.000620937
0.00042538
0.000528277
0.000598483
0.00062723
0.00063845
0.000641189
0.000641739
0.000641814
0.000641821
0.00064176
0.000641224
0.000638502
0.000627298
0.000598555
0.000528296
0.000424869
0.000617172
0.000785338
0.000871378
0.000896208
0.000869257
0.000786215
0.000625141
0.00034118
0.000341497
0.00062894
0.000796777
0.000892545
0.000942412
0.000957375
0.000938912
0.000877239
0.000738965
0.00043935
0.000378623
0.000510904
0.000555718
0.00056946
0.000574117
0.000575495
0.000575822
0.000575826
0.000575508
0.000574141
0.000569498
0.000555782
0.000511004
0.000378684
0.000437466
0.000727743
0.00085135
0.000888373
0.000866086
0.000784972
0.000624695
0.000341092
0.00034148
0.000628977
0.000796936
0.0008929
0.000943117
0.000958916
0.000942935
0.00088976
0.000783961
0.000601424
0.00040937
0.00047805
0.000536366
0.000559264
0.000565583
0.000569977
0.000571322
0.000571558
0.000571557
0.00057132
0.000569974
0.000565576
0.000559257
0.000536345
0.000477902
0.000408744
0.000597546
0.00077222
0.000863769
0.000892335
0.00086752
0.000785514
0.000624852
0.000341083
0.000341469
0.000629057
0.000797265
0.000893746
0.000945062
0.000963285
0.000952844
0.000912891
0.000839812
0.000734796
0.00062961
0.000595527
0.000579426
0.000573956
0.00057192
0.000572271
0.000572398
0.000572353
0.000572349
0.000572386
0.000572249
0.00057188
0.000573883
0.000579264
0.00059506
0.000628087
0.000730084
0.00082777
0.000886846
0.000902239
0.000871845
0.000787342
0.000625484
0.000341147
0.00034146
0.000629155
0.000797661
0.000894762
0.000947362
0.000968197
0.00096297
0.000933186
0.000878967
0.00080403
0.00072288
0.000658059
0.000610054
0.000587668
0.00057928
0.000576666
0.000575816
0.00057553
0.000575523
0.000575796
0.000576631
0.000579221
0.000587562
0.000609834
0.000657483
0.00072107
0.000798987
0.000866728
0.000907052
0.000912313
0.000876681
0.000789499
0.000626255
0.000341219
0.000341448
0.000629241
0.000798017
0.000895661
0.000949337
0.000972209
0.000970627
0.000946931
0.000901825
0.000837725
0.000762239
0.000687714
0.000627008
0.000596451
0.000584394
0.000580213
0.000578815
0.000578367
0.000578357
0.000578787
0.000580167
0.000584324
0.000596332
0.000626768
0.000687097
0.00076032
0.000832526
0.000889445
0.000920689
0.000919875
0.00088058
0.000791315
0.000626912
0.000341267
0.000341432
0.000629299
0.000798277
0.000896315
0.000950733
0.000974923
0.000975501
0.000954997
0.000913941
0.000853663
0.000779302
0.000701031
0.00063516
0.000601004
0.000587176
0.000582252
0.000580574
0.000580017
0.000580003
0.000580538
0.0005822
0.000587099
0.000600878
0.000634912
0.000700375
0.000777332
0.000848376
0.000901457
0.00092865
0.000924641
0.000883172
0.000792558
0.000627358
0.000341285
0.000341413
0.000629328
0.000798438
0.000896715
0.000951567
0.000976488
0.000978182
0.000959176
0.000919783
0.00086078
0.00078648
0.000706678
0.000638654
0.000603013
0.000588425
0.000583175
0.000581356
0.000580718
0.000580699
0.000581312
0.000583117
0.000588344
0.000602883
0.0006384
0.00070597
0.000784481
0.000855444
0.000907233
0.000932751
0.000927235
0.000884639
0.000793277
0.000627607
0.000341278
0.000341393
0.000629336
0.000798515
0.000896906
0.000951954
0.000977192
0.000979348
0.00096092
0.00092211
0.000863477
0.000789093
0.000708715
0.000639913
0.000603741
0.000588873
0.000583495
0.000581607
0.00058091
0.000580885
0.000581557
0.000583432
0.000588788
0.000603608
0.000639656
0.000707998
0.000787084
0.00085812
0.000909528
0.000934456
0.000928355
0.000885291
0.000793601
0.000627711
0.000341256
0.000341377
0.000629329
0.000798523
0.000896922
0.000951978
0.000977226
0.000979393
0.000960979
0.000922183
0.000863563
0.000789186
0.000708805
0.000639979
0.00060378
0.000588889
0.000583491
0.000581581
0.000580849
0.000580817
0.000581525
0.000583425
0.000588802
0.000603647
0.000639723
0.000708092
0.000787182
0.000858211
0.000909607
0.000934518
0.000928403
0.000885324
0.00079362
0.000627707
0.000341231
0.000341374
0.000629313
0.00079846
0.000896762
0.000951638
0.000976589
0.000978319
0.000959354
0.000920007
0.000861045
0.000786773
0.000706968
0.000638864
0.00060314
0.00058848
0.000583172
0.000581286
0.000580557
0.000580524
0.000581228
0.000583103
0.000588393
0.000603009
0.000638613
0.000706269
0.000784791
0.000855727
0.000907472
0.00093294
0.000927377
0.000884738
0.000793334
0.000627603
0.000341218
0.000341385
0.000629283
0.000798314
0.00089639
0.000950848
0.000975088
0.000975727
0.000955298
0.000914328
0.000854136
0.00077984
0.000701561
0.000635547
0.000601243
0.00058729
0.000582267
0.000580485
0.000579812
0.000579781
0.000580427
0.000582198
0.000587205
0.000601118
0.000635311
0.000700898
0.000777907
0.000848885
0.000901873
0.00092897
0.000924876
0.000883334
0.000792652
0.000627362
0.000341214
0.000341399
0.000629229
0.000798063
0.000895755
0.000949483
0.000972421
0.000970928
0.000947349
0.000902391
0.000838455
0.000763111
0.000688485
0.000627616
0.000596822
0.000584577
0.000580251
0.000578723
0.000578164
0.00057814
0.00057867
0.000580186
0.000584498
0.000596711
0.00062741
0.000687918
0.000761271
0.000833321
0.000890052
0.000921128
0.000920185
0.000880792
0.00079144
0.00062693
0.000341193
0.000341409
0.00062914
0.000797699
0.000894843
0.000947494
0.000968405
0.000963291
0.000933679
0.000879709
0.000805093
0.000724226
0.000659244
0.000610863
0.000588072
0.000579408
0.000576596
0.000575604
0.000575229
0.000575211
0.00057556
0.000576536
0.000579334
0.000587973
0.000610699
0.000658787
0.000722562
0.000800156
0.000867505
0.000907542
0.000912628
0.00087689
0.000789626
0.000626279
0.000341143
0.000341417
0.000629016
0.00079724
0.000893725
0.000945061
0.000963339
0.000953015
0.000913285
0.000840603
0.000736177
0.000631572
0.000597187
0.000579963
0.000573751
0.000571292
0.000571361
0.000571338
0.000571221
0.000571207
0.000571296
0.00057129
0.000571182
0.000573602
0.000579796
0.000596919
0.000630287
0.000731603
0.0008285
0.000887117
0.000902337
0.000871902
0.000787384
0.000625478
0.000341066
0.000341418
0.00062884
0.000796699
0.000892549
0.000942679
0.000958446
0.000942522
0.00088958
0.000784365
0.000602941
0.000410442
0.00047845
0.00053426
0.000555782
0.000561256
0.000565213
0.000566389
0.000566559
0.000566539
0.000566319
0.000565052
0.000560922
0.000555235
0.000533642
0.00047825
0.00040984
0.000599143
0.000772162
0.000863099
0.000891669
0.000867062
0.000785263
0.000624723
0.000340987
0.0003414
0.00062852
0.000795953
0.000891311
0.000940823
0.000955504
0.000936823
0.000875031
0.000737032
0.000438567
0.000373379
0.000498888
0.000539927
0.000551189
0.000554956
0.000556077
0.000556315
0.000556261
0.000555869
0.000554424
0.000549983
0.000537642
0.000495571
0.000371061
0.000435528
0.000723839
0.000847654
0.000885632
0.000864296
0.000783947
0.000624219
0.000340955
0.000341308
0.000627738
0.000794464
0.000889398
0.000939125
0.000955288
0.000940829
0.000890642
0.000789458
0.000612917
0.000418584
0.000503434
0.000561696
0.000579629
0.000583528
0.000584436
0.000584718
0.000584761
0.000584656
0.000584273
0.000583161
0.000580312
0.000572744
0.000550034
0.00049115
0.00041232
0.000601884
0.000771994
0.00086136
0.00088922
0.000864644
0.000783443
0.000623821
0.000340921
0.000341019
0.000625719
0.000790883
0.000884924
0.000935032
0.000953896
0.000946578
0.000912831
0.000849436
0.000757309
0.000664963
0.000645379
0.000633025
0.000617366
0.000608212
0.000604522
0.000603311
0.000602935
0.000602774
0.000602588
0.000602275
0.000602031
0.000602733
0.000605692
0.000614826
0.000638546
0.000734054
0.000825739
0.000881085
0.000894885
0.000864745
0.000781928
0.000622604
0.000340746
0.000340225
0.000620843
0.000782576
0.000874377
0.000924022
0.000945121
0.000944293
0.000923908
0.000884533
0.00082904
0.000768444
0.000720396
0.000674807
0.000634363
0.00061437
0.000606769
0.000604279
0.000603542
0.000603344
0.000603357
0.000603757
0.000605595
0.000612118
0.000630814
0.000672336
0.000726985
0.000796061
0.000855876
0.000890773
0.000893837
0.000859286
0.000776004
0.000618652
0.000340068
0.000338249
0.000610046
0.00076494
0.000852064
0.000899437
0.000921174
0.000924685
0.000913365
0.000888447
0.000851142
0.000804703
0.000753991
0.000700333
0.000652628
0.000628717
0.000619393
0.000616253
0.000615313
0.000615093
0.000615222
0.000616015
0.000618903
0.000627916
0.000651816
0.000700931
0.000758934
0.000815469
0.000859096
0.000881675
0.000877958
0.00084162
0.00076058
0.000608699
0.000338189
0.000333666
0.000587804
0.000730239
0.000808986
0.000851504
0.000871772
0.000877316
0.000871769
0.000856359
0.000831308
0.000797188
0.000755893
0.000711171
0.000671701
0.000650097
0.000641008
0.00063772
0.000636682
0.000636458
0.000636643
0.00063763
0.000640839
0.000649865
0.000671554
0.000711855
0.000758235
0.000800655
0.000831288
0.000844957
0.000837457
0.000802478
0.000727714
0.000587131
0.000333677
0.00032368
0.00054415
0.000665154
0.000730263
0.000764668
0.000781191
0.000786724
0.000784615
0.00077595
0.000760656
0.000738575
0.000710653
0.000680156
0.000653464
0.00063775
0.000630562
0.00062783
0.000626945
0.000626748
0.00062693
0.000627793
0.000630496
0.000637672
0.000653484
0.000680519
0.000711512
0.000739205
0.000758299
0.000765302
0.000756785
0.000726885
0.000664019
0.00054395
0.000323742
0.000303477
0.000459788
0.000544238
0.000587979
0.000610185
0.000620612
0.000624393
0.000623988
0.000620201
0.000612908
0.000601774
0.000587166
0.00057096
0.000556647
0.000547799
0.000543525
0.000541817
0.000541235
0.000541104
0.000541239
0.000541822
0.000543528
0.000547804
0.000556696
0.000571122
0.00058744
0.000601702
0.00061104
0.000613559
0.000606972
0.000586808
0.000543986
0.000459842
0.00030355
0.000271078
0.000303526
0.000323816
0.000333884
0.000338544
0.000340575
0.000341347
0.000341446
0.000341033
0.000340048
0.000338472
0.000336247
0.00033361
0.000331163
0.000329604
0.000328816
0.00032846
0.000328295
0.000328239
0.000328303
0.000328468
0.00032882
0.000329602
0.000331157
0.000333607
0.000336248
0.00033842
0.000339765
0.000339946
0.00033842
0.000333973
0.000323953
0.00030363
0.000271134
0.000390328
0.000506316
0.000577748
0.000615503
0.000634573
0.000643709
0.000647777
0.00064939
0.000649878
0.000649878
0.000649698
0.000649482
0.000649301
0.000649173
0.000649089
0.000649034
0.000648998
0.000648979
0.000648977
0.000648993
0.000649027
0.000649078
0.000649151
0.000649251
0.000649349
0.000649333
0.000648904
0.0006474
0.000643456
0.000634427
0.000615435
0.000577727
0.00050632
0.000390342
0.000506322
0.000970027
0.00118231
0.00129714
0.00135884
0.00139053
0.00140562
0.00141192
0.00141379
0.0014136
0.0014126
0.00141145
0.00141048
0.00140981
0.00140939
0.00140913
0.00140897
0.0014089
0.0014089
0.00140897
0.00140913
0.00140938
0.00140975
0.00141028
0.00141083
0.00141091
0.00140929
0.00140352
0.00138905
0.00135792
0.00129663
0.00118207
0.000969935
0.00050633
0.00057779
0.0011824
0.00146293
0.00162014
0.00170787
0.0017546
0.00177745
0.00178689
0.00178915
0.00178787
0.00178521
0.00178246
0.00178026
0.00177879
0.00177792
0.0017774
0.00177709
0.00177694
0.00177694
0.00177709
0.0017774
0.00177789
0.00177867
0.00177985
0.0017813
0.00178216
0.00178043
0.00177221
0.00175086
0.00170552
0.00161884
0.00146233
0.0011822
0.000577797
0.000615585
0.0012973
0.00162023
0.00180586
0.00191201
0.00196959
0.00199761
0.00200812
0.00200865
0.00200407
0.00199767
0.0019916
0.001987
0.00198408
0.00198241
0.00198142
0.00198082
0.00198053
0.00198054
0.00198083
0.00198142
0.00198237
0.00198389
0.0019864
0.00198992
0.00199333
0.00199378
0.00198589
0.00196114
0.00190663
0.00180284
0.00161879
0.00129678
0.000615557
0.000634689
0.00135908
0.00170808
0.00191217
0.00203046
0.00209463
0.00212442
0.00213256
0.00212755
0.00211558
0.00210162
0.00208939
0.0020806
0.00207535
0.00207253
0.00207081
0.00206972
0.00206918
0.00206919
0.00206973
0.00207081
0.00207248
0.00207512
0.00207985
0.00208729
0.00209625
0.00210297
0.00210017
0.00207714
0.00201925
0.00190579
0.00170493
0.00135784
0.000634548
0.000643854
0.00139085
0.00175498
0.00197006
0.00209509
0.00216146
0.00218865
0.0021893
0.00217244
0.00214603
0.00211822
0.00209577
0.00208071
0.00207251
0.00206852
0.00206587
0.00206403
0.00206311
0.00206312
0.00206405
0.00206587
0.00206848
0.00207227
0.00207989
0.00209342
0.00211217
0.00213182
0.00214174
0.00212787
0.00207363
0.00195779
0.00174881
0.0013883
0.000643469
0.000647953
0.00140607
0.00177819
0.00199879
0.00212605
0.00219028
0.00220964
0.00219559
0.00215695
0.00210427
0.00205248
0.00201572
0.00199374
0.00198356
0.00197952
0.00197601
0.00197324
0.00197183
0.00197183
0.00197326
0.00197603
0.0019795
0.00198335
0.00199296
0.00201335
0.00204617
0.00208916
0.00212415
0.00213021
0.00208823
0.00197727
0.00176726
0.00140142
0.000647141
0.000649613
0.00141263
0.00178832
0.00201073
0.00213679
0.00219495
0.00220087
0.00216284
0.00208722
0.00198722
0.00189362
0.00184429
0.00182217
0.00181563
0.00181506
0.00181156
0.00180814
0.00180638
0.00180639
0.00180817
0.00181159
0.00181506
0.00181549
0.00182154
0.00184218
0.00188752
0.00197184
0.00205322
0.00209499
0.00207549
0.00197637
0.00177087
0.00140506
0.000648175
0.000650175
0.00141497
0.0017918
0.00201387
0.00213664
0.00218616
0.00217406
0.00210204
0.00196714
0.00177716
0.00159627
0.00156741
0.00157722
0.00158999
0.00159867
0.00159827
0.001596
0.00159467
0.00159468
0.00159602
0.00159831
0.00159871
0.00158996
0.00157687
0.0015659
0.00159099
0.00176209
0.00193247
0.00203256
0.00204616
0.00196428
0.00176682
0.00140402
0.000647987
0.000650296
0.00141553
0.00179243
0.00201341
0.00213258
0.00217352
0.00214293
0.00203187
0.00181255
0.00143296
0.000890292
0.00115465
0.001295
0.00135302
0.00137354
0.00138235
0.00138431
0.00138444
0.00138445
0.00138433
0.0013824
0.0013736
0.00135309
0.001295
0.00115427
0.000887474
0.00141891
0.00177737
0.00196114
0.00201336
0.00194967
0.00176064
0.00140152
0.00064742
0.000650286
0.00141554
0.00179238
0.00201267
0.00212978
0.00216588
0.0021245
0.00198809
0.001696
0.000943651
0.000710868
0.00106414
0.00116117
0.00119284
0.00120256
0.00120522
0.00120579
0.0012058
0.00120523
0.0012026
0.0011929
0.00116126
0.00106427
0.000710896
0.000933937
0.00166058
0.0019166
0.00199404
0.00194102
0.00175678
0.00139981
0.00064703
0.000650273
0.00141557
0.00179264
0.00201324
0.00213085
0.00216821
0.00213092
0.00200878
0.00177267
0.00136876
0.000821853
0.00100605
0.00113107
0.0011835
0.00120464
0.0012075
0.00120768
0.00120758
0.00120757
0.00120767
0.00120749
0.00120462
0.00118346
0.00113094
0.00100546
0.000818873
0.00135458
0.00173723
0.00193753
0.00200049
0.00194318
0.0017575
0.00139992
0.000647076
0.00065029
0.00141577
0.00179341
0.00201513
0.00213508
0.00217748
0.00215148
0.00205565
0.00188319
0.00163735
0.00138191
0.001266
0.00120633
0.00118521
0.00117938
0.0011779
0.00117734
0.00117708
0.00117707
0.00117733
0.00117788
0.00117932
0.00118506
0.00120589
0.00126448
0.00137672
0.0016222
0.00184796
0.00198489
0.00202146
0.00195266
0.00176173
0.00140161
0.000647473
0.000650322
0.00141608
0.00179442
0.00201758
0.0021404
0.00218851
0.00217362
0.00209903
0.00196532
0.00178065
0.00157665
0.00140391
0.00127077
0.00120682
0.00118331
0.00117598
0.00117383
0.00117322
0.00117322
0.00117381
0.00117595
0.00118323
0.00120661
0.00127017
0.00140204
0.00157085
0.0017651
0.00193014
0.00202856
0.00204392
0.0019639
0.0017671
0.00140388
0.00064798
0.00065035
0.00141639
0.00179538
0.00201984
0.00214517
0.00219787
0.00219102
0.00212965
0.00201557
0.00185438
0.00166358
0.00147263
0.00131046
0.00122606
0.00119297
0.00118201
0.00117877
0.00117793
0.00117793
0.00117875
0.00118198
0.00119288
0.00122584
0.00130981
0.00147064
0.00165752
0.0018386
0.00198032
0.00205923
0.00206142
0.00197332
0.00177182
0.00140594
0.000648409
0.000650362
0.00141663
0.00179612
0.00202154
0.00214864
0.0022044
0.00220246
0.00214823
0.00204322
0.00189079
0.00170316
0.00150488
0.00133078
0.00123729
0.00119959
0.00118682
0.00118303
0.00118207
0.00118207
0.00118301
0.00118679
0.00119951
0.00123705
0.00133013
0.00150285
0.00169697
0.00187485
0.00200784
0.00207774
0.0020728
0.00197978
0.00177517
0.00140741
0.000648691
0.00065036
0.00141677
0.00179658
0.0020226
0.00215076
0.00220826
0.00220891
0.00215814
0.00205698
0.00190763
0.00172043
0.00151884
0.00133987
0.00124255
0.00120286
0.0011893
0.00118525
0.00118423
0.00118423
0.00118524
0.00118926
0.00120277
0.00124232
0.00133921
0.00151681
0.00171417
0.00189159
0.00202149
0.00208754
0.00207916
0.00198354
0.00177716
0.00140829
0.000648838
0.000650349
0.00141684
0.0017968
0.0020231
0.00215175
0.00221001
0.00221176
0.00216234
0.00206256
0.00191413
0.00172684
0.00152395
0.00134321
0.00124452
0.00120409
0.00119022
0.00118608
0.00118504
0.00118503
0.00118607
0.00119019
0.001204
0.00124428
0.00134255
0.00152189
0.00172055
0.00189804
0.002027
0.00209168
0.00208194
0.00198522
0.00177806
0.00140868
0.000648889
0.000650336
0.00141684
0.00179681
0.00202312
0.00215178
0.00221005
0.00221182
0.00216242
0.00206266
0.00191425
0.00172697
0.00152408
0.00134334
0.00124459
0.00120413
0.00119024
0.00118609
0.00118504
0.00118504
0.00118608
0.00119021
0.00120404
0.00124436
0.00134267
0.00152202
0.00172068
0.00189816
0.00202711
0.00209176
0.00208199
0.00198526
0.00177808
0.00140868
0.000648872
0.000650327
0.00141677
0.0017966
0.00202265
0.00215085
0.00220839
0.00220909
0.00215838
0.00205729
0.001908
0.00172083
0.00151924
0.00134026
0.00124281
0.00120301
0.00118938
0.00118531
0.00118428
0.00118427
0.0011853
0.00118935
0.00120292
0.00124259
0.00133961
0.00151721
0.00171459
0.00189197
0.00202181
0.00208779
0.00207933
0.00198365
0.00177722
0.0014083
0.000648797
0.000650317
0.00141662
0.00179615
0.00202161
0.00214877
0.0022046
0.00220274
0.00214863
0.00204376
0.00189145
0.00170392
0.00150564
0.00133153
0.0012378
0.00119992
0.00118705
0.00118322
0.00118224
0.00118224
0.00118321
0.00118703
0.00119985
0.0012376
0.00133092
0.00150368
0.00169777
0.00187554
0.00200838
0.00207813
0.00207307
0.00197996
0.00177527
0.00140743
0.000648637
0.000650298
0.00141637
0.0017954
0.0020199
0.00214529
0.00219807
0.00219136
0.00213016
0.00201633
0.00185541
0.00166483
0.001474
0.00131167
0.00122689
0.00119352
0.00118243
0.00117914
0.00117829
0.00117829
0.00117914
0.00118242
0.00119347
0.00122672
0.00131113
0.00147213
0.00165886
0.00183967
0.00198106
0.0020597
0.0020617
0.00197349
0.00177191
0.00140595
0.000648347
0.000650259
0.00141602
0.00179435
0.00201751
0.00214037
0.00218854
0.00217381
0.00209949
0.0019662
0.0017821
0.00157861
0.00140602
0.00127234
0.00120767
0.00118373
0.00117622
0.00117401
0.00117341
0.00117341
0.00117402
0.00117623
0.0011837
0.00120753
0.00127188
0.00140437
0.00157296
0.00176659
0.0019309
0.00202884
0.00204397
0.00196388
0.00176707
0.00140383
0.000647905
0.000650198
0.00141556
0.00179306
0.00201465
0.0021345
0.00217688
0.00215099
0.0020555
0.00188376
0.0016391
0.00138476
0.00126861
0.00120692
0.00118424
0.00117762
0.00117578
0.00117513
0.00117486
0.00117487
0.00117514
0.00117575
0.00117748
0.00118393
0.00120638
0.00126733
0.0013798
0.00162387
0.00184799
0.00198414
0.00202058
0.00195196
0.00176128
0.00140135
0.000647357
0.000650097
0.00141493
0.00179152
0.00201163
0.00212881
0.00216586
0.00212842
0.00200649
0.00177137
0.00137006
0.000823924
0.00100553
0.00112442
0.00117328
0.0011924
0.00119446
0.00119447
0.00119437
0.00119436
0.0011944
0.00119418
0.00119164
0.00117181
0.00112246
0.00100432
0.000820927
0.00135521
0.00173398
0.00193347
0.001997
0.00194066
0.00175591
0.00139907
0.000646845
0.000649876
0.0014138
0.00178932
0.00200832
0.00212425
0.00215931
0.002117
0.00197984
0.00168769
0.000938073
0.000691271
0.00102691
0.00111414
0.00113916
0.00114703
0.00114946
0.00115007
0.00114996
0.001149
0.00114568
0.00113585
0.00110754
0.00101674
0.000682991
0.000923419
0.00164585
0.00190376
0.00198435
0.00193433
0.00175257
0.00139755
0.000646506
0.000649272
0.00141113
0.00178492
0.00200295
0.00211946
0.00215794
0.00212471
0.00201033
0.00178645
0.00140076
0.000855352
0.0010718
0.001185
0.00121633
0.00121885
0.00122347
0.0012254
0.00122585
0.0012256
0.00122426
0.00122003
0.00120992
0.00119685
0.00115126
0.00103282
0.000829488
0.00136272
0.00173427
0.00192968
0.00199113
0.00193448
0.00175089
0.00139615
0.000646194
0.000647643
0.00140459
0.00177472
0.00199078
0.00210829
0.00215298
0.00213548
0.0020558
0.00190826
0.00169627
0.00147804
0.00139531
0.00134545
0.00129701
0.00126862
0.00125894
0.0012561
0.00125525
0.00125483
0.00125416
0.00125279
0.00125158
0.00125679
0.00127195
0.00131196
0.00140255
0.00163071
0.00184206
0.00196978
0.0020021
0.00193345
0.00174623
0.00139215
0.000645161
0.000643619
0.00138962
0.00175209
0.0019633
0.00208004
0.00213005
0.00212722
0.00207686
0.00198068
0.00184533
0.00169447
0.00156413
0.00144253
0.0013342
0.00127864
0.00125754
0.00125069
0.00124868
0.00124813
0.00124814
0.00124918
0.00125437
0.0012735
0.00132702
0.00144095
0.00158711
0.00175859
0.0019036
0.00198812
0.00199721
0.00191869
0.00173014
0.00138019
0.000641829
0.000634543
0.0013582
0.00170605
0.00190732
0.00201946
0.0020714
0.0020788
0.0020491
0.00198535
0.00189061
0.00177231
0.00164162
0.00150449
0.00138025
0.00131494
0.00128892
0.00128003
0.00127733
0.00127669
0.00127709
0.00127942
0.00128771
0.0013132
0.00137912
0.00150829
0.00165642
0.00179835
0.00190709
0.00196414
0.00195783
0.00187474
0.00169038
0.00135165
0.00063339
0.000615521
0.00129677
0.00161906
0.00180292
0.00190505
0.00195439
0.00196703
0.001951
0.0019093
0.00184284
0.0017534
0.00164604
0.00153077
0.00142903
0.0013713
0.00134609
0.00133675
0.00133371
0.00133301
0.00133364
0.00133656
0.00134574
0.00137094
0.00142945
0.00153372
0.0016531
0.00176199
0.00184102
0.00187764
0.00186212
0.00178091
0.00160883
0.00129265
0.000614877
0.000577791
0.00118214
0.00146243
0.00161875
0.00170422
0.00174607
0.00175943
0.00175193
0.00172628
0.00168263
0.00162112
0.00154476
0.00146238
0.00139048
0.00134704
0.00132656
0.0013184
0.00131557
0.00131491
0.00131558
0.00131841
0.00132657
0.00134715
0.00139105
0.00146403
0.00154763
0.0016227
0.0016753
0.00169627
0.00167732
0.00160551
0.00145657
0.00117989
0.000577511
0.000506362
0.000969957
0.00118225
0.00129678
0.00135752
0.00138689
0.00139716
0.00139442
0.00138077
0.00135611
0.00132011
0.00127437
0.00122468
0.00118125
0.001154
0.00114053
0.00113492
0.0011329
0.00113244
0.00113295
0.00113502
0.00114068
0.00115423
0.00118172
0.00122559
0.00127556
0.00131992
0.00135003
0.00136001
0.00134367
0.00129036
0.00117961
0.000969009
0.000506306
0.000390371
0.000506361
0.000577856
0.000615644
0.000634623
0.00064339
0.000646534
0.000646223
0.000643146
0.00063719
0.000628075
0.000616056
0.000602663
0.000590833
0.000583458
0.00057985
0.000578352
0.000577807
0.000577677
0.00057782
0.000578375
0.000579879
0.000583498
0.00059091
0.000602825
0.000616282
0.000627987
0.000635625
0.000637613
0.000631934
0.000614573
0.000577514
0.000506294
0.000390422
0.000430556
0.000602526
0.000709357
0.000767578
0.000798229
0.00081359
0.000820736
0.000823671
0.000824559
0.000824512
0.000824101
0.000823619
0.000823212
0.000822926
0.000822745
0.000822631
0.000822561
0.000822526
0.000822526
0.000822558
0.000822625
0.000822732
0.000822891
0.000823114
0.000823343
0.000823354
0.000822586
0.000819878
0.000812992
0.000797861
0.00076738
0.000709268
0.000602499
0.00043057
0.000602528
0.00121426
0.00149245
0.00164729
0.00173323
0.00177885
0.00180127
0.00181087
0.00181375
0.00181333
0.00181156
0.00180952
0.0018078
0.00180657
0.00180578
0.00180529
0.00180499
0.00180485
0.00180485
0.00180499
0.00180527
0.00180573
0.00180643
0.00180739
0.0018084
0.00180863
0.0018062
0.00179748
0.0017761
0.00173145
0.00164624
0.00149189
0.00121401
0.000602497
0.000709399
0.00149256
0.00185008
0.00205503
0.00217267
0.00223709
0.00226943
0.00228304
0.00228625
0.00228412
0.00227982
0.00227529
0.0022716
0.00226908
0.00226752
0.00226659
0.00226604
0.00226578
0.00226578
0.00226603
0.00226657
0.00226745
0.00226883
0.00227087
0.00227331
0.00227485
0.00227249
0.00226077
0.00223077
0.00216854
0.00205262
0.00184885
0.00149204
0.000709325
0.000767669
0.0016475
0.00205516
0.00229378
0.00243366
0.00251137
0.00255001
0.00256469
0.00256525
0.00255832
0.00254852
0.00253905
0.00253168
0.00252686
0.00252402
0.00252232
0.00252131
0.00252083
0.00252083
0.00252131
0.0025223
0.00252391
0.00252649
0.00253062
0.00253626
0.00254166
0.00254265
0.00253184
0.00249802
0.00242487
0.0022886
0.00205247
0.00164634
0.000767477
0.00079837
0.00173356
0.00217298
0.0024339
0.00258851
0.00267415
0.00271461
0.00272576
0.00271855
0.00270127
0.00268073
0.00266216
0.0026484
0.00263992
0.00263522
0.00263235
0.00263058
0.00262972
0.00262973
0.00263058
0.00263233
0.0026351
0.00263948
0.0026471
0.00265872
0.00267232
0.0026823
0.00267876
0.00264783
0.00257114
0.00242357
0.00216752
0.00173113
0.0007979
0.000813783
0.00177933
0.00223771
0.00251214
0.00267489
0.00276291
0.00279953
0.00280044
0.00277726
0.00274038
0.00270046
0.00266663
0.00264294
0.00262953
0.00262276
0.00261831
0.00261536
0.00261391
0.00261392
0.00261536
0.00261829
0.00262264
0.00262907
0.00264153
0.0026628
0.002691
0.00271901
0.00273274
0.00271426
0.00264294
0.00249312
0.00222753
0.00177466
0.000812776
0.000820997
0.00180203
0.00227067
0.00255195
0.00271723
0.00280206
0.00282815
0.0028097
0.00275801
0.00268644
0.00261341
0.00255686
0.00252037
0.0025023
0.00249469
0.00248841
0.00248383
0.00248158
0.00248158
0.00248384
0.00248841
0.0024946
0.00250188
0.002519
0.00255295
0.00260345
0.00266355
0.00271024
0.00271777
0.00266265
0.00251965
0.00225329
0.00179389
0.000819108
0.000824047
0.00181214
0.00228547
0.00256895
0.00273239
0.00280908
0.00281762
0.0027684