/*--------------------------------*- C++ -*----------------------------------*\
| =========                 |                                                 |
| \\      /  F ield         | OpenFOAM: The Open Source CFD Toolbox           |
|  \\    /   O peration     | Version:  2112                                  |
|   \\  /    A nd           | Website:  www.openfoam.com                      |
|    \\/     M anipulation  |                                                 |
\*---------------------------------------------------------------------------*/
FoamFile
{
    version     2.0;
    format      ascii;
    arch        "LSB;label=32;scalar=64";
    class       volScalarField;
    location    "3.8";
    object      nut;
}
// * * * * * * * * * * * * * * * * * * * * * * * * * * * * * * * * * * * * * //

dimensions      [0 2 -1 0 0 0 0];

internalField   nonuniform List<scalar> 
64906
(
4.12964e-05
4.37531e-05
4.52314e-05
4.5954e-05
4.62878e-05
4.64348e-05
4.64957e-05
4.65187e-05
4.65256e-05
4.65259e-05
4.65237e-05
4.6521e-05
4.6519e-05
4.65175e-05
4.65162e-05
4.65151e-05
4.65141e-05
4.65134e-05
4.65131e-05
4.65135e-05
4.65143e-05
4.65153e-05
4.65165e-05
4.65177e-05
4.65187e-05
4.65187e-05
4.65131e-05
4.64919e-05
4.64326e-05
4.62869e-05
4.59539e-05
4.5232e-05
4.37543e-05
4.12975e-05
4.3755e-05
5.39554e-05
5.87678e-05
6.11385e-05
6.23317e-05
6.29155e-05
6.31834e-05
6.32931e-05
6.33273e-05
6.33279e-05
6.33159e-05
6.33017e-05
6.32902e-05
6.32827e-05
6.32785e-05
6.32761e-05
6.32747e-05
6.32741e-05
6.32741e-05
6.32747e-05
6.32761e-05
6.32783e-05
6.32819e-05
6.32873e-05
6.32927e-05
6.32902e-05
6.32595e-05
6.31576e-05
6.28988e-05
6.23231e-05
6.11358e-05
5.87688e-05
5.39579e-05
4.37578e-05
4.52358e-05
5.87703e-05
6.50521e-05
6.82313e-05
6.98956e-05
7.07451e-05
7.11487e-05
7.13135e-05
7.13558e-05
7.13398e-05
7.13022e-05
7.12637e-05
7.12343e-05
7.12162e-05
7.12066e-05
7.12015e-05
7.11986e-05
7.11973e-05
7.11974e-05
7.11989e-05
7.12018e-05
7.12067e-05
7.1215e-05
7.1229e-05
7.12468e-05
7.12554e-05
7.12208e-05
7.1075e-05
7.06947e-05
6.98666e-05
6.82184e-05
6.50492e-05
5.8773e-05
4.52404e-05
4.59603e-05
6.11433e-05
6.82337e-05
7.19038e-05
7.38741e-05
7.49014e-05
7.53895e-05
7.55717e-05
7.55858e-05
7.55162e-05
7.54181e-05
7.53275e-05
7.52609e-05
7.52213e-05
7.52007e-05
7.51892e-05
7.51822e-05
7.5179e-05
7.51791e-05
7.51826e-05
7.51896e-05
7.52007e-05
7.52193e-05
7.52529e-05
7.53028e-05
7.53517e-05
7.53527e-05
7.52127e-05
7.47774e-05
7.37987e-05
7.18653e-05
6.82191e-05
6.11427e-05
4.59659e-05
4.62952e-05
6.23383e-05
6.99003e-05
7.38771e-05
7.60426e-05
7.71745e-05
7.7689e-05
7.78308e-05
7.77518e-05
7.75583e-05
7.73345e-05
7.71434e-05
7.70097e-05
7.69347e-05
7.68978e-05
7.68756e-05
7.68611e-05
7.68539e-05
7.68541e-05
7.68615e-05
7.68761e-05
7.68977e-05
7.69322e-05
7.69996e-05
7.71126e-05
7.72524e-05
7.73594e-05
7.73069e-05
7.69041e-05
7.58745e-05
7.37864e-05
6.98602e-05
6.23282e-05
4.63009e-05
4.64428e-05
6.29234e-05
7.07526e-05
7.49092e-05
7.71814e-05
7.8346e-05
7.88145e-05
7.8828e-05
7.85451e-05
7.81014e-05
7.76376e-05
7.72753e-05
7.70388e-05
7.6919e-05
7.68668e-05
7.683e-05
7.68031e-05
7.67895e-05
7.67897e-05
7.68037e-05
7.68308e-05
7.68669e-05
7.69165e-05
7.70279e-05
7.72411e-05
7.75454e-05
7.78778e-05
7.80487e-05
7.78074e-05
7.68455e-05
7.47239e-05
7.06653e-05
6.28942e-05
4.64467e-05
4.65038e-05
6.31929e-05
7.11613e-05
7.54076e-05
7.77137e-05
7.88393e-05
7.91725e-05
7.89293e-05
7.82587e-05
7.73373e-05
7.64342e-05
7.58319e-05
7.54839e-05
7.53397e-05
7.52955e-05
7.52443e-05
7.52002e-05
7.51777e-05
7.5178e-05
7.5201e-05
7.52453e-05
7.52962e-05
7.53379e-05
7.54737e-05
7.57977e-05
7.63381e-05
7.70995e-05
7.77287e-05
7.78459e-05
7.7102e-05
7.50692e-05
7.09971e-05
6.31312e-05
4.65036e-05
4.65269e-05
6.33056e-05
7.13359e-05
7.56111e-05
7.7895e-05
7.89157e-05
7.90132e-05
7.8338e-05
7.69755e-05
7.51294e-05
7.33798e-05
7.26133e-05
7.2304e-05
7.22534e-05
7.22901e-05
7.22368e-05
7.21783e-05
7.21489e-05
7.21492e-05
7.21792e-05
7.22382e-05
7.22914e-05
7.2253e-05
7.22966e-05
7.25834e-05
7.32868e-05
7.48868e-05
7.64246e-05
7.72125e-05
7.68768e-05
7.50547e-05
7.10634e-05
6.31973e-05
4.65195e-05
4.65344e-05
6.33457e-05
7.13957e-05
7.56647e-05
7.78921e-05
7.87624e-05
7.85364e-05
7.72222e-05
7.4671e-05
7.08588e-05
6.70405e-05
6.70465e-05
6.75268e-05
6.79152e-05
6.81666e-05
6.81593e-05
6.81162e-05
6.80938e-05
6.80941e-05
6.81173e-05
6.8161e-05
6.81687e-05
6.79167e-05
6.75241e-05
6.70268e-05
6.69617e-05
7.0621e-05
7.41061e-05
7.60654e-05
7.63546e-05
7.48445e-05
7.09954e-05
6.31823e-05
4.65174e-05
4.65356e-05
6.3356e-05
7.14079e-05
7.5659e-05
7.78253e-05
7.8545e-05
7.79779e-05
7.58888e-05
7.14724e-05
6.30098e-05
5.20498e-05
5.7931e-05
6.16209e-05
6.30732e-05
6.36376e-05
6.37688e-05
6.37937e-05
6.37967e-05
6.37971e-05
6.37948e-05
6.37706e-05
6.36403e-05
6.30766e-05
6.16243e-05
5.7931e-05
5.20137e-05
6.27951e-05
7.08963e-05
7.47057e-05
7.57629e-05
7.45905e-05
7.08913e-05
6.31428e-05
4.65088e-05
4.65348e-05
6.33578e-05
7.14096e-05
7.56505e-05
7.77836e-05
7.84197e-05
7.76512e-05
7.50212e-05
6.87943e-05
5.29379e-05
4.89682e-05
5.6842e-05
5.92793e-05
6.00093e-05
6.02578e-05
6.03322e-05
6.03501e-05
6.03503e-05
6.03329e-05
6.02591e-05
6.00115e-05
5.92829e-05
5.68476e-05
4.89721e-05
5.28095e-05
6.82191e-05
7.38233e-05
7.54185e-05
7.44467e-05
7.08309e-05
6.31181e-05
4.65023e-05
4.65336e-05
6.33599e-05
7.14172e-05
7.56659e-05
7.78122e-05
7.84805e-05
7.78113e-05
7.55427e-05
7.08386e-05
6.19416e-05
5.09903e-05
5.49519e-05
5.81618e-05
5.93777e-05
5.97032e-05
5.99444e-05
6.00199e-05
6.00337e-05
6.00336e-05
6.00198e-05
5.99442e-05
5.97029e-05
5.93772e-05
5.81605e-05
5.49423e-05
5.09461e-05
6.17179e-05
7.02545e-05
7.43487e-05
7.55809e-05
7.45059e-05
7.08546e-05
6.31261e-05
4.65014e-05
4.65327e-05
6.33645e-05
7.1433e-05
7.57033e-05
7.78943e-05
7.86602e-05
7.82179e-05
7.65122e-05
7.3306e-05
6.84592e-05
6.32378e-05
6.13629e-05
6.04344e-05
6.01076e-05
5.9984e-05
6.00031e-05
6.00116e-05
6.00099e-05
6.00097e-05
6.0011e-05
6.00019e-05
5.99818e-05
6.01036e-05
6.04251e-05
6.13359e-05
6.31513e-05
6.82134e-05
7.27278e-05
7.53317e-05
7.59998e-05
7.46938e-05
7.09396e-05
6.31598e-05
4.65063e-05
4.65321e-05
6.33701e-05
7.14522e-05
7.57488e-05
7.79925e-05
7.88647e-05
7.8636e-05
7.73593e-05
7.49945e-05
7.1614e-05
6.77721e-05
6.4527e-05
6.20191e-05
6.08124e-05
6.03524e-05
6.02091e-05
6.01629e-05
6.01475e-05
6.01471e-05
6.01618e-05
6.02071e-05
6.03491e-05
6.08065e-05
6.20068e-05
6.4495e-05
6.7676e-05
7.13627e-05
7.44206e-05
7.61887e-05
7.64284e-05
7.49063e-05
7.10413e-05
6.32017e-05
4.65119e-05
4.65313e-05
6.33751e-05
7.14697e-05
7.57896e-05
7.80779e-05
7.90333e-05
7.8954e-05
7.79329e-05
7.59691e-05
7.3107e-05
6.96054e-05
6.59818e-05
6.28869e-05
6.12683e-05
6.0616e-05
6.03876e-05
6.03111e-05
6.02866e-05
6.0286e-05
6.03095e-05
6.03851e-05
6.06121e-05
6.12617e-05
6.28735e-05
6.59481e-05
6.95061e-05
7.28533e-05
7.53964e-05
7.67666e-05
7.6752e-05
7.50793e-05
7.11279e-05
6.32379e-05
4.65158e-05
4.65303e-05
6.33786e-05
7.14827e-05
7.58196e-05
7.81389e-05
7.91486e-05
7.91583e-05
7.82712e-05
7.64856e-05
7.38085e-05
7.03917e-05
6.66296e-05
6.33041e-05
6.15068e-05
6.07618e-05
6.04934e-05
6.04014e-05
6.03708e-05
6.03701e-05
6.03994e-05
6.04905e-05
6.07576e-05
6.14999e-05
6.32904e-05
6.65945e-05
7.02908e-05
7.35531e-05
7.59122e-05
7.71056e-05
7.69577e-05
7.51955e-05
7.1188e-05
6.32627e-05
4.65174e-05
4.65289e-05
6.33804e-05
7.14908e-05
7.58382e-05
7.81758e-05
7.92158e-05
7.92718e-05
7.8448e-05
7.67363e-05
7.4123e-05
7.07233e-05
6.69052e-05
6.34842e-05
6.16132e-05
6.08283e-05
6.05422e-05
6.04424e-05
6.04074e-05
6.04064e-05
6.04401e-05
6.0539e-05
6.08239e-05
6.1606e-05
6.34701e-05
6.68674e-05
7.06215e-05
7.38663e-05
7.61617e-05
7.72817e-05
7.70707e-05
7.5262e-05
7.12231e-05
6.32768e-05
4.65171e-05
4.65276e-05
6.33809e-05
7.14947e-05
7.58471e-05
7.8193e-05
7.92463e-05
7.93216e-05
7.85225e-05
7.68369e-05
7.42431e-05
7.0845e-05
6.70055e-05
6.35496e-05
6.16521e-05
6.08524e-05
6.05594e-05
6.04558e-05
6.04175e-05
6.04161e-05
6.04531e-05
6.05559e-05
6.08478e-05
6.16448e-05
6.35354e-05
6.69671e-05
7.07427e-05
7.39857e-05
7.62617e-05
7.73555e-05
7.712e-05
7.52918e-05
7.1239e-05
6.32828e-05
4.65157e-05
4.65264e-05
6.33806e-05
7.1495e-05
7.58478e-05
7.81941e-05
7.92477e-05
7.93235e-05
7.8525e-05
7.68401e-05
7.42469e-05
7.08494e-05
6.701e-05
6.35532e-05
6.16543e-05
6.08533e-05
6.05592e-05
6.04543e-05
6.04142e-05
6.04124e-05
6.04513e-05
6.05555e-05
6.08485e-05
6.16469e-05
6.3539e-05
6.69718e-05
7.07473e-05
7.39898e-05
7.62651e-05
7.73583e-05
7.7122e-05
7.52933e-05
7.12399e-05
6.32826e-05
4.65139e-05
4.65262e-05
6.33796e-05
7.14918e-05
7.58402e-05
7.81789e-05
7.92201e-05
7.92776e-05
7.84557e-05
7.67461e-05
7.4135e-05
7.07372e-05
6.69197e-05
6.34953e-05
6.16202e-05
6.08314e-05
6.0542e-05
6.04386e-05
6.03986e-05
6.03967e-05
6.04354e-05
6.05383e-05
6.08266e-05
6.16129e-05
6.34815e-05
6.68823e-05
7.06362e-05
7.38791e-05
7.61722e-05
7.72899e-05
7.70769e-05
7.52664e-05
7.12257e-05
6.32766e-05
4.65128e-05
4.65269e-05
6.33777e-05
7.14844e-05
7.58229e-05
7.81438e-05
7.91555e-05
7.91678e-05
7.82841e-05
7.65026e-05
7.38299e-05
7.04173e-05
6.66559e-05
6.33247e-05
6.15199e-05
6.07681e-05
6.04942e-05
6.03964e-05
6.03595e-05
6.03578e-05
6.03933e-05
6.04904e-05
6.07634e-05
6.15129e-05
6.33116e-05
6.66202e-05
7.03182e-05
7.35762e-05
7.59304e-05
7.71194e-05
7.69678e-05
7.52027e-05
7.11924e-05
6.3263e-05
4.65123e-05
4.65278e-05
6.33744e-05
7.14718e-05
7.57936e-05
7.80839e-05
7.9042e-05
7.89665e-05
7.79506e-05
7.59939e-05
7.31403e-05
6.96472e-05
6.60208e-05
6.29193e-05
6.12884e-05
6.06258e-05
6.03894e-05
6.03057e-05
6.0275e-05
6.02737e-05
6.03028e-05
6.03858e-05
6.06214e-05
6.12822e-05
6.29077e-05
6.59897e-05
6.95517e-05
7.28896e-05
7.5423e-05
7.67854e-05
7.67652e-05
7.50885e-05
7.11337e-05
6.32388e-05
4.65104e-05
4.65285e-05
6.33692e-05
7.14537e-05
7.57519e-05
7.79976e-05
7.88727e-05
7.86489e-05
7.73799e-05
7.5027e-05
7.16632e-05
6.78382e-05
6.45884e-05
6.20625e-05
6.0834e-05
6.03587e-05
6.02042e-05
6.01501e-05
6.01297e-05
6.01287e-05
6.01476e-05
6.02008e-05
6.03545e-05
6.08284e-05
6.2053e-05
6.45624e-05
6.77491e-05
7.14168e-05
7.44546e-05
7.62091e-05
7.64413e-05
7.4915e-05
7.10469e-05
6.32028e-05
4.65063e-05
4.6529e-05
6.33619e-05
7.1431e-05
7.57012e-05
7.78926e-05
7.86606e-05
7.82232e-05
7.65273e-05
7.33405e-05
6.85256e-05
6.33406e-05
6.14529e-05
6.04629e-05
6.00943e-05
5.99466e-05
5.99496e-05
5.99495e-05
5.99437e-05
5.99429e-05
5.99471e-05
5.99455e-05
5.99403e-05
6.00856e-05
6.04531e-05
6.14363e-05
6.32665e-05
6.82863e-05
7.2759e-05
7.5341e-05
7.60017e-05
7.46945e-05
7.09404e-05
6.3159e-05
4.65003e-05
4.65289e-05
6.33517e-05
7.14042e-05
7.56475e-05
7.77898e-05
7.84561e-05
7.77887e-05
7.55298e-05
7.08535e-05
6.20215e-05
5.10601e-05
5.49742e-05
5.80366e-05
5.9176e-05
5.94546e-05
5.96717e-05
5.9738e-05
5.9748e-05
5.97468e-05
5.97339e-05
5.96625e-05
5.94354e-05
5.91446e-05
5.80003e-05
5.49607e-05
5.10172e-05
6.18014e-05
7.02461e-05
7.43122e-05
7.55458e-05
7.4481e-05
7.084e-05
6.31178e-05
4.64942e-05
4.65274e-05
6.33332e-05
7.13668e-05
7.55901e-05
7.77078e-05
7.83309e-05
7.75508e-05
7.49116e-05
6.86898e-05
5.28829e-05
4.85994e-05
5.61207e-05
5.83726e-05
5.89736e-05
5.91768e-05
5.92383e-05
5.92515e-05
5.92485e-05
5.92264e-05
5.91464e-05
5.89048e-05
5.82414e-05
5.59226e-05
4.84377e-05
5.26783e-05
6.80135e-05
7.36419e-05
7.52853e-05
7.43575e-05
7.07766e-05
6.30897e-05
4.64918e-05
4.65201e-05
6.32891e-05
7.1293e-05
7.55007e-05
7.76294e-05
7.83151e-05
7.77118e-05
7.55752e-05
7.10939e-05
6.25579e-05
5.15914e-05
5.64581e-05
5.95814e-05
6.0499e-05
6.06909e-05
6.07313e-05
6.07439e-05
6.07457e-05
6.07398e-05
6.07194e-05
6.06611e-05
6.05145e-05
6.01208e-05
5.89303e-05
5.5729e-05
5.11758e-05
6.19446e-05
7.02343e-05
7.423e-05
7.5433e-05
7.43678e-05
7.07496e-05
6.30666e-05
4.64888e-05
4.64979e-05
6.31776e-05
7.11189e-05
7.52956e-05
7.74452e-05
7.82448e-05
7.7938e-05
7.65021e-05
7.37384e-05
6.95416e-05
6.50585e-05
6.39787e-05
6.32755e-05
6.24297e-05
6.19356e-05
6.17347e-05
6.16684e-05
6.16478e-05
6.1639e-05
6.16292e-05
6.16138e-05
6.16051e-05
6.16532e-05
6.18392e-05
6.23796e-05
6.36874e-05
6.83966e-05
7.2624e-05
7.50647e-05
7.56641e-05
7.43636e-05
7.06731e-05
6.29988e-05
4.64753e-05
4.64382e-05
6.29132e-05
7.07211e-05
7.482e-05
7.69625e-05
7.78607e-05
7.78238e-05
7.69487e-05
7.52347e-05
7.27568e-05
6.99482e-05
6.76178e-05
6.53417e-05
6.32711e-05
6.22223e-05
6.18179e-05
6.16844e-05
6.16446e-05
6.16338e-05
6.16346e-05
6.16566e-05
6.17567e-05
6.21074e-05
6.30976e-05
6.52372e-05
6.79518e-05
7.12145e-05
7.39221e-05
7.5461e-05
7.56041e-05
7.41121e-05
7.03887e-05
6.27851e-05
4.64246e-05
4.62925e-05
6.23346e-05
6.98839e-05
7.38207e-05
7.58933e-05
7.68317e-05
7.69793e-05
7.64815e-05
7.5381e-05
7.37094e-05
7.15807e-05
6.91893e-05
6.65828e-05
6.41896e-05
6.29551e-05
6.24657e-05
6.22992e-05
6.2249e-05
6.22372e-05
6.22441e-05
6.22866e-05
6.24403e-05
6.29149e-05
6.41524e-05
6.66194e-05
6.94279e-05
7.20653e-05
7.40422e-05
7.5052e-05
7.49041e-05
7.33187e-05
6.96575e-05
6.22534e-05
4.62866e-05
4.59591e-05
6.11459e-05
6.82317e-05
7.18795e-05
7.37923e-05
7.4694e-05
7.49367e-05
7.46809e-05
7.39766e-05
7.28253e-05
7.12381e-05
6.92828e-05
6.71168e-05
6.51544e-05
6.40542e-05
6.35841e-05
6.34121e-05
6.33573e-05
6.33453e-05
6.33553e-05
6.34075e-05
6.35754e-05
6.40431e-05
6.51488e-05
6.7153e-05
6.93952e-05
7.13931e-05
7.28098e-05
7.34417e-05
7.31201e-05
7.15539e-05
6.8095e-05
6.1103e-05
4.59588e-05
4.52363e-05
5.87778e-05
6.5061e-05
6.8232e-05
6.98675e-05
7.06471e-05
7.09057e-05
7.0799e-05
7.03759e-05
6.96306e-05
6.85506e-05
6.71727e-05
6.56467e-05
6.42876e-05
6.34733e-05
6.30958e-05
6.2951e-05
6.29037e-05
6.28931e-05
6.29028e-05
6.2949e-05
6.30925e-05
6.34696e-05
6.42895e-05
6.56661e-05
6.72151e-05
6.85774e-05
6.95081e-05
6.98548e-05
6.94636e-05
6.80505e-05
6.49943e-05
5.87628e-05
4.52402e-05
4.37576e-05
5.39646e-05
5.87826e-05
6.11548e-05
6.23401e-05
6.28959e-05
6.30967e-05
6.30706e-05
6.28594e-05
6.24565e-05
6.18436e-05
6.10388e-05
6.0141e-05
5.93409e-05
5.88404e-05
5.85963e-05
5.84978e-05
5.8464e-05
5.84563e-05
5.84642e-05
5.84981e-05
5.85964e-05
5.88409e-05
5.9344e-05
6.01505e-05
6.10537e-05
6.18376e-05
6.23504e-05
6.24945e-05
6.21515e-05
6.10819e-05
5.87641e-05
5.39663e-05
4.37629e-05
4.12995e-05
4.37615e-05
4.52464e-05
4.5975e-05
4.63137e-05
4.64628e-05
4.65196e-05
4.6526e-05
4.64935e-05
4.64179e-05
4.62983e-05
4.61313e-05
4.59346e-05
4.57526e-05
4.56361e-05
4.55769e-05
4.55502e-05
4.55378e-05
4.55336e-05
4.55384e-05
4.55508e-05
4.55772e-05
4.5636e-05
4.57522e-05
4.59346e-05
4.61315e-05
4.62942e-05
4.63961e-05
4.64115e-05
4.63015e-05
4.59799e-05
4.52559e-05
4.37692e-05
4.13039e-05
6.41152e-05
7.31631e-05
7.8253e-05
8.08425e-05
8.21382e-05
8.27622e-05
8.30435e-05
8.31567e-05
8.31912e-05
8.3191e-05
8.31777e-05
8.31618e-05
8.31483e-05
8.31387e-05
8.31325e-05
8.31284e-05
8.31257e-05
8.31243e-05
8.31242e-05
8.31254e-05
8.31279e-05
8.31317e-05
8.31371e-05
8.31445e-05
8.31518e-05
8.31507e-05
8.31204e-05
8.30151e-05
8.27429e-05
8.21268e-05
8.08369e-05
7.8251e-05
7.31632e-05
6.41165e-05
7.31637e-05
0.000215246
0.00026748
0.000292747
0.000306081
0.000313075
0.000316519
0.000317997
0.000318434
0.000318358
0.00031807
0.000317742
0.000317464
0.000317266
0.000317139
0.000317059
0.000317011
0.000316989
0.000316989
0.000317012
0.000317059
0.000317134
0.000317247
0.000317404
0.000317571
0.000317621
0.000317257
0.00031592
0.000312641
0.000305796
0.000292573
0.000267376
0.000215184
7.3164e-05
7.8256e-05
0.000267506
0.000341258
0.000377979
0.000397871
0.000408587
0.00041397
0.000416246
0.000416777
0.000416404
0.000415659
0.000414876
0.000414239
0.000413805
0.000413541
0.000413381
0.000413286
0.000413241
0.000413242
0.000413287
0.000413379
0.00041353
0.000413766
0.000414119
0.000414545
0.000414822
0.000414441
0.000412492
0.000407508
0.000397163
0.000377558
0.000341029
0.000267393
7.82559e-05
8.08482e-05
0.000292792
0.000378003
0.000421375
0.000445307
0.000458352
0.000464833
0.000467297
0.00046737
0.000466152
0.000464431
0.000462761
0.000461457
0.000460608
0.000460112
0.000459812
0.000459631
0.000459545
0.000459545
0.000459631
0.000459809
0.000460096
0.000460549
0.00046128
0.000462286
0.000463257
0.000463471
0.000461686
0.00045604
0.000443779
0.000420464
0.000377516
0.000292572
8.0845e-05
8.21462e-05
0.00030614
0.000397922
0.000445345
0.000471768
0.000486106
0.000492854
0.00049469
0.00049341
0.000490379
0.000486752
0.000483454
0.000480988
0.000479477
0.000478648
0.000478124
0.000477793
0.000477634
0.000477635
0.000477794
0.000478121
0.000478629
0.000479405
0.00048077
0.000482867
0.000485312
0.000487132
0.000486643
0.000481545
0.000468745
0.000443533
0.000396952
0.000305715
8.21342e-05
8.27723e-05
0.000313155
0.000408687
0.000458478
0.000486231
0.000500908
0.000506961
0.000507026
0.000502968
0.000496481
0.000489388
0.000483381
0.000479108
0.000476712
0.000475534
0.000474685
0.000474111
0.000473833
0.000473834
0.000474113
0.000474684
0.000475515
0.000476636
0.000478872
0.000482731
0.000487774
0.000492833
0.00049541
0.000492508
0.000480693
0.000455156
0.0004069
0.000312372
8.27421e-05
8.3056e-05
0.000316638
0.000414173
0.000465159
0.000493306
0.000507404
0.000511638
0.000508349
0.000499253
0.000486443
0.00047322
0.000463431
0.000456912
0.000453745
0.000452525
0.000451232
0.000450285
0.000449839
0.00044984
0.000450288
0.000451233
0.00045251
0.000453678
0.000456687
0.00046278
0.000471541
0.000482559
0.000491154
0.000492866
0.000483879
0.000459545
0.000411147
0.000315304
8.29948e-05
8.31727e-05
0.000318192
0.000416651
0.000468029
0.000495847
0.000508541
0.000509737
0.000500984
0.000483136
0.000458306
0.000433332
0.000421196
0.000413874
0.000411214
0.000411018
0.000409144
0.000407733
0.000407121
0.000407122
0.000407737
0.000409147
0.000411011
0.000411165
0.000413692
0.000420622
0.000431728
0.000454353
0.000474693
0.000484825
0.000480954
0.000459309
0.000411971
0.000316114
8.30667e-05
8.32129e-05
0.000318764
0.000417534
0.000468824
0.000495871
0.000506599
0.00050369
0.00048691
0.000453897
0.000402793
0.000345718
0.000349891
0.00035135
0.000353203
0.000356034
0.000353605
0.000351969
0.000351362
0.000351363
0.000351972
0.000353609
0.000356035
0.000353179
0.000351242
0.000349496
0.000344465
0.000399015
0.000445263
0.000470254
0.000474182
0.000456467
0.000410971
0.000315839
8.30539e-05
8.32219e-05
0.000318899
0.000417705
0.000468735
0.000494939
0.000503679
0.000496374
0.000469497
0.00041108
0.000291395
9.74827e-05
0.000231696
0.000277116
0.000290741
0.000297823
0.000295718
0.000294646
0.000294346
0.000294347
0.000294649
0.000295723
0.000297831
0.000290743
0.0002771
0.000231666
9.73083e-05
0.000288383
0.000402446
0.00045248
0.000466358
0.000452973
0.000409443
0.000315211
8.30143e-05
8.32214e-05
0.000318896
0.00041769
0.000468545
0.000494238
0.000501781
0.000491653
0.000456818
0.000367395
0.000100451
8.67612e-05
0.000218802
0.000244835
0.000250121
0.000253003
0.00025398
0.000254207
0.000254208
0.000253984
0.00025301
0.00025013
0.000244848
0.000218821
8.67619e-05
9.98776e-05
0.000359132
0.000439639
0.000461378
0.000450787
0.000408447
0.000314761
8.29868e-05
8.32207e-05
0.000318897
0.000417749
0.000468651
0.000494404
0.000502165
0.000493097
0.000463411
0.000401098
0.000277534
9.34555e-05
0.000195158
0.000225074
0.000230713
0.000225756
0.000234225
0.000237173
0.000237751
0.000237751
0.000237175
0.000234229
0.000225752
0.000230705
0.000225052
0.000195086
9.32649e-05
0.000274491
0.000392377
0.000446252
0.000462854
0.000451154
0.000408542
0.000314744
8.29893e-05
8.32221e-05
0.000318943
0.000417932
0.000469072
0.000495288
0.00050407
0.000497511
0.000474632
0.000432267
0.000368008
0.00029515
0.000273253
0.000252525
0.00024434
0.000239877
0.000241782
0.00024274
0.000242957
0.000242956
0.000242739
0.000241778
0.00023986
0.000244304
0.000252424
0.000272909
0.000293951
0.000364215
0.000423485
0.000457631
0.000467445
0.000453186
0.000409479
0.000315111
8.30165e-05
8.32246e-05
0.000319019
0.000418184
0.000469638
0.000496444
0.00050637
0.000502105
0.000483964
0.000451372
0.000405247
0.000352573
0.000307625
0.000269151
0.000253198
0.00024746
0.000246315
0.000246133
0.000246098
0.000246098
0.000246132
0.00024631
0.000247445
0.000253155
0.000269019
0.000307175
0.000351113
0.000401284
0.000442618
0.000467106
0.000472209
0.000455628
0.00041071
0.000315633
8.30518e-05
8.32269e-05
0.000319098
0.00041843
0.000470177
0.000497509
0.000508359
0.000505695
0.00049026
0.000461972
0.000421559
0.000372735
0.000322431
0.000277443
0.000257693
0.000250567
0.000248404
0.000247827
0.000247697
0.000247697
0.000247827
0.000248401
0.000250554
0.00025765
0.000277303
0.000321953
0.000371203
0.000417545
0.000453239
0.000473484
0.000475905
0.000457711
0.000411821
0.000316122
8.30822e-05
8.32281e-05
0.000319161
0.000418622
0.000470593
0.000498307
0.000509783
0.000508087
0.000494058
0.000467597
0.000429048
0.000380956
0.000328905
0.000281389
0.000259931
0.000252013
0.000249471
0.000248761
0.000248601
0.000248602
0.000248762
0.00024947
0.000252002
0.000259889
0.00028125
0.000328425
0.000379398
0.000425009
0.000458864
0.000477311
0.000478343
0.000459175
0.000412631
0.000316484
8.31025e-05
8.32282e-05
0.000319201
0.000418746
0.00047086
0.000498808
0.000510648
0.000509472
0.000496114
0.0004704
0.000432452
0.000384428
0.000331642
0.000283139
0.000260956
0.000252674
0.00024998
0.000249221
0.000249053
0.000249054
0.000249223
0.000249979
0.000252663
0.000260914
0.000283
0.000331175
0.000382857
0.000428396
0.000461658
0.00047937
0.000479738
0.000460048
0.000413124
0.000316705
8.31133e-05
8.32276e-05
0.000319221
0.000418806
0.000470988
0.000499046
0.000511049
0.000510094
0.000497003
0.000471552
0.000433777
0.000385718
0.000332648
0.000283792
0.00026134
0.00025292
0.000250171
0.000249396
0.000249225
0.000249226
0.000249398
0.00025017
0.000252909
0.000261299
0.000283652
0.000332176
0.000384139
0.000429712
0.000462802
0.000480254
0.000480359
0.000460447
0.000413352
0.000316806
8.31171e-05
8.32267e-05
0.000319221
0.000418808
0.000470992
0.000499052
0.000511057
0.000510105
0.000497016
0.000471569
0.000433796
0.000385737
0.000332668
0.000283816
0.000261355
0.000252927
0.000250175
0.0002494
0.00024923
0.000249231
0.000249402
0.000250175
0.000252917
0.000261314
0.000283676
0.000332195
0.000384159
0.000429731
0.000462819
0.000480268
0.00048037
0.000460454
0.000413356
0.000316807
8.3116e-05
8.3226e-05
0.000319202
0.000418751
0.00047087
0.000498824
0.00051067
0.000509502
0.000496155
0.00047045
0.00043251
0.000384489
0.000331704
0.000283217
0.000261006
0.000252703
0.000250001
0.000249241
0.000249074
0.000249076
0.000249244
0.000250001
0.000252694
0.000260967
0.00028308
0.000331235
0.000382918
0.000428455
0.000461709
0.00047941
0.000479768
0.000460069
0.000413137
0.000316708
8.31105e-05
8.32251e-05
0.000319159
0.000418627
0.000470606
0.000498328
0.000509814
0.000508132
0.00049412
0.00046768
0.000429151
0.000381072
0.000329025
0.00028154
0.000260036
0.000252085
0.00024953
0.000248818
0.000248661
0.000248663
0.000248822
0.000249532
0.000252079
0.000260002
0.000281411
0.000328569
0.000379518
0.000425114
0.000458947
0.000477371
0.000478385
0.000459204
0.000412647
0.000316487
8.30988e-05
8.32233e-05
0.000319091
0.000418428
0.000470181
0.000497518
0.00050838
0.000505734
0.000490329
0.000462083
0.00042172
0.00037294
0.000322694
0.000277703
0.000257879
0.000250709
0.000248526
0.000247947
0.000247822
0.000247825
0.000247954
0.000248533
0.00025071
0.000257853
0.000277586
0.000322243
0.00037142
0.000417709
0.000453343
0.000473541
0.000475935
0.000457728
0.00041183
0.00031612
8.3078e-05
8.32203e-05
0.000318997
0.000418155
0.0004696
0.000496401
0.00050633
0.000502086
0.000483992
0.000451485
0.000405481
0.000352927
0.000308063
0.000269518
0.000253441
0.000247652
0.000246466
0.000246279
0.000246251
0.000246255
0.00024629
0.00024648
0.00024766
0.000253423
0.000269421
0.000307664
0.000351496
0.000401524
0.000442699
0.000467089
0.000472158
0.00045558
0.000410676
0.000315608
8.30466e-05
8.32155e-05
0.000318877
0.00041782
0.000468911
0.000495086
0.000503842
0.00049729
0.000474477
0.000432285
0.000368331
0.00029574
0.000273884
0.00025276
0.000244299
0.000239751
0.000241547
0.000242487
0.000242712
0.000242717
0.0002425
0.000241559
0.000239742
0.000244252
0.00025266
0.000273613
0.000294607
0.000364564
0.000423387
0.000457328
0.000467128
0.000452939
0.000409318
0.00031502
8.30081e-05
8.32078e-05
0.000318714
0.000417418
0.000468176
0.000493798
0.000501455
0.000492329
0.000462694
0.000400687
0.000277967
9.35767e-05
0.000195342
0.000223718
0.00022859
0.000223244
0.000231527
0.000234469
0.000235057
0.000235056
0.000234457
0.000231477
0.00022308
0.000228288
0.000223349
0.00019534
9.33842e-05
0.000274987
0.000391586
0.000445106
0.000461835
0.000450403
0.000408061
0.000314489
8.29723e-05
8.31913e-05
0.000318425
0.00041684
0.000467341
0.000492712
0.000499965
0.000489584
0.000454602
0.000365468
0.000100121
8.54706e-05
0.00021125
0.000235093
0.000239011
0.000241683
0.000242714
0.00024298
0.000242961
0.000242625
0.000241416
0.000238338
0.000233758
0.00020931
8.49279e-05
9.92627e-05
0.000355891
0.000436306
0.000458736
0.000448917
0.00040725
0.00031413
8.29481e-05
8.31478e-05
0.000317763
0.000415708
0.00046598
0.000491503
0.000499592
0.000491588
0.00046389
0.000404639
0.00028499
9.54142e-05
0.00021412
0.000253052
0.000260729
0.000263578
0.000261444
0.000260736
0.00026061
0.000260558
0.0002605
0.000260722
0.000261685
0.000256508
0.000245477
0.000206271
9.38786e-05
0.000277318
0.000391963
0.000444354
0.000460476
0.000448893
0.000406793
0.000313784
8.29252e-05
8.30331e-05
0.000316204
0.000413194
0.000463018
0.000488791
0.000498296
0.000493975
0.000475211
0.000439106
0.000383105
0.000318573
0.000308912
0.000296343
0.000282516
0.000276208
0.000273021
0.000271939
0.000271645
0.000271557
0.000271534
0.000271719
0.000272485
0.000273143
0.000277332
0.000288152
0.000300979
0.000366918
0.000422466
0.000454214
0.000462858
0.000448503
0.000405617
0.000312843
8.2852e-05
8.27547e-05
0.00031278
0.000407842
0.000456612
0.000482284
0.000493004
0.000491953
0.000479971
0.000456827
0.000423105
0.000383911
0.000350981
0.000317105
0.000284672
0.000271275
0.000266534
0.000265033
0.000264603
0.000264494
0.00026452
0.000264822
0.000266072
0.000270207
0.000283398
0.00031713
0.000355586
0.000400477
0.000437062
0.000458137
0.000461535
0.000445024
0.000401858
0.000310161
8.26222e-05
8.21349e-05
0.000305853
0.000397292
0.000443936
0.000468745
0.000479997
0.000481234
0.000473849
0.00045817
0.000434435
0.000403947
0.000369329
0.000331119
0.000294474
0.000278803
0.000273177
0.000271341
0.000270793
0.000270667
0.000270749
0.000271231
0.000272965
0.00027848
0.000294368
0.0003322
0.000372748
0.000410045
0.000437928
0.000452796
0.00045279
0.000435199
0.000392887
0.000303965
8.20476e-05
8.08429e-05
0.000292591
0.000377593
0.000420448
0.000443263
0.000454123
0.000456632
0.000452357
0.000441745
0.000424765
0.000401608
0.000373347
0.000342334
0.000314445
0.000300488
0.000294826
0.000292804
0.000292154
0.000292002
0.000292139
0.000292765
0.000294761
0.000300439
0.000314627
0.000343112
0.000374999
0.000403489
0.000424027
0.000434037
0.000431767
0.000414341
0.000374618
0.000291348
8.07925e-05
7.82556e-05
0.000267376
0.000341031
0.000377464
0.000396688
0.00040604
0.000408861
0.000406667
0.000399933
0.0003886
0.000372647
0.000352799
0.000331272
0.000312462
0.000301842
0.000297059
0.000295185
0.000294533
0.000294381
0.000294538
0.000295193
0.000297074
0.000301894
0.000312641
0.000331709
0.000353482
0.000372939
0.000386679
0.000392673
0.000389269
0.000373675
0.000339266
0.000266658
7.82322e-05
7.31665e-05
0.000215175
0.000267387
0.000292541
0.000305575
0.000311914
0.000314064
0.000313191
0.000309678
0.000303491
0.000294576
0.000283358
0.000271229
0.000260674
0.000254246
0.000251125
0.000249826
0.000249354
0.000249244
0.000249368
0.000249855
0.00025117
0.00025432
0.000260815
0.000271478
0.000283662
0.000294523
0.000302032
0.000304878
0.000301827
0.000290725
0.000266592
0.000214862
7.31607e-05
6.41189e-05
7.31663e-05
7.826e-05
8.08507e-05
8.21384e-05
8.27341e-05
8.29475e-05
8.29221e-05
8.27034e-05
8.22841e-05
8.16459e-05
8.08056e-05
7.98668e-05
7.90325e-05
7.85075e-05
7.82485e-05
7.81402e-05
7.81005e-05
7.8091e-05
7.81015e-05
7.81418e-05
7.82506e-05
7.85105e-05
7.90382e-05
7.98785e-05
8.08211e-05
8.16377e-05
8.21713e-05
8.23162e-05
8.19387e-05
8.07678e-05
7.82315e-05
7.31598e-05
6.41232e-05
6.73873e-05
7.98929e-05
8.67998e-05
9.03773e-05
9.22294e-05
9.31581e-05
9.35942e-05
9.37755e-05
9.38308e-05
9.38276e-05
9.38011e-05
9.37699e-05
9.37434e-05
9.37247e-05
9.37128e-05
9.37053e-05
9.37008e-05
9.36986e-05
9.36985e-05
9.37006e-05
9.37049e-05
9.37119e-05
9.37223e-05
9.37368e-05
9.37516e-05
9.37524e-05
9.37046e-05
9.35377e-05
9.31182e-05
9.22044e-05
9.03634e-05
8.67932e-05
7.98905e-05
6.73884e-05
7.9893e-05
0.000283818
0.000364887
0.00040498
0.000426531
0.000438081
0.000443902
0.000446446
0.000447186
0.000447
0.000446416
0.000445751
0.000445182
0.000444771
0.000444504
0.000444335
0.000444234
0.000444186
0.000444186
0.000444233
0.00044433
0.000444489
0.000444725
0.000445051
0.000445401
0.000445539
0.000444942
0.000442672
0.000437173
0.000425917
0.000404592
0.000364651
0.000283685
7.98904e-05
8.68025e-05
0.000364932
0.000486906
0.000549403
0.000583781
0.00060257
0.000612143
0.000616223
0.000617125
0.000616327
0.000614802
0.000613187
0.000611857
0.000610938
0.00061037
0.000610022
0.000609816
0.00060972
0.00060972
0.000609815
0.000610014
0.000610341
0.000610846
0.000611594
0.0006125
0.000613131
0.000612541
0.000609115
0.000600329
0.000582275
0.000548477
0.00048638
0.000364677
8.67967e-05
9.0383e-05
0.000405058
0.000549449
0.000625263
0.00066768
0.000691053
0.000702767
0.000707211
0.000707219
0.000704754
0.000701268
0.000697836
0.000695119
0.000693335
0.000692285
0.000691637
0.000691247
0.000691063
0.000691063
0.000691246
0.000691626
0.000692243
0.0006932
0.000694738
0.000696851
0.000698915
0.000699538
0.000696451
0.000686371
0.000664531
0.000623335
0.000548382
0.000404577
9.03688e-05
9.22381e-05
0.00042664
0.000583887
0.000667763
0.000715112
0.000741025
0.000753276