/*--------------------------------*- C++ -*----------------------------------*\
| =========                 |                                                 |
| \\      /  F ield         | OpenFOAM: The Open Source CFD Toolbox           |
|  \\    /   O peration     | Version:  2112                                  |
|   \\  /    A nd           | Website:  www.openfoam.com                      |
|    \\/     M anipulation  |                                                 |
\*---------------------------------------------------------------------------*/
FoamFile
{
    version     2.0;
    format      ascii;
    arch        "LSB;label=32;scalar=64";
    class       volScalarField;
    location    "3.8";
    object      p;
}
// * * * * * * * * * * * * * * * * * * * * * * * * * * * * * * * * * * * * * //

dimensions      [0 2 -2 0 0 0 0];

internalField   nonuniform List<scalar> 
64906
(
-5.12918e-06
-5.11196e-06
-5.09834e-06
-5.09837e-06
-5.11892e-06
-5.17124e-06
-5.24116e-06
-5.33489e-06
-5.45184e-06
-5.58976e-06
-5.7436e-06
-5.91419e-06
-6.07101e-06
-6.20967e-06
-6.3292e-06
-6.42675e-06
-6.49931e-06
-6.54545e-06
-6.56447e-06
-6.55654e-06
-6.52269e-06
-6.46464e-06
-6.3856e-06
-6.28808e-06
-6.17181e-06
-6.04823e-06
-5.94206e-06
-5.85278e-06
-5.78417e-06
-5.72976e-06
-5.71208e-06
-5.71533e-06
-5.73269e-06
-5.75139e-06
-5.07437e-06
-5.00675e-06
-4.95352e-06
-4.91493e-06
-4.90119e-06
-4.91285e-06
-4.94597e-06
-4.999e-06
-5.06859e-06
-5.15103e-06
-5.23818e-06
-5.31996e-06
-5.40609e-06
-5.49089e-06
-5.56403e-06
-5.62457e-06
-5.6709e-06
-5.70297e-06
-5.72055e-06
-5.72379e-06
-5.71321e-06
-5.68914e-06
-5.65359e-06
-5.60813e-06
-5.56518e-06
-5.52479e-06
-5.48223e-06
-5.4471e-06
-5.4281e-06
-5.42934e-06
-5.45853e-06
-5.51622e-06
-5.59107e-06
-5.67608e-06
-5.04691e-06
-4.94314e-06
-4.84313e-06
-4.75861e-06
-4.70657e-06
-4.68597e-06
-4.69383e-06
-4.72756e-06
-4.78314e-06
-4.85779e-06
-4.94109e-06
-5.02897e-06
-5.10858e-06
-5.18067e-06
-5.23848e-06
-5.28522e-06
-5.32065e-06
-5.34642e-06
-5.36285e-06
-5.37009e-06
-5.3681e-06
-5.3555e-06
-5.33298e-06
-5.29776e-06
-5.25746e-06
-5.21074e-06
-5.17279e-06
-5.14888e-06
-5.15206e-06
-5.18781e-06
-5.26291e-06
-5.38038e-06
-5.51563e-06
-5.65023e-06
-5.04863e-06
-4.91115e-06
-4.7677e-06
-4.63969e-06
-4.55414e-06
-4.51118e-06
-4.50942e-06
-4.54827e-06
-4.62521e-06
-4.74049e-06
-4.8779e-06
-5.03177e-06
-5.16043e-06
-5.26745e-06
-5.34402e-06
-5.40135e-06
-5.44122e-06
-5.46827e-06
-5.48359e-06
-5.48729e-06
-5.47857e-06
-5.45301e-06
-5.4094e-06
-5.33699e-06
-5.24587e-06
-5.13307e-06
-5.04371e-06
-4.9852e-06
-4.97823e-06
-5.02657e-06
-5.13518e-06
-5.30568e-06
-5.49586e-06
-5.67568e-06
-5.09381e-06
-4.92759e-06
-4.7493e-06
-4.58866e-06
-4.48282e-06
-4.43534e-06
-4.44872e-06
-4.5279e-06
-4.67545e-06
-4.89993e-06
-5.17662e-06
-5.49844e-06
-5.75581e-06
-5.95979e-06
-6.09773e-06
-6.19656e-06
-6.26052e-06
-6.29881e-06
-6.31335e-06
-6.3042e-06
-6.26969e-06
-6.20073e-06
-6.09386e-06
-5.92269e-06
-5.70202e-06
-5.42165e-06
-5.19738e-06
-5.03721e-06
-4.97227e-06
-4.99907e-06
-5.11754e-06
-5.32192e-06
-5.55473e-06
-5.77285e-06
-5.18466e-06
-4.99113e-06
-4.78382e-06
-4.60062e-06
-4.4878e-06
-4.45397e-06
-4.50722e-06
-4.66141e-06
-4.92896e-06
-5.33607e-06
-5.85308e-06
-6.49202e-06
-6.9717e-06
-7.33858e-06
-7.57889e-06
-7.74962e-06
-7.85688e-06
-7.91635e-06
-7.93051e-06
-7.89931e-06
-7.82044e-06
-7.67812e-06
-7.46725e-06
-7.13134e-06
-6.68777e-06
-6.09019e-06
-5.632e-06
-5.29742e-06
-5.12561e-06
-5.09674e-06
-5.20175e-06
-5.42319e-06
-5.69014e-06
-5.94533e-06
-5.31994e-06
-5.09675e-06
-4.86325e-06
-4.66468e-06
-4.5563e-06
-4.55185e-06
-4.66549e-06
-4.92182e-06
-5.34791e-06
-6.00687e-06
-6.85448e-06
-8.05769e-06
-8.85143e-06
-9.43704e-06
-9.80793e-06
-1.00727e-05
-1.02368e-05
-1.03248e-05
-1.0339e-05
-1.02792e-05
-1.01431e-05
-9.90567e-06
-9.5626e-06
-9.00552e-06
-8.24745e-06
-7.08275e-06
-6.30502e-06
-5.72637e-06
-5.4086e-06
-5.29702e-06
-5.36991e-06
-5.59693e-06
-5.89487e-06
-6.19125e-06
-5.49943e-06
-5.23809e-06
-4.9784e-06
-4.77027e-06
-4.67749e-06
-4.71766e-06
-4.90919e-06
-5.28253e-06
-5.88184e-06
-6.80614e-06
-8.00199e-06
-1.02429e-05
-1.1381e-05
-1.22308e-05
-1.27561e-05
-1.31387e-05
-1.33753e-05
-1.35001e-05
-1.35147e-05
-1.34188e-05
-1.32106e-05
-1.28546e-05
-1.23556e-05
-1.15304e-05
-1.04275e-05
-8.21397e-06
-7.11188e-06
-6.27222e-06
-5.79163e-06
-5.58168e-06
-5.60697e-06
-5.82956e-06
-6.16062e-06
-6.50569e-06
-5.71517e-06
-5.40372e-06
-5.11977e-06
-4.90456e-06
-4.83628e-06
-4.93348e-06
-5.21368e-06
-5.70388e-06
-6.41071e-06
-7.5063e-06
-9.05797e-06
-1.32021e-05
-1.43914e-05
-1.54855e-05
-1.61548e-05
-1.66432e-05
-1.6945e-05
-1.71039e-05
-1.71192e-05
-1.69904e-05
-1.67178e-05
-1.62561e-05
-1.56118e-05
-1.4535e-05
-1.33812e-05
-9.25105e-06
-7.85642e-06
-6.82056e-06
-6.23423e-06
-5.92307e-06
-5.89217e-06
-6.10921e-06
-6.46501e-06
-6.87993e-06
-5.95177e-06
-5.58696e-06
-5.27864e-06
-5.06432e-06
-5.03838e-06
-5.22114e-06
-5.63147e-06
-6.27299e-06
-7.18037e-06
-9.46166e-06
-7.5608e-06
-1.6215e-05
-1.73958e-05
-1.89608e-05
-1.98412e-05
-2.04957e-05
-2.08998e-05
-2.11085e-05
-2.11245e-05
-2.09474e-05
-2.05739e-05
-1.99473e-05
-1.90927e-05
-1.75403e-05
-1.64212e-05
-7.6579e-06
-9.78138e-06
-7.55846e-06
-6.80766e-06
-6.36318e-06
-6.23718e-06
-6.42669e-06
-6.80491e-06
-7.31886e-06
-6.2008e-06
-5.77619e-06
-5.44061e-06
-5.22971e-06
-5.25602e-06
-5.54151e-06
-6.06636e-06
-6.67771e-06
-7.27212e-06
-5.182e-06
-2.38577e-05
-2.13595e-05
-2.23014e-05
-2.30971e-05
-2.37912e-05
-2.42492e-05
-2.44812e-05
-2.44975e-05
-2.42977e-05
-2.38712e-05
-2.32058e-05
-2.24332e-05
-2.14975e-05
-2.3921e-05
-5.81242e-06
-7.78157e-06
-7.24957e-06
-6.81626e-06
-6.60195e-06
-6.74908e-06
-7.14946e-06
-7.77557e-06
-6.45361e-06
-5.9658e-06
-5.60474e-06
-5.40771e-06
-5.52004e-06
-6.01044e-06
-6.98245e-06
-8.57724e-06
-1.11858e-05
-1.44702e-05
-2.16284e-05
-2.04197e-05
-2.30183e-05
-2.48589e-05
-2.62309e-05
-2.72565e-05
-2.78877e-05
-2.81884e-05
-2.82047e-05
-2.79371e-05
-2.73398e-05
-2.63495e-05
-2.50157e-05
-2.32206e-05
-2.06662e-05
-2.19844e-05
-1.47861e-05
-1.15591e-05
-9.06734e-06
-7.69417e-06
-7.08403e-06
-7.09989e-06
-7.4884e-06
-8.25692e-06
-6.6975e-06
-6.14387e-06
-5.75151e-06
-5.55497e-06
-5.71883e-06
-6.32481e-06
-7.4823e-06
-9.27991e-06
-1.18138e-05
-1.47425e-05
-1.95712e-05
-2.21736e-05
-2.449e-05
-2.64949e-05
-2.80833e-05
-2.92116e-05
-2.99085e-05
-3.02407e-05
-3.02565e-05
-2.99564e-05
-2.92926e-05
-2.81988e-05
-2.66474e-05
-2.46764e-05
-2.2383e-05
-1.98436e-05
-1.50545e-05
-1.21557e-05
-9.73454e-06
-8.17714e-06
-7.42318e-06
-7.39253e-06
-7.81381e-06
-8.69305e-06
-6.93986e-06
-6.29457e-06
-5.88094e-06
-5.67994e-06
-5.87559e-06
-6.55625e-06
-7.83209e-06
-9.78636e-06
-1.25e-05
-1.57952e-05
-1.97898e-05
-2.28239e-05
-2.55349e-05
-2.77252e-05
-2.94261e-05
-3.05825e-05
-3.12871e-05
-3.1618e-05
-3.16329e-05
-3.13321e-05
-3.0659e-05
-2.95358e-05
-2.78711e-05
-2.57145e-05
-2.30398e-05
-2.00331e-05
-1.60528e-05
-1.27988e-05
-1.02113e-05
-8.51997e-06
-7.6882e-06
-7.64597e-06
-8.10977e-06
-9.08685e-06
-7.15184e-06
-6.42622e-06
-5.98911e-06
-5.7738e-06
-5.97644e-06
-6.68585e-06
-8.00593e-06
-1.00128e-05
-1.27586e-05
-1.60884e-05
-1.98341e-05
-2.31739e-05
-2.61422e-05
-2.84145e-05
-3.01468e-05
-3.12896e-05
-3.19763e-05
-3.22942e-05
-3.2308e-05
-3.2018e-05
-3.13604e-05
-3.02481e-05
-2.85494e-05
-2.63073e-05
-2.33719e-05
-2.00493e-05
-1.63184e-05
-1.30335e-05
-1.0424e-05
-8.70097e-06
-7.86062e-06
-7.84261e-06
-8.35786e-06
-9.42101e-06
-7.31733e-06
-6.54381e-06
-6.08003e-06
-5.84694e-06
-6.04592e-06
-6.76446e-06
-8.10098e-06
-1.01282e-05
-1.28852e-05
-1.6237e-05
-1.99514e-05
-2.3452e-05
-2.65416e-05
-2.88626e-05
-3.06052e-05
-3.17275e-05
-3.23918e-05
-3.26948e-05
-3.27078e-05
-3.2431e-05
-3.17938e-05
-3.06997e-05
-2.89877e-05
-2.66924e-05
-2.36276e-05
-2.01461e-05
-1.64489e-05
-1.31464e-05
-1.05357e-05
-8.81049e-06
-7.98316e-06
-7.99768e-06
-8.5594e-06
-9.69074e-06
-7.44267e-06
-6.63536e-06
-6.15086e-06
-5.90127e-06
-6.09214e-06
-6.80995e-06
-8.15003e-06
-1.01852e-05
-1.29504e-05
-1.63276e-05
-2.00658e-05
-2.36455e-05
-2.68209e-05
-2.91733e-05
-3.09207e-05
-3.20296e-05
-3.26793e-05
-3.29728e-05
-3.29855e-05
-3.27175e-05
-3.2094e-05
-3.10117e-05
-2.92926e-05
-2.69615e-05
-2.38039e-05
-2.02477e-05
-1.65296e-05
-1.32057e-05
-1.0595e-05
-8.87614e-06
-8.06731e-06
-8.11252e-06
-8.71127e-06
-9.89281e-06
-7.52754e-06
-6.69957e-06
-6.20234e-06
-5.94165e-06
-6.12662e-06
-6.84372e-06
-8.18767e-06
-1.02322e-05
-1.30119e-05
-1.64167e-05
-2.01879e-05
-2.38197e-05
-2.70503e-05
-2.94303e-05
-3.11877e-05
-3.22954e-05
-3.29411e-05
-3.32316e-05
-3.32447e-05
-3.29805e-05
-3.23614e-05
-3.12804e-05
-2.9551e-05
-2.71928e-05
-2.39849e-05
-2.03695e-05
-1.66168e-05
-1.32668e-05
-1.06467e-05
-8.92761e-06
-8.12903e-06
-8.1935e-06
-8.81543e-06
-1.00284e-05
-7.56766e-06
-6.73958e-06
-6.23523e-06
-5.96969e-06
-6.15305e-06
-6.87201e-06
-8.22356e-06
-1.02815e-05
-1.30816e-05
-1.65146e-05
-2.03186e-05
-2.39841e-05
-2.72457e-05
-2.96479e-05
-3.14197e-05
-3.25371e-05
-3.31886e-05
-3.34826e-05
-3.34968e-05
-3.32315e-05
-3.26084e-05
-3.15192e-05
-2.97766e-05
-2.73985e-05
-2.41653e-05
-2.05078e-05
-1.67191e-05
-1.33402e-05
-1.07013e-05
-8.97253e-06
-8.17257e-06
-8.24234e-06
-8.87279e-06
-1.00988e-05
-7.56604e-06
-6.75384e-06
-6.24959e-06
-5.98567e-06
-6.17205e-06
-6.8974e-06
-8.25786e-06
-1.03319e-05
-1.31571e-05
-1.6619e-05
-2.04565e-05
-2.4138e-05
-2.74083e-05
-2.98258e-05
-3.16146e-05
-3.2751e-05
-3.34173e-05
-3.37205e-05
-3.37367e-05
-3.34659e-05
-3.28313e-05
-3.1726e-05
-2.99677e-05
-2.75723e-05
-2.43192e-05
-2.06532e-05
-1.68317e-05
-1.34228e-05
-1.07573e-05
-9.01049e-06
-8.19823e-06
-8.25981e-06
-8.88451e-06
-1.01054e-05
-7.52459e-06
-6.74403e-06
-6.24616e-06
-5.98864e-06
-6.17923e-06
-6.90808e-06
-8.27728e-06
-1.03669e-05
-1.32218e-05
-1.67158e-05
-2.06026e-05
-2.42816e-05
-2.75337e-05
-2.99569e-05
-3.17631e-05
-3.29272e-05
-3.36169e-05
-3.39352e-05
-3.39543e-05
-3.36743e-05
-3.30217e-05
-3.18935e-05
-3.01214e-05
-2.77224e-05
-2.44868e-05
-2.08191e-05
-1.69459e-05
-1.35022e-05
-1.08033e-05
-9.03428e-06
-8.20327e-06
-8.24648e-06
-8.85256e-06
-1.00505e-05
-7.44871e-06
-6.70993e-06
-6.22469e-06
-5.97475e-06
-6.16463e-06
-6.88595e-06
-8.24712e-06
-1.03339e-05
-1.32085e-05
-1.6737e-05
-2.07417e-05
-2.44034e-05
-2.75758e-05
-2.99757e-05
-3.17845e-05
-3.29775e-05
-3.36953e-05
-3.40328e-05
-3.40561e-05
-3.37649e-05
-3.30922e-05
-3.19431e-05
-3.01752e-05
-2.78068e-05
-2.46563e-05
-2.09906e-05
-1.69969e-05
-1.35163e-05
-1.07924e-05
-9.01524e-06
-8.17396e-06
-8.19843e-06
-8.77759e-06
-9.93651e-06
-7.33297e-06
-6.6665e-06
-6.18946e-06
-5.94478e-06
-6.12467e-06
-6.81954e-06
-8.14328e-06
-1.01899e-05
-1.30633e-05
-1.66228e-05
-2.09346e-05
-2.44972e-05
-2.74885e-05
-2.98328e-05
-3.16225e-05
-3.28376e-05
-3.358e-05
-3.39365e-05
-3.3966e-05
-3.36686e-05
-3.29842e-05
-3.18267e-05
-3.00895e-05
-2.77871e-05
-2.48123e-05
-2.12314e-05
-1.69417e-05
-1.34241e-05
-1.06922e-05
-8.93866e-06
-8.10781e-06
-8.12016e-06
-8.6668e-06
-9.77138e-06
-7.21483e-06
-6.59173e-06
-6.13521e-06
-5.89022e-06
-6.03853e-06
-6.66386e-06
-7.87497e-06
-9.75839e-06
-1.24018e-05
-1.55394e-05
-2.09456e-05
-2.48008e-05
-2.71814e-05
-2.9314e-05
-3.09978e-05
-3.21948e-05
-3.29415e-05
-3.33104e-05
-3.33489e-05
-3.30582e-05
-3.23889e-05
-3.12715e-05
-2.966e-05
-2.75935e-05
-2.52488e-05
-2.12958e-05
-1.59165e-05
-1.28328e-05
-1.0334e-05
-8.72437e-06
-7.96979e-06
-8.00061e-06
-8.52098e-06
-9.56268e-06
-7.08716e-06
-6.50965e-06
-6.07499e-06
-5.82788e-06
-5.93359e-06
-6.46451e-06
-7.53296e-06
-9.29486e-06
-1.2182e-05
-1.60397e-05
-2.24115e-05
-2.31785e-05
-2.63143e-05
-2.8606e-05
-3.01815e-05
-3.13464e-05
-3.20755e-05
-3.24425e-05
-3.24963e-05
-3.22397e-05
-3.16217e-05
-3.05731e-05
-2.90948e-05
-2.68887e-05
-2.37708e-05
-2.27332e-05
-1.66742e-05
-1.2814e-05
-1.00175e-05
-8.47548e-06
-7.8091e-06
-7.87179e-06
-8.36962e-06
-9.32649e-06
-6.95644e-06
-6.42435e-06
-6.00778e-06
-5.74877e-06
-5.78159e-06
-6.12272e-06
-6.7188e-06
-7.31407e-06
-7.79067e-06
-4.54912e-06
-3.01295e-05
-2.64584e-05
-2.74824e-05
-2.84397e-05
-2.93039e-05
-2.99026e-05
-3.02337e-05
-3.03054e-05
-3.01235e-05
-2.96797e-05
-2.89883e-05
-2.81747e-05
-2.73111e-05
-3.09388e-05
-5.14913e-06
-8.53714e-06
-8.15802e-06
-7.76859e-06
-7.52245e-06
-7.70587e-06
-8.22299e-06
-9.05684e-06
-6.83788e-06
-6.34956e-06
-5.95875e-06
-5.70923e-06
-5.73073e-06
-6.06847e-06
-6.79596e-06
-8.01742e-06
-1.00393e-05
-1.33377e-05
-1.42648e-05
-2.11987e-05
-2.34373e-05
-2.55747e-05
-2.69863e-05
-2.80716e-05
-2.87809e-05
-2.91778e-05
-2.92749e-05
-2.90838e-05
-2.85929e-05
-2.77563e-05
-2.65469e-05
-2.4666e-05
-2.24867e-05
-1.61594e-05
-1.49224e-05
-1.13729e-05
-9.18267e-06
-7.99451e-06
-7.51454e-06
-7.62554e-06
-8.08773e-06
-8.8186e-06
-6.73802e-06
-6.29039e-06
-5.92669e-06
-5.68992e-06
-5.69819e-06
-5.99442e-06
-6.63193e-06
-7.66113e-06
-9.11158e-06
-1.10043e-05
-1.47865e-05
-1.94972e-05
-2.16393e-05
-2.36386e-05
-2.51048e-05
-2.62405e-05
-2.69806e-05
-2.74004e-05
-2.75156e-05
-2.73436e-05
-2.68721e-05
-2.60546e-05
-2.48369e-05
-2.31502e-05
-2.10748e-05
-1.65611e-05
-1.23953e-05
-1.04289e-05
-8.8941e-06
-7.89222e-06
-7.45407e-06
-7.54598e-06
-7.96933e-06
-8.64452e-06
-6.6592e-06
-6.26044e-06
-5.93306e-06
-5.72264e-06
-5.73548e-06
-6.01341e-06
-6.61421e-06
-7.61312e-06
-9.12464e-06
-1.12218e-05
-1.39556e-05
-1.7244e-05
-1.9643e-05
-2.17222e-05
-2.32567e-05
-2.44443e-05
-2.52097e-05
-2.56407e-05
-2.57627e-05
-2.55977e-05
-2.51268e-05
-2.43036e-05
-2.30626e-05
-2.13554e-05
-1.90829e-05
-1.58862e-05
-1.29742e-05
-1.06456e-05
-8.95455e-06
-7.9199e-06
-7.46616e-06
-7.52316e-06
-7.89951e-06
-8.52552e-06
-6.63094e-06
-6.27124e-06
-5.98886e-06
-5.81643e-06
-5.84356e-06
-6.10484e-06
-6.64882e-06
-7.5396e-06
-8.85324e-06
-1.06502e-05
-1.29085e-05
-1.54639e-05
-1.76952e-05
-1.96776e-05
-2.11698e-05
-2.23107e-05
-2.30427e-05
-2.34541e-05
-2.35761e-05
-2.34276e-05
-2.29921e-05
-2.22257e-05
-2.10529e-05
-1.94552e-05
-1.73466e-05
-1.48312e-05
-1.23984e-05
-1.03833e-05
-8.89671e-06
-7.95663e-06
-7.5296e-06
-7.56049e-06
-7.88712e-06
-8.4603e-06
-6.64279e-06
-6.33046e-06
-6.11039e-06
-5.99577e-06
-6.05733e-06
-6.32029e-06
-6.81925e-06
-7.5991e-06
-8.70927e-06
-1.01802e-05
-1.19788e-05
-1.39888e-05
-1.58909e-05
-1.76384e-05
-1.89893e-05
-2.00166e-05
-2.06829e-05
-2.10605e-05
-2.11862e-05
-2.10483e-05
-2.06594e-05
-1.99773e-05
-1.89374e-05
-1.75394e-05
-1.57499e-05
-1.37568e-05
-1.1819e-05
-1.01712e-05
-8.92123e-06
-8.10391e-06
-7.70705e-06
-7.69788e-06
-7.95372e-06
-8.4552e-06
-6.69209e-06
-6.43671e-06
-6.30445e-06
-6.2713e-06
-6.39168e-06
-6.68312e-06
-7.16922e-06
-7.87841e-06
-8.83756e-06
-1.00555e-05
-1.14971e-05
-1.30873e-05
-1.46462e-05
-1.60941e-05
-1.72432e-05
-1.81217e-05
-1.87035e-05
-1.90369e-05
-1.91434e-05
-1.90336e-05
-1.86981e-05
-1.81131e-05
-1.72364e-05
-1.60776e-05
-1.46322e-05
-1.30663e-05
-1.15398e-05
-1.02075e-05
-9.15922e-06
-8.43457e-06
-8.03902e-06
-7.95793e-06
-8.10621e-06
-8.51034e-06
-6.75147e-06
-6.59163e-06
-6.53844e-06
-6.59124e-06
-6.78414e-06
-7.13123e-06
-7.64873e-06
-8.35237e-06
-9.25001e-06
-1.03368e-05
-1.1588e-05
-1.29436e-05
-1.42784e-05
-1.55169e-05
-1.65281e-05
-1.73113e-05
-1.78459e-05
-1.81573e-05
-1.82573e-05
-1.81546e-05
-1.78417e-05
-1.73065e-05
-1.6528e-05
-1.55219e-05
-1.43029e-05
-1.29935e-05
-1.17016e-05
-1.05579e-05
-9.61798e-06
-8.92137e-06
-8.48411e-06
-8.30447e-06
-8.33534e-06
-8.59024e-06
-6.80621e-06
-6.74448e-06
-6.77455e-06
-6.90481e-06
-7.17008e-06
-7.59089e-06
-8.18705e-06
-8.97424e-06
-9.95817e-06
-1.11268e-05
-1.24312e-05
-1.38029e-05
-1.51481e-05
-1.63948e-05
-1.74386e-05
-1.8261e-05
-1.88374e-05
-1.91761e-05
-1.92823e-05
-1.91607e-05
-1.88077e-05
-1.82184e-05
-1.7388e-05
-1.63409e-05
-1.51086e-05
-1.37959e-05
-1.24998e-05
-1.13038e-05
-1.02965e-05
-9.52092e-06
-8.98984e-06
-8.69523e-06
-8.59358e-06
-8.67552e-06
-5.18121e-06
-5.18458e-06
-5.19609e-06
-5.21915e-06
-5.26065e-06
-5.31738e-06
-5.40477e-06
-5.52027e-06
-5.66259e-06
-5.8291e-06
-6.01188e-06
-6.20435e-06
-6.38983e-06
-6.55977e-06
-6.70573e-06
-6.82385e-06
-6.91028e-06
-6.96365e-06
-6.98319e-06
-6.96904e-06
-6.92235e-06
-6.84482e-06
-6.74058e-06
-6.61365e-06
-6.47281e-06
-6.32742e-06
-6.19367e-06
-6.07745e-06
-5.9862e-06
-5.92671e-06
-5.8794e-06
-5.8504e-06
-5.83216e-06
-5.81969e-06
-5.13951e-06
-5.11417e-06
-5.10307e-06
-5.09887e-06
-5.11371e-06
-5.15052e-06
-5.21239e-06
-5.29885e-06
-5.40603e-06
-5.53052e-06
-5.6614e-06
-5.79533e-06
-5.92395e-06
-6.04612e-06
-6.15126e-06
-6.23797e-06
-6.30245e-06
-6.34442e-06
-6.36317e-06
-6.35885e-06
-6.33249e-06
-6.28464e-06
-6.21953e-06
-6.13887e-06
-6.05386e-06
-5.96469e-06
-5.88087e-06
-5.80564e-06
-5.75001e-06
-5.71721e-06
-5.70715e-06
-5.71756e-06
-5.73391e-06
-5.75955e-06
-5.12808e-06
-5.09535e-06
-5.07221e-06
-5.04631e-06
-5.04319e-06
-5.06914e-06
-5.12767e-06
-5.22003e-06
-5.34171e-06
-5.49249e-06
-5.65401e-06
-5.8289e-06
-5.98615e-06
-6.13276e-06
-6.2517e-06
-6.34781e-06
-6.41659e-06
-6.46033e-06
-6.47852e-06
-6.47127e-06
-6.43943e-06
-6.38095e-06
-6.30085e-06
-6.19455e-06
-6.07999e-06
-5.94997e-06
-5.83728e-06
-5.73957e-06
-5.67654e-06
-5.64831e-06
-5.65622e-06
-5.69262e-06
-5.72258e-06
-5.75496e-06
-5.14546e-06
-5.09806e-06
-5.05746e-06
-5.00904e-06
-4.99106e-06
-5.01401e-06
-5.08462e-06
-5.20825e-06
-5.38106e-06
-5.61037e-06
-5.86364e-06
-6.15409e-06
-6.40016e-06
-6.62397e-06
-6.79375e-06
-6.9264e-06
-7.01605e-06
-7.06977e-06
-7.08731e-06
-7.06876e-06
-7.01467e-06
-6.91812e-06
-6.78571e-06
-6.60079e-06
-6.39682e-06
-6.15182e-06
-5.95091e-06
-5.78094e-06
-5.6775e-06
-5.6334e-06
-5.64804e-06
-5.70634e-06
-5.75361e-06
-5.80182e-06
-5.2066e-06
-5.14065e-06
-5.08493e-06
-5.02162e-06
-5.00026e-06
-5.03648e-06
-5.142e-06
-5.32949e-06
-5.59762e-06
-5.97033e-06
-6.39116e-06
-6.90215e-06
-7.30902e-06
-7.67196e-06
-7.93264e-06
-8.13154e-06
-8.25975e-06
-8.33253e-06
-8.34964e-06
-8.31106e-06
-8.21733e-06
-8.05318e-06
-7.82852e-06
-7.50302e-06
-7.13802e-06
-6.67322e-06
-6.30981e-06
-6.00392e-06
-5.81749e-06
-5.72656e-06
-5.7269e-06
-5.79294e-06
-5.85323e-06
-5.92055e-06
-5.31488e-06
-5.22509e-06
-5.15669e-06
-5.08668e-06
-5.07438e-06
-5.14078e-06
-5.30327e-06
-5.58416e-06
-5.98619e-06
-6.56521e-06
-7.23516e-06
-8.1167e-06
-8.76063e-06
-9.32853e-06
-9.71798e-06
-1.00123e-05
-1.0196e-05
-1.0297e-05
-1.0314e-05
-1.02467e-05
-1.00967e-05
-9.83598e-06
-9.48109e-06
-8.94863e-06
-8.34615e-06
-7.51081e-06
-6.90537e-06
-6.40101e-06
-6.09394e-06
-5.92784e-06
-5.89399e-06
-5.95444e-06
-6.02338e-06
-6.11681e-06
-5.47017e-06
-5.35025e-06
-5.27132e-06
-5.20167e-06
-5.20936e-06
-5.31954e-06
-5.55408e-06
-5.94514e-06
-6.49922e-06
-7.33945e-06
-8.33116e-06
-9.82594e-06
-1.07605e-05
-1.15725e-05
-1.21009e-05
-1.25005e-05
-1.27435e-05
-1.28757e-05
-1.28928e-05
-1.27944e-05
-1.25849e-05
-1.22177e-05
-1.17221e-05
-1.09425e-05
-1.00487e-05
-8.59822e-06
-7.68288e-06
-6.92464e-06
-6.47886e-06
-6.22136e-06
-6.1404e-06
-6.18645e-06
-6.26196e-06
-6.39097e-06
-5.6665e-06
-5.51102e-06
-5.42401e-06
-5.36304e-06
-5.40442e-06
-5.57491e-06
-5.89721e-06
-6.40276e-06
-7.09865e-06
-8.14948e-06
-9.51084e-06
-1.20473e-05
-1.32437e-05
-1.43239e-05
-1.5004e-05
-1.55317e-05
-1.58494e-05
-1.60215e-05
-1.6039e-05
-1.59014e-05
-1.56174e-05
-1.51211e-05
-1.44718e-05
-1.3419e-05
-1.22605e-05
-9.75972e-06
-8.49792e-06
-7.53215e-06
-6.95759e-06
-6.60453e-06
-6.46337e-06
-6.48457e-06
-6.56364e-06
-6.74031e-06
-5.89467e-06
-5.69725e-06
-5.60299e-06
-5.55509e-06
-5.63786e-06
-5.87435e-06
-6.27862e-06
-6.86538e-06
-7.5606e-06
-8.67566e-06
-1.02758e-05
-1.50928e-05
-1.60499e-05
-1.71847e-05
-1.79179e-05
-1.85011e-05
-1.88489e-05
-1.90416e-05
-1.90594e-05
-1.89016e-05
-1.85876e-05
-1.80348e-05
-1.73299e-05
-1.62129e-05
-1.52904e-05
-1.04926e-05
-9.06201e-06
-8.01037e-06
-7.44232e-06
-7.02365e-06
-6.82848e-06
-6.82486e-06
-6.90863e-06
-7.1542e-06
-6.15439e-06
-5.90371e-06
-5.80716e-06
-5.78852e-06
-5.94419e-06
-6.29564e-06
-6.85772e-06
-7.55631e-06
-8.33871e-06
-1.03617e-05
-7.10345e-06
-1.7376e-05
-1.8253e-05
-1.97545e-05
-2.06431e-05
-2.13959e-05
-2.18291e-05
-2.20621e-05
-2.20798e-05
-2.18816e-05
-2.14825e-05
-2.07603e-05
-1.98992e-05
-1.84099e-05
-1.75951e-05
-7.1802e-06
-1.0694e-05
-8.74743e-06
-8.12667e-06
-7.61572e-06
-7.29499e-06
-7.22397e-06
-7.29253e-06
-7.61461e-06
-6.42975e-06
-6.11493e-06
-6.01271e-06
-6.0229e-06
-6.25198e-06
-6.71629e-06
-7.39996e-06
-8.10848e-06
-8.3666e-06
-4.36865e-06
-2.49338e-05
-2.10116e-05
-2.16605e-05
-2.24077e-05
-2.30291e-05
-2.34358e-05
-2.36541e-05
-2.36709e-05
-2.34855e-05
-2.31107e-05
-2.25184e-05
-2.17953e-05
-2.1149e-05
-2.49612e-05
-5.0868e-06
-8.8933e-06
-8.7043e-06
-8.17133e-06
-7.75046e-06
-7.61351e-06
-7.67546e-06
-8.11308e-06
-6.71075e-06
-6.32837e-06
-6.23063e-06
-6.29715e-06
-6.66736e-06
-7.40929e-06
-8.63395e-06
-1.03975e-05
-1.32202e-05
-1.60215e-05
-2.28201e-05
-1.96353e-05
-2.1493e-05
-2.3085e-05
-2.42729e-05
-2.50629e-05
-2.55808e-05
-2.58422e-05
-2.58582e-05
-2.56288e-05
-2.51433e-05
-2.43861e-05
-2.32329e-05
-2.16824e-05
-1.98647e-05
-2.31624e-05
-1.62997e-05
-1.35717e-05
-1.08904e-05
-9.34338e-06
-8.4281e-06
-8.07295e-06
-8.06817e-06
-8.63143e-06
-6.98067e-06
-6.52945e-06
-6.42488e-06
-6.52244e-06
-6.97589e-06
-7.86191e-06
-9.29196e-06
-1.12608e-05
-1.39279e-05
-1.63889e-05
-2.04793e-05
-2.14026e-05
-2.2487e-05
-2.3611e-05
-2.46375e-05
-2.54034e-05
-2.59367e-05
-2.62078e-05
-2.62226e-05
-2.5981e-05
-2.54771e-05
-2.47388e-05
-2.3739e-05
-2.26335e-05
-2.15563e-05
-2.07005e-05
-1.66575e-05
-1.42458e-05
-1.17151e-05
-9.9801e-06
-8.8924e-06
-8.44622e-06
-8.42978e-06
-9.11601e-06
-7.23372e-06
-6.71544e-06
-6.60624e-06
-6.73224e-06
-7.26029e-06
-8.27609e-06
-9.89005e-06
-1.20863e-05
-1.49138e-05
-1.77801e-05
-2.09301e-05
-2.2411e-05
-2.35836e-05
-2.46442e-05
-2.56584e-05
-2.64127e-05
-2.69425e-05
-2.72085e-05
-2.72223e-05
-2.69837e-05
-2.64812e-05
-2.57519e-05
-2.47619e-05
-2.37162e-05
-2.25611e-05
-2.11084e-05
-1.79913e-05
-1.51869e-05
-1.25059e-05
-1.05643e-05
-9.32622e-06
-8.80096e-06
-8.77314e-06
-9.55641e-06
-7.45409e-06
-6.87787e-06
-6.75769e-06
-6.8931e-06
-7.4569e-06
-8.53499e-06
-1.02263e-05
-1.25096e-05
-1.53584e-05
-1.83234e-05
-2.12466e-05
-2.30241e-05
-2.43508e-05
-2.53979e-05
-2.64049e-05
-2.7143e-05
-2.76645e-05
-2.79237e-05
-2.79366e-05
-2.77027e-05
-2.72059e-05
-2.64896e-05
-2.55029e-05
-2.44643e-05
-2.31521e-05
-2.13931e-05
-1.85053e-05
-1.56099e-05
-1.29173e-05
-1.09079e-05
-9.62205e-06
-9.07786e-06
-9.06448e-06
-9.92732e-06
-7.63287e-06
-7.01628e-06
-6.88487e-06
-7.02297e-06
-7.6078e-06
-8.72506e-06
-1.04654e-05
-1.2807e-05
-1.56814e-05
-1.87048e-05
-2.15803e-05
-2.35269e-05
-2.49324e-05
-2.60046e-05
-2.70246e-05
-2.77563e-05
-2.82711e-05
-2.85239e-05
-2.85361e-05
-2.83072e-05
-2.78156e-05
-2.71031e-05
-2.61002e-05
-2.50308e-05
-2.36292e-05
-2.17054e-05
-1.88694e-05
-1.59209e-05
-1.32126e-05
-1.11621e-05
-9.85242e-06
-9.30408e-06
-9.30631e-06
-1.02252e-05
-7.768e-06
-7.12382e-06
-6.98226e-06
-7.11755e-06
-7.71009e-06
-8.84509e-06
-1.06082e-05
-1.29797e-05
-1.58719e-05
-1.89417e-05
-2.18358e-05
-2.39286e-05
-2.53425e-05
-2.6432e-05
-2.74618e-05
-2.81908e-05
-2.87022e-05
-2.89516e-05
-2.89636e-05
-2.87378e-05
-2.82487e-05
-2.75375e-05
-2.65227e-05
-2.54306e-05
-2.3992e-05
-2.19476e-05
-1.90985e-05
-1.61084e-05
-1.33907e-05
-1.13238e-05
-1.00105e-05
-9.46969e-06
-9.48867e-06
-1.04463e-05
-7.85901e-06
-7.19928e-06
-7.05151e-06
-7.18421e-06
-7.78046e-06
-8.9258e-06
-1.07042e-05
-1.3098e-05
-1.60116e-05
-1.91191e-05
-2.20386e-05
-2.4152e-05
-2.56425e-05
-2.67565e-05
-2.77978e-05
-2.85304e-05
-2.9043e-05
-2.92924e-05
-2.93049e-05
-2.908e-05
-2.85904e-05
-2.78759e-05
-2.68496e-05
-2.57374e-05
-2.42639e-05
-2.21563e-05
-1.92774e-05
-1.62514e-05
-1.35173e-05
-1.14368e-05
-1.01202e-05
-9.58444e-06
-9.6136e-06
-1.05935e-05
-7.90489e-06
-7.24255e-06
-7.09248e-06
-7.22389e-06
-7.82177e-06
-8.97256e-06
-1.07613e-05
-1.31718e-05
-1.61083e-05
-1.92465e-05
-2.21979e-05
-2.43381e-05
-2.58581e-05
-2.69891e-05
-2.80414e-05
-2.87823e-05
-2.93003e-05
-2.95531e-05
-2.95669e-05
-2.93411e-05
-2.88482e-05
-2.81273e-05
-2.70919e-05
-2.59685e-05
-2.45104e-05
-2.23302e-05
-1.94137e-05
-1.63564e-05
-1.36011e-05
-1.15072e-05
-1.01848e-05
-9.649e-06
-9.68099e-06
-1.06689e-05
-7.90678e-06
-7.25386e-06
-7.10559e-06
-7.23704e-06
-7.83449e-06
-8.98588e-06
-1.07793e-05
-1.31996e-05
-1.61597e-05
-1.93227e-05
-2.23136e-05
-2.44744e-05
-2.5994e-05
-2.71344e-05
-2.81953e-05
-2.89481e-05
-2.94751e-05
-2.97344e-05
-2.97504e-05
-2.95224e-05
-2.90244e-05
-2.8295e-05
-2.72528e-05
-2.61163e-05
-2.46105e-05
-2.24558e-05
-1.95044e-05
-1.64213e-05
-1.36411e-05
-1.1535e-05
-1.0205e-05
-9.66455e-06
-9.69227e-06
-1.06741e-05
-7.86665e-06
-7.23543e-06
-7.09258e-06
-7.22413e-06
-7.81673e-06
-8.96012e-06
-1.0749e-05
-1.31692e-05
-1.61539e-05
-1.93353e-05
-2.23892e-05
-2.45659e-05
-2.60489e-05
-2.71928e-05
-2.82609e-05
-2.90302e-05
-2.95699e-05
-2.98391e-05
-2.98584e-05
-2.96272e-05
-2.91225e-05
-2.83823e-05
-2.73371e-05
-2.61977e-05
-2.47076e-05
-2.25547e-05
-1.95424e-05
-1.64382e-05
-1.36299e-05
-1.15168e-05
-1.0181e-05
-9.63412e-06
-9.65134e-06
-1.06108e-05
-7.78756e-06
-7.18917e-06
-7.05269e-06
-7.17893e-06
-7.75302e-06
-8.86547e-06
-1.06198e-05
-1.30051e-05
-1.59983e-05
-1.9188e-05
-2.23744e-05
-2.44914e-05
-2.59676e-05
-2.71082e-05
-2.81718e-05
-2.89567e-05
-2.951e-05
-2.97914e-05
-2.98153e-05
-2.95812e-05
-2.90716e-05
-2.83249e-05
-2.72916e-05
-2.61649e-05
-2.46962e-05
-2.25818e-05
-1.9435e-05
-1.63192e-05
-1.34983e-05
-1.14092e-05
-1.0091e-05
-9.55058e-06
-9.55907e-06
-1.04801e-05
-7.67397e-06
-7.12367e-06
-6.99384e-06
-7.11005e-06
-7.6535e-06
-8.7139e-06
-1.04051e-05
-1.27204e-05
-1.57157e-05
-1.88554e-05
-2.23588e-05
-2.44182e-05
-2.57686e-05
-2.69414e-05
-2.80217e-05
-2.88343e-05
-2.94047e-05
-2.97007e-05
-2.97313e-05
-2.94966e-05
-2.89832e-05
-2.82238e-05
-2.71857e-05
-2.60415e-05
-2.47041e-05
-2.26251e-05
-1.9168e-05
-1.6098e-05
-1.32699e-05
-1.12349e-05
-9.95544e-06
-9.43247e-06
-9.43097e-06
-1.02912e-05
-7.53954e-06
-7.03697e-06
-6.91003e-06
-6.99975e-06
-7.47589e-06
-8.41697e-06
-9.93246e-06
-1.20147e-05
-1.47922e-05
-1.74529e-05
-2.21178e-05
-2.44298e-05
-2.54188e-05
-2.65916e-05
-2.76598e-05
-2.84815e-05
-2.90604e-05
-2.93695e-05
-2.94086e-05
-2.91783e-05
-2.8673e-05
-2.79251e-05
-2.69172e-05
-2.58016e-05
-2.48474e-05
-2.24331e-05
-1.78324e-05
-1.52578e-05
-1.26555e-05
-1.08357e-05
-9.69992e-06
-9.25202e-06
-9.2649e-06
-1.00502e-05
-7.39305e-06
-6.94567e-06
-6.82588e-06
-6.89367e-06
-7.30754e-06
-8.13754e-06
-9.49722e-06
-1.14267e-05
-1.44646e-05
-1.78169e-05
-2.34672e-05
-2.261e-05
-2.4902e-05
-2.68012e-05
-2.81105e-05
-2.90082e-05
-2.96109e-05
-2.99349e-05
-2.99881e-05
-2.97728e-05
-2.92717e-05
-2.84789e-05
-2.72488e-05
-2.54413e-05
-2.31812e-05
-2.37494e-05
-1.84256e-05
-1.51097e-05
-1.22164e-05
-1.0509e-05
-9.4819e-06
-9.09106e-06
-9.10402e-06
-9.78719e-06
-7.24255e-06
-6.84928e-06
-6.72658e-06
-6.74928e-06
-7.04391e-06
-7.62162e-06
-8.44186e-06
-9.19654e-06
-9.19424e-06
-3.366e-06
-3.15515e-05
-2.58365e-05
-2.6377e-05
-2.71416e-05
-2.78343e-05
-2.83292e-05
-2.86235e-05
-2.869e-05
-2.85336e-05
-2.81669e-05
-2.76163e-05
-2.69484e-05
-2.65459e-05
-3.22052e-05
-4.00506e-06
-1.00188e-05
-1.01619e-05
-9.59999e-06
-9.05663e-06
-8.85571e-06
-8.92404e-06
-9.50981e-06
-7.10634e-06
-6.7652e-06
-6.6573e-06
-6.67829e-06
-6.95727e-06
-7.53782e-06
-8.48183e-06
-9.77271e-06
-1.16745e-05
-1.47195e-05
-1.43152e-05
-2.1953e-05
-2.35495e-05
-2.5326e-05
-2.64501e-05
-2.74378e-05
-2.80758e-05
-2.84519e-05
-2.85398e-05
-2.83473e-05
-2.78753e-05
-2.70683e-05
-2.60216e-05
-2.44355e-05
-2.29555e-05
-1.61735e-05
-1.61854e-05
-1.30391e-05
-1.1019e-05
-9.78131e-06
-9.02829e-06
-8.75596e-06
-8.77892e-06
-9.28749e-06
-6.99167e-06
-6.69372e-06
-6.59738e-06
-6.61145e-06
-6.85488e-06
-7.37308e-06
-8.21738e-06
-9.40456e-06
-1.09218e-05
-1.26991e-05
-1.62655e-05
-2.09531e-05
-2.22053e-05
-2.35153e-05
-2.4492e-05
-2.54111e-05
-2.60268e-05
-2.64078e-05
-2.65092e-05
-2.63417e-05
-2.59093e-05
-2.51866e-05
-2.42302e-05
-2.30236e-05
-2.1909e-05
-1.77257e-05
-1.39969e-05
-1.22624e-05
-1.07221e-05
-9.58418e-06
-8.88789e-06
-8.62414e-06
-8.63263e-06
-9.07672e-06
-6.91677e-06
-6.65248e-06
-6.57777e-06
-6.60588e-06
-6.84698e-06
-7.35186e-06
-8.18123e-06
-9.37621e-06
-1.09974e-05
-1.30376e-05
-1.56277e-05
-1.85744e-05
-2.0147e-05
-2.14469e-05
-2.24483e-05
-2.33995e-05
-2.40344e-05
-2.44228e-05
-2.45284e-05
-2.43654e-05
-2.39249e-05
-2.31977e-05
-2.22064e-05
-2.09736e-05
-1.95697e-05
-1.70387e-05
-1.44981e-05
-1.24427e-05
-1.07706e-05
-9.58839e-06
-8.86526e-06
-8.56805e-06
-8.53974e-06
-8.92461e-06
-6.86545e-06
-6.64233e-06
-6.59433e-06
-6.64167e-06
-6.87975e-06
-7.35486e-06
-8.12044e-06
-9.21705e-06
-1.06751e-05
-1.25058e-05
-1.45879e-05
-1.67959e-05
-1.82867e-05
-1.95568e-05
-2.05775e-05
-2.14997e-05
-2.21177e-05
-2.24947e-05
-2.26011e-05
-2.2455e-05
-2.20415e-05
-2.13625e-05
-2.03997e-05
-1.92276e-05
-1.78737e-05
-1.59655e-05
-1.39574e-05
-1.21275e-05
-1.06274e-05
-9.5325e-06
-8.84801e-06
-8.54558e-06
-8.49257e-06
-8.82564e-06
-6.84918e-06
-6.66836e-06
-6.65573e-06
-6.7351e-06
-6.98394e-06
-7.44054e-06
-8.14691e-06
-9.13232e-06
-1.04075e-05
-1.19525e-05
-1.36494e-05
-1.54009e-05
-1.67796e-05
-1.80201e-05
-1.90384e-05
-1.9919e-05
-2.05246e-05
-2.08918e-05
-2.09927e-05
-2.08675e-05
-2.04759e-05
-1.98318e-05
-1.8922e-05
-1.78236e-05
-1.65434e-05
-1.50169e-05
-1.33814e-05
-1.1839e-05
-1.05298e-05
-9.54435e-06
-8.90361e-06
-8.59196e-06
-8.50696e-06
-8.78107e-06
-6.86153e-06
-6.72536e-06
-6.75399e-06
-6.87405e-06
-7.14369e-06
-7.59241e-06
-8.25096e-06
-9.13817e-06
-1.02531e-05
-1.15696e-05
-1.29918e-05
-1.44472e-05
-1.57171e-05
-1.6874e-05
-1.78351e-05
-1.86526e-05
-1.92244e-05
-1.9573e-05
-1.96806e-05
-1.95603e-05
-1.92001e-05
-1.86102e-05
-1.77831e-05
-1.67895e-05
-1.56335e-05
-1.4334e-05
-1.29598e-05
-1.16471e-05
-1.05103e-05
-9.6281e-06
-9.02632e-06
-8.69914e-06
-8.5753e-06
-8.7808e-06
-6.88238e-06
-6.78867e-06
-6.83774e-06
-6.98579e-06
-7.27313e-06
-7.72218e-06
-8.35446e-06
-9.18159e-06
-1.0198e-05
-1.13771e-05
-1.26509e-05
-1.39554e-05
-1.51681e-05
-1.62783e-05
-1.72094e-05
-1.79781e-05
-1.8524e-05
-1.88556e-05