/*--------------------------------*- C++ -*----------------------------------*\
| =========                 |                                                 |
| \\      /  F ield         | OpenFOAM: The Open Source CFD Toolbox           |
|  \\    /   O peration     | Version:  2112                                  |
|   \\  /    A nd           | Website:  www.openfoam.com                      |
|    \\/     M anipulation  |                                                 |
\*---------------------------------------------------------------------------*/
FoamFile
{
    version     2.0;
    format      ascii;
    arch        "LSB;label=32;scalar=64";
    class       surfaceScalarField;
    location    "3.8";
    object      phi;
}
// * * * * * * * * * * * * * * * * * * * * * * * * * * * * * * * * * * * * * //

dimensions      [0 3 -1 0 0 0 0];

oriented        oriented;

internalField   nonuniform List<scalar> 
188215
(
6.06385e-10
1.28397e-09
-1.89035e-09
2.64026e-09
3.04064e-10
-2.33794e-09
5.47877e-09
-1.08321e-09
-1.7553e-09
8.68625e-09
-2.36052e-09
-8.46957e-10
1.20516e-08
-3.21792e-09
-1.47452e-10
1.53981e-08
-3.7524e-09
4.05947e-10
1.86464e-08
-4.01521e-09
7.66927e-10
2.16884e-08
-4.00071e-09
9.58683e-10
2.43317e-08
-3.68517e-09
1.04188e-09
2.61938e-08
-2.90006e-09
1.03792e-09
2.69694e-08
-1.71753e-09
9.41936e-10
2.60778e-08
1.05525e-10
7.86162e-10
2.40882e-08
1.12424e-09
8.65281e-10
2.09883e-08
2.04933e-09
1.05064e-09
1.70696e-08
2.6594e-09
1.25924e-09
1.25429e-08
3.07867e-09
1.44803e-09
7.64611e-09
3.31064e-09
1.58619e-09
2.57589e-09
3.41164e-09
1.65858e-09
-2.47365e-09
3.38965e-09
1.65988e-09
-7.30925e-09
3.24462e-09
1.59098e-09
-1.17355e-08
2.96873e-09
1.45751e-09
-1.55171e-08
2.50651e-09
1.27509e-09
-1.84513e-08
1.85935e-09
1.07489e-09
-2.02655e-08
9.1396e-10
9.00252e-10
-2.09488e-08
-1.62676e-10
8.45928e-10
-1.99344e-08
-2.01785e-09
1.00347e-09
-1.78573e-08
-3.12414e-09
1.04699e-09
-1.50076e-08
-3.76804e-09
9.18365e-10
-1.17574e-08
-3.79203e-09
5.41848e-10
-8.32911e-09
-3.28245e-09
-1.45838e-10
-5.09044e-09
-2.20228e-09
-1.03639e-09
-2.36531e-09
-4.45557e-10
-2.27958e-09
-4.1226e-10
1.18128e-09
-3.13433e-09
2.31483e-09
-2.72709e-09
-1.63664e-09
6.2055e-09
-3.28489e-09
7.12897e-10
6.14059e-09
-8.18606e-09
4.34229e-09
5.16028e-09
-9.87287e-09
8.10908e-09
4.24778e-09
-1.03751e-08
1.17631e-08
3.92129e-09
-1.07932e-08
1.52735e-08
4.26009e-09
-1.15229e-08
1.86445e-08
5.30246e-09
-1.26887e-08
2.17999e-08
7.1802e-09
-1.43362e-08
2.45497e-08
1.00506e-08
-1.64856e-08
2.65084e-08
1.42776e-08
-1.91363e-08
2.73563e-08
1.96178e-08
-2.21832e-08
2.6733e-08
2.61514e-08
-2.54226e-08
2.46606e-08
3.17896e-08
-2.8593e-08
2.14106e-08
3.66759e-08
-3.13766e-08
1.73701e-08
4.03287e-08
-3.36288e-08
1.27507e-08
4.30334e-08
-3.53353e-08
7.78002e-09
4.47633e-08
-3.6482e-08
2.64567e-09
4.56252e-08
-3.70792e-08
-2.46662e-09
4.56272e-08
-3.71253e-08
-7.37134e-09
4.47694e-08
-3.662e-08
-1.18829e-08
4.30453e-08
-3.5565e-08
-1.57754e-08
4.03498e-08
-3.39507e-08
-1.88411e-08
3.67192e-08
-3.17942e-08
-2.06842e-08
3.18742e-08
-2.9117e-08
-2.10705e-08
2.63133e-08
-2.60897e-08
-1.99823e-08
1.99117e-08
-2.30177e-08
-1.77526e-08
1.48373e-08
-2.01911e-08
-1.46845e-08
1.10033e-08
-1.78395e-08
-1.11336e-08
8.74693e-09
-1.60898e-08
-7.26168e-09
7.77905e-09
-1.49335e-08
-3.21772e-09
7.98288e-09
-1.42291e-08
6.82395e-10
9.11443e-09
-1.34601e-08
2.89535e-09
1.02455e-08
-1.12772e-08
1.00534e-08
-4.84322e-09
-3.3719e-09
1.29622e-08
-3.38478e-09
-1.02784e-09
1.40558e-08
-1.02593e-08
3.10903e-09
1.38767e-08
-1.28533e-08
7.47424e-09
1.38475e-08
-1.39649e-08
1.16877e-08
1.46256e-08
-1.49178e-08
1.575e-08
1.64068e-08
-1.6209e-08
1.97419e-08
1.93742e-08
-1.80637e-08
2.3651e-08
2.38685e-08
-2.05974e-08
2.72881e-08
3.02812e-08
-2.38678e-08
3.00796e-08
3.93843e-08
-2.78982e-08
3.14501e-08
5.07887e-08
-3.25413e-08
3.04459e-08
6.47081e-08
-3.75526e-08
2.77745e-08
7.67745e-08
-4.23135e-08
2.37907e-08
8.71597e-08
-4.65e-08
1.9076e-08
9.49569e-08
-4.99134e-08
1.38395e-08
1.00778e-07
-5.25084e-08
8.3029e-09
1.04552e-07
-5.4252e-08
2.62666e-09
1.06461e-07
-5.51595e-08
-3.02655e-09
1.06507e-07
-5.52269e-08
-8.49386e-09
1.04691e-07
-5.4454e-08
-1.36159e-08
1.01012e-07
-5.28446e-08
-1.81698e-08
9.52892e-08
-5.03855e-08
-2.19485e-08
8.76108e-08
-4.7113e-08
-2.43666e-08
7.73738e-08
-4.30815e-08
-2.50809e-08
6.55329e-08
-3.85053e-08
-2.33704e-08
5.19246e-08
-3.37234e-08
-2.01844e-08
4.10293e-08
-2.9378e-08
-1.60341e-08
3.25813e-08
-2.57282e-08
-1.14399e-08
2.70771e-08
-2.29244e-08
-6.55899e-09
2.37904e-08
-2.08922e-08
-1.53699e-09
2.23298e-08
-1.93689e-08
3.10424e-09
2.21905e-08
-1.77173e-08
5.30449e-09
2.22801e-08
-1.42348e-08
2.05284e-08
-5.17054e-09
-4.57372e-09
2.03248e-08
-2.78891e-09
-2.10359e-09
2.22924e-08
-1.07068e-08
2.67392e-09
2.28343e-08
-1.37351e-08
7.85268e-09
2.37652e-08
-1.50965e-08
1.29722e-08
2.57941e-08
-1.6288e-08
1.80688e-08
2.91811e-08
-1.78708e-08
2.33335e-08
3.42294e-08
-2.01198e-08
2.8862e-08
4.15303e-08
-2.31903e-08
3.4442e-08
5.18515e-08
-2.71503e-08
3.91116e-08
6.67636e-08
-3.20489e-08
4.16448e-08
8.59458e-08
-3.76903e-08
3.99172e-08
1.10332e-07
-4.38961e-08
3.57591e-08
1.30666e-07
-4.97329e-08
2.99907e-08
1.4779e-07
-5.48613e-08
2.36148e-08
1.6037e-07
-5.90372e-08
1.68096e-08
1.69776e-07
-6.21922e-08
9.77892e-09
1.75875e-07
-6.42926e-08
2.63977e-09
1.78981e-07
-6.5381e-08
-4.47584e-09
1.79079e-07
-6.54563e-08
-1.1435e-08
1.76168e-07
-6.45178e-08
-1.81193e-08
1.70262e-07
-6.2566e-08
-2.43185e-08
1.61048e-07
-5.95601e-08
-2.98514e-08
1.48681e-07
-5.55373e-08
-3.37021e-08
1.31801e-07
-5.05761e-08
-3.50539e-08
1.11822e-07
-4.49378e-08
-3.20468e-08
8.78996e-08
-3.89821e-08
-2.6828e-08
6.94804e-08
-3.367e-08
-2.05137e-08
5.54523e-08
-2.91853e-08
-1.40015e-08
4.62845e-08
-2.57196e-08
-7.49427e-09
4.04423e-08
-2.31591e-08
-1.13533e-09
3.71729e-08
-2.1202e-08
4.49094e-09
3.57156e-08
-1.91513e-08
6.92383e-09
3.49007e-08
-1.50535e-08
3.20077e-08
-4.55541e-09
-5.22582e-09
2.75954e-08
-2.04479e-09
-2.31056e-09
3.02298e-08
-1.08526e-08
3.38691e-09
3.13789e-08
-1.42421e-08
9.69184e-09
3.32417e-08
-1.57814e-08
1.61036e-08
3.65518e-08
-1.71695e-08
2.27539e-08
4.15738e-08
-1.9043e-08
3.00323e-08
4.8668e-08
-2.1717e-08
3.82778e-08
5.86626e-08
-2.53778e-08
4.73207e-08
7.2877e-08
-3.00684e-08
5.56147e-08
9.43403e-08
-3.58706e-08
6.05513e-08
1.23494e-07
-4.24852e-08
5.72318e-08
1.63741e-07
-5.00896e-08
5.00926e-08
1.94944e-07
-5.71389e-08
4.10257e-08
2.20263e-07
-6.34061e-08
3.17188e-08
2.38204e-07
-6.85269e-08
2.21562e-08
2.51666e-07
-7.23278e-08
1.24711e-08
2.60375e-07
-7.4815e-08
2.71095e-09
2.64836e-07
-7.60946e-08
-7.02634e-09
2.64991e-07
-7.6175e-08
-1.6641e-08
2.60837e-07
-7.50552e-08
-2.6081e-08
2.52427e-07
-7.27246e-08
-3.51985e-08
2.39245e-07
-6.90793e-08
-4.39966e-08
2.21594e-07
-6.41149e-08
-5.0757e-08
1.96579e-07
-5.80183e-08
-5.35871e-08
1.65828e-07
-5.11753e-08
-4.80016e-08
1.26148e-07
-4.38339e-08
-3.90037e-08
9.80618e-08
-3.75792e-08
-2.90082e-08
7.76822e-08
-3.22254e-08
-1.9484e-08
6.48301e-08
-2.80698e-08
-1.06071e-08
5.65273e-08
-2.49619e-08
-2.36453e-09
5.15349e-08
-2.26045e-08
4.68467e-09
4.8883e-08
-2.02166e-08
7.80897e-09
4.73439e-08
-1.55675e-08
4.35786e-08
-3.76194e-09
-5.50181e-09
3.44135e-08
-1.31623e-09
-1.74928e-09
3.75835e-08
-1.11063e-08
5.25467e-09
3.92843e-08
-1.49094e-08
1.30714e-08
4.20764e-08
-1.66514e-08
2.11766e-08
4.672e-08
-1.82734e-08
2.98598e-08
5.34e-08
-2.05094e-08
3.98313e-08
6.24023e-08
-2.37057e-08
5.19593e-08
7.45976e-08
-2.80629e-08
6.64255e-08
9.19196e-08
-3.35088e-08
8.12639e-08
1.19627e-07
-4.0125e-08
9.12343e-08
1.60692e-07
-4.71684e-08
8.45741e-08
2.26628e-07
-5.62265e-08
7.20577e-08
2.72037e-07
-6.4577e-08
5.76836e-08
3.07036e-07
-7.23989e-08
4.39855e-08
3.30801e-07
-7.88992e-08
3.03093e-08
3.48856e-07
-8.35133e-08
1.66088e-08
3.60525e-07
-8.64488e-08
2.84695e-09
3.66543e-07
-8.79449e-08
-1.08957e-08
3.66765e-07
-8.80312e-08
-2.45358e-08
3.61183e-07
-8.67058e-08
-3.8103e-08
3.4993e-07
-8.39358e-08
-5.16169e-08
3.32244e-07
-7.94847e-08
-6.57037e-08
3.08825e-07
-7.31443e-08
-7.7766e-08
2.74139e-07
-6.54978e-08
-8.37948e-08
2.29223e-07
-5.73665e-08
-7.29254e-08
1.63859e-07
-4.85802e-08
-5.72612e-08
1.24334e-07
-4.19367e-08
-4.16335e-08
9.78678e-08
-3.58133e-08
-2.79045e-08
8.20676e-08
-3.09665e-08
-1.59101e-08
7.17714e-08
-2.72385e-08
-5.17904e-09
6.52278e-08
-2.4424e-08
3.862e-09
6.14783e-08
-2.16363e-08
8.23126e-09
5.92983e-08
-1.63236e-08
5.48145e-08
-3.00467e-09
-5.52434e-09
4.05433e-08
-6.05442e-10
-4.7417e-10
4.41236e-08
-1.15902e-08
8.27494e-09
4.64521e-08
-1.59169e-08
1.80429e-08
5.02334e-08
-1.7925e-08
2.82298e-08
5.63736e-08
-1.98405e-08
3.92895e-08
6.48548e-08
-2.25145e-08
5.23533e-08
7.5646e-08
-2.63075e-08
6.92841e-08
8.90732e-08
-3.14063e-08
9.14174e-08
1.07277e-07
-3.74902e-08
1.17188e-07
1.38299e-07
-4.44435e-08
1.38301e-07
1.90004e-07
-5.04234e-08
1.24354e-07
3.01067e-07
-6.04922e-08
1.02461e-07
3.63629e-07
-6.96988e-08
8.02771e-08
4.08889e-07
-7.9669e-08
6.07175e-08
4.38638e-07
-8.82774e-08
4.1532e-08
4.61779e-07
-9.37378e-08
2.23467e-08
4.76825e-07
-9.71153e-08
3.05971e-09
4.84651e-07
-9.88209e-08
-1.62167e-08
4.84956e-07
-9.89138e-08
-3.53673e-08
4.77725e-07
-9.73913e-08
-5.44853e-08
4.63237e-07
-9.41892e-08
-7.39064e-08
4.40567e-07
-8.89017e-08
-9.58291e-08
4.11206e-07
-8.04581e-08
-1.17206e-07
3.66192e-07
-7.06751e-08
-1.30349e-07
3.04084e-07
-6.17177e-08
-1.0793e-07
1.93367e-07
-5.1927e-08
-8.13137e-08
1.4412e-07
-4.64023e-08
-5.78429e-08
1.14384e-07
-3.99872e-08
-3.89321e-08
9.77472e-08
-3.45904e-08
-2.32853e-08
8.63507e-08
-3.02262e-08
-9.51488e-09
7.83634e-08
-2.69059e-08
2.1409e-09
7.34523e-08
-2.36297e-08
8.37699e-09
7.05237e-08
-1.74616e-08
6.54401e-08
-2.2486e-09
-5.34535e-09
4.57983e-08
9.03246e-11
1.40726e-09
4.96748e-08
-1.23039e-08
1.26094e-08
5.26014e-08
-1.73513e-08
2.4936e-08
5.75866e-08
-1.96799e-08
3.76766e-08
6.55898e-08
-2.19568e-08
5.12902e-08
7.63947e-08
-2.51535e-08
6.71176e-08
8.94511e-08
-2.96326e-08
8.82402e-08
1.03527e-07
-3.55763e-08
1.18416e-07
1.19251e-07
-4.21504e-08
1.61954e-07
1.44135e-07
-4.93735e-08
2.08205e-07
1.92695e-07
-4.89422e-08
1.79149e-07
3.87396e-07
-5.72741e-08
1.4298e-07
4.66866e-07
-6.70677e-08
1.10671e-07
5.22151e-07
-8.09537e-08
8.3896e-08
5.58493e-07
-9.30799e-08
5.73814e-08
5.8765e-07
-9.93563e-08
3.05131e-08
6.06827e-07
-1.03134e-07
3.37405e-09
6.16821e-07
-1.05032e-07
-2.37687e-08
6.17229e-07
-1.05131e-07
-5.06485e-08
6.08033e-07
-1.03428e-07
-7.71813e-08
5.89607e-07
-9.98367e-08
-1.03939e-07
5.61072e-07
-9.37471e-08
-1.3613e-07
5.25192e-07
-8.17953e-08
-1.71833e-07
4.70016e-07
-6.81217e-08
-1.99848e-07
3.90762e-07
-5.86632e-08
-1.51567e-07
1.95643e-07
-5.05565e-08
-1.07427e-07
1.51428e-07
-5.14487e-08
-7.5752e-08
1.27546e-07
-4.48361e-08
-5.2161e-08
1.13242e-07
-3.90862e-08
-3.29924e-08
1.01212e-07
-3.40294e-08
-1.57195e-08
9.12413e-08
-3.01509e-08
-6.28565e-10
8.46523e-08
-2.6291e-08
8.22181e-09
8.06745e-08
-1.90012e-08
7.50532e-08
-1.39131e-09
-5.01756e-09
4.97294e-08
1.08644e-09
4.08584e-09
5.38733e-08
-1.33019e-08
1.84131e-08
5.74921e-08
-1.9218e-08
3.40235e-08
6.392e-08
-2.19437e-08
4.99186e-08
7.43353e-08
-2.46406e-08
6.61986e-08
8.85171e-08
-2.84024e-08
8.37319e-08
1.05526e-07
-3.36084e-08
1.06077e-07
1.21601e-07
-4.04193e-08
1.40123e-07
1.33287e-07
-4.80819e-08
2.10331e-07
1.28118e-07
-5.41916e-08
3.07816e-07
1.49194e-07
-5.39835e-08
2.47539e-07
4.94614e-07
-4.69407e-08
1.90478e-07
5.77248e-07
-5.33212e-08
1.47375e-07
6.37998e-07
-7.27439e-08
1.12723e-07
6.82611e-07
-8.94666e-08
7.74306e-08
7.18799e-07
-9.58562e-08
4.0947e-08
7.43557e-07
-1.00247e-07
3.82204e-09
7.56367e-07
-1.02421e-07
-3.33259e-08
7.56898e-07
-1.0252e-07
-6.98858e-08
7.45133e-07
-1.0054e-07
-1.05328e-07
7.21377e-07
-9.6329e-08
-1.40188e-07
6.86059e-07
-9.01266e-08
-1.83508e-07
6.4208e-07
-7.35677e-08
-2.40407e-07
5.813e-07
-5.43847e-08
-2.99182e-07
4.97973e-07
-4.84357e-08
-1.98466e-07
1.51003e-07
-5.60757e-08
-1.28912e-07
1.38406e-07
-5.65315e-08
-9.29789e-08
1.42614e-07
-5.10012e-08
-6.74831e-08
1.32097e-07
-4.43505e-08
-4.55765e-08
1.17935e-07
-3.86303e-08
-2.43019e-08
1.04179e-07
-3.42126e-08
-4.65771e-09
9.47553e-08
-2.97472e-08
7.73426e-09
8.92678e-08
-2.09853e-08
8.32262e-08
-4.38702e-10
-4.30542e-09
5.19485e-08
2.08631e-09
7.90659e-09
5.62429e-08
-1.45816e-08
2.64633e-08
6.04811e-08
-2.15457e-08
4.68497e-08
6.83109e-08
-2.47772e-08
6.78136e-08
8.13839e-08
-2.80125e-08
8.86501e-08
1.00161e-07
-3.24804e-08
1.08522e-07
1.24229e-07
-3.85746e-08
1.27345e-07
1.50136e-07
-4.7358e-08
1.4321e-07
1.7386e-07
-5.64379e-08
1.97051e-07
1.4664e-07
-7.23637e-08
4.28934e-07
-8.2688e-08
3.37867e-07
6.01027e-07
-1.53466e-08
2.579e-07
6.66899e-07
-9.683e-09
2.04213e-07
7.19994e-07
-2.83081e-08
1.59462e-07
7.74408e-07
-4.70469e-08
1.09911e-07
8.17338e-07
-4.89879e-08
5.75634e-08
8.47552e-07
-5.16472e-08
4.46151e-09
8.62734e-07
-5.32653e-08
-4.86741e-08
8.63368e-07
-5.33347e-08
-1.01145e-07
8.49459e-07
-5.18554e-08
-1.50978e-07
8.20516e-07
-4.93053e-08
-1.96219e-07
7.78834e-07
-4.7534e-08
-2.50721e-07
7.25501e-07
-2.89199e-08
-3.32008e-07
6.73067e-07
-1.04799e-08
-4.22627e-07
6.054e-07
-1.68095e-08
-1.85869e-07
-8.57542e-08
-1.30547e-07
1.57115e-07
-7.4032e-08
-1.1382e-07
1.84987e-07
-5.91005e-08
-9.12796e-08
1.61217e-07
-5.16607e-08
-6.58076e-08
1.36855e-07
-4.43921e-08
-3.82927e-08
1.16063e-07
-3.9399e-08
-1.17308e-08
1.02424e-07
-3.42303e-08
6.19616e-09
9.50009e-08
-2.366e-08
8.86048e-08
8.17577e-10
-3.37303e-09
5.22325e-08
3.0891e-09
1.24946e-08
5.64919e-08
-1.61167e-08
3.61251e-08
6.11469e-08
-2.42963e-08
6.26034e-08
6.99805e-08
-2.8148e-08
9.07125e-08
8.52966e-08
-3.20218e-08
1.18801e-07
1.09075e-07
-3.70027e-08
1.41391e-07
1.44774e-07
-4.3136e-08
1.43708e-07
1.96962e-07
-4.91432e-08
1.11231e-07
2.72725e-07
-6.63876e-08
3.69892e-07
-1.12021e-07
1.93345e-07
3.26339e-07
8.13417e-08
2.59397e-07
5.53685e-07
4.71619e-08
2.5598e-07
6.83817e-07
3.95937e-08
2.09461e-07
7.79871e-07
4.10567e-08
1.45344e-07
8.43981e-07
3.7474e-08
7.6104e-08
8.84201e-07
3.25904e-08
5.28527e-09
9.03428e-07
3.01248e-08
-6.55738e-08
9.04099e-07
3.01282e-08
-1.34956e-07
8.86248e-07
3.25936e-08
-1.99424e-07
8.47497e-07
3.74861e-08
-2.46762e-07
7.8507e-07
4.11033e-08
-2.52078e-07
6.91067e-07
3.97503e-08
-1.89213e-07
5.63169e-07
4.7034e-08
3.36242e-07
7.99446e-08
-1.07588e-07
3.73647e-07
-1.08943e-07
-1.34289e-07
2.80291e-07
-6.8604e-08
-1.25215e-07
2.06268e-07
-5.41239e-08
-9.46667e-08
1.56444e-07
-5.01369e-08
-5.75617e-08
1.24444e-07
-4.54854e-08
-2.14839e-08
1.06173e-07
-3.98275e-08
3.77143e-09
9.68894e-08
-2.71438e-08
9.02296e-08
2.14659e-09
-1.93801e-09
5.01139e-08
4.05653e-09
1.82506e-08
5.41302e-08
-1.78268e-08
4.8379e-08
5.83786e-08
-2.73602e-08
8.40173e-08
6.63777e-08
-3.20354e-08
1.26304e-07
8.00084e-08
-3.69986e-08
1.78479e-07
1.00415e-07
-4.35154e-08
2.45957e-07
1.28772e-07
-5.14751e-08
3.35506e-07
1.65161e-07
-5.77478e-08
4.60299e-07
2.07759e-07
-5.98278e-08
6.15923e-07
2.56339e-07
-4.20708e-08
4.81638e-07
8.59553e-08
4.83304e-08
4.88384e-07
2.32131e-07
8.74618e-08
4.67481e-07
4.17102e-07
1.57486e-07
3.98556e-07
5.36158e-07
2.16585e-07
3.03608e-07
6.25078e-07
2.4974e-07
2.02041e-07
6.83969e-07
2.61579e-07
1.02929e-07
7.2064e-07
2.62673e-07
6.12464e-09
7.3824e-07
2.61992e-07
-9.06581e-08
7.38832e-07
2.62049e-07
-1.89697e-07
7.22439e-07
2.62848e-07
-2.91148e-07
6.87034e-07
2.61914e-07
-3.85979e-07
6.29501e-07
2.504e-07
-4.54842e-07
5.42007e-07
2.17922e-07
-4.75375e-07
4.24014e-07
1.59688e-07
-4.70653e-07
2.40241e-07
9.12791e-08
-6.10345e-07
8.77128e-08
5.19793e-08
-4.54629e-07
2.59369e-07
-4.14377e-08
-3.2562e-07
2.13926e-07
-6.26432e-08
-2.29422e-07
1.73508e-07
-6.3439e-08
-1.52849e-07
1.3974e-07
-5.98693e-08
-8.96734e-08
1.15162e-07
-5.38938e-08
-3.68388e-08
1.00189e-07
-4.68499e-08
-1.02404e-09
9.25462e-08
-3.14716e-08
8.59598e-08
3.24574e-09
-8.50093e-10
4.59817e-08
4.98236e-09
2.30239e-08
4.96546e-08
-1.93984e-08
5.85098e-08
5.31496e-08
-3.02569e-08
1.01004e-07
5.96079e-08
-3.57247e-08
1.52358e-07
7.03258e-08
-4.16706e-08
2.16691e-07
8.56089e-08
-4.9527e-08
2.99315e-07
1.05055e-07
-5.89069e-08
4.03823e-07
1.27166e-07
-6.65131e-08
5.32332e-07
1.47047e-07
-6.77959e-08
6.77986e-07
1.62526e-07
-5.18421e-08
6.7547e-07
1.05872e-07
-1.7401e-08
6.6223e-07
1.93426e-07
5.19458e-08
6.02632e-07
3.05786e-07
1.70914e-07
4.97025e-07
3.90358e-07
2.51406e-07
3.72571e-07
4.55235e-07
2.94297e-07
2.45744e-07
4.97744e-07
3.13051e-07
1.24182e-07
5.24371e-07
3.17831e-07
6.79044e-09
5.37141e-07
3.18491e-07
-1.10559e-07
5.37627e-07
3.18555e-07
-2.31987e-07
5.25836e-07
3.18031e-07
-3.58604e-07
5.00201e-07
3.1345e-07
-4.8287e-07
4.58682e-07
2.95086e-07
-5.88632e-07
3.94748e-07
2.53021e-07
-6.49095e-07
3.10835e-07
1.73642e-07
-6.64093e-07
1.98728e-07
5.65098e-08
-6.70625e-07
1.08672e-07
-1.44268e-08
-5.2609e-07
1.66601e-07
-5.17675e-08
-3.93905e-07
1.52825e-07
-7.10838e-08
-2.82256e-07
1.34878e-07
-7.30181e-08
-1.89241e-07
1.15294e-07
-6.85695e-08
-1.1194e-07
9.94454e-08
-6.15848e-08
-4.76247e-08
8.91516e-08
-5.32777e-08
-3.32259e-09
8.37134e-08
-3.54692e-08
7.79894e-08
4.64783e-09
-2.74372e-11
4.01511e-08
5.85801e-09
2.69404e-08
4.34037e-08
-2.0717e-08
6.68529e-08
4.59933e-08
-3.27561e-08
1.14693e-07
5.06918e-08
-3.89242e-08
1.72454e-07
5.83305e-08
-4.57652e-08
2.44272e-07
6.87985e-08
-5.50076e-08
3.34489e-07
8.12495e-08
-6.6412e-08
4.44591e-07
9.44639e-08
-7.73999e-08
5.70222e-07
1.04748e-07
-8.33324e-08
6.94697e-07
1.13807e-07
-7.5756e-08
7.4521e-07
1.03035e-07
-4.76771e-08
7.54258e-07
1.53457e-07
3.09215e-08
6.84206e-07
2.20166e-07
1.55672e-07
5.62148e-07
2.75027e-07
2.37389e-07
4.17996e-07
3.17918e-07
2.81469e-07
2.74214e-07
3.46007e-07
2.95518e-07
1.38049e-07
3.63848e-07
2.96689e-07
7.30713e-09
3.72456e-07
2.95427e-07
-1.23384e-07
3.72864e-07
2.95455e-07
-2.59396e-07
3.65065e-07
2.96783e-07
-4.02954e-07
3.48014e-07
2.95744e-07
-5.46965e-07
3.20666e-07
2.82027e-07
-6.6941e-07
2.78443e-07
2.38751e-07
-7.40769e-07
2.24031e-07
1.58163e-07
-7.34908e-07
1.57579e-07
3.52885e-08
-6.87621e-07
1.0638e-07
-4.49948e-08
-5.63357e-07
1.18008e-07
-7.56712e-08
-4.33934e-07
1.10188e-07
-8.67846e-08
-3.16216e-07
1.01558e-07
-8.4399e-08
-2.14552e-07
9.06036e-08
-7.69734e-08
-1.28134e-07
8.13283e-08
-6.83013e-08
-5.54651e-08
7.51147e-08
-5.86321e-08
-4.83649e-09
7.17382e-08
-3.86534e-08
6.70316e-08
6.12134e-09
2.54489e-10
3.3239e-08
6.65762e-09
2.9536e-08
3.59126e-08
-2.17904e-08
7.25629e-08
3.77273e-08
-3.47609e-08
1.2381e-07
4.09275e-08
-4.14833e-08
1.85096e-07
4.60664e-08
-4.90211e-08
2.60308e-07
5.29285e-08
-5.93426e-08
3.53094e-07
6.07719e-08
-7.2308e-08
4.64206e-07
6.89492e-08
-8.55977e-08
5.87579e-07
7.5562e-08
-9.41863e-08
7.07496e-07
8.34999e-08
-8.96097e-08
7.84724e-07
8.78479e-08
-6.20403e-08
8.06142e-07
1.19266e-07
1.27722e-08
7.30935e-07
1.60374e-07
1.34999e-07
6.00077e-07
1.95363e-07
2.10522e-07
4.45321e-07
2.23055e-07
2.4962e-07
2.91855e-07
2.41586e-07
2.57887e-07
1.4683e-07
2.53526e-07
2.55347e-07
7.71712e-09
2.59378e-07
2.52191e-07
-1.31355e-07
2.59754e-07
2.52183e-07
-2.76256e-07
2.54639e-07
2.55326e-07
-4.29554e-07
2.43395e-07
2.57918e-07
-5.8427e-07
2.25484e-07
2.49899e-07
-7.15694e-07
1.9832e-07
2.11547e-07
-7.92511e-07
1.637e-07
1.37148e-07
-7.74738e-07
1.22943e-07
1.68632e-08
-7.00166e-07
9.13455e-08
-5.9538e-08
-5.80083e-07
8.7617e-08
-8.96919e-08
-4.52631e-07
8.05859e-08
-9.78498e-08
-3.33383e-07
7.53006e-08
-9.29905e-08
-2.2825e-07
6.89814e-08
-8.35106e-08
-1.37157e-07
6.3722e-08
-7.34865e-08
-5.95731e-08
6.02201e-08
-6.26895e-08
-5.13278e-09
5.8263e-08
-4.09651e-08
5.45519e-08
7.34695e-09
3.31378e-10
2.56037e-08
7.3039e-09
3.1231e-08
2.76211e-08
-2.26082e-08
7.64203e-08
2.88159e-08
-3.62779e-08
1.29901e-07
3.08566e-08
-4.34098e-08
1.93283e-07
3.41392e-08
-5.14547e-08
2.70254e-07
3.85153e-08
-6.2558e-08
3.64131e-07
4.35434e-08
-7.6648e-08
4.75556e-07
4.90241e-08
-9.14997e-08
5.98709e-07
5.42149e-08
-1.01807e-07
7.19816e-07
6.14048e-08
-9.90118e-08
8.09779e-07
6.93012e-08
-7.14163e-08
8.37763e-07
8.99397e-08
1.34307e-09
7.60468e-07
1.1562e-07
1.22048e-07
6.24457e-07
1.38119e-07
1.93256e-07
4.63029e-07
1.56118e-07
2.28365e-07
3.03365e-07
1.68511e-07
2.32739e-07
1.52627e-07
1.76621e-07
2.27644e-07
8.09036e-09
1.80703e-07
2.23212e-07
-1.3642e-07
1.81082e-07
2.23182e-07
-2.8708e-07
1.77739e-07
2.2756e-07
-4.46653e-07
1.70308e-07
2.3266e-07
-6.08149e-07
1.58497e-07
2.28483e-07
-7.44873e-07
1.4096e-07
1.94084e-07
-8.23912e-07
1.18757e-07
1.23983e-07
-7.99862e-07
9.32109e-08
5.68175e-09
-7.12187e-07
7.27197e-08
-6.905e-08
-5.90616e-07
6.52507e-08
-9.92042e-08
-4.63066e-07
5.86758e-08
-1.0564e-07
-3.43028e-07
5.44415e-08
-9.9179e-08
-2.36085e-07
5.03297e-08
-8.82908e-08
-1.42295e-07
4.71946e-08
-7.72632e-08
-6.16896e-08
4.52258e-08
-6.56108e-08
-4.94928e-09
4.41082e-08
-4.25855e-08
4.13283e-08
8.27431e-09
3.09189e-10
1.75565e-08
7.73805e-09
3.22177e-08
1.89057e-08
-2.31931e-08
7.87853e-08
1.96047e-08
-3.73564e-08
1.3364e-07
2.07659e-08
-4.47639e-08
1.98239e-07
2.26751e-08
-5.3135e-08
2.76183e-07
2.52989e-08
-6.47277e-08
3.70742e-07
2.8486e-08
-7.95015e-08
4.82731e-07
3.2276e-08
-9.52413e-08
6.06898e-07
3.65211e-08
-1.06472e-07
7.30265e-07
4.25209e-08
-1.04483e-07
8.26623e-07
4.99537e-08
-7.70107e-08
8.58163e-07
6.3042e-08
-4.6419e-09
7.79591e-07
7.84891e-08
1.15703e-07
6.4031e-07
9.22666e-08
1.85134e-07
4.74739e-07
1.03383e-07
2.18305e-07
3.11124e-07
1.11325e-07
2.208e-07
1.5663e-07
1.16629e-07
2.14485e-07
8.46195e-09
1.1942e-07
2.09451e-07
-1.39702e-07
1.1983e-07
2.09416e-07
-2.94179e-07
1.17835e-07
2.14382e-07
-4.57802e-07
1.13247e-07
2.20684e-07
-6.23571e-07
1.05899e-07
2.18367e-07
-7.6372e-07
9.52192e-08
1.8589e-07
-8.44257e-07
8.17141e-08
1.17579e-07
-8.16505e-07
6.64307e-08
-9.71282e-10
-7.22356e-07
5.32931e-08
-7.47232e-08
-5.98332e-07
4.60194e-08
-1.04793e-07
-4.69505e-07
4.03245e-08
-1.10475e-07
-3.48528e-07
3.66276e-08
-1.03163e-07
-2.40383e-07
3.36604e-08
-9.14755e-08
-1.44985e-07
3.1624e-08
-7.98277e-08
-6.25948e-08
3.045e-08
-6.76144e-08
-4.56841e-09
2.9788e-08
-4.37062e-08
2.79091e-08
8.85074e-09
2.63806e-10
9.32872e-09
7.96393e-09
3.27396e-08
1.00154e-08
-2.35855e-08
8.01157e-08
1.02794e-08
-3.80508e-08
1.35795e-07
1.07042e-08
-4.56175e-08
2.01163e-07
1.14759e-08
-5.41686e-08
2.79807e-07
1.26784e-08
-6.60242e-08
3.75035e-07
1.44184e-08
-8.11596e-08
4.87798e-07
1.68608e-08
-9.73478e-08
6.13161e-07
2.01831e-08
-1.09026e-07
7.38353e-07
2.46954e-08
-1.07366e-07
8.37848e-07
3.03769e-08
-7.99178e-08
8.71094e-07
3.73408e-08
-7.54471e-09
7.91693e-07
4.44696e-08
1.1342e-07
6.504e-07
5.09594e-08
1.826e-07
4.82324e-07
5.62454e-08
2.15214e-07
3.16245e-07
6.03155e-08
2.17089e-07
1.59367e-07
6.31571e-08
2.1035e-07
8.86152e-09
6.48186e-08
2.05107e-07
-1.41665e-07
6.52837e-08
2.05073e-07
-2.98604e-07
6.4522e-08
2.10251e-07
-4.64813e-07
6.24781e-08
2.16978e-07
-6.33243e-07
5.90518e-08
2.15277e-07
-7.75563e-07
5.41905e-08
1.83348e-07
-8.57054e-07
4.79025e-08
1.15302e-07
-8.27734e-07
4.07627e-08
-3.65153e-09
-7.30347e-07
3.35977e-08
-7.76918e-08
-6.04352e-07
2.78259e-08
-1.07801e-07
-4.74135e-07
2.33049e-08
-1.13197e-07
-3.52133e-07
2.01097e-08
-1.05484e-07
-2.42995e-07
1.79197e-08
-9.33981e-08
-1.46518e-07
1.65677e-08
-8.14208e-08
-6.30385e-08
1.58646e-08
-6.88937e-08
-4.28118e-09
1.54902e-08
-4.44596e-08
1.45027e-08
9.12519e-09
2.05589e-10
1.1337e-09
7.98943e-09
3.28868e-08
1.14919e-09
-2.38151e-08
8.05862e-08
9.76303e-10
-3.83963e-08
1.36646e-07
6.59619e-10
-4.60149e-08
2.02457e-07
2.80159e-10
-5.46158e-08
2.81651e-07
2.07577e-11
-6.65359e-08
3.77569e-07
2.61058e-10
-8.17612e-08
4.91194e-07
1.2873e-09
-9.80516e-08
6.17577e-07
3.62641e-09
-1.09826e-07
7.43804e-07
6.70051e-09
-1.08232e-07
8.44142e-07
1.08496e-08
-8.08106e-08
8.77576e-07
1.22475e-08
-8.34109e-09
7.97651e-07
1.12923e-08
1.13102e-07
6.55416e-07
1.05717e-08
1.82624e-07
4.86247e-07
1.00196e-08
2.15395e-07
3.19023e-07
1.02075e-08
2.17331e-07
1.60991e-07
1.05887e-08
2.10601e-07
9.31206e-09
1.11391e-08
2.05358e-07
-1.42421e-07
1.16893e-08
2.05328e-07
-3.00612e-07
1.22041e-08
2.10509e-07
-4.68121e-07
1.27597e-08
2.17228e-07
-6.37847e-07
1.33153e-08
2.15463e-07
-7.81324e-07
1.43048e-08
1.83362e-07
-8.63522e-07
1.51408e-08
1.1496e-07
-8.3416e-07
1.58201e-08
-4.41991e-09
-7.35886e-07
1.40229e-08
-7.86985e-08
-6.08781e-07
9.54532e-09
-1.08825e-07
-4.77446e-07
6.15657e-09
-1.14186e-07
-3.54469e-07
3.53251e-09
-1.064e-07
-2.44507e-07
2.18954e-09
-9.42319e-08
-1.47334e-07
1.57022e-09
-8.21756e-08
-6.32789e-08
1.36572e-09
-6.9556e-08
-4.1702e-09
1.29726e-09
-4.49157e-08
1.2151e-09
9.11745e-09
1.48024e-10
-6.82568e-09
7.81136e-09
3.2658e-08
-7.47731e-09
-2.38835e-08
8.01912e-08
-8.15761e-09
-3.83993e-08
1.36185e-07
-9.36823e-09
-4.59655e-08
2.02111e-07
-1.11526e-08
-5.44938e-08
2.81663e-07
-1.32301e-08
-6.63013e-08
3.78258e-07
-1.49866e-08
-8.13474e-08
4.92832e-07
-1.589e-08
-9.73966e-08
6.20123e-07
-1.47379e-08
-1.08926e-07
7.46733e-07
-1.27608e-08
-1.0715e-07
8.45749e-07
-8.35705e-09
-7.98092e-08
8.77738e-07
-1.24414e-08
-7.29948e-09
7.97481e-07
-2.28405e-08
1.1439e-07
6.55332e-07
-3.20022e-08
1.84723e-07
4.86487e-07
-3.94166e-08
2.18281e-07
3.19456e-07
-4.36664e-08
2.20905e-07
1.61513e-07
-4.60487e-08
2.14581e-07
9.83738e-09
-4.67149e-08
2.09529e-07
-1.41931e-07
-4.60384e-08
2.09497e-07
-3.00152e-07
-4.40562e-08
2.14481e-07
-4.67662e-07
-4.05121e-08
2.20781e-07
-6.37329e-07
-3.53262e-08
2.18309e-07
-7.81016e-07
-2.73949e-08
1.85387e-07
-8.63843e-07
-1.81632e-08
1.16131e-07
-8.36027e-07
-8.34941e-09
-3.64636e-09
-7.39094e-07
-5.01313e-09
-7.78968e-08
-6.11596e-07
-9.98704e-09
-1.07966e-07
-4.79357e-07
-1.25655e-08
-1.13516e-07
-3.55461e-07
-1.43978e-08
-1.05966e-07
-2.44873e-07
-1.43815e-08
-9.40169e-08
-1.47405e-07
-1.37767e-08
-8.21203e-08
-6.32977e-08
-1.31207e-08
-6.96214e-08
-4.22268e-09
-1.26894e-08
-4.50883e-08
-1.18316e-08
8.82399e-09
5.6303e-11
-1.4311e-08
7.42899e-09
3.1956e-08
-1.55978e-08
-2.37792e-08
7.87466e-08
-1.69085e-08
-3.80397e-08
1.34095e-07
-1.92744e-08
-4.54423e-08
1.99628e-07
-2.29264e-08
-5.37587e-08
2.792e-07
-2.75691e-08
-6.52331e-08
3.76383e-07
-3.23587e-08
-7.98114e-08
4.92096e-07
-3.637e-08
-9.52328e-08
6.20614e-07
-3.71578e-08
-1.06099e-07
7.47619e-07
-3.6028e-08
-1.03737e-07
8.42579e-07
-2.68999e-08
-7.64177e-08
8.70755e-07
-3.70206e-08
-3.59641e-09
7.90308e-07
-6.10104e-08
1.18617e-07
6.49437e-07
-8.19597e-08
1.90828e-07
4.82588e-07
-9.88523e-08
2.26285e-07
3.17285e-07
-1.09055e-07
2.30692e-07
1.60838e-07
-1.15064e-07
2.25462e-07
1.04853e-08
-1.17286e-07
2.20924e-07
-1.40006e-07
-1.16411e-07
2.20865e-07
-2.96871e-07
-1.1247e-07
2.25278e-07
-4.62889e-07
-1.04916e-07
2.30423e-07
-6.30908e-07
-9.34113e-08
2.26104e-07
-7.73726e-07
-7.57967e-08
1.9122e-07
-8.57186e-07
-5.47254e-08
1.20022e-07
-8.33292e-07
-3.16691e-08
-5.73578e-10
-7.40413e-07
-2.30385e-08
-7.48544e-08
-6.12556e-07
-3.29401e-08
-1.04904e-07
-4.79188e-07
-3.49208e-08
-1.11013e-07
-3.54332e-07
-3.5182e-08
-1.04071e-07
-2.43421e-07
-3.26165e-08
-9.26762e-08
-1.46256e-07
-2.9754e-08
-8.11883e-08
-6.28181e-08
-2.75289e-08
-6.90293e-08
-4.33951e-09
-2.62309e-08
-4.49371e-08
-2.43871e-08
8.21604e-09
-1.71376e-10
-2.09889e-08
6.84931e-09
3.05397e-08
-2.28251e-08
-2.34837e-08
7.58078e-08
-2.48943e-08
-3.72823e-08
1.29622e-07
-2.86926e-08
-4.4396e-08
1.93798e-07
-3.47673e-08
-5.23357e-08
2.7245e-07
-4.30074e-08
-6.32131e-08
3.69607e-07
-5.25938e-08
-7.69219e-08
4.86588e-07
-6.22446e-08
-9.11067e-08
6.17774e-07
-6.7739e-08
-1.00605e-07
7.47158e-07
-6.86338e-08
-9.67776e-08
8.33207e-07
-4.31763e-08
-6.97726e-08
8.53522e-07
-6.12693e-08
3.93334e-09
7.7273e-07
-1.075e-07
1.27281e-07
6.34859e-07
-1.47157e-07
2.03069e-07
4.72648e-07
-1.78546e-07
2.41905e-07
3.11443e-07
-1.9762e-07
2.4977e-07
1.5852e-07
-2.08886e-07
2.46745e-07
1.1311e-08
-2.13339e-07
2.43262e-07
-1.36084e-07
-2.1215e-07
2.43133e-07
-2.89575e-07
-2.05328e-07
2.46349e-07
-4.5176e-07
-1.9187e-07
2.49138e-07
-6.15569e-07
-1.7082e-07
2.41218e-07
-7.55914e-07
-1.3829e-07
2.02838e-07
-8.40313e-07
-9.83451e-08
1.28019e-07
-8.24738e-07
-5.39455e-08
6.7007e-09
-7.40496e-07
-3.85486e-08
-6.87319e-08
-6.10297e-07
-6.46413e-08
-9.84973e-08
-4.74464e-07
-6.47621e-08
-1.05992e-07
-3.48672e-07
-6.06938e-08
-1.0028e-07
-2.38263e-07
-5.30719e-08
-8.99543e-08
-1.4261e-07
-4.62052e-08
-7.92012e-08
-6.11095e-08
-4.13927e-08
-6.7637e-08
-4.23073e-09
-3.87474e-08
-4.43624e-08
-3.58565e-08
7.23866e-09
-6.42128e-10
-2.64761e-08
6.12935e-09
2.82703e-08
-2.87469e-08
-2.29906e-08
7.11156e-08
-3.16365e-08
-3.61032e-08
1.22238e-07
-3.70138e-08
-4.28016e-08
1.83575e-07
-4.58979e-08
-5.02061e-08
2.59469e-07
-5.86585e-08
-6.02428e-08
3.54699e-07
-7.50847e-08
-7.27393e-08
4.71754e-07
-9.41677e-08
-8.51318e-08
6.07464e-07
-1.108e-07
-9.26481e-08
7.45982e-07
-1.20399e-07
-8.67535e-08
8.13024e-07
-5.17269e-08
-5.84913e-08
8.17367e-07
-8.34199e-08
1.78084e-08
7.38445e-07
-1.69805e-07
1.41228e-07
6.07443e-07
-2.37238e-07
2.21083e-07
4.53874e-07
-2.8857e-07
2.63594e-07
3.00187e-07
-3.20182e-07
2.76248e-07
1.53766e-07
-3.38648e-07
2.76182e-07
1.24425e-08
-3.4616e-07
2.74144e-07
-1.291e-07
-3.44497e-07
2.73889e-07
-2.7622e-07
-3.33609e-07
2.75401e-07
-4.31157e-07
-3.11896e-07
2.74963e-07
-5.8688e-07
-2.77123e-07
2.62026e-07
-7.21117e-07
-2.23848e-07
2.19796e-07
-8.04892e-07
-1.55493e-07
1.40922e-07
-8.05696e-07
-7.25967e-08
1.94556e-08
-7.39733e-07
-4.63326e-08
-5.81791e-08
-6.0065e-07
-1.14323e-07
-8.94021e-08
-4.60628e-07
-1.06042e-07
-9.8742e-08
-3.35214e-07
-9.13941e-08
-9.47138e-08
-2.2738e-07
-7.50356e-08
-8.58702e-08
-1.35325e-07
-6.21772e-08
-7.60828e-08
-5.75808e-08
-5.38234e-08
-6.53138e-08
-3.68958e-09
-4.94129e-08
-4.32257e-08
-4.5493e-08
5.94688e-09
-1.60421e-09
-3.0168e-08
5.29611e-09
2.47871e-08
-3.28448e-08
-2.22934e-08
6.39757e-08
-3.63063e-08
-3.45188e-08
1.10531e-07
-4.28873e-08
-4.06819e-08
1.66144e-07
-5.41311e-08
-4.738e-08
2.34997e-07
-7.12139e-08
-5.62971e-08
3.22568e-07
-9.5509e-08
-6.71471e-08
4.33403e-07
-1.28357e-07
-7.66453e-08
5.72216e-07
-1.69384e-07
-8.02291e-08
7.43994e-07
-2.25627e-07
-6.65508e-08
7.75981e-07
-4.96937e-08
-3.40197e-08
7.38908e-07
-7.89754e-08
3.26279e-08
6.69673e-07
-2.49704e-07
1.49134e-07
5.54001e-07
-3.47107e-07