/*--------------------------------*- C++ -*----------------------------------*\
| =========                 |                                                 |
| \\      /  F ield         | OpenFOAM: The Open Source CFD Toolbox           |
|  \\    /   O peration     | Version:  2112                                  |
|   \\  /    A nd           | Website:  www.openfoam.com                      |
|    \\/     M anipulation  |                                                 |
\*---------------------------------------------------------------------------*/
FoamFile
{
    version     2.0;
    format      ascii;
    arch        "LSB;label=32;scalar=64";
    class       volVectorField;
    location    "3.8";
    object      U;
}
// * * * * * * * * * * * * * * * * * * * * * * * * * * * * * * * * * * * * * //

dimensions      [0 1 -1 0 0 0 0];

internalField   nonuniform List<vector> 
64906
(
(-3.93362e-08 -4.71152e-08 -6.29692e-07)
(1.95237e-06 -1.72762e-06 -6.56492e-07)
(5.76333e-06 -3.45517e-06 1.42337e-07)
(1.01436e-05 -4.93932e-06 1.19025e-06)
(1.4903e-05 -6.03045e-06 2.10469e-06)
(1.97325e-05 -6.88059e-06 2.77577e-06)
(2.44918e-05 -7.60689e-06 3.31252e-06)
(2.90378e-05 -8.25133e-06 3.83612e-06)
(3.32054e-05 -8.84512e-06 4.38415e-06)
(3.65153e-05 -9.29026e-06 4.97783e-06)
(3.85441e-05 -9.66382e-06 5.57374e-06)
(3.84957e-05 -9.73658e-06 6.20088e-06)
(3.63561e-05 -9.78924e-06 6.95278e-06)
(3.2657e-05 -9.86788e-06 7.70535e-06)
(2.75324e-05 -1.01183e-05 8.35192e-06)
(2.14147e-05 -1.03646e-05 8.87056e-06)
(1.45803e-05 -1.05892e-05 9.22587e-06)
(7.36764e-06 -1.0726e-05 9.41179e-06)
(3.85234e-08 -1.07656e-05 9.42211e-06)
(-7.11573e-06 -1.07082e-05 9.25759e-06)
(-1.38339e-05 -1.05646e-05 8.92453e-06)
(-1.97801e-05 -1.04012e-05 8.42935e-06)
(-2.46871e-05 -1.0234e-05 7.80833e-06)
(-2.81388e-05 -1.02354e-05 7.08439e-06)
(-3.00031e-05 -1.02272e-05 6.37665e-06)
(-2.97274e-05 -1.01786e-05 5.79276e-06)
(-2.7369e-05 -9.81772e-06 5.20904e-06)
(-2.37555e-05 -9.33104e-06 4.58368e-06)
(-1.92831e-05 -8.56584e-06 3.9087e-06)
(-1.44495e-05 -7.53439e-06 3.03854e-06)
(-9.59609e-06 -6.09764e-06 1.80506e-06)
(-5.26454e-06 -4.09969e-06 3.40879e-07)
(-1.62571e-06 -1.69915e-06 -8.05709e-07)
(2.99732e-07 2.97889e-07 -9.5456e-07)
(-2.64622e-06 4.22848e-06 -1.50079e-06)
(-1.55288e-06 2.93745e-06 -6.27478e-06)
(3.62897e-06 9.57338e-07 -7.77105e-06)
(8.96159e-06 -8.71045e-07 -8.07672e-06)
(1.431e-05 -2.01245e-06 -8.29705e-06)
(1.94398e-05 -2.48989e-06 -8.77504e-06)
(2.43995e-05 -2.34172e-06 -9.60328e-06)
(2.91073e-05 -1.50643e-06 -1.08017e-05)
(3.34685e-05 1.00114e-07 -1.23833e-05)
(3.69415e-05 2.77682e-06 -1.43506e-05)
(3.91759e-05 6.28202e-06 -1.66441e-05)
(3.93785e-05 1.07688e-05 -1.91296e-05)
(3.73117e-05 1.47132e-05 -2.15764e-05)
(3.34366e-05 1.8104e-05 -2.37029e-05)
(2.80773e-05 2.0504e-05 -2.5413e-05)
(2.18044e-05 2.22254e-05 -2.6703e-05)
(1.48339e-05 2.32742e-05 -2.75692e-05)
(7.51792e-06 2.37747e-05 -2.80206e-05)
(8.71798e-08 2.37437e-05 -2.80556e-05)
(-7.16514e-06 2.31812e-05 -2.7674e-05)
(-1.40106e-05 2.20707e-05 -2.6877e-05)
(-2.00981e-05 2.02889e-05 -2.56564e-05)
(-2.52184e-05 1.78381e-05 -2.40177e-05)
(-2.87925e-05 1.44146e-05 -2.19699e-05)
(-3.05241e-05 1.04954e-05 -1.96283e-05)
(-2.99744e-05 6.08763e-06 -1.72781e-05)
(-2.73727e-05 2.77013e-06 -1.51532e-05)
(-2.34856e-05 4.30408e-07 -1.34209e-05)
(-1.86152e-05 -5.62184e-07 -1.21673e-05)
(-1.32742e-05 -3.93624e-07 -1.13984e-05)
(-7.54388e-06 9.25713e-07 -1.09997e-05)
(-1.76502e-06 3.28807e-06 -1.05213e-05)
(3.63528e-06 5.8471e-06 -8.61868e-06)
(3.97986e-06 7.15952e-06 -2.33995e-06)
(-4.52751e-06 1.36481e-05 -1.30155e-06)
(-4.3566e-06 1.45039e-05 -8.12532e-06)
(1.50078e-06 1.37563e-05 -1.04709e-05)
(7.6241e-06 1.31025e-05 -1.12856e-05)
(1.38089e-05 1.34245e-05 -1.1949e-05)
(1.97112e-05 1.49396e-05 -1.29027e-05)
(2.5497e-05 1.78201e-05 -1.43275e-05)
(3.11668e-05 2.23964e-05 -1.63101e-05)
(3.67591e-05 2.90307e-05 -1.88993e-05)
(4.14937e-05 3.84548e-05 -2.21246e-05)
(4.48984e-05 5.01855e-05 -2.58829e-05)
(4.52122e-05 6.4333e-05 -2.99679e-05)
(4.22813e-05 7.67186e-05 -3.38518e-05)
(3.7428e-05 8.7462e-05 -3.72432e-05)
(3.09978e-05 9.55823e-05 -3.9997e-05)
(2.38141e-05 0.000101637 -4.20844e-05)
(1.59835e-05 0.000105552 -4.3486e-05)
(7.88049e-06 0.000107523 -4.42162e-05)
(-3.30458e-07 0.000107558 -4.42704e-05)
(-8.36676e-06 0.000105656 -4.36482e-05)
(-1.60659e-05 0.000101812 -4.2354e-05)
(-2.30504e-05 9.58372e-05 -4.0375e-05)
(-2.92189e-05 8.78212e-05 -3.77331e-05)
(-3.37385e-05 7.72187e-05 -3.44645e-05)
(-3.62824e-05 6.5055e-05 -3.07261e-05)
(-3.55106e-05 5.12337e-05 -2.6825e-05)
(-3.15816e-05 4.0062e-05 -2.33064e-05)
(-2.62146e-05 3.14025e-05 -2.03949e-05)
(-1.97689e-05 2.58776e-05 -1.82044e-05)
(-1.29838e-05 2.28352e-05 -1.66753e-05)
(-5.80126e-06 2.19229e-05 -1.5585e-05)
(1.16889e-06 2.2587e-05 -1.43616e-05)
(7.52657e-06 2.33232e-05 -1.1232e-05)
(6.60581e-06 2.17623e-05 -2.22196e-06)
(-5.87821e-06 2.3895e-05 -6.12143e-07)
(-6.2412e-06 2.61306e-05 -8.37716e-06)
(3.94458e-07 2.64195e-05 -1.10491e-05)
(7.55524e-06 2.70731e-05 -1.20118e-05)
(1.49838e-05 2.90777e-05 -1.28225e-05)
(2.22442e-05 3.27751e-05 -1.3975e-05)
(2.96603e-05 3.85268e-05 -1.56923e-05)
(3.73542e-05 4.69962e-05 -1.80986e-05)
(4.56034e-05 5.89682e-05 -2.12508e-05)
(5.31284e-05 7.59761e-05 -2.5205e-05)
(5.91913e-05 9.7396e-05 -2.98058e-05)
(5.984e-05 0.000123784 -3.48997e-05)
(5.49282e-05 0.000146395 -3.96881e-05)
(4.76883e-05 0.000165717 -4.38582e-05)
(3.86709e-05 0.000180137 -4.7236e-05)
(2.92126e-05 0.000190912 -4.97769e-05)
(1.91631e-05 0.000197905 -5.14652e-05)
(8.95268e-06 0.000201456 -5.23409e-05)
(-1.36541e-06 0.000201558 -5.24009e-05)
(-1.15072e-05 0.000198212 -5.16446e-05)
(-2.14203e-05 0.000191425 -5.00741e-05)
(-3.06639e-05 0.000180861 -4.7651e-05)
(-3.939e-05 0.000166682 -4.4393e-05)
(-4.62343e-05 0.000147649 -4.03532e-05)
(-5.06664e-05 0.000125462 -3.57183e-05)
(-4.9395e-05 9.96378e-05 -3.08199e-05)
(-4.25995e-05 7.91242e-05 -2.64814e-05)
(-3.41864e-05 6.32274e-05 -2.28677e-05)
(-2.47063e-05 5.27424e-05 -2.01396e-05)
(-1.54279e-05 4.61888e-05 -1.82025e-05)
(-6.08309e-06 4.27793e-05 -1.68032e-05)
(2.52704e-06 4.16032e-05 -1.53225e-05)
(1.00368e-05 4.10334e-05 -1.17288e-05)
(8.44718e-06 3.76613e-05 -1.42608e-06)
(-6.7188e-06 3.45157e-05 1.79036e-07)
(-7.1185e-06 3.78617e-05 -8.3872e-06)
(7.30624e-07 3.90928e-05 -1.13296e-05)
(9.35464e-06 4.11029e-05 -1.23848e-05)
(1.85152e-05 4.49305e-05 -1.3315e-05)
(2.77625e-05 5.09713e-05 -1.4681e-05)
(3.76885e-05 5.97263e-05 -1.67436e-05)
(4.86596e-05 7.22328e-05 -1.96631e-05)
(6.14921e-05 8.99344e-05 -2.34712e-05)
(7.41353e-05 0.000115883 -2.82629e-05)
(8.56037e-05 0.000149876 -3.37658e-05)
(8.68819e-05 0.0001943 -4.01576e-05)
(7.77646e-05 0.000230369 -4.60567e-05)
(6.59804e-05 0.000260359 -5.12475e-05)
(5.23144e-05 0.000282103 -5.54638e-05)
(3.88876e-05 0.000298376 -5.85675e-05)
(2.49166e-05 0.000308921 -6.05922e-05)
(1.09449e-05 0.000314305 -6.16348e-05)
(-3.15378e-06 0.000314485 -6.1699e-05)
(-1.7058e-05 0.000309458 -6.07837e-05)
(-3.08946e-05 0.000299265 -5.88828e-05)
(-4.40968e-05 0.000283333 -5.59014e-05)
(-5.74448e-05 0.000261956 -5.18062e-05)
(-6.87559e-05 0.000232372 -4.67457e-05)
(-7.72771e-05 0.000196894 -4.10027e-05)
(-7.51494e-05 0.000153219 -3.48112e-05)
(-6.27033e-05 0.000120517 -2.95921e-05)
(-4.8933e-05 9.59852e-05 -2.51675e-05)
(-3.44927e-05 8.00964e-05 -2.18181e-05)
(-2.14721e-05 6.98541e-05 -1.94119e-05)
(-9.0912e-06 6.38725e-05 -1.7706e-05)
(1.84957e-06 6.08886e-05 -1.60032e-05)
(1.11806e-05 5.91707e-05 -1.19841e-05)
(9.61681e-06 5.43508e-05 -4.96117e-07)
(-7.28238e-06 4.46861e-05 9.71586e-07)
(-7.21997e-06 4.88839e-05 -8.51365e-06)
(2.45153e-06 5.09225e-05 -1.17885e-05)
(1.30986e-05 5.42348e-05 -1.29649e-05)
(2.45452e-05 5.98976e-05 -1.40581e-05)
(3.63879e-05 6.82602e-05 -1.57234e-05)
(4.96127e-05 7.984e-05 -1.82562e-05)
(6.50483e-05 9.59603e-05 -2.18494e-05)
(8.46929e-05 0.000118972 -2.64178e-05)
(0.000105776 0.000154669 -3.20725e-05)
(0.000127974 0.000204379 -3.80072e-05)
(0.000130619 0.000277176 -4.58769e-05)
(0.000113118 0.00033085 -5.30862e-05)
(9.37204e-05 0.00037354 -5.97842e-05)
(7.28686e-05 0.000403216 -6.53182e-05)
(5.3604e-05 0.000425542 -6.91809e-05)
(3.37227e-05 0.000439962 -7.16277e-05)
(1.40329e-05 0.00044737 -7.28741e-05)
(-5.85213e-06 0.000447638 -7.29441e-05)
(-2.5484e-05 0.000440755 -7.18358e-05)
(-4.5251e-05 0.000426842 -6.95217e-05)
(-6.43044e-05 0.000404981 -6.57887e-05)
(-8.48405e-05 0.000375768 -6.03788e-05)
(-0.000103693 0.00033354 -5.38137e-05)
(-0.000120482 0.00028057 -4.67678e-05)
(-0.00011666 0.000208614 -3.9096e-05)
(-9.31912e-05 0.000160722 -3.3474e-05)
(-7.08057e-05 0.000126706 -2.82211e-05)
(-4.91591e-05 0.00010578 -2.41649e-05)
(-3.11466e-05 9.2247e-05 -2.11574e-05)
(-1.48111e-05 8.39379e-05 -1.90553e-05)
(-7.10165e-07 7.93619e-05 -1.70486e-05)
(1.13324e-05 7.67115e-05 -1.24754e-05)
(1.04661e-05 7.07786e-05 4.30683e-07)
(-7.72353e-06 5.40542e-05 1.81831e-06)
(-6.73112e-06 5.89509e-05 -8.83797e-06)
(5.49542e-06 6.1835e-05 -1.25633e-05)
(1.88301e-05 6.65178e-05 -1.39193e-05)
(3.31636e-05 7.42007e-05 -1.52365e-05)
(4.81224e-05 8.5037e-05 -1.72897e-05)
(6.51331e-05 9.92963e-05 -2.03992e-05)
(8.57385e-05 0.000118061 -2.47836e-05)
(0.000114323 0.000144499 -3.01164e-05)
(0.000147814 0.000187638 -3.63129e-05)
(0.000191291 0.000255002 -4.13275e-05)
(0.000197351 0.000375166 -5.05613e-05)
(0.000162785 0.00045125 -5.87664e-05)
(0.000131537 0.000509042 -6.76511e-05)
(0.000100713 0.000547656 -7.52865e-05)
(7.38251e-05 0.000577282 -7.9969e-05)
(4.58894e-05 0.000596455 -8.28639e-05)
(1.83448e-05 0.000606372 -8.4319e-05)
(-9.5547e-06 0.000606745 -8.43965e-05)
(-3.70644e-05 0.000597557 -8.30937e-05)
(-6.49381e-05 0.000579073 -8.03434e-05)
(-9.1676e-05 0.000550043 -7.58024e-05)
(-0.000122255 0.000511961 -6.82967e-05)
(-0.000152922 0.000454595 -5.95553e-05)
(-0.000186718 0.00037922 -5.15374e-05)
(-0.000178942 0.000259771 -4.24901e-05)
(-0.00013381 0.00019514 -3.78357e-05)
(-9.90358e-05 0.000153839 -3.20722e-05)
(-6.80182e-05 0.000129663 -2.73222e-05)
(-4.41769e-05 0.000113756 -2.36187e-05)
(-2.31475e-05 0.000103294 -2.10353e-05)
(-5.02703e-06 9.71229e-05 -1.86216e-05)
(1.07662e-05 9.34891e-05 -1.32927e-05)
(1.12268e-05 8.65767e-05 1.43799e-06)
(-8.13026e-06 6.2296e-05 2.76352e-06)
(-5.64964e-06 6.77029e-05 -9.34045e-06)
(1.00527e-05 7.14413e-05 -1.37115e-05)
(2.69024e-05 7.76341e-05 -1.52904e-05)
(4.49354e-05 8.75877e-05 -1.68976e-05)
(6.35549e-05 0.000101103 -1.94387e-05)
(8.42828e-05 0.00011778 -2.32601e-05)
(0.000109281 0.000137414 -2.86608e-05)
(0.000145778 0.000162293 -3.48004e-05)
(0.000194039 0.000207193 -4.19743e-05)
(0.000280597 0.000287583 -3.983e-05)
(0.000296225 0.000492902 -4.81035e-05)
(0.000228504 0.000591937 -5.755e-05)
(0.000181934 0.000663225 -7.07401e-05)
(0.000138737 0.000709638 -8.21031e-05)
(0.000102264 0.000745998 -8.76122e-05)
(6.31696e-05 0.000769746 -9.09405e-05)
(2.45049e-05 0.00078216 -9.25894e-05)
(-1.48141e-05 0.000782662 -9.26754e-05)
(-5.34839e-05 0.000771227 -9.11946e-05)
(-9.26127e-05 0.000748393 -8.80257e-05)
(-0.000129077 0.000712791 -8.26775e-05)
(-0.000172245 0.000666968 -7.14583e-05)
(-0.000218339 0.000595929 -5.84384e-05)
(-0.000285464 0.000497518 -4.92691e-05)
(-0.000267077 0.000292496 -4.10765e-05)
(-0.000178304 0.000216795 -4.35821e-05)
(-0.000129251 0.000173421 -3.69002e-05)
(-8.9765e-05 0.00015072 -3.14543e-05)
(-6.0662e-05 0.000134033 -2.68701e-05)
(-3.46522e-05 0.000121598 -2.37057e-05)
(-1.15608e-05 0.000113673 -2.07853e-05)
(9.3528e-06 0.000108887 -1.44087e-05)
(1.19621e-05 0.000101195 2.67345e-06)
(-8.57588e-06 6.9014e-05 3.66596e-06)
(-4.0725e-06 7.48791e-05 -1.00759e-05)
(1.61893e-05 7.96074e-05 -1.52212e-05)
(3.76129e-05 8.78091e-05 -1.70855e-05)
(6.03499e-05 0.000100994 -1.90283e-05)
(8.33119e-05 0.000118776 -2.20927e-05)
(0.000107344 0.000140054 -2.66862e-05)
(0.000133591 0.00016127 -3.32078e-05)
(0.000173847 0.000183374 -4.12404e-05)
(0.000229076 0.000220076 -4.79015e-05)
(0.000397905 0.000242347 -4.80566e-05)
(0.00043837 0.000610382 -4.0596e-05)
(0.000301494 0.000742269 -4.75067e-05)
(0.00024141 0.000833304 -6.75789e-05)
(0.000185756 0.000892586 -8.40511e-05)
(0.000138063 0.00094123 -9.00616e-05)
(8.51688e-05 0.00097336 -9.42672e-05)
(3.24334e-05 0.000989989 -9.62697e-05)
(-2.14582e-05 0.000990657 -9.63598e-05)
(-7.42532e-05 0.000975337 -9.45335e-05)
(-0.000127319 0.000944455 -9.04899e-05)
(-0.00017524 0.000896854 -8.46495e-05)
(-0.000231326 0.000838331 -6.8321e-05)
(-0.000291223 0.00074743 -4.84627e-05)
(-0.000428178 0.000615834 -4.19221e-05)
(-0.000382841 0.000245282 -4.98279e-05)
(-0.00021129 0.000230748 -4.98116e-05)
(-0.000157036 0.000195469 -4.35286e-05)
(-0.000112777 0.000175722 -3.63446e-05)
(-8.1234e-05 0.00015749 -3.08149e-05)
(-5.01923e-05 0.000140829 -2.70648e-05)
(-2.09328e-05 0.000129535 -2.36201e-05)
(6.88947e-06 0.000122791 -1.58695e-05)
(1.27318e-05 0.000114276 4.17312e-06)
(-8.89717e-06 7.35157e-05 4.66677e-06)
(-1.62315e-06 7.96915e-05 -1.10341e-05)
(2.46517e-05 8.53582e-05 -1.71106e-05)
(5.24862e-05 9.55637e-05 -1.93401e-05)
(8.23605e-05 0.000112205 -2.17064e-05)
(0.000112738 0.000135049 -2.54025e-05)
(0.000142027 0.000162032 -3.08746e-05)
(0.000170624 0.000184795 -3.98347e-05)
(0.000206559 0.000190098 -4.96622e-05)
(0.000169224 0.000107183 -7.26722e-05)
(0.000472351 0.000218215 -7.27623e-05)
(0.000640181 0.000862777 -1.20204e-05)
(0.000395046 0.000932472 -1.07574e-05)
(0.000332002 0.000994505 -3.32866e-05)
(0.000261558 0.00105764 -5.32294e-05)
(0.000196265 0.00111021 -5.50124e-05)
(0.000120526 0.00114793 -5.79091e-05)
(4.48725e-05 0.00116745 -5.94753e-05)
(-3.20606e-05 0.00116829 -5.95428e-05)
(-0.000107803 0.00115046 -5.81134e-05)
(-0.000183831 0.00111435 -5.53226e-05)
(-0.000249615 0.00106322 -5.37085e-05)
(-0.000321076 0.00100108 -3.38955e-05)
(-0.000384743 0.000938819 -1.15872e-05)
(-0.000634304 0.00086556 -1.36157e-05)
(-0.000458985 0.000221456 -7.523e-05)
(-0.000149879 0.000126088 -7.37809e-05)
(-0.000189789 0.000206638 -5.16004e-05)
(-0.000148685 0.000201026 -4.32369e-05)
(-0.000113706 0.000180344 -3.56634e-05)
(-7.53437e-05 0.000157955 -3.13357e-05)
(-3.6239e-05 0.000142232 -2.73023e-05)
(1.99143e-06 0.000133218 -1.78588e-05)
(1.30494e-05 0.0001242 5.89176e-06)
(-9.21884e-06 7.54495e-05 5.69812e-06)
(1.35292e-06 8.17969e-05 -1.22082e-05)
(3.47187e-05 8.84121e-05 -1.93674e-05)
(7.04243e-05 0.00010083 -2.20505e-05)
(0.000109751 0.000122084 -2.49132e-05)
(0.000150696 0.000154276 -2.89647e-05)
(0.000188766 0.000200311 -3.43121e-05)
(0.000215879 0.000262201 -3.93716e-05)
(0.000174817 0.000343026 -5.85515e-05)
(0.000175506 0.000391617 -9.38872e-05)
(0.000284439 0.000734946 7.33754e-05)
(0.000316511 0.000936942 3.66524e-05)
(0.00039291 0.00106093 2.31657e-05)
(0.000341554 0.00117144 2.30321e-05)
(0.00025778 0.00124977 1.81511e-05)
(0.000160006 0.00130166 1.28948e-05)
(5.88767e-05 0.00132697 1.04109e-05)
(-4.36966e-05 0.00132794 1.04146e-05)
(-0.000144937 0.00130462 1.28965e-05)
(-0.000243045 0.0012548 1.81548e-05)
(-0.000327516 0.00117872 2.30548e-05)
(-0.000380695 0.00107062 2.32737e-05)
(-0.000308484 0.000948981 3.63621e-05)
(-0.000279481 0.000746711 7.17707e-05)
(-0.00017157 0.000403238 -9.0723e-05)
(-0.000166777 0.000357225 -6.00291e-05)
(-0.000197613 0.000277169 -4.34516e-05)
(-0.000160268 0.000217946 -4.01596e-05)
(-0.000109882 0.000176921 -3.63142e-05)
(-5.69715e-05 0.000152449 -3.19871e-05)
(-4.8921e-06 0.000139707 -2.05777e-05)
(1.32169e-05 0.000129834 7.47107e-06)
(-9.29719e-06 7.4144e-05 6.74948e-06)
(5.24544e-06 8.03054e-05 -1.35137e-05)
(4.71831e-05 8.69604e-05 -2.18706e-05)
(9.36048e-05 9.95822e-05 -2.5158e-05)
(0.000148784 0.00012144 -2.88856e-05)
(0.000215696 0.000155324 -3.42446e-05)
(0.000299382 0.000205953 -4.13146e-05)
(0.00041311 0.000279695 -4.68372e-05)
(0.00054691 0.000387702 -4.96124e-05)
(0.000814846 0.000544896 -3.07835e-05)
(0.000843492 0.00015006 5.24467e-05)
(0.000641952 0.000304242 7.81608e-05)
(0.000709118 0.000686124 0.000133943)
(0.000637896 0.000898012 0.000186871)
(0.000508298 0.00104684 0.000216551)
(0.000363303 0.00114515 0.000225727)
(0.000218601 0.00120547 0.000226046)
(7.81466e-05 0.00123408 0.000225253)
(-6.0542e-05 0.00123501 0.000225311)
(-0.000200925 0.00120833 0.000226214)
(-0.000345498 0.00115008 0.000226031)
(-0.000490268 0.00105416 0.000217125)
(-0.000619719 0.00090815 0.000188038)
(-0.000691076 0.000699633 0.000135819)
(-0.000622464 0.000320367 8.13629e-05)
(-0.000831533 0.000152992 5.50483e-05)
(-0.000809714 0.000546342 -2.9863e-05)
(-0.000536134 0.00039628 -5.17348e-05)
(-0.000394684 0.000291954 -5.14288e-05)
(-0.000269869 0.000222138 -4.83385e-05)
(-0.000171492 0.000177044 -4.32727e-05)
(-8.94429e-05 0.000151156 -3.78669e-05)
(-1.65056e-05 0.000138085 -2.40206e-05)
(1.18346e-05 0.000128007 9.14967e-06)
(-9.65354e-06 6.95251e-05 7.75006e-06)
(8.25843e-06 7.51823e-05 -1.4723e-05)
(5.76297e-05 8.08145e-05 -2.42395e-05)
(0.000112552 9.12782e-05 -2.81104e-05)
(0.000178853 0.000108799 -3.26104e-05)
(0.000260638 0.000134214 -3.91007e-05)
(0.00036366 0.000167459 -4.73717e-05)
(0.00049853 0.000205798 -5.41852e-05)
(0.00065754 0.000238222 -5.5563e-05)
(0.000892838 0.000255735 -4.0349e-05)
(0.00100413 0.000123338 -1.28258e-05)
(0.000967488 0.000314149 3.6793e-05)
(0.000931429 0.000508559 0.000141991)
(0.000798079 0.000651631 0.000211969)
(0.000628205 0.000762124 0.000248122)
(0.000443291 0.000835368 0.000262787)
(0.000264446 0.000881255 0.000265951)
(9.35238e-05 0.000903362 0.000266212)
(-7.40039e-05 0.000904136 0.000266272)
(-0.000244795 0.000883591 0.000266131)
(-0.000423398 0.000839304 0.000263122)
(-0.000607937 0.000767684 0.000248757)
(-0.000777787 0.000658749 0.000213294)
(-0.000911627 0.000516576 0.000144251)
(-0.000948699 0.000321947 4.07875e-05)
(-0.00099105 0.000126194 -1.02475e-05)
(-0.000884639 0.000261971 -4.01902e-05)
(-0.000646866 0.000247089 -5.81818e-05)
(-0.000479972 0.000217424 -5.95198e-05)
(-0.000332649 0.000182782 -5.55269e-05)
(-0.000212615 0.000154887 -4.96466e-05)
(-0.000112631 0.000137039 -4.32427e-05)
(-2.4328e-05 0.000127686 -2.72122e-05)
(1.15498e-05 0.000118665 1.09302e-05)
(-1.00162e-05 6.22699e-05 8.72238e-06)
(1.06506e-05 6.73572e-05 -1.57384e-05)
(6.62796e-05 7.17742e-05 -2.62549e-05)
(0.000128073 7.98347e-05 -3.06226e-05)
(0.00020275 9.30483e-05 -3.58067e-05)
(0.000294511 0.000111487 -4.34672e-05)
(0.000408962 0.000134076 -5.35529e-05)
(0.000554031 0.000158685 -6.37983e-05)
(0.000721405 0.000178767 -7.02856e-05)
(0.000919928 0.000195977 -6.57228e-05)
(0.00105207 0.000161311 -4.54869e-05)
(0.00110041 0.000251343 1.76303e-05)
(0.00106067 0.000369882 0.00012745)
(0.000905242 0.000467825 0.000196132)
(0.000707913 0.000544071 0.000231721)
(0.000495404 0.000593458 0.000240897)
(0.00029444 0.000624575 0.000240238)
(0.000103624 0.000639509 0.000238516)
(-8.26167e-05 0.000640138 0.000238541)
(-0.000273279 0.000626464 0.00024031)
(-0.000473972 0.000596601 0.000241053)
(-0.000686094 0.000548427 0.000232106)
(-0.000883556 0.000473307 0.000197166)
(-0.00103977 0.000376134 0.000129412)
(-0.00108278 0.000258075 2.13644e-05)
(-0.00104026 0.000166016 -4.3256e-05)
(-0.000910942 0.000201923 -6.55146e-05)
(-0.000709801 0.000186787 -7.30266e-05)
(-0.000534179 0.000169335 -6.95304e-05)
(-0.000375617 0.000148216 -6.2472e-05)
(-0.000242222 0.000130554 -5.50997e-05)
(-0.000129746 0.000118816 -4.75999e-05)
(-2.96924e-05 0.000112493 -2.96425e-05)
(1.17226e-05 0.000104826 1.27238e-05)
(-1.04745e-05 5.29761e-05 9.57372e-06)
(1.20781e-05 5.72811e-05 -1.65528e-05)
(7.2213e-05 6.04072e-05 -2.78567e-05)
(0.000138649 6.59717e-05 -3.26099e-05)
(0.00021836 7.492e-05 -3.83121e-05)
(0.000315142 8.69341e-05 -4.68612e-05)
(0.000434316 0.000100759 -5.83121e-05)
(0.000581751 0.000115068 -7.07721e-05)
(0.000750419 0.000126045 -7.99616e-05)
(0.000936282 0.000138137 -7.85833e-05)
(0.00108366 0.000137834 -5.84066e-05)
(0.00117257 0.000193405 1.24234e-06)
(0.00113529 0.000267213 0.000108482)
(0.000967041 0.000328521 0.000170321)
(0.000755217 0.000376875 0.000200484)
(0.000527398 0.000409011 0.000203891)
(0.000313342 0.000429662 0.000199662)
(0.000110125 0.000439724 0.000196138)
(-8.79406e-05 0.000440276 0.000196128)
(-0.000291029 0.0004313 0.000199626)
(-0.000504873 0.000411684 0.000203861)
(-0.000732404 0.000380488 0.000200598)
(-0.000944571 0.000332954 0.000171021)
(-0.00111387 0.000272209 0.000110095)
(-0.00115527 0.000198875 4.72767e-06)
(-0.00107199 0.000142816 -5.63454e-05)
(-0.000926479 0.000144186 -7.85374e-05)
(-0.000737739 0.000133616 -8.28824e-05)
(-0.000560287 0.000124788 -7.68299e-05)
(-0.000398375 0.000113463 -6.77748e-05)
(-0.00025868 0.000103807 -5.92379e-05)
(-0.000139287 9.72829e-05 -5.08419e-05)
(-3.18239e-05 9.36664e-05 -3.13544e-05)
(1.27089e-05 8.76241e-05 1.41475e-05)
(-1.09185e-05 4.24378e-05 1.0255e-05)
(1.28921e-05 4.58399e-05 -1.71573e-05)
(7.62124e-05 4.79733e-05 -2.90547e-05)
(0.000145799 5.1662e-05 -3.40885e-05)
(0.000228686 5.7571e-05 -4.01616e-05)
(0.000328267 6.54193e-05 -4.93483e-05)
(0.000449727 7.4352e-05 -6.17793e-05)
(0.000597871 8.38313e-05 -7.57125e-05)
(0.000767218 9.21572e-05 -8.65842e-05)
(0.000950535 0.000103217 -8.69906e-05)
(0.00110828 0.0001136 -6.64904e-05)
(0.00121641 0.00014989 -8.09535e-06)
(0.00118127 0.000195718 9.73304e-05)
(0.00100663 0.000235499 0.000154893)
(0.000785809 0.000267207 0.000181246)
(0.000548252 0.000288731 0.00018097)
(0.000325752 0.000302706 0.000174393)
(0.000114508 0.000309643 0.000169701)
(-9.12516e-05 0.000310178 0.000169673)
(-0.00030241 0.000304284 0.0001743)
(-0.000524787 0.000291279 0.000180841)
(-0.000762184 0.000270604 0.000181213)
(-0.000983538 0.000239597 0.000155412)
(-0.00115939 0.000200299 9.87358e-05)
(-0.00119913 0.000154841 -4.94654e-06)
(-0.00109649 0.000118604 -6.45593e-05)
(-0.000940037 0.000108977 -8.70324e-05)
(-0.000753492 9.90026e-05 -8.96381e-05)
(-0.000574796 9.23269e-05 -8.19969e-05)
(-0.000411346 8.51849e-05 -7.16042e-05)
(-0.000268158 7.94874e-05 -6.22065e-05)
(-0.000144633 7.57879e-05 -5.31333e-05)
(-3.24366e-05 7.36944e-05 -3.25128e-05)
(1.37912e-05 6.90268e-05 1.52343e-05)
(-1.13352e-05 3.10893e-05 1.07206e-05)
(1.32391e-05 3.35169e-05 -1.75857e-05)
(7.86436e-05 3.48476e-05 -2.99021e-05)
(0.000150209 3.70811e-05 -3.51218e-05)
(0.000235 4.06979e-05 -4.14267e-05)
(0.00033615 4.55614e-05 -5.10004e-05)
(0.000458884 5.12578e-05 -6.40079e-05)
(0.000607662 5.77259e-05 -7.874e-05)
(0.000778313 6.44595e-05 -9.04655e-05)
(0.000962727 7.40757e-05 -9.16103e-05)
(0.00112707 8.57112e-05 -7.11497e-05)
(0.00124479 0.000109369 -1.31526e-05)
(0.00121091 0.000137999 9.21936e-05)
(0.00103228 0.000163313 0.000148123)
(0.000805831 0.000183661 0.000172739)
(0.000562207 0.000197946 0.000170778)
(0.000334215 0.000207398 0.000163142)
(0.000117636 0.000212255 0.00015793)
(-9.33129e-05 0.000212815 0.000157898)
(-0.000309866 0.000209045 0.000163035)
(-0.000537853 0.00020058 0.00017062)
(-0.000781483 0.000187127 0.000172661)
(-0.00100869 0.000167416 0.000148582)
(-0.00118879 0.000142513 9.35807e-05)
(-0.0012274 0.000114119 -9.80825e-06)
(-0.00111497 9.05696e-05 -6.9259e-05)
(-0.00095168 7.93605e-05 -9.17466e-05)
(-0.000763745 7.04099e-05 -9.36549e-05)
(-0.000583289 6.47644e-05 -8.52182e-05)
(-0.00041858 5.98813e-05 -7.41048e-05)
(-0.000273272 5.63793e-05 -6.41956e-05)
(-0.000147313 5.42836e-05 -5.46899e-05)
(-3.22645e-05 5.30945e-05 -3.33068e-05)
(1.47865e-05 4.97747e-05 1.59344e-05)
(-1.16392e-05 1.93398e-05 1.0983e-05)
(1.33526e-05 2.08066e-05 -1.78728e-05)
(7.99863e-05 2.14913e-05 -3.04469e-05)
(0.000152722 2.26141e-05 -3.57738e-05)
(0.000238675 2.4514e-05 -4.22052e-05)
(0.000340865 2.72291e-05 -5.19851e-05)
(0.000464602 3.0736e-05 -6.52952e-05)
(0.000614276 3.51965e-05 -8.04243e-05)
(0.000786392 4.06644e-05 -9.25543e-05)
(0.000972556 4.82647e-05 -9.39855e-05)
(0.0011407 5.78179e-05 -7.35097e-05)
(0.00126296 7.19809e-05 -1.55544e-05)
(0.00122958 8.7906e-05 9.05457e-05)
(0.00104854 0.000102259 0.00014629)
(0.000818653 0.000113904 0.000170442)
(0.000571341 0.000122459 0.000167952)
(0.000339871 0.000128263 0.000159968)
(0.000119889 0.000131435 0.000154586)
(-9.44198e-05 0.000132056 0.000154557)
(-0.000314452 0.000130084 0.000159867)
(-0.000546061 0.000125352 0.000167802)
(-0.000793585 0.000117674 0.000170371)
(-0.00102446 0.000106642 0.00014675)
(-0.00120718 9.26328e-05 9.1955e-05)
(-0.00124552 7.68323e-05 -1.19621e-05)
(-0.00112857 6.25143e-05 -7.16542e-05)
(-0.000961265 5.30128e-05 -9.42182e-05)
(-0.000771353 4.56267e-05 -9.58753e-05)
(-0.000589111 4.06454e-05 -8.70721e-05)
(-0.000423103 3.69612e-05 -7.56066e-05)
(-0.000276275 3.45635e-05 -6.54296e-05)
(-0.000148772 3.32481e-05 -5.56845e-05)
(-3.20287e-05 3.2522e-05 -3.3845e-05)
(1.54517e-05 3.04678e-05 1.6319e-05)
(-1.17982e-05 7.47871e-06 1.10486e-05)
(1.33254e-05 7.97953e-06 -1.8043e-05)
(8.04241e-05 8.0533e-06 -3.07196e-05)
(0.000153657 8.15012e-06 -3.60822e-05)
(0.000240195 8.47134e-06 -4.25485e-05)
(0.000343084 9.22211e-06 -5.23785e-05)
(0.000467703 1.07108e-05 -6.57628e-05)
(0.000618475 1.32487e-05 -8.09817e-05)
(0.000791971 1.7304e-05 -9.31967e-05)
(0.000979624 2.26657e-05 -9.46809e-05)
(0.00114924 2.94634e-05 -7.42223e-05)
(0.00127238 3.53686e-05 -1.61958e-05)
(0.00123872 3.99349e-05 9.03766e-05)
(0.00105653 4.42114e-05 0.000146442)
(0.000825109 4.77332e-05 0.000170735)
(0.000576181 5.0854e-05 0.000168297)
(0.000343044 5.32029e-05 0.00016032)
(0.000121392 5.47967e-05 0.00015494)
(-9.46308e-05 5.55115e-05 0.000154914)
(-0.000316428 5.53002e-05 0.000160228)
(-0.000549887 5.41704e-05 0.000168159)
(-0.000799293 5.20239e-05 0.000170677)
(-0.00103201 4.91115e-05 0.000146904)
(-0.00121619 4.50664e-05 9.17715e-05)
(-0.00125507 4.03189e-05 -1.26363e-05)
(-0.0011373 3.40093e-05 -7.24564e-05)
(-0.000968407 2.69068e-05 -9.5036e-05)
(-0.000776884 2.13053e-05 -9.66653e-05)
(-0.000593109 1.71234e-05 -8.77974e-05)
(-0.000425832 1.45287e-05 -7.62623e-05)
(-0.000277918 1.30504e-05 -6.60235e-05)
(-0.000149517 1.23528e-05 -5.62092e-05)
(-3.19652e-05 1.20113e-05 -3.41857e-05)
(1.57359e-05 1.12449e-05 1.641e-05)
(-1.18167e-05 -4.18698e-06 1.09173e-05)
(1.31529e-05 -4.6519e-06 -1.8097e-05)
(7.9953e-05 -5.23532e-06 -3.07239e-05)
(0.000153005 -6.26588e-06 -3.60537e-05)
(0.000239548 -7.69715e-06 -4.24717e-05)
(0.000342762 -9.1718e-06 -5.22166e-05)
(0.000468084 -1.00165e-05 -6.54553e-05)
(0.00062012 -9.68537e-06 -8.0455e-05)
(0.000794955 -7.07467e-06 -9.24401e-05)
(0.000983968 -3.60423e-06 -9.37572e-05)
(0.00115299 1.7208e-06 -7.33924e-05)
(0.00127338 -1.72847e-07 -1.53406e-05)
(0.00123842 -7.63069e-06 9.13704e-05)
(0.00105623 -1.40446e-05 0.000148152)
(0.000825159 -1.9193e-05 0.000173106)
(0.000576705 -2.17915e-05 0.000171247)
(0.000343737 -2.30584e-05 0.000163599)
(0.000122169 -2.30847e-05 0.000158377)
(-9.39003e-05 -2.22221e-05 0.000158353)
(-0.000315728 -2.0523e-05 0.000163512)
(-0.00054924 -1.77851e-05 0.000171109)
(-0.000798512 -1.40157e-05 0.000173035)
(-0.00103131 -8.20218e-06 0.000148572)
(-0.00121593 -1.66074e-06 9.26879e-05)
(-0.00125643 5.21623e-06 -1.19364e-05)
(-0.00114144 6.33495e-06 -7.17792e-05)
(-0.000973135 3.55906e-07 -9.42866e-05)
(-0.000780253 -3.78966e-06 -9.60876e-05)
(-0.000595159 -7.11472e-06 -8.7441e-05)
(-0.000426678 -8.32583e-06 -7.61035e-05)
(-0.000278149 -8.57757e-06 -6.59979e-05)
(-0.000149518 -8.42375e-06 -5.62777e-05)
(-3.20517e-05 -8.25341e-06 -3.4337e-05)
(1.56532e-05 -7.71388e-06 1.62098e-05)
(-1.172e-05 -1.53666e-05 1.0588e-05)
(1.27465e-05 -1.67949e-05 -1.80221e-05)
(7.83803e-05 -1.82038e-05 -3.04405e-05)
(0.00015042 -2.07093e-05 -3.56626e-05)
(0.000236163 -2.44897e-05 -4.19316e-05)
(0.000339081 -2.91031e-05 -5.14152e-05)
(0.000464727 -3.34818e-05 -6.42614e-05)
(0.000618188 -3.66159e-05 -7.86964e-05)
(0.000794594 -3.60681e-05 -9.00623e-05)
(0.000985951 -3.38631e-05 -9.08285e-05)
(0.00115254 -2.59671e-05 -7.04983e-05)
(0.00126518 -3.60215e-05 -1.20258e-05)
(0.00122728 -5.88782e-05 9.48959e-05)
(0.00104649 -7.9173e-05 0.000153429)
(0.00081795 -9.56491e-05 0.000180086)
(0.00057242 -0.000105447 0.000179821)
(0.0003417 -0.000111133 0.000173117)
(0.000122191 -0.000113069 0.000168338)
(-9.20624e-05 -0.000111981 0.000168293)
(-0.000311966 -0.000107921 0.000172965)
(-0.000543495 -0.00010035 0.000179569)
(-0.000790275 -8.90127e-05 0.00017985)
(-0.00102108 -7.16938e-05 0.000153629)
(-0.00120499 -5.12876e-05 9.59294e-05)
(-0.00124887 -2.94586e-05 -9.19325e-06)
(-0.00114163 -2.09144e-05 -6.91797e-05)
(-0.000975736 -2.97857e-05 -9.16461e-05)
(-0.000780619 -3.30513e-05 -9.3973e-05)
(-0.000594149 -3.48458e-05 -8.58982e-05)
(-0.000424565 -3.3386e-05 -7.5061e-05)
(-0.00027614 -3.12139e-05 -6.52919e-05)
(-0.000148238 -2.93477e-05 -5.58333e-05)
(-3.20253e-05 -2.82e-05 -3.4261e-05)
(1.52733e-05 -2.62319e-05 1.56981e-05)
(-1.15763e-05 -2.56285e-05 1.00584e-05)
(1.1891e-05 -2.79225e-05 -1.77995e-05)
(7.524e-05 -3.03223e-05 -2.98362e-05)
(0.000145082 -3.46585e-05 -3.48628e-05)
(0.000228679 -4.14405e-05 -4.08568e-05)
(0.000329905 -5.02845e-05 -4.98529e-05)
(0.000454593 -5.98598e-05 -6.19395e-05)
(0.000609103 -6.85296e-05 -7.51986e-05)
(0.000787739 -7.15712e-05 -8.52092e-05)
(0.00098561 -7.07396e-05 -8.44704e-05)
(0.00114828 -5.05244e-05 -6.46088e-05)
(0.00124419 -7.00111e-05 -5.82809e-06)
(0.00120024 -0.000117523 0.000102523)
(0.00102261 -0.000157831 0.000164676)
(0.000799997 -0.000190224 0.000194606)
(0.000561285 -0.000210018 0.000197632)
(0.000335896 -0.000221815 0.000192959)
(0.0001212 -0.000226381 0.000189151)
(-8.86986e-05 -0.000224937 0.00018905)
(-0.000303933 -0.000217516 0.000192632)
(-0.000530409 -0.000203123 0.000197074)
(-0.000770887 -0.000181079 0.000193941)
(-0.000996439 -0.000147423 0.00016434)
(-0.00117809 -0.000106877 0.000102956)
(-0.0012289 -6.12369e-05 -3.70002e-06)
(-0.00113835 -4.44523e-05 -6.37553e-05)
(-0.000976122 -6.57644e-05 -8.5768e-05)
(-0.000774722 -6.80158e-05 -8.95206e-05)
(-0.000586396 -6.67643e-05 -8.26774e-05)
(-0.00041634 -6.05794e-05 -7.28652e-05)
(-0.00026964 -5.43341e-05 -6.373e-05)
(-0.000144265 -4.96858e-05 -5.47432e-05)
(-3.11743e-05 -4.70366e-05 -3.3873e-05)
(1.48514e-05 -4.36214e-05 1.48065e-05)
(-1.13772e-05 -3.45109e-05 9.38247e-06)
(1.04928e-05 -3.75808e-05 -1.74116e-05)