/*--------------------------------*- C++ -*----------------------------------*\
| =========                 |                                                 |
| \\      /  F ield         | OpenFOAM: The Open Source CFD Toolbox           |
|  \\    /   O peration     | Version:  2112                                  |
|   \\  /    A nd           | Website:  www.openfoam.com                      |
|    \\/     M anipulation  |                                                 |
\*---------------------------------------------------------------------------*/
FoamFile
{
    version     2.0;
    format      ascii;
    arch        "LSB;label=32;scalar=64";
    class       volScalarField;
    location    "0.5";
    object      epsilon;
}
// * * * * * * * * * * * * * * * * * * * * * * * * * * * * * * * * * * * * * //

dimensions      [0 2 -3 0 0 0 0];

internalField   nonuniform List<scalar> 
64906
(
0.0507826
0.051158
0.0511976
0.0511958
0.051195
0.0511951
0.0511954
0.0511957
0.051196
0.0511963
0.0511967
0.051197
0.0511972
0.0511974
0.0511975
0.0511976
0.0511976
0.0511976
0.0511976
0.0511976
0.0511976
0.0511975
0.0511974
0.0511972
0.0511969
0.0511966
0.0511963
0.051196
0.0511957
0.0511956
0.0511964
0.0511982
0.0511586
0.0507831
0.0511583
0.0585327
0.0596963
0.0597778
0.0597771
0.0597763
0.0597767
0.0597772
0.0597778
0.0597785
0.0597792
0.0597799
0.0597805
0.0597811
0.0597816
0.059782
0.0597822
0.0597823
0.0597823
0.0597822
0.059782
0.0597816
0.0597812
0.0597806
0.05978
0.0597793
0.0597787
0.0597781
0.0597777
0.0597783
0.059779
0.0596974
0.0585338
0.051159
0.0511981
0.0596968
0.0611411
0.0612491
0.0612484
0.0612474
0.0612479
0.0612487
0.0612497
0.0612509
0.0612521
0.0612534
0.0612547
0.0612558
0.0612568
0.0612575
0.061258
0.0612583
0.0612583
0.0612581
0.0612576
0.0612569
0.061256
0.0612549
0.0612537
0.0612524
0.0612512
0.0612502
0.0612495
0.0612503
0.0612509
0.0611428
0.0596983
0.051199
0.0511965
0.0597786
0.0612494
0.061359
0.061358
0.0613571
0.0613577
0.0613588
0.0613602
0.0613618
0.0613637
0.0613656
0.0613675
0.0613692
0.0613706
0.0613717
0.0613725
0.0613729
0.0613729
0.0613726
0.0613718
0.0613708
0.0613694
0.0613677
0.0613659
0.061364
0.0613622
0.0613607
0.0613597
0.0613604
0.0613613
0.0612515
0.0597804
0.0511976
0.0511959
0.059778
0.0612489
0.0613582
0.0613571
0.0613564
0.0613573
0.0613588
0.0613607
0.0613629
0.0613656
0.0613686
0.0613713
0.0613737
0.0613758
0.0613774
0.0613784
0.061379
0.061379
0.0613785
0.0613775
0.0613759
0.0613739
0.0613715
0.0613689
0.061366
0.0613634
0.0613612
0.0613598
0.0613601
0.0613609
0.0612514
0.0597802
0.0511973
0.0511961
0.0597774
0.061248
0.0613573
0.0613565
0.061356
0.0613572
0.0613592
0.0613619
0.0613654
0.0613693
0.0613739
0.0613775
0.0613809
0.0613838
0.061386
0.0613876
0.0613884
0.0613884
0.0613877
0.0613862
0.061384
0.0613811
0.0613778
0.0613742
0.0613697
0.0613659
0.0613626
0.0613603
0.0613602
0.0613606
0.061251
0.05978
0.0511978
0.0511965
0.0597778
0.0612485
0.061358
0.0613574
0.0613572
0.061359
0.0613619
0.0613663
0.0613716
0.0613727
0.0613842
0.0613887
0.0613927
0.0613967
0.0613997
0.0614018
0.0614029
0.0614029
0.0614019
0.0613999
0.0613969
0.061393
0.061389
0.0613845
0.0613731
0.0613721
0.061367
0.061363
0.061362
0.061362
0.0612521
0.0597808
0.0511985
0.0511969
0.0597783
0.0612493
0.0613591
0.0613588
0.0613591
0.0613617
0.0613665
0.0613736
0.061363
0.0612778
0.0613785
0.0614004
0.0614045
0.0614092
0.0614126
0.0614153
0.0614167
0.0614167
0.0614154
0.0614129
0.0614095
0.0614048
0.0614008
0.0613789
0.0612782
0.0613635
0.0613743
0.0613677
0.0613648
0.0613639
0.0612535
0.0597818
0.0511992
0.0511972
0.0597788
0.0612502
0.0613603
0.0613603
0.0613613
0.0613655
0.0613728
0.0613555
0.0610701
0.0600054
0.0610678
0.0613464
0.0613735
0.0613784
0.0613814
0.0613842
0.0613859
0.0613859
0.0613844
0.0613816
0.0613788
0.0613739
0.0613468
0.0610683
0.0600056
0.0610706
0.0613563
0.061374
0.0613686
0.0613662
0.0612551
0.0597828
0.0511998
0.0511975
0.0597793
0.0612511
0.0613615
0.0613621
0.0613639
0.0613695
0.0613605
0.0610683
0.0587528
0.0519687
0.0586696
0.060842
0.0611075
0.0611243
0.0611268
0.0611295
0.0611311
0.0611312
0.0611296
0.0611271
0.0611247
0.0611079
0.0608425
0.0586704
0.0519685
0.0587534
0.0610692
0.0613617
0.0613727
0.0613688
0.0612568
0.0597837
0.0512004
0.0511977
0.0597797
0.0612519
0.0613628
0.0613639
0.0613665
0.0613686
0.0612727
0.0600025
0.05197
0.0518855
0.0592968
0.0604024
0.0604859
0.0604888
0.0604899
0.0604907
0.0604908
0.0604899
0.060489
0.060486
0.0604026
0.0592974
0.0518861
0.0519706
0.0600035
0.061274
0.0613717
0.0613714
0.0612585
0.0597846
0.0512008
0.0511978
0.05978
0.0612527
0.061364
0.0613657
0.0613691
0.061377
0.061371
0.06108
0.0587553
0.0519704
0.0586031
0.060788
0.0610497
0.0610618
0.0610541
0.0610511
0.0610504
0.0610504
0.061051
0.061054
0.0610617
0.0610496
0.0607879
0.0586027
0.0519696
0.0587549
0.0610803
0.0613719
0.0613799
0.0613738
0.06126
0.0597851
0.0512011
0.0511979
0.0597802
0.0612534
0.0613651
0.0613672
0.0613709
0.0613788
0.0613909
0.0613774
0.0610919
0.0600064
0.0610314
0.0612799
0.0612857
0.0612768
0.061269
0.0612652
0.0612637
0.0612637
0.0612651
0.0612689
0.0612765
0.0612853
0.0612794
0.0610307
0.0600053
0.0610915
0.0613776
0.0613917
0.0613815
0.0613754
0.0612612
0.0597855
0.0512011
0.0511978
0.0597803
0.061254
0.061366
0.0613685
0.0613725
0.0613801
0.0613911
0.0614042
0.0613976
0.0612994
0.0613655
0.0613396
0.0613175
0.0613055
0.0612974
0.0612923
0.0612899
0.0612898
0.0612921
0.061297
0.0613051
0.0613169
0.061339
0.0613642
0.0612985
0.0613971
0.0614042
0.0613917
0.0613826
0.0613769
0.0612622
0.0597858
0.051201
0.0511976
0.0597804
0.0612544
0.0613668
0.0613696
0.0613739
0.0613816
0.0613919
0.0614038
0.0614151
0.0614076
0.0613894
0.0613417
0.061319
0.0613057
0.0612959
0.0612889
0.061285
0.0612849
0.0612885
0.0612954
0.0613051
0.0613184
0.061341
0.0613881
0.0614067
0.0614146
0.0614037
0.0613924
0.061384
0.0613781
0.061263
0.0597859
0.0512007
0.0511974
0.0597804
0.0612548
0.0613673
0.0613704
0.061375
0.0613829
0.0613933
0.0614047
0.0614158
0.0614138
0.0613922
0.0613425
0.0613198
0.0613054
0.0612939
0.061285
0.0612795
0.0612793
0.0612845
0.0612933
0.0613047
0.0613191
0.0613417
0.0613909
0.0614129
0.0614152
0.0614046
0.0613937
0.0613853
0.0613791
0.0612636
0.059786
0.0512004
0.0511971
0.0597803
0.061255
0.0613677
0.0613709
0.0613758
0.0613839
0.0613945
0.061406
0.0614171
0.0614157
0.0613947
0.0613437
0.0613207
0.0613055
0.0612929
0.0612824
0.0612752
0.0612749
0.0612818
0.0612922
0.0613048
0.0613199
0.0613429
0.0613934
0.0614148
0.0614165
0.0614059
0.0613949
0.0613862
0.0613797
0.061264
0.0597859
0.0512
0.0511969
0.0597803
0.0612551
0.061368
0.0613713
0.0613762
0.0613845
0.0613952
0.0614069
0.0614181
0.0614169
0.0613963
0.0613445
0.0613213
0.0613057
0.0612924
0.0612809
0.0612722
0.0612718
0.0612801
0.0612916
0.0613049
0.0613204
0.0613437
0.061395
0.0614161
0.0614176
0.0614068
0.0613956
0.0613868
0.0613802
0.0612643
0.0597859
0.0511997
0.0511968
0.0597803
0.0612552
0.0613681
0.0613714
0.0613764
0.0613847
0.0613955
0.0614073
0.0614185
0.0614174
0.0613967
0.0613447
0.0613214
0.0613057
0.0612922
0.0612803
0.061271
0.0612705
0.0612795
0.0612913
0.0613048
0.0613205
0.0613439
0.0613955
0.0614166
0.061418
0.0614071
0.0613959
0.061387
0.0613803
0.0612644
0.0597859
0.0511995
0.0511968
0.0597803
0.0612551
0.061368
0.0613713
0.0613762
0.0613845
0.0613952
0.061407
0.0614183
0.061417
0.0613961
0.0613444
0.0613211
0.0613055
0.0612922
0.0612807
0.061272
0.0612716
0.0612799
0.0612913
0.0613045
0.0613202
0.0613435
0.0613949
0.0614162
0.0614178
0.0614069
0.0613957
0.0613868
0.0613802
0.0612643
0.0597859
0.0511995
0.0511969
0.0597803
0.061255
0.0613677
0.0613709
0.0613757
0.0613839
0.0613945
0.0614063
0.0614177
0.0614162
0.0613947
0.0613436
0.0613203
0.0613052
0.0612926
0.0612822
0.0612751
0.0612747
0.0612814
0.0612917
0.0613042
0.0613194
0.0613427
0.0613936
0.0614155
0.0614174
0.0614063
0.0613951
0.0613863
0.0613798
0.0612641
0.0597859
0.0511998
0.0511971
0.0597803
0.0612547
0.0613673
0.0613703
0.0613749
0.0613829
0.0613936
0.061406
0.061418
0.0614111
0.0613931
0.0613432
0.0613197
0.0613052
0.0612938
0.0612851
0.0612798
0.0612794
0.0612843
0.0612929
0.0613042
0.0613187
0.0613424
0.0613921
0.0614106
0.0614178
0.0614062
0.0613943
0.0613855
0.0613791
0.0612637
0.0597859
0.0512001
0.0511973
0.0597803
0.0612544
0.0613667
0.0613695
0.0613738
0.0613817
0.0613933
0.061407
0.0614014
0.0613047
0.0613707
0.0613415
0.0613179
0.0613044
0.0612943
0.0612875
0.0612838
0.0612836
0.0612869
0.0612934
0.0613034
0.061317
0.0613406
0.0613699
0.0613044
0.0614014
0.0614074
0.0613942
0.0613845
0.0613782
0.0612631
0.0597859
0.0512003
0.0511974
0.0597802
0.0612539
0.0613659
0.0613684
0.0613725
0.0613808
0.0613935
0.0613809
0.0610972
0.0600154
0.0610389
0.0612817
0.0612855
0.0612746
0.0612649
0.0612594
0.0612569
0.0612567
0.0612588
0.061264
0.0612736
0.0612845
0.0612809
0.0610385
0.0600155
0.0610975
0.0613815
0.0613946
0.0613838
0.0613771
0.0612623
0.0597857
0.0512005
0.0511974
0.0597801
0.0612534
0.061365
0.0613671
0.0613709
0.0613793
0.0613739
0.0610839
0.0587619
0.0519771
0.0586074
0.0607881
0.0610479
0.0610579
0.0610482
0.0610437
0.0610422
0.061042
0.0610432
0.0610473
0.0610567
0.0610467
0.0607872
0.0586078
0.051977
0.0587625
0.0610848
0.0613752
0.0613825
0.0613758
0.0612613
0.0597855
0.0512005
0.0511974
0.0597799
0.0612527
0.0613639
0.0613655
0.0613686
0.061371
0.0612752
0.0600044
0.0519697
0.0518801
0.0592884
0.0603948
0.0604765
0.0604772
0.0604765
0.0604764
0.0604762
0.0604758
0.060476
0.0604748
0.0603929
0.0592863
0.0518784
0.0519697
0.0600054
0.0612768
0.0613744
0.0613736
0.06126
0.0597851
0.0512004
0.0511972
0.0597796
0.061252
0.0613629
0.061364
0.0613664
0.0613727
0.0613645
0.0610731
0.0587593
0.0519768
0.0586662
0.0608365
0.0610933
0.061104
0.0611019
0.0611018
0.061102
0.0611018
0.0611008
0.0611001
0.0611007
0.0610884
0.0608282
0.0586623
0.0519762
0.0587603
0.0610744
0.0613663
0.0613763
0.0613716
0.0612587
0.0597845
0.0512001
0.051197
0.0597792
0.0612513
0.0613619
0.0613626
0.0613643
0.0613694
0.0613779
0.0613621
0.0610786
0.0600156
0.0610705
0.0613388
0.0613441
0.0613382
0.061335
0.0613346
0.0613347
0.0613344
0.0613335
0.0613327
0.0613333
0.0613352
0.0613193
0.0610622
0.0600132
0.0610793
0.0613636
0.06138
0.0613732
0.0613696
0.0612575
0.0597838
0.0511997
0.0511967
0.059779
0.0612509
0.0613613
0.0613617
0.0613628
0.0613665
0.0613727
0.0613814
0.0613722
0.0612871
0.0613791
0.06138
0.0613387
0.0613279
0.0613246
0.0613234
0.0613229
0.0613227
0.0613225
0.0613226
0.0613237
0.0613272
0.0613388
0.0613602
0.0612809
0.0613719
0.0613827
0.0613748
0.0613704
0.0613682
0.0612566
0.0597833
0.0511992
0.0511966
0.0597797
0.0612519
0.0613622
0.0613623
0.0613631
0.0613661
0.0613704
0.0613766
0.0613833
0.0613844
0.061389
0.0613743
0.0613386
0.0613301
0.061328
0.0613275
0.0613273
0.0613271
0.0613269
0.0613267
0.0613269
0.0613288
0.0613377
0.0613711
0.0613787
0.0613833
0.0613781
0.0613727
0.06137
0.0613685
0.0612571
0.0597837
0.0511988
0.0511973
0.0597804
0.0612525
0.0613631
0.0613632
0.0613637
0.0613663
0.0613698
0.0613743
0.0613796
0.0613846
0.061387
0.0613833
0.0613689
0.0613646
0.0613636
0.061364
0.0613644
0.0613644
0.0613638
0.0613629
0.061362
0.0613624
0.0613664
0.0613804
0.0613831
0.0613809
0.0613762
0.0613721
0.0613702
0.0613689
0.0612573
0.0597841
0.0511993
0.051199
0.0596988
0.0611443
0.0612532
0.0612536
0.061254
0.0612562
0.0612592
0.0612629
0.061267
0.0612713
0.0612744
0.0612753
0.0612719
0.0612714
0.0612717
0.0612725
0.061273
0.061273
0.0612726
0.0612717
0.0612706
0.0612698
0.06127
0.0612731
0.0612718
0.0612688
0.0612649
0.0612615
0.0612599
0.0612585
0.0611487
0.0597021
0.0512008
0.0511592
0.0585348
0.0596994
0.0597818
0.059782
0.0597826
0.0597844
0.0597868
0.0597895
0.0597925
0.0597955
0.0597978
0.0597992
0.0597986
0.0597986
0.0597986
0.0597988
0.0597989
0.0597989
0.0597987
0.0597985
0.0597981
0.0597978
0.0597976
0.0597979
0.0597964
0.059794
0.0597912
0.0597886
0.0597872
0.0597862
0.0597031
0.0585376
0.0511608
0.0507836
0.0511594
0.0511996
0.0511983
0.0511982
0.0511991
0.0512004
0.0512018
0.0512035
0.0512053
0.0512071
0.0512086
0.0512096
0.0512098
0.0512096
0.051209
0.0512084
0.0512078
0.0512075
0.0512078
0.0512083
0.0512088
0.0512092
0.0512092
0.0512089
0.0512077
0.0512061
0.0512043
0.0512026
0.0512011
0.0512008
0.0512016
0.0511611
0.0507849
0.0618667
0.0652564
0.0658331
0.0658715
0.0658699
0.0658692
0.0658693
0.0658695
0.0658697
0.0658699
0.06587
0.0658702
0.0658703
0.0658704
0.0658704
0.0658705
0.0658705
0.0658705
0.0658705
0.0658705
0.0658704
0.0658704
0.0658703
0.0658703
0.0658701
0.06587
0.0658698
0.0658696
0.0658696
0.0658702
0.0658718
0.0658335
0.0652567
0.061867
0.0652565
0.055444
0.05538
0.0553651
0.0553535
0.0553508
0.0553505
0.0553506
0.0553508
0.0553509
0.0553511
0.0553513
0.0553515
0.0553517
0.0553519
0.055352
0.0553521
0.0553521
0.0553521
0.0553521
0.055352
0.0553519
0.0553517
0.0553516
0.0553514
0.0553512
0.055351
0.0553509
0.0553512
0.0553538
0.0553654
0.0553803
0.0554443
0.0652569
0.0658336
0.05538
0.0551388
0.0550884
0.0550699
0.055066
0.0550656
0.0550656
0.0550658
0.055066
0.0550662
0.0550665
0.0550667
0.0550669
0.0550671
0.0550672
0.0550673
0.0550674
0.0550674
0.0550673
0.0550673
0.0550671
0.055067
0.0550668
0.0550665
0.0550663
0.0550661
0.055066
0.0550664
0.0550702
0.0550887
0.0551392
0.0553804
0.0658342
0.0658721
0.0553651
0.0550884
0.055028
0.0550074
0.0550032
0.0550027
0.0550028
0.055003
0.0550033
0.0550037
0.055004
0.0550043
0.0550046
0.0550048
0.055005
0.0550052
0.0550052
0.0550052
0.0550052
0.055005
0.0550049
0.0550046
0.0550043
0.055004
0.0550037
0.0550034
0.0550032
0.0550037
0.0550078
0.0550284
0.0550888
0.0553655
0.065873
0.0658707
0.0553535
0.0550699
0.0550074
0.0549863
0.0549821
0.0549816
0.0549818
0.0549821
0.0549827
0.0549832
0.0549836
0.054984
0.0549843
0.0549847
0.0549849
0.0549851
0.0549852
0.0549852
0.0549851
0.0549849
0.0549847
0.0549844
0.054984
0.0549837
0.0549833
0.0549828
0.0549823
0.0549827
0.0549869
0.0550079
0.0550704
0.055354
0.0658718
0.0658703
0.0553509
0.0550661
0.0550032
0.0549821
0.0549778
0.0549774
0.0549778
0.0549787
0.0549802
0.0549817
0.0549817
0.0549814
0.0549816
0.054982
0.0549823
0.0549826
0.0549827
0.0549827
0.0549826
0.0549824
0.054982
0.0549817
0.0549815
0.0549817
0.0549817
0.0549803
0.0549789
0.0549787
0.0549827
0.0550038
0.0550666
0.0553515
0.0658716
0.0658704
0.0553506
0.0550656
0.0550027
0.0549816
0.0549774
0.0549772
0.0549784
0.0549817
0.0549879
0.0549927
0.0549901
0.0549858
0.0549842
0.0549842
0.0549845
0.0549848
0.0549849
0.0549849
0.0549848
0.0549846
0.0549843
0.0549842
0.0549859
0.0549902
0.0549928
0.054988
0.0549819
0.0549793
0.0549825
0.0550034
0.0550662
0.0553513
0.065872
0.0658707
0.0553507
0.0550657
0.0550028
0.0549817
0.0549778
0.0549783
0.0549827
0.0549957
0.055018
0.0550412
0.055018
0.0549978
0.0549875
0.054985
0.0549849
0.054985
0.0549851
0.0549851
0.054985
0.0549849
0.0549851
0.0549876
0.0549979
0.0550181
0.0550412
0.0550181
0.0549959
0.0549836
0.0549837
0.0550038
0.0550664
0.0553515
0.0658725
0.065871
0.0553509
0.0550658
0.055003
0.054982
0.0549785
0.0549815
0.0549955
0.0550333
0.0551089
0.055605
0.0550787
0.0549949
0.05496
0.0549476
0.0549469
0.0549466
0.0549465
0.0549465
0.0549466
0.0549469
0.0549476
0.05496
0.054995
0.0550787
0.055605
0.055109
0.0550335
0.0549964
0.0549868
0.0550045
0.0550668
0.0553518
0.065873
0.0658711
0.055351
0.055066
0.0550032
0.0549825
0.0549799
0.0549874
0.0550173
0.0551088
0.0560036
0.0724752
0.0558098
0.0548435
0.0547484
0.0547177
0.0547163
0.0547158
0.0547157
0.0547157
0.0547159
0.0547164
0.0547177
0.0547485
0.0548436
0.0558098
0.0724745
0.0560037
0.055109
0.0550183
0.0549928
0.0550059
0.0550672
0.0553521
0.0658734
0.0658712
0.0553512
0.0550661
0.0550034
0.0549829
0.054981
0.0549917
0.0550403
0.0556113
0.0725386
0.0716805
0.0548333
0.0542897
0.0542512
0.0542394
0.0542364
0.0542359
0.0542359
0.0542364
0.0542394
0.0542512
0.0542898
0.0548332
0.0716817
0.0725395
0.0556115
0.0550412
0.054997
0.0550071
0.0550676
0.0553524
0.0658736
0.0658712
0.0553513
0.0550663
0.0550036
0.054983
0.0549807
0.0549886
0.0550189
0.0551111
0.056015
0.0724911
0.0558182
0.054855
0.0547666
0.0547589
0.0547281
0.0547181
0.054716
0.054716
0.0547181
0.0547281
0.0547588
0.0547665
0.0548549
0.055818
0.0724894
0.0560151
0.0551113
0.0550198
0.0549939
0.0550067
0.0550678
0.0553526
0.0658735
0.0658711
0.0553514
0.0550664
0.0550038
0.0549832
0.05498
0.0549836
0.0549983
0.0550367
0.0551128
0.0556099
0.055079
0.0550187
0.0549842
0.0549756
0.054963
0.0549579
0.0549565
0.0549565
0.0549579
0.054963
0.0549755
0.0549841
0.0550185
0.0550789
0.0556098
0.0551128
0.0550368
0.0549992
0.0549889
0.0550061
0.0550679
0.0553528
0.0658734
0.0658709
0.0553515
0.0550666
0.055004
0.0549833
0.0549799
0.0549812
0.0549865
0.0550003
0.0550226
0.0550433
0.0550199
0.0550233
0.0550098
0.0550036
0.0549988
0.0549964
0.0549955
0.0549955
0.0549963
0.0549987
0.0550035
0.0550097
0.0550232
0.0550197
0.0550432
0.0550226
0.0550004
0.0549873
0.0549865
0.0550059
0.0550681
0.055353
0.065873
0.0658707
0.0553516
0.0550666
0.0550041
0.0549835
0.05498
0.0549807
0.054983
0.0549872
0.0549937
0.0549962
0.0549939
0.0550124
0.0550068
0.0550018
0.0549986
0.0549968
0.054996
0.0549959
0.0549968
0.0549986
0.0550017
0.0550066
0.0550122
0.0549937
0.054996
0.0549936
0.0549873
0.0549838
0.054986
0.0550061
0.0550682
0.0553531
0.0658726
0.0658704
0.0553516
0.0550667
0.0550042
0.0549836
0.0549802
0.0549808
0.0549824
0.0549845
0.0549864
0.0549859
0.0549866
0.0550091
0.0550053
0.0550006
0.0549976
0.0549957
0.0549947
0.0549947
0.0549956
0.0549975
0.0550005
0.0550052
0.0550089
0.0549864
0.0549858
0.0549863
0.0549846
0.0549833
0.0549861
0.0550062
0.0550684
0.0553532
0.0658722
0.0658702
0.0553516
0.0550668
0.0550043
0.0549837
0.0549803
0.0549809
0.0549825
0.0549842
0.0549853
0.0549842
0.0549856
0.0550087
0.0550053
0.0550005
0.0549974
0.0549954
0.0549942
0.0549941
0.0549953
0.0549973
0.0550004
0.0550051
0.0550085
0.0549854
0.0549841
0.0549852
0.0549843
0.0549833
0.0549862
0.0550063
0.0550684
0.0553532
0.0658719
0.06587
0.0553516
0.0550668
0.0550043
0.0549838
0.0549804
0.054981
0.0549826
0.0549843
0.0549853
0.0549841
0.0549857
0.0550088
0.0550054
0.0550006
0.0549974
0.0549952
0.0549939
0.0549939
0.0549952
0.0549973
0.0550005
0.0550053
0.0550086
0.0549855
0.054984
0.0549852
0.0549844
0.0549834
0.0549863
0.0550064
0.0550685
0.0553532
0.0658716
0.0658699
0.0553516
0.0550668
0.0550043
0.0549838
0.0549804
0.0549811
0.0549826
0.0549843
0.0549853
0.0549842
0.0549857
0.0550088
0.0550054
0.0550006
0.0549974
0.0549952
0.0549938
0.0549937
0.0549951
0.0549973
0.0550005
0.0550053
0.0550087
0.0549856
0.0549841
0.0549853
0.0549844
0.0549835
0.0549864
0.0550064
0.0550685
0.0553532
0.0658715
0.0658699
0.0553516
0.0550668
0.0550043
0.0549838
0.0549804
0.054981
0.0549826
0.0549843
0.0549855
0.0549844
0.0549858
0.0550088
0.0550054
0.0550006
0.0549974
0.0549952
0.0549939
0.0549938
0.0549951
0.0549973
0.0550004
0.0550052
0.0550087
0.0549857
0.0549843
0.0549854
0.0549845
0.0549835
0.0549863
0.0550064
0.0550685
0.0553532
0.0658715
0.06587
0.0553516
0.0550668
0.0550043
0.0549837
0.0549803
0.054981
0.0549826
0.0549847
0.0549867
0.0549863
0.054987
0.0550093
0.0550055
0.0550007
0.0549975
0.0549955
0.0549943
0.0549943
0.0549954
0.0549974
0.0550006
0.0550054
0.0550092
0.0549869
0.0549862
0.0549867
0.0549849
0.0549835
0.0549863
0.0550063
0.0550685
0.0553532
0.0658717
0.0658702
0.0553516
0.0550667
0.0550042
0.0549836
0.0549802
0.0549809
0.0549832
0.0549876
0.0549941
0.0549967
0.0549945
0.0550127
0.055007
0.0550019
0.0549986
0.0549966
0.0549955
0.0549955
0.0549965
0.0549985
0.0550018
0.0550069
0.0550126
0.0549943
0.0549966
0.0549941
0.0549878
0.0549841
0.0549863
0.0550063
0.0550684
0.0553532
0.0658719
0.0658704
0.0553516
0.0550666
0.0550041
0.0549835
0.0549801
0.0549815
0.0549868
0.0550008
0.0550232
0.0550441
0.0550208
0.0550239
0.0550102
0.0550038
0.0549988
0.0549962
0.0549952
0.0549952
0.0549961
0.0549987
0.0550037
0.0550101
0.0550238
0.0550207
0.055044
0.0550233
0.0550009
0.0549878
0.0549869
0.0550062
0.0550683
0.0553531
0.0658723
0.0658705
0.0553515
0.0550666
0.055004
0.0549834
0.0549803
0.0549839
0.0549987
0.0550373
0.0551136
0.0556104
0.0550803
0.0550196
0.0549849
0.0549761
0.0549634
0.0549581
0.0549566
0.0549566
0.054958
0.0549633
0.0549761
0.0549848
0.0550195
0.0550802
0.0556103
0.0551136
0.0550375
0.0549997
0.0549893
0.0550064
0.0550682
0.055353
0.0658725
0.0658706
0.0553514
0.0550664
0.0550038
0.0549833
0.054981
0.054989
0.0550194
0.0551117
0.0560153
0.0725023
0.0558188
0.0548563
0.0547676
0.0547596
0.0547287
0.0547185
0.0547163
0.0547163
0.0547185
0.0547286
0.0547595
0.0547675
0.0548561
0.0558182
0.0725018
0.0560152
0.055112
0.0550204
0.0549944
0.0550071
0.0550681
0.0553528
0.0658727
0.0658707
0.0553513
0.0550663
0.0550037
0.0549832
0.0549814
0.0549921
0.0550407
0.0556116
0.0725345
0.0716666
0.0548332
0.0542877
0.0542484
0.054236
0.0542327
0.054232
0.0542319
0.0542325
0.0542358
0.054248
0.0542871
0.0548319
0.0716624
0.0725335
0.0556118
0.0550418
0.0549976
0.0550076
0.055068
0.0553527
0.0658727
0.0658706
0.0553512
0.0550662
0.0550035
0.0549828
0.0549803
0.054988
0.055018
0.0551096
0.0560051
0.0724885
0.0558123
0.054842
0.0547446
0.0547124
0.0547101
0.0547091
0.0547088
0.0547088
0.054709
0.0547098
0.0547117
0.0547433
0.05484
0.0558108
0.0724877
0.0560051
0.0551099
0.0550191
0.0549935
0.0550065
0.0550676
0.0553524
0.0658726
0.0658705
0.0553511
0.0550662
0.0550034
0.0549825
0.0549791
0.0549822
0.0549964
0.0550344
0.0551103
0.0556068
0.0550784
0.0549925
0.0549587
0.0549449
0.0549422
0.0549412
0.0549409
0.0549409
0.054941
0.0549418
0.0549438
0.054957
0.0549939
0.0550767
0.0556055
0.0551102
0.0550347
0.0549975
0.0549877
0.0550053
0.0550674
0.0553523
0.0658723
0.0658704
0.0553514
0.0550666
0.0550039
0.054983
0.0549791
0.0549799
0.0549844
0.0549976
0.05502
0.0550428
0.0550181
0.0550006
0.0550144
0.0550126
0.0550108
0.05501
0.0550098
0.0550097
0.0550098
0.0550102
0.0550114
0.0550155
0.0550253
0.055021
0.0550415
0.0550196
0.0549978
0.0549855
0.0549853
0.0550053
0.0550677
0.0553525
0.0658721
0.065871
0.0553541
0.0550705
0.0550081
0.0549872
0.0549832
0.0549832
0.0549846
0.0549881
0.0549945
0.0549988
0.054995
0.0549938
0.0550174
0.0550183
0.0550172
0.0550168
0.0550167
0.0550166
0.0550166
0.0550167
0.0550171
0.0550185
0.0550194
0.0549983
0.0549977
0.0549941
0.0549884
0.0549857
0.0549887
0.0550093
0.0550715
0.055355
0.0658725
0.0658725
0.0553657
0.055089
0.0550288
0.0550083
0.0550043
0.0550041
0.0550048
0.0550059
0.0550077
0.055009
0.0550081
0.0550069
0.0550102
0.0550093
0.0550087
0.0550086
0.0550087
0.0550087
0.0550086
0.0550085
0.0550084
0.055009
0.0550101
0.0550072
0.0550082
0.0550076
0.0550063
0.0550059
0.0550095
0.0550298
0.0550899
0.0553666
0.0658738
0.065834
0.0553806
0.0551395
0.0550892
0.0550708
0.0550672
0.055067
0.0550675
0.0550681
0.0550689
0.0550697
0.0550699
0.0550694
0.0550689
0.0550685
0.0550684
0.0550685
0.0550686
0.0550686
0.0550686
0.0550684
0.0550682
0.0550682
0.0550686
0.0550691
0.0550695
0.0550692
0.0550685
0.0550685
0.0550719
0.0550901
0.0551403
0.0553814
0.0658352
0.065257
0.0554446
0.0553807
0.0553659
0.0553545
0.0553521
0.0553521
0.0553526
0.0553532
0.055354
0.0553548
0.0553554
0.0553558
0.0553558
0.0553559
0.0553561
0.0553563
0.0553564
0.0553564
0.0553563
0.0553562
0.0553559
0.0553557
0.0553555
0.0553554
0.055355
0.0553544
0.0553537
0.0553534
0.0553556
0.0553669
0.0553815
0.0554454
0.065258
0.0618674
0.0652572
0.0658345
0.0658734
0.0658723
0.0658723
0.0658731
0.0658742
0.0658754
0.0658766
0.0658778
0.0658786
0.0658789
0.0658783
0.0658776
0.0658768
0.065876
0.0658755
0.0658753
0.0658755
0.065876
0.0658767
0.0658774
0.065878
0.0658785
0.065878
0.0658771
0.0658759
0.0658747
0.0658743
0.065875
0.0658358
0.0652581
0.0618682
0.0654765
0.0702137
0.0711417
0.0712213
0.0712216
0.0712206
0.0712206
0.0712207
0.0712209
0.0712211
0.0712212
0.0712213
0.0712214
0.0712215
0.0712216
0.0712216
0.0712216
0.0712216
0.0712216
0.0712216
0.0712216
0.0712216
0.0712215
0.0712214
0.0712213
0.0712212
0.071221
0.0712209
0.071221
0.0712219
0.0712216
0.071142
0.070214
0.0654769
0.0702137
0.0581388
0.057801
0.0577512
0.0577335
0.0577296
0.0577291
0.0577291
0.0577292
0.0577293
0.0577294
0.0577296
0.0577297
0.0577299
0.05773
0.05773
0.0577301
0.0577301
0.0577301
0.0577301
0.0577301
0.05773
0.0577299
0.0577297
0.0577296
0.0577295
0.0577294
0.0577293
0.0577299
0.0577337
0.0577514
0.0578012
0.058139
0.0702141
0.0711421
0.0578009
0.0571018
0.056982
0.0569522
0.0569463
0.0569454
0.0569453
0.0569454
0.0569455
0.0569456
0.0569457
0.0569458
0.0569459
0.0569459
0.056946
0.056946
0.0569461
0.0569461
0.056946
0.056946
0.056946
0.0569459
0.0569458
0.0569457
0.0569456
0.0569455
0.0569456
0.0569464
0.0569523
0.0569821
0.057102
0.0578011
0.0711427
0.0712219
0.0577511
0.0569819
0.0568438
0.0568104
0.0568039
0.0568029
0.0568028
0.0568029
0.056803
0.0568032
0.0568032
0.0568033
0.0568034
0.0568035
0.0568036
0.0568036
0.0568036
0.0568036
0.0568036
0.0568036
0.0568035
0.0568034
0.0568034
0.0568033
0.0568032
0.0568031
0.0568031
0.056804
0.0568105
0.056844
0.0569821
0.0577514
0.0712227
0.0712224
0.0577335
0.0569522
0.0568104
0.0567761
0.0567695
0.0567685
0.0567685
0.0567686
0.056769
0.0567693
0.0567693
0.0567693
0.0567694
0.0567694
0.0567695
0.0567696
0.0567696
0.0567696
0.0567696
0.0567695
0.0567695
0.0567694
0.0567693
0.0567694
0.0567694
0.056769
0.0567688
0.0567697
0.0567763
0.0568105
0.0569523
0.0577338
0.0712234
0.0712216
0.0577296
0.0569463
0.0568038
0.0567695
0.0567628
0.0567619
0.0567621
0.0567629
0.0567646
0.0567662
0.0567653
0.0567643
0.0567639
0.0567639
0.0567639
0.0567639
0.056764
0.056764
0.0567639
0.0567639
0.0567639
0.0567639
0.0567643
0.0567654
0.0567662
0.0567646
0.0567631
0.0567633
0.0567697
0.056804
0.0569465
0.0577299
0.0712228
0.0712217
0.0577291
0.0569454
0.0568029
0.0567685
0.0567619
0.0567612
0.0567624
0.0567667
0.0567759
0.0567851
0.0567774
0.0567703
0.0567672
0.0567664
0.0567663
0.0567662
0.0567661
0.0567661
0.0567662
0.0567663
0.0567664
0.0567672
0.0567703
0.0567774
0.0567851
0.056776
0.0567669
0.0567637
0.056769
0.0568032
0.0569457
0.0577295
0.0712231
0.0712219
0.0577291
0.0569453
0.0568028
0.0567684
0.056762
0.0567624
0.0567683
0.056788
0.0568321
0.0569026
0.0568273
0.0567915
0.0567763
0.0567693
0.056771
0.0567706
0.0567703
0.0567703
0.0567706
0.056771
0.0567693
0.0567763
0.0567915
0.0568273
0.0569027
0.0568321
0.0567882
0.0567695
0.0567702
0.0568033
0.0569457
0.0577296
0.0712236
0.0712221
0.0577292
0.0569454
0.0568029
0.0567686
0.0567628
0.0567666
0.0567878
0.0568606
0.0570916
0.0580324
0.057001
0.0568055
0.0567486
0.0567129
0.0567302
0.0567315
0.0567308
0.0567308
0.0567315
0.0567302
0.0567129
0.0567487
0.0568055
0.057001
0.0580324
0.0570916
0.0568608
0.056789
0.0567745
0.0568041
0.0569459
0.0577298
0.0712239
0.0712222
0.0577293
0.0569455
0.056803
0.0567689
0.0567644
0.0567755
0.0568313
0.0570929
0.0589393
0.0801548
0.0582062
0.0566145
0.0564396
0.0563522
0.0563988
0.0564041
0.0564038
0.0564038
0.0564041
0.0563989
0.0563522
0.0564397
0.0566146
0.058206
0.0801538
0.0589393
0.057093
0.0568326
0.0567834
0.0568057
0.0569462
0.05773
0.0712242
0.0712222
0.0577295
0.0569455
0.0568031
0.0567692
0.0567658
0.0567841
0.0569032
0.0580655
0.080543
0.0752064
0.0567386
0.056167
0.0561442
0.0561201
0.0561127
0.0561115
0.0561115
0.0561127
0.0561202
0.0561443
0.0561672
0.0567386
0.0752079
0.0805439
0.0580657
0.0569044
0.056792
0.0568072
0.0569465
0.0577303
0.0712243
0.0712222
0.0577296
0.0569456
0.0568031
0.0567691
0.0567646
0.0567758
0.0568319
0.0570948
0.0589543
0.0801729
0.0582606
0.0568272
0.0567332
0.0568902
0.056688
0.0566372
0.0566288
0.0566288
0.0566372
0.0566879
0.0568901
0.0567331
0.0568269
0.0582602
0.0801713
0.0589546
0.057095
0.0568332
0.0567837
0.056806
0.0569465
0.0577305
0.0712242
0.071222
0.0577297
0.0569457
0.0568032
0.0567689
0.0567632
0.0567672
0.0567886
0.0568619
0.0570949
0.058049
0.0571073
0.0572911
0.0572997
0.0573325
0.0572781
0.0572588
0.0572546
0.0572546
0.0572587
0.057278
0.0573324
0.0572996
0.057291
0.057107
0.0580491
0.0570949
0.0568621
0.0567899
0.0567751
0.0568047
0.0569464
0.0577307
0.071224
0.0712219
0.0577298
0.0569457
0.0568032
0.0567689
0.0567626
0.0567632
0.0567693
0.0567891
0.056834
0.0569188
0.0569564
0.0573495
0.0573866
0.0573895
0.0573783
0.0573733
0.0573719
0.0573719
0.0573732
0.0573782
0.0573895
0.0573865
0.0573494
0.0569562
0.0569188
0.056834
0.0567893
0.0567706
0.0567711
0.0568041
0.0569464
0.0577308
0.0712236
0.0712216
0.0577298
0.0569458
0.0568032
0.0567689
0.0567625
0.0567621
0.0567635
0.0567679
0.0567777
0.0568014
0.0569093
0.057336
0.0573818
0.0573811
0.0573778
0.0573762
0.0573756
0.0573756
0.0573762
0.0573778
0.057381
0.0573818
0.0573359
0.0569091
0.0568014
0.0567777
0.0567681
0.0567648
0.05677
0.056804
0.0569465
0.057731
0.0712233
0.0712214
0.0577299
0.0569458
0.0568033
0.056769
0.0567625
0.0567619
0.0567623
0.0567632
0.0567655
0.0567818
0.0568966
0.0573295
0.0573776
0.0573766
0.0573745
0.0573735
0.0573731
0.0573731
0.0573735
0.0573745
0.0573766
0.0573776
0.0573295
0.0568965
0.0567817
0.0567655
0.0567634
0.0567636
0.0567698
0.056804
0.0569466
0.057731
0.0712229
0.0712212
0.0577299
0.0569459
0.0568033
0.056769
0.0567625
0.0567619
0.0567622
0.0567625
0.0567634
0.0567784
0.0568943
0.0573282
0.0573768
0.0573758
0.0573739
0.0573729
0.0573725
0.0573725
0.0573729
0.0573739
0.0573758
0.0573768
0.0573282
0.0568942
0.0567784
0.0567634
0.0567626
0.0567634
0.0567698
0.056804
0.0569466
0.0577311
0.0712226
0.0712211
0.0577299
0.0569459
0.0568033
0.056769
0.0567626
0.0567619
0.0567622
0.0567624
0.0567631
0.056778
0.0568941
0.0573281
0.0573768
0.0573758
0.0573739
0.0573729
0.0573724
0.0573724
0.0573729
0.0573738
0.0573758
0.0573767
0.0573281
0.0568939
0.0567779
0.0567631
0.0567626
0.0567634
0.0567698
0.0568041
0.0569466
0.0577311
0.0712224
0.071221
0.0577299
0.0569459
0.0568033
0.056769
0.0567626
0.0567619
0.0567622
0.0567624
0.0567632
0.056778
0.0568941
0.0573281
0.0573768
0.0573758
0.0573739
0.0573729
0.0573724
0.0573724
0.0573729
0.0573739
0.0573758
0.0573767
0.0573281
0.056894
0.056778
0.0567632
0.0567626