/*--------------------------------*- C++ -*----------------------------------*\
| =========                 |                                                 |
| \\      /  F ield         | OpenFOAM: The Open Source CFD Toolbox           |
|  \\    /   O peration     | Version:  2112                                  |
|   \\  /    A nd           | Website:  www.openfoam.com                      |
|    \\/     M anipulation  |                                                 |
\*---------------------------------------------------------------------------*/
FoamFile
{
    version     2.0;
    format      ascii;
    arch        "LSB;label=32;scalar=64";
    class       volScalarField;
    location    "0.5";
    object      k;
}
// * * * * * * * * * * * * * * * * * * * * * * * * * * * * * * * * * * * * * //

dimensions      [0 2 -2 0 0 0 0];

internalField   nonuniform List<scalar> 
64906
(
0.0108959
0.0109719
0.0109834
0.0109838
0.0109838
0.0109838
0.0109838
0.0109839
0.0109839
0.010984
0.010984
0.0109841
0.0109841
0.0109841
0.0109842
0.0109842
0.0109842
0.0109842
0.0109842
0.0109842
0.0109842
0.0109842
0.0109841
0.0109841
0.0109841
0.010984
0.010984
0.0109839
0.0109839
0.0109839
0.0109839
0.0109834
0.010972
0.010896
0.0109719
0.0122166
0.0124391
0.0124605
0.0124615
0.0124614
0.0124615
0.0124616
0.0124617
0.0124618
0.0124619
0.012462
0.0124621
0.0124622
0.0124622
0.0124623
0.0124623
0.0124624
0.0124624
0.0124623
0.0124623
0.0124623
0.0124622
0.0124621
0.012462
0.0124619
0.0124618
0.0124617
0.0124616
0.0124617
0.0124607
0.0124393
0.0122168
0.010972
0.0109834
0.0124392
0.0127213
0.0127507
0.0127522
0.0127522
0.0127523
0.0127524
0.0127526
0.0127527
0.0127529
0.0127531
0.0127533
0.0127535
0.0127537
0.0127538
0.0127539
0.0127539
0.0127539
0.0127539
0.0127538
0.0127537
0.0127536
0.0127534
0.0127532
0.012753
0.0127528
0.0127526
0.0127525
0.0127525
0.012751
0.0127216
0.0124395
0.0109836
0.0109839
0.0124607
0.0127508
0.0127813
0.0127829
0.0127828
0.012783
0.0127831
0.0127834
0.0127836
0.0127839
0.0127842
0.0127845
0.0127848
0.0127851
0.0127852
0.0127854
0.0127854
0.0127854
0.0127854
0.0127852
0.0127851
0.0127849
0.0127846
0.0127843
0.012784
0.0127837
0.0127834
0.0127833
0.0127833
0.0127817
0.0127511
0.012461
0.0109841
0.0109839
0.0124616
0.0127523
0.0127829
0.0127845
0.0127845
0.0127846
0.0127849
0.0127852
0.0127855
0.012786
0.0127865
0.0127869
0.0127873
0.0127876
0.0127879
0.0127881
0.0127882
0.0127882
0.0127881
0.0127879
0.0127877
0.0127873
0.0127869
0.0127865
0.012786
0.0127856
0.0127853
0.012785
0.0127849
0.0127833
0.0127527
0.012462
0.0109841
0.0109839
0.0124616
0.0127523
0.0127829
0.0127845
0.0127845
0.0127848
0.0127851
0.0127855
0.012786
0.0127866
0.0127874
0.012788
0.0127886
0.0127891
0.0127894
0.0127897
0.0127898
0.0127898
0.0127897
0.0127894
0.0127891
0.0127886
0.0127881
0.0127875
0.0127867
0.0127861
0.0127856
0.0127852
0.0127851
0.0127834
0.0127527
0.012462
0.0109842
0.010984
0.0124617
0.0127524
0.012783
0.0127846
0.0127847
0.012785
0.0127855
0.0127861
0.0127866
0.012786
0.0127885
0.0127896
0.0127903
0.012791
0.0127915
0.0127918
0.012792
0.012792
0.0127918
0.0127915
0.012791
0.0127904
0.0127897
0.0127886
0.012786
0.0127867
0.0127862
0.0127857
0.0127854
0.0127836
0.0127529
0.0124621
0.0109843
0.0109841
0.0124617
0.0127525
0.0127832
0.0127849
0.012785
0.0127855
0.0127861
0.0127864
0.012781
0.0127618
0.0127829
0.0127896
0.012791
0.0127919
0.0127925
0.0127929
0.0127931
0.0127931
0.0127929
0.0127925
0.012792
0.0127911
0.0127897
0.012783
0.0127619
0.0127811
0.0127865
0.0127863
0.0127858
0.0127839
0.0127531
0.0124623
0.0109844
0.0109841
0.0124618
0.0127526
0.0127834
0.0127851
0.0127854
0.012786
0.0127862
0.0127777
0.0127116
0.0125177
0.0127085
0.0127708
0.01278
0.0127815
0.0127821
0.0127825
0.0127827
0.0127828
0.0127825
0.0127821
0.0127816
0.0127801
0.0127709
0.0127085
0.0125177
0.0127117
0.0127778
0.0127864
0.0127864
0.0127843
0.0127534
0.0124624
0.0109845
0.0109842
0.0124619
0.0127528
0.0127835
0.0127854
0.0127858
0.0127862
0.0127806
0.0127114
0.0122775
0.0111408
0.0122579
0.0126589
0.0127195
0.0127254
0.0127261
0.0127266
0.0127268
0.0127268
0.0127266
0.0127262
0.0127254
0.0127196
0.012659
0.012258
0.0111408
0.0122776
0.0127115
0.0127808
0.0127866
0.0127847
0.0127537
0.0124626
0.0109846
0.0109842
0.0124619
0.0127529
0.0127838
0.0127857
0.0127861
0.0127853
0.0127611
0.0125177
0.0111414
0.0111248
0.012381
0.0125884
0.0126082
0.0126094
0.0126096
0.0126097
0.0126097
0.0126096
0.0126094
0.0126083
0.0125885
0.0123811
0.0111249
0.0111415
0.0125179
0.0127613
0.0127857
0.012785
0.0127539
0.0124627
0.0109847
0.0109842
0.012462
0.012753
0.012784
0.012786
0.0127866
0.0127874
0.0127823
0.012713
0.0122772
0.0111409
0.0122458
0.0126488
0.0127089
0.012714
0.0127128
0.0127122
0.0127121
0.0127121
0.0127122
0.0127128
0.012714
0.0127088
0.0126488
0.0122458
0.0111407
0.0122771
0.012713
0.0127824
0.0127877
0.0127855
0.0127542
0.0124628
0.0109847
0.0109842
0.012462
0.0127531
0.0127841
0.0127862
0.0127869
0.0127881
0.0127891
0.012781
0.0127146
0.012517
0.0127005
0.0127564
0.0127615
0.0127607
0.0127593
0.0127586
0.0127583
0.0127583
0.0127586
0.0127593
0.0127606
0.0127615
0.0127563
0.0127004
0.0125168
0.0127145
0.0127811
0.0127893
0.0127884
0.0127858
0.0127544
0.0124629
0.0109847
0.0109842
0.012462
0.0127532
0.0127843
0.0127864
0.0127872
0.0127884
0.0127901
0.0127912
0.0127863
0.0127644
0.0127783
0.0127749
0.0127711
0.0127691
0.0127677
0.0127668
0.0127664
0.0127664
0.0127668
0.0127676
0.012769
0.012771
0.0127748
0.0127781
0.0127642
0.0127863
0.0127912
0.0127902
0.0127887
0.012786
0.0127545
0.0124629
0.0109847
0.0109842
0.012462
0.0127533
0.0127844
0.0127866
0.0127874
0.0127887
0.0127903
0.0127921
0.0127934
0.0127907
0.0127867
0.0127768
0.0127722
0.0127698
0.0127682
0.012767
0.0127664
0.0127664
0.012767
0.0127681
0.0127697
0.0127721
0.0127766
0.0127865
0.0127906
0.0127933
0.0127921
0.0127904
0.0127889
0.0127862
0.0127547
0.0124629
0.0109847
0.0109841
0.012462
0.0127533
0.0127845
0.0127867
0.0127876
0.0127889
0.0127906
0.0127924
0.012794
0.0127929
0.0127878
0.0127771
0.0127724
0.0127698
0.012768
0.0127666
0.0127657
0.0127657
0.0127665
0.0127679
0.0127697
0.0127723
0.0127769
0.0127875
0.0127928
0.0127939
0.0127924
0.0127906
0.0127891
0.0127864
0.0127548
0.0124629
0.0109846
0.0109841
0.012462
0.0127534
0.0127846
0.0127868
0.0127877
0.012789
0.0127907
0.0127926
0.0127942
0.0127933
0.0127882
0.0127773
0.0127726
0.0127699
0.0127679
0.0127662
0.0127651
0.0127651
0.0127661
0.0127677
0.0127698
0.0127724
0.0127771
0.012788
0.0127932
0.0127941
0.0127926
0.0127908
0.0127893
0.0127865
0.0127548
0.0124629
0.0109846
0.0109841
0.012462
0.0127534
0.0127846
0.0127869
0.0127878
0.0127891
0.0127909
0.0127927
0.0127944
0.0127936
0.0127885
0.0127774
0.0127727
0.0127699
0.0127678
0.012766
0.0127647
0.0127646
0.0127659
0.0127677
0.0127698
0.0127725
0.0127773
0.0127882
0.0127934
0.0127943
0.0127927
0.0127909
0.0127894
0.0127866
0.0127549
0.0124629
0.0109845
0.010984
0.012462
0.0127534
0.0127846
0.0127869
0.0127878
0.0127892
0.0127909
0.0127928
0.0127945
0.0127936
0.0127885
0.0127774
0.0127727
0.0127699
0.0127678
0.0127659
0.0127645
0.0127644
0.0127658
0.0127676
0.0127698
0.0127725
0.0127773
0.0127883
0.0127935
0.0127944
0.0127928
0.012791
0.0127894
0.0127866
0.0127549
0.0124629
0.0109845
0.010984
0.012462
0.0127534
0.0127846
0.0127869
0.0127878
0.0127891
0.0127909
0.0127927
0.0127944
0.0127936
0.0127884
0.0127774
0.0127726
0.0127699
0.0127678
0.012766
0.0127647
0.0127646
0.0127658
0.0127676
0.0127697
0.0127725
0.0127772
0.0127882
0.0127935
0.0127944
0.0127928
0.012791
0.0127894
0.0127866
0.0127549
0.0124629
0.0109845
0.0109841
0.012462
0.0127534
0.0127846
0.0127868
0.0127877
0.012789
0.0127908
0.0127926
0.0127943
0.0127933
0.0127882
0.0127772
0.0127725
0.0127698
0.0127678
0.0127662
0.0127651
0.012765
0.012766
0.0127676
0.0127697
0.0127723
0.0127771
0.012788
0.0127932
0.0127942
0.0127927
0.0127909
0.0127893
0.0127865
0.0127548
0.0124629
0.0109845
0.0109841
0.012462
0.0127533
0.0127845
0.0127867
0.0127876
0.0127889
0.0127906
0.0127925
0.0127938
0.0127913
0.0127874
0.012777
0.0127723
0.0127697
0.0127679
0.0127665
0.0127657
0.0127656
0.0127664
0.0127677
0.0127696
0.0127722
0.0127769
0.0127872
0.0127913
0.0127938
0.0127925
0.0127907
0.0127892
0.0127864
0.0127548
0.0124629
0.0109846
0.0109841
0.012462
0.0127533
0.0127844
0.0127866
0.0127874
0.0127887
0.0127904
0.0127917
0.012787
0.0127653
0.0127792
0.0127752
0.0127712
0.0127689
0.0127672
0.0127661
0.0127655
0.0127655
0.012766
0.0127671
0.0127688
0.0127711
0.0127751
0.0127791
0.0127653
0.012787
0.0127918
0.0127906
0.012789
0.0127863
0.0127547
0.0124629
0.0109846
0.0109841
0.012462
0.0127532
0.0127843
0.0127864
0.0127872
0.0127885
0.0127896
0.0127817
0.0127155
0.0125186
0.0127018
0.0127567
0.0127616
0.0127604
0.0127587
0.0127578
0.0127573
0.0127573
0.0127577
0.0127586
0.0127602
0.0127614
0.0127566
0.0127017
0.0125186
0.0127156
0.0127818
0.0127898
0.0127888
0.0127861
0.0127546
0.0124629
0.0109846
0.0109841
0.012462
0.0127531
0.0127841
0.0127862
0.0127869
0.0127878
0.0127828
0.0127137
0.0122784
0.011142
0.0122466
0.0126488
0.0127086
0.0127134
0.012712
0.0127112
0.0127109
0.0127109
0.0127111
0.0127119
0.0127133
0.0127085
0.0126487
0.0122467
0.011142
0.0122785
0.0127138
0.012783
0.0127882
0.0127858
0.0127544
0.0124629
0.0109847
0.0109841
0.012462
0.012753
0.012784
0.0127859
0.0127865
0.0127857
0.0127615
0.0125181
0.0111414
0.0111239
0.0123795
0.0125871
0.0126066
0.0126075
0.0126074
0.0126074
0.0126073
0.0126073
0.0126073
0.0126064
0.0125868
0.0123792
0.0111236
0.0111414
0.0125182
0.0127618
0.0127861
0.0127854
0.0127542
0.0124628
0.0109846
0.0109841
0.0124619
0.0127529
0.0127838
0.0127857
0.0127862
0.0127868
0.0127813
0.0127122
0.0122786
0.0111422
0.0122571
0.0126577
0.0127168
0.0127216
0.0127216
0.0127216
0.0127216
0.0127216
0.0127215
0.0127213
0.012721
0.012716
0.0126562
0.0122564
0.0111421
0.0122788
0.0127124
0.0127816
0.0127872
0.0127852
0.012754
0.0124627
0.0109846
0.0109841
0.0124619
0.0127528
0.0127836
0.0127855
0.0127859
0.0127867
0.0127871
0.0127788
0.012713
0.0125194
0.0127086
0.0127688
0.0127737
0.0127731
0.0127725
0.0127724
0.0127725
0.0127724
0.0127723
0.0127722
0.0127722
0.0127719
0.0127648
0.0127068
0.0125188
0.0127131
0.012779
0.0127875
0.0127871
0.0127849
0.0127538
0.0124626
0.0109845
0.010984
0.0124619
0.0127527
0.0127835
0.0127853
0.0127857
0.0127863
0.0127872
0.0127877
0.0127826
0.0127632
0.0127825
0.0127846
0.0127767
0.0127744
0.0127737
0.0127735
0.0127734
0.0127734
0.0127733
0.0127734
0.0127736
0.0127742
0.012776
0.0127782
0.0127618
0.0127824
0.0127879
0.0127875
0.0127868
0.0127847
0.0127537
0.0124625
0.0109844
0.010984
0.0124619
0.0127528
0.0127835
0.0127853
0.0127856
0.0127861
0.0127868
0.0127877
0.0127883
0.0127877
0.0127886
0.0127854
0.0127777
0.0127756
0.0127751
0.012775
0.012775
0.012775
0.0127749
0.0127749
0.012775
0.0127754
0.0127775
0.0127845
0.0127863
0.0127883
0.0127879
0.0127872
0.0127866
0.0127846
0.0127536
0.0124625
0.0109844
0.0109841
0.012461
0.0127513
0.012782
0.0127837
0.0127839
0.0127844
0.0127849
0.0127857
0.0127865
0.0127872
0.0127874
0.0127862
0.0127829
0.0127818
0.0127815
0.0127816
0.0127817
0.0127817
0.0127816
0.0127814
0.0127813
0.0127815
0.0127825
0.0127857
0.0127867
0.0127867
0.012786
0.0127853
0.0127849
0.0127829
0.0127521
0.0124615
0.0109844
0.0109836
0.0124395
0.0127219
0.0127514
0.0127531
0.0127533
0.0127536
0.0127541
0.0127547
0.0127554
0.0127561
0.0127565
0.0127564
0.0127556
0.0127553
0.0127553
0.0127555
0.0127555
0.0127556
0.0127555
0.0127553
0.0127552
0.0127551
0.0127553
0.0127561
0.0127561
0.0127557
0.0127551
0.0127545
0.0127541
0.0127523
0.0127226
0.0124401
0.0109839
0.0109721
0.0122169
0.0124397
0.0124612
0.0124623
0.0124624
0.0124627
0.0124631
0.0124636
0.0124641
0.0124645
0.0124649
0.012465
0.0124648
0.0124648
0.0124648
0.0124648
0.0124648
0.0124648
0.0124648
0.0124647
0.0124647
0.0124647
0.0124647
0.0124648
0.0124646
0.0124643
0.0124638
0.0124634
0.0124631
0.0124619
0.0124403
0.0122174
0.0109723
0.0108961
0.0109721
0.0109837
0.0109842
0.0109843
0.0109844
0.0109846
0.0109849
0.0109852
0.0109855
0.0109858
0.010986
0.0109862
0.0109862
0.0109861
0.010986
0.0109859
0.0109858
0.0109858
0.0109858
0.0109859
0.010986
0.0109861
0.0109861
0.010986
0.0109859
0.0109856
0.0109853
0.010985
0.0109848
0.0109846
0.010984
0.0109724
0.0108963
0.0148224
0.0154895
0.0156224
0.0156354
0.0156359
0.0156358
0.0156358
0.0156359
0.0156359
0.0156359
0.015636
0.015636
0.015636
0.015636
0.015636
0.015636
0.015636
0.015636
0.015636
0.015636
0.015636
0.015636
0.015636
0.015636
0.015636
0.015636
0.0156359
0.0156359
0.0156359
0.015636
0.0156355
0.0156224
0.0154896
0.0148225
0.0154895
0.0226492
0.0237421
0.0238812
0.0238924
0.0238926
0.0238925
0.0238924
0.0238924
0.0238923
0.0238923
0.0238922
0.0238921
0.023892
0.023892
0.0238919
0.0238919
0.0238919
0.0238919
0.0238919
0.0238919
0.023892
0.023892
0.0238921
0.0238922
0.0238923
0.0238923
0.0238924
0.0238925
0.0238923
0.0238812
0.0237421
0.0226491
0.0154896
0.0156225
0.0237423
0.0250621
0.0252427
0.0252587
0.0252592
0.0252591
0.0252591
0.0252592
0.0252592
0.0252593
0.0252594
0.0252594
0.0252595
0.0252596
0.0252596
0.0252596
0.0252596
0.0252596
0.0252596
0.0252596
0.0252596
0.0252595
0.0252595
0.0252594
0.0252593
0.0252593
0.0252592
0.0252593
0.0252588
0.0252429
0.0250622
0.0237424
0.0156226
0.0156356
0.0238814
0.0252428
0.0254316
0.0254485
0.025449
0.025449
0.025449
0.0254491
0.0254493
0.0254494
0.0254496
0.0254498
0.0254499
0.02545
0.0254501
0.0254502
0.0254502
0.0254502
0.0254502
0.0254501
0.02545
0.0254499
0.0254498
0.0254496
0.0254495
0.0254493
0.0254492
0.0254493
0.0254487
0.0254318
0.025243
0.0238816
0.0156357
0.0156361
0.0238926
0.0252588
0.0254485
0.0254654
0.025466
0.0254659
0.025466
0.0254662
0.0254664
0.0254667
0.0254669
0.0254671
0.0254673
0.0254675
0.0254676
0.0254677
0.0254678
0.0254678
0.0254678
0.0254677
0.0254675
0.0254674
0.0254672
0.025467
0.0254667
0.0254665
0.0254663
0.0254663
0.0254657
0.0254488
0.025259
0.0238928
0.0156362
0.015636
0.0238928
0.0252593
0.025449
0.025466
0.0254665
0.0254665
0.0254667
0.025467
0.0254672
0.0254668
0.0254678
0.0254681
0.0254684
0.0254686
0.0254688
0.0254689
0.0254689
0.0254689
0.0254689
0.0254688
0.0254686
0.0254684
0.0254682
0.0254678
0.0254668
0.0254672
0.0254671
0.025467
0.0254663
0.0254493
0.0252595
0.023893
0.0156363
0.0156361
0.0238927
0.0252592
0.025449
0.0254659
0.0254665
0.0254666
0.0254669
0.025467
0.0254635
0.0254537
0.0254631
0.0254666
0.0254671
0.0254674
0.0254675
0.0254675
0.0254676
0.0254676
0.0254675
0.0254675
0.0254674
0.0254671
0.0254666
0.0254632
0.0254537
0.0254636
0.0254671
0.0254672
0.0254664
0.0254493
0.0252594
0.0238928
0.0156363
0.0156361
0.0238926
0.0252591
0.025449
0.025466
0.0254667
0.0254669
0.0254669
0.0254594
0.025414
0.0253107
0.025405
0.0254441
0.0254504
0.0254513
0.0254509
0.0254508
0.0254507
0.0254507
0.0254508
0.025451
0.0254513
0.0254505
0.0254441
0.025405
0.0253108
0.025414
0.0254595
0.0254671
0.0254667
0.0254495
0.0252595
0.0238927
0.0156364
0.0156361
0.0238925
0.0252592
0.0254491
0.0254661
0.0254669
0.0254668
0.0254593
0.0253881
0.0250311
0.0242295
0.0249788
0.0252899
0.0253471
0.0253534
0.0253528
0.0253522
0.0253521
0.0253521
0.0253522
0.0253528
0.0253534
0.0253472
0.02529
0.0249789
0.0242295
0.0250312
0.0253883
0.0254596
0.0254667
0.0254497
0.0252595
0.0238926
0.0156365
0.0156362
0.0238924
0.0252592
0.0254492
0.0254663
0.0254669
0.0254632
0.0254139
0.0250318
0.0230935
0.0169007
0.0229182
0.0246456
0.0249556
0.0249903
0.0249936
0.0249935
0.0249934
0.0249935
0.0249936
0.0249936
0.0249903
0.0249557
0.0246457
0.0229184
0.0169006
0.0230936
0.025032
0.0254142
0.025463
0.0254497
0.0252596
0.0238925
0.0156366
0.0156362
0.0238923
0.0252592
0.0254493
0.0254664
0.0254664
0.0254534
0.0253122
0.024238
0.0169159
0.0167465
0.0233935
0.0242837
0.0243886
0.0243953
0.0243947
0.0243945
0.0243945
0.0243947
0.0243953
0.0243886
0.0242838
0.0233937
0.0167468
0.0169161
0.0242382
0.0253125
0.0254533
0.0254492
0.0252596
0.0238923
0.0156366
0.0156362
0.0238922
0.0252592
0.0254494
0.0254665
0.0254673
0.0254637
0.0254141
0.02503
0.0230811
0.0169026
0.0228852
0.0246173
0.0249268
0.0249647
0.0249571
0.0249524
0.024951
0.0249509
0.0249524
0.024957
0.0249646
0.0249267
0.0246172
0.0228851
0.0169023
0.0230808
0.02503
0.0254144
0.0254635
0.0254501
0.0252597
0.023892
0.0156366
0.0156361
0.0238921
0.0252592
0.0254494
0.0254666
0.0254676
0.0254678
0.0254603
0.0253883
0.0250267
0.0242162
0.0249426
0.0252176
0.0252589
0.0252596
0.0252532
0.0252498
0.0252487
0.0252486
0.0252498
0.0252532
0.0252596
0.0252588
0.0252175
0.0249424
0.0242159
0.0250266
0.0253884
0.0254606
0.0254676
0.0254504
0.0252597
0.0238918
0.0156365
0.0156361
0.0238919
0.0252593
0.0254495
0.0254667
0.0254677
0.0254682
0.0254685
0.0254608
0.0254127
0.0252989
0.0253638
0.0253496
0.0253334
0.0253258
0.0253216
0.0253195
0.0253187
0.0253187
0.0253195
0.0253216
0.0253258
0.0253333
0.0253495
0.0253637
0.0252988
0.0254126
0.0254609
0.0254688
0.0254681
0.0254504
0.0252597
0.0238916
0.0156365
0.0156361
0.0238919
0.0252593
0.0254496
0.0254668
0.0254677
0.0254682
0.025469
0.025469
0.0254633
0.0254427
0.0254208
0.0253671
0.0253438
0.0253354
0.025332
0.0253304
0.0253297
0.0253297
0.0253304
0.0253319
0.0253353
0.0253437
0.025367
0.0254207
0.0254426
0.0254633
0.0254691
0.0254693
0.0254681
0.0254505
0.0252597
0.0238914
0.0156364
0.015636
0.0238918
0.0252593
0.0254496
0.0254669
0.0254678
0.0254683
0.025469
0.0254694
0.0254675
0.0254564
0.0254258
0.0253688
0.0253452
0.0253368
0.0253336
0.0253322
0.0253316
0.0253315
0.0253321
0.0253336
0.0253368
0.0253451
0.0253687
0.0254257
0.0254563
0.0254675
0.0254695
0.0254693
0.0254681
0.0254506
0.0252597
0.0238913
0.0156363
0.015636
0.0238917
0.0252593
0.0254497
0.0254669
0.0254679
0.0254684
0.0254691
0.0254695
0.0254677
0.0254573
0.0254261
0.0253692
0.0253457
0.0253373
0.0253342
0.0253328
0.0253322
0.0253321
0.0253327
0.0253342
0.0253373
0.0253456
0.0253691
0.025426
0.0254572
0.0254677
0.0254696
0.0254694
0.0254682
0.0254506
0.0252598
0.0238913
0.0156363
0.0156359
0.0238917
0.0252593
0.0254497
0.025467
0.0254679
0.0254684
0.0254691
0.0254695
0.0254677
0.0254574
0.0254262
0.0253695
0.0253459
0.0253376
0.0253345
0.025333
0.0253324
0.0253324
0.025333
0.0253345
0.0253376
0.0253459
0.0253694
0.0254261
0.0254573
0.0254677
0.0254696
0.0254694
0.0254683
0.0254507
0.0252598
0.0238912
0.0156362
0.0156359
0.0238917
0.0252593
0.0254497
0.025467
0.025468
0.0254684
0.0254691
0.0254695
0.0254678
0.0254574
0.0254263
0.0253695
0.025346
0.0253376
0.0253345
0.025333
0.0253324
0.0253324
0.025333
0.0253345
0.0253376
0.0253459
0.0253694
0.0254262
0.0254574
0.0254678
0.0254696
0.0254695
0.0254683
0.0254507
0.0252598
0.0238912
0.0156362
0.0156359
0.0238917
0.0252593
0.0254497
0.025467
0.0254679
0.0254684
0.0254691
0.0254695
0.0254678
0.0254574
0.0254262
0.0253694
0.0253458
0.0253375
0.0253343
0.0253328
0.0253322
0.0253322
0.0253328
0.0253343
0.0253374
0.0253458
0.0253693
0.0254262
0.0254574
0.0254678
0.0254697
0.0254694
0.0254683
0.0254507
0.0252598
0.0238912
0.0156362
0.015636
0.0238918
0.0252593
0.0254497
0.025467
0.0254679
0.0254684
0.0254691
0.0254696
0.0254677
0.0254566
0.025426
0.0253692
0.0253455
0.0253371
0.0253338
0.0253323
0.0253317
0.0253317
0.0253323
0.0253338
0.025337
0.0253454
0.0253691
0.025426
0.0254566
0.0254677
0.0254697
0.0254694
0.0254683
0.0254507
0.0252598
0.0238913
0.0156362
0.015636
0.0238918
0.0252593
0.0254496
0.0254669
0.0254679
0.0254684
0.0254692
0.0254693
0.0254636
0.0254431
0.0254212
0.0253677
0.0253443
0.0253358
0.0253324
0.0253308
0.0253301
0.0253301
0.0253308
0.0253324
0.0253358
0.0253443
0.0253676
0.0254211
0.0254431
0.0254636
0.0254694
0.0254695
0.0254682
0.0254506
0.0252598
0.0238914
0.0156363
0.015636
0.0238919
0.0252593
0.0254496
0.0254669
0.0254678
0.0254684
0.0254687
0.0254611
0.0254132
0.0252997
0.0253646
0.0253505
0.0253343
0.0253267
0.0253224
0.0253203
0.0253196
0.0253196
0.0253204
0.0253225
0.0253267
0.0253343
0.0253505
0.0253646
0.0252998
0.0254132
0.0254613
0.0254691
0.0254683
0.0254506
0.0252598
0.0238915
0.0156363
0.015636
0.023892
0.0252593
0.0254495
0.0254668
0.0254678
0.025468
0.0254606
0.0253888
0.0250278
0.0242185
0.0249443
0.0252191
0.0252604
0.0252612
0.0252548
0.0252514
0.0252503
0.0252503
0.0252515
0.0252549
0.0252612
0.0252605
0.0252192
0.0249444
0.0242187
0.0250279
0.0253889
0.025461
0.0254679
0.0254506
0.0252598
0.0238917
0.0156364
0.0156361
0.0238921
0.0252593
0.0254495
0.0254667
0.0254675
0.0254639
0.0254145
0.0250307
0.0230831
0.0169048
0.0228875
0.0246187
0.0249285
0.0249665
0.024959
0.0249544
0.024953
0.024953
0.0249544
0.0249591
0.0249666
0.0249287
0.024619
0.0228881
0.0169047
0.0230833
0.0250309
0.0254149
0.0254638
0.0254503
0.0252598
0.0238919
0.0156364
0.0156361
0.0238922
0.0252593
0.0254494
0.0254666
0.0254667
0.0254537
0.0253125
0.0242383
0.0169152
0.0167438
0.0233901
0.0242815
0.0243864
0.0243929
0.0243922
0.0243918
0.0243918
0.0243921
0.0243928
0.0243861
0.0242812
0.0233894
0.016743
0.016915
0.0242385
0.0253129
0.0254536
0.0254495
0.0252598
0.0238921
0.0156364
0.0156361
0.0238923
0.0252593
0.0254494
0.0254665
0.0254672
0.0254636
0.0254143
0.0250324
0.0230943
0.0169031
0.022913
0.0246409
0.0249487
0.0249819
0.0249848
0.0249846
0.0249844
0.0249844
0.0249845
0.0249846
0.0249814
0.0249472
0.0246375
0.0229107
0.0169029
0.0230943
0.0250326
0.0254147
0.0254635
0.0254501
0.0252598
0.0238923
0.0156364
0.0156361
0.0238924
0.0252593
0.0254493
0.0254664
0.0254673
0.0254673
0.0254599
0.0253888
0.0250318
0.0242297
0.0249744
0.0252767
0.0253181
0.0253178
0.025316
0.0253151
0.0253149
0.0253149
0.025315
0.0253156
0.0253162
0.025312
0.0252609
0.0249651
0.0242267
0.0250312
0.0253889
0.0254602
0.0254672
0.0254501
0.0252598
0.0238924
0.0156364
0.015636
0.0238926
0.0252594
0.0254494
0.0254665
0.0254672
0.0254676
0.0254676
0.0254602
0.0254146
0.0253096
0.0253961
0.0254132
0.0253812
0.0253679
0.0253642
0.0253632
0.025363
0.025363
0.025363
0.0253632
0.0253642
0.0253672
0.0253749
0.0253741
0.0253022
0.0254129
0.0254601
0.025468
0.0254675
0.0254501
0.0252598
0.0238926
0.0156363
0.0156361
0.0238924
0.025259
0.0254489
0.0254659
0.0254666
0.0254668
0.0254673
0.0254674
0.0254636
0.0254521
0.0254538
0.0254345
0.0253957
0.0253816
0.0253781
0.0253773
0.0253772
0.0253771
0.0253771
0.0253772
0.0253779
0.0253813
0.0253951
0.0254311
0.0254444
0.0254619
0.0254672
0.0254676
0.0254667
0.0254495
0.0252593
0.0238925
0.0156364
0.0156356
0.0238813
0.025243
0.025432
0.025449
0.0254496
0.0254497
0.02545
0.0254505
0.0254505
0.0254493
0.0254465
0.025436
0.0254177
0.0254108
0.0254091
0.0254088
0.0254088
0.0254088
0.0254088
0.0254088
0.025409
0.0254106
0.0254176
0.0254357
0.0254456
0.0254498
0.0254505
0.0254504
0.0254496
0.0254325
0.0252433
0.0238813
0.0156359
0.0156225
0.0237422
0.0250623
0.0252431
0.0252591
0.0252597
0.0252598
0.02526
0.0252602
0.0252604
0.0252602
0.0252592
0.0252558
0.02525
0.0252476
0.0252469
0.0252468
0.0252467
0.0252467
0.0252467
0.0252467
0.0252469
0.0252475
0.02525
0.0252557
0.025259
0.0252602
0.0252603
0.0252603
0.0252596
0.0252435
0.0250625
0.0237422
0.0156227
0.0154896
0.0226491
0.0237423
0.0238815
0.0238928
0.023893
0.023893
0.023893
0.0238929
0.0238928
0.0238925
0.0238918
0.0238904
0.0238883
0.0238872
0.0238865
0.0238862
0.023886
0.023886
0.0238861
0.0238863
0.0238866
0.0238873
0.0238885
0.0238906
0.023892
0.0238926
0.0238929
0.0238931
0.0238929
0.0238817
0.0237424
0.022649
0.0154898
0.0148225
0.0154897
0.0156226
0.0156358
0.0156363
0.0156364
0.0156365
0.0156367
0.015637
0.0156372
0.0156374
0.0156375
0.0156375
0.0156373
0.0156372
0.015637
0.0156369
0.0156368
0.0156367
0.0156368
0.0156369
0.015637
0.0156372
0.0156373
0.0156374
0.0156374
0.0156373
0.015637
0.0156368
0.0156367
0.0156361
0.0156229
0.0154898
0.0148227
0.0154203
0.0163407
0.0165484
0.0165726
0.016574
0.0165739
0.0165739
0.0165739
0.016574
0.016574
0.016574
0.016574
0.016574
0.0165741
0.0165741
0.0165741
0.0165741
0.0165741
0.0165741
0.0165741
0.0165741
0.0165741
0.0165741
0.016574
0.016574
0.016574
0.016574
0.016574
0.016574
0.016574
0.0165726
0.0165484
0.0163407
0.0154204
0.0163407
0.0252476
0.0267174
0.0269288
0.0269492
0.0269501
0.02695
0.0269499
0.0269498
0.0269496
0.0269495
0.0269494
0.0269492
0.0269491
0.026949
0.0269489
0.0269488
0.0269488
0.0269488
0.0269488
0.0269489
0.0269489
0.0269491
0.0269492
0.0269493
0.0269495
0.0269496
0.0269498
0.0269499
0.0269491
0.0269286
0.0267173
0.0252475
0.0163407
0.0165485
0.0267176
0.028508
0.0287862
0.0288159
0.0288176
0.0288175
0.0288174
0.0288174
0.0288174
0.0288174
0.0288174
0.0288174
0.0288174
0.0288173
0.0288173
0.0288173
0.0288173
0.0288173
0.0288173
0.0288173
0.0288173
0.0288174
0.0288174
0.0288174
0.0288174
0.0288174
0.0288175
0.0288176
0.0288159
0.0287862
0.028508
0.0267176
0.0165486
0.0165727
0.026929
0.0287863
0.0290797
0.0291115
0.0291134
0.0291133
0.0291133
0.0291134
0.0291134
0.0291135
0.0291136
0.0291136
0.0291137
0.0291137
0.0291137
0.0291138
0.0291138
0.0291138
0.0291138
0.0291137
0.0291137
0.0291137
0.0291136
0.0291136
0.0291135
0.0291135
0.0291134
0.0291135
0.0291116
0.0290798
0.0287863
0.0269291
0.0165728
0.0165741
0.0269495
0.028816
0.0291116
0.0291437
0.0291456
0.0291455
0.0291455
0.0291456
0.0291457
0.0291457
0.0291459
0.029146
0.029146
0.0291461
0.0291462
0.0291462
0.0291462
0.0291462
0.0291462
0.0291462
0.0291461
0.029146
0.029146
0.0291459
0.0291458
0.0291458
0.0291457
0.0291457
0.0291438
0.0291117
0.0288161
0.0269496
0.0165743
0.0165741
0.0269504
0.0288177
0.0291134
0.0291456
0.0291474
0.0291474
0.0291475
0.0291476
0.0291473
0.0291459
0.029147
0.0291472
0.0291472
0.0291474
0.0291473
0.0291473
0.0291473
0.0291473
0.0291473
0.0291473
0.0291474
0.0291472
0.0291472
0.029147
0.029146
0.0291473
0.0291477
0.0291477
0.0291457
0.0291135
0.0288178
0.0269504
0.0165743
0.0165741
0.0269502
0.0288175
0.0291133
0.0291455
0.0291474
0.0291474
0.0291476
0.0291465
0.0291387
0.0291215
0.0291332
0.0291376
0.0291381
0.0291385
0.029138
0.0291376
0.0291375
0.0291375
0.0291376
0.029138
0.0291385
0.0291382
0.0291376
0.0291332
0.0291215
0.0291388
0.0291466
0.0291478
0.0291458
0.0291135
0.0288176
0.0269502
0.0165744
0.0165742
0.0269501
0.0288175
0.0291133
0.0291455
0.0291475
0.0291476
0.0291461
0.0291301
0.0290533
0.0289
0.029012
0.0290613
0.0290702
0.0290722
0.0290701
0.0290686
0.0290681
0.0290681
0.0290686
0.0290701
0.0290723
0.0290702
0.0290613
0.029012
0.0289
0.0290534
0.0291302
0.0291463
0.0291459
0.0291136
0.0288176
0.02695
0.0165744
0.0165742
0.0269499
0.0288175
0.0291133
0.0291456
0.0291476
0.0291465
0.0291301
0.02901
0.0284873
0.0274288
0.0282754
0.0286368
0.0287073
0.0287166
0.0287138
0.028711
0.0287101
0.0287101
0.028711
0.0287138
0.0287166
0.0287073
0.0286368
0.0282754
0.0274288
0.0284873
0.0290101
0.0291303
0.0291448
0.0291137
0.0288176
0.0269499
0.0165745
0.0165742
0.0269498
0.0288174
0.0291134
0.0291456
0.0291472
0.0291388
0.0290544
0.0284916
0.0259232
0.0182411
0.0251916
0.0270738
0.0274149
0.0274441
0.0274581
0.0274591
0.0274588
0.0274588
0.0274591
0.0274581
0.027444
0.0274149
0.0270739
0.0251918
0.0182409
0.0259232
0.0284917
0.0290546
0.0291371
0.0291133
0.0288176
0.0269496
0.0165745
0.0165742
0.0269496
0.0288174
0.0291134
0.0291456
0.0291459
0.0291227
0.0289093
0.0274687
0.0183224
0.0173902
0.0242237
0.0251401
0.025253
0.0252575
0.0252559
0.0252555
0.0252555
0.0252559
0.0252575
0.0252531
0.0251402
0.024224
0.0173905
0.0183226
0.0274688
0.0289095
0.029121
0.0291119
0.0288174
0.0269493
0.0165745
0.0165742
0.0269494
0.0288173
0.0291134
0.0291457
0.0291473
0.0291389
0.0290542
0.0284886
0.0259077
0.018242
0.0251476
0.0270519
0.0274081
0.0274909
0.0274444
0.0274285
0.0274249
0.0274249
0.0274284
0.0274443
0.0274908
0.0274079
0.0270518
0.0251475
0.0182417
0.0259073
0.0284886
0.0290544
0.0291373
0.0291134
0.0288174
0.0269488
0.0165745
0.0165742
0.0269492
0.0288173
0.0291134
0.0291458
0.0291479
0.0291469
0.0291303
0.029008
0.0284757
0.0273895
0.028157
0.0284023
0.0284373
0.028448
0.0284302
0.0284224
0.0284203
0.0284203
0.0284224
0.0284302
0.0284479
0.0284372
0.0284022
0.0281569
0.0273893
0.0284756
0.0290081
0.0291305
0.0291452
0.0291139
0.0288173
0.0269485
0.0165745
0.0165741
0.026949
0.0288172
0.0291135
0.0291458
0.0291479
0.0291482
0.0291466
0.0291286
0.0290415
0.0288478
0.0288457
0.0287133
0.0286625
0.0286518
0.0286452
0.0286424
0.0286415
0.0286415
0.0286424
0.0286452
0.0286517
0.0286624
0.0287132
0.0288457
0.0288477
0.0290415
0.0291287
0.0291468
0.0291465
0.0291139
0.0288172
0.0269482
0.0165744
0.0165741
0.0269489
0.0288172
0.0291135
0.0291458
0.0291479
0.0291481
0.0291482
0.0291452
0.0291266
0.0290649
0.0289516
0.0287576
0.0286924
0.028678
0.0286742
0.0286728
0.0286724
0.0286724
0.0286728
0.0286742
0.028678
0.0286924
0.0287575
0.0289516
0.0290649
0.0291266
0.0291453
0.0291484
0.0291465
0.0291139
0.0288171
0.0269479
0.0165743
0.016574
0.0269488
0.0288172
0.0291135
0.0291459
0.0291479
0.0291481
0.0291481
0.0291464
0.0291351
0.0290885
0.0289622
0.0287614
0.0286948
0.02868
0.0286766
0.0286756
0.0286753
0.0286753
0.0286756
0.0286766
0.0286799
0.0286948
0.0287613
0.0289622
0.0290885
0.0291351
0.0291465
0.0291484
0.0291464
0.0291139
0.0288171
0.0269478
0.0165743
0.016574
0.0269487
0.0288172
0.0291135
0.0291459
0.029148
0.0291481
0.0291481
0.0291464
0.0291355
0.0290902
0.0289628
0.0287616
0.0286949
0.0286801
0.0286769
0.0286759
0.0286756
0.0286756
0.0286759
0.0286769
0.0286801
0.0286949
0.0287615
0.0289628
0.0290902
0.0291355
0.0291465
0.0291483
0.0291465
0.0291139
0.0288171
0.0269477
0.0165742
0.016574
0.0269487
0.0288172
0.0291135
0.0291459
0.029148
0.0291481
0.0291481
0.0291464
0.0291355
0.0290902
0.0289627
0.0287617
0.028695
0.0286802
0.028677
0.028676
0.0286757
0.0286757
0.028676
0.028677
0.0286802
0.028695
0.0287616
0.0289628
0.0290902
0.0291355
0.0291465
0.0291484
0.0291465
0.0291139
0.0288171
0.0269476
0.0165742
0.016574
0.0269487
0.0288172
0.0291135
0.0291459
0.029148
0.0291481
0.0291481
0.0291464
0.0291355
0.0290903
0.0289628
0.0287617
0.0286951
0.0286802
0.028677
0.0286761
0.0286757
0.0286757
0.0286761
0.028677
0.0286802
0.028695
0.0287616
0.0289628
0.0290903
0.0291355
0.0291465