/*--------------------------------*- C++ -*----------------------------------*\
| =========                 |                                                 |
| \\      /  F ield         | OpenFOAM: The Open Source CFD Toolbox           |
|  \\    /   O peration     | Version:  2112                                  |
|   \\  /    A nd           | Website:  www.openfoam.com                      |
|    \\/     M anipulation  |                                                 |
\*---------------------------------------------------------------------------*/
FoamFile
{
    version     2.0;
    format      ascii;
    arch        "LSB;label=32;scalar=64";
    class       volScalarField;
    location    "0.5";
    object      nut;
}
// * * * * * * * * * * * * * * * * * * * * * * * * * * * * * * * * * * * * * //

dimensions      [0 2 -1 0 0 0 0];

internalField   nonuniform List<scalar> 
64906
(
0.000210405
0.000211783
0.000212062
0.000212088
0.000212088
0.000212089
0.000212089
0.00021209
0.000212091
0.000212091
0.000212092
0.000212093
0.000212093
0.000212093
0.000212094
0.000212094
0.000212094
0.000212094
0.000212094
0.000212094
0.000212094
0.000212094
0.000212093
0.000212093
0.000212092
0.000212092
0.000212091
0.000212091
0.00021209
0.00021209
0.000212089
0.000212063
0.000211784
0.000210406
0.000211783
0.00022948
0.000233279
0.000233763
0.000233801
0.000233802
0.000233803
0.000233804
0.000233805
0.000233807
0.000233808
0.000233809
0.000233811
0.000233812
0.000233813
0.000233813
0.000233814
0.000233814
0.000233814
0.000233814
0.000233813
0.000233813
0.000233812
0.000233811
0.00023381
0.000233808
0.000233807
0.000233806
0.000233805
0.000233803
0.000233765
0.000233281
0.000229482
0.000211785
0.000212063
0.00023328
0.000238218
0.000238898
0.000238956
0.000238959
0.00023896
0.000238962
0.000238964
0.000238966
0.000238969
0.000238972
0.000238975
0.000238977
0.000238979
0.000238981
0.000238982
0.000238982
0.000238982
0.000238982
0.000238981
0.000238979
0.000238977
0.000238975
0.000238972
0.00023897
0.000238967
0.000238965
0.000238963
0.00023896
0.000238902
0.000238221
0.000233283
0.000212065
0.000212089
0.000233765
0.000238898
0.000239615
0.000239678
0.000239681
0.000239682
0.000239685
0.000239688
0.000239691
0.000239695
0.0002397
0.000239704
0.000239707
0.00023971
0.000239713
0.000239715
0.000239715
0.000239715
0.000239715
0.000239713
0.000239711
0.000239708
0.000239704
0.0002397
0.000239696
0.000239692
0.000239689
0.000239687
0.000239683
0.00023962
0.000238903
0.000233769
0.000212091
0.00021209
0.000233803
0.000238957
0.000239678
0.000239741
0.000239744
0.000239746
0.00023975
0.000239754
0.000239759
0.000239764
0.000239771
0.000239777
0.000239782
0.000239787
0.00023979
0.000239793
0.000239794
0.000239794
0.000239793
0.000239791
0.000239787
0.000239783
0.000239778
0.000239772
0.000239765
0.00023976
0.000239755
0.000239752
0.000239747
0.000239684
0.000238963
0.000233808
0.000212093
0.000212091
0.000233804
0.00023896
0.000239681
0.000239744
0.000239749
0.000239751
0.000239756
0.000239762
0.000239768
0.000239774
0.000239786
0.000239795
0.000239803
0.000239809
0.000239814
0.000239817
0.000239819
0.000239819
0.000239817
0.000239814
0.00023981
0.000239803
0.000239796
0.000239787
0.000239775
0.000239769
0.000239763
0.000239758
0.000239753
0.000239688
0.000238966
0.00023381
0.000212094
0.000212092
0.000233805
0.000238961
0.000239683
0.000239746
0.000239751
0.000239755
0.000239761
0.000239768
0.000239763
0.000239737
0.000239787
0.000239811
0.000239822
0.000239832
0.000239838
0.000239842
0.000239844
0.000239845
0.000239842
0.000239838
0.000239832
0.000239823
0.000239812
0.000239788
0.000239738
0.000239765
0.000239769
0.000239764
0.000239757
0.000239691
0.000238969
0.000233812
0.000212096
0.000212092
0.000233806
0.000238963
0.000239685
0.000239749
0.000239755
0.000239761
0.000239767
0.000239749
0.00023959
0.000239201
0.000239599
0.000239765
0.000239802
0.000239817
0.000239824
0.000239829
0.000239832
0.000239832
0.000239829
0.000239824
0.000239818
0.000239803
0.000239766
0.0002396
0.000239202
0.000239591
0.00023975
0.000239769
0.000239762
0.000239695
0.000238972
0.000233813
0.000212097
0.000212093
0.000233807
0.000238964
0.000239687
0.000239752
0.00023976
0.000239765
0.000239747
0.000239493
0.00023813
0.000235018
0.000238021
0.00023927
0.000239509
0.000239548
0.000239556
0.000239561
0.000239564
0.000239565
0.000239562
0.000239557
0.000239549
0.00023951
0.000239271
0.000238023
0.000235019
0.000238131
0.000239495
0.000239749
0.000239767
0.0002397
0.000238975
0.000233815
0.000212099
0.000212094
0.000233808
0.000238966
0.00023969
0.000239756
0.000239764
0.000239758
0.000239585
0.000238128
0.000230905
0.000214947
0.000230495
0.000237045
0.000238282
0.000238434
0.000238453
0.000238459
0.000238463
0.000238463
0.00023846
0.000238454
0.000238435
0.000238283
0.000237046
0.000230497
0.000214947
0.000230906
0.00023813
0.000239588
0.00023976
0.000239704
0.000238978
0.000233817
0.0002121
0.000212094
0.000233809
0.000238968
0.000239692
0.00023976
0.000239767
0.000239728
0.000239194
0.00023503
0.000214966
0.000214676
0.000232662
0.000236119
0.000236536
0.000236569
0.000236572
0.000236573
0.000236573
0.000236572
0.000236569
0.000236536
0.00023612
0.000232663
0.000214677
0.000214967
0.000235032
0.000239197
0.000239729
0.000239707
0.000238982
0.000233818
0.000212101
0.000212094
0.000233809
0.00023897
0.000239695
0.000239764
0.000239775
0.000239773
0.000239604
0.000238144
0.000230884
0.000214944
0.000230303
0.000236877
0.000238107
0.000238251
0.000238239
0.000238228
0.000238225
0.000238225
0.000238228
0.000238238
0.000238251
0.000238107
0.000236877
0.000230302
0.000214942
0.000230882
0.000238144
0.000239607
0.000239775
0.000239715
0.000238985
0.000233819
0.000212101
0.000212094
0.000233809
0.000238971
0.000239697
0.000239767
0.00023978
0.000239793
0.000239784
0.000239534
0.000238158
0.000234988
0.000237864
0.00023899
0.00023916
0.000239162
0.000239142
0.00023913
0.000239126
0.000239126
0.00023913
0.000239141
0.000239162
0.000239159
0.000238989
0.000237862
0.000234985
0.000238157
0.000239534
0.000239786
0.000239795
0.00023972
0.000238987
0.00023382
0.000212101
0.000212094
0.000233809
0.000238972
0.000239699
0.00023977
0.000239784
0.0002398
0.000239819
0.000239811
0.000239653
0.000239214
0.000239477
0.000239451
0.000239396
0.000239365
0.000239344
0.000239333
0.000239327
0.000239327
0.000239332
0.000239344
0.000239364
0.000239395
0.000239449
0.000239474
0.000239212
0.000239652
0.000239812
0.00023982
0.0002398
0.000239723
0.00023899
0.00023382
0.000212101
0.000212094
0.000233809
0.000238973
0.000239701
0.000239772
0.000239787
0.000239803
0.000239825
0.000239846
0.000239848
0.000239779
0.0002397
0.000239513
0.000239429
0.000239391
0.000239369
0.000239354
0.000239347
0.000239347
0.000239354
0.000239368
0.00023939
0.000239428
0.000239511
0.000239697
0.000239778
0.000239847
0.000239846
0.000239826
0.000239804
0.000239726
0.000238991
0.00023382
0.0002121
0.000212093
0.000233809
0.000238974
0.000239702
0.000239774
0.000239789
0.000239806
0.000239828
0.000239852
0.000239868
0.000239837
0.000239727
0.00023952
0.000239434
0.000239394
0.00023937
0.000239352
0.000239342
0.000239342
0.000239351
0.000239368
0.000239393
0.000239433
0.000239519
0.000239724
0.000239836
0.000239867
0.000239852
0.00023983
0.000239807
0.000239728
0.000238993
0.00023382
0.000212099
0.000212093
0.000233809
0.000238974
0.000239703
0.000239775
0.000239791
0.000239808
0.000239831
0.000239855
0.000239873
0.000239846
0.000239734
0.000239524
0.000239437
0.000239396
0.000239369
0.000239349
0.000239336
0.000239336
0.000239348
0.000239368
0.000239394
0.000239435
0.000239522
0.000239732
0.000239844
0.000239872
0.000239855
0.000239832
0.000239809
0.00023973
0.000238994
0.00023382
0.000212099
0.000212092
0.000233809
0.000238975
0.000239704
0.000239776
0.000239792
0.000239809
0.000239832
0.000239857
0.000239875
0.000239849
0.000239738
0.000239525
0.000239438
0.000239396
0.000239369
0.000239347
0.000239332
0.000239331
0.000239346
0.000239367
0.000239395
0.000239436
0.000239524
0.000239735
0.000239847
0.000239874
0.000239857
0.000239834
0.00023981
0.00023973
0.000238994
0.00023382
0.000212098
0.000212092
0.000233809
0.000238975
0.000239704
0.000239776
0.000239792
0.00023981
0.000239833
0.000239858
0.000239876
0.00023985
0.000239739
0.000239526
0.000239438
0.000239396
0.000239368
0.000239346
0.00023933
0.000239329
0.000239345
0.000239367
0.000239395
0.000239437
0.000239524
0.000239736
0.000239848
0.000239875
0.000239858
0.000239835
0.000239811
0.000239731
0.000238994
0.00023382
0.000212098
0.000212092
0.000233809
0.000238975
0.000239704
0.000239776
0.000239792
0.00023981
0.000239833
0.000239857
0.000239876
0.000239849
0.000239738
0.000239525
0.000239438
0.000239396
0.000239368
0.000239346
0.000239331
0.00023933
0.000239345
0.000239366
0.000239394
0.000239436
0.000239523
0.000239735
0.000239847
0.000239875
0.000239857
0.000239834
0.00023981
0.000239731
0.000238994
0.00023382
0.000212098
0.000212092
0.000233809
0.000238974
0.000239703
0.000239775
0.000239791
0.000239808
0.000239831
0.000239855
0.000239873
0.000239843
0.000239733
0.000239523
0.000239436
0.000239394
0.000239368
0.000239348
0.000239334
0.000239334
0.000239346
0.000239366
0.000239393
0.000239434
0.000239521
0.000239731
0.000239842
0.000239873
0.000239856
0.000239833
0.000239809
0.00023973
0.000238994
0.00023382
0.000212098
0.000212093
0.000233809
0.000238974
0.000239703
0.000239774
0.000239789
0.000239806
0.000239829
0.000239851
0.000239855
0.000239788
0.000239709
0.000239516
0.000239431
0.000239391
0.000239366
0.000239348
0.000239338
0.000239337
0.000239347
0.000239364
0.000239389
0.000239429
0.000239515
0.000239707
0.000239787
0.000239855
0.000239852
0.000239831
0.000239807
0.000239729
0.000238993
0.00023382
0.000212099
0.000212093
0.000233809
0.000238973
0.000239701
0.000239772
0.000239787
0.000239804
0.000239824
0.000239818
0.000239663
0.000239227
0.00023949
0.000239456
0.000239399
0.000239364
0.00023934
0.000239325
0.000239317
0.000239317
0.000239324
0.000239339
0.000239362
0.000239397
0.000239454
0.000239489
0.000239227
0.000239663
0.00023982
0.000239826
0.000239805
0.000239727
0.000238992
0.000233821
0.000212099
0.000212093
0.000233809
0.000238972
0.0002397
0.00023977
0.000239784
0.000239798
0.00023979
0.000239543
0.000238172
0.000235012
0.000237883
0.000238996
0.000239163
0.000239161
0.000239137
0.000239122
0.000239116
0.000239115
0.000239121
0.000239135
0.000239159
0.000239161
0.000238995
0.000237883
0.000235013
0.000238173
0.000239545
0.000239793
0.0002398
0.000239724
0.00023899
0.00023382
0.0002121
0.000212093
0.000233809
0.000238971
0.000239698
0.000239767
0.000239779
0.000239779
0.000239612
0.000238154
0.000230902
0.00021496
0.000230314
0.000236878
0.000238106
0.000238247
0.000238231
0.000238217
0.000238212
0.000238212
0.000238216
0.000238229
0.000238245
0.000238104
0.000236877
0.000230317
0.00021496
0.000230904
0.000238157
0.000239616
0.000239782
0.00023972
0.000238988
0.00023382
0.0002121
0.000212093
0.000233809
0.00023897
0.000239696
0.000239764
0.000239772
0.000239734
0.0002392
0.000235036
0.000214966
0.000214661
0.000232638
0.0002361
0.000236513
0.000236542
0.000236541
0.000236541
0.00023654
0.00023654
0.000236539
0.00023651
0.000236096
0.000232633
0.000214656
0.000214966
0.000235038
0.000239205
0.000239737
0.000239713
0.000238986
0.00023382
0.0002121
0.000212093
0.000233809
0.000238969
0.000239693
0.000239761
0.00023977
0.000239766
0.000239595
0.00023814
0.000230921
0.000214968
0.000230479
0.000237023
0.000238236
0.000238372
0.000238381
0.000238381
0.000238382
0.000238381
0.000238379
0.000238377
0.000238364
0.000238222
0.000236997
0.000230466
0.000214966
0.000230924
0.000238144
0.000239599
0.000239769
0.000239712
0.000238983
0.000233819
0.000212099
0.000212093
0.000233808
0.000238967
0.000239692
0.000239758
0.000239767
0.000239775
0.000239759
0.000239509
0.00023815
0.00023504
0.000238018
0.000239226
0.000239386
0.000239388
0.00023938
0.000239379
0.000239378
0.000239378
0.000239376
0.000239375
0.000239375
0.000239354
0.000239152
0.000237981
0.000235029
0.00023815
0.000239512
0.000239764
0.000239779
0.000239709
0.000238981
0.000233818
0.000212098
0.000212092
0.000233808
0.000238967
0.00023969
0.000239756
0.000239764
0.000239772
0.000239782
0.000239767
0.000239611
0.000239218
0.000239581
0.000239657
0.000239523
0.000239479
0.000239465
0.000239461
0.00023946
0.000239459
0.000239459
0.00023946
0.000239464
0.000239474
0.000239497
0.000239495
0.000239189
0.000239607
0.00023977
0.000239787
0.000239776
0.000239706
0.000238979
0.000233817
0.000212097
0.000212092
0.000233807
0.000238964
0.000239687
0.000239753
0.00023976
0.000239767
0.000239776
0.000239786
0.000239785
0.000239754
0.000239773
0.000239708
0.000239561
0.000239516
0.000239505
0.000239503
0.000239502
0.000239502
0.000239501
0.000239501
0.000239503
0.000239513
0.000239556
0.000239688
0.000239726
0.000239781
0.000239789
0.000239781
0.00023977
0.000239702
0.000238976
0.000233815
0.000212097
0.000212091
0.000233769
0.000238905
0.000239624
0.000239689
0.000239696
0.000239702
0.00023971
0.00023972
0.00023973
0.000239736
0.000239736
0.000239706
0.000239637
0.000239612
0.000239606
0.000239606
0.000239607
0.000239607
0.000239606
0.000239604
0.000239603
0.000239608
0.000239631
0.000239698
0.000239725
0.000239731
0.000239724
0.000239715
0.000239706
0.000239638
0.000238916
0.000233777
0.000212095
0.000212065
0.000233284
0.000238225
0.000238907
0.000238968
0.000238974
0.000238979
0.000238986
0.000238994
0.000239003
0.000239011
0.000239015
0.00023901
0.00023899
0.000238984
0.000238983
0.000238984
0.000238986
0.000238986
0.000238985
0.000238983
0.000238981
0.00023898
0.000238986
0.000239005
0.00023901
0.000239006
0.000238999
0.000238991
0.000238983
0.000238919
0.000238235
0.000233292
0.000212069
0.000211785
0.000229484
0.000233286
0.000233772
0.000233812
0.000233816
0.00023382
0.000233825
0.000233831
0.000233838
0.000233844
0.000233847
0.000233848
0.000233843
0.000233841
0.000233841
0.000233841
0.000233841
0.000233841
0.000233841
0.00023384
0.00023384
0.00023384
0.000233841
0.000233846
0.000233845
0.000233841
0.000233835
0.00023383
0.000233824
0.000233782
0.000233294
0.00022949
0.000211789
0.000210407
0.000211786
0.000212066
0.000212093
0.000212096
0.000212098
0.0002121
0.000212104
0.000212108
0.000212112
0.000212115
0.000212119
0.000212121
0.000212121
0.00021212
0.000212119
0.000212117
0.000212116
0.000212115
0.000212116
0.000212117
0.000212118
0.000212119
0.00021212
0.000212119
0.000212117
0.000212113
0.000212109
0.000212106
0.000212102
0.000212099
0.000212071
0.000211789
0.00021041
0.000319611
0.0003309
0.000333651
0.000334014
0.000334042
0.000334043
0.000334043
0.000334043
0.000334044
0.000334044
0.000334045
0.000334045
0.000334045
0.000334045
0.000334045
0.000334045
0.000334045
0.000334045
0.000334045
0.000334045
0.000334045
0.000334045
0.000334045
0.000334045
0.000334045
0.000334044
0.000334044
0.000334044
0.000334044
0.000334043
0.000334015
0.000333652
0.0003309
0.000319612
0.0003309
0.000832708
0.00091607
0.000927085
0.000928147
0.000928207
0.000928202
0.000928197
0.000928191
0.000928185
0.000928177
0.000928168
0.000928158
0.00092815
0.000928142
0.000928136
0.000928132
0.00092813
0.00092813
0.000928132
0.000928136
0.000928142
0.000928149
0.000928158
0.000928166
0.000928176
0.000928183
0.00092819
0.000928196
0.000928137
0.000927075
0.000916061
0.0008327
0.000330901
0.000333652
0.000916082
0.00102522
0.00104101
0.00104268
0.00104279
0.00104279
0.00104279
0.00104279
0.0010428
0.0010428
0.0010428
0.0010428
0.0010428
0.0010428
0.0010428
0.0010428
0.0010428
0.0010428
0.0010428
0.0010428
0.0010428
0.0010428
0.0010428
0.0010428
0.0010428
0.0010428
0.0010428
0.0010428
0.00104268
0.00104101
0.00102523
0.000916083
0.000333654
0.000334016
0.000927101
0.00104102
0.00105781
0.00105961
0.00105974
0.00105974
0.00105974
0.00105975
0.00105975
0.00105976
0.00105977
0.00105977
0.00105978
0.00105979
0.00105979
0.00105979
0.00105979
0.00105979
0.00105979
0.00105979
0.00105979
0.00105978
0.00105978
0.00105977
0.00105976
0.00105976
0.00105975
0.00105975
0.00105962
0.00105782
0.00104102
0.000927103
0.000334018
0.000334044
0.000928163
0.00104268
0.00105961
0.00106143
0.00106155
0.00106156
0.00106157
0.00106157
0.00106158
0.00106159
0.0010616
0.00106161
0.00106162
0.00106163
0.00106164
0.00106164
0.00106165
0.00106165
0.00106164
0.00106164
0.00106163
0.00106163
0.00106162
0.00106161
0.00106159
0.00106159
0.00106158
0.00106157
0.00106144
0.00105962
0.00104269
0.000928166
0.000334047
0.000334045
0.000928222
0.0010428
0.00105974
0.00106155
0.00106168
0.00106169
0.0010617
0.00106171
0.00106169
0.00106163
0.00106171
0.00106175
0.00106176
0.00106177
0.00106178
0.00106179
0.00106179
0.00106179
0.00106179
0.00106178
0.00106177
0.00106176
0.00106175
0.00106171
0.00106163
0.00106169
0.00106171
0.0010617
0.00106157
0.00105975
0.0010428
0.000928224
0.000334049
0.000334046
0.000928216
0.0010428
0.00105974
0.00106156
0.00106169
0.0010617
0.00106171
0.00106164
0.00106123
0.00106032
0.00106116
0.00106153
0.00106161
0.00106163
0.00106163
0.00106163
0.00106163
0.00106163
0.00106163
0.00106163
0.00106163
0.00106161
0.00106153
0.00106116
0.00106033
0.00106124
0.00106165
0.00106171
0.00106158
0.00105975
0.00104281
0.000928216
0.00033405
0.000334046
0.000928209
0.00104279
0.00105974
0.00106156
0.00106169
0.0010617
0.00106162
0.00106074
0.00105653
0.00104752
0.00105578
0.00105942
0.00106015
0.00106027
0.00106025
0.00106023
0.00106023
0.00106023
0.00106023
0.00106025
0.00106027
0.00106015
0.00105943
0.00105579
0.00104753
0.00105653
0.00106075
0.00106162
0.00106158
0.00105976
0.00104281
0.000928206
0.000334051
0.000334047
0.0009282
0.00104279
0.00105974
0.00106157
0.0010617
0.00106164
0.00106074
0.00105409
0.00102325
0.000950205
0.00101954
0.00104668
0.00105209
0.00105285
0.00105282
0.00105277
0.00105276
0.00105276
0.00105277
0.00105282
0.00105285
0.00105209
0.00104669
0.00101955
0.000950207
0.00102325
0.0010541
0.00106075
0.00106152
0.00105976
0.00104281
0.000928194
0.000334052
0.000334047
0.00092819
0.00104279
0.00105975
0.00106157
0.00106168
0.00106122
0.00105654
0.00102331
0.000857051
0.000354702
0.000847015
0.000996773
0.00102378
0.0010272
0.0010275
0.00102751
0.0010275
0.0010275
0.00102751
0.0010275
0.00102721
0.00102379
0.000996781
0.000847037
0.0003547
0.000857054
0.00102332
0.00105654
0.0010611
0.00105974
0.0010428
0.000928178
0.000334053
0.000334047
0.000928179
0.00104279
0.00105975
0.00106157
0.00106161
0.00106032
0.00104766
0.000950767
0.000355029
0.00035212
0.000898233
0.000977589
0.000986749
0.000987507
0.000987517
0.000987504
0.000987504
0.000987517
0.000987507
0.00098675
0.000977593
0.000898252
0.000352124
0.000355031
0.000950773
0.00104767
0.00106021
0.00105967
0.0010428
0.000928158
0.000334053
0.000334047
0.000928167
0.00104279
0.00105975
0.00106158
0.00106169
0.00106124
0.00105653
0.00102312
0.000855956
0.000354703
0.000844457
0.000994278
0.00102108
0.00102433
0.00102428
0.00102409
0.00102401
0.00102401
0.00102408
0.00102428
0.00102433
0.00102108
0.000994274
0.00084445
0.000354697
0.000855931
0.00102312
0.00105653
0.00106112
0.00105975
0.0010428
0.000928132
0.000334053
0.000334047
0.000928156
0.00104279
0.00105976
0.00106159
0.00106173
0.00106167
0.00106077
0.00105404
0.00102282
0.000949078
0.00101658
0.00104026
0.00104432
0.00104454
0.00104425
0.00104407
0.001044
0.001044
0.00104407
0.00104425
0.00104454
0.00104432
0.00104025
0.00101656
0.000949059
0.00102281
0.00105404
0.00106078
0.00106156
0.00105979
0.0010428
0.000928111
0.000334052
0.000334046
0.000928146
0.00104279
0.00105976
0.00106159
0.00106174
0.00106176
0.00106168
0.00106077
0.00105634
0.0010465
0.00105233
0.00105108
0.00105
0.00104949
0.00104923
0.0010491
0.00104906
0.00104905
0.0010491
0.00104923
0.00104949
0.00105
0.00105108
0.00105233
0.0010465
0.00105633
0.00106078
0.00106169
0.00106164
0.0010598
0.00104279
0.000928093
0.000334051
0.000334046
0.000928138
0.00104279
0.00105976
0.0010616
0.00106174
0.00106177
0.00106179
0.00106171
0.0010611
0.00105934
0.00105756
0.00105275
0.00105092
0.00105032
0.00105009
0.00105
0.00104996
0.00104996
0.00105
0.00105009
0.00105031
0.00105092
0.00105274
0.00105756
0.00105934
0.00106111
0.00106172
0.0010618
0.00106165
0.0010598
0.00104279
0.00092808
0.00033405
0.000334045
0.000928132
0.00104279
0.00105976
0.0010616
0.00106175
0.00106177
0.0010618
0.0010618
0.0010616
0.00106068
0.00105812
0.00105295
0.00105106
0.00105046
0.00105025
0.00105017
0.00105014
0.00105014
0.00105017
0.00105025
0.00105046
0.00105106
0.00105295
0.00105811
0.00106068
0.0010616
0.0010618
0.00106181
0.00106166
0.0010598
0.00104279
0.00092807
0.000334049
0.000334044
0.000928127
0.00104279
0.00105977
0.0010616
0.00106175
0.00106178
0.0010618
0.0010618
0.00106163
0.00106079
0.00105817
0.00105299
0.00105111
0.0010505
0.0010503
0.00105022
0.0010502
0.0010502
0.00105022
0.0010503
0.0010505
0.0010511
0.00105299
0.00105816
0.00106079
0.00106164
0.00106181
0.00106181
0.00106166
0.00105981
0.00104279
0.000928064
0.000334048
0.000334044
0.000928125
0.00104279
0.00105977
0.0010616
0.00106175
0.00106178
0.00106181
0.00106181
0.00106164
0.0010608
0.00105817
0.00105301
0.00105112
0.00105052
0.00105033
0.00105025
0.00105022
0.00105022
0.00105025
0.00105033
0.00105052
0.00105112
0.00105301
0.00105817
0.0010608
0.00106164
0.00106181
0.00106182
0.00106166
0.00105981
0.00104279
0.000928061
0.000334047
0.000334043
0.000928125
0.00104279
0.00105977
0.00106161
0.00106175
0.00106178
0.00106181
0.00106181
0.00106164
0.0010608
0.00105817
0.00105301
0.00105113
0.00105053
0.00105033
0.00105025
0.00105022
0.00105022
0.00105025
0.00105033
0.00105053
0.00105113
0.00105301
0.00105817
0.0010608
0.00106164
0.00106181
0.00106182
0.00106166
0.00105981
0.00104279
0.00092806
0.000334047
0.000334044
0.000928126
0.00104279
0.00105977
0.00106161
0.00106175
0.00106178
0.00106181
0.00106181
0.00106164
0.00106079
0.00105817
0.00105301
0.00105112
0.00105051
0.00105031
0.00105023
0.00105021
0.00105021
0.00105023
0.00105031
0.00105051
0.00105111
0.001053
0.00105817
0.00106079
0.00106164
0.00106181
0.00106182
0.00106166
0.00105981
0.00104279
0.000928062
0.000334047
0.000334044
0.000928129
0.00104279
0.00105977
0.0010616
0.00106175
0.00106178
0.00106181
0.0010618
0.0010616
0.00106069
0.00105813
0.00105298
0.00105108
0.00105048
0.00105027
0.00105019
0.00105016
0.00105016
0.00105019
0.00105027
0.00105048
0.00105108
0.00105297
0.00105813
0.00106069
0.00106161
0.00106181
0.00106182
0.00106166
0.00105981
0.00104279
0.000928066
0.000334047
0.000334044
0.000928134
0.00104279
0.00105977
0.0010616
0.00106175
0.00106178
0.0010618
0.00106172
0.00106112
0.00105936
0.00105758
0.00105279
0.00105096
0.00105035
0.00105013
0.00105004
0.00105
0.00105
0.00105004
0.00105013
0.00105035
0.00105096
0.00105279
0.00105758
0.00105936
0.00106112
0.00106173
0.00106181
0.00106166
0.00105981
0.0010428
0.000928074
0.000334048
0.000334045
0.000928141
0.00104279
0.00105976
0.0010616
0.00106174
0.00106177
0.00106169
0.00106079
0.00105637
0.00104656
0.00105238
0.00105115
0.00105007
0.00104956
0.0010493
0.00104918
0.00104913
0.00104913
0.00104918
0.00104931
0.00104956
0.00105007
0.00105115
0.00105238
0.00104656
0.00105637
0.0010608
0.0010617
0.00106165
0.00105981
0.0010428
0.000928085
0.000334049
0.000334045
0.00092815
0.00104279
0.00105976
0.0010616
0.00106174
0.00106169
0.00106079
0.00105407
0.00102289
0.000949251
0.00101669
0.00104036
0.00104443
0.00104466
0.00104438
0.0010442
0.00104413
0.00104413
0.0010442
0.00104438
0.00104467
0.00104444
0.00104037
0.00101671
0.000949265
0.0010229
0.00105408
0.0010608
0.00106157
0.0010598
0.0010428
0.000928101
0.00033405
0.000334046
0.00092816
0.00104279
0.00105976
0.00106159
0.0010617
0.00106125
0.00105655
0.00102316
0.000856097
0.000354741
0.000844612
0.00099437
0.0010212
0.00102447
0.00102443
0.00102424
0.00102417
0.00102417
0.00102425
0.00102444
0.00102448
0.00102122
0.00099439
0.000844671
0.00035474
0.000856118
0.00102318
0.00105656
0.00106114
0.00105977
0.0010428
0.000928119
0.000334051
0.000334046
0.000928171
0.00104279
0.00105976
0.00106158
0.00106162
0.00106034
0.00104768
0.000950786
0.00035502
0.000352074
0.000897972
0.000977448
0.000986621
0.000987371
0.000987375
0.000987359
0.000987358
0.000987373
0.000987366
0.000986609
0.000977428
0.00089794
0.000352059
0.000355016
0.000950795
0.0010477
0.00106023
0.00105969
0.0010428
0.000928142
0.000334051
0.000334046
0.000928181
0.0010428
0.00105976
0.00106158
0.00106169
0.00106124
0.00105656
0.00102334
0.000857089
0.000354738
0.000846595
0.000996423
0.00102328
0.00102661
0.00102689
0.0010269
0.00102689
0.00102689
0.00102689
0.00102689
0.00102658
0.00102319
0.000996177
0.000846449
0.00035473
0.000857088
0.00102335
0.00105657
0.00106113
0.00105976
0.00104281
0.000928157
0.000334051
0.000334046
0.00092819
0.0010428
0.00105976
0.00106158
0.00106172
0.00106166
0.00106077
0.00105413
0.00102328
0.00095019
0.00101918
0.00104564
0.00104971
0.00104995
0.00104984
0.0010498
0.00104978
0.00104978
0.00104979
0.00104982
0.00104983
0.00104924
0.0010443
0.00101846
0.000949975
0.00102323
0.00105413
0.00106078
0.00106155
0.00105979
0.00104281
0.000928171
0.00033405
0.000334046
0.000928198
0.0010428
0.00105975
0.00106158
0.00106172
0.00106173
0.00106165
0.00106078
0.00105654
0.0010474
0.00105505
0.0010568
0.00105388
0.00105281
0.00105253
0.00105247
0.00105246
0.00105245
0.00105245
0.00105247
0.00105253
0.00105269
0.00105314
0.00105316
0.00104681
0.00105641
0.00106076
0.00106165
0.00106162
0.00105978
0.00104281
0.000928182
0.00033405
0.000334045
0.000928141
0.00104269
0.00105963
0.00106145
0.00106159
0.0010616
0.00106161
0.00106155
0.00106112
0.00106007
0.00106029
0.00105871
0.00105502
0.00105384
0.00105356
0.00105351
0.0010535
0.0010535
0.00105349
0.0010535
0.00105355
0.00105381
0.00105494
0.00105834
0.00105946
0.00106098
0.00106154
0.00106162
0.00106149
0.00105966
0.0010427
0.000928127
0.000334049
0.000334017
0.00092708
0.00104102
0.00105783
0.00105963
0.00105976
0.00105978
0.00105979
0.0010598
0.00105978
0.00105964
0.00105943
0.00105858
0.00105699
0.00105644
0.00105631
0.00105628
0.00105628
0.00105628
0.00105628
0.00105628
0.0010563
0.00105643
0.00105698
0.00105855
0.00105935
0.00105971
0.0010598
0.0010598
0.00105966
0.00105785
0.00104103
0.000927068
0.00033402
0.000333653
0.000916063
0.00102523
0.00104103
0.0010427
0.00104282
0.00104282
0.00104283
0.00104283
0.00104284
0.00104281
0.00104272
0.00104245
0.00104198
0.00104179
0.00104173
0.00104172
0.00104172
0.00104171
0.00104172
0.00104172
0.00104173
0.00104179
0.00104198
0.00104245
0.00104271
0.00104281
0.00104284
0.00104284
0.00104272
0.00104104
0.00102524
0.00091605
0.000333656
0.000330901
0.000832693
0.000916074
0.000927095
0.000928159
0.000928219
0.000928214
0.000928206
0.000928194
0.000928172
0.000928135
0.000928066
0.000927954
0.000927794
0.000927699
0.000927646
0.000927616
0.000927602
0.000927599
0.000927607
0.000927626
0.00092766
0.000927717
0.000927814
0.000927976
0.000928089
0.000928152
0.000928186
0.000928205
0.000928151
0.00092709
0.000916066
0.000832675
0.000330903
0.000319613
0.000330901
0.000333655
0.000334019
0.000334049
0.000334051
0.000334053
0.000334056
0.000334059
0.000334063
0.000334065
0.000334066
0.000334065
0.000334061
0.000334058
0.000334055
0.000334052
0.000334051
0.00033405
0.000334051
0.000334053
0.000334055
0.000334057
0.000334061
0.000334065
0.000334065
0.000334064
0.000334061
0.000334058
0.000334054
0.000334024
0.000333658
0.000330904
0.000319615
0.000326847
0.000342264
0.000346441
0.000347066
0.000347124
0.000347127
0.000347126
0.000347127
0.000347127
0.000347127
0.000347127
0.000347127
0.000347127
0.000347127
0.000347127
0.000347127
0.000347127
0.000347127
0.000347127
0.000347127
0.000347127
0.000347127
0.000347127
0.000347127
0.000347127
0.000347127
0.000347127
0.000347127
0.000347127
0.000347124
0.000347066
0.000346442
0.000342265
0.000326848
0.000342264
0.000986774
0.00111147
0.00113009
0.00113216
0.00113231
0.00113231
0.0011323
0.00113229
0.00113228
0.00113226
0.00113225
0.00113223
0.00113222
0.00113221
0.0011322
0.00113219
0.00113218
0.00113218
0.00113219
0.00113219
0.0011322
0.00113222
0.00113223
0.00113224
0.00113226
0.00113227
0.00113228
0.00113229
0.00113214
0.00113008
0.00111145
0.000986759
0.000342265
0.000346442
0.00111149
0.00128093
0.0013088
0.00131219
0.00131248
0.00131249
0.00131249
0.00131248
0.00131248
0.00131248
0.00131247
0.00131247
0.00131247
0.00131246
0.00131246
0.00131246
0.00131246
0.00131246
0.00131246
0.00131246
0.00131246
0.00131247
0.00131247
0.00131247
0.00131248
0.00131248
0.00131248
0.00131247
0.00131218
0.0013088
0.00128093
0.00111148
0.000346443
0.000347067
0.00113012
0.00130881
0.00133887
0.00134259
0.00134292
0.00134294
0.00134294
0.00134294
0.00134294
0.00134295
0.00134295
0.00134295
0.00134296
0.00134296
0.00134296
0.00134296
0.00134296
0.00134296
0.00134296
0.00134296
0.00134296
0.00134296
0.00134295
0.00134295
0.00134295
0.00134294
0.00134294
0.00134293
0.0013426
0.00133887
0.00130881
0.00113012
0.000347069
0.000347126
0.00113218
0.0013122
0.0013426
0.00134637
0.0013467
0.00134672
0.00134672
0.00134673
0.00134673
0.00134672
0.00134674
0.00134675
0.00134675
0.00134676
0.00134676
0.00134676
0.00134676
0.00134676
0.00134676
0.00134676
0.00134676
0.00134675
0.00134675
0.00134674
0.00134673
0.00134673
0.00134673
0.00134671
0.00134638
0.0013426
0.0013122
0.00113218
0.000347129
0.000347129
0.00113233
0.00131249
0.00134292
0.0013467
0.00134704
0.00134706
0.00134706
0.00134705
0.00134698
0.00134682
0.00134693
0.00134698
0.00134699
0.001347
0.001347
0.001347
0.001347
0.001347
0.001347
0.001347
0.001347
0.00134699
0.00134698
0.00134693
0.00134682
0.00134698
0.00134706
0.00134705
0.00134672
0.00134293
0.00131249
0.00113233
0.000347132
0.000347129
0.00113233
0.0013125
0.00134294
0.00134672
0.00134706
0.00134708
0.00134706
0.00134686
0.00134592
0.00134411
0.00134537
0.00134595
0.00134607
0.00134613
0.00134608
0.00134605
0.00134604
0.00134604
0.00134605
0.00134608
0.00134613
0.00134607
0.00134595
0.00134538
0.00134411
0.00134593
0.00134687
0.00134705
0.00134674