/*--------------------------------*- C++ -*----------------------------------*\
| =========                 |                                                 |
| \\      /  F ield         | OpenFOAM: The Open Source CFD Toolbox           |
|  \\    /   O peration     | Version:  2112                                  |
|   \\  /    A nd           | Website:  www.openfoam.com                      |
|    \\/     M anipulation  |                                                 |
\*---------------------------------------------------------------------------*/
FoamFile
{
    version     2.0;
    format      ascii;
    arch        "LSB;label=32;scalar=64";
    class       volScalarField;
    location    "0.5";
    object      p;
}
// * * * * * * * * * * * * * * * * * * * * * * * * * * * * * * * * * * * * * //

dimensions      [0 2 -2 0 0 0 0];

internalField   nonuniform List<scalar> 
64906
(
-1.92829e-05
-1.92869e-05
-1.9343e-05
-1.94597e-05
-1.96351e-05
-1.98655e-05
-2.01478e-05
-2.04788e-05
-2.08534e-05
-2.12651e-05
-2.16993e-05
-2.21431e-05
-2.257e-05
-2.2964e-05
-2.33061e-05
-2.35852e-05
-2.37916e-05
-2.39198e-05
-2.39671e-05
-2.39339e-05
-2.38235e-05
-2.36418e-05
-2.3399e-05
-2.31068e-05
-2.27842e-05
-2.24472e-05
-2.21223e-05
-2.18222e-05
-2.15616e-05
-2.13472e-05
-2.11853e-05
-2.10806e-05
-2.10357e-05
-2.10379e-05
-1.92695e-05
-1.91724e-05
-1.9174e-05
-1.92598e-05
-1.94128e-05
-1.96217e-05
-1.98803e-05
-2.01855e-05
-2.05316e-05
-2.09137e-05
-2.13155e-05
-2.17268e-05
-2.21185e-05
-2.24788e-05
-2.27894e-05
-2.30426e-05
-2.323e-05
-2.33479e-05
-2.33942e-05
-2.33693e-05
-2.32758e-05
-2.31179e-05
-2.29047e-05
-2.26441e-05
-2.23547e-05
-2.2048e-05
-2.17534e-05
-2.14806e-05
-2.12463e-05
-2.10571e-05
-2.09233e-05
-2.08593e-05
-2.08861e-05
-2.1025e-05
-1.93721e-05
-1.92214e-05
-1.91913e-05
-1.92619e-05
-1.94112e-05
-1.9623e-05
-1.98898e-05
-2.02098e-05
-2.05787e-05
-2.09956e-05
-2.14393e-05
-2.19034e-05
-2.23384e-05
-2.27357e-05
-2.30716e-05
-2.33429e-05
-2.3541e-05
-2.36642e-05
-2.37105e-05
-2.36803e-05
-2.35761e-05
-2.34003e-05
-2.31621e-05
-2.28651e-05
-2.25334e-05
-2.21753e-05
-2.18408e-05
-2.15355e-05
-2.12818e-05
-2.10831e-05
-2.09519e-05
-2.09074e-05
-2.0976e-05
-2.11882e-05
-1.95919e-05
-1.94148e-05
-1.93716e-05
-1.94444e-05
-1.96086e-05
-1.98461e-05
-2.01498e-05
-2.05221e-05
-2.09624e-05
-2.14796e-05
-2.20444e-05
-2.26575e-05
-2.32193e-05
-2.37257e-05
-2.41422e-05
-2.44737e-05
-2.47107e-05
-2.48538e-05
-2.4901e-05
-2.48528e-05
-2.47118e-05
-2.4478e-05
-2.41617e-05
-2.37585e-05
-2.33039e-05
-2.28014e-05
-2.2352e-05
-2.1953e-05
-2.16355e-05
-2.13942e-05
-2.12401e-05
-2.11921e-05
-2.1279e-05
-2.1527e-05
-1.9925e-05
-1.97295e-05
-1.96844e-05
-1.97726e-05
-1.99674e-05
-2.02494e-05
-2.06135e-05
-2.10696e-05
-2.16259e-05
-2.23132e-05
-2.30923e-05
-2.39853e-05
-2.47743e-05
-2.54703e-05
-2.6023e-05
-2.64569e-05
-2.67602e-05
-2.69375e-05
-2.69866e-05
-2.69078e-05
-2.67043e-05
-2.63719e-05
-2.59237e-05
-2.53357e-05
-2.466e-05
-2.38845e-05
-2.3231e-05
-2.26722e-05
-2.22499e-05
-2.19376e-05
-2.174e-05
-2.16721e-05
-2.17641e-05
-2.20387e-05
-2.03617e-05
-2.01465e-05
-2.01047e-05
-2.02185e-05
-2.04572e-05
-2.07999e-05
-2.12433e-05
-2.18083e-05
-2.25203e-05
-2.34557e-05
-2.45752e-05
-2.59683e-05
-2.71279e-05
-2.81177e-05
-2.8872e-05
-2.9459e-05
-2.98618e-05
-3.00911e-05
-3.01431e-05
-3.00179e-05
-2.97203e-05
-2.92401e-05
-2.85959e-05
-2.77199e-05
-2.66812e-05
-2.54139e-05
-2.44355e-05
-2.36418e-05
-2.30781e-05
-2.26721e-05
-2.24149e-05
-2.23157e-05
-2.24077e-05
-2.27135e-05
-2.08921e-05
-2.06531e-05
-2.06183e-05
-2.07673e-05
-2.10642e-05
-2.14837e-05
-2.20236e-05
-2.27166e-05
-2.36165e-05
-2.48914e-05
-2.65204e-05
-2.88577e-05
-3.06116e-05
-3.20373e-05
-3.30757e-05
-3.38829e-05
-3.443e-05
-3.47358e-05
-3.47919e-05
-3.45984e-05
-3.41643e-05
-3.34712e-05
-3.25495e-05
-3.12436e-05
-2.96185e-05
-2.7414e-05
-2.59508e-05
-2.48341e-05
-2.40982e-05
-2.35806e-05
-2.32494e-05
-2.31084e-05
-2.31974e-05
-2.35426e-05
-2.15058e-05
-2.12388e-05
-2.12159e-05
-2.1413e-05
-2.17873e-05
-2.23064e-05
-2.29643e-05
-2.37958e-05
-2.48887e-05
-2.6532e-05
-2.88254e-05
-3.30333e-05
-3.5683e-05
-3.77339e-05
-3.91798e-05
-4.03129e-05
-4.10784e-05
-4.15012e-05
-4.15635e-05
-4.12652e-05
-4.06242e-05
-3.96152e-05
-3.82942e-05
-3.63678e-05
-3.38525e-05
-2.97747e-05
-2.7695e-05
-2.62266e-05
-2.53129e-05
-2.46723e-05
-2.42469e-05
-2.4047e-05
-2.4126e-05
-2.45182e-05
-2.2189e-05
-2.18901e-05
-2.18852e-05
-2.21464e-05
-2.26242e-05
-2.32774e-05
-2.40911e-05
-2.50835e-05
-2.634e-05
-2.83842e-05
-3.11863e-05
-3.94044e-05
-4.31223e-05
-4.5961e-05
-4.79601e-05
-4.95344e-05
-5.06054e-05
-5.11934e-05
-5.1265e-05
-5.08198e-05
-4.98908e-05
-4.84556e-05
-4.65926e-05
-4.38805e-05
-4.02994e-05
-3.21758e-05
-2.96992e-05
-2.78332e-05
-2.67646e-05
-2.59734e-05
-2.54141e-05
-2.51248e-05
-2.518e-05
-2.56263e-05
-2.29257e-05
-2.25928e-05
-2.26161e-05
-2.29662e-05
-2.35925e-05
-2.4452e-05
-2.55294e-05
-2.67711e-05
-2.82624e-05
-3.05799e-05
-2.91143e-05
-4.7865e-05
-5.25663e-05
-5.64861e-05
-5.93468e-05
-6.15984e-05
-6.31344e-05
-6.39631e-05
-6.40476e-05
-6.33874e-05
-6.20185e-05
-5.99293e-05
-5.72227e-05
-5.34346e-05
-4.88807e-05
-3.00114e-05
-3.20983e-05
-2.99429e-05
-2.86413e-05
-2.76032e-05
-2.67987e-05
-2.6351e-05
-2.63496e-05
-2.68505e-05
-2.3691e-05
-2.33212e-05
-2.33784e-05
-2.38341e-05
-2.46442e-05
-2.57817e-05
-2.72489e-05
-2.89497e-05
-3.06164e-05
-2.87141e-05
-6.83077e-05
-6.63357e-05
-6.94608e-05
-7.30035e-05
-7.59232e-05
-7.79695e-05
-7.90501e-05
-7.91509e-05
-7.82713e-05
-7.6425e-05
-7.37002e-05
-7.03415e-05
-6.73577e-05
-6.93212e-05
-3.08673e-05
-3.2648e-05
-3.10594e-05
-2.95328e-05
-2.83473e-05
-2.76684e-05
-2.7584e-05
-2.81446e-05
-2.44613e-05
-2.40558e-05
-2.41571e-05
-2.47442e-05
-2.57987e-05
-2.73614e-05
-2.96153e-05
-3.2879e-05
-3.80745e-05
-4.58138e-05
-6.46824e-05
-6.75303e-05
-7.49221e-05
-8.15897e-05
-8.74979e-05
-9.18711e-05
-9.47594e-05
-9.62185e-05
-9.63358e-05
-9.51117e-05
-9.24605e-05
-8.83272e-05
-8.26671e-05
-7.62582e-05
-6.91695e-05
-6.69245e-05
-4.78921e-05
-4.02381e-05
-3.51623e-05
-3.20873e-05
-3.01362e-05
-2.90828e-05
-2.88603e-05
-2.94717e-05
-2.52e-05
-2.47574e-05
-2.48926e-05
-2.55862e-05
-2.68284e-05
-2.86824e-05
-3.13734e-05
-3.5231e-05
-4.09841e-05
-4.88445e-05
-6.17924e-05
-7.09692e-05
-8.12888e-05
-9.01856e-05
-9.77209e-05
-0.000103091
-0.000106573
-0.000108307
-0.000108438
-0.000106965
-0.000103748
-9.8647e-05
-9.13915e-05
-8.27758e-05
-7.27389e-05
-6.38895e-05
-5.10537e-05
-4.3299e-05
-3.7681e-05
-3.40244e-05
-3.16583e-05
-3.03648e-05
-3.00569e-05
-3.07306e-05
-2.58839e-05
-2.54074e-05
-2.55707e-05
-2.63538e-05
-2.77485e-05
-2.98241e-05
-3.28122e-05
-3.70244e-05
-4.30905e-05
-5.11893e-05
-6.25038e-05
-7.34526e-05
-8.57339e-05
-9.61732e-05
-0.000104834
-0.000110902
-0.000114807
-0.000116736
-0.000116877
-0.000115231
-0.000111613
-0.000105836
-9.74765e-05
-8.73332e-05
-7.53501e-05
-6.46459e-05
-5.34935e-05
-4.55295e-05
-3.96195e-05
-3.5625e-05
-3.29869e-05
-3.15212e-05
-3.11534e-05
-3.18842e-05
-2.64884e-05
-2.5981e-05
-2.61616e-05
-2.70066e-05
-2.85023e-05
-3.07122e-05
-3.38558e-05
-3.82222e-05
-4.43736e-05
-5.25131e-05
-6.34485e-05
-7.51994e-05
-8.85084e-05
-9.97202e-05
-0.000108969
-0.000115412
-0.000119549
-0.000121588
-0.000121738
-0.000119999
-0.000116166
-0.00011003
-0.000101095
-9.01873e-05
-7.71812e-05
-6.5661e-05
-5.49098e-05
-4.69238e-05
-4.09451e-05
-3.68128e-05
-3.40436e-05
-3.24878e-05
-3.20969e-05
-3.28837e-05
-2.69993e-05
-2.64668e-05
-2.66585e-05
-2.75471e-05
-2.91122e-05
-3.141e-05
-3.46483e-05
-3.91034e-05
-4.53039e-05
-5.34876e-05
-6.44018e-05
-7.65697e-05
-9.03952e-05
-0.000102036
-0.000111628
-0.000118293
-0.000122571
-0.000124678
-0.000124836
-0.000123044
-0.000119084
-0.00011274
-0.000103472
-9.2143e-05
-7.8626e-05
-6.66887e-05
-5.59712e-05
-4.79526e-05
-4.19373e-05
-3.77306e-05
-3.4888e-05
-3.32809e-05
-3.28819e-05
-3.37147e-05
-2.74057e-05
-2.68546e-05
-2.7053e-05
-2.79704e-05
-2.95809e-05
-3.1935e-05
-3.5233e-05
-3.97468e-05
-4.59938e-05
-5.42434e-05
-6.52316e-05
-7.76424e-05
-9.17681e-05
-0.000103666
-0.000113471
-0.000120279
-0.000124651
-0.000126807
-0.000126973
-0.000125148
-0.000121107
-0.00011463
-0.00010516
-9.35802e-05
-7.97677e-05
-6.75901e-05
-5.68056e-05
-4.87284e-05
-4.26754e-05
-3.84209e-05
-3.55348e-05
-3.38987e-05
-3.34987e-05
-3.4366e-05
-2.77019e-05
-2.71401e-05
-2.73436e-05
-2.82802e-05
-2.99212e-05
-3.23144e-05
-3.56574e-05
-4.02224e-05
-4.65252e-05
-5.48527e-05
-6.594e-05
-7.85201e-05
-9.28433e-05
-0.000104918
-0.000114872
-0.000121789
-0.000126236
-0.000128432
-0.000128605
-0.000126756
-0.000122655
-0.000116082
-0.000106471
-9.47197e-05
-8.07125e-05
-6.83668e-05
-5.74859e-05
-4.9334e-05
-4.32298e-05
-3.89307e-05
-3.60098e-05
-3.43518e-05
-3.39491e-05
-3.48362e-05
-2.78849e-05
-2.73206e-05
-2.75287e-05
-2.84769e-05
-3.01366e-05
-3.25562e-05
-3.59352e-05
-4.05487e-05
-4.69162e-05
-5.53293e-05
-6.6524e-05
-7.92308e-05
-9.36878e-05
-0.000105887
-0.000115948
-0.00012295
-0.000127457
-0.000129688
-0.000129871
-0.000128004
-0.000123859
-0.000117213
-0.000107503
-9.56318e-05
-8.14909e-05
-6.90164e-05
-5.80266e-05
-4.97883e-05
-4.36199e-05
-3.9274e-05
-3.63209e-05
-3.46433e-05
-3.42332e-05
-3.5125e-05
-2.79544e-05
-2.73958e-05
-2.76079e-05
-2.85601e-05
-3.02265e-05
-3.26595e-05
-3.60645e-05
-4.07229e-05
-4.71639e-05
-5.56721e-05
-6.69873e-05
-7.97877e-05
-9.43198e-05
-0.000106594
-0.000116722
-0.000123785
-0.00012834
-0.000130603
-0.000130796
-0.000128919
-0.000124744
-0.000118051
-0.000108284
-9.63398e-05
-8.21201e-05
-6.95454e-05
-5.84287e-05
-5.00901e-05
-4.38443e-05
-3.94504e-05
-3.64682e-05
-3.47734e-05
-3.43515e-05
-3.52328e-05
-2.79132e-05
-2.73682e-05
-2.75826e-05
-2.85291e-05
-3.01867e-05
-3.26145e-05
-3.60286e-05
-4.07211e-05
-4.72427e-05
-5.58628e-05
-6.73395e-05
-8.01934e-05
-9.47144e-05
-0.000106995
-0.000117132
-0.000124226
-0.000128811
-0.000131099
-0.000131306
-0.000129429
-0.000125247
-0.000118541
-0.000108775
-9.68274e-05
-8.26101e-05
-6.99677e-05
-5.86769e-05
-5.02163e-05
-4.38817e-05
-3.94457e-05
-3.64447e-05
-3.47407e-05
-3.43055e-05
-3.5162e-05
-2.77667e-05
-2.72416e-05
-2.74541e-05
-2.83803e-05
-3.00047e-05
-3.2394e-05
-3.57781e-05
-4.04685e-05
-4.70615e-05
-5.58214e-05
-6.75844e-05
-8.04052e-05
-9.47345e-05
-0.00010687
-0.000116894
-0.00012395
-0.000128526
-0.000130826
-0.00013105
-0.000129196
-0.000125054
-0.000118412
-0.000108773
-9.69732e-05
-8.29305e-05
-7.02925e-05
-5.86953e-05
-5.00799e-05
-4.36613e-05
-3.92148e-05
-3.62273e-05
-3.45367e-05
-3.40952e-05
-3.49159e-05
-2.75257e-05
-2.70266e-05
-2.72317e-05
-2.81204e-05
-2.96812e-05
-3.19856e-05
-3.52759e-05
-3.98882e-05
-4.64992e-05
-5.53861e-05
-6.78246e-05
-8.0439e-05
-9.4122e-05
-0.000105806
-0.000115496
-0.000122382
-0.000126875
-0.000129157
-0.000129405
-0.000127616
-0.000123601
-0.000117169
-0.000107889
-9.65489e-05
-8.31213e-05
-7.06299e-05
-5.83301e-05
-4.95675e-05
-4.31134e-05
-3.8727e-05
-3.58103e-05
-3.4169e-05
-3.37339e-05
-3.45085e-05
-2.72038e-05
-2.67339e-05
-2.69221e-05
-2.7748e-05
-2.91971e-05
-3.13327e-05
-3.43875e-05
-3.87107e-05
-4.50727e-05
-5.38335e-05
-6.81746e-05
-8.01829e-05
-9.23553e-05
-0.000102861
-0.00011171
-0.000118138
-0.000122388
-0.00012459
-0.000124871
-0.00012323
-0.000119525
-0.000113616
-0.00010522
-9.50814e-05
-8.31142e-05
-7.10904e-05
-5.68717e-05
-4.82105e-05
-4.19802e-05
-3.78568e-05
-3.51442e-05
-3.36261e-05
-3.32293e-05
-3.39554e-05
-2.68255e-05
-2.63888e-05
-2.6557e-05
-2.73085e-05
-2.86206e-05
-3.05337e-05
-3.32369e-05
-3.70536e-05
-4.29569e-05
-5.17786e-05
-7.102e-05
-7.91748e-05
-8.92074e-05
-9.79542e-05
-0.000105543
-0.000111304
-0.000115205
-0.000117285
-0.000117611
-0.000116185
-0.000112925
-0.00010779
-0.000100732
-9.24086e-05
-8.24473e-05
-7.39843e-05
-5.49832e-05
-4.62201e-05
-4.04007e-05
-3.67416e-05
-3.43368e-05
-3.29854e-05
-3.26388e-05
-3.33077e-05
-2.64117e-05
-2.6007e-05
-2.61467e-05
-2.68031e-05
-2.79294e-05
-2.95004e-05
-3.15162e-05
-3.38296e-05
-3.59948e-05
-3.3412e-05
-8.77886e-05
-8.55582e-05
-9.05076e-05
-9.60353e-05
-0.000100737
-0.000104099
-0.000105992
-0.000106374
-0.000105254
-0.000102659
-9.87385e-05
-9.38689e-05
-8.95349e-05
-9.18875e-05
-3.68501e-05
-3.94777e-05
-3.73054e-05
-3.50806e-05
-3.33031e-05
-3.22285e-05
-3.19735e-05
-3.25943e-05
-2.59976e-05
-2.56271e-05
-2.57517e-05
-2.63462e-05
-2.73668e-05
-2.8796e-05
-3.06805e-05
-3.30898e-05
-3.64313e-05
-4.15711e-05
-4.65146e-05
-6.63926e-05
-7.43784e-05
-8.16261e-05
-8.74217e-05
-9.2147e-05
-9.54283e-05
-9.73081e-05
-9.77457e-05
-9.67653e-05
-9.44001e-05
-9.06565e-05
-8.56875e-05
-7.9253e-05
-7.12561e-05
-5.18545e-05
-4.59687e-05
-4.0386e-05
-3.67888e-05
-3.43341e-05
-3.26039e-05
-3.15967e-05
-3.13547e-05
-3.19122e-05
-2.5602e-05
-2.52627e-05
-2.53754e-05
-2.5919e-05
-2.68547e-05
-2.81764e-05
-2.99458e-05
-3.23056e-05
-3.55534e-05
-4.03487e-05
-4.77343e-05
-5.94078e-05
-6.71754e-05
-7.43474e-05
-8.00343e-05
-8.4628e-05
-8.77717e-05
-8.95862e-05
-9.00603e-05
-8.92324e-05
-8.71154e-05
-8.36726e-05
-7.89291e-05
-7.27126e-05
-6.48419e-05
-5.31002e-05
-4.49686e-05
-3.97037e-05
-3.61251e-05
-3.36477e-05
-3.19702e-05
-3.10068e-05
-3.07689e-05
-3.12717e-05
-2.52488e-05
-2.49393e-05
-2.50488e-05
-2.55607e-05
-2.6444e-05
-2.7704e-05
-2.94123e-05
-3.17203e-05
-3.48953e-05
-3.93834e-05
-4.56052e-05
-5.40107e-05
-6.14053e-05
-6.86164e-05
-7.43416e-05
-7.89402e-05
-8.20367e-05
-8.38171e-05
-8.43111e-05
-8.35698e-05
-8.15768e-05
-7.82641e-05
-7.35605e-05
-6.74548e-05
-5.9867e-05
-5.12075e-05
-4.42213e-05
-3.91715e-05
-3.56029e-05
-3.31281e-05
-3.14673e-05
-3.05155e-05
-3.02638e-05
-3.07127e-05
-2.49532e-05
-2.46711e-05
-2.4782e-05
-2.52712e-05
-2.6112e-05
-2.73133e-05
-2.89421e-05
-3.11319e-05
-3.40803e-05
-3.8098e-05
-4.33196e-05
-4.99419e-05
-5.6524e-05
-6.31876e-05
-6.85644e-05
-7.28654e-05
-7.57578e-05
-7.74246e-05
-7.79083e-05
-7.72603e-05
-7.54532e-05
-7.24224e-05
-6.80587e-05
-6.2479e-05
-5.57064e-05
-4.87832e-05
-4.28601e-05
-3.83063e-05
-3.49793e-05
-3.26216e-05
-3.10255e-05
-3.01014e-05
-2.98417e-05
-3.02449e-05
-2.47312e-05
-2.44797e-05
-2.46015e-05
-2.50801e-05
-2.58908e-05
-2.70414e-05
-2.85863e-05
-3.06269e-05
-3.32949e-05
-3.67742e-05
-4.11197e-05
-4.64157e-05
-5.19417e-05
-5.76128e-05
-6.23079e-05
-6.60602e-05
-6.86223e-05
-7.01145e-05
-7.05647e-05
-7.00119e-05
-6.84346e-05
-6.5797e-05
-6.20253e-05
-5.72688e-05
-5.16358e-05
-4.60995e-05
-4.12305e-05
-3.73378e-05
-3.43713e-05
-3.22005e-05
-3.0697e-05
-2.98066e-05
-2.95356e-05
-2.98912e-05
-2.45971e-05
-2.43931e-05
-2.45446e-05
-2.50309e-05
-2.58308e-05
-2.69515e-05
-2.84364e-05
-3.03593e-05
-3.2805e-05
-3.58785e-05
-3.95896e-05
-4.39613e-05
-4.85863e-05
-5.33201e-05
-5.73351e-05
-6.05703e-05
-6.28279e-05
-6.41619e-05
-6.45787e-05
-6.41035e-05
-6.27254e-05
-6.04382e-05
-5.72184e-05
-5.32235e-05
-4.85933e-05
-4.40824e-05
-4.00269e-05
-3.66667e-05
-3.40093e-05
-3.20013e-05
-3.05726e-05
-2.96966e-05
-2.93901e-05
-2.96737e-05
-2.45576e-05
-2.44449e-05
-2.46562e-05
-2.51768e-05
-2.59959e-05
-2.71262e-05
-2.8606e-05
-3.04917e-05
-3.28404e-05
-3.571e-05
-3.90864e-05
-4.29427e-05
-4.70032e-05
-5.10941e-05
-5.46497e-05
-5.75492e-05
-5.96195e-05
-6.08587e-05
-6.12543e-05
-6.08189e-05
-5.95526e-05
-5.74735e-05
-5.46052e-05
-5.11069e-05
-4.71435e-05
-4.32448e-05
-3.96632e-05
-3.66034e-05
-3.411e-05
-3.21748e-05
-3.07616e-05
-2.98537e-05
-2.94629e-05
-2.96064e-05
-2.46007e-05
-2.4663e-05
-2.49744e-05
-2.55557e-05
-2.64276e-05
-2.76174e-05
-2.9166e-05
-3.11259e-05
-3.3548e-05
-3.64752e-05
-3.98905e-05
-4.37402e-05
-4.77856e-05
-5.18192e-05
-5.53748e-05
-5.82862e-05
-6.039e-05
-6.16524e-05
-6.20533e-05
-6.15987e-05
-6.02958e-05
-5.81736e-05
-5.5284e-05
-5.17882e-05
-4.78831e-05
-4.4017e-05
-4.04456e-05
-3.73584e-05
-3.48157e-05
-3.28198e-05
-3.13402e-05
-3.03451e-05
-2.98016e-05
-2.96737e-05
-1.93661e-05
-1.94102e-05
-1.94979e-05
-1.96381e-05
-1.98347e-05
-2.00879e-05
-2.03961e-05
-2.07576e-05
-2.11672e-05
-2.16193e-05
-2.20973e-05
-2.25884e-05
-2.3061e-05
-2.34983e-05
-2.38776e-05
-2.41867e-05
-2.44139e-05
-2.45533e-05
-2.46015e-05
-2.4559e-05
-2.44296e-05
-2.42198e-05
-2.39419e-05
-2.36084e-05
-2.32424e-05
-2.28605e-05
-2.24946e-05
-2.21568e-05
-2.18638e-05
-2.16205e-05
-2.14314e-05
-2.12956e-05
-2.12073e-05
-2.11504e-05
-1.93675e-05
-1.93456e-05
-1.93967e-05
-1.95168e-05
-1.96972e-05
-1.99343e-05
-2.02251e-05
-2.05682e-05
-2.09571e-05
-2.13885e-05
-2.18404e-05
-2.23059e-05
-2.2747e-05
-2.31552e-05
-2.35057e-05
-2.37915e-05
-2.40014e-05
-2.41316e-05
-2.41793e-05
-2.41447e-05
-2.40315e-05
-2.38438e-05
-2.35935e-05
-2.3288e-05
-2.29524e-05
-2.25947e-05
-2.22536e-05
-2.1935e-05
-2.16615e-05
-2.14363e-05
-2.12675e-05
-2.11595e-05
-2.11213e-05
-2.11518e-05
-1.94934e-05
-1.94461e-05
-1.94826e-05
-1.95996e-05
-1.97872e-05
-2.00394e-05
-2.03532e-05
-2.07301e-05
-2.11635e-05
-2.16581e-05
-2.21801e-05
-2.27366e-05
-2.32516e-05
-2.37281e-05
-2.41286e-05
-2.44527e-05
-2.46868e-05
-2.48295e-05
-2.48775e-05
-2.48314e-05
-2.46948e-05
-2.44698e-05
-2.41708e-05
-2.37984e-05
-2.33909e-05
-2.29446e-05
-2.25366e-05
-2.21584e-05
-2.18448e-05
-2.15922e-05
-2.14107e-05
-2.13054e-05
-2.12851e-05
-2.13455e-05
-1.97348e-05
-1.96781e-05
-1.97162e-05
-1.98478e-05
-2.00625e-05
-2.03545e-05
-2.07227e-05
-2.11749e-05
-2.17067e-05
-2.23396e-05
-2.30196e-05
-2.37823e-05
-2.44662e-05
-2.50972e-05
-2.56127e-05
-2.60259e-05
-2.63176e-05
-2.64901e-05
-2.65394e-05
-2.6466e-05
-2.62744e-05
-2.59632e-05
-2.55524e-05
-2.50292e-05
-2.44576e-05
-2.38102e-05
-2.32517e-05
-2.27426e-05
-2.23396e-05
-2.20221e-05
-2.17994e-05
-2.16719e-05
-2.16469e-05
-2.17156e-05
-2.00899e-05
-2.00203e-05
-2.00677e-05
-2.02267e-05
-2.0484e-05
-2.08353e-05
-2.12824e-05
-2.18438e-05
-2.25214e-05
-2.33719e-05
-2.43073e-05
-2.54307e-05
-2.63892e-05
-2.72668e-05
-2.79586e-05
-2.8509e-05
-2.88888e-05
-2.91074e-05
-2.91588e-05
-2.90434e-05
-2.87679e-05
-2.83239e-05
-2.77416e-05
-2.69769e-05
-2.61375e-05
-2.51368e-05
-2.43343e-05
-2.36184e-05
-2.30818e-05
-2.26682e-05
-2.23824e-05
-2.22158e-05
-2.2177e-05
-2.22604e-05
-2.05504e-05
-2.0462e-05
-2.05233e-05
-2.07206e-05
-2.10355e-05
-2.14639e-05
-2.20114e-05
-2.27109e-05
-2.35766e-05
-2.4735e-05
-2.60555e-05
-2.78014e-05
-2.91806e-05
-3.0427e-05
-3.13693e-05
-3.2118e-05
-3.26252e-05
-3.29111e-05
-3.29655e-05
-3.27888e-05
-3.23919e-05
-3.17551e-05
-3.09284e-05
-2.98007e-05
-2.85491e-05
-2.69341e-05
-2.57635e-05
-2.47532e-05
-2.40438e-05
-2.35076e-05
-2.31401e-05
-2.2921e-05
-2.28638e-05
-2.29721e-05
-2.11081e-05
-2.09946e-05
-2.1074e-05
-2.1321e-05
-2.17093e-05
-2.22331e-05
-2.29003e-05
-2.37603e-05
-2.48466e-05
-2.64255e-05
-2.83217e-05
-3.12008e-05
-3.32075e-05
-3.49738e-05
-3.62466e-05
-3.72661e-05
-3.79478e-05
-3.83276e-05
-3.83864e-05
-3.81243e-05
-3.7561e-05
-3.66608e-05
-3.55108e-05
-3.3869e-05
-3.19987e-05
-2.92577e-05
-2.75383e-05
-2.61236e-05
-2.52109e-05
-2.4531e-05
-2.40646e-05
-2.37798e-05
-2.37e-05
-2.3844e-05
-2.17532e-05
-2.16087e-05
-2.17127e-05
-2.20251e-05
-2.25089e-05
-2.31531e-05
-2.39626e-05
-2.49854e-05
-2.62692e-05
-2.82369e-05
-3.09396e-05
-3.59404e-05
-3.87506e-05
-4.11993e-05
-4.29079e-05
-4.4305e-05
-4.52368e-05
-4.57528e-05
-4.5818e-05
-4.5432e-05
-4.46304e-05
-4.33625e-05
-4.17853e-05
-3.94654e-05
-3.67964e-05
-3.19326e-05
-2.94559e-05
-2.76686e-05
-2.65763e-05
-2.57499e-05
-2.51635e-05
-2.47926e-05
-2.46803e-05
-2.48705e-05
-2.24719e-05
-2.22893e-05
-2.24242e-05
-2.28184e-05
-2.34227e-05
-2.42165e-05
-2.51943e-05
-2.6369e-05
-2.77147e-05
-3.00022e-05
-3.31013e-05
-4.32395e-05
-4.6606e-05
-4.96137e-05
-5.1753e-05
-5.35514e-05
-5.47682e-05
-5.54465e-05
-5.5521e-05
-5.4991e-05
-5.39214e-05
-5.22667e-05
-5.02695e-05
-4.73903e-05
-4.41668e-05
-3.41196e-05
-3.13784e-05
-2.92742e-05
-2.81306e-05
-2.71624e-05
-2.64271e-05
-2.59429e-05
-2.57862e-05
-2.6037e-05
-2.32486e-05
-2.30239e-05
-2.3203e-05
-2.37098e-05
-2.44884e-05
-2.5516e-05
-2.67917e-05
-2.81779e-05
-2.95996e-05
-3.1887e-05
-2.71597e-05
-5.07515e-05
-5.46247e-05
-5.83959e-05
-6.12249e-05
-6.36019e-05
-6.52217e-05
-6.61111e-05
-6.61977e-05
-6.54804e-05
-6.40317e-05
-6.182e-05
-5.91507e-05
-5.55118e-05
-5.17897e-05
-2.79921e-05
-3.34503e-05
-3.13327e-05
-3.0125e-05
-2.89531e-05
-2.79373e-05
-2.72574e-05
-2.70148e-05
-2.73307e-05
-2.40558e-05
-2.37814e-05
-2.40075e-05
-2.46379e-05
-2.56117e-05
-2.6915e-05
-2.85699e-05
-3.04242e-05
-3.17263e-05
-2.6607e-05
-7.2842e-05
-6.60341e-05
-6.79786e-05
-7.11769e-05
-7.37019e-05
-7.55441e-05
-7.6543e-05
-7.66444e-05
-7.58474e-05
-7.42059e-05
-7.18756e-05
-6.88649e-05
-6.70513e-05
-7.37768e-05
-2.88803e-05
-3.38182e-05
-3.26107e-05
-3.09466e-05
-2.9556e-05
-2.86338e-05
-2.82943e-05
-2.86975e-05
-2.48703e-05
-2.45481e-05
-2.48398e-05
-2.5637e-05
-2.69024e-05
-2.87026e-05
-3.12665e-05
-3.48716e-05
-4.07286e-05
-4.81904e-05
-6.91978e-05
-6.58047e-05
-7.11417e-05
-7.68261e-05
-8.19675e-05
-8.5638e-05
-8.81211e-05
-8.93851e-05
-8.95017e-05
-8.84711e-05
-8.62238e-05
-8.27913e-05
-7.79013e-05
-7.24826e-05
-6.74364e-05
-7.13249e-05
-5.02577e-05
-4.29392e-05
-3.72351e-05
-3.38329e-05
-3.15475e-05
-3.01612e-05
-2.96299e-05
-3.01069e-05
-2.56503e-05
-2.52774e-05
-2.56165e-05
-2.65402e-05
-2.80084e-05
-3.01053e-05
-3.30942e-05
-3.72148e-05
-4.33695e-05
-5.08602e-05
-6.35233e-05
-6.92833e-05
-7.68661e-05
-8.32832e-05
-8.92479e-05
-9.34749e-05
-9.63308e-05
-9.77689e-05
-9.78975e-05
-9.67166e-05
-9.4121e-05
-9.01563e-05
-8.44664e-05
-7.8325e-05
-7.10505e-05
-6.55959e-05
-5.30787e-05
-4.57388e-05
-3.97509e-05
-3.58447e-05
-3.31504e-05
-3.15043e-05
-3.08704e-05
-3.1439e-05
-2.63725e-05
-2.59562e-05
-2.63395e-05
-2.73779e-05
-2.90279e-05
-3.13851e-05
-3.4723e-05
-3.92656e-05
-4.57258e-05
-5.35698e-05
-6.43128e-05
-7.26136e-05
-8.1548e-05
-8.89601e-05
-9.58138e-05
-0.000100596
-0.000103825
-0.000105437
-0.000105576
-0.000104243
-0.000101296
-9.67981e-05
-9.02396e-05
-8.31116e-05
-7.44766e-05
-6.64377e-05
-5.58955e-05
-4.82245e-05
-4.19519e-05
-3.76398e-05
-3.46173e-05
-3.2749e-05
-3.20226e-05
-3.26618e-05
-2.7009e-05
-2.65539e-05
-2.6966e-05
-2.80837e-05
-2.98519e-05
-3.23624e-05
-3.58751e-05
-4.0598e-05
-4.71323e-05
-5.51166e-05
-6.55625e-05
-7.47717e-05
-8.45753e-05
-9.25458e-05
-9.98759e-05
-0.000104958
-0.000108396
-0.000110107
-0.000110255
-0.000108841
-0.000105702
-0.000100918
-9.38963e-05
-8.62159e-05
-7.67192e-05
-6.7761e-05
-5.75404e-05
-4.97468e-05
-4.34173e-05
-3.89411e-05
-3.57653e-05
-3.37796e-05
-3.30106e-05
-3.37163e-05
-2.75455e-05
-2.70606e-05
-2.74941e-05
-2.86705e-05
-3.05244e-05
-3.31432e-05
-3.67749e-05
-4.16221e-05
-4.8228e-05
-5.63295e-05
-6.67585e-05
-7.64533e-05
-8.67443e-05
-9.50989e-05
-0.000102761
-0.000108053
-0.000111635
-0.000113415
-0.000113572
-0.000112104
-0.000108836
-0.000103856
-9.65135e-05
-8.8456e-05
-7.84788e-05
-6.90347e-05
-5.88451e-05
-5.09452e-05
-4.45574e-05
-3.99713e-05
-3.66956e-05
-3.4632e-05
-3.38359e-05
-3.45907e-05
-2.79701e-05
-2.7464e-05
-2.79112e-05
-2.91265e-05
-3.10362e-05
-3.37238e-05
-3.74299e-05
-4.23575e-05
-4.90268e-05
-5.72373e-05
-6.77431e-05
-7.77217e-05
-8.83135e-05
-9.69132e-05
-0.000104788
-0.000110223
-0.000113904
-0.000115734
-0.000115899
-0.000114396
-0.000111043
-0.000105934
-9.83881e-05
-9.0092e-05
-7.98197e-05
-7.0094e-05
-5.98357e-05
-5.18341e-05
-4.53922e-05
-4.07364e-05
-3.74011e-05
-3.52916e-05
-3.44819e-05
-3.5272e-05
-2.8277e-05
-2.77596e-05
-2.82166e-05
-2.94573e-05
-3.14038e-05
-3.41383e-05
-3.78987e-05
-4.28905e-05
-4.9627e-05
-5.79369e-05
-6.85465e-05
-7.87124e-05
-8.95042e-05
-9.82786e-05
-0.000106307
-0.000111852
-0.000115611
-0.000117483
-0.000117656
-0.000116128
-0.000112712
-0.000107504
-9.98148e-05
-9.135e-05
-8.08813e-05
-7.09692e-05
-6.06104e-05
-5.25124e-05
-4.60082e-05
-4.12946e-05
-3.79142e-05
-3.57723e-05
-3.49514e-05
-3.576e-05
-2.84632e-05
-2.79443e-05
-2.84078e-05
-2.96621e-05
-3.1629e-05
-3.43919e-05
-3.81906e-05
-4.32338e-05
-5.00382e-05
-5.84372e-05
-6.91565e-05
-7.94506e-05
-9.03736e-05
-9.92698e-05
-0.000107404
-0.000113033
-0.000116852
-0.00011876
-0.000118942
-0.000117397
-0.000113937
-0.000108658
-0.000100872
-9.22903e-05
-8.16911e-05
-7.16487e-05
-6.11789e-05
-5.29908e-05
-4.64189e-05
-4.16554e-05
-3.82398e-05
-3.60748e-05
-3.52432e-05
-3.60541e-05
-2.85283e-05
-2.8018e-05
-2.84845e-05
-2.97404e-05
-3.17112e-05
-3.44837e-05
-3.83039e-05
-4.33848e-05
-5.02575e-05
-5.87382e-05
-6.95779e-05
-7.99524e-05
-9.09427e-05
-9.99118e-05
-0.000108105
-0.000113793
-0.000117657
-0.000119594
-0.000119787
-0.000118234
-0.000114749
-0.000109427
-0.00010159
-9.29393e-05
-8.22696e-05
-7.21401e-05
-6.15435e-05
-5.3268e-05
-4.66235e-05
-4.18186e-05
-3.8378e-05
-3.61997e-05
-3.53579e-05
-3.61549e-05
-2.84755e-05
-2.79834e-05
-2.8449e-05
-2.96931e-05
-3.16484e-05
-3.44072e-05
-3.82266e-05
-4.33259e-05
-5.02682e-05
-5.88265e-05
-6.98281e-05
-8.0225e-05
-9.11959e-05
-0.000100179
-0.000108378
-0.000114098
-0.000117988
-0.00011995
-0.000120157
-0.000118606
-0.000115118
-0.000109782
-0.000101951
-9.32901e-05
-8.26316e-05
-7.24649e-05
-6.16942e-05
-5.33303e-05
-4.66071e-05
-4.1775e-05
-3.83257e-05
-3.61479e-05
-3.52984e-05
-3.6065e-05
-2.83098e-05
-2.78446e-05
-2.83018e-05
-2.95143e-05
-3.14239e-05
-3.41278e-05
-3.78975e-05
-4.29648e-05
-4.99612e-05
-5.85988e-05
-6.98892e-05
-8.02049e-05
-9.09992e-05
-9.98777e-05
-0.00010797
-0.000113663
-0.00011754
-0.000119512
-0.000119737
-0.000118211
-0.000114767
-0.000109485
-0.000101775
-9.3224e-05
-8.2726e-05
-7.26103e-05
-6.15311e-05
-5.3072e-05
-4.62814e-05
-4.1468e-05
-3.80524e-05
-3.59076e-05
-3.50636e-05
-3.57865e-05
-2.80434e-05
-2.76143e-05
-2.80566e-05
-2.92185e-05
-3.10514e-05
-3.36558e-05
-3.73171e-05
-4.22846e-05
-4.93101e-05
-5.79773e-05
-6.98852e-05
-7.99262e-05
-9.01795e-05
-9.88101e-05
-0.000106669
-0.000112266
-0.000116083
-0.00011805
-0.000118299
-0.000116826
-0.000113485
-0.000108341
-0.000100886
-9.25962e-05
-8.261e-05
-7.27059e-05
-6.09808e-05
-5.24737e-05
-4.56368e-05
-4.09049e-05
-3.75761e-05
-3.55003e-05
-3.46744e-05
-3.53357e-05
-2.769e-05
-2.73016e-05
-2.77148e-05
-2.87924e-05
-3.04875e-05
-3.28868e-05
-3.62615e-05
-4.08686e-05
-4.76321e-05
-5.60489e-05
-7.01511e-05
-7.91378e-05
-8.82805e-05
-9.62134e-05
-0.000103429
-0.000108696
-0.00011231
-0.000114215
-0.000114497
-0.000113153
-0.000110078
-0.000105328
-9.85543e-05
-9.09969e-05
-8.20785e-05
-7.30609e-05
-5.91313e-05
-5.08596e-05
-4.42655e-05
-3.98701e-05
-3.67996e-05
-3.48915e-05
-3.41297e-05
-3.47253e-05
-2.72773e-05
-2.69377e-05
-2.73219e-05
-2.83105e-05
-2.98588e-05
-3.2036e-05
-3.50775e-05
-3.92449e-05
-4.57659e-05
-5.42792e-05
-7.50967e-05
-7.78353e-05
-8.55573e-05
-9.32211e-05
-9.99662e-05
-0.000104991
-0.00010846
-0.000110338
-0.000110662
-0.000109436
-0.000106593
-0.000102189
-9.59499e-05
-8.87413e-05
-8.1115e-05
-7.79111e-05
-5.74877e-05
-4.9101e-05
-4.27172e-05
-3.87251e-05
-3.59484e-05
-3.42164e-05
-3.35126e-05
-3.40179e-05
-2.6826e-05
-2.65321e-05
-2.68699e-05
-2.77312e-05
-2.90479e-05
-3.08104e-05
-3.30424e-05
-3.55339e-05
-3.72254e-05
-3.06672e-05
-9.35023e-05
-8.53446e-05
-8.88455e-05
-9.38718e-05
-9.80818e-05
-0.000101164
-0.000102946
-0.000103322
-0.000102304
-9.9959e-05
-9.65157e-05
-9.20839e-05
-8.92249e-05
-9.74706e-05
-3.40958e-05
-4.07992e-05
-3.91387e-05
-3.67532e-05
-3.47315e-05
-3.33638e-05
-3.28008e-05
-3.32352e-05
-2.6377e-05
-2.61319e-05
-2.64469e-05
-2.72358e-05
-2.84451e-05
-3.00831e-05
-3.22171e-05
-3.48202e-05
-3.81858e-05
-4.32904e-05
-4.53747e-05
-6.9208e-05
-7.60761e-05
-8.30014e-05
-8.84972e-05
-9.32148e-05
-9.64736e-05
-9.83744e-05
-9.8803e-05
-9.77885e-05
-9.53927e-05
-9.16218e-05
-8.67947e-05
-8.06675e-05
-7.38208e-05
-5.08291e-05
-4.77358e-05
-4.22787e-05
-3.86649e-05
-3.60261e-05
-3.4017e-05
-3.27053e-05
-3.21533e-05
-3.24952e-05
-2.59475e-05
-2.57432e-05
-2.60338e-05
-2.67512e-05
-2.78514e-05
-2.93534e-05
-3.13331e-05
-3.39147e-05
-3.73215e-05
-4.23471e-05
-4.99881e-05
-6.31622e-05
-6.99799e-05
-7.66002e-05
-8.17694e-05
-8.62451e-05
-8.9301e-05
-9.11105e-05
-9.15622e-05
-9.06974e-05
-8.85575e-05
-8.51327e-05
-8.05878e-05
-7.48112e-05
-6.80189e-05
-5.52258e-05
-4.6958e-05
-4.15784e-05
-3.78676e-05
-3.51859e-05
-3.3273e-05
-3.20416e-05
-3.1519e-05
-3.17965e-05
-2.5564e-05
-2.53974e-05
-2.56759e-05
-2.63483e-05
-2.73839e-05
-2.88152e-05
-3.07303e-05
-3.32839e-05
-3.67129e-05
-4.15038e-05
-4.79929e-05
-5.68333e-05
-6.35037e-05
-6.99683e-05
-7.49658e-05
-7.93391e-05
-8.2286e-05
-8.40296e-05
-8.44896e-05
-8.37169e-05
-8.1713e-05
-7.8464e-05
-7.39957e-05
-6.84321e-05
-6.18558e-05
-5.33366e-05
-4.62784e-05
-4.10765e-05
-3.72963e-05
-3.45963e-05
-3.27053e-05
-3.14992e-05
-3.09748e-05
-3.11888e-05
-2.52398e-05
-2.51048e-05
-2.53741e-05
-2.60083e-05
-2.69843e-05
-2.83373e-05
-3.0149e-05
-3.25622e-05
-3.57521e-05
-4.00698e-05
-4.54566e-05
-5.23022e-05
-5.83006e-05
-6.41743e-05
-6.88925e-05
-7.29514e-05
-7.56824e-05
-7.73023e-05
-7.77529e-05
-7.70857e-05
-7.52844e-05
-7.23494e-05
-6.82183e-05
-6.31947e-05
-5.72808e-05
-5.06756e-05
-4.47678e-05
-4.00601e-05
-3.65358e-05
-3.39749e-05
-3.21745e-05
-3.10212e-05
-3.0508e-05
-3.06743e-05
-2.49893e-05
-2.48832e-05
-2.51511e-05
-2.57593e-05
-2.66887e-05
-2.79712e-05
-2.96742e-05
-3.19072e-05
-3.47842e-05
-3.85063e-05
-4.2998e-05
-4.84529e-05
-5.36841e-05
-5.89647e-05
-6.32863e-05
-6.69201e-05
-6.94008e-05
-7.08785e-05
-7.13092e-05
-7.07352e-05
-6.91382e-05
-6.65341e-05
-6.28631e-05
-5.84164e-05
-5.32057e-05
-4.78511e-05
-4.29507e-05
-3.89207e-05
-3.57779e-05
-3.34299e-05
-3.17479e-05
-3.06538e-05
-3.01505e-05
-3.02743e-05
-2.48214e-05
-2.47478e-05
-2.5027e-05
-2.56228e-05
-2.65203e-05
-2.77481e-05
-2.93604e-05
-3.14373e-05
-3.40511e-05
-3.73151e-05
-4.11596e-05
-4.56604e-05
-5.01842e-05
-5.47844e-05
-5.86383e-05
-6.18463e-05
-6.40842e-05
-6.54272e-05
-6.58368e-05
-6.53422e-05
-6.3932e-05
-6.16346e-05
-5.84284e-05
-5.45594e-05
-5.00771e-05
-4.56232e-05
-4.14974e-05
-3.80124e-05
-3.5207e-05
-3.30544e-05
-3.14796e-05
-3.0433e-05
-2.99255e-05
-3.00028e-05
-2.47349e-05
-2.47206e-05
-2.50291e-05
-2.56306e-05
-2.652e-05
-2.77266e-05
-2.92961e-05
-3.12889e-05
-3.37547e-05
-3.67537e-05
-4.023e-05
-4.41718e-05
-4.82124e-05
-5.22645e-05
-5.57659e-05
-5.86741e-05
-6.07513e-05
-6.20057e-05
-6.24e-05
-6.19497e-05
-6.0654e-05
-5.85511e-05