/*--------------------------------*- C++ -*----------------------------------*\
| =========                 |                                                 |
| \\      /  F ield         | OpenFOAM: The Open Source CFD Toolbox           |
|  \\    /   O peration     | Version:  2112                                  |
|   \\  /    A nd           | Website:  www.openfoam.com                      |
|    \\/     M anipulation  |                                                 |
\*---------------------------------------------------------------------------*/
FoamFile
{
    version     2.0;
    format      ascii;
    arch        "LSB;label=32;scalar=64";
    class       surfaceScalarField;
    location    "0.5";
    object      phi;
}
// * * * * * * * * * * * * * * * * * * * * * * * * * * * * * * * * * * * * * //

dimensions      [0 3 -1 0 0 0 0];

oriented        oriented;

internalField   nonuniform List<scalar> 
188215
(
1.34085e-09
3.16279e-09
-4.50364e-09
3.08895e-09
3.09312e-09
-4.84122e-09
4.85868e-09
3.12129e-09
-4.89101e-09
6.56535e-09
3.33999e-09
-5.04667e-09
8.19574e-09
3.70895e-09
-5.33934e-09
9.73983e-09
4.20664e-09
-5.75073e-09
1.11789e-08
4.83158e-09
-6.27066e-09
1.24664e-08
5.60328e-09
-6.89073e-09
1.35438e-08
6.52842e-09
-7.60583e-09
1.4274e-08
7.66264e-09
-8.39285e-09
1.45667e-08
8.94458e-09
-9.23726e-09
1.41903e-08
1.04657e-08
-1.00893e-08
1.31867e-08
1.1921e-08
-1.09174e-08
1.15555e-08
1.32989e-08
-1.16677e-08
9.40435e-09
1.4466e-08
-1.23148e-08
6.83251e-09
1.5398e-08
-1.28262e-08
3.97714e-09
1.60416e-08
-1.31862e-08
9.79978e-10
1.63785e-08
-1.33813e-08
-2.00784e-09
1.63942e-08
-1.34064e-08
-4.83536e-09
1.60891e-08
-1.32616e-08
-7.3607e-09
1.54778e-08
-1.29524e-08
-9.44661e-09
1.4579e-08
-1.24931e-08
-1.09944e-08
1.34474e-08
-1.18995e-08
-1.18974e-08
1.2108e-08
-1.1205e-08
-1.2159e-08
1.06973e-08
-1.04356e-08
-1.17387e-08
9.22622e-09
-9.6466e-09
-1.08744e-08
8.00642e-09
-8.87069e-09
-9.65487e-09
6.94136e-09
-8.16089e-09
-8.21842e-09
6.09887e-09
-7.53531e-09
-6.62125e-09
5.42884e-09
-7.02602e-09
-4.90838e-09
4.94274e-09
-6.65561e-09
-3.10668e-09
4.65889e-09
-6.46059e-09
-1.31826e-09
4.62236e-09
-6.41078e-09
4.68431e-09
-6.00257e-09
1.0822e-09
7.13252e-09
-5.05193e-09
3.20189e-09
7.61692e-09
-6.64349e-09
5.29603e-09
8.00243e-09
-6.97528e-09
7.2346e-09
8.65378e-09
-7.25237e-09
9.06079e-09
9.60013e-09
-7.71736e-09
1.07942e-08
1.08399e-08
-8.36669e-09
1.24284e-08
1.23862e-08
-9.18878e-09
1.39215e-08
1.42884e-08
-1.01782e-08
1.52115e-08
1.65719e-08
-1.13335e-08
1.61334e-08
1.93749e-08
-1.26341e-08
1.65693e-08
2.25652e-08
-1.40565e-08
1.61741e-08
2.63935e-08
-1.55325e-08
1.50328e-08
3.00339e-08
-1.69716e-08
1.31582e-08
3.34575e-08
-1.82841e-08
1.06886e-08
3.63474e-08
-1.94118e-08
7.74042e-09
3.8649e-08
-2.03028e-08
4.47119e-09
4.02376e-08
-2.09268e-08
1.04161e-09
4.10697e-08
-2.12617e-08
-2.37793e-09
4.11115e-08
-2.12977e-08
-5.61689e-09
4.03632e-08
-2.10352e-08
-8.51427e-09
3.88596e-08
-2.04845e-08
-1.09123e-08
3.66452e-08
-1.96682e-08
-1.26948e-08
3.38474e-08
-1.86175e-08
-1.37239e-08
3.05226e-08
-1.73856e-08
-1.39908e-08
2.69957e-08
-1.60315e-08
-1.34108e-08
2.32938e-08
-1.46475e-08
-1.23383e-08
2.02598e-08
-1.33259e-08
-1.08865e-08
1.76283e-08
-1.21388e-08
-9.21813e-09
1.55458e-08
-1.11153e-08
-7.38144e-09
1.3881e-08
-1.02888e-08
-5.38444e-09
1.26307e-08
-9.68499e-09
-3.18234e-09
1.1774e-08
-9.31716e-09
-9.36958e-10
1.12596e-08
-8.88263e-09
1.05558e-08
-6.80843e-09
1.1036e-09
1.11656e-08
-5.13667e-09
3.52996e-09
1.21606e-08
-6.97009e-09
5.9604e-09
1.29351e-08
-7.36315e-09
8.20532e-09
1.40781e-08
-7.66924e-09
1.03293e-08
1.56683e-08
-8.19209e-09
1.23757e-08
1.77278e-08
-8.93435e-09
1.43588e-08
2.02907e-08
-9.88762e-09
1.62485e-08
2.34508e-08
-1.1052e-08
1.79907e-08
2.72667e-08
-1.24371e-08
1.93502e-08
3.20384e-08
-1.4023e-08
2.01685e-08
3.75427e-08
-1.57958e-08
1.97445e-08
4.44683e-08
-1.76509e-08
1.83401e-08
5.09084e-08
-1.947e-08
1.59958e-08
5.69219e-08
-2.11201e-08
1.2937e-08
6.19401e-08
-2.25339e-08
9.30338e-09
6.59249e-08
-2.36424e-08
5.29085e-09
6.86651e-08
-2.4415e-08
1.08823e-09
7.0098e-08
-2.48257e-08
-3.1039e-09
7.01674e-08
-2.48637e-08
-7.08468e-09
6.88735e-08
-2.45295e-08
-1.06645e-08
6.62735e-08
-2.38341e-08
-1.36461e-08
6.24312e-08
-2.28044e-08
-1.58895e-08
5.75624e-08
-2.14716e-08
-1.71682e-08
5.17075e-08
-1.99062e-08
-1.74463e-08
4.54501e-08
-1.81763e-08
-1.64603e-08
3.87261e-08
-1.64183e-08
-1.49285e-08
3.34798e-08
-1.47518e-08
-1.29961e-08
2.89833e-08
-1.32873e-08
-1.08923e-08
2.54862e-08
-1.20442e-08
-8.64716e-09
2.26947e-08
-1.10589e-08
-6.24166e-09
2.05759e-08
-1.03507e-08
-3.59891e-09
1.90555e-08
-9.92425e-09
-9.57724e-10
1.80165e-08
-9.39805e-09
1.65961e-08
-6.99801e-09
1.35464e-09
1.50702e-08
-5.25926e-09
4.20463e-09
1.64717e-08
-7.16108e-09
7.0884e-09
1.76156e-08
-7.56419e-09
9.78529e-09
1.92737e-08
-7.89249e-09
1.23757e-08
2.15569e-08
-8.47908e-09
1.49287e-08
2.45041e-08
-9.32928e-09
1.74922e-08
2.81691e-08
-1.04419e-08
2.00696e-08
3.2703e-08
-1.18295e-08
2.26395e-08
3.82188e-08
-1.35221e-08
2.48631e-08
4.53205e-08
-1.55057e-08
2.64985e-08
5.36954e-08
-1.77881e-08
2.59919e-08
6.51874e-08
-2.02125e-08
2.40694e-08
7.54287e-08
-2.25978e-08
2.08675e-08
8.48668e-08
-2.47429e-08
1.67765e-08
9.26038e-08
-2.65728e-08
1.19615e-08
9.87286e-08
-2.79887e-08
6.67805e-09
1.02919e-07
-2.897e-08
1.15783e-09
1.05104e-07
-2.94856e-08
-4.35154e-09
1.05202e-07
-2.95249e-08
-9.60183e-09
1.03212e-07
-2.90882e-08
-1.43598e-08
9.92179e-08
-2.81864e-08
-1.83668e-08
9.32896e-08
-2.68515e-08
-2.14557e-08
8.57556e-08
-2.51042e-08
-2.3232e-08
7.65291e-08
-2.30453e-08
-2.35653e-08
6.65334e-08
-2.075e-08
-2.17224e-08
5.53077e-08
-1.84245e-08
-1.92959e-08
4.73031e-08
-1.62499e-08
-1.64962e-08
4.05758e-08
-1.43923e-08
-1.36516e-08
3.54898e-08
-1.28482e-08
-1.07507e-08
3.14468e-08
-1.1653e-08
-7.73359e-09
2.83708e-08
-1.0812e-08
-4.48794e-09
2.61357e-08
-1.03259e-08
-1.28183e-09
2.45827e-08
-9.77233e-09
2.25752e-08
-7.26098e-09
1.77175e-09
1.87778e-08
-5.47931e-09
5.21615e-09
2.05567e-08
-7.52932e-09
8.72589e-09
2.20821e-08
-7.9763e-09
1.20547e-08
2.43052e-08
-8.36031e-09
1.5306e-08
2.73649e-08
-9.05928e-09
1.85866e-08
3.13102e-08
-1.00868e-08
2.20023e-08
3.62099e-08
-1.14565e-08
2.56439e-08
4.22667e-08
-1.32054e-08
2.95932e-08
4.96705e-08
-1.54009e-08
3.34231e-08
5.95398e-08
-1.80491e-08
3.67568e-08
7.15653e-08
-2.12036e-08
3.59896e-08
9.05942e-08
-2.46397e-08
3.30693e-08
1.06362e-07
-2.80131e-08
2.8414e-08
1.20542e-07
-3.10202e-08
2.26845e-08
1.3191e-07
-3.35771e-08
1.60341e-08
1.40894e-07
-3.55151e-08
8.79545e-09
1.4701e-07
-3.68531e-08
1.25529e-09
1.50192e-07
-3.75482e-08
-6.27403e-09
1.50322e-07
-3.75906e-08
-1.3479e-08
1.47397e-07
-3.69804e-08
-2.00703e-08
1.41537e-07
-3.57276e-08
-2.57093e-08
1.32804e-07
-3.38758e-08
-3.02377e-08
1.2169e-07
-3.14059e-08
-3.29845e-08
1.07765e-07
-2.84887e-08
-3.35384e-08
9.22948e-08
-2.52075e-08
-2.99324e-08
7.35758e-08
-2.1874e-08
-2.58653e-08
6.20668e-08
-1.88308e-08
-2.1639e-08
5.26668e-08
-1.63173e-08
-1.76632e-08
4.57953e-08
-1.42813e-08
-1.38118e-08
4.03398e-08
-1.27445e-08
-9.92982e-09
3.61702e-08
-1.16813e-08
-5.84036e-09
3.31227e-08
-1.10765e-08
-1.82939e-09
3.10109e-08
-1.04392e-08
2.84331e-08
-7.68727e-09
2.34166e-09
2.22184e-08
-5.78226e-09
6.58143e-09
2.43701e-08
-8.05326e-09
1.09257e-08
2.63152e-08
-8.57728e-09
1.50983e-08
2.91801e-08
-9.04748e-09
1.92306e-08
3.31373e-08
-9.90482e-09
2.34785e-08
3.82409e-08
-1.11785e-08
2.80352e-08
4.45593e-08
-1.29061e-08
3.31862e-08
5.22841e-08
-1.51685e-08
3.929e-08
6.16601e-08
-1.80933e-08
4.61019e-08
7.44639e-08
-2.1736e-08
5.30484e-08
9.08068e-08
-2.61881e-08
5.14897e-08
1.23391e-07
-3.12381e-08
4.66177e-08
1.47413e-07
-3.61791e-08
3.95757e-08
1.68144e-07
-4.05598e-08
3.13687e-08
1.84402e-07
-4.42851e-08
2.1999e-08
1.97274e-07
-4.70104e-08
1.18856e-08
2.06014e-07
-4.88899e-08
1.38368e-09
2.10551e-07
-4.98571e-08
-9.10822e-09
2.10718e-07
-4.99047e-08
-1.919e-08
2.06512e-07
-4.9033e-08
-2.85025e-08
1.98098e-07
-4.72487e-08
-3.66173e-08
1.85538e-07
-4.46188e-08
-4.35215e-08
1.69582e-07
-4.09875e-08
-4.81885e-08
1.49134e-07
-3.67024e-08
-4.9477e-08
1.25439e-07
-3.18561e-08
-4.21473e-08
9.31578e-08
-2.69117e-08
-3.50732e-08
7.75669e-08
-2.25741e-08
-2.86462e-08
6.53182e-08
-1.90783e-08
-2.30812e-08
5.65582e-08
-1.6328e-08
-1.79611e-08
4.95235e-08
-1.43038e-08
-1.29268e-08
4.40624e-08
-1.29265e-08
-7.70245e-09
4.00431e-08
-1.21447e-08
-2.59589e-09
3.72719e-08
-1.13675e-08
3.40959e-08
-8.25869e-09
3.07886e-09
2.52877e-08
-6.1482e-09
8.34135e-09
2.7808e-08
-8.70034e-09
1.37645e-08
3.02195e-08
-9.32748e-09
1.90328e-08
3.38211e-08
-9.90927e-09
2.43034e-08
3.88337e-08
-1.0967e-08
2.97806e-08
4.53168e-08
-1.25531e-08
3.57644e-08
5.33139e-08
-1.47384e-08
4.29096e-08
6.28177e-08
-1.76788e-08
5.22115e-08
7.39567e-08
-2.15985e-08
6.4489e-08
8.88077e-08
-2.66214e-08
7.94675e-08
1.08656e-07
-3.28275e-08
7.54621e-08
1.67683e-07
-4.02869e-08
6.6562e-08
2.03793e-07
-4.74795e-08
5.56278e-08
2.32992e-07
-5.39137e-08
4.37881e-08
2.55679e-07
-5.94372e-08
3.05116e-08
2.73772e-07
-6.32208e-08
1.62838e-08
2.86093e-07
-6.5852e-08
1.54892e-09
2.92484e-07
-6.7198e-08
-1.31782e-08
2.92699e-07
-6.72541e-08
-2.73811e-08
2.86735e-07
-6.60203e-08
-4.06111e-08
2.74828e-07
-6.34998e-08
-5.23689e-08
2.57122e-07
-5.98261e-08
-6.31675e-08
2.34787e-07
-5.44064e-08
-7.18333e-08
2.05874e-07
-4.80746e-08
-7.54892e-08
1.70072e-07
-4.09771e-08
-5.9921e-08
1.11211e-07
-3.36218e-08
-4.73992e-08
9.25761e-08
-2.7531e-08
-3.77482e-08
7.83349e-08
-2.26677e-08
-3.00993e-08
6.78494e-08
-1.894e-08
-2.33886e-08
5.90826e-08
-1.62698e-08
-1.6878e-08
5.20399e-08
-1.44882e-08
-1.01719e-08
4.68144e-08
-1.34775e-08
-3.62186e-09
4.32355e-08
-1.25136e-08
3.94212e-08
-8.94718e-09
4.00956e-09
2.78392e-08
-6.56105e-09
1.05585e-08
3.07098e-08
-9.45077e-09
1.73564e-08
3.36249e-08
-1.02033e-08
2.40369e-08
3.80588e-08
-1.09182e-08
3.07614e-08
4.43241e-08
-1.22149e-08
3.77222e-08
5.25335e-08
-1.41775e-08
4.52202e-08
6.27384e-08
-1.69225e-08
5.43629e-08
7.44176e-08
-2.07426e-08
6.73237e-08
8.69823e-08
-2.59865e-08
8.95611e-08
9.96208e-08
-3.30505e-08
1.22439e-07
1.16071e-07
-4.0293e-08
1.11694e-07
2.28943e-07
-5.05151e-08
9.51094e-08
2.81338e-07
-6.09606e-08
7.83209e-08
3.20213e-07
-7.04328e-08
6.14034e-08
3.51235e-07
-7.86379e-08
4.26184e-08
3.76165e-07
-8.36082e-08
2.25299e-08
3.9331e-07
-8.71284e-08
1.76111e-09
4.02185e-07
-8.8932e-08
-1.90042e-08
4.02465e-07
-8.89998e-08
-3.90809e-08
3.94144e-07
-8.73318e-08
-5.78444e-08
3.77535e-07
-8.3944e-08
-7.47162e-08
3.53098e-07
-7.91045e-08
-9.14116e-08
3.22498e-07
-7.10163e-08
-1.07774e-07
2.83892e-07
-6.1655e-08
-1.18046e-07
2.31654e-07
-5.13103e-08
-8.41698e-08
1.18507e-07
-4.11712e-08
-6.18298e-08
1.04273e-07
-3.40366e-08
-4.85309e-08
9.21846e-08
-2.71485e-08
-3.87815e-08
8.02176e-08
-2.21177e-08
-3.03472e-08
6.92542e-08
-1.86059e-08
-2.20297e-08
6.00518e-08
-1.63294e-08
-1.34164e-08
5.32438e-08
-1.50426e-08
-4.98615e-09
4.86552e-08
-1.385e-08
4.41588e-08
-9.72372e-09
5.14323e-09
2.97061e-08
-7.01016e-09
1.32626e-08
3.28825e-08
-1.0292e-08
2.17712e-08
3.63093e-08
-1.1193e-08
3.0252e-08
4.16414e-08
-1.20634e-08
3.88522e-08
4.93617e-08
-1.36378e-08
4.76441e-08
5.97765e-08
-1.6035e-08
5.66627e-08
7.31442e-08
-1.94244e-08
6.7168e-08
8.82013e-08
-2.4289e-08
8.28449e-08
1.0265e-07
-3.13449e-08
1.18985e-07
1.03538e-07
-4.00569e-08
1.90973e-07
9.43588e-08
-5.02757e-08
1.63343e-07
3.13505e-07
-5.69317e-08
1.33265e-07
3.81103e-07
-6.96864e-08
1.08724e-07
4.27488e-07
-8.27338e-08
8.52948e-08
4.68721e-07
-9.40573e-08
5.92041e-08
5.01893e-07
-9.96374e-08
3.11155e-08
5.25242e-07
-1.03843e-07
2.03709e-09
5.37281e-07
-1.06018e-07
-2.7044e-08
5.37643e-07
-1.06097e-07
-5.51421e-08
5.26322e-07
-1.0408e-07
-8.12563e-08
5.03676e-07
-1.00026e-07
-1.04719e-07
4.71159e-07
-9.4598e-08
-1.29294e-07
4.30474e-07
-8.34004e-08
-1.59286e-07
3.84358e-07
-7.0474e-08
-1.86312e-07
3.16493e-07
-5.78133e-08
-1.12477e-07
9.60095e-08
-5.13381e-08
-7.66549e-08
1.0957e-07
-4.11188e-08
-6.0721e-08
1.08844e-07
-3.25929e-08
-4.94809e-08
9.47564e-08
-2.57789e-08
-3.92435e-08
8.02863e-08
-2.12694e-08
-2.86708e-08
6.7907e-08
-1.84279e-08
-1.75956e-08
5.89971e-08
-1.68286e-08
-6.74805e-09
5.3173e-08
-1.53653e-08
4.79846e-08
-1.05739e-08
6.51129e-09
3.06716e-08
-7.47675e-09
1.65357e-08
3.40609e-08
-1.12028e-08
2.72073e-08
3.79075e-08
-1.22699e-08
3.8111e-08
4.40479e-08
-1.33102e-08
4.94088e-08
5.32501e-08
-1.51862e-08
6.08429e-08
6.63881e-08
-1.80456e-08
7.13451e-08
8.47028e-08
-2.20608e-08
7.89972e-08
1.0868e-07
-2.8131e-08
8.29133e-08
1.34895e-07
-3.61606e-08
1.11139e-07
1.22915e-07
-4.76029e-08
2.75254e-07
-6.97564e-08
2.17568e-07
4.22605e-07
-5.14147e-08
1.79377e-07
4.80104e-07
-6.08103e-08
1.49827e-07
5.30939e-07
-7.39012e-08
1.18863e-07
5.84916e-07
-8.52306e-08
8.26589e-08
6.27358e-07
-8.92611e-08
4.32097e-08
6.57416e-07
-9.27249e-08
2.39329e-09
6.72707e-07
-9.46091e-08
-3.84304e-08
6.73151e-07
-9.46845e-08
-7.79069e-08
6.58749e-07
-9.29506e-08
-1.14185e-07
6.29581e-07
-8.96267e-08
-1.45294e-07
5.88013e-07
-8.57446e-08
-1.7517e-07
5.34873e-07
-7.45229e-08
-2.13892e-07
4.8462e-07
-6.15405e-08
-2.7145e-07
4.26384e-07
-5.2333e-08
-1.04162e-07
-7.12789e-08
-7.61375e-08
1.3017e-07
-4.86244e-08
-7.21595e-08
1.4234e-07
-3.74747e-08
-6.35189e-08
1.15855e-07
-2.97389e-08
-5.13999e-08
9.22417e-08
-2.40745e-08
-3.76542e-08
7.48637e-08
-2.07023e-08
-2.3155e-08
6.32856e-08
-1.87877e-08
-9.09785e-09
5.61418e-08
-1.7026e-08
5.03365e-08
-1.14498e-08
8.02929e-09
3.06011e-08
-7.95884e-09
2.01932e-08
3.40672e-08
-1.21702e-08
3.33656e-08
3.81655e-08
-1.34305e-08
4.72258e-08
4.48637e-08
-1.4676e-08
6.21235e-08
5.52664e-08
-1.6914e-08
7.77209e-08
7.1056e-08
-2.02653e-08
9.16821e-08
9.55323e-08
-2.47907e-08
9.68953e-08
1.33823e-07
-3.03562e-08
7.83731e-08
1.92904e-07
-3.94871e-08
2.59814e-07
-5.85258e-08
1.46163e-07
2.48337e-07
2.81048e-08
1.9461e-07
4.16074e-07
1.55833e-08
1.91224e-07
5.18817e-07
1.55091e-08
1.58091e-07
5.97486e-07
2.05621e-08
1.11416e-07
6.52361e-07
2.16729e-08
5.84034e-08
6.88314e-07
2.21152e-08
2.85663e-09
7.05969e-07
2.22849e-08
-5.27017e-08
7.06429e-07
2.22808e-08
-1.05759e-07
6.89704e-07
2.21026e-08
-1.52558e-07
6.54721e-07
2.16591e-08
-1.85985e-07
6.00897e-07
2.0542e-08
-1.90111e-07
5.23475e-07
1.55239e-08
-1.4326e-07
4.22287e-07
1.54816e-08
2.55503e-07
2.7622e-08
-7.54333e-08
2.64122e-07
-5.85184e-08
-9.13018e-08
1.98879e-07
-4.067e-08
-8.38054e-08
1.40402e-07
-3.20438e-08
-6.74269e-08
1.02824e-07
-2.69607e-08
-4.87954e-08
7.94281e-08
-2.31959e-08
-2.98205e-08
6.52774e-08
-2.09667e-08
-1.1861e-08
5.70284e-08
-1.8846e-08
5.08507e-08
-1.23752e-08
9.72626e-09
2.93038e-08
-8.42899e-09
2.43312e-08
3.26097e-08
-1.31474e-08
4.06204e-08
3.64768e-08
-1.46004e-08
5.88097e-08
4.27239e-08
-1.60495e-08
8.05137e-08
5.22185e-08
-1.86561e-08
1.08008e-07
6.60998e-08
-2.25378e-08
1.4496e-07
8.624e-08
-2.76601e-08
1.97643e-07
1.14596e-07
-3.34555e-08
2.76574e-07
1.51529e-07
-3.75563e-08
3.91992e-07
1.80451e-07
-3.60544e-08
3.03584e-07
8.17747e-08
6.63307e-09
3.34052e-07
1.98108e-07
1.97617e-08
3.28339e-07
3.21899e-07
9.98877e-08
2.87041e-07
4.08325e-07
1.51789e-07
2.23813e-07
4.7605e-07
1.84664e-07
1.52791e-07
5.23372e-07
2.00011e-07
7.85797e-08
5.542e-07
2.08325e-07
3.34656e-09
5.6935e-07
2.11852e-07
-7.18793e-08
5.69748e-07
2.11907e-07
-1.46068e-07
5.55402e-07
2.08491e-07
-2.17058e-07
5.25401e-07
2.00309e-07
-2.80216e-07
4.78948e-07
1.85108e-07
-3.21398e-07
4.12167e-07
1.52489e-07
-3.26588e-07
3.26629e-07
1.00849e-07
-2.95794e-07
2.03393e-07
2.13153e-08
-3.8773e-07
8.37393e-08
8.19635e-09
-2.7172e-07
1.84317e-07
-3.62051e-08
-1.91015e-07
1.56711e-07
-3.85366e-08
-1.36179e-07
1.20602e-07
-3.50363e-08
-9.65322e-08
9.30967e-08
-2.99193e-08
-6.54542e-08
7.4085e-08
-2.57349e-08
-3.88077e-08
6.18302e-08
-2.31992e-08
-1.54761e-08
5.44275e-08
-2.07308e-08
4.86439e-08
-1.32693e-08
1.12645e-08
2.69309e-08
-8.89161e-09
2.80518e-08
2.99195e-08
-1.40971e-08
4.69539e-08
3.3332e-08
-1.57573e-08
6.83757e-08
3.87493e-08
-1.74472e-08
9.43364e-08
4.67562e-08
-2.04983e-08
1.27583e-07
5.7952e-08
-2.5099e-08
1.72043e-07
7.3027e-08
-3.12472e-08
2.33147e-07
9.2241e-08
-3.87483e-08
3.16098e-07
1.13755e-07
-4.5178e-08
4.13695e-07
1.30732e-07
-4.78786e-08
4.20459e-07
1.04985e-07
-2.99742e-08
4.48501e-07
1.68376e-07
1.69076e-09
4.16061e-07
2.43529e-07
1.1081e-07
3.52021e-07
3.03574e-07
1.68792e-07
2.70614e-07
3.53245e-07
2.04212e-07
1.83136e-07
3.88986e-07
2.21864e-07
9.36089e-08
4.12687e-07
2.31041e-07
3.73964e-09
4.24455e-07
2.34764e-07
-8.6117e-08
4.24792e-07
2.34812e-07
-1.75604e-07
4.137e-07
2.31189e-07
-2.63017e-07
3.90679e-07
2.22133e-07
-3.44314e-07
3.55619e-07
2.04626e-07
-4.08242e-07
3.06624e-07
1.69471e-07
-4.40536e-07
2.47142e-07
1.11781e-07
-4.12721e-07
1.72379e-07
3.19975e-09
-4.0771e-07
1.07837e-07
-2.91095e-08
-3.10043e-07
1.34593e-07
-4.79416e-08
-2.25683e-07
1.18421e-07
-4.60704e-08
-1.6239e-07
9.76582e-08
-4.0349e-08
-1.14939e-07
7.92793e-08
-3.3634e-08
-7.75877e-08
6.52939e-08
-2.85597e-08
-4.5882e-08
5.56169e-08
-2.54924e-08
-1.83814e-08
4.95132e-08
-2.25863e-08
4.44481e-08
-1.41856e-08
1.26435e-08
2.36005e-08
-9.31304e-09
3.13655e-08
2.61518e-08
-1.49543e-08
5.25324e-08
2.89546e-08
-1.67896e-08
7.66325e-08
3.3321e-08
-1.86717e-08
1.05849e-07
3.96117e-08
-2.20717e-08
1.42923e-07
4.81016e-08
-2.72236e-08
1.91147e-07
5.89626e-08
-3.41599e-08
2.54179e-07
7.21224e-08
-4.29133e-08
3.33242e-07
8.59982e-08
-5.13061e-08
4.22279e-07
9.91018e-08
-5.74064e-08
4.72721e-07
9.95135e-08
-4.49707e-08
5.15572e-07
1.36337e-07
-1.08131e-08
4.76378e-07
1.81472e-07
1.01251e-07
4.01251e-07
2.21628e-07
1.57073e-07
3.06888e-07
2.56198e-07
1.91409e-07
2.06966e-07
2.81836e-07
2.07073e-07
1.05527e-07
2.99175e-07
2.14951e-07
4.0773e-09
3.07896e-07
2.18008e-07
-9.73584e-08
3.08187e-07
2.18041e-07
-1.98753e-07
3.00042e-07
2.15052e-07
-2.98609e-07
2.8327e-07
2.07265e-07
-3.92883e-07
2.58177e-07
1.91717e-07
-4.68e-07
2.24117e-07
1.57624e-07
-5.0729e-07
1.84365e-07
1.02068e-07
-4.65269e-07
1.39528e-07
-9.1713e-09
-4.15701e-07
1.02477e-07
-4.42072e-08
-3.264e-07
1.02671e-07
-5.73794e-08
-2.4594e-07
9.01298e-08
-5.21695e-08
-1.80617e-07
7.68922e-08
-4.4557e-08
-1.29141e-07
6.44791e-08
-3.66753e-08
-8.75134e-08
5.45895e-08
-3.09236e-08
-5.1858e-08
4.74237e-08
-2.74622e-08
-2.08814e-08
4.27494e-08
-2.42127e-08
3.85686e-08
-1.50019e-08
1.37517e-08
1.95403e-08
-9.69153e-09
3.40162e-08
2.15875e-08
-1.57001e-08
5.69116e-08
2.37448e-08
-1.76856e-08
8.29143e-08
2.70518e-08
-1.97334e-08
1.1423e-07
3.17271e-08
-2.3431e-08
1.53494e-07
3.78866e-08
-2.90493e-08
2.03581e-07
4.55297e-08
-3.66537e-08
2.6749e-07
5.45915e-08
-4.63782e-08
3.45409e-07
6.41789e-08
-5.60995e-08
4.33706e-07
7.46569e-08
-6.38523e-08
5.03964e-07
8.20377e-08
-5.27823e-08
5.56636e-07
1.05016e-07
-2.13502e-08
5.1508e-07
1.33294e-07
8.97346e-08
4.34189e-07
1.59819e-07
1.427e-07
3.32038e-07
1.83267e-07
1.75082e-07
2.23906e-07
2.01164e-07
1.88803e-07
1.1413e-07
2.13456e-07
1.95494e-07
4.36374e-09
2.19727e-07
1.97936e-07
-1.05392e-07
2.19988e-07
1.97955e-07
-2.15137e-07
2.14231e-07
1.95555e-07
-3.23226e-07
2.02433e-07
1.88927e-07
-4.25337e-07
1.84993e-07
1.75294e-07
-5.06304e-07
1.61952e-07
1.43131e-07
-5.48098e-07
1.35747e-07
9.04126e-08
-4.96445e-07
1.07728e-07
-1.98524e-08
-4.26683e-07
8.48086e-08
-5.20935e-08
-3.37983e-07
7.78275e-08
-6.38564e-08
-2.58602e-07
6.77586e-08
-5.70101e-08
-1.92277e-07
5.86706e-08
-4.8103e-08
-1.38709e-07
5.02145e-08
-3.93033e-08
-9.45182e-08
4.33628e-08
-3.29643e-08
-5.6206e-08
3.82689e-08
-2.91574e-08
-2.27086e-08
3.48655e-08
-2.56136e-08
3.16053e-08
-1.57453e-08
1.46041e-08
1.49434e-08
-1.00073e-08
3.60477e-08
1.64494e-08
-1.63055e-08
6.0235e-08
1.7962e-08
-1.84046e-08
8.76082e-08
2.0252e-08
-2.05734e-08
1.20368e-07
2.34536e-08
-2.44864e-08
1.61071e-07
2.76198e-08
-3.04361e-08
2.12378e-07
3.27313e-08
-3.85088e-08
2.77067e-07
3.87885e-08
-4.88859e-08
3.55326e-07
4.53964e-08
-5.94763e-08
4.45143e-07
5.31379e-08
-6.82986e-08
5.24688e-07
6.06708e-08
-5.81781e-08
5.82759e-07
7.52029e-08
-2.82573e-08
5.40807e-07
9.28387e-08
8.2407e-08
4.56815e-07
1.09812e-07
1.33998e-07
3.49706e-07
1.25022e-07
1.65355e-07
2.35997e-07
1.36867e-07
1.78006e-07
1.20348e-07
1.45099e-07
1.84006e-07
4.6217e-09
1.49365e-07
1.86088e-07
-1.11101e-07
1.49611e-07
1.861e-07
-2.2674e-07
1.45826e-07
1.84044e-07
-3.40443e-07
1.38045e-07
1.78091e-07
-4.47565e-07
1.26603e-07
1.65513e-07
-5.31707e-07
1.11734e-07
1.3436e-07
-5.73981e-07
9.50183e-08
8.30023e-08
-5.16994e-07
7.758e-08
-2.68392e-08
-4.37783e-07
6.31579e-08
-5.75602e-08
-3.47478e-07
5.58768e-08
-6.8354e-08
-2.67675e-07
4.84061e-08
-6.04514e-08
-2.0045e-07
4.21427e-08
-5.06967e-08
-1.45471e-07
3.65165e-08
-4.12813e-08
-9.9549e-08
3.19744e-08
-3.45331e-08
-5.93684e-08
2.85731e-08
-3.04848e-08
-2.40442e-08
2.62699e-08
-2.67285e-08
2.39182e-08
-1.63571e-08
1.51927e-08
1.00056e-08
-1.02549e-08
3.74517e-08
1.09528e-08
-1.67623e-08
6.25164e-08
1.18391e-08
-1.89418e-08
9.07957e-08
1.31674e-08
-2.11947e-08
1.24487e-07
1.50183e-08
-2.52564e-08
1.66113e-07
1.74242e-08
-3.14304e-08
2.1827e-07
2.03893e-08
-3.98147e-08
2.83715e-07
2.39514e-08
-5.06083e-08
3.62843e-07
2.80003e-08
-6.17312e-08
4.54235e-07
3.29116e-08
-7.11654e-08
5.38257e-07
3.82956e-08
-6.16474e-08
5.99277e-07
4.66366e-08
-3.24536e-08
5.57223e-07
5.65282e-08
7.83646e-08
4.7144e-07
6.61007e-08
1.29495e-07
3.61308e-07
7.47076e-08
1.60446e-07
2.44045e-07
8.15115e-08
1.72618e-07
1.24549e-07
8.62959e-08
1.783e-07
4.8633e-09
8.884e-08
1.80211e-07
-1.14828e-07
8.90842e-08
1.80218e-07
-2.34344e-07
8.70161e-08
1.78325e-07
-3.51648e-07
8.26682e-08
1.72681e-07
-4.61857e-07
7.62391e-08
1.60573e-07
-5.47862e-07
6.79238e-08
1.29815e-07
-5.90303e-07
5.85523e-08
7.8907e-08
-5.30401e-07
4.87796e-08
-3.1102e-08
-4.46644e-07
4.05002e-08
-6.10986e-08
-3.54712e-07
3.52306e-08
-7.1286e-08
-2.73973e-07
3.04466e-08
-6.27795e-08
-2.05898e-07
2.65724e-08
-5.25048e-08
-1.49928e-07
2.32423e-08
-4.26961e-08
-1.02874e-07
2.05967e-08
-3.56757e-08
-6.14659e-08
1.86294e-08
-3.14645e-08
-2.4925e-08
1.72906e-08
-2.75616e-08
1.5828e-08
-1.68347e-08
1.55329e-08
4.89951e-09
-1.04268e-08
3.82672e-08
5.28075e-09
-1.70622e-08
6.3841e-08
5.55362e-09
-1.92883e-08
9.26448e-08
5.95249e-09
-2.1589e-08
1.2688e-07
6.51757e-09
-2.57348e-08
1.69064e-07
7.27532e-09
-3.2035e-08
2.21784e-07
8.26283e-09
-4.0593e-08
2.87815e-07
9.53486e-09
-5.16148e-08
3.67683e-07
1.11561e-08
-6.30237e-08
4.60151e-07
1.32199e-08
-7.27767e-08
5.46232e-07
1.5761e-08
-6.3546e-08
6.0865e-07
1.88272e-08
-3.46093e-08
5.66538e-07
2.21451e-08
7.64958e-08
4.79779e-07
2.52876e-08
1.27572e-07
3.67992e-07
2.80634e-08
1.58431e-07
2.48739e-07
3.03201e-08
1.70445e-07
1.27058e-07
3.1964e-08
1.76014e-07
5.10302e-09
3.29343e-08
1.7786e-07
-1.16871e-07
3.3193e-08
1.77865e-07
-2.3861e-07
3.27241e-08
1.76031e-07
-3.57966e-07
3.15305e-08
1.70494e-07
-4.69909e-07
2.9645e-08
1.58537e-07
-5.56975e-07
2.71288e-08
1.27861e-07
-5.9955e-07
2.41315e-08
7.69964e-08
-5.38288e-07
2.08369e-08
-3.33201e-08
-4.52453e-07
1.77319e-08
-6.30665e-08
-3.59416e-07
1.51622e-08
-7.29678e-08
-2.77894e-07
1.307e-08
-6.4146e-08
-2.09172e-07
1.1441e-08
-5.35909e-08
-1.52549e-07
1.01855e-08
-4.35654e-08
-1.0481e-07
9.25045e-09
-3.63929e-08
-6.26805e-08
8.59055e-09
-3.2091e-08
-2.54309e-08
8.14539e-09
-2.81044e-08
7.55783e-09
-1.71608e-08
1.56295e-08
-2.08867e-10
-1.05211e-08
3.85078e-08
-3.9364e-10
-1.72039e-08
6.4239e-08
-7.33212e-10
-1.94444e-08
9.32132e-08
-1.26237e-09
-2.17593e-08
1.27643e-07
-1.98216e-09
-2.59305e-08
1.7006e-07
-2.87255e-09
-3.22684e-08
2.23064e-07
-3.86439e-09
-4.08775e-08
2.89449e-07
-4.88372e-09
-5.19659e-08
3.69745e-07
-5.6851e-09
-6.34553e-08
4.6269e-07
-6.42817e-09
-7.32967e-08
5.49224e-07
-6.64709e-09
-6.41253e-08
6.11872e-07
-8.62419e-09
-3.51972e-08
5.69635e-07
-1.17332e-08
7.61154e-08
4.82518e-07
-1.48906e-08
1.27295e-07
3.70223e-07
-1.78515e-08
1.5821e-07
2.50365e-07
-2.00651e-08
1.70243e-07
1.28016e-07
-2.15048e-08
1.75818e-07
5.35585e-09
-2.20693e-08
1.77664e-07
-1.1734e-07
-2.17768e-08
1.77665e-07
-2.39795e-07
-2.06462e-08
1.75826e-07
-3.59836e-07
-1.87061e-08
1.70277e-07
-4.72392e-07
-1.60921e-08
1.58293e-07
-5.5993e-07
-1.28843e-08
1.27551e-07
-6.02735e-07
-9.6329e-09
7.65694e-08
-5.413e-07
-6.6179e-09
-3.398e-08
-4.5502e-07
-4.82316e-09
-6.37247e-08
-3.61501e-07
-4.78874e-09
-7.35679e-08
-2.79533e-07
-4.24322e-09
-6.46552e-08
-2.10432e-07
-3.64294e-09
-5.40172e-08
-1.53488e-07
-2.83333e-09
-4.39245e-08
-1.05468e-07
-2.0654e-09
-3.67048e-08
-6.30774e-08
-1.42494e-09
-3.2375e-08
-2.55888e-08
-9.81552e-10
-2.83616e-08
-6.96215e-10
-1.73347e-08
1.54835e-08
-5.15471e-09
-1.05377e-08
3.8175e-08
-5.89713e-09
-1.71879e-08
6.37121e-08
-6.85902e-09
-1.94113e-08
9.25021e-08
-8.34466e-09
-2.17077e-08
1.26777e-07
-1.04104e-08
-2.58463e-08
1.69099e-07
-1.30602e-08
-3.21347e-08
2.22114e-07
-1.62044e-08
-4.06747e-08
2.8863e-07
-1.97291e-08
-5.16716e-08
3.69076e-07
-2.30888e-08
-6.30417e-08
4.61957e-07
-2.6559e-08
-7.27504e-08
5.47415e-07
-2.8678e-08
-6.34266e-08
6.091e-07
-3.60276e-08
-3.4282e-08
5.66641e-07
-4.64151e-08
7.71408e-08
4.79753e-07
-5.65695e-08
1.28567e-07
3.68074e-07
-6.58449e-08
1.59672e-07
2.48977e-07
-7.28607e-08
1.71892e-07
1.27461e-07
-7.75715e-08
1.77583e-07
5.64095e-09
-7.97368e-08
1.79487e-07
-1.16235e-07
-7.93847e-08
1.79484e-07
-2.37922e-07
-7.65365e-08
1.77577e-07
-3.57303e-07
-7.12245e-08
1.719e-07
-4.69384e-07
-6.37301e-08
1.59719e-07
-5.5685e-07
-5.41897e-08
1.28771e-07
-6.00033e-07
-4.39779e-08
7.75279e-08
-5.39651e-07
-3.38382e-08
-3.31617e-08
-4.54471e-07
-2.68768e-08
-6.31261e-08
-3.61025e-07
-2.51148e-08
-7.31199e-08
-2.78915e-07
-2.20248e-08
-6.43294e-08
-2.0969e-07
-1.9069e-08
-5.37985e-08
-1.52753e-07
-1.59867e-08
-4.37835e-08
-1.04854e-07
-1.33462e-08
-3.66183e-08
-6.26621e-08
-1.1295e-08
-3.23218e-08
-2.54014e-08
-9.905e-09
-2.83373e-08
-8.73911e-09
-1.73585e-08
1.50905e-08
-9.76429e-09
-1.04809e-08
3.72571e-08
-1.10453e-08
-1.70184e-08
6.22332e-08
-1.26435e-08
-1.91917e-08
9.04568e-08
-1.51336e-08
-2.14346e-08
1.24184e-07
-1.86593e-08
-2.54786e-08
1.66042e-07
-2.32944e-08
-3.16231e-08
2.18778e-07
-2.89779e-08
-3.99624e-08
2.85281e-07
-3.55417e-08
-5.06906e-08
3.65838e-07
-4.19323e-08
-6.17136e-08
4.58369e-07
-4.8063e-08
-7.10274e-08
5.40615e-07
-4.96439e-08
-6.12797e-08
5.99679e-07
-6.35669e-08
-3.15249e-08
5.56931e-07
-8.37278e-08
8.00604e-08
4.71001e-07
-1.02719e-07
1.32079e-07
3.61243e-07
-1.19726e-07
1.63639e-07
2.44413e-07
-1.32362e-07
1.76332e-07
1.25334e-07
-1.40809e-07
1.82317e-07
5.98358e-09
-1.44757e-07
1.8437e-07
-1.13448e-07
-1.44311e-07
1.84357e-07
-2.32775e-07
-1.3949e-07
1.82281e-07
-3.50022e-07
-1.30268e-07
1.7629e-07
-4.60375e-07
-1.16995e-07
1.63617e-07
-5.47105e-07
-9.96518e-08
1.32192e-07
-5.90819e-07
-8.06036e-08
8.03401e-08
-5.33197e-07
-6.09153e-08
-3.05457e-08
-4.51249e-07
-4.77097e-08
-6.1115e-08
-3.58166e-07
-4.66698e-08
-7.1528e-08
-2.75969e-07
-4.11109e-08
-6.31102e-08
-2.06799e-07
-3.5337e-08
-5.29021e-08
-1.50206e-07
-2.94529e-08
-4.31266e-08
-1.02874e-07
-2.45516e-08
-3.61273e-08
-6.13806e-08
-2.08573e-08
-3.19309e-08
-2.48468e-08
-1.84041e-08
-2.80348e-08
-1.63474e-08
-1.72385e-08
1.44369e-08
-1.38421e-08
-1.03591e-08
3.57192e-08
-1.56222e-08
-1.67053e-08
5.97227e-08
-1.78499e-08
-1.87971e-08
8.69151e-08
-2.13736e-08
-2.09524e-08
1.19576e-07
-2.64813e-08
-2.48391e-08
1.60438e-07
-3.34167e-08
-3.07394e-08
2.12506e-07
-4.2315e-08
-3.87314e-08
2.78994e-07
-5.30563e-08
-4.89734e-08
3.60347e-07
-6.39386e-08
-5.93461e-08
4.53036e-07
-7.28962e-08
-6.78565e-08
5.28012e-07
-6.72137e-08
-5.74061e-08
5.8164e-07
-9.07768e-08
-2.64179e-08
5.38596e-07
-1.26412e-07
8.57278e-08
4.54759e-07
-1.58012e-07
1.3913e-07
3.48754e-07
-1.85385e-07
1.71665e-07
2.36117e-07
-2.05072e-07
1.85346e-07
1.21401e-07
-2.18038e-07
1.91945e-07
6.41871e-09
-2.24078e-07
1.94303e-07
-1.08673e-07
-2.23491e-07
1.94271e-07
-2.23728e-07
-2.16288e-07
1.91853e-07
-3.36944e-07
-2.02261e-07
1.8521e-07
-4.43807e-07
-1.81647e-07
1.71514e-07
-5.28767e-07
-1.53771e-07
1.39079e-07
-5.7318e-07
-1.2202e-07
8.58292e-08
-5.21214e-07
-8.72252e-08
-2.56554e-08
-4.4649e-07
-6.49939e-08
-5.74399e-08
-3.53247e-07
-7.13615e-08
-6.85518e-08
-2.70299e-07
-6.31624e-08
-6.08964e-08
-2.01212e-07
-5.31282e-08
-5.12953e-08
-1.45397e-07
-4.3313e-08
-4.19557e-08
-9.92309e-08
-3.54727e-08
-3.52447e-08
-5.90667e-08
-2.98036e-08
-3.1218e-08
-2.38518e-08
-2.61488e-08
-2.74702e-08
-2.32027e-08
-1.69965e-08
1.35353e-08
-1.71997e-08
-1.01777e-08
3.35798e-08
-1.94089e-08
-1.62578e-08
5.61845e-08
-2.22208e-08
-1.82337e-08
8.18211e-08
-2.67502e-08
-2.02599e-08
1.12757e-07
-3.35045e-08
-2.39125e-08
1.5184e-07
-4.30579e-08
-2.94419e-08
2.02517e-07
-5.60906e-08
-3.69014e-08
2.68781e-07
-7.29494e-08
-4.63708e-08
3.52427e-07
-9.18925e-08
-5.56921e-08
4.48436e-07
-1.05961e-07
-6.29447e-08
5.0749e-07
-7.502e-08
-5.12472e-08
5.50172e-07
-1.15589e-07
-1.78697e-08
5.08308e-07
-1.79385e-07
9.48376e-08
4.29026e-07
-2.2957e-07
1.5084e-07
3.29473e-07
-2.70932e-07
1.85099e-07
2.23507e-07
-2.99628e-07
2.00522e-07
1.1544e-07
-3.18117e-07
2.08146e-07
6.99246e-09
-3.26646e-07
2.11015e-07
-1.01589e-07
-3.25859e-07
2.1095e-07
-2.1009e-07
-3.15744e-07
2.07957e-07
-3.1682e-07
-2.95755e-07
2.00224e-07
-4.17581e-07
-2.65622e-07
1.84735e-07
-4.98458e-07
-2.23419e-07
1.50525e-07
-5.424e-07
-1.72764e-07
9.4686e-08
-5.01771e-07
-1.10456e-07
-1.7398e-08
-4.4269e-07
-7.25308e-08
-5.15435e-08
-3.46091e-07
-1.04021e-07
-6.39391e-08
-2.60925e-07
-9.08639e-08
-5.74646e-08
-1.92155e-07
-7.30542e-08
-4.8844e-08
-1.37872e-07
-5.73967e-08
-4.01992e-08
-9.37131e-08
-4.56979e-08
-3.39342e-08
-5.56392e-08
-3.77077e-08
-3.01697e-08
-2.23991e-08
-3.27446e-08
-2.66442e-08
-2.89661e-08
-1.66358e-08
1.23716e-08
-1.9614e-08
-9.95734e-09
3.07987e-08
-2.21297e-08
-1.57064e-08
5.14826e-08
-2.53599e-08
-1.75449e-08
7.48005e-08
-3.06477e-08
-1.94204e-08
1.02855e-07
-3.87639e-08
-2.27952e-08
1.3848e-07
-5.08035e-08
-2.78799e-08
1.85716e-07
-6.86228e-08
-3.47037e-08
2.50383e-07
-9.44667e-08
-4.31491e-08
3.38688e-07
-1.29325e-07
-5.08732e-08
4.47066e-07
-1.59273e-07
-5.50656e-08
4.705e-07
-6.00144e-08
-3.84398e-08
4.94655e-07
-1.31399e-07