/*--------------------------------*- C++ -*----------------------------------*\
| =========                 |                                                 |
| \\      /  F ield         | OpenFOAM: The Open Source CFD Toolbox           |
|  \\    /   O peration     | Version:  2112                                  |
|   \\  /    A nd           | Website:  www.openfoam.com                      |
|    \\/     M anipulation  |                                                 |
\*---------------------------------------------------------------------------*/
FoamFile
{
    version     2.0;
    format      ascii;
    arch        "LSB;label=32;scalar=64";
    class       volVectorField;
    location    "0.5";
    object      U;
}
// * * * * * * * * * * * * * * * * * * * * * * * * * * * * * * * * * * * * * //

dimensions      [0 1 -1 0 0 0 0];

internalField   nonuniform List<vector> 
64906
(
(8.52393e-07 2.37199e-06 -3.27467e-06)
(3.18136e-06 2.28678e-06 -3.44092e-06)
(5.7229e-06 2.28492e-06 -3.45901e-06)
(8.21913e-06 2.44271e-06 -3.5706e-06)
(1.06203e-05 2.72116e-06 -3.7815e-06)
(1.29034e-05 3.09911e-06 -4.07646e-06)
(1.50538e-05 3.57404e-06 -4.448e-06)
(1.70201e-05 4.1612e-06 -4.8891e-06)
(1.87423e-05 4.86318e-06 -5.39813e-06)
(2.00603e-05 5.72354e-06 -5.95456e-06)
(2.0841e-05 6.69014e-06 -6.55521e-06)
(2.08089e-05 7.83184e-06 -7.15534e-06)
(1.98083e-05 8.92714e-06 -7.74444e-06)
(1.79094e-05 9.96997e-06 -8.27572e-06)
(1.51671e-05 1.08556e-05 -8.73661e-06)
(1.17487e-05 1.15648e-05 -9.10029e-06)
(7.81618e-06 1.20548e-05 -9.35705e-06)
(3.57732e-06 1.23114e-05 -9.496e-06)
(-7.59229e-07 1.23228e-05 -9.5137e-06)
(-4.97216e-06 1.20891e-05 -9.41009e-06)
(-8.85132e-06 1.16224e-05 -9.18913e-06)
(-1.21895e-05 1.09372e-05 -8.86209e-06)
(-1.48252e-05 1.00774e-05 -8.43893e-06)
(-1.65914e-05 9.06259e-06 -7.94712e-06)
(-1.7437e-05 8.00007e-06 -7.39944e-06)
(-1.72936e-05 6.89525e-06 -6.84408e-06)
(-1.63238e-05 5.97466e-06 -6.29188e-06)
(-1.48072e-05 5.16589e-06 -5.7902e-06)
(-1.2875e-05 4.52619e-06 -5.3444e-06)
(-1.06878e-05 4.01666e-06 -4.98132e-06)
(-8.30055e-06 3.65021e-06 -4.71535e-06)
(-5.77564e-06 3.44558e-06 -4.57695e-06)
(-3.2043e-06 3.45003e-06 -4.56411e-06)
(-7.5241e-07 3.53981e-06 -4.37101e-06)
(6.37424e-07 7.26288e-06 -3.57397e-06)
(3.00216e-06 7.50084e-06 -5.06973e-06)
(6.13077e-06 7.75992e-06 -5.33003e-06)
(9.02144e-06 8.35148e-06 -5.54004e-06)
(1.17262e-05 9.25707e-06 -5.89984e-06)
(1.42834e-05 1.04568e-05 -6.40066e-06)
(1.67122e-05 1.19571e-05 -7.03251e-06)
(1.89626e-05 1.38038e-05 -7.79064e-06)
(2.1e-05 1.6018e-05 -8.67487e-06)
(2.26062e-05 1.8723e-05 -9.66641e-06)
(2.36684e-05 2.17876e-05 -1.07523e-05)
(2.37451e-05 2.54082e-05 -1.18724e-05)
(2.26081e-05 2.88735e-05 -1.29694e-05)
(2.04376e-05 3.21399e-05 -1.39689e-05)
(1.72748e-05 3.4906e-05 -1.483e-05)
(1.33517e-05 3.71114e-05 -1.55105e-05)
(8.83864e-06 3.8635e-05 -1.59877e-05)
(3.98207e-06 3.94334e-05 -1.62437e-05)
(-9.87192e-07 3.94733e-05 -1.62711e-05)
(-5.81543e-06 3.87553e-05 -1.607e-05)
(-1.02705e-05 3.73131e-05 -1.56485e-05)
(-1.41057e-05 3.51916e-05 -1.50249e-05)
(-1.71513e-05 3.25145e-05 -1.42225e-05)
(-1.91742e-05 2.93442e-05 -1.32844e-05)
(-2.01386e-05 2.59894e-05 -1.22523e-05)
(-1.98641e-05 2.24924e-05 -1.12025e-05)
(-1.85889e-05 1.95797e-05 -1.01935e-05)
(-1.67591e-05 1.7043e-05 -9.2886e-06)
(-1.44785e-05 1.50274e-05 -8.50432e-06)
(-1.19581e-05 1.34192e-05 -7.86921e-06)
(-9.19794e-06 1.2227e-05 -7.40327e-06)
(-6.18841e-06 1.14552e-05 -7.12533e-06)
(-2.87556e-06 1.11099e-05 -6.78435e-06)
(-4.32088e-07 1.07281e-05 -4.82003e-06)
(6.38715e-07 1.3171e-05 -3.60845e-06)
(3.2081e-06 1.42491e-05 -5.31976e-06)
(6.84969e-06 1.50833e-05 -5.62077e-06)
(1.01957e-05 1.63635e-05 -5.84792e-06)
(1.33322e-05 1.81716e-05 -6.25158e-06)
(1.63235e-05 2.05222e-05 -6.82425e-06)
(1.92279e-05 2.34484e-05 -7.55771e-06)
(2.20027e-05 2.70499e-05 -8.45098e-06)
(2.46694e-05 3.13835e-05 -9.51342e-06)
(2.69002e-05 3.67373e-05 -1.07237e-05)
(2.86368e-05 4.28625e-05 -1.20816e-05)
(2.90049e-05 5.03089e-05 -1.34886e-05)
(2.75994e-05 5.73411e-05 -1.48786e-05)
(2.49074e-05 6.39338e-05 -1.6137e-05)
(2.09591e-05 6.94752e-05 -1.7219e-05)
(1.61171e-05 7.38827e-05 -1.80672e-05)
(1.05638e-05 7.6921e-05 -1.86593e-05)
(4.60987e-06 7.85119e-05 -1.89738e-05)
(-1.48097e-06 7.85917e-05 -1.90026e-05)
(-7.40524e-06 7.71606e-05 -1.87459e-05)
(-1.28975e-05 7.4284e-05 -1.82123e-05)
(-1.76456e-05 7.00418e-05 -1.74238e-05)
(-2.14671e-05 6.46745e-05 -1.64034e-05)
(-2.39951e-05 5.82679e-05 -1.52095e-05)
(-2.52069e-05 5.14494e-05 -1.38874e-05)
(-2.46098e-05 4.42402e-05 -1.25546e-05)
(-2.26268e-05 3.84109e-05 -1.12774e-05)
(-2.01386e-05 3.33788e-05 -1.01597e-05)
(-1.71805e-05 2.94195e-05 -9.20473e-06)
(-1.40666e-05 2.62546e-05 -8.44668e-06)
(-1.07204e-05 2.38604e-05 -7.90065e-06)
(-7.11152e-06 2.217e-05 -7.58382e-06)
(-3.12424e-06 2.10576e-05 -7.18034e-06)
(-4.21636e-07 1.95179e-05 -4.91907e-06)
(8.27308e-07 1.88759e-05 -3.69959e-06)
(3.85101e-06 2.06022e-05 -5.4631e-06)
(8.14386e-06 2.19732e-05 -5.76505e-06)
(1.21365e-05 2.39701e-05 -6.00714e-06)
(1.5931e-05 2.67292e-05 -6.45953e-06)
(1.96134e-05 3.02943e-05 -7.11485e-06)
(2.32979e-05 3.47281e-05 -7.97035e-06)
(2.69579e-05 4.02053e-05 -9.03331e-06)
(3.07472e-05 4.68462e-05 -1.03314e-05)
(3.41418e-05 5.5259e-05 -1.184e-05)
(3.72899e-05 6.50531e-05 -1.35903e-05)
(3.8268e-05 7.77407e-05 -1.54155e-05)
(3.62756e-05 8.93595e-05 -1.72362e-05)
(3.26117e-05 0.000100149 -1.88666e-05)
(2.72595e-05 0.000109085 -2.02649e-05)
(2.08271e-05 0.000116169 -2.13459e-05)
(1.34894e-05 0.00012103 -2.20969e-05)
(5.66495e-06 0.000123569 -2.24912e-05)
(-2.33598e-06 0.000123689 -2.25208e-05)
(-1.01296e-05 0.000121389 -2.2186e-05)
(-1.74034e-05 0.000116769 -2.14949e-05)
(-2.37348e-05 0.000109928 -2.04751e-05)
(-2.8948e-05 0.000101246 -1.91394e-05)
(-3.24237e-05 9.07241e-05 -1.75746e-05)
(-3.41913e-05 7.94144e-05 -1.58222e-05)
(-3.29319e-05 6.70656e-05 -1.40727e-05)
(-2.94851e-05 5.77179e-05 -1.24036e-05)
(-2.57875e-05 4.97724e-05 -1.09911e-05)
(-2.16393e-05 4.36701e-05 -9.80509e-06)
(-1.75498e-05 3.88117e-05 -8.88705e-06)
(-1.32932e-05 3.512e-05 -8.23924e-06)
(-8.82137e-06 3.24511e-05 -7.87951e-06)
(-3.9702e-06 3.06058e-05 -7.46395e-06)
(-6.63289e-07 2.81478e-05 -5.11168e-06)
(1.1544e-06 2.43623e-05 -3.86054e-06)
(4.84755e-06 2.66536e-05 -5.75001e-06)
(1.0045e-05 2.85606e-05 -6.08469e-06)
(1.49357e-05 3.1329e-05 -6.36938e-06)
(1.96562e-05 3.51375e-05 -6.90924e-06)
(2.43235e-05 4.00486e-05 -7.70182e-06)
(2.91396e-05 4.61505e-05 -8.75575e-06)
(3.41205e-05 5.37012e-05 -1.00951e-05)
(3.97208e-05 6.29175e-05 -1.17807e-05)
(4.51018e-05 7.49839e-05 -1.37879e-05)
(5.11093e-05 8.94276e-05 -1.62167e-05)
(5.32999e-05 0.000110286 -1.87802e-05)
(4.99984e-05 0.000128371 -2.13555e-05)
(4.46247e-05 0.000144888 -2.36333e-05)
(3.69727e-05 0.000158296 -2.55849e-05)
(2.80576e-05 0.0001689 -2.70619e-05)
(1.79615e-05 0.000176138 -2.80856e-05)
(7.2685e-06 0.000179909 -2.86167e-05)
(-3.65953e-06 0.000180071 -2.86485e-05)
(-1.43214e-05 0.000176624 -2.81812e-05)
(-2.43525e-05 0.000169709 -2.72216e-05)
(-3.31606e-05 0.000159427 -2.58096e-05)
(-4.06614e-05 0.000146347 -2.39238e-05)
(-4.58157e-05 0.000130168 -2.17147e-05)
(-4.88523e-05 0.000112476 -1.92092e-05)
(-4.62954e-05 9.20378e-05 -1.67249e-05)
(-3.99129e-05 7.82193e-05 -1.43793e-05)
(-3.41821e-05 6.67601e-05 -1.24756e-05)
(-2.81385e-05 5.82375e-05 -1.09104e-05)
(-2.26126e-05 5.14749e-05 -9.73088e-06)
(-1.70538e-05 4.63226e-05 -8.91126e-06)
(-1.13703e-05 4.25674e-05 -8.46101e-06)
(-5.29925e-06 3.99598e-05 -7.98211e-06)
(-1.09161e-06 3.66699e-05 -5.42069e-06)
(1.60029e-06 2.95188e-05 -4.08186e-06)
(6.19632e-06 3.23508e-05 -6.15705e-06)
(1.26023e-05 3.48309e-05 -6.55095e-06)
(1.86916e-05 3.84608e-05 -6.90167e-06)
(2.46484e-05 4.34622e-05 -7.56444e-06)
(3.06263e-05 4.99087e-05 -8.54713e-06)
(3.69504e-05 5.79016e-05 -9.87672e-06)
(4.37246e-05 6.7754e-05 -1.16076e-05)
(5.20281e-05 7.98002e-05 -1.3855e-05)
(6.06426e-05 9.61759e-05 -1.6602e-05)
(7.25678e-05 0.000116432 -2.00536e-05)
(7.71877e-05 0.0001515 -2.37754e-05)
(7.08674e-05 0.000179182 -2.75522e-05)
(6.25318e-05 0.000203678 -3.08544e-05)
(5.12686e-05 0.000223092 -3.36913e-05)
(3.86665e-05 0.000238434 -3.57614e-05)
(2.4497e-05 0.000248862 -3.7198e-05)
(9.59804e-06 0.000254283 -3.79355e-05)
(-5.62042e-06 0.000254495 -3.79712e-05)
(-2.04903e-05 0.000249493 -3.73051e-05)
(-3.45986e-05 0.00023948 -3.59397e-05)
(-4.70939e-05 0.000224541 -3.39414e-05)
(-5.82012e-05 0.000205526 -3.11754e-05)
(-6.62839e-05 0.000181422 -2.79467e-05)
(-7.22977e-05 0.000154199 -2.42413e-05)
(-6.7165e-05 0.000119583 -2.06025e-05)
(-5.47535e-05 0.000100213 -1.72352e-05)
(-4.57673e-05 8.45757e-05 -1.46024e-05)
(-3.69235e-05 7.33602e-05 -1.24864e-05)
(-2.94608e-05 6.44416e-05 -1.09354e-05)
(-2.21671e-05 5.75931e-05 -9.87366e-06)
(-1.48622e-05 5.25716e-05 -9.28858e-06)
(-7.13558e-06 4.90995e-05 -8.70179e-06)
(-1.68997e-06 4.49727e-05 -5.8347e-06)
(2.17723e-06 3.42273e-05 -4.34804e-06)
(7.93374e-06 3.76014e-05 -6.65735e-06)
(1.58983e-05 4.07223e-05 -7.13034e-06)
(2.35417e-05 4.53464e-05 -7.56628e-06)
(3.11013e-05 5.17521e-05 -8.38419e-06)
(3.87625e-05 6.00179e-05 -9.60756e-06)
(4.6985e-05 7.0223e-05 -1.12885e-05)
(5.60181e-05 8.25453e-05 -1.3533e-05)
(6.81299e-05 9.73177e-05 -1.65464e-05)
(8.16536e-05 0.000117435 -2.03065e-05)
(0.000106188 0.000143785 -2.51674e-05)
(0.000115836 0.000205206 -3.05847e-05)
(0.000102097 0.000246964 -3.6092e-05)
(8.85107e-05 0.000282332 -4.09091e-05)
(7.1721e-05 0.000309881 -4.50995e-05)
(5.38225e-05 0.000331749 -4.79612e-05)
(3.38074e-05 0.000346598 -4.99721e-05)
(1.29003e-05 0.000354302 -5.09963e-05)
(-8.4486e-06 0.000354574 -5.1038e-05)
(-2.93329e-05 0.000347408 -5.00973e-05)
(-4.93002e-05 0.000333086 -4.81688e-05)
(-6.71066e-05 0.000311715 -4.53895e-05)
(-8.37567e-05 0.000284635 -4.1277e-05)
(-9.70637e-05 0.000249684 -3.65394e-05)
(-0.000110478 0.000208397 -3.11031e-05)
(-0.000100039 0.000147345 -2.57697e-05)
(-7.48437e-05 0.000122349 -2.09913e-05)
(-6.10233e-05 0.000103068 -1.73581e-05)
(-4.82711e-05 8.9225e-05 -1.44886e-05)
(-3.83753e-05 7.7942e-05 -1.24485e-05)
(-2.88845e-05 6.90485e-05 -1.10765e-05)
(-1.94782e-05 6.24708e-05 -1.03175e-05)
(-9.57501e-06 5.79461e-05 -9.58711e-06)
(-2.49231e-06 5.29173e-05 -6.33264e-06)
(2.90533e-06 3.83015e-05 -4.64764e-06)
(1.01197e-05 4.21987e-05 -7.23581e-06)
(2.00554e-05 4.60161e-05 -7.80448e-06)
(2.96935e-05 5.17591e-05 -8.34133e-06)
(3.93167e-05 5.97951e-05 -9.34314e-06)
(4.90968e-05 7.02265e-05 -1.08553e-05)
(5.9479e-05 8.30962e-05 -1.29633e-05)
(7.08165e-05 9.81491e-05 -1.58753e-05)
(8.68357e-05 0.000115192 -1.99334e-05)
(0.000106473 0.000137804 -2.52715e-05)
(0.000158069 0.000166434 -3.10131e-05)
(0.000178471 0.000281669 -3.84209e-05)
(0.000147367 0.000343288 -4.65885e-05)
(0.000125301 0.000391901 -5.36713e-05)
(0.000100649 0.000429748 -5.98998e-05)
(7.53653e-05 0.00046003 -6.36481e-05)
(4.70408e-05 0.000480731 -6.6354e-05)
(1.75718e-05 0.00049147 -6.77295e-05)
(-1.25117e-05 0.000491822 -6.77798e-05)
(-4.19695e-05 0.00048178 -6.65049e-05)
(-7.02742e-05 0.000461753 -6.3897e-05)
(-9.5508e-05 0.000432092 -6.02466e-05)
(-0.000120085 0.000394793 -5.41052e-05)
(-0.000141897 0.000346578 -4.71096e-05)
(-0.00017275 0.00028537 -3.90169e-05)
(-0.000150979 0.000170135 -3.16785e-05)
(-9.84278e-05 0.000143839 -2.60124e-05)
(-7.88209e-05 0.00012206 -2.08175e-05)
(-6.2049e-05 0.000105946 -1.69169e-05)
(-4.96338e-05 9.19504e-05 -1.42388e-05)
(-3.75949e-05 8.0496e-05 -1.2489e-05)
(-2.55208e-05 7.19811e-05 -1.15216e-05)
(-1.27911e-05 6.61801e-05 -1.06164e-05)
(-3.56417e-06 6.02066e-05 -6.8921e-06)
(3.78966e-06 4.15252e-05 -4.97458e-06)
(1.27791e-05 4.59179e-05 -7.88347e-06)
(2.5139e-05 5.04938e-05 -8.56537e-06)
(3.72912e-05 5.75286e-05 -9.22081e-06)
(4.95658e-05 6.75844e-05 -1.04376e-05)
(6.20658e-05 8.09287e-05 -1.22862e-05)
(7.49231e-05 9.77361e-05 -1.48912e-05)
(8.815e-05 0.00011658 -1.86205e-05)
(0.000107475 0.000136121 -2.42305e-05)
(0.000128757 0.000149324 -3.0924e-05)
(0.000232803 0.000148964 -3.91265e-05)
(0.000278007 0.000376655 -4.3196e-05)
(0.000207965 0.000464719 -5.36865e-05)
(0.00017414 0.000528601 -6.3708e-05)
(0.000139714 0.00058075 -7.24126e-05)
(0.000104756 0.000622678 -7.66671e-05)
(6.52266e-05 0.000651612 -7.99683e-05)
(2.39852e-05 0.00066653 -8.1652e-05)
(-1.81338e-05 0.000666985 -8.17109e-05)
(-5.93822e-05 0.00065297 -8.01446e-05)
(-9.89387e-05 0.000624915 -7.69564e-05)
(-0.00013393 0.000583797 -7.28161e-05)
(-0.00016844 0.000532333 -6.42054e-05)
(-0.00020213 0.000468859 -5.42821e-05)
(-0.000272307 0.000380889 -4.38582e-05)
(-0.000224596 0.000151836 -3.99363e-05)
(-0.000119058 0.000156615 -3.17195e-05)
(-9.86896e-05 0.000144179 -2.51775e-05)
(-7.84331e-05 0.000125429 -1.97459e-05)
(-6.38387e-05 0.000107571 -1.62877e-05)
(-4.88108e-05 9.22193e-05 -1.41021e-05)
(-3.33034e-05 8.09794e-05 -1.2896e-05)
(-1.69336e-05 7.35001e-05 -1.17833e-05)
(-4.9426e-06 6.64762e-05 -7.50976e-06)
(4.85394e-06 4.35988e-05 -5.31212e-06)
(1.59812e-05 4.83714e-05 -8.58166e-06)
(3.13279e-05 5.36166e-05 -9.38823e-06)
(4.67546e-05 6.18565e-05 -1.0169e-05)
(6.27158e-05 7.39275e-05 -1.16115e-05)
(7.92674e-05 9.04977e-05 -1.3805e-05)
(9.5262e-05 0.00011218 -1.68687e-05)
(0.000109827 0.000137161 -2.15711e-05)
(0.00012036 0.000158305 -2.80906e-05)
(0.000100463 0.000131127 -3.81575e-05)
(0.000282535 0.0001464 -4.92044e-05)
(0.000399294 0.000567972 -3.98664e-05)
(0.000274942 0.00064695 -5.0312e-05)
(0.00023769 0.000705839 -6.11568e-05)
(0.000194488 0.000769574 -7.02877e-05)
(0.000146264 0.000821932 -7.33621e-05)
(9.09558e-05 0.000859723 -7.62463e-05)
(3.29715e-05 0.000879232 -7.77837e-05)
(-2.60977e-05 0.000879818 -7.78427e-05)
(-8.41021e-05 0.000861474 -7.64233e-05)
(-0.000139482 0.000824829 -7.36477e-05)
(-0.000187848 0.000773547 -7.06909e-05)
(-0.000231369 0.000710723 -6.1642e-05)
(-0.000268958 0.000652211 -5.08851e-05)
(-0.000395219 0.000571879 -4.05794e-05)
(-0.000274136 0.000148935 -5.02449e-05)
(-8.92055e-05 0.000142121 -3.89102e-05)
(-0.000111276 0.000168757 -2.90947e-05)
(-9.93646e-05 0.00014729 -2.27913e-05)
(-8.2982e-05 0.000122863 -1.83951e-05)
(-6.4162e-05 0.000102529 -1.58215e-05)
(-4.37193e-05 8.8159e-05 -1.43869e-05)
(-2.24237e-05 7.89358e-05 -1.30522e-05)
(-6.78106e-06 7.09943e-05 -8.13648e-06)
(6.02785e-06 4.42906e-05 -5.6642e-06)
(1.95418e-05 4.9315e-05 -9.32387e-06)
(3.82781e-05 5.51311e-05 -1.02774e-05)
(5.75745e-05 6.4562e-05 -1.12159e-05)
(7.82138e-05 7.90545e-05 -1.29441e-05)
(0.00010041 0.000100672 -1.55386e-05)
(0.000122332 0.000133202 -1.90345e-05)
(0.000139203 0.000181691 -2.33604e-05)
(0.000124843 0.000248747 -3.06851e-05)
(0.000120367 0.000286176 -4.08187e-05)
(0.000194967 0.000523259 2.30757e-05)
(0.000251544 0.000684863 1.17128e-05)
(0.00028696 0.000796135 1.05897e-05)
(0.000256429 0.000895726 1.47082e-05)
(0.000195926 0.00096879 1.52778e-05)
(0.000123222 0.0010185 1.56091e-05)
(4.43247e-05 0.0010433 1.57401e-05)
(-3.61197e-05 0.00104397 1.57371e-05)
(-0.00011505 0.00102054 1.55993e-05)
(-0.000187869 0.000972215 1.52669e-05)
(-0.000248627 0.000900604 1.46907e-05)
(-0.000279858 0.000802597 1.05993e-05)
(-0.00024617 0.000692911 1.16156e-05)
(-0.000191433 0.000531803 2.26785e-05)
(-0.000116884 0.000295161 -4.08454e-05)
(-0.00011893 0.000258697 -3.15825e-05)
(-0.000129531 0.000191735 -2.46438e-05)
(-0.000109374 0.000143966 -2.06754e-05)
(-8.35696e-05 0.000112875 -1.77592e-05)
(-5.63738e-05 9.35677e-05 -1.60653e-05)
(-2.89276e-05 8.21251e-05 -1.44516e-05)
(-8.90771e-06 7.32541e-05 -8.81791e-06)
(7.3316e-06 4.33151e-05 -6.00184e-06)
(2.35172e-05 4.82847e-05 -1.00671e-05)
(4.62326e-05 5.4127e-05 -1.11599e-05)
(7.06535e-05 6.36612e-05 -1.22358e-05)
(9.88457e-05 7.84276e-05 -1.42112e-05)
(0.000133661 0.000100731 -1.7137e-05)
(0.000178556 0.000135006 -2.09262e-05)
(0.00024269 0.000187963 -2.51546e-05)
(0.000328623 0.000268575 -2.76774e-05)
(0.000503504 0.000356377 -2.58115e-05)
(0.000519861 0.000122584 1.23059e-05)
(0.000432651 0.000278206 1.21861e-05)
(0.000496342 0.000526468 7.89919e-05)
(0.000448852 0.000678307 0.000120183)
(0.000371146 0.000792455 0.000147268)
(0.00027168 0.000870917 0.000159743)
(0.000167012 0.00092149 0.000166776)
(5.89523e-05 0.000946164 0.00016975)
(-4.93352e-05 0.00094679 0.000169794)
(-0.000157371 0.000923387 0.000166909)
(-0.000262008 0.000874141 0.000159981)
(-0.000361388 0.000797124 0.00014762)
(-0.000438997 0.000684673 0.000120742)
(-0.000486142 0.000534847 7.9735e-05)
(-0.000420771 0.000288493 1.33807e-05)
(-0.000511072 0.000125407 1.30368e-05)
(-0.00049821 0.000361198 -2.5884e-05)
(-0.000320358 0.00027621 -2.84228e-05)
(-0.00023169 0.000196896 -2.63534e-05)
(-0.000164148 0.000145178 -2.26341e-05)
(-0.000114778 0.000112542 -1.95598e-05)
(-7.39767e-05 9.2621e-05 -1.77112e-05)
(-3.74121e-05 8.09415e-05 -1.58666e-05)
(-1.1652e-05 7.20644e-05 -9.4464e-06)
(8.51821e-06 4.06394e-05 -6.3383e-06)
(2.71245e-05 4.5228e-05 -1.07937e-05)
(5.33238e-05 5.04991e-05 -1.20437e-05)
(8.18524e-05 5.89234e-05 -1.33033e-05)
(0.000115302 7.15093e-05 -1.56257e-05)
(0.00015719 8.93949e-05 -1.91249e-05)
(0.000211371 0.000114115 -2.37492e-05)
(0.000286866 0.000146521 -2.9439e-05)
(0.000384768 0.000183664 -3.39804e-05)
(0.00053998 0.000209158 -3.64954e-05)
(0.000607783 0.000135282 -2.12356e-05)
(0.00062755 0.00026596 -3.26825e-06)
(0.000641784 0.000400661 8.55401e-05)
(0.000554846 0.00050203 0.000127879)
(0.000451548 0.000584586 0.00015553)
(0.000326739 0.000643357 0.000169229)
(0.000199447 0.000682024 0.000176582)
(6.99367e-05 0.000701149 0.000179568)
(-5.91884e-05 0.000701672 0.000179605)
(-0.000188658 0.000683598 0.000176694)
(-0.000315885 0.000645998 0.000169433)
(-0.00044055 0.000588315 0.00015584)
(-0.000543741 0.00050687 0.00012839)
(-0.000630424 0.000406446 8.62386e-05)
(-0.000615867 0.0002722 -1.86699e-06)
(-0.000598087 0.000138741 -2.06066e-05)
(-0.000531932 0.000215044 -3.65662e-05)
(-0.000375243 0.000190835 -3.46723e-05)
(-0.000274743 0.000154772 -3.0657e-05)
(-0.000195544 0.000123584 -2.55538e-05)
(-0.000136301 0.000100473 -2.1746e-05)
(-8.7498e-05 8.48684e-05 -1.94714e-05)
(-4.42507e-05 7.51743e-05 -1.72874e-05)
(-1.38772e-05 6.72959e-05 -1.01169e-05)
(9.58717e-06 3.65047e-05 -6.64084e-06)
(3.03496e-05 4.05429e-05 -1.14474e-05)
(5.96152e-05 4.50441e-05 -1.28279e-05)
(9.16403e-05 5.212e-05 -1.42275e-05)
(0.000129322 6.24433e-05 -1.68076e-05)
(0.000176339 7.66157e-05 -2.07113e-05)
(0.000236276 9.51692e-05 -2.59014e-05)
(0.000316473 0.000118103 -3.24776e-05)
(0.00041538 0.000142648 -3.84722e-05)
(0.00054941 0.000164187 -4.35398e-05)
(0.000645415 0.00015216 -3.31707e-05)
(0.000724113 0.000220543 -1.09257e-05)
(0.000735465 0.000301611 7.84862e-05)
(0.000634161 0.000372515 0.000118644)
(0.000513372 0.000432488 0.000145612)
(0.00036971 0.000476218 0.000157719)
(0.000225108 0.000505526 0.000164119)
(7.86913e-05 0.000520169 0.000166608)
(-6.6972e-05 0.000520616 0.000166633)
(-0.000213343 0.000506869 0.000164197)
(-0.000357876 0.000478451 0.000157866)
(-0.000501396 0.000435592 0.000145842)
(-0.00062216 0.00037646 0.00011906)
(-0.000723362 0.000306233 7.90649e-05)
(-0.000712661 0.000225667 -9.69855e-06)
(-0.00063558 0.000156451 -3.26411e-05)
(-0.000540112 0.000169585 -4.35448e-05)
(-0.000404789 0.000148967 -3.91471e-05)
(-0.00030319 0.000125435 -3.37301e-05)
(-0.000219041 0.000103653 -2.78037e-05)
(-0.000153533 8.65992e-05 -2.35136e-05)
(-9.88002e-05 7.44892e-05 -2.09587e-05)
(-5.00894e-05 6.67117e-05 -1.85215e-05)
(-1.58204e-05 5.99769e-05 -1.06953e-05)
(1.04488e-05 3.11422e-05 -6.91395e-06)
(3.29439e-05 3.44779e-05 -1.20178e-05)
(6.46167e-05 3.80443e-05 -1.3512e-05)
(9.92292e-05 4.35448e-05 -1.50366e-05)
(0.000139797 5.13759e-05 -1.78447e-05)
(0.000189934 6.17814e-05 -2.21064e-05)
(0.000252991 7.48195e-05 -2.78084e-05)
(0.000335181 9.03531e-05 -3.51205e-05)
(0.000434966 0.000106635 -4.21435e-05)
(0.000562446 0.000123774 -4.83391e-05)
(0.000673423 0.000131774 -3.90591e-05)
(0.000780674 0.000172779 -1.8901e-05)
(0.000794654 0.000223545 6.99576e-05)
(0.000686215 0.000270003 0.000107875)
(0.000555552 0.00031065 0.00013344)
(0.000399997 0.000341346 0.000144117)
(0.000243523 0.000362301 0.000149662)
(8.50685e-05 0.000372925 0.000151698)
(-7.2527e-05 0.000373317 0.000151714)
(-0.000230947 0.000363469 0.00014971)
(-0.000387379 0.000343267 0.000144213)
(-0.000542837 0.000313279 0.0001336)
(-0.000673576 0.000273279 0.000108203)
(-0.00078204 0.000227328 7.04322e-05)
(-0.000769082 0.000176975 -1.77612e-05)
(-0.000663257 0.000135924 -3.85895e-05)
(-0.000552316 0.000128627 -4.83673e-05)
(-0.000423507 0.000112184 -4.28559e-05)
(-0.000320893 9.67251e-05 -3.64349e-05)
(-0.000234509 8.21724e-05 -2.98121e-05)
(-0.000165449 7.04126e-05 -2.50711e-05)
(-0.000106942 6.17363e-05 -2.2254e-05)
(-5.4373e-05 5.59885e-05 -1.95925e-05)
(-1.72451e-05 5.06244e-05 -1.12309e-05)
(1.11135e-05 2.48782e-05 -7.14012e-06)
(3.49387e-05 2.74539e-05 -1.24803e-05)
(6.8437e-05 3.00921e-05 -1.40602e-05)
(0.000104952 3.41062e-05 -1.56748e-05)
(0.000147557 3.97421e-05 -1.86465e-05)
(0.000199785 4.71082e-05 -2.31587e-05)
(0.000264871 5.61718e-05 -2.92133e-05)
(0.000348421 6.68852e-05 -3.70095e-05)
(0.000449371 7.83699e-05 -4.46881e-05)
(0.000576094 9.14884e-05 -5.163e-05)
(0.000695502 0.000103092 -4.31374e-05)
(0.000816372 0.000129302 -2.41184e-05)
(0.000833013 0.000161252 6.45984e-05)
(0.000721544 0.000191822 0.000101523)
(0.000584894 0.000219096 0.000126416)
(0.000421488 0.000240163 0.000136326)
(0.000256756 0.000254731 0.000141386)
(8.97296e-05 0.000262221 0.000143165)
(-7.64486e-05 0.000262581 0.000143175)
(-0.000243461 0.0002558 0.000141417)
(-0.000408191 0.000241906 0.000136395)
(-0.000571562 0.000221451 0.000126536)
(-0.000708386 0.00019471 0.000101801)
(-0.000819982 0.000164552 6.50131e-05)
(-0.000804527 0.000132935 -2.30399e-05)
(-0.000684987 0.000106878 -4.27218e-05)
(-0.000565389 9.57384e-05 -5.16958e-05)
(-0.00043726 8.31071e-05 -4.54497e-05)
(-0.000333333 7.22327e-05 -3.83888e-05)
(-0.000245374 6.22708e-05 -3.13097e-05)
(-0.000173941 5.41933e-05 -2.6261e-05)
(-0.000112837 4.81506e-05 -2.32648e-05)
(-5.75009e-05 4.40784e-05 -2.04429e-05)
(-1.82937e-05 4.00275e-05 -1.1666e-05)
(1.15721e-05 1.79835e-05 -7.31732e-06)
(3.63197e-05 1.97569e-05 -1.28291e-05)
(7.10719e-05 2.14768e-05 -1.44699e-05)
(0.000108862 2.40647e-05 -1.61478e-05)
(0.000152797 2.76702e-05 -1.92331e-05)
(0.000206363 3.23476e-05 -2.39166e-05)
(0.000272771 3.80802e-05 -3.02084e-05)
(0.000357396 4.49008e-05 -3.83173e-05)
(0.000459639 5.24897e-05 -4.64013e-05)
(0.000587335 6.15857e-05 -5.37837e-05)
(0.000711364 7.11879e-05 -4.57851e-05)
(0.00083893 8.72674e-05 -2.73285e-05)
(0.000857336 0.000106584 6.15984e-05)
(0.00074423 0.000125267 9.8185e-05)
(0.000604005 0.000142061 0.000122814)
(0.000435714 0.000155257 0.00013238)
(0.000265626 0.000164485 0.000137217)
(9.29351e-05 0.00016932 0.000138873)
(-7.89622e-05 0.000169668 0.00013888)
(-0.000251667 0.000165514 0.000137239)
(-0.000421809 0.000156917 0.000132433)
(-0.000590145 0.000144274 0.000122911)
(-0.000730645 0.000127929 9.84324e-05)
(-0.000843977 0.000109576 6.19742e-05)
(-0.000826853 9.04909e-05 -2.62999e-05)
(-0.000700579 7.45513e-05 -4.54219e-05)
(-0.000576253 6.52122e-05 -5.38982e-05)
(-0.000447081 5.64054e-05 -4.72182e-05)
(-0.000341746 4.91934e-05 -3.97612e-05)
(-0.000252548 4.2854e-05 -3.23867e-05)
(-0.000179542 3.77652e-05 -2.71307e-05)
(-0.000116745 3.39573e-05 -2.40124e-05)
(-5.95757e-05 3.13671e-05 -2.1079e-05)
(-1.89829e-05 2.86247e-05 -1.20068e-05)
(1.18357e-05 1.07278e-05 -7.43913e-06)
(3.71216e-05 1.16863e-05 -1.30572e-05)
(7.26029e-05 1.25182e-05 -1.47332e-05)
(0.000111132 1.37559e-05 -1.64467e-05)
(0.000155838 1.54854e-05 -1.95961e-05)
(0.000210195 1.77473e-05 -2.43753e-05)
(0.000277424 2.05707e-05 -3.07988e-05)
(0.000362832 2.4023e-05 -3.90787e-05)
(0.000466064 2.80835e-05 -4.73798e-05)
(0.000594809 3.30888e-05 -5.49969e-05)
(0.000721201 3.88505e-05 -4.72301e-05)
(0.000851801 4.69162e-05 -2.89849e-05)
(0.000871102 5.62537e-05 6.02031e-05)
(0.000757122 6.52592e-05 9.67487e-05)
(0.000614948 7.33337e-05 0.000121325)
(0.000443959 7.97742e-05 0.00013078)
(0.000270844 8.43479e-05 0.000135539)
(9.49218e-05 8.685e-05 0.000137149)
(-8.02633e-05 8.72071e-05 0.000137154)
(-0.000256237 8.53988e-05 0.000135555)
(-0.000429477 8.14546e-05 0.000130822)
(-0.000600615 7.55434e-05 0.000121406)
(-0.000743186 6.78609e-05 9.69732e-05)
(-0.000857512 5.91035e-05 6.0548e-05)
(-0.000839587 4.98726e-05 -2.80037e-05)
(-0.000710283 4.18341e-05 -4.69191e-05)
(-0.000583551 3.6136e-05 -5.51642e-05)
(-0.000453287 3.12051e-05 -4.82524e-05)
(-0.000346886 2.72675e-05 -4.05824e-05)
(-0.0002568 2.3997e-05 -3.30453e-05)
(-0.000182817 2.14441e-05 -2.76742e-05)
(-0.000119013 1.95702e-05 -2.44883e-05)
(-6.07745e-05 1.8296e-05 -2.14917e-05)
(-1.93761e-05 1.68213e-05 -1.22371e-05)
(1.19072e-05 3.34707e-06 -7.50464e-06)
(3.73562e-05 3.48525e-06 -1.31635e-05)
(7.3059e-05 3.43789e-06 -1.48502e-05)
(0.000111822 3.34663e-06 -1.65742e-05)
(0.000156788 3.24075e-06 -1.97425e-05)
(0.000211448 3.15529e-06 -2.45498e-05)
(0.000279047 3.16772e-06 -3.10114e-05)
(0.000364909 3.3688e-06 -3.93408e-05)
(0.000468705 3.96807e-06 -4.77015e-05)
(0.000598102 4.90548e-06 -5.53844e-05)
(0.000725195 6.47245e-06 -4.76612e-05)
(0.000856347 7.26885e-06 -2.94296e-05)
(0.000875719 7.501e-06 5.99218e-05)
(0.000761356 7.5537e-06 9.65411e-05)
(0.000618547 7.47516e-06 0.00012116)
(0.000446749 7.53439e-06 0.000130631)
(0.000272713 7.69565e-06 0.000135394)
(9.57986e-05 7.9899e-06 0.000137005)
(-8.04175e-05 8.38048e-06 0.000137007)
(-0.00025743 8.84213e-06 0.000135403)
(-0.000431685 9.35354e-06 0.000130661)
(-0.000603767 9.83905e-06 0.000121224)
(-0.000747133 1.02758e-05 9.67401e-05)
(-0.000862007 1.03929e-05 6.02323e-05)
(-0.000844137 1.01168e-05 -2.85031e-05)
(-0.000714319 9.17268e-06 -4.74093e-05)
(-0.000586882 7.4558e-06 -5.56116e-05)
(-0.00045595 6.35939e-06 -4.86323e-05)
(-0.000348953 5.6127e-06 -4.09008e-05)
(-0.000258369 5.27509e-06 -3.33136e-05)
(-0.000183957 5.14095e-06 -2.79073e-05)
(-0.000119767 5.11783e-06 -2.47012e-05)
(-6.11608e-05 5.11199e-06 -2.16845e-05)
(-1.94926e-05 4.89822e-06 -1.23577e-05)
(1.17877e-05 -3.9175e-06 -7.51333e-06)
(3.70253e-05 -4.593e-06 -1.31483e-05)
(7.24427e-05 -5.52473e-06 -1.48218e-05)
(0.000110933 -6.96141e-06 -1.65314e-05)
(0.000155646 -8.93913e-06 -1.96741e-05)
(0.000210122 -1.14391e-05 -2.44429e-05)
(0.000277638 -1.43407e-05 -3.08507e-05)
(0.000363632 -1.75134e-05 -3.91105e-05)
(0.0004676 -2.0433e-05 -4.73773e-05)
(0.000597311 -2.3478e-05 -5.49636e-05)
(0.000723563 -2.55122e-05 -4.71082e-05)
(0.000852832 -3.20354e-05 -2.87089e-05)
(0.000871387 -4.13568e-05 6.06941e-05)
(0.000757093 -5.06024e-05 9.74896e-05)
(0.000614925 -5.91261e-05 0.000122236)
(0.000444177 -6.55979e-05 0.000131841)
(0.000271299 -6.99244e-05 0.000136687)
(9.56064e-05 -7.18499e-05 0.000138339)
(-7.94109e-05 -7.1394e-05 0.000138338)
(-0.000255262 -6.85864e-05 0.000136685)
(-0.000428478 -6.3483e-05 0.000131852)
(-0.00059969 -5.63945e-05 0.000122274)
(-0.000742631 -4.75119e-05 9.76501e-05)
(-0.000857674 -3.81625e-05 6.09559e-05)
(-0.000840811 -2.90736e-05 -2.78556e-05)
(-0.000712942 -2.29417e-05 -4.69313e-05)
(-0.000586362 -2.12942e-05 -5.52643e-05)
(-0.000455129 -1.86616e-05 -4.83735e-05)
(-0.00034797 -1.61741e-05 -4.07266e-05)
(-0.000257271 -1.34684e-05 -3.31988e-05)
(-0.000182972 -1.10896e-05 -2.78351e-05)
(-0.000119016 -9.20038e-06 -2.46546e-05)
(-6.07403e-05 -7.90665e-06 -2.16601e-05)
(-1.93345e-05 -6.86099e-06 -1.23694e-05)
(1.14742e-05 -1.08258e-05 -7.46829e-06)
(3.61187e-05 -1.2302e-05 -1.30147e-05)
(7.07286e-05 -1.41442e-05 -1.465e-05)
(0.00010841 -1.6996e-05 -1.63185e-05)
(0.00015231 -2.09932e-05 -1.93878e-05)
(0.000206046 -2.61782e-05 -2.40453e-05)
(0.000272972 -3.24231e-05 -3.02981e-05)
(0.000358814 -3.95171e-05 -3.83544e-05)
(0.000462732 -4.63519e-05 -4.63528e-05)
(0.000593005 -5.32402e-05 -5.36585e-05)
(0.000716617 -5.6801e-05 -4.54422e-05)
(0.000840488 -7.16578e-05 -2.65754e-05)
(0.000857109 -9.26694e-05 6.28691e-05)
(0.000743531 -0.000113012 0.000100092)
(0.000603516 -0.000131458 0.000125142)
(0.000435923 -0.000145335 0.000135087)
(0.000266447 -0.000154653 0.00014014)
(9.43244e-05 -0.000158994 0.0001419)
(-7.71497e-05 -0.00015843 0.000141892)
(-0.000249506 -0.000152992 0.000140117)
(-0.000419467 -0.000142705 0.000135062)
(-0.000587761 -0.000128051 0.00012513)
(-0.000728848 -0.00010919 0.000100186)
(-0.000843528 -8.87777e-05 6.30537e-05)
(-0.000828903 -6.8258e-05 -2.58273e-05)
(-0.000706519 -5.41591e-05 -4.53663e-05)
(-0.000582583 -5.12447e-05 -5.40564e-05)
(-0.000450821 -4.50395e-05 -4.74293e-05)
(-0.000343758 -3.8934e-05 -4.00329e-05)
(-0.000253285 -3.26445e-05 -3.26866e-05)
(-0.000179694 -2.73247e-05 -2.74514e-05)
(-0.000116654 -2.32491e-05 -2.43475e-05)
(-5.94611e-05 -2.05096e-05 -2.1421e-05)
(-1.88864e-05 -1.81723e-05 -1.22756e-05)
(1.09569e-05 -1.71111e-05 -7.37636e-06)
(3.46059e-05 -1.93414e-05 -1.27712e-05)
(6.78421e-05 -2.20941e-05 -1.43448e-05)
(0.000104091 -2.64046e-05 -1.59475e-05)
(0.000146465 -3.25629e-05 -1.88967e-05)
(0.000198692 -4.07595e-05 -2.33685e-05)
(0.000264296 -5.09805e-05 -2.93583e-05)
(0.000349686 -6.297e-05 -3.70533e-05)
(0.000453804 -7.47614e-05 -4.4558e-05)
(0.000586678 -8.57303e-05 -5.13123e-05)
(0.000704972 -8.51367e-05 -4.24945e-05)
(0.000816859 -0.000110831 -2.27002e-05)
(0.000829915 -0.00014914 6.70211e-05)
(0.000718183 -0.000184089 0.000105243)
(0.000582523 -0.000214986 0.000130931)
(0.000420923 -0.000237686 0.000141586)
(0.000257607 -0.000252786 0.00014707)
(9.18183e-05 -0.000259849 0.000149048)
(-7.33984e-05 -0.00025912 0.000149026)
(-0.000239506 -0.000250623 0.000147006)
(-0.00040348 -0.000234234 0.000141492)
(-0.000566097 -0.00021045 0.000130827)
(-0.000703239 -0.000178978 0.000105218)
(-0.000816627 -0.000143911 6.70795e-05)
(-0.000806086 -0.00010649 -2.21122e-05)
(-0.000695753 -8.21854e-05 -4.25665e-05)
(-0.000577059 -8.36802e-05 -5.18546e-05)
(-0.000442746 -7.36711e-05 -4.57477e-05)
(-0.000335558 -6.29244e-05 -3.88131e-05)
(-0.00024566 -5.20855e-05 -3.17904e-05)
(-0.000173589 -4.31887e-05 -2.67734e-05)
(-0.00011236 -3.65844e-05 -2.37963e-05)
(-5.71624e-05 -3.22458e-05 -2.09822e-05)