/*--------------------------------*- C++ -*----------------------------------*\
| =========                 |                                                 |
| \\      /  F ield         | OpenFOAM: The Open Source CFD Toolbox           |
|  \\    /   O peration     | Version:  2112                                  |
|   \\  /    A nd           | Website:  www.openfoam.com                      |
|    \\/     M anipulation  |                                                 |
\*---------------------------------------------------------------------------*/
FoamFile
{
    version     2.0;
    format      ascii;
    arch        "LSB;label=32;scalar=64";
    class       volScalarField;
    location    "1.1";
    object      epsilon;
}
// * * * * * * * * * * * * * * * * * * * * * * * * * * * * * * * * * * * * * //

dimensions      [0 2 -3 0 0 0 0];

internalField   nonuniform List<scalar> 
64906
(
0.00570244
0.00599143
0.00609707
0.00612176
0.00612639
0.00612718
0.00612737
0.00612748
0.00612759
0.00612769
0.00612779
0.00612787
0.00612793
0.00612797
0.00612799
0.006128
0.00612799
0.00612798
0.00612797
0.00612797
0.00612797
0.00612797
0.00612794
0.0061279
0.00612784
0.00612776
0.00612766
0.00612756
0.00612736
0.00612656
0.00612193
0.00609724
0.0059916
0.00570257
0.0059915
0.00862329
0.00959041
0.00984601
0.00990137
0.00991168
0.0099135
0.00991396
0.00991424
0.00991451
0.00991478
0.00991503
0.00991525
0.00991545
0.00991561
0.00991572
0.0099158
0.00991584
0.00991585
0.00991581
0.00991574
0.00991563
0.00991549
0.0099153
0.00991508
0.00991484
0.00991456
0.00991409
0.00991224
0.0099019
0.00984652
0.00959089
0.00862372
0.00599173
0.00609725
0.00959069
0.0110131
0.0114294
0.0115291
0.0115495
0.0115535
0.0115545
0.011555
0.0115556
0.0115563
0.011557
0.0115576
0.0115582
0.0115587
0.0115591
0.0115593
0.0115594
0.0115595
0.0115593
0.0115591
0.0115588
0.0115583
0.0115577
0.0115571
0.0115564
0.0115558
0.0115547
0.0115507
0.0115301
0.0114304
0.011014
0.00959142
0.00609757
0.00612202
0.00984648
0.0114296
0.011914
0.0120353
0.0120612
0.0120664
0.0120678
0.0120687
0.0120695
0.0120704
0.0120716
0.0120727
0.0120738
0.0120747
0.0120753
0.0120758
0.012076
0.012076
0.0120758
0.0120754
0.0120748
0.0120739
0.0120729
0.0120718
0.0120706
0.0120696
0.0120681
0.0120628
0.0120367
0.0119154
0.0114308
0.00984743
0.00612243
0.0061267
0.00990193
0.0115294
0.0120354
0.0121641
0.0121922
0.012198
0.0121995
0.0122001
0.0122002
0.0122006
0.0122025
0.0122047
0.0122065
0.0122079
0.0122089
0.0122095
0.0122098
0.0122098
0.0122095
0.012209
0.012208
0.0122067
0.0122049
0.0122028
0.0122008
0.0122004
0.0121995
0.012194
0.0121659
0.012037
0.0115309
0.00990305
0.00612719
0.00612754
0.00991226
0.0115499
0.0120614
0.0121922
0.012221
0.0122268
0.0122275
0.0122253
0.0122198
0.0122146
0.0122192
0.0122248
0.0122287
0.0122312
0.0122325
0.0122332
0.0122336
0.0122336
0.0122333
0.0122326
0.0122314
0.0122289
0.012225
0.0122195
0.0122149
0.01222
0.0122248
0.0122219
0.012194
0.0120632
0.0115516
0.00991356
0.00612812
0.00612776
0.00991406
0.0115538
0.0120665
0.012198
0.0122268
0.0122315
0.0122274
0.0122108
0.0121755
0.01214
0.0121599
0.0121825
0.0121948
0.0122008
0.0122025
0.0122031
0.0122034
0.0122034
0.0122032
0.0122026
0.012201
0.0121951
0.0121828
0.0121602
0.0121403
0.0121758
0.0122102
0.0122218
0.0121986
0.0120684
0.0115557
0.00991554
0.00612843
0.00612788
0.00991446
0.0115547
0.0120678
0.0121993
0.0122273
0.0122272
0.012204
0.0121287
0.0119654
0.0117877
0.0119011
0.0120059
0.0120526
0.0120699
0.0120726
0.0120728
0.0120729
0.012073
0.0120729
0.0120727
0.0120701
0.0120529
0.0120062
0.0119015
0.011788
0.0119657
0.0121282
0.0121985
0.0121943
0.0120689
0.0115567
0.00991609
0.00612865
0.00612797
0.00991463
0.0115551
0.0120684
0.0121996
0.0122249
0.0122107
0.0121295
0.0118635
0.0112417
0.0104791
0.0110743
0.0115105
0.0116738
0.0117218
0.0117296
0.0117305
0.0117308
0.0117309
0.0117306
0.0117298
0.0117221
0.0116741
0.0115109
0.0110747
0.0104793
0.011242
0.011863
0.012124
0.0121779
0.0120665
0.0115569
0.00991637
0.00612883
0.00612804
0.00991473
0.0115555
0.0120689
0.0121994
0.0122194
0.0121771
0.0119716
0.0112513
0.00935484
0.00678902
0.00908784
0.010528
0.0109811
0.0110888
0.0111111
0.0111158
0.0111169
0.0111169
0.0111159
0.0111113
0.0110891
0.0109815
0.0105286
0.00908853
0.00678898
0.00935506
0.011251
0.0119662
0.0121444
0.012061
0.0115565
0.00991647
0.00612898
0.00612808
0.0099148
0.0115558
0.0120695
0.0121996
0.0122153
0.0121477
0.0118131
0.0105247
0.00680998
0.00667476
0.00951786
0.0103381
0.0105107
0.0105395
0.0105434
0.0105439
0.0105439
0.0105434
0.0105396
0.0105109
0.0103383
0.0095184
0.00667511
0.00681016
0.0105243
0.0118078
0.0121151
0.0120569
0.0115564
0.00991654
0.00612908
0.00612809
0.00991481
0.0115562
0.0120703
0.0122016
0.0122225
0.0121811
0.0119755
0.0112509
0.00934073
0.00678088
0.00900135
0.010417
0.0108579
0.0109621
0.0109716
0.0109688
0.0109672
0.0109671
0.0109687
0.0109715
0.010962
0.0108578
0.010417
0.00900114
0.00678043
0.00934
0.0112501
0.0119699
0.0121483
0.0120638
0.0115579
0.00991666
0.00612911
0.00612807
0.0099148
0.0115565
0.0120711
0.0122037
0.0122306
0.0122182
0.0121373
0.0118653
0.0112224
0.0104133
0.0108977
0.0112161
0.011321
0.0113449
0.0113424
0.0113382
0.0113363
0.0113363
0.0113381
0.0113423
0.0113447
0.0113207
0.0112157
0.0108971
0.0104123
0.0112217
0.0118643
0.0121315
0.0121851
0.0120716
0.0115596
0.00991679
0.00612909
0.00612802
0.00991476
0.0115567
0.0120718
0.0122052
0.0122355
0.0122379
0.0122156
0.0121332
0.0119411
0.0116856
0.011643
0.0115656
0.0115251
0.0115092
0.0115008
0.0114965
0.0114947
0.0114947
0.0114964
0.0115007
0.0115089
0.0115248
0.0115651
0.0116421
0.0116848
0.0119406
0.0121323
0.0122097
0.0122047
0.0120763
0.0115607
0.00991683
0.006129
0.00612794
0.00991472
0.011557
0.0120722
0.0122062
0.0122378
0.0122455
0.0122428
0.0122186
0.0121497
0.0120207
0.0118629
0.0116746
0.011589
0.0115594
0.0115487
0.0115441
0.0115421
0.011542
0.0115439
0.0115485
0.0115591
0.0115886
0.0116741
0.011862
0.0120201
0.0121492
0.0122177
0.0122369
0.0122123
0.0120784
0.0115613
0.00991682
0.00612889
0.00612786
0.00991467
0.0115571
0.0120726
0.0122068
0.0122389
0.0122482
0.0122508
0.0122412
0.0122004
0.0120968
0.0119166
0.0117021
0.0116053
0.011572
0.0115604
0.0115553
0.0115529
0.0115528
0.0115551
0.0115601
0.0115717
0.0116049
0.0117016
0.0119158
0.0120962
0.0122
0.0122402
0.0122449
0.0122149
0.0120794
0.0115617
0.0099168
0.00612875
0.00612776
0.00991463
0.0115572
0.0120729
0.0122072
0.0122395
0.0122493
0.0122531
0.0122467
0.0122116
0.0121126
0.0119286
0.0117083
0.0116092
0.011575
0.0115629
0.0115574
0.0115545
0.0115544
0.0115572
0.0115626
0.0115746
0.0116088
0.0117078
0.0119278
0.0121121
0.0122111
0.0122458
0.0122473
0.012216
0.01208
0.0115619
0.00991677
0.0061286
0.00612767
0.0099146
0.0115573
0.012073
0.0122074
0.0122398
0.0122498
0.0122539
0.0122482
0.0122141
0.0121159
0.0119313
0.0117098
0.0116101
0.0115757
0.0115634
0.0115576
0.0115543
0.0115541
0.0115573
0.0115631
0.0115753
0.0116097
0.0117093
0.0119305
0.0121154
0.0122137
0.0122473
0.0122481
0.0122165
0.0120803
0.0115621
0.00991675
0.00612846
0.00612761
0.00991459
0.0115573
0.0120731
0.0122075
0.0122399
0.0122499
0.0122541
0.0122484
0.0122144
0.0121162
0.0119317
0.0117099
0.0116103
0.0115757
0.0115634
0.0115574
0.0115539
0.0115537
0.0115571
0.011563
0.0115753
0.0116098
0.0117095
0.0119309
0.0121157
0.012214
0.0122475
0.0122483
0.0122166
0.0120804
0.0115622
0.00991675
0.00612837
0.00612761
0.0099146
0.0115573
0.0120731
0.0122074
0.0122398
0.0122498
0.0122537
0.0122475
0.0122125
0.0121137
0.0119296
0.0117089
0.0116095
0.0115751
0.0115628
0.0115569
0.0115534
0.0115532
0.0115565
0.0115624
0.0115747
0.0116091
0.0117084
0.0119289
0.0121132
0.0122122
0.0122466
0.0122479
0.0122165
0.0120804
0.0115622
0.00991677
0.00612838
0.00612767
0.00991465
0.0115573
0.0120729
0.0122072
0.0122395
0.012249
0.0122518
0.0122425
0.012202
0.0120987
0.0119185
0.011703
0.0116059
0.0115723
0.0115602
0.0115545
0.0115514
0.0115513
0.0115542
0.0115598
0.0115719
0.0116055
0.0117026
0.0119178
0.0120983
0.0122018
0.0122417
0.0122461
0.0122158
0.0120801
0.0115621
0.00991683
0.00612848
0.00612776
0.00991471
0.0115572
0.0120727
0.0122068
0.0122386
0.0122466
0.0122442
0.0122206
0.0121522
0.0120238
0.011866
0.0116762
0.0115901
0.0115599
0.0115486
0.0115433
0.0115406
0.0115405
0.0115429
0.0115482
0.0115596
0.0115897
0.0116758
0.0118655
0.0120235
0.0121521
0.0122199
0.0122386
0.0122135
0.0120793
0.0115619
0.0099169
0.00612862
0.00612784
0.00991478
0.0115571
0.0120724
0.0122061
0.0122366
0.0122393
0.0122175
0.0121359
0.0119449
0.0116907
0.0116481
0.0115681
0.0115269
0.0115102
0.0115011
0.0114961
0.0114938
0.0114937
0.0114958
0.0115008
0.0115098
0.0115266
0.0115679
0.0116479
0.0116907
0.011945
0.0121354
0.012212
0.0122064
0.0120775
0.0115614
0.00991697
0.00612875
0.0061279
0.00991486
0.0115569
0.0120719
0.0122048
0.012232
0.01222
0.0121397
0.0118689
0.011228
0.0104214
0.010904
0.0112195
0.0113232
0.0113464
0.0113431
0.0113383
0.0113361
0.011336
0.0113382
0.0113429
0.0113461
0.011323
0.0112195
0.0109043
0.0104218
0.0112283
0.0118686
0.0121344
0.0121872
0.0120731
0.0115605
0.00991701
0.00612886
0.00612794
0.00991491
0.0115567
0.0120712
0.0122028
0.0122241
0.0121832
0.0119783
0.011255
0.00934693
0.00678467
0.00900509
0.0104174
0.0108576
0.0109611
0.01097
0.0109667
0.0109648
0.0109648
0.0109665
0.0109697
0.0109607
0.0108572
0.0104173
0.00900591
0.00678456
0.00934751
0.011255
0.0119733
0.0121508
0.0120656
0.011559
0.00991696
0.00612891
0.00612796
0.00991494
0.0115564
0.0120705
0.012201
0.0122171
0.0121499
0.0118156
0.0105271
0.00681048
0.00666996
0.009506
0.0103238
0.0104942
0.0105215
0.0105245
0.0105246
0.0105244
0.0105241
0.0105207
0.0104927
0.0103211
0.00950211
0.00666787
0.00681024
0.0105269
0.0118108
0.0121177
0.012059
0.0115577
0.00991693
0.00612892
0.00612793
0.00991491
0.0115561
0.01207
0.012201
0.0122215
0.0121798
0.011975
0.0112553
0.0093592
0.00679259
0.00907167
0.0104948
0.0109242
0.011018
0.0110354
0.0110384
0.0110388
0.0110386
0.0110377
0.0110335
0.0110129
0.0109119
0.0104723
0.00905695
0.00678985
0.00935776
0.0112545
0.01197
0.0121477
0.0120635
0.011558
0.00991694
0.00612886
0.00612788
0.00991464
0.0115554
0.012069
0.0122007
0.0122265
0.0122131
0.0121326
0.0118669
0.0112434
0.0104719
0.0110328
0.0114089
0.0114918
0.0114981
0.0114951
0.0114939
0.0114936
0.0114934
0.0114929
0.0114915
0.0114853
0.0114548
0.0113325
0.0109753
0.0104449
0.0112328
0.0118633
0.0121269
0.0121808
0.0120686
0.0115581
0.00991674
0.00612877
0.00612772
0.00991296
0.0115516
0.012064
0.0121956
0.0122241
0.0122248
0.0122024
0.0121265
0.0119576
0.0117583
0.011809
0.0117919
0.0116797
0.0116274
0.0116107
0.0116063
0.0116052
0.011605
0.011605
0.0116056
0.0116078
0.0116151
0.0116379
0.0116884
0.0116974
0.0119345
0.0121193
0.0121958
0.0121925
0.0120668
0.0115547
0.00991503
0.00612855
0.00612692
0.00990272
0.0115312
0.0120381
0.0121677
0.0121966
0.012202
0.0121986
0.0121814
0.0121395
0.0120793
0.0120314
0.0119221
0.0117684
0.0117028
0.0116833
0.0116786
0.0116776
0.0116774
0.0116774
0.0116782
0.0116822
0.0116995
0.0117587
0.0119003
0.0120118
0.0121141
0.0121736
0.0121921
0.0121704
0.0120419
0.0115344
0.00990473
0.0061277
0.00612228
0.00984737
0.0114315
0.0119169
0.012039
0.0120659
0.012072
0.0120735
0.0120713
0.0120618
0.0120407
0.0120018
0.0119246
0.0118253
0.0117787
0.0117639
0.0117606
0.0117602
0.0117602
0.01176
0.0117602
0.0117631
0.0117771
0.0118224
0.0119196
0.0119976
0.0120457
0.0120665
0.0120683
0.0120431
0.0119207
0.0114345
0.00984925
0.00612299
0.00609755
0.00959166
0.011015
0.0114322
0.0115327
0.0115541
0.0115591
0.0115612
0.0115622
0.0115611
0.0115548
0.0115381
0.0115046
0.0114622
0.0114407
0.0114335
0.011432
0.0114319
0.0114319
0.0114317
0.0114317
0.011433
0.01144
0.0114612
0.0115031
0.0115367
0.0115547
0.0115607
0.0115579
0.0115367
0.0114356
0.0110177
0.00959334
0.0060982
0.00599184
0.00862424
0.00959215
0.00984841
0.0099044
0.00991543
0.00991813
0.00991958
0.00992082
0.00992154
0.00992077
0.00991661
0.00990758
0.00989555
0.00988901
0.00988653
0.00988589
0.00988577
0.00988575
0.00988575
0.00988584
0.00988644
0.00988883
0.00989528
0.00990718
0.00991617
0.00992038
0.00992097
0.00991865
0.00990736
0.00985091
0.00959412
0.00862553
0.00599239
0.00570273
0.00599194
0.00609784
0.00612278
0.00612769
0.00612882
0.00612942
0.00613001
0.00613067
0.00613132
0.00613189
0.00613213
0.00613189
0.00613113
0.00613059
0.00613018
0.00612985
0.00612956
0.00612944
0.00612958
0.00612985
0.00613015
0.0061305
0.00613099
0.00613167
0.00613185
0.00613157
0.00613099
0.00613024
0.0061289
0.00612378
0.00609864
0.00599254
0.00570313
0.00725328
0.00868596
0.00926595
0.00942331
0.00945741
0.00946369
0.00946474
0.00946494
0.00946502
0.00946508
0.00946512
0.00946514
0.00946514
0.00946513
0.00946511
0.00946508
0.00946506
0.00946505
0.00946505
0.00946505
0.00946507
0.00946509
0.0094651
0.00946511
0.00946511
0.00946508
0.00946503
0.00946484
0.00946379
0.00945751
0.0094234
0.00926605
0.00868606
0.00725338
0.00868598
0.00923717
0.00990736
0.0101323
0.0101887
0.0102003
0.0102023
0.0102027
0.0102028
0.0102028
0.0102028
0.0102028
0.0102028
0.0102028
0.0102028
0.0102028
0.0102028
0.0102028
0.0102028
0.0102028
0.0102028
0.0102028
0.0102028
0.0102028
0.0102028
0.0102028
0.0102028
0.0102024
0.0102004
0.0101888
0.0101324
0.00990744
0.00923725
0.0086861
0.00926614
0.00990746
0.0107021
0.0109916
0.011071
0.0110888
0.0110923
0.0110929
0.0110931
0.0110932
0.0110933
0.0110934
0.0110936
0.0110937
0.0110938
0.0110938
0.0110939
0.0110939
0.0110939
0.0110939
0.0110939
0.0110938
0.0110937
0.0110936
0.0110935
0.0110934
0.0110932
0.0110925
0.0110891
0.0110712
0.0109918
0.0107023
0.00990764
0.00926639
0.00942363
0.0101325
0.0109917
0.0113145
0.0114064
0.0114279
0.0114323
0.0114331
0.0114334
0.0114334
0.0114335
0.0114338
0.0114341
0.0114344
0.0114346
0.0114348
0.0114349
0.011435
0.011435
0.0114349
0.0114348
0.0114347
0.0114344
0.0114342
0.0114338
0.0114336
0.0114334
0.0114326
0.0114283
0.0114068
0.0113148
0.010992
0.0101328
0.00942401
0.00945782
0.010189
0.0110711
0.0114065
0.0115033
0.0115264
0.0115311
0.0115319
0.0115317
0.011531
0.0115303
0.0115308
0.0115315
0.0115322
0.0115326
0.0115329
0.011533
0.0115331
0.0115331
0.0115331
0.0115329
0.0115327
0.0115322
0.0115316
0.0115308
0.0115303
0.0115309
0.0115309
0.0115267
0.0115038
0.0114069
0.0110715
0.0101893
0.00945831
0.00946415
0.0102005
0.011089
0.011428
0.0115264
0.0115499
0.0115545
0.0115544
0.0115515
0.011546
0.0115409
0.0115423
0.0115453
0.0115472
0.0115482
0.0115486
0.0115487
0.0115488
0.0115488
0.0115488
0.0115486
0.0115482
0.0115473
0.0115453
0.0115424
0.011541
0.0115459
0.0115507
0.011549
0.0115266
0.0114284
0.0110894
0.0102009
0.00946473
0.00946523
0.0102026
0.0110924
0.0114323
0.0115311
0.0115545
0.0115579
0.0115535
0.011539
0.0115121
0.0114883
0.0114951
0.011509
0.0115168
0.0115196
0.0115206
0.0115208
0.0115208
0.0115208
0.0115208
0.0115207
0.0115197
0.0115168
0.0115091
0.0114952
0.0114883
0.0115121
0.0115382
0.011548
0.0115298
0.0114325
0.0110929
0.010203
0.00946589
0.00946544
0.0102029
0.011093
0.0114331
0.0115319
0.0115543
0.0115535
0.0115339
0.0114777
0.0113736
0.0112884
0.0113167
0.011376
0.0114065
0.0114157
0.0114194
0.01142
0.01142
0.01142
0.0114201
0.0114194
0.0114158
0.0114066
0.0113761
0.0113168
0.0112885
0.0113735
0.0114769
0.0115284
0.0115254
0.0114322
0.0110933
0.0102033
0.00946617
0.0094655
0.0102029
0.0110931
0.0114333
0.0115316
0.0115516
0.0115395
0.011479
0.0113078
0.0109915
0.0108324
0.0108382
0.0110347
0.0111342
0.0111612
0.0111733
0.0111761
0.0111765
0.0111765
0.0111762
0.0111734
0.0111613
0.0111343
0.0110348
0.0108383
0.0108325
0.0109915
0.011307
0.0114735
0.0115114
0.0114294
0.0110929
0.0102032
0.00946626
0.0094655
0.0102029
0.0110932
0.0114333
0.0115309
0.0115465
0.0115148
0.0113809
0.0110037
0.0103936
0.0125177
0.0100367
0.0104186
0.0106593
0.0107249
0.010751
0.0107572
0.0107582
0.0107582
0.0107572
0.010751
0.010725
0.0106594
0.0104188
0.0100369
0.0125174
0.0103935
0.0110029
0.0113754
0.0114866
0.0114243
0.011092
0.010203
0.00946624
0.00946547
0.0102028
0.0110932
0.0114333
0.0115304
0.0115431
0.0114971
0.0113148
0.0108947
0.012684
0.0117618
0.010001
0.0102909
0.0104064
0.0104242
0.0104249
0.0104246
0.0104246
0.0104249
0.0104242
0.0104065
0.0102911
0.0100012
0.0117626
0.0126838
0.0108938
0.0113093
0.011469
0.0114207
0.0110914
0.0102028
0.00946616
0.00946539
0.0102027
0.0110932
0.0114336
0.0115314
0.0115473
0.0115156
0.011381
0.0110011
0.0103844
0.0124624
0.00998857
0.0103964
0.0106618
0.0107792
0.0107484
0.0107321
0.0107279
0.0107279
0.0107321
0.0107484
0.0107791
0.0106618
0.0103964
0.00998832
0.0124611
0.010384
0.0110001
0.0113754
0.0114873
0.0114248
0.0110921
0.0102028
0.00946605
0.00946529
0.0102027
0.0110933
0.0114339
0.0115327
0.011553
0.0115411
0.0114793
0.0113029
0.0109716
0.0107788
0.0107437
0.0109313
0.0110185
0.0110528
0.0110401
0.0110316
0.0110289
0.0110289
0.0110316
0.01104
0.0110527
0.0110183
0.0109312
0.0107435
0.0107784
0.0109712
0.0113019
0.0114738
0.0115128
0.0114304
0.0110931
0.0102028
0.00946592
0.00946516
0.0102026
0.0110933
0.0114341
0.0115335
0.0115565
0.0115559
0.0115348
0.0114715
0.0113469
0.0112176
0.0111846
0.0112036
0.0111934
0.011187
0.0111793
0.0111753
0.0111739
0.0111739
0.0111753
0.0111793
0.0111869
0.0111933
0.0112034
0.0111843
0.0112173
0.0113466
0.0114706
0.0115292
0.0115276
0.0114338
0.0110937
0.0102028
0.00946574
0.00946503
0.0102025
0.0110933
0.0114343
0.011534
0.0115581
0.0115618
0.0115557
0.011533
0.0114821
0.0114069
0.0113403
0.0112977
0.0112528
0.011233
0.0112256
0.0112228
0.0112219
0.0112219
0.0112228
0.0112255
0.0112329
0.0112527
0.0112975
0.01134
0.0114067
0.0114818
0.0115321
0.0115501
0.0115334
0.0114353
0.011094
0.0102027
0.00946555
0.00946491
0.0102025
0.0110933
0.0114344
0.0115342
0.0115587
0.0115637
0.0115619
0.0115504
0.0115192
0.0114596
0.0113824
0.0113229
0.0112686
0.0112452
0.0112376
0.0112351
0.0112343
0.0112343
0.0112351
0.0112375
0.0112452
0.0112685
0.0113227
0.0113822
0.0114594
0.011519
0.0115495
0.0115563
0.0115353
0.0114358
0.0110942
0.0102027
0.00946536
0.0094648
0.0102025
0.0110933
0.0114344
0.0115343
0.0115589
0.0115643
0.0115635
0.0115546
0.0115278
0.0114715
0.011392
0.0113285
0.0112722
0.0112481
0.0112403
0.0112378
0.011237
0.011237
0.0112378
0.0112402
0.011248
0.011272
0.0113284
0.0113917
0.0114714
0.0115276
0.0115537
0.011558
0.0115359
0.011436
0.0110942
0.0102027
0.00946519
0.00946471
0.0102024
0.0110933
0.0114345
0.0115344
0.011559
0.0115645
0.011564
0.0115556
0.0115296
0.0114739
0.0113939
0.0113297
0.0112729
0.0112487
0.0112409
0.0112384
0.0112375
0.0112374
0.0112383
0.0112408
0.0112486
0.0112728
0.0113296
0.0113937
0.0114737
0.0115294
0.0115546
0.0115584
0.0115361
0.0114361
0.0110942
0.0102026
0.00946507
0.00946467
0.0102024
0.0110934
0.0114345
0.0115344
0.0115591
0.0115645
0.011564
0.0115556
0.0115296
0.011474
0.011394
0.0113298
0.011273
0.0112487
0.0112409
0.0112383
0.0112374
0.0112374
0.0112383
0.0112408
0.0112486
0.0112729
0.0113297
0.0113938
0.0114738
0.0115295
0.0115547
0.0115585
0.0115362
0.0114362
0.0110943
0.0102026
0.00946501
0.00946468
0.0102024
0.0110934
0.0114345
0.0115344
0.011559
0.0115644
0.0115637
0.0115548
0.0115281
0.0114718
0.0113923
0.0113288
0.0112723
0.0112482
0.0112403
0.0112378
0.0112369
0.0112369
0.0112378
0.0112403
0.0112481
0.0112722
0.0113286
0.0113921
0.0114717
0.0115279
0.011554
0.0115582
0.0115361
0.0114361
0.0110943
0.0102027
0.00946503
0.00946474
0.0102025
0.0110934
0.0114345
0.0115343
0.0115588
0.0115639
0.0115622
0.0115508
0.0115197
0.0114602
0.011383
0.0113233
0.0112689
0.0112455
0.0112377
0.0112352
0.0112343
0.0112342
0.0112351
0.0112377
0.0112454
0.0112688
0.0113232
0.0113829
0.0114601
0.0115196
0.0115499
0.0115567
0.0115356
0.011436
0.0110943
0.0102027
0.00946512
0.00946484
0.0102025
0.0110934
0.0114344
0.0115342
0.0115583
0.0115621
0.0115561
0.0115336
0.0114829
0.011408
0.0113414
0.0112985
0.0112535
0.0112336
0.011226
0.0112232
0.0112222
0.0112222
0.0112232
0.011226
0.0112335
0.0112534
0.0112984
0.0113413
0.0114079
0.0114828
0.0115328
0.0115506
0.0115338
0.0114356
0.0110942
0.0102027
0.00946526
0.00946495
0.0102026
0.0110934
0.0114343
0.0115338
0.0115569
0.0115564
0.0115354
0.0114725
0.0113482
0.0112195
0.0111865
0.011205
0.0111946
0.0111881
0.0111804
0.0111764
0.0111749
0.0111749
0.0111763
0.0111804
0.0111881
0.0111947
0.0112051
0.0111865
0.0112195
0.0113482
0.0114716
0.0115299
0.0115281
0.0114342
0.0110939
0.0102028
0.00946543
0.00946507
0.0102027
0.0110934
0.0114341
0.011533
0.0115535
0.0115417
0.0114801
0.0113042
0.0109737
0.0107817
0.0107466
0.0109334
0.0110203
0.0110545
0.0110419
0.0110334
0.0110307
0.0110307
0.0110334
0.0110419
0.0110546
0.0110204
0.0109336
0.0107468
0.0107818
0.0109737
0.0113034
0.0114747
0.0115135
0.0114309
0.0110933
0.0102028
0.00946559
0.00946517
0.0102027
0.0110933
0.0114338
0.0115318
0.0115478
0.0115162
0.0113819
0.0110026
0.0103868
0.0124726
0.00999023
0.0103968
0.0106618
0.0107791
0.0107482
0.0107319
0.0107277
0.0107277
0.0107319
0.0107482
0.0107791
0.0106616
0.0103965
0.00998983
0.0124726
0.0103866
0.0110018
0.0113765
0.0114881
0.0114253
0.0110923
0.0102028
0.00946572
0.00946525
0.0102028
0.0110933
0.0114336
0.0115309
0.0115436
0.0114979
0.0113157
0.0108956
0.0126834
0.0117446
0.00999159
0.0102781
0.0103913
0.0104082
0.0104086
0.0104081
0.0104081
0.0104085
0.0104078
0.0103903
0.0102756
0.00998696
0.0117349
0.0126813
0.0108945
0.0113103
0.0114698
0.0114213
0.0110917
0.0102028
0.00946581
0.00946527
0.0102028
0.0110932
0.0114335
0.0115313
0.0115471
0.0115155
0.0113817
0.0110046
0.010394
0.0125135
0.010021
0.0103889
0.0106148
0.0106714
0.0106939
0.0106993
0.0107001
0.0107
0.010699
0.0106928
0.0106677
0.0106056
0.0103728
0.0100042
0.0124923
0.0103902
0.0110028
0.0113761
0.0114874
0.0114249
0.0110922
0.010203
0.00946589
0.00946514
0.0102026
0.0110927
0.0114328
0.0115313
0.0115514
0.0115395
0.011479
0.0113074
0.0109884
0.0108196
0.0108028
0.0109659
0.0110346
0.0110412
0.0110433
0.0110436
0.0110435
0.0110434
0.011043
0.0110407
0.0110324
0.0110128
0.0109341
0.010768
0.0107962
0.0109789
0.0113034
0.0114728
0.0115114
0.0114293
0.0110926
0.0102029
0.0094658
0.00946413
0.0102006
0.0110893
0.0114286
0.0115271
0.0115496
0.0115489
0.0115292
0.0114719
0.0113627
0.0112624
0.0112579
0.0112717
0.0112729
0.0112494
0.0112386
0.0112353
0.0112345
0.0112343
0.0112344
0.0112345
0.0112355
0.01124
0.0112424
0.011212
0.0112294
0.0113475
0.0114657
0.0115224
0.0115208
0.0114281
0.0110898
0.010201
0.00946478
0.00945786
0.0101891
0.0110715
0.0114072
0.0115043
0.0115273
0.0115307
0.0115262
0.0115103
0.0114779
0.011438
0.0114106
0.0113765
0.0113523
0.0113194
0.0113052
0.0113012
0.0113002
0.0113001
0.0113002
0.011301
0.0113044
0.0113168
0.0113448
0.0113626
0.0114037
0.0114616
0.0115038
0.0115194
0.0115032
0.0114077
0.0110722
0.0101895
0.00945848
0.00942373
0.0101326
0.0109921
0.0113152
0.0114074
0.0114291
0.0114334
0.0114332
0.0114294
0.0114198
0.011403
0.0113785
0.0113417
0.0113064
0.0112795
0.0112685
0.0112653
0.0112646
0.0112645
0.0112646
0.0112652
0.0112682
0.0112788
0.0113047
0.011339
0.0113773
0.011408
0.0114246
0.0114274
0.0114079
0.011316
0.0109927
0.010133
0.00942427
0.00926629
0.00990762
0.0107026
0.0109923
0.011072
0.0110901
0.0110937
0.0110943
0.0110936
0.0110907
0.0110838
0.0110702
0.0110481
0.0110247
0.0110093
0.011003
0.0110011
0.0110007
0.0110006
0.0110007
0.0110011
0.011003
0.0110092
0.0110244
0.0110477
0.01107
0.0110847
0.0110911
0.0110901
0.0110727
0.0109931
0.0107031
0.00990796
0.00926674
0.00868619
0.00923735
0.00990777
0.010133
0.0101896
0.0102014
0.0102037
0.0102042
0.0102042
0.0102034
0.010201
0.0101953
0.0101854
0.0101741
0.0101672
0.0101642
0.0101633
0.010163
0.0101629
0.010163
0.0101633
0.0101643
0.0101672
0.0101742
0.0101854
0.0101953
0.0102011
0.0102032
0.0102019
0.0101903
0.0101336
0.00990819
0.00923758
0.00868651
0.00725351
0.00868622
0.00926656
0.00942427
0.0094587
0.00946532
0.00946676
0.00946737
0.00946779
0.00946785
0.009467
0.00946417
0.00945849
0.00945126
0.00944699
0.0094451
0.00944429
0.00944391
0.00944381
0.00944395
0.00944435
0.00944517
0.00944704
0.00945125
0.00945843
0.00946405
0.00946685
0.00946752
0.00946641
0.00945973
0.00942511
0.00926714
0.00868654
0.00725381
0.00788904
0.0100467
0.0110012
0.0112849
0.0113524
0.011366
0.0113684
0.0113688
0.0113688
0.0113688
0.0113688
0.0113688
0.0113687
0.0113686
0.0113686
0.0113685
0.0113685
0.0113685
0.0113685
0.0113685
0.0113685
0.0113686
0.0113686
0.0113687
0.0113687
0.0113688
0.0113687
0.0113684
0.011366
0.0113525
0.0112849
0.0110012
0.0100468
0.00788915
0.0100467
0.010279
0.0109837
0.0112506
0.0113252
0.0113421
0.0113453
0.0113458
0.0113459
0.0113459
0.0113458
0.0113458
0.0113458
0.0113457
0.0113457
0.0113456
0.0113456
0.0113456
0.0113456
0.0113456
0.0113456
0.0113457
0.0113457
0.0113458
0.0113458
0.0113458
0.0113458
0.0113453
0.0113421
0.0113252
0.0112506
0.0109837
0.010279
0.0100468
0.0110014
0.0109838
0.0117087
0.0120131
0.0121069
0.0121303
0.0121352
0.0121361
0.0121362
0.0121362
0.0121362
0.0121362
0.0121362
0.0121362
0.0121362
0.0121362
0.0121362
0.0121362
0.0121362
0.0121362
0.0121362
0.0121362
0.0121362
0.0121362
0.0121362
0.0121362
0.0121361
0.0121352
0.0121303
0.012107
0.0120132
0.0117087
0.0109839
0.0110015
0.0112853
0.0112508
0.0120132
0.0123439
0.0124498
0.0124773
0.0124834
0.0124845
0.0124846
0.0124844
0.0124842
0.0124842
0.0124843
0.0124844
0.0124845
0.0124846
0.0124846
0.0124846
0.0124846
0.0124846
0.0124846
0.0124845
0.0124844
0.0124843
0.0124842
0.0124842
0.0124842
0.0124833
0.0124774
0.01245
0.0123441
0.0120133
0.0112509
0.0112856
0.0113529
0.0113254
0.012107
0.0124499
0.0125613
0.0125906
0.0125971
0.0125981
0.0125975
0.0125959
0.0125945
0.0125942
0.0125946
0.0125949
0.0125951
0.0125953
0.0125953
0.0125953
0.0125953
0.0125953
0.0125953
0.0125952
0.012595
0.0125946
0.0125943
0.0125945
0.0125958
0.012596
0.0125904
0.0125614
0.0124501
0.0121072
0.0113256
0.0113534
0.0113665
0.0113423
0.0121304
0.0124774
0.0125907
0.0126206
0.0126268
0.0126263
0.012622
0.0126143
0.0126071
0.0126062
0.0126082
0.0126095
0.0126099
0.0126103
0.0126104
0.0126103
0.0126103
0.0126104
0.0126104
0.01261
0.0126096
0.0126082
0.0126062
0.0126072
0.0126141
0.0126206
0.0126184
0.0125902
0.0124775
0.0121306
0.0113425
0.0113671
0.011369
0.0113455
0.0121353
0.0124834
0.0125971
0.0126268
0.0126313
0.0126249
0.0126063
0.0125748
0.0125478
0.0125453
0.0125563
0.0125625
0.0125631
0.0125654
0.012566
0.0125659
0.0125659
0.012566
0.0125654
0.0125632
0.0125625
0.0125564
0.0125453
0.0125478
0.0125746
0.0126049
0.0126169
0.0125944
0.012483
0.0121354
0.0113457
0.0113696
0.0113693
0.011346
0.0121362
0.0124845
0.0125981
0.0126264
0.0126251
0.0126005
0.0125372
0.0124332
0.0123598
0.0123425
0.0123895
0.0124138
0.0124135
0.0124252
0.0124285
0.0124287
0.0124287
0.0124285
0.0124252
0.0124136
0.0124139
0.0123896
0.0123426
0.0123598
0.012433
0.0125357
0.0125925
0.0125882
0.0124823
0.0121359
0.0113462
0.01137
0.0113694
0.011346
0.0121363
0.0124846
0.0125975
0.0126225
0.0126078
0.0125399
0.0123718
0.0121167
0.0121083
0.01186
0.011998
0.0120757
0.0120695
0.0121113
0.0121224
0.0121237
0.0121237
0.0121224
0.0121114
0.0120696
0.0120758
0.0119981
0.0118601
0.0121082
0.0121164
0.0123703
0.0125318
0.0125707
0.0124783
0.0121352
0.011346
0.0113699
0.0113693
0.011346
0.0121362
0.0124844
0.0125963
0.0126161
0.0125808
0.0124483
0.0121433
0.0119024
0.0157111
0.0111376
0.0113023
0.0114984
0.0115015
0.0115858
0.0116064
0.0116093
0.0116093
0.0116064
0.0115859
0.0115015
0.0114985
0.0113025
0.0111377
0.0157105
0.0119021
0.0121418
0.0124401
0.0125436
0.0124717
0.0121337
0.0113456
0.0113697
0.0113692
0.0113459
0.0121362
0.0124843
0.0125956
0.0126122
0.0125652
0.0124106
0.0122464
0.0162452
0.0132716
0.0109161
0.0112118
0.0113566
0.0113533
0.0113463
0.0113443
0.0113443
0.0113463
0.0113534
0.0113567
0.011212
0.0109163
0.0132724
0.0162441
0.0122447
0.0124024
0.012528
0.0124677
0.0121328
0.0113453
0.0113694
0.011369
0.0113458
0.0121362
0.0124845
0.0125965
0.0126164
0.0125808
0.012447
0.012138
0.0118836
0.0155507
0.0111112
0.0115301
0.0118879
0.0122928
0.0119793
0.0118899
0.0118741
0.0118741
0.0118899
0.0119792
0.0122927
0.0118878
0.0115301
0.0111108
0.0155492
0.0118831
0.0121364
0.0124388
0.0125435
0.0124717
0.0121335
0.0113452
0.0113691
0.0113688
0.0113457
0.0121362
0.0124848
0.012598
0.012623
0.0126077
0.0125371
0.0123603
0.0120823
0.0120277
0.0118113
0.0121888
0.0123087
0.0124018
0.0123257
0.0122952
0.012288
0.012288
0.0122951
0.0123256
0.0124018
0.0123086
0.0121887
0.011811
0.0120274
0.0120819
0.0123587
0.0125289
0.0125705
0.0124783
0.0121348
0.0113453
0.011369
0.0113687
0.0113456
0.0121361
0.012485
0.012599
0.0126274
0.0126253
0.0125966
0.0125209
0.0123886
0.012275
0.0122801
0.0125476
0.0125443
0.0125376
0.0125181
0.0125093
0.0125068
0.0125068
0.0125093
0.012518
0.0125376
0.0125442
0.0125475
0.0122798
0.0122748
0.0123882
0.0125193
0.0125885
0.0125881
0.0124827
0.0121357
0.0113453
0.0113687
0.0113685
0.0113455
0.0121361
0.0124851
0.0125995
0.0126294
0.0126328
0.0126216
0.0125881
0.0125234
0.012452
0.0124621
0.0126778
0.01263
0.0125988
0.0125868
0.0125829
0.0125818
0.0125818
0.0125829
0.0125868
0.0125988
0.0126299
0.0126777
0.0124619
0.0124518
0.0125231
0.0125865
0.0126135
0.0125956
0.0124846
0.012136
0.0113453
0.0113685
0.0113683
0.0113454
0.0121361
0.0124852
0.0125997
0.0126301
0.0126353
0.0126296
0.0126091
0.0125654
0.0125097
0.012515
0.0127135
0.012653
0.0126161
0.0126047
0.0126017
0.012601
0.0126009
0.0126017
0.0126047
0.0126161
0.0126529
0.0127134
0.0125149
0.0125096
0.0125651
0.0126075
0.0126215
0.0125981
0.0124852
0.0121361
0.0113452
0.0113683
0.0113682
0.0113454
0.0121361
0.0124852
0.0125998
0.0126303
0.0126361
0.0126318
0.0126145
0.0125759
0.0125241
0.0125275
0.0127216
0.0126581
0.01262
0.0126086
0.0126057
0.012605
0.012605
0.0126057
0.0126085
0.0126199
0.012658
0.0127215
0.0125274
0.012524
0.0125756
0.0126129
0.0126236
0.0125988
0.0124854
0.0121362
0.0113452
0.0113681
0.0113681
0.0113454
0.0121361
0.0124852
0.0125998
0.0126304
0.0126363
0.0126323
0.0126156
0.0125781
0.012527
0.01253
0.0127232
0.0126591