/*--------------------------------*- C++ -*----------------------------------*\
| =========                 |                                                 |
| \\      /  F ield         | OpenFOAM: The Open Source CFD Toolbox           |
|  \\    /   O peration     | Version:  2112                                  |
|   \\  /    A nd           | Website:  www.openfoam.com                      |
|    \\/     M anipulation  |                                                 |
\*---------------------------------------------------------------------------*/
FoamFile
{
    version     2.0;
    format      ascii;
    arch        "LSB;label=32;scalar=64";
    class       volScalarField;
    location    "1.1";
    object      k;
}
// * * * * * * * * * * * * * * * * * * * * * * * * * * * * * * * * * * * * * //

dimensions      [0 2 -2 0 0 0 0];

internalField   nonuniform List<scalar> 
64906
(
0.00276549
0.00286474
0.00290175
0.00291073
0.0029125
0.00291281
0.00291288
0.00291292
0.00291296
0.00291299
0.00291302
0.00291305
0.00291307
0.00291308
0.00291309
0.00291309
0.00291309
0.00291308
0.00291308
0.00291308
0.00291308
0.00291308
0.00291307
0.00291306
0.00291304
0.00291301
0.00291298
0.00291294
0.00291287
0.00291255
0.00291079
0.00290181
0.00286479
0.00276554
0.00286476
0.00368145
0.00396733
0.00404425
0.00406162
0.00406501
0.00406564
0.00406579
0.00406587
0.00406595
0.00406602
0.00406609
0.00406616
0.00406621
0.00406626
0.00406629
0.00406631
0.00406632
0.00406633
0.00406632
0.0040663
0.00406627
0.00406622
0.00406617
0.00406611
0.00406604
0.00406596
0.0040658
0.00406517
0.00406177
0.00404439
0.00396747
0.00368158
0.00286484
0.00290181
0.00396741
0.00437222
0.00449187
0.00452164
0.00452804
0.00452932
0.00452963
0.0045298
0.00452996
0.00453013
0.00453032
0.0045305
0.00453066
0.00453079
0.0045309
0.00453097
0.004531
0.00453101
0.00453097
0.00453091
0.00453081
0.00453069
0.00453053
0.00453036
0.00453018
0.00452999
0.00452965
0.00452835
0.00452193
0.00449213
0.00437247
0.00396762
0.00290192
0.00291082
0.00404438
0.00449193
0.00462999
0.0046659
0.00467397
0.00467566
0.00467609
0.00467632
0.00467652
0.00467675
0.00467707
0.00467739
0.00467768
0.00467792
0.00467809
0.00467821
0.00467827
0.00467828
0.00467823
0.00467812
0.00467795
0.00467772
0.00467744
0.00467712
0.00467681
0.00467655
0.0046761
0.00467439
0.00466629
0.00463035
0.00449226
0.00404466
0.00291096
0.0029126
0.00406178
0.00452174
0.00466593
0.0047041
0.00471284
0.0047147
0.00471516
0.00471528
0.00471523
0.00471526
0.00471578
0.00471636
0.00471687
0.00471726
0.00471751
0.00471768
0.00471776
0.00471777
0.00471769
0.00471754
0.00471729
0.00471691
0.00471642
0.00471584
0.00471532
0.00471527
0.00471504
0.0047133
0.00470457
0.00466638
0.00452213
0.00406211
0.00291277
0.00291293
0.00406518
0.00452814
0.00467401
0.00471284
0.0047218
0.00472365
0.00472381
0.00472302
0.0047212
0.00471954
0.0047207
0.00472225
0.00472337
0.00472409
0.00472444
0.00472462
0.00472472
0.00472472
0.00472464
0.00472447
0.00472414
0.00472343
0.00472231
0.00472077
0.00471961
0.00472124
0.00472278
0.00472191
0.00471329
0.00467451
0.00452861
0.00406556
0.00291313
0.00291301
0.0040658
0.00452941
0.00467568
0.00471469
0.00472363
0.0047251
0.0047237
0.00471846
0.00470786
0.00469745
0.00470259
0.00470889
0.00471246
0.00471421
0.00471466
0.00471479
0.00471486
0.00471487
0.00471481
0.0047147
0.00471426
0.00471253
0.00470896
0.00470267
0.00469753
0.00470791
0.00471823
0.00472179
0.00471469
0.00467616
0.00452993
0.00406623
0.00291324
0.00291305
0.00406593
0.0045297
0.00467608
0.0047151
0.00472374
0.00472367
0.00471641
0.0046939
0.00464702
0.00459734
0.00462708
0.00465593
0.00466926
0.00467432
0.00467509
0.0046751
0.00467512
0.00467513
0.00467513
0.00467514
0.00467439
0.00466934
0.00465602
0.00462718
0.00459741
0.00464707
0.00469368
0.00471452
0.00471326
0.00467623
0.00453022
0.0040664
0.00291331
0.00291309
0.00406598
0.00452982
0.00467625
0.00471515
0.00472291
0.0047185
0.00469421
0.00461773
0.00444344
0.00423161
0.00439277
0.0045127
0.00455868
0.00457263
0.00457491
0.00457514
0.00457521
0.00457522
0.00457518
0.00457496
0.00457271
0.00455877
0.00451282
0.00439291
0.00423167
0.00444349
0.00461754
0.00469234
0.00470812
0.0046754
0.00453023
0.00406647
0.00291337
0.00291311
0.00406601
0.00452991
0.00467637
0.00471504
0.00472116
0.00470849
0.0046491
0.00444653
0.00390813
0.00313392
0.00382444
0.00423346
0.00436117
0.00439223
0.00439882
0.0044002
0.00440053
0.00440054
0.00440023
0.00439887
0.00439231
0.00436127
0.00423362
0.00382465
0.00313391
0.00390818
0.00444635
0.00464726
0.00469814
0.00467365
0.00453007
0.00406649
0.00291342
0.00291312
0.00406603
0.00453001
0.00467652
0.00471505
0.00471992
0.00470011
0.00460547
0.00424612
0.00314143
0.0030944
0.00394639
0.00417951
0.00422919
0.00423774
0.00423894
0.00423909
0.0042391
0.00423895
0.00423777
0.00422923
0.00417958
0.00394655
0.00309451
0.00314148
0.00424595
0.00460365
0.00468977
0.0046724
0.00453
0.0040665
0.00291345
0.00291312
0.00406603
0.0045301
0.00467675
0.00471563
0.00472199
0.00470957
0.0046501
0.00444625
0.00390363
0.00313088
0.003797
0.00419941
0.00432374
0.00435375
0.00435676
0.00435601
0.00435556
0.00435555
0.004356
0.00435674
0.00435372
0.00432372
0.0041994
0.00379693
0.00313072
0.0039034
0.00444593
0.00464819
0.00469917
0.00467439
0.00453045
0.00406654
0.00291346
0.00291312
0.00406602
0.00453019
0.00467698
0.00471627
0.00472447
0.0047205
0.00469617
0.00461774
0.00443684
0.00421034
0.00433843
0.00442414
0.00445318
0.00446011
0.00445952
0.00445834
0.0044578
0.00445779
0.00445831
0.00445948
0.00446005
0.0044531
0.00442403
0.00433826
0.00421006
0.00443664
0.0046174
0.00469423
0.00471004
0.00467679
0.00453096
0.00406658
0.00291345
0.0029131
0.00406601
0.00453026
0.00467716
0.00471673
0.00472599
0.00472652
0.00471932
0.00469437
0.00463827
0.00456472
0.00454817
0.00452379
0.00451149
0.00450677
0.00450438
0.00450316
0.00450266
0.00450265
0.00450313
0.00450433
0.00450669
0.0045114
0.00452366
0.0045479
0.0045645
0.00463811
0.00469403
0.00471734
0.00471602
0.00467824
0.00453131
0.0040666
0.00291343
0.00291307
0.004066
0.00453032
0.0046773
0.004717
0.00472671
0.00472894
0.00472767
0.00471968
0.0046982
0.00465917
0.00461136
0.00455581
0.00453034
0.00452153
0.0045184
0.00451709
0.00451653
0.00451652
0.00451704
0.00451833
0.00452145
0.00453024
0.00455568
0.00461111
0.00465899
0.00469805
0.00471934
0.00472569
0.00471842
0.00467892
0.0045315
0.0040666
0.00291338
0.00291304
0.00406598
0.00453036
0.0046774
0.00471717
0.00472704
0.0047298
0.00473021
0.00472662
0.00471333
0.00468138
0.00462733
0.00456416
0.00453532
0.00452537
0.00452195
0.00452052
0.00451985
0.00451983
0.00452046
0.00452188
0.00452528
0.00453521
0.00456403
0.0046271
0.00468122
0.00471319
0.00472628
0.00472822
0.00471927
0.00467923
0.00453161
0.00406659
0.00291334
0.00291301
0.00406597
0.00453039
0.00467747
0.00471728
0.00472721
0.00473012
0.00473095
0.00472836
0.00471678
0.00468617
0.004631
0.00456612
0.00453652
0.00452628
0.00452275
0.0045212
0.0045204
0.00452037
0.00452113
0.00452266
0.00452619
0.00453641
0.00456598
0.00463077
0.00468601
0.00471665
0.00472803
0.00472896
0.00471959
0.00467938
0.00453168
0.00406658
0.00291329
0.00291298
0.00406596
0.00453041
0.00467751
0.00471734
0.0047273
0.00473026
0.00473119
0.00472881
0.00471755
0.00468718
0.00463183
0.00456657
0.00453682
0.0045265
0.00452291
0.00452128
0.00452036
0.00452032
0.00452119
0.00452282
0.0045264
0.00453671
0.00456644
0.00463161
0.00468702
0.00471743
0.00472848
0.00472921
0.00471973
0.00467947
0.00453172
0.00406658
0.00291324
0.00291296
0.00406596
0.00453042
0.00467753
0.00471737
0.00472733
0.0047303
0.00473124
0.00472888
0.00471763
0.00468727
0.00463192
0.00456662
0.00453685
0.00452652
0.0045229
0.00452122
0.00452025
0.00452019
0.00452113
0.00452279
0.00452641
0.00453673
0.00456648
0.0046317
0.00468712
0.00471752
0.00472856
0.00472927
0.00471977
0.0046795
0.00453174
0.00406657
0.00291321
0.00291296
0.00406596
0.00453042
0.00467752
0.00471735
0.00472731
0.00473025
0.00473111
0.00472857
0.00471703
0.00468645
0.00463128
0.00456627
0.00453662
0.00452632
0.00452271
0.00452105
0.0045201
0.00452004
0.00452095
0.00452261
0.00452621
0.0045365
0.00456614
0.00463108
0.00468632
0.00471693
0.00472826
0.00472915
0.00471973
0.00467949
0.00453174
0.00406658
0.00291321
0.00291298
0.00406598
0.00453041
0.00467749
0.0047173
0.0047272
0.00473001
0.00473048
0.00472698
0.00471377
0.0046819
0.00462786
0.00456444
0.0045355
0.00452545
0.00452191
0.0045203
0.00451945
0.00451941
0.00452021
0.0045218
0.00452534
0.00453539
0.00456432
0.00462768
0.00468179
0.00471369
0.00472669
0.00472854
0.00471951
0.00467941
0.00453172
0.0040666
0.00291325
0.00291301
0.004066
0.00453039
0.00467743
0.00471718
0.00472694
0.00472924
0.00472807
0.00472021
0.0046989
0.00466003
0.00461225
0.00455628
0.00453066
0.00452169
0.00451838
0.00451687
0.00451615
0.00451611
0.00451679
0.00451828
0.00452158
0.00453055
0.00455617
0.0046121
0.00465996
0.00469885
0.00471995
0.00472615
0.00471877
0.00467917
0.00453165
0.00406662
0.00291329
0.00291304
0.00406602
0.00453036
0.00467733
0.00471696
0.00472629
0.00472692
0.00471985
0.00469512
0.00463935
0.00456617
0.00454962
0.00452453
0.004512
0.00450707
0.00450448
0.00450307
0.00450243
0.00450241
0.004503
0.00450439
0.00450698
0.00451192
0.00452447
0.00454956
0.00456616
0.00463936
0.0046949
0.00471797
0.00471649
0.00467858
0.00453151
0.00406664
0.00291334
0.00291306
0.00406604
0.00453031
0.00467718
0.00471656
0.00472484
0.00472099
0.00469685
0.00461876
0.00443843
0.00421271
0.00434021
0.0044251
0.00445383
0.00446053
0.00445974
0.00445841
0.00445778
0.00445777
0.00445836
0.00445968
0.00446046
0.00445377
0.00442511
0.00434032
0.0042128
0.00443853
0.0046186
0.00469503
0.00471062
0.0046772
0.00453122
0.00406665
0.00291338
0.00291307
0.00406606
0.00453025
0.00467699
0.00471597
0.00472243
0.00471015
0.00465089
0.00444744
0.00390551
0.00313214
0.00379814
0.0041995
0.00432362
0.00435342
0.00435625
0.00435537
0.00435485
0.00435483
0.00435533
0.00435618
0.00435331
0.00432349
0.00419944
0.00379838
0.00313211
0.00390568
0.00444735
0.00464914
0.00469986
0.00467489
0.00453076
0.00406663
0.0029134
0.00291308
0.00406607
0.00453018
0.0046768
0.00471544
0.00472042
0.00470073
0.00460618
0.00424683
0.00314161
0.00309273
0.00394263
0.00417499
0.00422397
0.00423208
0.00423303
0.00423305
0.00423302
0.00423292
0.00423185
0.00422351
0.00417415
0.00394137
0.00309198
0.00314152
0.00424668
0.00460447
0.0046905
0.00467297
0.00453037
0.00406661
0.0029134
0.00291307
0.00406606
0.00453009
0.00467667
0.00471546
0.00472172
0.00470923
0.00465003
0.00444764
0.00390939
0.00313502
0.00381903
0.00422277
0.00434333
0.00437015
0.00437528
0.0043762
0.00437633
0.00437629
0.00437601
0.00437474
0.00436858
0.00433954
0.00421577
0.00381411
0.00313398
0.00390883
0.00444726
0.00464826
0.00469901
0.00467431
0.00453048
0.00406662
0.00291338
0.00291305
0.00406597
0.00452984
0.00467634
0.00471536
0.00472328
0.00471908
0.00469499
0.00461855
0.00444359
0.0042288
0.00437928
0.00448106
0.00450323
0.00450471
0.00450379
0.00450342
0.00450332
0.00450326
0.00450311
0.00450267
0.00450081
0.0044921
0.00445818
0.00436143
0.00421999
0.00444008
0.00461726
0.00469298
0.00470882
0.00467592
0.00453053
0.00406656
0.00291335
0.00291299
0.00406538
0.00452861
0.00467473
0.00471373
0.00472251
0.00472265
0.00471556
0.0046928
0.00464402
0.00458743
0.00459805
0.00459064
0.00455748
0.00454186
0.00453682
0.00453548
0.00453516
0.00453508
0.00453509
0.00453526
0.0045359
0.00453817
0.00454536
0.00456188
0.0045686
0.00463664
0.00469034
0.00471327
0.00471239
0.00467535
0.00452945
0.00406598
0.00291327
0.00291268
0.00406201
0.00452223
0.00466669
0.00470509
0.00471399
0.00471564
0.0047144
0.00470884
0.00469601
0.00467774
0.00466213
0.0046291
0.00458387
0.00456427
0.00455832
0.00455687
0.00455656
0.0045565
0.00455651
0.00455675
0.00455799
0.00456324
0.00458101
0.00462291
0.00465701
0.0046879
0.00470619
0.00471213
0.00470562
0.00466767
0.0045231
0.00406259
0.00291294
0.00291091
0.00404464
0.00449245
0.00463077
0.00466692
0.00467525
0.00467715
0.00467748
0.00467658
0.00467335
0.00466649
0.00465408
0.00463045
0.00460077
0.00458662
0.00458206
0.00458101
0.00458086
0.00458084
0.0045808
0.00458088
0.00458183
0.00458617
0.00459992
0.00462903
0.004653
0.00466809
0.00467489
0.00467564
0.00466797
0.0046318
0.00449328
0.00404519
0.00291115
0.00290192
0.00396769
0.00437276
0.00449264
0.00452265
0.00452931
0.00453087
0.00453146
0.00453166
0.00453111
0.00452889
0.00452333
0.00451269
0.00449954
0.00449277
0.00449046
0.00448994
0.00448989
0.00448989
0.00448985
0.00448987
0.00449034
0.00449258
0.00449925
0.00451227
0.00452296
0.00452892
0.00453102
0.00453029
0.00452372
0.00449358
0.0043735
0.00396819
0.00290213
0.00286487
0.00368174
0.00396784
0.00404495
0.0040625
0.00406611
0.00406699
0.00406742
0.00406776
0.00406791
0.00406753
0.00406601
0.0040629
0.00405889
0.00405668
0.00405583
0.00405561
0.00405556
0.00405556
0.00405556
0.00405559
0.00405581
0.00405663
0.00405881
0.00406279
0.00406589
0.00406743
0.00406774
0.00406703
0.00406336
0.00404568
0.00396842
0.00368213
0.00286506
0.00276559
0.00286491
0.00290201
0.00291108
0.00291294
0.00291337
0.00291358
0.00291378
0.002914
0.00291422
0.0029144
0.00291446
0.00291433
0.00291403
0.00291382
0.00291367
0.00291355
0.00291345
0.00291341
0.00291346
0.00291355
0.00291366
0.00291379
0.00291398
0.00291426
0.00291436
0.0029143
0.00291411
0.00291385
0.00291335
0.00291142
0.00290228
0.00286511
0.00276573
0.00385807
0.00437386
0.00458005
0.00463741
0.00465038
0.00465289
0.00465333
0.00465341
0.00465344
0.00465346
0.00465347
0.00465348
0.00465348
0.00465347
0.00465347
0.00465346
0.00465345
0.00465344
0.00465344
0.00465345
0.00465345
0.00465346
0.00465346
0.00465347
0.00465347
0.00465346
0.00465344
0.00465336
0.00465292
0.00465041
0.00463744
0.00458009
0.00437389
0.00385811
0.00437386
0.00743725
0.00832785
0.00859783
0.00866814
0.00868372
0.00868669
0.00868717
0.0086872
0.00868715
0.00868706
0.00868696
0.00868686
0.00868677
0.00868669
0.00868663
0.00868658
0.00868656
0.00868656
0.00868658
0.00868663
0.00868669
0.00868677
0.00868686
0.00868696
0.00868705
0.00868705
0.00868661
0.00868366
0.00866809
0.00859779
0.00832781
0.00743723
0.00437391
0.00458012
0.00832801
0.00948468
0.00986446
0.00997228
0.00999839
0.0100039
0.0100049
0.0100051
0.0100052
0.0100052
0.0100052
0.0100052
0.0100053
0.0100053
0.0100054
0.0100054
0.0100054
0.0100054
0.0100054
0.0100054
0.0100053
0.0100053
0.0100053
0.0100052
0.0100052
0.010005
0.010004
0.00999852
0.00997241
0.00986458
0.00948479
0.00832811
0.00458021
0.00463752
0.00859809
0.00986457
0.0102966
0.0104243
0.0104565
0.0104636
0.010465
0.0104652
0.010465
0.0104649
0.010465
0.0104652
0.0104654
0.0104656
0.0104658
0.0104658
0.0104659
0.0104659
0.0104658
0.0104658
0.0104657
0.0104655
0.0104653
0.010465
0.0104649
0.0104648
0.0104637
0.0104567
0.0104246
0.0102969
0.00986481
0.00859827
0.00463766
0.00465052
0.00866843
0.00997244
0.0104244
0.0105602
0.010595
0.0106027
0.010604
0.0106033
0.0106016
0.0106
0.0106001
0.0106008
0.0106014
0.0106019
0.010602
0.0106021
0.0106021
0.0106021
0.0106021
0.010602
0.0106019
0.0106015
0.0106008
0.0106002
0.0106
0.0106014
0.0106016
0.0105949
0.0105604
0.0104247
0.00997275
0.00866867
0.0046507
0.00465305
0.00868401
0.00999856
0.0104566
0.010595
0.0106307
0.0106381
0.0106376
0.0106325
0.0106233
0.0106147
0.0106152
0.0106182
0.0106205
0.0106217
0.0106219
0.0106218
0.0106217
0.0106217
0.0106218
0.0106219
0.0106218
0.0106205
0.0106183
0.0106152
0.0106147
0.010623
0.0106308
0.0106282
0.0105946
0.0104568
0.00999889
0.00868426
0.00465325
0.0046535
0.00868695
0.010004
0.0104636
0.0106027
0.0106381
0.0106434
0.0106358
0.010613
0.0105724
0.0105349
0.010542
0.0105578
0.0105675
0.0105718
0.010572
0.0105713
0.010571
0.010571
0.0105714
0.010572
0.0105719
0.0105676
0.0105579
0.0105421
0.0105349
0.0105722
0.0106112
0.0106263
0.0105996
0.0104632
0.0100043
0.00868719
0.00465373
0.00465358
0.00868739
0.010005
0.010465
0.0106039
0.0106376
0.0106359
0.0106054
0.0105226
0.01037
0.0102248
0.0102804
0.0103547
0.0103932
0.0104079
0.010409
0.0104076
0.0104069
0.0104069
0.0104077
0.010409
0.0104079
0.0103933
0.0103548
0.0102805
0.0102249
0.0103698
0.0105209
0.0105959
0.0105921
0.0104625
0.0100048
0.00868753
0.00465384
0.0046536
0.00868736
0.0100052
0.0104651
0.0106032
0.0106328
0.0106141
0.0105248
0.010277
0.00977706
0.00923682
0.00956709
0.00986629
0.00999551
0.0100372
0.0100438
0.0100433
0.0100427
0.0100427
0.0100434
0.0100439
0.0100372
0.00999561
0.00986643
0.00956726
0.00923686
0.00977686
0.0102753
0.0105153
0.0105703
0.0104576
0.0100039
0.00868729
0.00465386
0.00465361
0.00868724
0.0100051
0.0104649
0.0106018
0.0106247
0.0105774
0.0103815
0.00979265
0.00833057
0.00564313
0.00795232
0.00899675
0.00934247
0.00943329
0.00945617
0.00946045
0.009461
0.00946101
0.00946047
0.00945621
0.00943336
0.00934259
0.00899699
0.00795268
0.00564303
0.00833036
0.00979095
0.0103721
0.0105335
0.0104494
0.0100023
0.00868681
0.00465385
0.00465359
0.00868708
0.0100051
0.0104648
0.0106009
0.0106193
0.0105504
0.010264
0.00930628
0.0056987
0.0053943
0.00817544
0.00878301
0.00892816
0.00895463
0.00895785
0.00895796
0.00895796
0.00895786
0.00895465
0.0089282
0.00878312
0.00817574
0.00539455
0.00569858
0.00930453
0.0102545
0.0105064
0.0104438
0.0100011
0.00868633
0.00465381
0.00465356
0.0086869
0.010005
0.0104651
0.0106022
0.0106253
0.0105777
0.0103804
0.0097866
0.00831082
0.00562308
0.0078608
0.00888794
0.00922829
0.00932769
0.00933033
0.00932496
0.00932274
0.00932272
0.00932492
0.00933025
0.0093276
0.00922819
0.00888788
0.00786063
0.00562263
0.00831009
0.00978467
0.0103708
0.0105336
0.0104496
0.0100021
0.00868614
0.00465378
0.00465353
0.00868675
0.0100051
0.0104655
0.0106041
0.0106338
0.0106147
0.0105224
0.0102647
0.00973755
0.00913805
0.00936096
0.00954789
0.00962442
0.00964847
0.00964505
0.00964051
0.00963863
0.00963861
0.00964047
0.00964498
0.00964836
0.00962427
0.00954768
0.00936064
0.0091376
0.00973695
0.0102627
0.0105128
0.0105706
0.0104581
0.0100037
0.00868611
0.00465374
0.00465348
0.00868661
0.0100051
0.0104658
0.0106053
0.0106393
0.010637
0.0106022
0.0105044
0.0103101
0.0100722
0.00997036
0.00986569
0.0098172
0.009801
0.00979361
0.00979027
0.00978907
0.00978906
0.00979024
0.00979356
0.00980092
0.00981707
0.0098655
0.00997018
0.010072
0.0103097
0.0105025
0.0105926
0.0105929
0.0104634
0.0100047
0.00868604
0.00465368
0.00465344
0.00868649
0.010005
0.010466
0.010606
0.0106418
0.0106463
0.0106337
0.0105926
0.0105009
0.0103513
0.0101724
0.00997808
0.00988565
0.00985466
0.00984536
0.00984252
0.00984169
0.00984168
0.0098425
0.00984532
0.0098546
0.00988554
0.00997791
0.0101723
0.0103511
0.0105006
0.0105908
0.0106241
0.0106021
0.0104658
0.0100051
0.00868595
0.00465361
0.00465339
0.00868641
0.010005
0.0104661
0.0106063
0.0106427
0.0106495
0.0106436
0.0106188
0.0105543
0.0104252
0.0102281
0.01001
0.00990515
0.00986992
0.00986003
0.00985737
0.00985669
0.00985668
0.00985736
0.00986
0.00986987
0.00990505
0.0100098
0.010228
0.0104251
0.010554
0.010617
0.010634
0.0106052
0.0104667
0.0100053
0.00868585
0.00465354
0.00465335
0.00868635
0.010005
0.0104661
0.0106064
0.010643
0.0106504
0.0106463
0.0106254
0.0105672
0.0104423
0.0102412
0.0100177
0.00990997
0.00987375
0.00986373
0.00986113
0.00986049
0.00986048
0.00986112
0.0098637
0.0098737
0.00990988
0.0100176
0.0102411
0.0104422
0.0105668
0.0106236
0.0106367
0.0106062
0.0104669
0.0100053
0.00868579
0.00465349
0.00465332
0.00868632
0.010005
0.0104661
0.0106065
0.0106432
0.0106507
0.0106469
0.0106269
0.0105699
0.0104458
0.0102439
0.0100194
0.00991107
0.00987464
0.0098646
0.00986201
0.00986137
0.00986136
0.009862
0.00986457
0.0098746
0.00991098
0.0100192
0.0102438
0.0104457
0.0105695
0.0106251
0.0106373
0.0106064
0.0104671
0.0100054
0.00868575
0.00465344
0.00465331
0.00868631
0.010005
0.0104662
0.0106065
0.0106432
0.0106507
0.010647
0.010627
0.0105699
0.0104459
0.010244
0.0100195
0.00991113
0.00987468
0.00986463
0.00986204
0.00986138
0.00986137
0.00986202
0.0098646
0.00987464
0.00991104
0.0100193
0.0102439
0.0104457
0.0105696
0.0106252
0.0106374
0.0106065
0.0104671
0.0100054
0.00868575
0.00465342
0.00465331
0.00868633
0.0100051
0.0104662
0.0106065
0.0106431
0.0106505
0.0106464
0.0106256
0.0105674
0.0104426
0.0102415
0.010018
0.00991017
0.0098739
0.00986385
0.00986123
0.00986057
0.00986056
0.00986122
0.00986383
0.00987386
0.0099101
0.0100178
0.0102414
0.0104425
0.0105671
0.0106238
0.0106369
0.0106063
0.010467
0.0100054
0.00868577
0.00465343
0.00465333
0.00868638
0.0100051
0.0104661
0.0106064
0.0106429
0.0106497
0.0106439
0.0106191
0.0105548
0.0104257
0.0102286
0.0100105
0.00990558
0.00987028
0.00986035
0.00985768
0.00985697
0.00985697
0.00985767
0.00986034
0.00987026
0.00990553
0.0100104
0.0102286
0.0104257
0.0105545
0.0106174
0.0106343
0.0106055
0.0104668
0.0100054
0.00868582
0.00465346
0.00465337
0.00868645
0.0100051
0.0104661
0.0106061
0.010642
0.0106467
0.0106341
0.0105932
0.0105017
0.0103523
0.0101734
0.0099791
0.00988654
0.00985547
0.00984615
0.00984331
0.00984248
0.00984248
0.00984332
0.00984617
0.00985548
0.00988653
0.00997906
0.0101734
0.0103522
0.0105015
0.0105914
0.0106246
0.0106025
0.010466
0.0100052
0.0086859
0.00465351
0.00465341
0.00868656
0.0100051
0.010466
0.0106056
0.0106397
0.0106374
0.0106028
0.0105053
0.0103115
0.0100742
0.00997226
0.00986753
0.00981889
0.00980264
0.00979529
0.009792
0.00979084
0.00979085
0.00979204
0.00979536
0.00980272
0.00981897
0.00986762
0.00997237
0.0100742
0.0103113
0.0105036
0.0105934
0.0105934
0.0104638
0.0100048
0.00868599
0.00465357
0.00465345
0.00868669
0.0100051
0.0104657
0.0106044
0.0106342
0.0106152
0.0105232
0.010266
0.00973988
0.00914177
0.00936434
0.00955051
0.00962684
0.00965093
0.00964767
0.00964326
0.00964147
0.0096415
0.00964334
0.0096478
0.0096511
0.00962704
0.00955076
0.00936472
0.00914197
0.00973977
0.0102643
0.0105138
0.0105712
0.0104585
0.0100038
0.00868604
0.00465362
0.00465349
0.00868683
0.0100051
0.0104653
0.0106025
0.0106257
0.0105783
0.0103813
0.00978814
0.00831383
0.00562637
0.00786349
0.0088886
0.00922858
0.00932792
0.00933067
0.00932544
0.00932331
0.00932334
0.00932552
0.00933078
0.00932798
0.00922848
0.00888843
0.00786403
0.00562637
0.0083138
0.0097865
0.0103719
0.0105344
0.0104501
0.0100023
0.00868604
0.00465366
0.00465351
0.00868698
0.0100051
0.0104651
0.0106013
0.0106198
0.010551
0.0102648
0.00930711
0.00569852
0.00538829
0.00816314
0.00876694
0.00890944
0.00893508
0.00893811
0.00893816
0.00893813
0.00893799
0.00893469
0.00890825
0.00876403
0.00815807
0.0053848
0.00569773
0.00930509
0.0102553
0.0105071
0.0104443
0.0100013
0.00868618
0.00465369
0.00465352
0.00868705
0.010005
0.010465
0.010602
0.0106251
0.0105779
0.0103821
0.00979306
0.00833033
0.00564105
0.007927
0.00895154
0.00927291
0.00934941
0.0093689
0.00937286
0.00937342
0.00937334
0.00937249
0.00936748
0.00934452
0.0092595
0.00892592
0.00790433
0.00563335
0.0083257
0.00978948
0.0103721
0.0105339
0.0104497
0.0100023
0.00868652
0.00465372
0.00465346
0.00868667
0.0100041
0.0104639
0.010602
0.0106317
0.0106131
0.0105235
0.0102745
0.00976959
0.00921315
0.0095024
0.00973523
0.00978503
0.00978418
0.00978136
0.00978014
0.0097797
0.00977956
0.00977931
0.0097778
0.0097709
0.00974572
0.00965556
0.0094316
0.00917277
0.00975206
0.0102666
0.0105123
0.0105689
0.0104566
0.010003
0.00868646
0.00465369
0.00465304
0.00868377
0.00999871
0.010457
0.0105953
0.0106288
0.0106271
0.010596
0.0105104
0.0103476
0.0101715
0.0101542
0.0101012
0.009988
0.00993016
0.0099111
0.00990612
0.009905
0.00990479
0.00990485
0.00990533
0.00990759
0.00991721
0.0099492
0.0100235
0.0100966
0.010315
0.0104974
0.0105834
0.0105829
0.0104547
0.00999858
0.00868375
0.00465326
0.00465054
0.00866823
0.00997264
0.0104249
0.0105609
0.0105952
0.0106002
0.0105919
0.0105658
0.0105134
0.0104414
0.0103683
0.0102441
0.0100897
0.0100168
0.0099934
0.00998747
0.00998619
0.00998598
0.00998612
0.00998718
0.00999235
0.0100132
0.0100801
0.010227
0.0103599
0.0104777
0.0105518
0.0105794
0.0105571
0.0104246
0.00997293
0.0086683
0.00465075
0.00463756
0.00859793
0.0098648
0.0102972
0.0104251
0.0104574
0.0104639
0.0104627
0.0104553
0.0104375
0.0104043
0.0103485
0.0102553
0.0101485
0.0100948
0.0100764
0.0100715
0.0100704
0.0100702
0.0100704
0.0100715
0.0100762
0.010094
0.0101465
0.010252
0.0103477
0.0104124
0.0104451
0.0104521
0.0104244
0.0102976
0.00986518
0.008598
0.00463775
0.00458017
0.00832789
0.00948493
0.00986503
0.00997309
0.00999937
0.0100049
0.0100054
0.0100034
0.00999727
0.0099832
0.00995498
0.00990768
0.00985431
0.00982539
0.00981467
0.00981153
0.00981074
0.0098106
0.00981077
0.00981158
0.00981471
0.00982533
0.00985406
0.00990723
0.00995506
0.00998478
0.00999799
0.00999785
0.00997322
0.00986547
0.00948523
0.00832791
0.00458033
0.00437394
0.0074372
0.00832812
0.00859834
0.00866882
0.00868453
0.00868758
0.00868798
0.00868745
0.00868551
0.00868061
0.00867012
0.00865245
0.0086322
0.00862052
0.00861575
0.00861413
0.00861363
0.00861354
0.0086137
0.00861428
0.00861596
0.00862076
0.00863244
0.00865268
0.00867046
0.00868106
0.00868541
0.00868417
0.008669
0.00859859
0.00832824
0.00743713
0.00437405
0.00385815
0.00437395
0.00458027
0.00463775
0.00465084
0.00465347
0.00465404
0.00465426
0.0046544
0.00465438
0.00465397
0.00465275
0.0046504
0.00464748
0.00464576
0.004645
0.00464469
0.00464455
0.00464451
0.00464456
0.00464471
0.00464503
0.00464577
0.00464748
0.00465038
0.00465271
0.00465392
0.00465425
0.00465383
0.0046512
0.00463805
0.00458047
0.00437407
0.00385827
0.0040855
0.00483419
0.00515568
0.00525291
0.00527696
0.00528202
0.00528295
0.00528311
0.00528314
0.00528313
0.00528313
0.00528311
0.00528309
0.00528306
0.00528304
0.00528302
0.00528301
0.005283
0.005283
0.00528301
0.00528302
0.00528304
0.00528306
0.00528308
0.0052831
0.00528311
0.0052831
0.00528295
0.00528202
0.00527696
0.00525292
0.00515569
0.00483421
0.00408554
0.00483419
0.00876956
0.00995444
0.0103413
0.0104508
0.0104772
0.0104827
0.0104836
0.0104837
0.0104836
0.0104834
0.0104832
0.010483
0.0104828
0.0104826
0.0104825
0.0104824
0.0104824
0.0104824
0.0104824
0.0104825
0.0104826
0.0104828
0.0104829
0.0104831
0.0104833
0.0104833
0.0104824
0.010477
0.0104506
0.0103411
0.00995427
0.00876943
0.0048342
0.00515574
0.00995463
0.0114717
0.012004
0.0121675
0.0122104
0.0122201
0.012222
0.0122223
0.0122222
0.012222
0.0122219
0.0122218
0.0122217
0.0122217
0.0122217
0.0122216
0.0122216
0.0122216
0.0122216
0.0122217
0.0122217
0.0122218
0.0122218
0.0122219
0.012222
0.0122218
0.01222
0.0122104
0.0121675
0.012004
0.0114717
0.00995463
0.0051558
0.00525303
0.0103416
0.0120041
0.012609
0.0128021
0.0128549
0.0128674
0.0128698
0.0128699
0.0128693
0.0128686
0.0128683
0.0128683
0.0128684
0.0128684
0.0128685
0.0128684
0.0128684
0.0128684
0.0128684
0.0128685
0.0128685
0.0128684
0.0128683
0.0128683
0.0128685
0.0128688
0.0128669
0.0128548
0.0128022
0.0126091
0.0120043
0.0103417
0.00525315
0.00527712
0.0104512
0.0121677
0.0128022
0.0130083
0.0130656
0.0130791
0.0130811
0.0130794
0.0130759
0.0130722
0.0130709
0.0130709
0.0130713
0.0130716
0.0130715
0.0130714
0.0130713
0.0130713
0.0130714
0.0130715
0.0130716
0.0130713
0.0130709
0.013071
0.0130722
0.0130753
0.013076
0.0130645
0.0130082
0.0128024
0.0121679
0.0104513
0.00527726
0.0052822
0.0104776
0.0122107
0.012855
0.0130656
0.0131242
0.013137
0.0131358
0.0131263
0.0131098
0.0130936
0.0130895
0.0130903
0.013092
0.0130933
0.0130927
0.013092
0.0130916
0.0130916
0.013092
0.0130928
0.0130933
0.0130921
0.0130903
0.0130895
0.0130936
0.0131092
0.0131228
0.0131186
0.013064
0.0128548
0.0122108
0.0104778
0.00528237
0.00528314
0.0104831
0.0122204
0.0128674
0.0130791
0.0131371
0.0131459
0.0131324
0.0130941
0.013029
0.0129667
0.0129596
0.0129692
0.012978
0.0129831
0.0129814
0.012979
0.0129779
0.0129779
0.0129791
0.0129815
0.0129831
0.0129781
0.0129693
0.0129596
0.0129667
0.0130284
0.0130906
0.0131151
0.0130723
0.0128659
0.0122202
0.0104831
0.00528334
0.0052833
0.0104839
0.0122222
0.0128699
0.0130811
0.013136
0.013133
0.0130828
0.012955
0.0127315
0.012516
0.0125342
0.0125942
0.0126318
0.0126495
0.0126465
0.0126415
0.0126393
0.0126393
0.0126415
0.0126465
0.0126495
0.0126318
0.0125942
0.0125343
0.012516
0.0127309
0.0129514
0.0130654
0.0130591
0.0128643
0.0122211
0.0104838
0.00528349
0.00528331
0.0104839
0.0122224
0.01287
0.0130797
0.0131275
0.0130974
0.0129604
0.0126051
0.0119268
0.0111987
0.0114597
0.0117384
0.0118686
0.0119151
0.0119179
0.0119133
0.011911
0.011911
0.0119133
0.0119179
0.0119152
0.0118687
0.0117385
0.0114598
0.0111987
0.0119262
0.0126016
0.012943
0.0130235
0.0128556
0.0122193
0.0104833
0.00528347
0.00528329
0.0104837
0.0122223
0.0128695
0.013077
0.0131141
0.0130417
0.0127588
0.0119638
0.0100793
0.00659597
0.00916203
0.0102493
0.0106049
0.0106837
0.0107244
0.0107324
0.0107332
0.0107332
0.0107324
0.0107244
0.0106837
0.010605
0.0102495
0.00916236
0.00659578
0.0100787
0.0119602
0.0127413
0.0129676
0.012842
0.0122162
0.0104824
0.00528337
0.00528325
0.0104835
0.0122221
0.0128692
0.0130753
0.0131056
0.0130036
0.012606
0.0113625
0.00675591
0.00586039
0.00872686
0.00934683
0.00950107
0.00952219
0.00952283
0.00952228
0.00952229
0.00952284
0.00952222
0.00950113
0.00934697
0.00872717
0.00586066
0.00675547
0.0113589
0.0125883
0.0129293
0.0128331
0.0122142
0.0104816
0.00528326
0.00528319
0.0104832
0.012222
0.0128695
0.0130772
0.0131143
0.013041
0.0127548
0.0119502
0.0100417
0.00654305
0.00900075
0.0100993
0.0104791
0.010656
0.0105865
0.0105584
0.0105518
0.0105518
0.0105584
0.0105864
0.0106559
0.010479
0.0100992
0.00900058
0.0065426
0.0100405
0.0119464
0.0127371
0.0129666
0.0128417
0.0122156
0.0104813
0.00528319
0.00528313
0.010483
0.012222
0.0128701
0.0130802
0.0131278
0.0130957
0.0129509
0.0125717
0.0118303
0.0109608
0.0109931
0.0110432
0.011083
0.0111164
0.0110933
0.0110807
0.0110769
0.0110769
0.0110807
0.0110932
0.0111163
0.0110828
0.0110431
0.0109928
0.0109604
0.0118293
0.0125679
0.0129333
0.0130214
0.012855
0.0122183
0.0104814
0.00528314
0.00528307
0.0104827
0.012222
0.0128705
0.0130823
0.0131369
0.0131309
0.0130686
0.0129026
0.0125787
0.0121474
0.0118179
0.0114949