/*--------------------------------*- C++ -*----------------------------------*\
| =========                 |                                                 |
| \\      /  F ield         | OpenFOAM: The Open Source CFD Toolbox           |
|  \\    /   O peration     | Version:  2112                                  |
|   \\  /    A nd           | Website:  www.openfoam.com                      |
|    \\/     M anipulation  |                                                 |
\*---------------------------------------------------------------------------*/
FoamFile
{
    version     2.0;
    format      ascii;
    arch        "LSB;label=32;scalar=64";
    class       volScalarField;
    location    "1.1";
    object      nut;
}
// * * * * * * * * * * * * * * * * * * * * * * * * * * * * * * * * * * * * * //

dimensions      [0 2 -1 0 0 0 0];

internalField   nonuniform List<scalar> 
64906
(
0.000120705
0.000123277
0.000124292
0.000124558
0.000124615
0.000124625
0.000124628
0.000124629
0.00012463
0.00012463
0.000124631
0.000124632
0.000124632
0.000124633
0.000124633
0.000124633
0.000124633
0.000124632
0.000124632
0.000124632
0.000124632
0.000124632
0.000124632
0.000124632
0.000124632
0.000124631
0.00012463
0.000124629
0.000124627
0.000124616
0.000124559
0.000124293
0.000123278
0.000120706
0.000123277
0.000141452
0.000147707
0.000149506
0.00014995
0.000150044
0.000150063
0.000150067
0.000150069
0.00015007
0.000150072
0.000150073
0.000150075
0.000150076
0.000150077
0.000150077
0.000150078
0.000150078
0.000150078
0.000150078
0.000150077
0.000150077
0.000150076
0.000150075
0.000150074
0.000150072
0.00015007
0.000150066
0.000150048
0.000149953
0.000149509
0.00014771
0.000141454
0.000123279
0.000124293
0.000147709
0.00015622
0.000158881
0.000159602
0.000159771
0.000159807
0.000159816
0.000159819
0.000159822
0.000159826
0.00015983
0.000159833
0.000159836
0.000159839
0.000159841
0.000159842
0.000159843
0.000159843
0.000159843
0.000159841
0.000159839
0.000159837
0.000159834
0.00015983
0.000159827
0.000159823
0.000159814
0.000159778
0.000159608
0.000158886
0.000156225
0.000147714
0.000124296
0.00012456
0.000149509
0.000158882
0.000161936
0.000162802
0.000163013
0.00016306
0.000163072
0.000163076
0.00016308
0.000163083
0.00016309
0.000163096
0.000163102
0.000163107
0.00016311
0.000163113
0.000163114
0.000163114
0.000163113
0.000163111
0.000163108
0.000163103
0.000163097
0.000163091
0.000163085
0.00016308
0.000163068
0.000163022
0.000162809
0.000161943
0.000158889
0.000149514
0.000124564
0.000124617
0.000149953
0.000159604
0.000162802
0.000163725
0.000163955
0.000164007
0.000164018
0.000164019
0.000164014
0.000164011
0.000164021
0.000164033
0.000164043
0.000164052
0.000164057
0.00016406
0.000164061
0.000164062
0.00016406
0.000164057
0.000164052
0.000164044
0.000164034
0.000164022
0.000164012
0.000164014
0.00016401
0.000163963
0.000163734
0.000162811
0.000159613
0.00014996
0.000124621
0.000124628
0.000150048
0.000159774
0.000163014
0.000163955
0.000164191
0.000164242
0.000164244
0.000164218
0.000164166
0.00016412
0.000164139
0.000164172
0.000164198
0.000164214
0.000164221
0.000164224
0.000164225
0.000164226
0.000164224
0.000164221
0.000164215
0.000164199
0.000164174
0.000164141
0.000164121
0.000164166
0.000164209
0.000164187
0.000163962
0.000163024
0.000159783
0.000150056
0.000124633
0.000124631
0.000150066
0.000159809
0.000163061
0.000164007
0.000164242
0.00016428
0.000164238
0.000164097
0.000163833
0.000163587
0.000163677
0.000163811
0.000163894
0.000163935
0.000163944
0.000163945
0.000163946
0.000163946
0.000163945
0.000163945
0.000163936
0.000163895
0.000163813
0.000163678
0.000163589
0.000163833
0.000164088
0.000164181
0.000163999
0.000163068
0.000159819
0.000150075
0.000124637
0.000124632
0.00015007
0.000159817
0.000163071
0.000164017
0.000164243
0.000164238
0.000164045
0.000163492
0.000162429
0.000161371
0.000161908
0.000162503
0.000162801
0.000162921
0.000162938
0.000162936
0.000162935
0.000162935
0.000162937
0.000162939
0.000162923
0.000162803
0.000162504
0.00016191
0.000161372
0.000162429
0.000163484
0.000163988
0.000163956
0.000163068
0.000159826
0.00015008
0.000124638
0.000124633
0.000150071
0.00015982
0.000163075
0.000164016
0.000164217
0.0001641
0.000163503
0.000161767
0.000158069
0.000153791
0.000156821
0.00015923
0.000160218
0.000160539
0.000160592
0.000160596
0.000160597
0.000160597
0.000160597
0.000160594
0.00016054
0.00016022
0.000159232
0.000156824
0.000153792
0.00015807
0.000161759
0.000163447
0.000163819
0.000163042
0.000159824
0.000150081
0.00012464
0.000124633
0.000150072
0.000159821
0.000163077
0.000164011
0.000164169
0.000163856
0.000162491
0.000158155
0.000146941
0.0001302
0.00014485
0.000153209
0.000155884
0.000156576
0.000156732
0.000156764
0.000156772
0.000156772
0.000156765
0.000156733
0.000156578
0.000155886
0.000153213
0.000144855
0.0001302
0.000146942
0.000158147
0.000162435
0.000163575
0.000162994
0.000159818
0.000150081
0.000124641
0.000124634
0.000150072
0.000159823
0.000163079
0.00016401
0.000164137
0.000163669
0.000161594
0.000154177
0.000130422
0.00012911
0.000147266
0.000152073
0.000153153
0.000153353
0.000153383
0.000153387
0.000153387
0.000153383
0.000153353
0.000153154
0.000152075
0.00014727
0.000129113
0.000130423
0.000154169
0.000161539
0.000163388
0.000162962
0.000159815
0.00015008
0.000124642
0.000124634
0.000150072
0.000159825
0.000163084
0.000164023
0.000164185
0.000163877
0.000162508
0.000158141
0.000146825
0.000130103
0.00014415
0.000152361
0.000154959
0.000155624
0.000155704
0.000155691
0.000155681
0.000155681
0.00015569
0.000155704
0.000155624
0.000154958
0.000152361
0.000144149
0.000130099
0.000146819
0.00015813
0.00016245
0.000163595
0.000163008
0.000159825
0.000150081
0.000124642
0.000124633
0.000150072
0.000159827
0.000163089
0.000164039
0.000164248
0.000164139
0.000163535
0.000161743
0.000157872
0.00015321
0.000155444
0.000157057
0.000157652
0.000157809
0.000157802
0.000157777
0.000157766
0.000157766
0.000157777
0.000157801
0.000157808
0.00015765
0.000157055
0.00015544
0.000153204
0.000157867
0.000161732
0.000163477
0.000163855
0.000163069
0.000159839
0.000150083
0.000124642
0.000124633
0.000150071
0.000159828
0.000163094
0.00016405
0.000164288
0.000164293
0.000164092
0.000163463
0.000162148
0.00016048
0.000159901
0.00015925
0.000158942
0.000158829
0.000158776
0.000158749
0.000158738
0.000158738
0.000158748
0.000158774
0.000158827
0.00015894
0.000159248
0.000159895
0.000160476
0.000162144
0.000163452
0.000164033
0.000164009
0.000163108
0.000159848
0.000150083
0.000124641
0.000124632
0.000150071
0.000159829
0.000163096
0.000164057
0.000164307
0.000164358
0.000164307
0.000164076
0.000163509
0.000162528
0.000161329
0.000160005
0.000159389
0.000159176
0.000159103
0.000159074
0.000159063
0.000159062
0.000159073
0.000159102
0.000159174
0.000159387
0.000160002
0.000161323
0.000162524
0.000163505
0.000164065
0.000164248
0.000164074
0.000163126
0.000159853
0.000150083
0.00012464
0.000124631
0.000150071
0.00015983
0.000163098
0.000164061
0.000164316
0.000164382
0.000164376
0.000164256
0.000163879
0.00016305
0.000161715
0.000160215
0.000159515
0.000159272
0.000159192
0.000159161
0.000159147
0.000159147
0.00015916
0.000159191
0.000159271
0.000159513
0.000160212
0.000161711
0.000163046
0.000163876
0.000164245
0.000164317
0.000164097
0.000163134
0.000159855
0.000150083
0.000124639
0.000124631
0.00015007
0.000159831
0.0001631
0.000164063
0.00016432
0.00016439
0.000164396
0.000164303
0.000163969
0.00016317
0.000161809
0.000160266
0.000159547
0.000159296
0.000159213
0.00015918
0.000159164
0.000159163
0.000159178
0.000159212
0.000159294
0.000159544
0.000160263
0.000161804
0.000163166
0.000163966
0.000164292
0.000164337
0.000164105
0.000163137
0.000159857
0.000150083
0.000124637
0.00012463
0.00015007
0.000159831
0.000163101
0.000164064
0.000164322
0.000164393
0.000164402
0.000164314
0.000163989
0.000163196
0.00016183
0.000160278
0.000159554
0.000159302
0.000159218
0.000159183
0.000159164
0.000159163
0.000159181
0.000159216
0.0001593
0.000159552
0.000160275
0.000161825
0.000163193
0.000163986
0.000164304
0.000164343
0.000164108
0.000163139
0.000159858
0.000150083
0.000124636
0.000124629
0.00015007
0.000159832
0.000163101
0.000164065
0.000164322
0.000164394
0.000164403
0.000164316
0.000163991
0.000163198
0.000161832
0.000160279
0.000159555
0.000159302
0.000159217
0.000159182
0.000159162
0.000159161
0.00015918
0.000159215
0.0001593
0.000159552
0.000160276
0.000161828
0.000163195
0.000163988
0.000164305
0.000164345
0.000164109
0.00016314
0.000159858
0.000150083
0.000124635
0.000124629
0.00015007
0.000159832
0.000163101
0.000164065
0.000164322
0.000164393
0.000164399
0.000164307
0.000163974
0.000163176
0.000161815
0.000160269
0.000159549
0.000159297
0.000159213
0.000159177
0.000159158
0.000159157
0.000159175
0.00015921
0.000159295
0.000159546
0.000160267
0.00016181
0.000163173
0.000163971
0.000164297
0.000164341
0.000164108
0.00016314
0.000159858
0.000150083
0.000124635
0.00012463
0.00015007
0.000159831
0.0001631
0.000164063
0.000164319
0.000164386
0.000164382
0.000164263
0.000163889
0.000163061
0.000161727
0.000160221
0.000159519
0.000159274
0.000159191
0.000159157
0.00015914
0.000159139
0.000159155
0.000159189
0.000159272
0.000159517
0.000160218
0.000161723
0.000163058
0.000163886
0.000164253
0.000164324
0.000164102
0.000163138
0.000159857
0.000150083
0.000124636
0.00012463
0.000150071
0.000159831
0.000163099
0.000164061
0.000164312
0.000164365
0.000164316
0.000164087
0.000163524
0.000162547
0.000161348
0.000160015
0.000159396
0.00015918
0.000159103
0.000159071
0.000159056
0.000159055
0.000159069
0.000159101
0.000159178
0.000159394
0.000160013
0.000161345
0.000162545
0.000163522
0.000164078
0.000164258
0.000164081
0.000163131
0.000159856
0.000150084
0.000124637
0.000124631
0.000150071
0.00015983
0.000163097
0.000164055
0.000164294
0.000164302
0.000164103
0.000163479
0.000162171
0.000160512
0.000159932
0.000159267
0.000158953
0.000158836
0.000158779
0.000158749
0.000158735
0.000158735
0.000158747
0.000158777
0.000158834
0.000158952
0.000159266
0.000159931
0.000160511
0.000162171
0.000163471
0.000164046
0.000164019
0.000163115
0.000159852
0.000150084
0.000124639
0.000124632
0.000150072
0.000159829
0.000163094
0.000164045
0.000164256
0.000164149
0.000163549
0.000161765
0.000157907
0.000153263
0.000155482
0.000157079
0.000157667
0.000157819
0.000157808
0.000157781
0.000157767
0.000157767
0.00015778
0.000157807
0.000157818
0.000157666
0.000157079
0.000155485
0.000153265
0.000157908
0.000161758
0.000163494
0.000163868
0.000163078
0.000159844
0.000150084
0.00012464
0.000124632
0.000150072
0.000159828
0.000163089
0.00016403
0.000164195
0.000163889
0.000162525
0.000158167
0.000146869
0.000130136
0.000144177
0.000152362
0.000154954
0.000155614
0.000155691
0.000155675
0.000155663
0.000155663
0.000155674
0.000155689
0.000155612
0.000154951
0.00015236
0.000144183
0.000130135
0.000146872
0.000158161
0.000162471
0.000163609
0.000163019
0.000159832
0.000150083
0.00012464
0.000124632
0.000150073
0.000159827
0.000163085
0.000164018
0.000164148
0.000163682
0.00016161
0.000154193
0.000130428
0.000129063
0.000147169
0.000151955
0.000153015
0.000153205
0.00015323
0.000153231
0.00015323
0.000153227
0.0001532
0.000153004
0.000151933
0.000147135
0.000129041
0.000130424
0.000154185
0.000161556
0.000163403
0.000162974
0.000159822
0.000150083
0.00012464
0.000124632
0.000150072
0.000159825
0.000163082
0.000164019
0.00016418
0.000163871
0.000162509
0.000158177
0.000146968
0.000130223
0.000144697
0.00015292
0.000155417
0.000156003
0.000156124
0.000156146
0.00015615
0.000156149
0.000156142
0.00015611
0.000155964
0.00015532
0.000152741
0.00014456
0.000130189
0.000146948
0.000158162
0.000162454
0.000163592
0.000163007
0.000159826
0.000150083
0.00012464
0.000124632
0.00015007
0.000159818
0.000163074
0.000164017
0.000164221
0.000164108
0.000163515
0.000161776
0.000158057
0.000153691
0.000156445
0.000158402
0.000158819
0.000158836
0.000158812
0.000158803
0.0001588
0.000158799
0.000158796
0.000158784
0.000158739
0.000158545
0.000157845
0.000155986
0.000153449
0.000157956
0.000161735
0.000163452
0.000163829
0.000163049
0.000159828
0.000150082
0.000124639
0.00012463
0.000150052
0.000159783
0.000163028
0.000163972
0.0001642
0.000164199
0.000164008
0.000163445
0.000162325
0.000161078
0.000161129
0.000160843
0.000160051
0.000159671
0.000159546
0.000159513
0.000159505
0.000159503
0.000159503
0.000159507
0.000159522
0.000159581
0.000159774
0.000160241
0.000160591
0.000162123
0.000163371
0.000163937
0.000163919
0.000163034
0.000159799
0.000150065
0.000124637
0.000124619
0.000149958
0.000159615
0.000162817
0.000163745
0.000163977
0.000164018
0.000163977
0.000163823
0.000163493
0.000163033
0.000162591
0.000161764
0.000160691
0.000160211
0.000160062
0.000160024
0.000160016
0.000160014
0.000160015
0.000160021
0.000160053
0.000160186
0.000160622
0.000161628
0.000162498
0.000163271
0.000163743
0.000163907
0.000163746
0.000162835
0.000159632
0.00014997
0.000124626
0.000124562
0.000149514
0.000158893
0.000161952
0.000162822
0.000163039
0.000163089
0.000163092
0.000163059
0.000162963
0.000162769
0.000162429
0.000161825
0.000161098
0.000160743
0.000160625
0.000160596
0.000160591
0.00016059
0.00016059
0.000160593
0.00016062
0.000160733
0.000161078
0.000161794
0.00016241
0.000162813
0.000163005
0.000163034
0.00016284
0.000161972
0.00015891
0.000149526
0.000124568
0.000124296
0.000147715
0.000156231
0.000158897
0.000159623
0.000159798
0.000159839
0.000159852
0.000159851
0.000159828
0.000159758
0.000159597
0.000159309
0.000158968
0.000158789
0.000158725
0.000158709
0.000158707
0.000158707
0.000158706
0.000158708
0.000158723
0.000158785
0.000158962
0.0001593
0.00015959
0.000159761
0.000159828
0.000159814
0.000159645
0.000158916
0.000156247
0.000147726
0.000124301
0.00012328
0.000141458
0.000147719
0.000149521
0.000149969
0.000150068
0.000150092
0.000150103
0.000150109
0.000150109
0.000150093
0.000150043
0.000149951
0.000149836
0.000149772
0.000149747
0.00014974
0.000149739
0.000149739
0.000149739
0.00014974
0.000149747
0.000149771
0.000149835
0.000149948
0.000150041
0.000150091
0.000150105
0.000150087
0.000149988
0.000149537
0.000147731
0.000141467
0.000123285
0.000120708
0.000123281
0.000124298
0.000124567
0.000124626
0.00012464
0.000124646
0.000124651
0.000124656
0.000124662
0.000124666
0.000124666
0.00012466
0.000124649
0.000124642
0.000124637
0.000124634
0.000124632
0.00012463
0.000124632
0.000124634
0.000124637
0.000124641
0.000124648
0.000124658
0.000124663
0.000124663
0.000124659
0.000124652
0.000124637
0.000124576
0.000124305
0.000123286
0.000120711
0.000184692
0.000198223
0.000203748
0.000205395
0.000205801
0.000205886
0.000205902
0.000205905
0.000205906
0.000205906
0.000205907
0.000205907
0.000205907
0.000205907
0.000205906
0.000205906
0.000205906
0.000205906
0.000205906
0.000205906
0.000205906
0.000205906
0.000205906
0.000205907
0.000205907
0.000205906
0.000205906
0.000205903
0.000205887
0.000205802
0.000205396
0.000203749
0.000198224
0.000184693
0.000198223
0.000538925
0.000630015
0.000656619
0.000663704
0.000665336
0.000665658
0.000665709
0.000665709
0.000665699
0.000665685
0.000665668
0.000665653
0.000665638
0.000665626
0.000665616
0.00066561
0.000665606
0.000665606
0.00066561
0.000665616
0.000665626
0.000665638
0.000665652
0.000665667
0.000665682
0.000665686
0.00066564
0.00066532
0.00066369
0.000656606
0.000630003
0.000538917
0.000198224
0.00020375
0.000630032
0.000756515
0.000796763
0.000808435
0.000811368
0.000812007
0.000812129
0.000812147
0.000812143
0.000812136
0.000812133
0.000812132
0.000812132
0.000812131
0.000812131
0.00081213
0.000812129
0.00081213
0.00081213
0.000812131
0.000812133
0.000812133
0.000812133
0.000812134
0.000812135
0.000812122
0.000812006
0.000811371
0.000808439
0.000796767
0.000756518
0.000630036
0.000203752
0.000205398
0.000656645
0.000796774
0.000843328
0.000857408
0.000861095
0.000861932
0.000862095
0.000862106
0.000862076
0.000862044
0.000862043
0.000862058
0.000862075
0.000862088
0.000862094
0.000862097
0.000862098
0.000862099
0.000862098
0.000862096
0.00086209
0.000862078
0.000862061
0.000862047
0.000862043
0.000862047
0.000861917
0.000861101
0.000857423
0.000843345
0.000796789
0.000656655
0.000205402
0.000205805
0.000663733
0.000808451
0.000857413
0.00087249
0.000876505
0.00087742
0.000877558
0.00087746
0.000877241
0.000877031
0.00087701
0.000877063
0.000877119
0.000877158
0.000877166
0.000877164
0.000877162
0.000877163
0.000877165
0.000877168
0.000877161
0.000877123
0.000877068
0.000877015
0.000877032
0.000877209
0.000877248
0.000876456
0.000872494
0.000857433
0.000808472
0.000663747
0.000205809
0.00020589
0.000665364
0.000811384
0.0008611
0.000876506
0.000880618
0.000881494
0.000881418
0.000880793
0.000879684
0.00087865
0.000878627
0.000878904
0.000879133
0.000879264
0.000879257
0.000879225
0.000879209
0.00087921
0.000879227
0.00087926
0.000879268
0.000879138
0.00087891
0.000878633
0.000878651
0.000879652
0.000880572
0.000880277
0.000876423
0.000861102
0.000811403
0.000665377
0.000205896
0.000205907
0.000665684
0.000812021
0.000861935
0.000877418
0.000881493
0.000882107
0.000881189
0.000878511
0.000873839
0.000869452
0.000870113
0.000871669
0.000872682
0.00087318
0.00087313
0.00087301
0.000872955
0.000872956
0.000873012
0.000873133
0.000873184
0.000872688
0.000871676
0.00087012
0.000869454
0.000873807
0.000878289
0.000880039
0.000876995
0.000861852
0.000812022
0.000665692
0.000205913
0.00020591
0.00066573
0.000812138
0.000862094
0.000877554
0.000881422
0.000881211
0.000877647
0.000868222
0.000850953
0.000833534
0.000840504
0.000848251
0.00085229
0.00085401
0.000853918
0.000853649
0.000853534
0.000853535
0.000853651
0.000853921
0.000854015
0.000852296
0.000848259
0.000840513
0.000833537
0.000850922
0.000868002
0.000876497
0.000876091
0.000861751
0.000812084
0.000665726
0.000205916
0.00020591
0.000665725
0.00081215
0.000862102
0.000877464
0.000880841
0.000878666
0.00086849
0.000840622
0.000782711
0.000708861
0.000760056
0.000793944
0.000807597
0.000812369
0.000812567
0.000812284
0.000812162
0.000812163
0.000812286
0.000812569
0.000812373
0.000807604
0.000793956
0.000760072
0.000708863
0.000782681
0.000840406
0.000867344
0.000873547
0.000861161
0.000811969
0.000665692
0.000205917
0.00020591
0.000665708
0.000812141
0.000862074
0.00087728
0.000879888
0.000874472
0.000852298
0.000784338
0.000600933
0.00022896
0.000567071
0.000699205
0.000736952
0.000746748
0.000748557
0.000748805
0.000748821
0.000748821
0.000748806
0.000748559
0.000746752
0.000736961
0.000699226
0.000567111
0.000228957
0.000600907
0.000784125
0.000851155
0.000869353
0.0008602
0.000811765
0.000665631
0.000205916
0.00020591
0.000665687
0.00081213
0.000862056
0.000877165
0.000879245
0.000871344
0.000837966
0.000715451
0.00023043
0.000222659
0.000601481
0.000674642
0.000689391
0.000692304
0.000692752
0.000692792
0.000692792
0.000692752
0.000692305
0.000689394
0.000674653
0.000601513
0.000222665
0.000230424
0.000715241
0.000836821
0.000866219
0.000859543
0.000811623
0.000665572
0.000205914
0.000205909
0.000665665
0.000812125
0.000862082
0.000877306
0.000879916
0.000874457
0.000852095
0.000783552
0.000598616
0.000228343
0.000556766
0.00068385
0.000718875
0.000726447
0.000728939
0.000729208
0.000729145
0.000729143
0.000729204
0.000728932
0.000726437
0.000718864
0.000683843
0.000556756
0.000228332
0.000598535
0.000783316
0.000850939
0.000869322
0.000860195
0.000811728
0.000665546
0.000205914
0.000205908
0.000665646
0.000812124
0.000862123
0.000877519
0.000880901
0.00087864
0.000868073
0.000838959
0.00077781
0.000697236
0.000734053
0.000750558
0.000756607
0.000758033
0.000758367
0.000758234
0.000758125
0.000758124
0.00075823
0.00075836
0.000758022
0.000756592
0.000750537
0.000734022
0.000697193
0.000777742
0.000838721
0.000866911
0.000873495
0.000861161
0.000811909
0.00066554
0.000205913
0.000205907
0.000665629
0.000812122
0.000862153
0.000877666
0.000881543
0.000881208
0.00087706
0.000865688
0.000843131
0.000813943
0.000799917
0.00078188
0.000774919
0.000772808
0.000772169
0.000771918
0.000771826
0.000771826
0.000771916
0.000772165
0.0007728
0.000774907
0.000781861
0.000799907
0.00081392
0.000843078
0.000865454
0.000875895
0.000876054
0.000861787
0.000812027
0.00066553
0.000205911
0.000205905
0.000665616
0.000812119
0.000862169
0.000877737
0.000881833
0.000882305
0.000880681
0.000875596
0.000864329
0.000845404
0.000821241
0.000793136
0.000781612
0.000778088
0.000777136
0.000776878
0.000776811
0.00077681
0.000776877
0.000777134
0.000778084
0.000781602
0.000793121
0.000821233
0.00084539
0.000864284
0.000875365
0.000879515
0.000877145
0.000862065
0.000812079
0.000665518
0.00020591
0.000205904
0.000665606
0.000812117
0.000862177
0.000877768
0.00088194
0.000882677
0.000881843
0.000878605
0.000870321
0.000853581
0.000827183
0.000796438
0.000783602
0.000779652
0.000778621
0.000778374
0.000778322
0.000778322
0.000778374
0.00077862
0.000779649
0.000783594
0.000796424
0.000827177
0.000853571
0.000870279
0.000878375
0.000880677
0.000877514
0.000862165
0.000812097
0.000665507
0.000205908
0.000205903
0.000665599
0.000812116
0.000862182
0.000877781
0.000881976
0.000882786
0.00088216
0.000879383
0.000871793
0.000855493
0.000828609
0.000797267
0.000784117
0.000780062
0.000779018
0.000778779
0.000778735
0.000778736
0.00077878
0.000779018
0.00078006
0.000784109
0.000797254
0.000828605
0.000855485
0.000871752
0.000879154
0.000880994
0.000877623
0.000862197
0.000812102
0.0006655
0.000205906
0.000205902
0.000665595
0.000812115
0.000862184
0.000877786
0.000881988
0.000882816
0.000882237
0.000879556
0.000872105
0.000855883
0.000828903
0.000797452
0.000784237
0.000780161
0.000779115
0.000778881
0.000778841
0.000778841
0.000778882
0.000779116
0.000780159
0.00078423
0.000797439
0.000828899
0.000855875
0.000872065
0.000879329
0.000881071
0.000877652
0.000862208
0.000812103
0.000665495
0.000205905
0.000205902
0.000665595
0.000812115
0.000862186
0.000877788
0.000881991
0.000882819
0.000882241
0.000879561
0.00087211
0.000855889
0.000828908
0.00079746
0.000784242
0.000780165
0.000779119
0.000778885
0.000778846
0.000778846
0.000778886
0.00077912
0.000780164
0.000784236
0.000797448
0.000828904
0.000855881
0.000872072
0.000879335
0.000881076
0.000877656
0.00086221
0.000812104
0.000665494
0.000205905
0.000205902
0.000665597
0.000812117
0.000862186
0.000877787
0.000881984
0.000882796
0.000882173
0.000879398
0.00087181
0.000855511
0.000828625
0.000797294
0.000784137
0.000780078
0.000779033
0.000778796
0.000778754
0.000778755
0.000778797
0.000779034
0.000780078
0.000784132
0.000797284
0.000828622
0.000855504
0.000871772
0.000879172
0.00088101
0.000877634
0.000862205
0.000812104
0.000665497
0.000205905
0.000205903
0.000665602
0.000812119
0.000862184
0.000877778
0.000881954
0.000882694
0.000881866
0.000878633
0.000870355
0.000853618
0.000827219
0.000796494
0.000783648
0.000779692
0.000778661
0.000778417
0.000778368
0.000778369
0.000778419
0.000778664
0.000779693
0.000783646
0.000796486
0.000827217
0.000853613
0.000870319
0.000878409
0.000880704
0.000877534
0.000862178
0.000812102
0.000665503
0.000205906
0.000205904
0.000665611
0.000812122
0.000862179
0.000877752
0.000881853
0.00088233
0.000880715
0.000875644
0.000864394
0.000845484
0.000821318
0.000793243
0.000781707
0.000778179
0.00077723
0.000776977
0.000776915
0.000776916
0.000776981
0.000777235
0.000778184
0.000781709
0.000793242
0.000821322
0.000845482
0.000864361
0.000875422
0.000879557
0.000877175
0.000862085
0.000812087
0.000665512
0.000205907
0.000205905
0.000665622
0.000812125
0.000862166
0.000877685
0.00088157
0.000881243
0.000877111
0.000865766
0.000843256
0.000814122
0.000800082
0.00078207
0.000775098
0.000772988
0.00077236
0.00077212
0.000772037
0.000772039
0.000772127
0.000772371
0.000773001
0.000775111
0.000782082
0.000800098
0.000814129
0.000843228
0.000865549
0.000875958
0.000876096
0.000861813
0.000812037
0.000665521
0.000205909
0.000205906
0.000665638
0.000812128
0.000862139
0.000877544
0.000880935
0.000878686
0.000868143
0.00083908
0.000778033
0.000697612
0.00073439
0.000750828
0.000756863
0.000758301
0.000758656
0.000758544
0.000758448
0.000758451
0.000758555
0.000758674
0.000758323
0.000756886
0.000750856
0.000734436
0.000697637
0.000778016
0.000838869
0.000866996
0.000873549
0.000861194
0.00081192
0.000665527
0.00020591
0.000205907
0.000665655
0.00081213
0.0008621
0.000877335
0.000879956
0.000874512
0.000852177
0.000783697
0.000598913
0.000228424
0.000557054
0.000683927
0.000718923
0.00072649
0.000729006
0.0007293
0.000729252
0.000729256
0.000729312
0.000729022
0.0007265
0.000718918
0.000683921
0.000557154
0.000228423
0.000598916
0.00078349
0.000851036
0.000869385
0.000860234
0.000811741
0.000665528
0.000205911
0.000205908
0.000665673
0.000812132
0.000862072
0.000877195
0.000879286
0.000871398
0.000838033
0.00071552
0.000230426
0.000222488
0.000600236
0.000673019
0.0006875
0.000690342
0.000690783
0.000690823
0.000690822
0.000690774
0.000690309
0.000687386
0.000672733
0.000599768
0.000222384
0.000230401
0.000715281
0.000836879
0.000866274
0.00085958
0.000811632
0.000665547
0.000205911
0.000205908
0.000665682
0.000812123
0.000862065
0.000877282
0.000879901
0.000874495
0.000852322
0.000784338
0.000600874
0.000228868
0.000564349
0.000694177
0.000729062
0.000737209
0.000738725
0.000738979
0.00073901
0.000739004
0.000738943
0.000738579
0.00073669
0.000727586
0.000691278
0.000562068
0.00022863
0.000600429
0.000783899
0.000851102
0.000869359
0.000860208
0.000811751
0.000665587
0.000205912
0.000205906
0.00066564
0.000812014
0.000861934
0.000877288
0.000880669
0.000878496
0.000868285
0.000840245
0.000781735
0.000706068
0.000752269
0.000777842
0.000780926
0.000780326
0.000779729
0.000779508
0.000779444
0.00077943
0.000779421
0.000779343
0.000778829
0.000776197
0.000767385
0.000743497
0.000701414
0.000779605
0.000839243
0.0008669
0.000873328
0.000861
0.000811833
0.000665584
0.000205911
0.00020589
0.000665324
0.000811384
0.000861123
0.000876491
0.000880331
0.000880103
0.000876455
0.000866658
0.000848077
0.000826762
0.000824278
0.000814707
0.000796459
0.000788904
0.000786639
0.000786077
0.000785955
0.000785934
0.000785941
0.000786005
0.000786297
0.000787508
0.00079243
0.000806493
0.000817028
0.00084388
0.000864977
0.000874889
0.000874929
0.000860777
0.000811327
0.000665293
0.000205896
0.000205805
0.000663697
0.000808456
0.000857448
0.00087253
0.000876471
0.000877034
0.000876011
0.000872898
0.000866699
0.000857847
0.000847914
0.000830206
0.000807087
0.000797765
0.000795041
0.000794382
0.000794245
0.000794222
0.000794237
0.000794352
0.00079493
0.00079737
0.000806066
0.00082844
0.000847049
0.000862045
0.00087108
0.000874447
0.000871997
0.000857359
0.000808453
0.000663678
0.00020581
0.000205399
0.000656612
0.000796782
0.000843368
0.000857467
0.000861147
0.000861895
0.000861721
0.000860776
0.000858566
0.000854372
0.000847055
0.000834564
0.000819833
0.000813104
0.000810946
0.000810381
0.000810252
0.00081023
0.000810252
0.000810378
0.000810926
0.000813022
0.000819625
0.000834234
0.000847009
0.000855328
0.000859463
0.000860406
0.00085731
0.000843367
0.000796795
0.000656596
0.000205404
0.000203751
0.000630004
0.000756525
0.000796802
0.000808494
0.000811436
0.00081206
0.000812095
0.000811822
0.000811044
0.000809266
0.000805687
0.000799645
0.000792739
0.00078919
0.00078792
0.000787551
0.000787457
0.000787441
0.000787462
0.00078756
0.00078793
0.000789191
0.000792719
0.000799608
0.000805716
0.000809463
0.000811136
0.000811185
0.00080846
0.000796818
0.000756533
0.000629986
0.000203755
0.000198225
0.000538908
0.000630028
0.000656652
0.000663749
0.000665386
0.000665707
0.000665736
0.000665654
0.000665407
0.000664815
0.000663581
0.000661517
0.000659155
0.000657825
0.000657286
0.000657102
0.000657043
0.000657033
0.000657053
0.000657121
0.000657313
0.000657856
0.00065919
0.000661552
0.000663629
0.000664875
0.000665403
0.0006653
0.000663733
0.000656651
0.000630021
0.000538883
0.000198228
0.000184694
0.000198225
0.000203754
0.000205404
0.000205813
0.000205902
0.000205921
0.000205928
0.000205931
0.000205927
0.00020591
0.000205863
0.000205779
0.000205678
0.000205618
0.000205593
0.000205583
0.000205579
0.000205578
0.000205579
0.000205583
0.000205594
0.000205619
0.000205678
0.000205779
0.000205863
0.000205909
0.000205924
0.000205911
0.000205823
0.000205412
0.000203759
0.000198229
0.000184698
0.000190419
0.000209347
0.000217458
0.000220061
0.00022076
0.00022092
0.000220952
0.000220957
0.000220958
0.000220958
0.000220958
0.000220957
0.000220957
0.000220956
0.000220955
0.000220955
0.000220954
0.000220954
0.000220954
0.000220954
0.000220955
0.000220955
0.000220956
0.000220956
0.000220957
0.000220957
0.000220957
0.000220951
0.00022092
0.00022076
0.000220061
0.000217458
0.000209347
0.00019042
0.000209347
0.000673358
0.000811942
0.000855485
0.000867956
0.000871053
0.000871714
0.000871827
0.00087183
0.000871809
0.000871781
0.000871749
0.00087172
0.000871693
0.000871671
0.000871653
0.00087164
0.000871634
0.000871633
0.000871639
0.000871651
0.000871669
0.00087169
0.000871717
0.000871745
0.000871772
0.000871777
0.000871672
0.000871017
0.000867924
0.000855455
0.000811916
0.000673339
0.000209347
0.00021746
0.000811968
0.00101155
0.00107954
0.00110056
0.0011062
0.00110751
0.00110777
0.00110781
0.00110779
0.00110776
0.00110774
0.00110772
0.00110771
0.0011077
0.00110769
0.00110769
0.00110768
0.00110768
0.00110769
0.00110769
0.0011077
0.00110771
0.00110772
0.00110773
0.00110775
0.00110773
0.00110748
0.00110618
0.00110055
0.00107953
0.00101155
0.000811964
0.000217461
0.000220064
0.000855525
0.00107956
0.00115917
0.0011848
0.00119196
0.00119368
0.00119403
0.00119403
0.00119394
0.00119383
0.00119378
0.00119376
0.00119377
0.00119378
0.00119377
0.00119377
0.00119376
0.00119376
0.00119377
0.00119378
0.00119378
0.00119377
0.00119377
0.00119378
0.00119382
0.00119386
0.0011936
0.00119193
0.0011848
0.00115918
0.00107957
0.00085553
0.000220067
0.000220764
0.000868002
0.00110058
0.00118481
0.00121242
0.00122026
0.00122215
0.00122243
0.00122218
0.00122167
0.00122113
0.00122092
0.00122087