/*--------------------------------*- C++ -*----------------------------------*\
| =========                 |                                                 |
| \\      /  F ield         | OpenFOAM: The Open Source CFD Toolbox           |
|  \\    /   O peration     | Version:  2112                                  |
|   \\  /    A nd           | Website:  www.openfoam.com                      |
|    \\/     M anipulation  |                                                 |
\*---------------------------------------------------------------------------*/
FoamFile
{
    version     2.0;
    format      ascii;
    arch        "LSB;label=32;scalar=64";
    class       volScalarField;
    location    "1.1";
    object      p;
}
// * * * * * * * * * * * * * * * * * * * * * * * * * * * * * * * * * * * * * //

dimensions      [0 2 -2 0 0 0 0];

internalField   nonuniform List<scalar> 
64906
(
-1.16484e-05
-1.16253e-05
-1.16339e-05
-1.16769e-05
-1.1757e-05
-1.18736e-05
-1.20254e-05
-1.2211e-05
-1.24276e-05
-1.26711e-05
-1.29316e-05
-1.31998e-05
-1.34579e-05
-1.36961e-05
-1.39026e-05
-1.40716e-05
-1.41978e-05
-1.42791e-05
-1.43142e-05
-1.43032e-05
-1.42477e-05
-1.41505e-05
-1.40169e-05
-1.38528e-05
-1.36704e-05
-1.34793e-05
-1.32973e-05
-1.31334e-05
-1.29977e-05
-1.28944e-05
-1.28265e-05
-1.27946e-05
-1.27949e-05
-1.2821e-05
-1.16013e-05
-1.14696e-05
-1.14129e-05
-1.14055e-05
-1.14472e-05
-1.15291e-05
-1.16446e-05
-1.179e-05
-1.19612e-05
-1.21547e-05
-1.23598e-05
-1.25705e-05
-1.2769e-05
-1.29512e-05
-1.31073e-05
-1.32357e-05
-1.3333e-05
-1.33987e-05
-1.34322e-05
-1.34338e-05
-1.34043e-05
-1.33446e-05
-1.32582e-05
-1.31469e-05
-1.30208e-05
-1.28836e-05
-1.27535e-05
-1.26363e-05
-1.25444e-05
-1.24844e-05
-1.24668e-05
-1.25022e-05
-1.25886e-05
-1.27545e-05
-1.16316e-05
-1.14215e-05
-1.13223e-05
-1.12781e-05
-1.12942e-05
-1.13578e-05
-1.14592e-05
-1.15945e-05
-1.17597e-05
-1.19542e-05
-1.21636e-05
-1.23842e-05
-1.25843e-05
-1.27639e-05
-1.29114e-05
-1.30309e-05
-1.31202e-05
-1.31813e-05
-1.3214e-05
-1.32185e-05
-1.31954e-05
-1.31429e-05
-1.30636e-05
-1.29535e-05
-1.28247e-05
-1.26767e-05
-1.25421e-05
-1.24246e-05
-1.23419e-05
-1.23003e-05
-1.23149e-05
-1.24019e-05
-1.25585e-05
-1.27896e-05
-1.17317e-05
-1.14723e-05
-1.13385e-05
-1.12688e-05
-1.12719e-05
-1.13331e-05
-1.1442e-05
-1.15969e-05
-1.1797e-05
-1.20492e-05
-1.23325e-05
-1.26459e-05
-1.29173e-05
-1.31526e-05
-1.33343e-05
-1.34768e-05
-1.3579e-05
-1.36462e-05
-1.36787e-05
-1.36767e-05
-1.36402e-05
-1.35643e-05
-1.34508e-05
-1.32852e-05
-1.30859e-05
-1.28464e-05
-1.26407e-05
-1.24695e-05
-1.23583e-05
-1.23086e-05
-1.23358e-05
-1.24561e-05
-1.26619e-05
-1.2951e-05
-1.19086e-05
-1.1621e-05
-1.1462e-05
-1.13797e-05
-1.13844e-05
-1.14607e-05
-1.15994e-05
-1.18054e-05
-1.20868e-05
-1.24681e-05
-1.29205e-05
-1.34518e-05
-1.38898e-05
-1.42543e-05
-1.45194e-05
-1.4722e-05
-1.4861e-05
-1.49469e-05
-1.49799e-05
-1.49602e-05
-1.4888e-05
-1.47531e-05
-1.45574e-05
-1.42642e-05
-1.39009e-05
-1.34467e-05
-1.30781e-05
-1.27844e-05
-1.26008e-05
-1.25129e-05
-1.25303e-05
-1.26632e-05
-1.28931e-05
-1.32562e-05
-1.21614e-05
-1.18497e-05
-1.16715e-05
-1.15862e-05
-1.16046e-05
-1.17108e-05
-1.18984e-05
-1.21839e-05
-1.25933e-05
-1.31884e-05
-1.394e-05
-1.48971e-05
-1.56353e-05
-1.6223e-05
-1.66295e-05
-1.69364e-05
-1.7141e-05
-1.72609e-05
-1.72953e-05
-1.72442e-05
-1.7109e-05
-1.68722e-05
-1.65374e-05
-1.60231e-05
-1.53632e-05
-1.44868e-05
-1.38294e-05
-1.33307e-05
-1.30296e-05
-1.28763e-05
-1.28662e-05
-1.29999e-05
-1.32485e-05
-1.36837e-05
-1.24848e-05
-1.21435e-05
-1.19494e-05
-1.18679e-05
-1.19106e-05
-1.206e-05
-1.23133e-05
-1.27026e-05
-1.32836e-05
-1.41899e-05
-1.53999e-05
-1.7182e-05
-1.8407e-05
-1.93344e-05
-1.99479e-05
-2.04109e-05
-2.07143e-05
-2.08868e-05
-2.09237e-05
-2.0825e-05
-2.05955e-05
-2.02063e-05
-1.96676e-05
-1.88156e-05
-1.76726e-05
-1.5972e-05
-1.48749e-05
-1.40748e-05
-1.36131e-05
-1.33706e-05
-1.33192e-05
-1.34485e-05
-1.37258e-05
-1.42095e-05
-1.28708e-05
-1.24925e-05
-1.22841e-05
-1.22142e-05
-1.22946e-05
-1.25048e-05
-1.28438e-05
-1.33555e-05
-1.41332e-05
-1.53928e-05
-1.71734e-05
-2.0586e-05
-2.24999e-05
-2.39108e-05
-2.48258e-05
-2.55239e-05
-2.59792e-05
-2.62335e-05
-2.62747e-05
-2.61023e-05
-2.57284e-05
-2.511e-05
-2.42738e-05
-2.29391e-05
-2.1109e-05
-1.77671e-05
-1.6141e-05
-1.49935e-05
-1.4344e-05
-1.39931e-05
-1.38828e-05
-1.39976e-05
-1.43015e-05
-1.48429e-05
-1.33084e-05
-1.28855e-05
-1.26643e-05
-1.26147e-05
-1.27502e-05
-1.30449e-05
-1.34959e-05
-1.41466e-05
-1.50975e-05
-1.67555e-05
-1.89619e-05
-2.56723e-05
-2.81727e-05
-3.01416e-05
-3.14398e-05
-3.2428e-05
-3.30762e-05
-3.34357e-05
-3.34833e-05
-3.32184e-05
-3.26633e-05
-3.17642e-05
-3.05503e-05
-2.86549e-05
-2.62422e-05
-1.95623e-05
-1.76136e-05
-1.60479e-05
-1.52285e-05
-1.47483e-05
-1.45527e-05
-1.46356e-05
-1.49615e-05
-1.55754e-05
-1.37859e-05
-1.33128e-05
-1.30834e-05
-1.30708e-05
-1.32943e-05
-1.37275e-05
-1.43671e-05
-1.52037e-05
-1.63841e-05
-1.88185e-05
-1.67518e-05
-3.19074e-05
-3.48629e-05
-3.7691e-05
-3.95841e-05
-4.10329e-05
-4.19861e-05
-4.25021e-05
-4.25585e-05
-4.21545e-05
-4.13113e-05
-3.99666e-05
-3.81678e-05
-3.54123e-05
-3.25704e-05
-1.72304e-05
-1.9778e-05
-1.74218e-05
-1.63884e-05
-1.5727e-05
-1.53677e-05
-1.53707e-05
-1.56994e-05
-1.63951e-05
-1.42851e-05
-1.37559e-05
-1.35199e-05
-1.35542e-05
-1.38902e-05
-1.45116e-05
-1.54109e-05
-1.64874e-05
-1.75517e-05
-1.51552e-05
-4.7154e-05
-4.42938e-05
-4.62909e-05
-4.84924e-05
-5.03296e-05
-5.15887e-05
-5.22498e-05
-5.23166e-05
-5.17884e-05
-5.06604e-05
-4.89479e-05
-4.68576e-05
-4.49316e-05
-4.77176e-05
-1.66451e-05
-1.8863e-05
-1.78223e-05
-1.68872e-05
-1.62832e-05
-1.61585e-05
-1.64765e-05
-1.72677e-05
-1.47893e-05
-1.42034e-05
-1.39674e-05
-1.4068e-05
-1.45659e-05
-1.55031e-05
-1.70354e-05
-1.94513e-05
-2.35354e-05
-2.94041e-05
-4.37091e-05
-4.43749e-05
-4.95047e-05
-5.40263e-05
-5.78705e-05
-6.07119e-05
-6.25275e-05
-6.3428e-05
-6.3505e-05
-6.27588e-05
-6.1099e-05
-5.84144e-05
-5.47305e-05
-5.03728e-05
-4.54218e-05
-4.5125e-05
-3.06844e-05
-2.48678e-05
-2.08515e-05
-1.85949e-05
-1.73886e-05
-1.70152e-05
-1.72812e-05
-1.81658e-05
-1.52728e-05
-1.46294e-05
-1.43859e-05
-1.45326e-05
-1.51436e-05
-1.62771e-05
-1.81161e-05
-2.09367e-05
-2.52514e-05
-3.10009e-05
-4.05794e-05
-4.68107e-05
-5.35012e-05
-5.93975e-05
-6.43189e-05
-6.77983e-05
-6.99825e-05
-7.10505e-05
-7.11353e-05
-7.02375e-05
-6.8226e-05
-6.49223e-05
-6.01821e-05
-5.4462e-05
-4.79408e-05
-4.19067e-05
-3.2379e-05
-2.66596e-05
-2.24129e-05
-1.97615e-05
-1.82777e-05
-1.77733e-05
-1.803e-05
-1.90169e-05
-1.57194e-05
-1.50234e-05
-1.47703e-05
-1.4951e-05
-1.56457e-05
-1.69146e-05
-1.89406e-05
-2.19878e-05
-2.65174e-05
-3.25911e-05
-4.08593e-05
-4.83733e-05
-5.63009e-05
-6.31684e-05
-6.87945e-05
-7.26783e-05
-7.50916e-05
-7.62579e-05
-7.63484e-05
-7.53641e-05
-7.31359e-05
-6.94408e-05
-6.40099e-05
-5.73327e-05
-4.96107e-05
-4.22101e-05
-3.40062e-05
-2.7978e-05
-2.35302e-05
-2.06673e-05
-1.90277e-05
-1.84484e-05
-1.87131e-05
-1.97927e-05
-1.61123e-05
-1.53697e-05
-1.51021e-05
-1.52982e-05
-1.60374e-05
-1.73726e-05
-1.9473e-05
-2.25883e-05
-2.71408e-05
-3.32402e-05
-4.11485e-05
-4.9272e-05
-5.79141e-05
-6.52486e-05
-7.11956e-05
-7.52534e-05
-7.77622e-05
-7.89673e-05
-7.90621e-05
-7.80471e-05
-7.57315e-05
-7.187e-05
-6.61249e-05
-5.89819e-05
-5.05258e-05
-4.25225e-05
-3.46938e-05
-2.86514e-05
-2.41924e-05
-2.12773e-05
-1.95924e-05
-1.89992e-05
-1.92945e-05
-2.0458e-05
-1.64426e-05
-1.56622e-05
-1.53803e-05
-1.55827e-05
-1.63466e-05
-1.77171e-05
-1.98514e-05
-2.29912e-05
-2.75396e-05
-3.36448e-05
-4.15075e-05
-4.99371e-05
-5.89142e-05
-6.64798e-05
-7.25794e-05
-7.67069e-05
-7.92499e-05
-8.04674e-05
-8.05657e-05
-7.95455e-05
-7.72024e-05
-7.32769e-05
-6.7384e-05
-6.00121e-05
-5.12212e-05
-4.29114e-05
-3.51365e-05
-2.90959e-05
-2.46508e-05
-2.17255e-05
-2.00317e-05
-1.94457e-05
-1.97741e-05
-2.10048e-05
-1.67038e-05
-1.58954e-05
-1.56013e-05
-1.58047e-05
-1.65811e-05
-1.79697e-05
-2.01201e-05
-2.32719e-05
-2.78234e-05
-3.39542e-05
-4.18548e-05
-5.04487e-05
-5.96073e-05
-6.72954e-05
-7.34739e-05
-7.76364e-05
-8.01963e-05
-8.14205e-05
-8.15225e-05
-8.05025e-05
-7.81487e-05
-7.41935e-05
-6.82257e-05
-6.07338e-05
-5.17634e-05
-4.32899e-05
-3.54816e-05
-2.94205e-05
-2.49796e-05
-2.20535e-05
-2.03629e-05
-1.97901e-05
-2.01473e-05
-2.14278e-05
-1.68932e-05
-1.60676e-05
-1.5766e-05
-1.59704e-05
-1.67554e-05
-1.81577e-05
-2.03239e-05
-2.34946e-05
-2.80686e-05
-3.42425e-05
-4.22048e-05
-5.09095e-05
-6.01854e-05
-6.79613e-05
-7.4202e-05
-7.84005e-05
-8.09817e-05
-8.22168e-05
-8.23227e-05
-8.12993e-05
-7.89309e-05
-7.49452e-05
-6.89192e-05
-6.13417e-05
-5.2255e-05
-4.36709e-05
-3.58025e-05
-2.97008e-05
-2.52418e-05
-2.23042e-05
-2.06103e-05
-2.00437e-05
-2.04182e-05
-2.17293e-05
-1.70097e-05
-1.61778e-05
-1.58744e-05
-1.60814e-05
-1.68742e-05
-1.82895e-05
-2.04754e-05
-2.3675e-05
-2.82903e-05
-3.45215e-05
-4.25563e-05
-5.13448e-05
-6.07038e-05
-6.85528e-05
-7.48527e-05
-7.90961e-05
-8.17078e-05
-8.29605e-05
-8.30707e-05
-8.20385e-05
-7.96471e-05
-7.56225e-05
-6.95411e-05
-6.18922e-05
-5.27222e-05
-4.40527e-05
-3.61106e-05
-2.99517e-05
-2.5453e-05
-2.24896e-05
-2.07814e-05
-2.02103e-05
-2.05884e-05
-2.19108e-05
-1.70535e-05
-1.62261e-05
-1.59265e-05
-1.61379e-05
-1.69372e-05
-1.83647e-05
-2.05735e-05
-2.38112e-05
-2.84859e-05
-3.47899e-05
-4.29113e-05
-5.17633e-05
-6.11731e-05
-6.90803e-05
-7.54351e-05
-7.97309e-05
-8.23818e-05
-8.36582e-05
-8.37737e-05
-8.2728e-05
-8.03063e-05
-7.62364e-05
-7.01042e-05
-6.23985e-05
-5.31752e-05
-4.44382e-05
-3.64068e-05
-3.01722e-05
-2.56123e-05
-2.26095e-05
-2.08766e-05
-2.02906e-05
-2.06588e-05
-2.19735e-05
-1.70265e-05
-1.62145e-05
-1.59235e-05
-1.61388e-05
-1.69403e-05
-1.83742e-05
-2.06033e-05
-2.38824e-05
-2.86334e-05
-3.50305e-05
-4.3275e-05
-5.21626e-05
-6.1564e-05
-6.94937e-05
-7.58829e-05
-8.02294e-05
-8.29224e-05
-8.42265e-05
-8.43486e-05
-8.32879e-05
-8.08355e-05
-7.67241e-05
-7.05628e-05
-6.2836e-05
-5.36162e-05
-4.4835e-05
-3.66734e-05
-3.03409e-05
-2.57009e-05
-2.26515e-05
-2.08899e-05
-2.02833e-05
-2.06309e-05
-2.19195e-05
-1.69322e-05
-1.61451e-05
-1.58649e-05
-1.60792e-05
-1.68703e-05
-1.82918e-05
-2.05195e-05
-2.38217e-05
-2.86496e-05
-3.51637e-05
-4.36382e-05
-5.24949e-05
-6.17497e-05
-6.9594e-05
-7.59392e-05
-8.02991e-05
-8.30161e-05
-8.43435e-05
-8.44744e-05
-8.34079e-05
-8.09474e-05
-7.68368e-05
-7.07281e-05
-6.30899e-05
-5.4007e-05
-4.5238e-05
-3.68363e-05
-3.03797e-05
-2.56567e-05
-2.25758e-05
-2.08004e-05
-2.01806e-05
-2.05038e-05
-2.17497e-05
-1.67779e-05
-1.60248e-05
-1.57563e-05
-1.59618e-05
-1.67242e-05
-1.8103e-05
-2.0287e-05
-2.35606e-05
-2.84242e-05
-3.50198e-05
-4.40584e-05
-5.27723e-05
-6.15244e-05
-6.9061e-05
-7.52025e-05
-7.9481e-05
-8.21693e-05
-8.35003e-05
-8.36442e-05
-8.26004e-05
-8.01938e-05
-7.61892e-05
-7.03006e-05
-6.29789e-05
-5.43821e-05
-4.57113e-05
-3.67349e-05
-3.0188e-05
-2.54205e-05
-2.23556e-05
-2.06018e-05
-1.99873e-05
-2.02872e-05
-2.14742e-05
-1.65731e-05
-1.58599e-05
-1.55995e-05
-1.57802e-05
-1.64786e-05
-1.77497e-05
-1.97792e-05
-2.28586e-05
-2.75265e-05
-3.38377e-05
-4.44223e-05
-5.29789e-05
-6.05401e-05
-6.72746e-05
-7.28495e-05
-7.68395e-05
-7.93857e-05
-8.06757e-05
-8.08393e-05
-7.98773e-05
-7.76542e-05
-7.39812e-05
-6.86896e-05
-6.21914e-05
-5.47769e-05
-4.61391e-05
-3.56201e-05
-2.93502e-05
-2.47652e-05
-2.18752e-05
-2.02457e-05
-1.96898e-05
-1.99847e-05
-2.1104e-05
-1.63353e-05
-1.56676e-05
-1.54161e-05
-1.5566e-05
-1.61818e-05
-1.73015e-05
-1.90832e-05
-2.18263e-05
-2.63939e-05
-3.31645e-05
-4.70212e-05
-5.16861e-05
-5.8621e-05
-6.44126e-05
-6.91562e-05
-7.27091e-05
-7.5032e-05
-7.62452e-05
-7.64378e-05
-7.56146e-05
-7.36813e-05
-7.05205e-05
-6.61133e-05
-6.05852e-05
-5.36651e-05
-4.86975e-05
-3.51265e-05
-2.83505e-05
-2.38252e-05
-2.12357e-05
-1.98107e-05
-1.93447e-05
-1.96392e-05
-2.06786e-05
-1.60793e-05
-1.54568e-05
-1.52088e-05
-1.53125e-05
-1.58056e-05
-1.66659e-05
-1.78673e-05
-1.92262e-05
-2.03972e-05
-1.67838e-05
-6.13475e-05
-5.72639e-05
-6.00901e-05
-6.33143e-05
-6.60973e-05
-6.80526e-05
-6.91471e-05
-6.93773e-05
-6.87548e-05
-6.72809e-05
-6.5004e-05
-6.22083e-05
-5.97917e-05
-6.39408e-05
-1.88103e-05
-2.25232e-05
-2.13567e-05
-2.01075e-05
-1.92058e-05
-1.89276e-05
-1.92538e-05
-2.02202e-05
-1.58304e-05
-1.52541e-05
-1.50206e-05
-1.5107e-05
-1.555e-05
-1.63437e-05
-1.75431e-05
-1.92718e-05
-2.20456e-05
-2.66648e-05
-2.97553e-05
-4.44196e-05
-4.97237e-05
-5.45992e-05
-5.82813e-05
-6.12255e-05
-6.32159e-05
-6.43513e-05
-6.46254e-05
-6.40629e-05
-6.26764e-05
-6.03976e-05
-5.72748e-05
-5.29545e-05
-4.76459e-05
-3.36018e-05
-2.97524e-05
-2.47313e-05
-2.16813e-05
-1.99117e-05
-1.89201e-05
-1.86267e-05
-1.89159e-05
-1.97992e-05
-1.56017e-05
-1.50676e-05
-1.48496e-05
-1.49255e-05
-1.53301e-05
-1.60653e-05
-1.71914e-05
-1.88532e-05
-2.12919e-05
-2.48487e-05
-3.08588e-05
-3.97459e-05
-4.49361e-05
-4.9677e-05
-5.336e-05
-5.63018e-05
-5.82689e-05
-5.93988e-05
-5.97063e-05
-5.92298e-05
-5.79676e-05
-5.5832e-05
-5.27843e-05
-4.86783e-05
-4.3499e-05
-3.46924e-05
-2.80754e-05
-2.41454e-05
-2.14048e-05
-1.96407e-05
-1.8658e-05
-1.83545e-05
-1.86081e-05
-1.94205e-05
-1.54106e-05
-1.49175e-05
-1.47223e-05
-1.48033e-05
-1.51948e-05
-1.59039e-05
-1.69916e-05
-1.85965e-05
-2.09564e-05
-2.43804e-05
-2.92307e-05
-3.55474e-05
-4.06816e-05
-4.54573e-05
-4.92254e-05
-5.22461e-05
-5.42425e-05
-5.53799e-05
-5.57066e-05
-5.52714e-05
-5.40474e-05
-5.19367e-05
-4.88583e-05
-4.47757e-05
-3.96487e-05
-3.32873e-05
-2.78931e-05
-2.39787e-05
-2.12484e-05
-1.94903e-05
-1.84969e-05
-1.81636e-05
-1.837e-05
-1.91132e-05
-1.52674e-05
-1.48167e-05
-1.46508e-05
-1.47462e-05
-1.51332e-05
-1.5818e-05
-1.68512e-05
-1.8348e-05
-2.04863e-05
-2.35021e-05
-2.74801e-05
-3.23796e-05
-3.69959e-05
-4.14543e-05
-4.5048e-05
-4.79136e-05
-4.98056e-05
-5.0883e-05
-5.12051e-05
-5.08211e-05
-4.96957e-05
-4.77399e-05
-4.4852e-05
-4.10931e-05
-3.64837e-05
-3.14782e-05
-2.69984e-05
-2.35074e-05
-2.10082e-05
-1.93535e-05
-1.83932e-05
-1.80443e-05
-1.82063e-05
-1.88825e-05
-1.51821e-05
-1.47856e-05
-1.46636e-05
-1.47906e-05
-1.51896e-05
-1.58637e-05
-1.68506e-05
-1.82319e-05
-2.01251e-05
-2.26736e-05
-2.59121e-05
-2.97982e-05
-3.3729e-05
-3.7628e-05
-4.08331e-05
-4.33726e-05
-4.50703e-05
-4.60455e-05
-4.63473e-05
-4.60154e-05
-4.50193e-05
-4.3293e-05
-4.07604e-05
-3.75027e-05
-3.35951e-05
-2.95888e-05
-2.59496e-05
-2.30203e-05
-2.08374e-05
-1.93321e-05
-1.84174e-05
-1.80473e-05
-1.81505e-05
-1.87428e-05
-1.51596e-05
-1.48436e-05
-1.47885e-05
-1.49716e-05
-1.54057e-05
-1.60941e-05
-1.70694e-05
-1.83843e-05
-2.01095e-05
-2.23257e-05
-2.50383e-05
-2.82142e-05
-3.15248e-05
-3.48325e-05
-3.76056e-05
-3.98078e-05
-4.13141e-05
-4.21928e-05
-4.24734e-05
-4.21827e-05
-4.13008e-05
-3.97927e-05
-3.76156e-05
-3.48544e-05
-3.16046e-05
-2.83437e-05
-2.53558e-05
-2.28728e-05
-2.09438e-05
-1.95482e-05
-1.8647e-05
-1.82245e-05
-1.82351e-05
-1.87024e-05
-1.51929e-05
-1.49886e-05
-1.50137e-05
-1.52778e-05
-1.57679e-05
-1.64953e-05
-1.75144e-05
-1.88465e-05
-2.05347e-05
-2.26196e-05
-2.50865e-05
-2.78889e-05
-3.0813e-05
-3.37071e-05
-3.61914e-05
-3.81849e-05
-3.95861e-05
-4.04167e-05
-4.06861e-05
-4.04089e-05
-3.95769e-05
-3.81812e-05
-3.62161e-05
-3.37699e-05
-3.09568e-05
-2.81303e-05
-2.54999e-05
-2.32423e-05
-2.14168e-05
-2.00334e-05
-1.90831e-05
-1.85725e-05
-1.84619e-05
-1.87527e-05
-1.52782e-05
-1.52711e-05
-1.54488e-05
-1.58021e-05
-1.63944e-05
-1.72467e-05
-1.83572e-05
-1.97898e-05
-2.15873e-05
-2.37757e-05
-2.63319e-05
-2.91884e-05
-3.21572e-05
-3.5068e-05
-3.76102e-05
-3.96688e-05
-4.11424e-05
-4.20208e-05
-4.23016e-05
-4.19919e-05
-4.10914e-05
-3.96065e-05
-3.756e-05
-3.50508e-05
-3.22189e-05
-2.93657e-05
-2.66975e-05
-2.43771e-05
-2.24748e-05
-2.10065e-05
-1.9949e-05
-1.92602e-05
-1.8911e-05
-1.88885e-05
-1.17371e-05
-1.17521e-05
-1.17923e-05
-1.18612e-05
-1.19647e-05
-1.21052e-05
-1.22838e-05
-1.25008e-05
-1.27537e-05
-1.30393e-05
-1.33454e-05
-1.36623e-05
-1.39677e-05
-1.42504e-05
-1.44949e-05
-1.46943e-05
-1.48417e-05
-1.49343e-05
-1.49704e-05
-1.49501e-05
-1.48757e-05
-1.47501e-05
-1.45807e-05
-1.43745e-05
-1.41474e-05
-1.39102e-05
-1.36852e-05
-1.34819e-05
-1.3312e-05
-1.31775e-05
-1.30788e-05
-1.30116e-05
-1.29677e-05
-1.29396e-05
-1.17043e-05
-1.16555e-05
-1.16538e-05
-1.16881e-05
-1.17628e-05
-1.18762e-05
-1.20265e-05
-1.22125e-05
-1.24293e-05
-1.26747e-05
-1.29324e-05
-1.31982e-05
-1.34481e-05
-1.368e-05
-1.3878e-05
-1.40404e-05
-1.41612e-05
-1.42399e-05
-1.4275e-05
-1.42668e-05
-1.4217e-05
-1.41264e-05
-1.40015e-05
-1.3844e-05
-1.36701e-05
-1.34814e-05
-1.33024e-05
-1.3137e-05
-1.30023e-05
-1.29015e-05
-1.28409e-05
-1.28217e-05
-1.2836e-05
-1.2889e-05
-1.17513e-05
-1.16719e-05
-1.16496e-05
-1.16633e-05
-1.17263e-05
-1.18365e-05
-1.19908e-05
-1.21894e-05
-1.2427e-05
-1.27077e-05
-1.30048e-05
-1.33257e-05
-1.36141e-05
-1.38809e-05
-1.40995e-05
-1.4277e-05
-1.44056e-05
-1.44881e-05
-1.4523e-05
-1.45104e-05
-1.44523e-05
-1.43462e-05
-1.42004e-05
-1.40077e-05
-1.37954e-05
-1.3552e-05
-1.3335e-05
-1.31365e-05
-1.29855e-05
-1.2881e-05
-1.28325e-05
-1.28404e-05
-1.28824e-05
-1.29616e-05
-1.18712e-05
-1.17681e-05
-1.17304e-05
-1.17348e-05
-1.18003e-05
-1.19254e-05
-1.2108e-05
-1.23537e-05
-1.26593e-05
-1.30434e-05
-1.34614e-05
-1.39424e-05
-1.4354e-05
-1.47309e-05
-1.50246e-05
-1.52591e-05
-1.54225e-05
-1.55228e-05
-1.55579e-05
-1.55281e-05
-1.54358e-05
-1.52732e-05
-1.50531e-05
-1.47513e-05
-1.44177e-05
-1.40165e-05
-1.3683e-05
-1.3386e-05
-1.31746e-05
-1.30345e-05
-1.29749e-05
-1.29911e-05
-1.30505e-05
-1.31543e-05
-1.2072e-05
-1.19468e-05
-1.19004e-05
-1.19078e-05
-1.19905e-05
-1.21489e-05
-1.23839e-05
-1.27112e-05
-1.31348e-05
-1.3704e-05
-1.43443e-05
-1.51356e-05
-1.57735e-05
-1.63485e-05
-1.67748e-05
-1.71105e-05
-1.73363e-05
-1.7469e-05
-1.75051e-05
-1.74446e-05
-1.72917e-05
-1.70297e-05
-1.66791e-05
-1.61812e-05
-1.56248e-05
-1.49168e-05
-1.43687e-05
-1.38936e-05
-1.3574e-05
-1.33647e-05
-1.32702e-05
-1.32758e-05
-1.33421e-05
-1.34808e-05
-1.23512e-05
-1.22002e-05
-1.21496e-05
-1.21697e-05
-1.22831e-05
-1.24913e-05
-1.28e-05
-1.324e-05
-1.38289e-05
-1.46768e-05
-1.56716e-05
-1.70177e-05
-1.80167e-05
-1.89032e-05
-1.95293e-05
-2.0021e-05
-2.0343e-05
-2.05269e-05
-2.05647e-05
-2.04565e-05
-2.02106e-05
-1.97956e-05
-1.9248e-05
-1.84411e-05
-1.75278e-05
-1.62688e-05
-1.5378e-05
-1.4633e-05
-1.41593e-05
-1.38509e-05
-1.37019e-05
-1.36839e-05
-1.37523e-05
-1.3934e-05
-1.27036e-05
-1.25197e-05
-1.24677e-05
-1.25085e-05
-1.26646e-05
-1.29373e-05
-1.3337e-05
-1.3913e-05
-1.47044e-05
-1.59399e-05
-1.74585e-05
-1.98036e-05
-2.1322e-05
-2.26362e-05
-2.35186e-05
-2.42154e-05
-2.46632e-05
-2.49159e-05
-2.49566e-05
-2.47852e-05
-2.44188e-05
-2.3803e-05
-2.30027e-05
-2.17697e-05
-2.03414e-05
-1.80846e-05
-1.66906e-05
-1.55674e-05
-1.49034e-05
-1.44731e-05
-1.42548e-05
-1.42048e-05
-1.42754e-05
-1.45042e-05
-1.31222e-05
-1.28972e-05
-1.28468e-05
-1.29191e-05
-1.31348e-05
-1.34923e-05
-1.40031e-05
-1.47228e-05
-1.57087e-05
-1.72944e-05
-1.95016e-05
-2.36633e-05
-2.57855e-05
-2.76412e-05
-2.88559e-05
-2.98319e-05
-3.04554e-05
-3.0806e-05
-3.08513e-05
-3.05907e-05
-3.00566e-05
-2.91677e-05
-2.80396e-05
-2.62649e-05
-2.42333e-05
-2.01508e-05
-1.81097e-05
-1.66424e-05
-1.57958e-05
-1.52359e-05
-1.49305e-05
-1.4835e-05
-1.49031e-05
-1.51907e-05
-1.35966e-05
-1.33201e-05
-1.32729e-05
-1.33863e-05
-1.36779e-05
-1.41383e-05
-1.47719e-05
-1.56131e-05
-1.66462e-05
-1.84851e-05
-2.10149e-05
-2.93474e-05
-3.15725e-05
-3.37422e-05
-3.52098e-05
-3.6407e-05
-3.71813e-05
-3.76244e-05
-3.76761e-05
-3.73354e-05
-3.6662e-05
-3.55606e-05
-3.41848e-05
-3.20905e-05
-2.99564e-05
-2.16545e-05
-1.94098e-05
-1.76737e-05
-1.67856e-05
-1.61132e-05
-1.57081e-05
-1.55536e-05
-1.56172e-05
-1.59843e-05
-1.41157e-05
-1.378e-05
-1.37449e-05
-1.39238e-05
-1.43369e-05
-1.49721e-05
-1.58372e-05
-1.68254e-05
-1.79065e-05
-2.01723e-05
-1.5576e-05
-3.44093e-05
-3.67345e-05
-3.95365e-05
-4.1461e-05
-4.30519e-05
-4.40841e-05
-4.46611e-05
-4.47204e-05
-4.4261e-05
-4.33448e-05
-4.18632e-05
-4.00394e-05
-3.73101e-05
-3.50988e-05
-1.6007e-05
-2.11773e-05
-1.90074e-05
-1.80939e-05
-1.72836e-05
-1.66698e-05
-1.63891e-05
-1.64173e-05
-1.68775e-05
-1.46587e-05
-1.42534e-05
-1.4229e-05
-1.44785e-05
-1.5025e-05
-1.58597e-05
-1.69912e-05
-1.82419e-05
-1.89201e-05
-1.35852e-05
-5.02699e-05
-4.3731e-05
-4.48204e-05
-4.67278e-05
-4.82707e-05
-4.9371e-05
-4.99754e-05
-5.00431e-05
-4.95732e-05
-4.86055e-05
-4.71881e-05
-4.53955e-05
-4.43668e-05
-5.07638e-05
-1.51972e-05
-2.02913e-05
-1.96527e-05
-1.85521e-05
-1.76815e-05
-1.72489e-05
-1.7243e-05
-1.78276e-05
-1.52089e-05
-1.47333e-05
-1.47354e-05
-1.50944e-05
-1.58635e-05
-1.71047e-05
-1.90161e-05
-2.18163e-05
-2.64792e-05
-3.18515e-05
-4.66752e-05
-4.25011e-05
-4.5619e-05
-4.91415e-05
-5.22155e-05
-5.44897e-05
-5.59841e-05
-5.67397e-05
-5.68159e-05
-5.62128e-05
-5.48723e-05
-5.2753e-05
-4.98402e-05
-4.64849e-05
-4.35426e-05
-4.81413e-05
-3.31335e-05
-2.78522e-05
-2.32856e-05
-2.06479e-05
-1.9018e-05
-1.82287e-05
-1.81057e-05
-1.8812e-05
-1.57359e-05
-1.51889e-05
-1.52017e-05
-1.5634e-05
-1.65447e-05
-1.80095e-05
-2.02508e-05
-2.34485e-05
-2.82156e-05
-3.35166e-05
-4.22311e-05
-4.50826e-05
-4.87403e-05
-5.22918e-05
-5.57179e-05
-5.82331e-05
-5.99127e-05
-6.07587e-05
-6.08416e-05
-6.01611e-05
-5.86491e-05
-5.63013e-05
-5.30466e-05
-4.9654e-05
-4.61478e-05
-4.35295e-05
-3.48893e-05
-2.96626e-05
-2.49939e-05
-2.19666e-05
-2.00277e-05
-1.90663e-05
-1.89041e-05
-1.97421e-05
-1.62227e-05
-1.56138e-05
-1.56378e-05
-1.61363e-05
-1.71723e-05
-1.88304e-05
-2.13386e-05
-2.48707e-05
-2.9893e-05
-3.56922e-05
-4.2944e-05
-4.74683e-05
-5.17171e-05
-5.57015e-05
-5.95892e-05
-6.23698e-05
-6.42362e-05
-6.51647e-05
-6.52534e-05
-6.45023e-05
-6.28157e-05
-6.02142e-05
-5.65098e-05
-5.26882e-05
-4.85751e-05
-4.42414e-05
-3.71032e-05
-3.13943e-05
-2.64849e-05
-2.31363e-05
-2.09548e-05
-1.98489e-05
-1.96499e-05
-2.05922e-05
-1.66493e-05
-1.59869e-05
-1.60115e-05
-1.65476e-05
-1.76538e-05
-1.94102e-05
-2.20296e-05
-2.56798e-05
-3.07386e-05
-3.66953e-05
-4.37019e-05
-4.89189e-05
-5.36518e-05
-5.78823e-05
-6.19852e-05
-6.48884e-05
-6.68431e-05
-6.7809e-05
-6.79021e-05
-6.71223e-05
-6.53555e-05
-6.26387e-05
-5.87256e-05
-5.46628e-05
-5.01009e-05
-4.50287e-05
-3.81493e-05
-3.22947e-05
-2.73609e-05
-2.39088e-05
-2.16407e-05
-2.04807e-05
-2.02838e-05
-2.13167e-05
-1.70066e-05
-1.63029e-05
-1.63264e-05
-1.68877e-05
-1.8041e-05
-1.98617e-05
-2.25507e-05
-2.62758e-05
-3.1368e-05
-3.74207e-05
-4.44049e-05
-4.99839e-05
-5.4999e-05
-5.94126e-05
-6.3662e-05
-6.66384e-05
-6.86421e-05
-6.96283e-05
-6.97254e-05
-6.89331e-05
-6.71247e-05
-6.43409e-05
-6.02872e-05
-5.60445e-05
-5.12056e-05
-4.57667e-05
-3.89188e-05
-3.2975e-05
-2.80182e-05
-2.45047e-05
-2.21887e-05
-2.10004e-05
-2.08107e-05
-2.19097e-05
-1.72872e-05
-1.65538e-05
-1.65743e-05
-1.71493e-05
-1.83292e-05
-2.01855e-05
-2.29117e-05
-2.66785e-05
-3.17979e-05
-3.79271e-05
-4.49599e-05
-5.07409e-05
-5.59297e-05
-6.04552e-05
-6.479e-05
-6.781e-05
-6.98433e-05
-7.08426e-05
-7.09436e-05
-7.01458e-05
-6.83147e-05
-6.54931e-05
-6.13588e-05
-5.70072e-05
-5.1998e-05
-4.63575e-05
-3.94664e-05
-3.34509e-05
-2.84746e-05
-2.49301e-05
-2.25939e-05
-2.13968e-05
-2.12186e-05
-2.23648e-05
-1.74885e-05
-1.67381e-05
-1.67572e-05
-1.73411e-05
-1.85383e-05
-2.04191e-05
-2.3174e-05
-2.69771e-05
-3.21345e-05
-3.83321e-05
-4.54335e-05
-5.13417e-05
-5.66455e-05
-6.12563e-05
-6.56587e-05
-6.87207e-05
-7.07823e-05
-7.17962e-05
-7.19014e-05
-7.10971e-05
-6.9245e-05
-6.63876e-05
-6.21904e-05
-5.77566e-05
-5.26346e-05
-4.68671e-05
-3.99097e-05
-3.38283e-05
-2.88183e-05
-2.52443e-05
-2.28902e-05
-2.16854e-05
-2.15128e-05
-2.26857e-05
-1.76093e-05
-1.68542e-05
-1.68743e-05
-1.74636e-05
-1.86715e-05
-2.05686e-05
-2.33471e-05
-2.71839e-05
-3.23876e-05
-3.8648e-05
-4.58244e-05
-5.18166e-05
-5.7197e-05
-6.18756e-05
-6.63338e-05
-6.94394e-05
-7.15313e-05
-7.25628e-05
-7.26727e-05
-7.18601e-05
-6.99859e-05
-6.70916e-05
-6.28431e-05
-5.83443e-05
-5.31465e-05
-4.72939e-05
-4.0261e-05
-3.41165e-05
-2.90613e-05
-2.5456e-05
-2.30826e-05
-2.18681e-05
-2.16939e-05
-2.28747e-05
-1.76498e-05
-1.69023e-05
-1.69256e-05
-1.75172e-05
-1.87286e-05
-2.06335e-05
-2.34298e-05
-2.72969e-05
-3.25549e-05
-3.8875e-05
-4.61369e-05
-5.21792e-05
-5.75993e-05
-6.23285e-05
-6.68298e-05
-6.99795e-05
-7.2103e-05
-7.3155e-05
-7.32706e-05
-7.24485e-05
-7.05523e-05
-6.76219e-05
-6.33352e-05
-5.87885e-05
-5.35501e-05
-4.76435e-05
-4.05221e-05
-3.43146e-05
-2.9203e-05
-2.55653e-05
-2.31717e-05
-2.19457e-05
-2.1763e-05
-2.29326e-05
-1.76121e-05
-1.68849e-05
-1.69133e-05
-1.75022e-05
-1.87076e-05
-2.06081e-05
-2.34116e-05
-2.73004e-05
-3.26205e-05
-3.89965e-05
-4.63763e-05
-5.24263e-05
-5.78314e-05
-6.25858e-05
-6.71097e-05
-7.03009e-05
-7.24544e-05
-7.3529e-05
-7.36516e-05
-7.28209e-05
-7.0907e-05
-6.79457e-05
-6.36425e-05
-5.90741e-05
-5.38472e-05
-4.79241e-05
-4.06782e-05
-3.44089e-05
-2.92302e-05
-2.55647e-05
-2.31551e-05
-2.19198e-05
-2.1723e-05
-2.28616e-05
-1.74996e-05
-1.68042e-05
-1.68358e-05
-1.74108e-05
-1.85896e-05
-2.04554e-05
-2.32295e-05
-2.71002e-05
-3.24688e-05
-3.88903e-05
-4.64886e-05
-5.2475e-05
-5.77666e-05
-6.24745e-05
-6.69529e-05
-7.01537e-05
-7.23169e-05
-7.34084e-05
-7.35405e-05
-7.27119e-05
-7.08049e-05
-6.78498e-05
-6.36008e-05
-5.90848e-05
-5.39646e-05
-4.8085e-05
-4.06106e-05
-3.42877e-05
-2.90537e-05
-2.5397e-05
-2.30022e-05
-2.17779e-05
-2.15716e-05
-2.26611e-05
-1.73206e-05
-1.66696e-05
-1.67039e-05
-1.72545e-05
-1.83856e-05
-2.01842e-05
-2.28855e-05
-2.66851e-05
-3.20779e-05
-3.84491e-05
-4.65257e-05
-5.23416e-05
-5.72907e-05
-6.19007e-05
-6.62716e-05
-6.94436e-05
-7.15862e-05
-7.26847e-05
-7.28301e-05
-7.2022e-05
-7.01608e-05
-6.72604e-05
-6.31343e-05
-5.873e-05
-5.39394e-05
-4.81845e-05
-4.02186e-05
-3.39385e-05
-2.8672e-05
-2.50739e-05
-2.27316e-05
-2.15405e-05
-2.13271e-05
-2.23428e-05
-1.70847e-05
-1.64861e-05
-1.65139e-05
-1.70137e-05
-1.80451e-05
-1.96827e-05
-2.21518e-05
-2.56458e-05
-3.07778e-05
-3.66643e-05
-4.64132e-05
-5.17647e-05
-5.6203e-05
-6.04971e-05
-6.44995e-05
-6.75003e-05
-6.95301e-05
-7.05989e-05
-7.07632e-05
-7.00246e-05
-6.83133e-05
-6.56254e-05
-6.18925e-05
-5.78347e-05
-5.35437e-05
-4.81227e-05
-3.8492e-05
-3.26986e-05
-2.76871e-05
-2.43792e-05
-2.22432e-05
-2.11706e-05
-2.09859e-05
-2.19157e-05
-1.68129e-05
-1.6277e-05
-1.63025e-05
-1.67527e-05
-1.76822e-05
-1.91513e-05
-2.13596e-05
-2.45072e-05
-2.95965e-05
-3.58177e-05
-4.96494e-05
-5.01993e-05
-5.49001e-05
-5.95596e-05
-6.34334e-05
-6.63715e-05
-6.83424e-05
-6.94014e-05
-6.95917e-05
-6.89194e-05
-6.73232e-05
-6.47663e-05
-6.12026e-05
-5.68307e-05
-5.219e-05
-5.12642e-05
-3.77911e-05
-3.1638e-05
-2.66491e-05
-2.36602e-05
-2.17463e-05
-2.07879e-05
-2.06169e-05
-2.1431e-05
-1.65203e-05
-1.60454e-05
-1.60541e-05
-1.6421e-05
-1.71718e-05
-1.82938e-05
-1.97831e-05
-2.13694e-05
-2.20218e-05
-1.4602e-05
-6.54265e-05
-5.65677e-05
-5.81404e-05
-6.0855e-05
-6.31869e-05
-6.48756e-05
-6.58678e-05
-6.60878e-05
-6.55491e-05
-6.42998e-05
-6.24385e-05
-6.00805e-05
-5.89118e-05
-6.78333e-05
-1.66213e-05
-2.42696e-05
-2.36696e-05
-2.21955e-05
-2.09492e-05
-2.02776e-05
-2.01938e-05
-2.09058e-05
-1.6237e-05
-1.58243e-05
-1.58385e-05
-1.61757e-05
-1.68706e-05
-1.79361e-05
-1.94433e-05
-2.13909e-05
-2.41432e-05
-2.86159e-05
-2.9405e-05
-4.66462e-05
-5.08337e-05
-5.52767e-05
-5.8595e-05
-6.145e-05
-6.3363e-05
-6.44925e-05
-6.47511e-05
-6.41652e-05
-6.27832e-05
-6.0512e-05
-5.75573e-05
-5.35768e-05
-4.95089e-05
-3.32824e-05
-3.17313e-05
-2.69899e-05
-2.39879e-05
-2.20011e-05
-2.06437e-05
-1.99497e-05
-1.98292e-05
-2.04284e-05
-1.59751e-05
-1.5615e-05
-1.56306e-05
-1.59346e-05
-1.65625e-05
-1.75364e-05
-1.8931e-05
-2.08652e-05
-2.35099e-05
-2.72461e-05
-3.33972e-05
-4.31849e-05
-4.71499e-05
-5.09496e-05
-5.3928e-05
-5.66009e-05
-5.84048e-05
-5.94972e-05
-5.97788e-05
-5.92857e-05
-5.80549e-05
-5.60202e-05
-5.32804e-05
-4.98125e-05
-4.6085e-05
-3.6945e-05
-3.04284e-05
-2.64992e-05
-2.35996e-05
-2.15726e-05
-2.02673e-05
-1.96018e-05
-1.94741e-05
-1.99939e-05
-1.57542e-05
-1.54432e-05
-1.54716e-05
-1.57669e-05
-1.63686e-05
-1.73093e-05
-1.86708e-05
-2.05886e-05
-2.32683e-05
-2.69822e-05
-3.1993e-05
-3.8356e-05
-4.23356e-05
-4.58345e-05
-4.86919e-05
-5.13463e-05
-5.31293e-05
-5.42038e-05
-5.44963e-05
-5.4047e-05
-5.28542e-05
-5.0876e-05
-4.81649e-05
-4.48566e-05
-4.12299e-05
-3.55281e-05
-3.03393e-05
-2.6386e-05
-2.34187e-05
-2.13645e-05
-2.00458e-05
-1.93605e-05
-1.91975e-05
-1.96405e-05
-1.55822e-05
-1.53162e-05
-1.53611e-05
-1.56531e-05
-1.62297e-05
-1.71234e-05
-1.84055e-05
-2.01965e-05
-2.26461e-05
-2.59785e-05
-3.00536e-05
-3.48679e-05
-3.84757e-05
-4.16781e-05
-4.44098e-05
-4.69084e-05
-4.85934e-05
-4.96089e-05
-4.99003e-05
-4.95081e-05
-4.84149e-05
-4.66033e-05
-4.4068e-05
-4.10684e-05
-3.77783e-05
-3.35288e-05
-2.9318e-05
-2.57568e-05
-2.30333e-05
-2.11024e-05
-1.98449e-05
-1.91717e-05
-1.89867e-05
-1.93642e-05
-1.54665e-05
-1.52485e-05
-1.53212e-05
-1.56245e-05
-1.61908e-05
-1.70486e-05
-1.82541e-05
-1.98964e-05
-2.20709e-05
-2.49012e-05
-2.82631e-05
-3.21211e-05
-3.54682e-05
-3.86236e-05
-4.12987e-05
-4.36382e-05
-4.52345e-05
-4.61947e-05
-4.64827e-05
-4.61337e-05
-4.5129e-05
-4.3451e-05
-4.11012e-05
-3.83046e-05
-3.51631e-05
-3.16312e-05
-2.81218e-05
-2.50871e-05
-2.26843e-05
-2.09277e-05
-1.97482e-05
-1.90866e-05
-1.88706e-05
-1.91764e-05
-1.54074e-05
-1.52472e-05
-1.53609e-05
-1.56909e-05
-1.62623e-05
-1.71008e-05
-1.82513e-05
-1.97751e-05
-2.17289e-05
-2.41787e-05
-2.70325e-05
-3.02524e-05
-3.33197e-05
-3.63019e-05
-3.88271e-05
-4.09638e-05
-4.24529e-05
-4.33511e-05
-4.36316e-05
-4.33193e-05
-4.23993e-05
-4.08785e-05
-3.87527e-05
-3.62032e-05
-3.32876e-05
-3.02295e-05
-2.7243e-05
-2.46305e-05
-2.25078e-05
-2.09053e-05
-1.97886e-05
-1.91232e-05
-1.88591e-05
-1.90772e-05
-1.53929e-05
-1.53017e-05
-1.54557e-05
-1.58202e-05
-1.64109e-05
-1.72529e-05
-1.83882e-05
-1.98587e-05
-2.17006e-05
-2.39438e-05
-2.65239e-05
-2.93826e-05
-3.22405e-05
-3.50265e-05
-3.74324e-05
-3.9429e-05
-4.08496e-05
-4.17076e-05
-4.19819e-05
-4.16866e-05