/*--------------------------------*- C++ -*----------------------------------*\
| =========                 |                                                 |
| \\      /  F ield         | OpenFOAM: The Open Source CFD Toolbox           |
|  \\    /   O peration     | Version:  2112                                  |
|   \\  /    A nd           | Website:  www.openfoam.com                      |
|    \\/     M anipulation  |                                                 |
\*---------------------------------------------------------------------------*/
FoamFile
{
    version     2.0;
    format      ascii;
    arch        "LSB;label=32;scalar=64";
    class       surfaceScalarField;
    location    "1.1";
    object      phi;
}
// * * * * * * * * * * * * * * * * * * * * * * * * * * * * * * * * * * * * * //

dimensions      [0 3 -1 0 0 0 0];

oriented        oriented;

internalField   nonuniform List<scalar> 
188215
(
1.19578e-09
2.88271e-09
-4.07849e-09
3.22498e-09
2.38522e-09
-4.41442e-09
5.42086e-09
2.07037e-09
-4.26624e-09
7.58223e-09
1.99618e-09
-4.15755e-09
9.65799e-09
2.15067e-09
-4.22643e-09
1.16348e-08
2.47194e-09
-4.44875e-09
1.34944e-08
2.92938e-09
-4.789e-09
1.51778e-08
3.53724e-09
-5.22067e-09
1.66022e-08
4.30466e-09
-5.72903e-09
1.75738e-08
5.31569e-09
-6.28729e-09
1.79629e-08
6.49463e-09
-6.88368e-09
1.74697e-08
7.97359e-09
-7.48048e-09
1.61949e-08
9.32168e-09
-8.04679e-09
1.41573e-08
1.05806e-08
-8.54309e-09
1.15232e-08
1.15977e-08
-8.96362e-09
8.41374e-09
1.24e-08
-9.29046e-09
4.99423e-09
1.29393e-08
-9.51984e-09
1.42129e-09
1.32182e-08
-9.64524e-09
-2.13963e-09
1.3226e-08
-9.66512e-09
-5.52342e-09
1.29632e-08
-9.57938e-09
-8.57401e-09
1.24405e-08
-9.3899e-09
-1.11268e-08
1.16562e-08
-9.10339e-09
-1.3063e-08
1.066e-08
-8.7238e-09
-1.42186e-08
9.42538e-09
-8.26979e-09
-1.45804e-08
8.10953e-09
-7.74769e-09
-1.40497e-08
6.66879e-09
-7.19952e-09
-1.29343e-08
5.54367e-09
-6.65904e-09
-1.13587e-08
4.59583e-09
-6.17142e-09
-9.5148e-09
3.91742e-09
-5.76134e-09
-7.4807e-09
3.44927e-09
-5.48337e-09
-5.32349e-09
3.23926e-09
-5.39647e-09
-3.11664e-09
3.34615e-09
-5.553e-09
-1.07601e-09
3.74913e-09
-5.78976e-09
4.36308e-09
-5.43909e-09
3.78877e-10
7.39942e-09
-4.89559e-09
2.7836e-09
7.59174e-09
-7.61124e-09
5.50316e-09
7.68439e-09
-8.33358e-09
8.03035e-09
8.05905e-09
-8.59006e-09
1.0353e-08
8.82842e-09
-9.00046e-09
1.25261e-08
9.96575e-09
-9.66686e-09
1.45744e-08
1.14624e-08
-1.05813e-08
1.64609e-08
1.33784e-08
-1.17277e-08
1.81028e-08
1.576e-08
-1.30973e-08
1.92765e-08
1.88188e-08
-1.46768e-08
1.98079e-08
2.23912e-08
-1.6428e-08
1.92767e-08
2.67886e-08
-1.82838e-08
1.78508e-08
3.08166e-08
-2.0069e-08
1.55735e-08
3.45367e-08
-2.16788e-08
1.26484e-08
3.7562e-08
-2.30393e-08
9.20863e-09
3.99456e-08
-2.41059e-08
5.43407e-09
4.15605e-08
-2.48466e-08
1.49426e-09
4.24012e-08
-2.52432e-08
-2.43244e-09
4.24385e-08
-2.52858e-08
-6.16763e-09
4.16728e-08
-2.49745e-08
-9.54231e-09
4.01348e-08
-2.43197e-08
-1.23771e-08
3.78312e-08
-2.33403e-08
-1.45413e-08
3.48934e-08
-2.20692e-08
-1.58335e-08
3.12701e-08
-2.05525e-08
-1.62172e-08
2.73597e-08
-1.88665e-08
-1.5525e-08
2.30967e-08
-1.71201e-08
-1.41874e-08
1.97002e-08
-1.54942e-08
-1.2363e-08
1.68376e-08
-1.40661e-08
-1.02547e-08
1.47017e-08
-1.28926e-08
-7.89697e-09
1.31099e-08
-1.20184e-08
-5.26896e-09
1.20778e-08
-1.14666e-08
-2.40511e-09
1.15944e-08
-1.11121e-08
1.11413e-11
1.14877e-08
-1.01548e-08
1.10391e-08
-6.66484e-09
4.93725e-11
1.23114e-08
-4.96135e-09
2.67947e-09
1.33385e-08
-8.37685e-09
5.84105e-09
1.39635e-08
-9.4407e-09
8.77462e-09
1.49673e-08
-9.84187e-09
1.14535e-08
1.65241e-08
-1.03746e-08
1.39742e-08
1.86502e-08
-1.12052e-08
1.64098e-08
2.13772e-08
-1.23503e-08
1.87572e-08
2.48388e-08
-1.38078e-08
2.09453e-08
2.91534e-08
-1.55815e-08
2.26586e-08
3.47753e-08
-1.76698e-08
2.36209e-08
4.14588e-08
-2.00298e-08
2.29928e-08
4.99763e-08
-2.25596e-08
2.12095e-08
5.76002e-08
-2.50002e-08
1.83812e-08
6.45559e-08
-2.71909e-08
1.48342e-08
7.01431e-08
-2.9034e-08
1.07082e-08
7.45404e-08
-3.04687e-08
6.21398e-09
7.75145e-08
-3.14598e-08
1.53646e-09
7.90649e-08
-3.19861e-08
-3.12717e-09
7.91376e-08
-3.20355e-08
-7.57941e-09
7.7733e-08
-3.16079e-08
-1.16355e-08
7.49071e-08
-3.07162e-08
-1.50839e-08
7.06617e-08
-2.93821e-08
-1.77865e-08
6.52377e-08
-2.76416e-08
-1.94175e-08
5.84588e-08
-2.55577e-08
-1.9875e-08
5.10477e-08
-2.32305e-08
-1.87215e-08
4.277e-08
-2.08268e-08
-1.68149e-08
3.64055e-08
-1.86118e-08
-1.43992e-08
3.11226e-08
-1.67006e-08
-1.17514e-08
2.72111e-08
-1.51571e-08
-8.86503e-09
2.42387e-08
-1.40152e-08
-5.66518e-09
2.21428e-08
-1.32648e-08
-2.18351e-09
2.08106e-08
-1.26979e-08
6.53142e-10
1.99692e-08
-1.13182e-08
1.84838e-08
-6.79157e-09
3.82202e-11
1.71463e-08
-4.87316e-09
3.07561e-09
1.88177e-08
-8.51663e-09
6.78754e-09
1.99232e-08
-9.67163e-09
1.02795e-08
2.15684e-08
-1.0093e-08
1.35132e-08
2.39589e-08
-1.06685e-08
1.66285e-08
2.7132e-08
-1.1597e-08
1.97648e-08
3.11532e-08
-1.29122e-08
2.29905e-08
3.62456e-08
-1.46325e-08
2.62737e-08
4.26517e-08
-1.67815e-08
2.91477e-08
5.12854e-08
-1.93841e-08
3.10765e-08
6.19215e-08
-2.23915e-08
3.02011e-08
7.65399e-08
-2.56882e-08
2.76376e-08
8.90225e-08
-2.88589e-08
2.37e-08
1.00174e-07
-3.16808e-08
1.89553e-08
1.08924e-07
-3.40367e-08
1.35277e-08
1.15811e-07
-3.5843e-08
7.67541e-09
1.20448e-07
-3.70809e-08
1.60768e-09
1.22864e-07
-3.77318e-08
-4.44545e-09
1.22974e-07
-3.77834e-08
-1.02532e-08
1.20776e-07
-3.72357e-08
-1.56054e-08
1.1636e-07
-3.6101e-08
-2.02406e-08
1.09695e-07
-3.43985e-08
-2.40345e-08
1.01178e-07
-3.2147e-08
-2.6416e-08
9.0273e-08
-2.94326e-08
-2.70822e-08
7.80885e-08
-2.63747e-08
-2.49095e-08
6.38015e-08
-2.32042e-08
-2.1802e-08
5.36417e-08
-2.03437e-08
-1.82347e-08
4.54814e-08
-1.79261e-08
-1.46212e-08
3.96211e-08
-1.60236e-08
-1.08947e-08
3.51634e-08
-1.46512e-08
-6.90936e-09
3.19343e-08
-1.37767e-08
-2.6884e-09
2.97338e-08
-1.31441e-08
6.85615e-10
2.82255e-08
-1.16303e-08
2.59496e-08
-6.78021e-09
2.48473e-10
2.17407e-08
-4.84283e-09
3.9334e-09
2.39131e-08
-8.78034e-09
8.39325e-09
2.54701e-08
-1.00067e-08
1.26418e-08
2.77721e-08
-1.04522e-08
1.66513e-08
3.10555e-08
-1.11061e-08
2.06283e-08
3.5357e-08
-1.2202e-08
2.48226e-08
4.07569e-08
-1.3798e-08
2.94672e-08
4.7554e-08
-1.5953e-08
3.46662e-08
5.61774e-08
-1.87247e-08
3.97975e-08
6.83483e-08
-2.21943e-08
4.37534e-08
8.42573e-08
-2.62917e-08
4.2253e-08
1.09005e-07
-3.09645e-08
3.81243e-08
1.28565e-07
-3.54134e-08
3.22255e-08
1.4543e-07
-3.93564e-08
2.55192e-08
1.58263e-07
-4.26318e-08
1.80054e-08
1.684e-07
-4.50755e-08
9.99194e-09
1.75197e-07
-4.67363e-08
1.71578e-09
1.78741e-07
-4.76004e-08
-6.54554e-09
1.78892e-07
-4.76562e-08
-1.4513e-08
1.75647e-07
-4.69036e-08
-2.19473e-08
1.69148e-07
-4.53533e-08
-2.85333e-08
1.59301e-07
-4.30193e-08
-3.42666e-08
1.46763e-07
-3.98515e-08
-3.81724e-08
1.30196e-07
-3.6017e-08
-3.94049e-08
1.11e-07
-3.16786e-08
-3.51191e-08
8.6646e-08
-2.71303e-08
-2.97116e-08
7.14154e-08
-2.31812e-08
-2.41694e-08
5.98445e-08
-1.99053e-08
-1.90425e-08
5.18939e-08
-1.73996e-08
-1.41065e-08
4.5861e-08
-1.56336e-08
-9.04989e-09
4.14221e-08
-1.45445e-08
-3.83684e-09
3.83303e-08
-1.38096e-08
2.86956e-10
3.62281e-08
-1.21263e-08
3.31679e-08
-6.93137e-09
6.4488e-10
2.59928e-08
-4.897e-09
5.21306e-09
2.8605e-08
-9.26008e-09
1.06657e-08
3.06268e-08
-1.06094e-08
1.59071e-08
3.36494e-08
-1.11188e-08
2.09294e-08
3.79464e-08
-1.19132e-08
2.60314e-08
4.35324e-08
-1.32774e-08
3.16354e-08
5.04633e-08
-1.53103e-08
3.83284e-08
5.9004e-08
-1.81431e-08
4.66152e-08
6.97633e-08
-2.18727e-08
5.60316e-08
8.55993e-08
-2.66674e-08
6.4293e-08
1.08277e-07
-3.22812e-08
6.12579e-08
1.51186e-07
-3.91458e-08
5.40874e-08
1.81378e-07
-4.56433e-08
4.49307e-08
2.06058e-07
-5.1472e-08
3.52572e-08
2.24263e-07
-5.63265e-08
2.46413e-08
2.38786e-07
-5.97699e-08
1.34194e-08
2.48508e-07
-6.20892e-08
1.86409e-09
2.53581e-07
-6.32845e-08
-9.6774e-09
2.53782e-07
-6.33488e-08
-2.08557e-08
2.49108e-07
-6.22818e-08
-3.13944e-08
2.39775e-07
-6.00881e-08
-4.09439e-08
2.25618e-07
-5.67677e-08
-4.99179e-08
2.07766e-07
-5.20289e-08
-5.68175e-08
1.83408e-07
-4.63126e-08
-5.94992e-08
1.53605e-07
-3.99236e-08
-5.07604e-08
1.11085e-07
-3.31775e-08
-4.10399e-08
8.94089e-08
-2.77141e-08
-3.23596e-08
7.42885e-08
-2.31243e-08
-2.50795e-08
6.42998e-08
-1.9686e-08
-1.85474e-08
5.66226e-08
-1.72937e-08
-1.20887e-08
5.08131e-08
-1.58496e-08
-5.52898e-09
4.66988e-08
-1.49283e-08
-2.24761e-10
4.39275e-08
-1.30036e-08
4.01323e-08
-7.18915e-09
1.21342e-09
2.97873e-08
-5.00792e-09
6.92423e-09
3.28181e-08
-9.92392e-09
1.36592e-08
3.53517e-08
-1.14598e-08
2.01744e-08
3.92105e-08
-1.20763e-08
2.64728e-08
4.47226e-08
-1.30746e-08
3.29519e-08
5.18669e-08
-1.48137e-08
4.02609e-08
6.06091e-08
-1.74548e-08
4.96435e-08
7.0865e-08
-2.12435e-08
6.25665e-08
8.31435e-08
-2.63032e-08
7.97612e-08
1.01228e-07
-3.2823e-08
9.75207e-08
1.30584e-07
-4.00664e-08
9.05105e-08
2.08109e-07
-4.99128e-08
7.73591e-08
2.53658e-07
-5.9128e-08
6.29881e-08
2.88236e-07
-6.78064e-08
4.90635e-08
3.13355e-07
-7.51682e-08
3.40615e-08
3.33688e-07
-7.99e-08
1.8284e-08
3.47371e-07
-8.30848e-08
2.06099e-09
3.54519e-07
-8.47154e-08
-1.41517e-08
3.54788e-07
-8.47937e-08
-2.98955e-08
3.4817e-07
-8.33189e-08
-4.48364e-08
3.35e-07
-8.02847e-08
-5.86531e-08
3.15133e-07
-7.56983e-08
-7.28453e-08
2.90424e-07
-6.8466e-08
-8.56827e-08
2.56153e-07
-5.99071e-08
-9.222e-08
2.10941e-07
-5.07986e-08
-7.37021e-08
1.33623e-07
-4.10563e-08
-5.62392e-08
1.05913e-07
-3.39666e-08
-4.29081e-08
8.86175e-08
-2.76601e-08
-3.2822e-08
7.7135e-08
-2.29213e-08
-2.43443e-08
6.77789e-08
-1.96339e-08
-1.61322e-08
6.02795e-08
-1.76785e-08
-7.81799e-09
5.48614e-08
-1.64768e-08
-9.05849e-10
5.12356e-08
-1.42203e-08
4.67362e-08
-7.50978e-09
1.97241e-09
3.2959e-08
-5.14412e-09
9.14027e-09
3.63862e-08
-1.07359e-08
1.75211e-08
3.9488e-08
-1.25172e-08
2.5677e-08
4.43326e-08
-1.3278e-08
3.35777e-08
5.13623e-08
-1.45404e-08
4.16292e-08
6.05776e-08
-1.67622e-08
5.05795e-08
7.18486e-08
-2.01898e-08
6.24922e-08
8.41904e-08
-2.52382e-08
8.05813e-08
9.69841e-08
-3.19297e-08
1.11059e-07
1.11416e-07
-4.06661e-08
1.49971e-07
1.38685e-07
-4.70138e-08
1.33625e-07
2.83265e-07
-5.88105e-08
1.10168e-07
3.48505e-07
-7.13904e-08
8.8391e-08
3.943e-07
-8.42875e-08
6.87381e-08
4.28382e-07
-9.53741e-08
4.76068e-08
4.56194e-07
-1.01374e-07
2.52876e-08
4.75112e-07
-1.05422e-07
2.32326e-09
4.84976e-07
-1.07492e-07
-2.06373e-08
4.85337e-07
-1.07588e-07
-4.29435e-08
4.76186e-07
-1.05709e-07
-6.40541e-08
4.57955e-07
-1.01844e-07
-8.36577e-08
4.30756e-07
-9.60197e-08
-1.05325e-07
3.97174e-07
-8.50819e-08
-1.28492e-07
3.51636e-07
-7.23172e-08
-1.44202e-07
2.86513e-07
-5.98624e-08
-1.0395e-07
1.41494e-07
-4.81231e-08
-7.3434e-08
1.17316e-07
-4.19189e-08
-5.49648e-08
1.03555e-07
-3.34071e-08
-4.22047e-08
9.14529e-08
-2.7078e-08
-3.17696e-08
7.9948e-08
-2.26043e-08
-2.14828e-08
6.99708e-08
-1.99781e-08
-1.09235e-08
6.2704e-08
-1.84019e-08
-1.92816e-09
5.79384e-08
-1.56981e-08
5.26793e-08
-7.87122e-09
2.93188e-09
3.53163e-08
-5.28915e-09
1.19032e-08
3.90919e-08
-1.1677e-08
2.23527e-08
4.27989e-08
-1.37603e-08
3.26163e-08
4.87684e-08
-1.46993e-08
4.25825e-08
5.76749e-08
-1.62788e-08
5.24848e-08
6.97415e-08
-1.90662e-08
6.27702e-08
8.49683e-08
-2.34051e-08
7.59132e-08
1.00922e-07
-2.98747e-08
9.74004e-08
1.1423e-07
-3.87334e-08
1.45093e-07
1.12422e-07
-4.86978e-08
2.29498e-07
1.11875e-07
-5.75949e-08
1.91013e-07
3.82694e-07
-6.09431e-08
1.51598e-07
4.62282e-07
-7.43614e-08
1.21313e-07
5.16773e-07
-9.21873e-08
9.47663e-08
5.62503e-07
-1.07575e-07
6.57867e-08
5.9925e-07
-1.14076e-07
3.475e-08
6.24945e-07
-1.18796e-07
2.6786e-09
6.38232e-07
-1.21185e-07
-2.9399e-08
6.3871e-07
-1.21295e-07
-6.04568e-08
6.26369e-07
-1.19125e-07
-8.9488e-08
6.01596e-07
-1.1461e-07
-1.16114e-07
5.65691e-07
-1.08309e-07
-1.46489e-07
5.20629e-07
-9.30797e-08
-1.85808e-07
4.66363e-07
-7.54077e-08
-2.23501e-07
3.86341e-07
-6.21346e-08
-1.36634e-07
1.13661e-07
-5.90341e-08
-8.9593e-08
1.20372e-07
-5.00978e-08
-6.77592e-08
1.22053e-07
-4.03311e-08
-5.35632e-08
1.09156e-07
-3.18989e-08
-4.13536e-08
9.38319e-08
-2.60934e-08
-2.85447e-08
7.98596e-08
-2.26977e-08
-1.5067e-08
6.99126e-08
-2.06863e-08
-3.3435e-09
6.36379e-08
-1.7423e-08
5.75833e-08
-8.24747e-09
4.15951e-09
3.6579e-08
-5.42224e-09
1.53828e-08
4.05981e-08
-1.27295e-08
2.85269e-08
4.48227e-08
-1.51679e-08
4.17566e-08
5.18546e-08
-1.6316e-08
5.492e-08
6.27707e-08
-1.82591e-08
6.77846e-08
7.85404e-08
-2.16635e-08
7.936e-08
1.0027e-07
-2.68771e-08
8.84957e-08
1.26789e-07
-3.50023e-08
9.57738e-08
1.51839e-07
-4.48873e-08
1.34595e-07
1.33042e-07
-5.94416e-08
3.29306e-07
-8.28365e-08
2.55034e-07
5.01636e-07
-4.46706e-08
2.0448e-07
5.65887e-07
-5.30513e-08
1.68601e-07
6.23515e-07
-7.0864e-08
1.33783e-07
6.84157e-07
-8.68352e-08
9.30841e-08
7.30766e-07
-9.0818e-08
4.88216e-08
7.63609e-07
-9.4401e-08
3.16059e-09
7.80175e-07
-9.62817e-08
-4.25135e-08
7.80762e-07
-9.63781e-08
-8.68253e-08
7.65371e-07
-9.46904e-08
-1.27656e-07
7.33705e-07
-9.12781e-08
-1.62734e-07
6.88251e-07
-8.74822e-08
-1.99147e-07
6.28683e-07
-7.16425e-08
-2.50517e-07
5.71709e-07
-5.39759e-08
-3.24599e-07
5.06371e-07
-4.59481e-08
-1.25885e-07
-8.50524e-08
-8.71065e-08
1.42215e-07
-6.06217e-08
-8.0018e-08
1.61439e-07
-4.64744e-08
-6.95079e-08
1.3585e-07
-3.72045e-08
-5.53975e-08
1.09597e-07
-2.98753e-08
-3.87773e-08
8.90272e-08
-2.57878e-08
-2.10148e-08
7.54772e-08
-2.33271e-08
-5.46326e-09
6.74831e-08
-1.93967e-08
6.06951e-08
-8.57508e-09
5.5501e-09
3.65859e-08
-5.557e-09
1.93381e-08
4.06896e-08
-1.38795e-08
3.56563e-08
4.52344e-08
-1.67299e-08
5.26414e-08
5.30057e-08
-1.81362e-08
7.04078e-08
6.55209e-08
-2.05166e-08
8.86746e-08
8.47936e-08
-2.45201e-08
1.04776e-07
1.1453e-07
-3.0362e-08
1.09768e-07
1.59349e-07
-3.75526e-08
8.79982e-08
2.25037e-07
-5.14273e-08
3.02136e-07
-8.10953e-08
1.63296e-07
2.84074e-07
5.42669e-08
2.2076e-07
4.85333e-07
2.30909e-08
2.17578e-07
6.08385e-07
1.83123e-08
1.79384e-07
7.01061e-07
2.12896e-08
1.25872e-07
7.64211e-07
2.00672e-08
6.608e-08
8.04818e-07
1.85827e-08
3.8054e-09
8.24479e-07
1.79704e-08
-5.84878e-08
8.25086e-07
1.79697e-08
-1.18351e-07
8.06655e-07
1.85795e-08
-1.72057e-07
7.67339e-07
2.00706e-08
-2.10709e-07
7.05611e-07
2.12932e-08
-2.15004e-07
6.14613e-07
1.83651e-08
-1.5979e-07
4.93577e-07
2.29178e-08
2.93268e-07
5.3313e-08
-8.51139e-08
3.07377e-07
-8.00478e-08
-1.03474e-07
2.32504e-07
-5.27059e-08
-9.52235e-08
1.6751e-07
-3.99099e-08
-7.53763e-08
1.23462e-07
-3.37125e-08
-5.22038e-08
9.50862e-08
-2.92315e-08
-2.84974e-08
7.81583e-08
-2.63874e-08
-8.09496e-09
6.8745e-08
-2.16644e-08
6.15244e-08
-8.92424e-09
7.19734e-09
3.50681e-08
-5.6795e-09
2.39945e-08
3.89728e-08
-1.50803e-08
4.43707e-08
4.32249e-08
-1.83667e-08
6.70389e-08
5.04033e-08
-2.0066e-08
9.3836e-08
6.17067e-08
-2.29829e-08
1.28042e-07
7.84686e-08
-2.78806e-08
1.74869e-07
1.02655e-07
-3.49518e-08
2.41539e-07
1.35363e-07
-4.26844e-08
3.40888e-07
1.74109e-07
-4.84207e-08
4.79852e-07
2.04634e-07
-4.1463e-08
3.71215e-07
8.06465e-08
2.79905e-08
3.99219e-07
2.15344e-07
4.07265e-08
3.91844e-07
3.70379e-07
1.22329e-07
3.38973e-07
4.77317e-07
1.83939e-07
2.60988e-07
5.58971e-07
2.20075e-07
1.75993e-07
6.14614e-07
2.34592e-07
9.01522e-08
6.50092e-07
2.40567e-07
4.48358e-09
6.67291e-07
2.42858e-07
-8.11715e-08
6.67813e-07
2.42928e-07
-1.6697e-07
6.51671e-07
2.40783e-07
-2.51896e-07
6.17289e-07
2.34976e-07
-3.29769e-07
5.6281e-07
2.20673e-07
-3.82508e-07
4.82411e-07
1.84941e-07
-3.89322e-07
3.76593e-07
1.23799e-07
-3.6153e-07
2.22288e-07
4.31875e-08
-4.74892e-07
8.29931e-08
3.03696e-08
-3.35621e-07
2.0924e-07
-4.11347e-08
-2.34094e-07
1.80542e-07
-4.95648e-08
-1.64414e-07
1.42783e-07
-4.49535e-08
-1.13419e-07
1.11051e-07
-3.85838e-08
-7.34043e-08
8.83077e-08
-3.32363e-08
-3.93139e-08
7.38733e-08
-2.98055e-08
-1.19446e-08
6.55648e-08
-2.41891e-08
5.88328e-08
-9.25308e-09
8.62155e-09
3.22549e-08
-5.80837e-09
2.8044e-08
3.5779e-08
-1.62287e-08
5.17425e-08
3.94752e-08
-1.99489e-08
7.85246e-08
4.55762e-08
-2.19549e-08
1.10777e-07
5.48718e-08
-2.54179e-08
1.52537e-07
6.79709e-08
-3.12619e-08
2.09568e-07
8.53727e-08
-3.97488e-08
2.88234e-07
1.06595e-07
-4.98975e-08
3.93184e-07
1.27574e-07
-5.84154e-08
5.13948e-07
1.41556e-07
-5.76857e-08
5.2423e-07
1.04499e-07
-3.41348e-08
5.46879e-07
1.80249e-07
1.24446e-08
5.05448e-07
2.74025e-07
1.37785e-07
4.21142e-07
3.46925e-07
2.14697e-07
3.18586e-07
4.05382e-07
2.56145e-07
2.12563e-07
4.46068e-07
2.74569e-07
1.08007e-07
4.72563e-07
2.82086e-07
5.00896e-09
4.8553e-07
2.84758e-07
-9.79655e-08
4.85965e-07
2.84823e-07
-2.02447e-07
4.73868e-07
2.82284e-07
-3.08342e-07
4.48255e-07
2.7493e-07
-4.10714e-07
4.08454e-07
2.56728e-07
-4.9489e-07
3.50874e-07
2.15713e-07
-5.36312e-07
2.78669e-07
1.39346e-07
-5.14451e-07
1.85346e-07
1.50811e-08
-5.06919e-07
1.07908e-07
-3.24471e-08
-3.86558e-07
1.46263e-07
-5.73838e-08
-2.7991e-07
1.33351e-07
-5.9457e-08
-1.98195e-07
1.13286e-07
-5.22173e-08
-1.3654e-07
9.30579e-08
-4.36621e-08
-8.8118e-08
7.70745e-08
-3.71891e-08
-4.73299e-08
6.61443e-08
-3.30591e-08
-1.476e-08
5.95356e-08
-2.65407e-08
5.36809e-08
-9.60806e-09
9.88153e-09
2.82978e-08
-5.92449e-09
3.16053e-08
3.13077e-08
-1.72524e-08
5.81408e-08
3.42872e-08
-2.13475e-08
8.82347e-08
3.90834e-08
-2.36011e-08
1.24436e-07
4.61726e-08
-2.75023e-08
1.70789e-07
5.57499e-08
-3.41317e-08
2.32338e-07
6.77325e-08
-4.39091e-08
3.13825e-07
8.15925e-08
-5.64852e-08
4.15856e-07
9.44768e-08
-6.8933e-08
5.27265e-07
1.05212e-07
-7.50651e-08
5.89472e-07
1.01102e-07
-5.88099e-08
6.29553e-07
1.44308e-07
-4.1392e-09
5.78983e-07
1.99143e-07
1.25451e-07
4.7962e-07
2.45911e-07
2.00378e-07
3.60396e-07
2.85021e-07
2.39584e-07
2.39398e-07
3.12937e-07
2.5413e-07
1.21268e-07
3.31573e-07
2.59119e-07
5.4457e-09
3.40832e-07
2.60521e-07
-1.1035e-07
3.412e-07
2.6056e-07
-2.28393e-07
3.32674e-07
2.59239e-07
-3.49254e-07
3.14757e-07
2.54359e-07
-4.68312e-07
2.8753e-07
2.39982e-07
-5.67665e-07
2.49063e-07
2.01164e-07
-6.18527e-07
2.02774e-07
1.26757e-07
-5.80139e-07
1.48214e-07
-1.25673e-09
-5.19567e-07
1.04685e-07
-5.73486e-08
-4.08266e-07
1.09594e-07
-7.46312e-08
-3.04609e-07
9.95891e-08
-6.98954e-08
-2.19961e-07
8.74911e-08
-5.88528e-08
-1.53392e-07
7.4549e-08
-4.80595e-08
-9.96438e-08
6.38527e-08
-4.05265e-08
-5.38525e-08
5.6161e-08
-3.5808e-08
-1.70873e-08
5.13125e-08
-2.85421e-08
4.64992e-08
-9.90565e-09
1.08382e-08
2.35055e-08
-6.04578e-09
3.43412e-08
2.59308e-08
-1.81261e-08
6.29704e-08
2.81904e-08
-2.25325e-08
9.52931e-08
3.17466e-08
-2.49859e-08
1.33813e-07
3.68852e-08
-2.92323e-08
1.82404e-07
4.36269e-08
-3.64677e-08
2.45587e-07
5.1759e-08
-4.72096e-08
3.276e-07
6.09791e-08
-6.13998e-08
4.28435e-07
6.9789e-08
-7.6147e-08
5.39804e-07
7.90734e-08
-8.52309e-08
6.26193e-07
8.4959e-08
-7.02458e-08
6.77902e-07
1.11341e-07
-1.87418e-08
6.23482e-07
1.4459e-07
1.08973e-07
5.16385e-07
1.74428e-07
1.7858e-07
3.87772e-07
2.00139e-07
2.13496e-07
2.57535e-07
2.19069e-07
2.24105e-07
1.30411e-07
2.3195e-07
2.26748e-07
5.80772e-09
2.3846e-07
2.26975e-07
-1.18773e-07
2.38791e-07
2.2699e-07
-2.45829e-07
2.32932e-07
2.26797e-07
-3.75962e-07
2.20676e-07
2.24214e-07
-5.04471e-07
2.02319e-07
2.13721e-07
-6.11674e-07
1.77115e-07
1.7915e-07
-6.6663e-07
1.47658e-07
1.10072e-07
-6.16727e-07
1.14713e-07
-1.64021e-08
-5.31541e-07
8.83595e-08
-6.88609e-08
-4.20111e-07
8.29938e-08
-8.48295e-08
-3.176e-07
7.42297e-08
-7.71511e-08
-2.32275e-07
6.60423e-08
-6.38762e-08
-1.63727e-07
5.75862e-08
-5.15855e-08
-1.07145e-07
5.05181e-08
-4.32476e-08
-5.82148e-08
4.52923e-08
-3.80614e-08
-1.85931e-08
4.18887e-08
-3.01979e-08
3.81321e-08
-1.0226e-08
1.15518e-08
1.81124e-08
-6.15878e-09
3.6394e-08
1.99172e-08
-1.88287e-08
6.65643e-08
2.14929e-08
-2.34728e-08
1.00453e-07
2.39283e-08
-2.60705e-08
1.40497e-07
2.74048e-08
-3.05632e-08
1.90441e-07
3.19073e-08
-3.82249e-08
2.54545e-07
3.72853e-08
-4.96307e-08
3.36937e-07
4.34453e-08
-6.48581e-08
4.37983e-07
4.97488e-08
-8.10054e-08
5.51652e-07
5.72056e-08
-9.18014e-08
6.49593e-07
6.45844e-08
-7.75658e-08
7.07647e-07
8.11974e-08
-2.79113e-08
6.5213e-07
1.01704e-07
9.84037e-08
5.40931e-07
1.20671e-07
1.64956e-07
4.06481e-07
1.37283e-07
1.97306e-07
2.70154e-07
1.49815e-07
2.05581e-07
1.36871e-07
1.5846e-07
2.06772e-07
6.13469e-09
1.62917e-07
2.06279e-07
-1.24589e-07
1.63232e-07
2.06283e-07
-2.57832e-07
1.59392e-07
2.06784e-07
-3.94105e-07
1.51323e-07
2.05625e-07
-5.28525e-07
1.39301e-07
1.97438e-07
-6.39928e-07
1.23113e-07
1.65406e-07
-6.96095e-07
1.04456e-07
9.93692e-08
-6.39919e-07
8.41844e-08
-2.56478e-08
-5.42967e-07
6.76781e-08
-7.6271e-08
-4.29131e-07
6.06189e-08
-9.14614e-08
-3.26316e-07
5.35024e-08
-8.2087e-08
-2.40456e-07
4.76349e-08
-6.74531e-08
-1.70699e-07
4.20323e-08
-5.42028e-08
-1.12303e-07
3.74336e-08
-4.5312e-08
-6.12398e-08
3.40252e-08
-3.97959e-08
-1.96209e-08
3.17639e-08
-3.1494e-08
2.90253e-08
-1.05142e-08
1.20259e-08
1.23514e-08
-6.26495e-09
3.77827e-08
1.35193e-08
-1.93588e-08
6.89891e-08
1.44575e-08
-2.4171e-08
1.03898e-07
1.58857e-08
-2.68663e-08
1.44902e-07
1.79227e-08
-3.15221e-08
1.95697e-07
2.0571e-08
-3.94589e-08
2.6048e-07
2.37818e-08
-5.12785e-08
3.43454e-07
2.75776e-08
-6.71068e-08
4.45436e-07
3.17853e-08
-8.40186e-08
5.61281e-07
3.7031e-08
-9.56704e-08
6.64843e-07
4.29806e-08
-8.19578e-08
7.26347e-07
5.28762e-08
-3.31833e-08
6.70319e-07
6.46884e-08
9.30435e-08
5.56749e-07
7.57524e-08
1.58489e-07
4.18765e-07
8.54768e-08
1.89791e-07
2.78578e-07
9.29673e-08
1.97034e-07
1.41264e-07
9.81987e-08
1.97576e-07
6.44399e-09
1.0098e-07
1.96756e-07
-1.28376e-07
1.01298e-07
1.96754e-07
-2.65692e-07
9.91354e-08
1.97572e-07
-4.05889e-07
9.4469e-08
1.97051e-07
-5.43929e-07
8.74593e-08
1.89882e-07
-6.57802e-07
7.81021e-08
1.58883e-07
-7.14565e-07
6.72807e-08
9.39388e-08
-6.54982e-07
5.56029e-08
-3.10017e-08
-5.52312e-07
4.57581e-08
-8.07494e-08
-4.36228e-07
3.99479e-08
-9.54135e-08
-3.32393e-07
3.48626e-08
-8.51951e-08
-2.45821e-07
3.08847e-08
-6.98216e-08
-1.75173e-07
2.74034e-08
-5.60191e-08
-1.156e-07
2.46481e-08
-4.67877e-08
-6.31592e-08
2.26444e-08
-4.106e-08
-2.02447e-08
2.13083e-08
-3.2459e-08
1.9555e-08
-1.07743e-08
1.22964e-08
6.41223e-09
-6.35723e-09
3.85931e-08
6.93645e-09
-1.97139e-08
7.04135e-08
7.26392e-09
-2.46267e-08
1.05931e-07
7.74585e-09
-2.73776e-08
1.47525e-07
8.45452e-09
-3.21255e-08
1.98885e-07
9.42684e-09
-4.02163e-08
2.64215e-07
1.07158e-08
-5.22643e-08
3.47795e-07
1.2409e-08
-6.84113e-08
4.50682e-07
1.46128e-08
-8.57146e-08
5.68e-07
1.74908e-08
-9.7778e-08
6.74193e-07
2.10911e-08
-8.43035e-08
7.3734e-07
2.54776e-08
-3.57482e-08
6.81032e-07
3.01597e-08
9.08367e-08
5.6613e-07
3.45346e-08
1.5612e-07
4.26142e-07
3.83084e-08
1.87157e-07
2.83708e-07
4.1331e-08
1.9407e-07
1.44012e-07
4.35053e-08
1.9439e-07
6.75521e-09
4.47824e-08
1.93454e-07
-1.3052e-07
4.51225e-08
1.93451e-07
-2.7027e-07
4.45047e-08
1.94381e-07
-4.12797e-07
4.29198e-08
1.94076e-07
-5.52949e-07
4.03806e-08
1.87231e-07
-6.6827e-07
3.69374e-08
1.56486e-07
-7.25415e-07
3.27372e-08
9.16881e-08
-6.64239e-07
2.80654e-08
-3.36382e-08
-5.58903e-07
2.36023e-08
-8.31802e-08
-4.41302e-07
1.9958e-08
-9.76111e-08
-3.36501e-07
1.705e-08
-8.69886e-08
-2.49235e-07
1.48559e-08
-7.12371e-08
-1.77902e-07
1.32128e-08
-5.71428e-08
-1.17563e-07
1.20333e-08
-4.77248e-08
-6.42811e-08
1.12425e-08
-4.18795e-08
-2.05971e-08
1.07261e-08
-3.31018e-08
9.93901e-09
-1.09811e-08
1.2374e-08
4.73328e-10
-6.43509e-09
3.8854e-08
3.52392e-10
-1.98959e-08
7.08931e-08
6.97072e-11
-2.48449e-08
1.06647e-07
-3.9467e-10
-2.76135e-08
1.48508e-07
-1.01585e-09
-3.23906e-08
2.00191e-07
-1.72588e-09
-4.05301e-08
2.65928e-07
-2.37165e-09
-5.26498e-08
3.50029e-07
-2.79807e-09
-6.88935e-08
4.53562e-07
-2.60761e-09
-8.6313e-08
5.71596e-07
-2.04858e-09
-9.84943e-08
6.7844e-07
-6.70763e-10
-8.50823e-08
7.41863e-07
-1.45087e-09
-3.64943e-08
6.85323e-07
-3.72078e-09
9.04206e-08
5.69856e-07
-5.8992e-09
1.559e-07
4.29129e-07
-7.99256e-09
1.87028e-07
2.85861e-07
-9.36936e-09
1.93969e-07
1.45273e-07
-1.02001e-08
1.94294e-07
7.08657e-09
-1.03887e-08
1.93357e-07
-1.3114e-07
-1.00025e-08
1.93352e-07
-2.71849e-07
-9.0659e-09
1.94279e-07
-4.15318e-07
-7.57559e-09
1.93965e-07
-5.56351e-07
-5.67102e-09
1.87084e-07
-6.72391e-07
-3.25874e-09
1.56236e-07
-7.29907e-07
-9.67824e-10
9.12217e-08
-6.6853e-07
1.15922e-09
-3.44708e-08
-5.62543e-07
1.67445e-09
-8.40589e-08
-4.44204e-07
5.1072e-11
-9.84322e-08
-3.38723e-07
-7.39074e-10
-8.76918e-08
-2.50895e-07
-1.14834e-09
-7.18246e-08
-1.79096e-07
-9.46719e-10
-5.76391e-08
-1.18353e-07
-5.47744e-10
-4.81619e-08
-6.4704e-08
-1.27234e-10
-4.22792e-08
-2.07164e-08
1.74559e-10
-3.3436e-08
3.55343e-10
-1.11328e-08
1.22607e-08
-5.28973e-09
-6.49767e-09
3.85669e-08
-6.0479e-09
-1.99059e-08
7.04288e-08
-6.96523e-09
-2.4827e-08
1.06044e-07
-8.43313e-09
-2.75771e-08
1.47847e-07
-1.04957e-08
-3.23224e-08
1.99604e-07
-1.30754e-08
-4.04082e-08
2.65607e-07
-1.59269e-08
-5.24476e-08
3.5016e-07
-1.87775e-08
-6.85737e-08
4.54132e-07
-2.07348e-08
-8.58449e-08
5.72217e-07
-2.22675e-08
-9.78656e-08
6.77833e-07
-2.19206e-08
-8.43661e-08
7.40109e-07
-2.81793e-08
-3.55473e-08
6.83322e-07
-3.85641e-08
9.16294e-08
5.68016e-07
-4.8219e-08
1.57626e-07
4.27793e-07
-5.69412e-08
1.89172e-07
2.85086e-07
-6.31404e-08
1.96478e-07
1.45083e-07
-6.72166e-08
1.97019e-07
7.46171e-09
-6.89537e-08
1.96186e-07
-1.30228e-07
-6.84883e-08
1.96175e-07
-2.70435e-07
-6.58464e-08
1.96988e-07
-4.13481e-07
-6.09739e-08
1.96444e-07
-5.542e-07
-5.41352e-08
1.89183e-07
-6.70291e-07
-4.50621e-08
1.57894e-07
-7.28263e-07
-3.53346e-08
9.23389e-08
-6.68146e-07
-2.53038e-08
-3.36539e-08
-5.63398e-07
-1.95962e-08
-8.34775e-08
-4.45002e-07
-2.04026e-08
-9.79422e-08
-3.39076e-07
-1.93155e-08
-8.735e-08
-2.50798e-07
-1.78107e-08
-7.1615e-08
-1.78754e-07
-1.54629e-08
-5.7528e-08
-1.17973e-07
-1.32167e-08
-4.81123e-08
-6.4431e-08
-1.14009e-08
-4.22681e-08
-2.06054e-08
-1.0184e-08
-3.3467e-08
-9.0208e-09
-1.12293e-08
1.19436e-08
-1.06827e-08
-6.55058e-09
3.77037e-08
-1.20613e-08
-1.97468e-08
6.8966e-08
-1.3653e-08
-2.45746e-08
1.04026e-07
-1.62271e-08
-2.72664e-08
1.45385e-07
-1.99408e-08
-3.19135e-08
1.96912e-07
-2.47693e-08
-3.9833e-08
2.63035e-07
-3.04288e-08
-5.16208e-08
3.48092e-07
-3.64629e-08
-6.73716e-08
4.52609e-07
-4.10972e-08
-8.41555e-08
5.70369e-07
-4.44072e-08
-9.56199e-08
6.72139e-07
-4.18892e-08
-8.18011e-08
7.31236e-07
-5.50123e-08
-3.2264e-08
6.74239e-07
-7.70122e-08
9.54449e-08
5.60017e-07
-9.67487e-08
1.62751e-07
4.21769e-07
-1.14081e-07
1.95388e-07
2.81188e-07
-1.26244e-07
2.03685e-07
1.43373e-07
-1.34218e-07
2.04816e-07
7.91241e-09
-1.37759e-07
2.04266e-07
-1.27649e-07
-1.37167e-07
2.0424e-07
-2.6577e-07
-1.32464e-07
2.04738e-07
-4.06863e-07
-1.23452e-07
2.03571e-07
-5.45862e-07
-1.10422e-07
1.95286e-07
-6.61166e-07
-9.2627e-08
1.62869e-07
-7.19673e-07
-7.28021e-08
9.59751e-08
-6.62915e-07
-5.14732e-08
-3.05887e-08
-5.62013e-07
-3.93852e-08
-8.11128e-08
-4.43923e-07
-4.25981e-08
-9.58949e-08
-3.37463e-07
-3.99468e-08
-8.58289e-08
-2.48729e-07
-3.60016e-08
-7.05431e-08
-1.76661e-07
-3.0748e-08
-5.67824e-08
-1.16265e-07
-2.60497e-08
-4.7563e-08
-6.33685e-08
-2.24576e-08
-4.18402e-08
-2.02241e-08
-2.01314e-08
-3.3197e-08
-1.79599e-08
-1.1285e-08
1.13904e-08
-1.54719e-08
-6.60117e-09
3.61849e-08
-1.74317e-08
-1.94241e-08
6.6344e-08
-1.97199e-08
-2.40922e-08
1.00295e-07
-2.34945e-08
-2.66838e-08
1.40623e-07
-2.91111e-08
-3.11573e-08
1.91372e-07
-3.67451e-08
-3.8773e-08
2.57318e-07
-4.62925e-08
-5.00826e-08
3.43094e-07
-5.71763e-08
-6.50631e-08
4.49113e-07
-6.63319e-08
-8.07843e-08
5.67113e-07
-7.1502e-08
-9.09044e-08
6.60127e-07
-5.82859e-08
-7.66173e-08
7.12486e-07
-8.16444e-08
-2.57275e-08
6.55365e-07
-1.23278e-07
1.03387e-07
5.43745e-07
-1.58745e-07
1.73617e-07
4.09688e-07
-1.88652e-07
2.08629e-07
2.73396e-07
-2.09011e-07
2.19059e-07
1.3982e-07
-2.22114e-07
2.21472e-07
8.48486e-09
-2.27954e-07
2.2153e-07
-1.22987e-07
-2.27165e-07
2.21469e-07
-2.56985e-07
-2.19754e-07
2.21289e-07
-3.93997e-07
-2.05207e-07
2.18766e-07
-5.29146e-07
-1.8355e-07
2.08277e-07
-6.42279e-07
-1.52917e-07
1.73422e-07
-7.01453e-07
-1.17207e-07
1.03579e-07
-6.51729e-07
-7.67808e-08
-2.44163e-08
-5.59473e-07
-5.54022e-08
-7.62384e-08
-4.41087e-07
-6.9485e-08
-9.14993e-08
-3.33154e-07
-6.51609e-08
-8.27185e-08
-2.43789e-07
-5.69473e-08
-6.84192e-08
-1.72069e-07
-4.71334e-08
-5.53348e-08
-1.12725e-07
-3.89032e-08
-4.64911e-08
-6.12272e-08
-3.29662e-08
-4.09888e-08
-1.94488e-08
-2.92807e-08
-3.26291e-08
-2.60804e-08
-1.13283e-08
1.0606e-08
-1.94297e-08
-6.64825e-09
3.40113e-08
-2.18946e-08
-1.89423e-08
6.25301e-08
-2.48566e-08
-2.33821e-08
9.47153e-08
-2.98551e-08
-2.58246e-08
1.33197e-07
-3.75553e-08
-3.00374e-08
1.82206e-07
-4.85626e-08
-3.71913e-08
2.47087e-07
-6.34132e-08
-4.77609e-08
3.33194e-07
-8.18142e-08
-6.14689e-08
4.42037e-07
-9.98468e-08
-7.53283e-08
5.63847e-07
-1.10231e-07
-8.30804e-08
6.38098e-07
-6.51312e-08
-6.74062e-08
6.76785e-07
-1.05865e-07
-1.44657e-08
6.21662e-07
-1.84092e-07
1.15936e-07
5.16127e-07
-2.43881e-07
1.90671e-07
3.89716e-07
-2.91611e-07
2.29369e-07
2.60715e-07
-3.23266e-07
2.43256e-07
1.34022e-07
-3.43081e-07
2.4766e-07
9.24712e-09
-3.51855e-07
2.48675e-07
-1.15693e-07
-3.50777e-07
2.48552e-07
-2.42921e-07
-3.39812e-07
2.47286e-07
-3.72868e-07
-3.17901e-07
2.42642e-07
-5.0082e-07
-2.8418e-07
2.28582e-07
-6.08496e-07
-2.35195e-07
1.89953e-07
-6.66626e-07
-1.74693e-07
1.15617e-07
-6.31131e-07
-9.86075e-08
-1.36684e-08
-5.57175e-07
-6.19114e-08
-6.74466e-08
-4.3487e-07
-1.07595e-07
-8.41952e-08
-3.24188e-07
-9.81729e-08
-7.76699e-08
-2.34621e-07
-8.14161e-08
-6.50986e-08
-1.64194e-07
-6.44331e-08
-5.31275e-08
-1.06963e-07
-5.12755e-08
-4.48581e-08
-5.78431e-08
-4.24014e-08
-3.9685e-08
-1.82366e-08
-3.714e-08
-3.17472e-08
-3.29617e-08
-1.13553e-08
9.53265e-09
-2.22555e-08
-6.7069e-09
3.10499e-08
-2.50855e-08
-1.83263e-08
5.72104e-08
-2.8536e-08
-2.24811e-08
8.65654e-08
-3.44753e-08
-2.47348e-08
1.21561e-07
-4.39443e-08
-2.86064e-08
1.66382e-07
-5.82463e-08
-3.51371e-08
2.27029e-07
-7.93905e-08
-4.46699e-08
3.1056e-07
-1.09017e-07
-5.63285e-08
4.23104e-07
-1.45567e-07
-6.68229e-08
5.5991e-07
-1.7892e-07
-6.81177e-08
5.94384e-07
-5.34881e-08
-4.6117e-08
6.08186e-07
-1.19303e-07
-3.64369e-10
5.59862e-07