/*--------------------------------*- C++ -*----------------------------------*\
| =========                 |                                                 |
| \\      /  F ield         | OpenFOAM: The Open Source CFD Toolbox           |
|  \\    /   O peration     | Version:  2112                                  |
|   \\  /    A nd           | Website:  www.openfoam.com                      |
|    \\/     M anipulation  |                                                 |
\*---------------------------------------------------------------------------*/
FoamFile
{
    version     2.0;
    format      ascii;
    arch        "LSB;label=32;scalar=64";
    class       volVectorField;
    location    "1.1";
    object      U;
}
// * * * * * * * * * * * * * * * * * * * * * * * * * * * * * * * * * * * * * //

dimensions      [0 1 -1 0 0 0 0];

internalField   nonuniform List<vector> 
64906
(
(6.49608e-07 1.98117e-06 -2.83267e-06)
(3.09636e-06 1.33187e-06 -2.92965e-06)
(6.22041e-06 8.78557e-07 -2.71125e-06)
(9.35601e-06 6.86197e-07 -2.56911e-06)
(1.24063e-05 7.16356e-07 -2.56943e-06)
(1.53194e-05 8.86681e-07 -2.67659e-06)
(1.80855e-05 1.15546e-06 -2.85676e-06)
(2.0641e-05 1.52871e-06 -3.08535e-06)
(2.29106e-05 2.00518e-06 -3.35428e-06)
(2.46606e-05 2.65448e-06 -3.63558e-06)
(2.57086e-05 3.40506e-06 -3.93798e-06)
(2.56679e-05 4.37913e-06 -4.22037e-06)
(2.4374e-05 5.25504e-06 -4.49495e-06)
(2.19822e-05 6.08667e-06 -4.72255e-06)
(1.85867e-05 6.75309e-06 -4.91949e-06)
(1.44284e-05 7.2814e-06 -5.06894e-06)
(9.69395e-06 7.63378e-06 -5.17607e-06)
(4.62874e-06 7.81478e-06 -5.23533e-06)
(-5.42075e-07 7.81633e-06 -5.24746e-06)
(-5.57358e-06 7.6386e-06 -5.21223e-06)
(-1.02401e-05 7.28994e-06 -5.12922e-06)
(-1.42975e-05 6.76609e-06 -5.00416e-06)
(-1.75618e-05 6.1062e-06 -4.83179e-06)
(-1.97941e-05 5.28318e-06 -4.62958e-06)
(-2.09077e-05 4.42146e-06 -4.38111e-06)
(-2.07504e-05 3.46509e-06 -4.1277e-06)
(-1.9496e-05 2.7437e-06 -3.85828e-06)
(-1.75347e-05 2.13079e-06 -3.62001e-06)
(-1.50404e-05 1.71339e-06 -3.41314e-06)
(-1.22447e-05 1.44848e-06 -3.28804e-06)
(-9.21826e-06 1.4015e-06 -3.29399e-06)
(-6.07559e-06 1.65793e-06 -3.49674e-06)
(-2.95424e-06 2.23626e-06 -3.82264e-06)
(-4.48159e-07 3.05314e-06 -3.77935e-06)
(-3.32144e-07 7.04671e-06 -3.32574e-06)
(1.85817e-06 6.58917e-06 -6.07402e-06)
(5.99709e-06 6.26243e-06 -6.70226e-06)
(9.76171e-06 6.34792e-06 -6.87108e-06)
(1.32396e-05 6.89866e-06 -7.18511e-06)
(1.64615e-05 7.83094e-06 -7.71497e-06)
(1.95051e-05 9.10286e-06 -8.44243e-06)
(2.23357e-05 1.07582e-05 -9.34949e-06)
(2.49303e-05 1.28294e-05 -1.04294e-05)
(2.69823e-05 1.5507e-05 -1.1668e-05)
(2.83398e-05 1.86238e-05 -1.30435e-05)
(2.83932e-05 2.2452e-05 -1.44957e-05)
(2.69235e-05 2.59665e-05 -1.58994e-05)
(2.42519e-05 2.92265e-05 -1.71639e-05)
(2.04496e-05 3.18753e-05 -1.82364e-05)
(1.58408e-05 3.39614e-05 -1.90776e-05)
(1.05971e-05 3.53708e-05 -1.96632e-05)
(5.00357e-06 3.61022e-05 -1.99769e-05)
(-7.07857e-07 3.613e-05 -2.00107e-05)
(-6.26387e-06 3.54547e-05 -1.97647e-05)
(-1.14327e-05 3.41032e-05 -1.92474e-05)
(-1.59294e-05 3.20781e-05 -1.84756e-05)
(-1.95859e-05 2.94977e-05 -1.74741e-05)
(-2.20785e-05 2.63147e-05 -1.6284e-05)
(-2.33462e-05 2.28968e-05 -1.49592e-05)
(-2.30682e-05 1.91807e-05 -1.3594e-05)
(-2.14761e-05 1.62143e-05 -1.23178e-05)
(-1.91784e-05 1.37095e-05 -1.11986e-05)
(-1.62952e-05 1.18674e-05 -1.02734e-05)
(-1.30917e-05 1.05423e-05 -9.58551e-06)
(-9.50957e-06 9.7999e-06 -9.16676e-06)
(-5.572e-06 9.70057e-06 -8.93075e-06)
(-1.12575e-06 1.01192e-05 -8.09712e-06)
(9.63963e-07 1.05453e-05 -4.55098e-06)
(-8.80397e-07 1.4178e-05 -3.27697e-06)
(1.2751e-06 1.50945e-05 -6.72991e-06)
(6.18865e-06 1.56329e-05 -7.6585e-06)
(1.05484e-05 1.66223e-05 -7.92936e-06)
(1.45675e-05 1.82825e-05 -8.3343e-06)
(1.82829e-05 2.06112e-05 -8.99621e-06)
(2.18506e-05 2.36261e-05 -9.91297e-06)
(2.52725e-05 2.74625e-05 -1.10753e-05)
(2.86191e-05 3.22298e-05 -1.24855e-05)
(3.14394e-05 3.83645e-05 -1.4138e-05)
(3.36262e-05 4.55644e-05 -1.60092e-05)
(3.39564e-05 5.447e-05 -1.80051e-05)
(3.20643e-05 6.2583e-05 -1.99417e-05)
(2.8743e-05 7.00394e-05 -2.16783e-05)
(2.40614e-05 7.60841e-05 -2.31447e-05)
(1.85162e-05 8.08437e-05 -2.42862e-05)
(1.22453e-05 8.40693e-05 -2.50766e-05)
(5.59993e-06 8.57508e-05 -2.54966e-05)
(-1.18295e-06 8.58297e-05 -2.5536e-05)
(-7.78846e-06 8.43068e-05 -2.51947e-05)
(-1.39795e-05 8.12431e-05 -2.44836e-05)
(-1.94032e-05 7.66508e-05 -2.34224e-05)
(-2.39249e-05 7.07875e-05 -2.20382e-05)
(-2.70441e-05 6.35298e-05 -2.03872e-05)
(-2.87059e-05 5.56559e-05 -1.85415e-05)
(-2.81101e-05 4.70216e-05 -1.66468e-05)
(-2.56453e-05 4.01752e-05 -1.4891e-05)
(-2.25303e-05 3.44269e-05 -1.33798e-05)
(-1.88081e-05 3.01285e-05 -1.21537e-05)
(-1.48619e-05 2.68798e-05 -1.12515e-05)
(-1.04951e-05 2.46517e-05 -1.06827e-05)
(-5.72819e-06 2.33514e-05 -1.0292e-05)
(-3.2584e-07 2.26416e-05 -9.07709e-06)
(1.66175e-06 2.12056e-05 -4.52393e-06)
(-1.01811e-06 2.12017e-05 -3.16348e-06)
(1.43106e-06 2.31586e-05 -6.79004e-06)
(7.15646e-06 2.44054e-05 -7.76582e-06)
(1.23069e-05 2.62978e-05 -8.02363e-06)
(1.71217e-05 2.9111e-05 -8.44187e-06)
(2.16467e-05 3.28873e-05 -9.16431e-06)
(2.61376e-05 3.76997e-05 -1.01974e-05)
(3.06527e-05 4.38043e-05 -1.15456e-05)
(3.54641e-05 5.14492e-05 -1.32262e-05)
(3.98593e-05 6.15464e-05 -1.52518e-05)
(4.38903e-05 7.37025e-05 -1.76008e-05)
(4.48185e-05 8.95597e-05 -2.01545e-05)
(4.19433e-05 0.000103518 -2.26321e-05)
(3.72762e-05 0.000116146 -2.48312e-05)
(3.08708e-05 0.000126195 -2.66749e-05)
(2.35462e-05 0.000134098 -2.80861e-05)
(1.53352e-05 0.000139434 -2.90565e-05)
(6.71036e-06 0.000142216 -2.9567e-05)
(-2.08866e-06 0.000142347 -2.96074e-05)
(-1.06714e-05 0.000139825 -2.91778e-05)
(-1.87974e-05 0.000134754 -2.82883e-05)
(-2.59889e-05 0.000127119 -2.69587e-05)
(-3.22156e-05 0.000117356 -2.51971e-05)
(-3.66448e-05 0.000105035 -2.30832e-05)
(-3.9245e-05 9.14471e-05 -2.06944e-05)
(-3.79792e-05 7.60041e-05 -1.82406e-05)
(-3.36013e-05 6.44122e-05 -1.60062e-05)
(-2.88505e-05 5.48997e-05 -1.41266e-05)
(-2.35597e-05 4.79384e-05 -1.26417e-05)
(-1.83616e-05 4.26433e-05 -1.1581e-05)
(-1.28311e-05 3.8851e-05 -1.0942e-05)
(-6.9855e-06 3.63326e-05 -1.05388e-05)
(-4.98819e-07 3.4647e-05 -9.25155e-06)
(1.87445e-06 3.19352e-05 -4.4488e-06)
(-8.72754e-07 2.80015e-05 -3.0983e-06)
(2.14802e-06 3.07804e-05 -6.98497e-06)
(8.92684e-06 3.2687e-05 -8.00532e-06)
(1.5151e-05 3.55031e-05 -8.26073e-06)
(2.10603e-05 3.95462e-05 -8.72745e-06)
(2.67373e-05 4.48734e-05 -9.57218e-06)
(3.25908e-05 5.1595e-05 -1.0816e-05)
(3.87964e-05 6.00977e-05 -1.24955e-05)
(4.60692e-05 7.08537e-05 -1.46543e-05)
(5.33126e-05 8.56504e-05 -1.73492e-05)
(6.11597e-05 0.0001043 -2.05539e-05)
(6.32705e-05 0.000131065 -2.41682e-05)
(5.82107e-05 0.000153269 -2.7647e-05)
(5.10539e-05 0.000172852 -3.07145e-05)
(4.17247e-05 0.000188024 -3.32758e-05)
(3.15437e-05 0.000199974 -3.51773e-05)
(2.0233e-05 0.000208004 -3.64774e-05)
(8.46668e-06 0.00021219 -3.71536e-05)
(-3.53438e-06 0.000212376 -3.7197e-05)
(-1.52574e-05 0.000208559 -3.66074e-05)
(-2.64802e-05 0.000200899 -3.53932e-05)
(-3.65177e-05 0.000189316 -3.35773e-05)
(-4.56486e-05 0.000174526 -3.11001e-05)
(-5.25199e-05 0.000155338 -2.81181e-05)
(-5.72438e-05 0.000133616 -2.47256e-05)
(-5.4676e-05 0.000107379 -2.12094e-05)
(-4.6383e-05 8.95412e-05 -1.81187e-05)
(-3.87293e-05 7.55165e-05 -1.55763e-05)
(-3.08641e-05 6.56401e-05 -1.3628e-05)
(-2.38048e-05 5.81476e-05 -1.22705e-05)
(-1.66495e-05 5.26869e-05 -1.14822e-05)
(-9.34631e-06 4.89217e-05 -1.10295e-05)
(-1.35944e-06 4.63488e-05 -9.62888e-06)
(1.79269e-06 4.25102e-05 -4.48763e-06)
(-5.76062e-07 3.438e-05 -3.09117e-06)
(3.29117e-06 3.78315e-05 -7.37179e-06)
(1.148e-05 4.03871e-05 -8.48959e-06)
(1.91221e-05 4.41784e-05 -8.77862e-06)
(2.64651e-05 4.95698e-05 -9.34677e-06)
(3.36452e-05 5.6603e-05 -1.03982e-05)
(4.12874e-05 6.53901e-05 -1.19827e-05)
(4.97992e-05 7.63939e-05 -1.41998e-05)
(6.08126e-05 9.03933e-05 -1.71256e-05)
(7.29012e-05 0.000110675 -2.08941e-05)
(8.86392e-05 0.000137979 -2.53225e-05)
(9.31392e-05 0.000183776 -3.06954e-05)
(8.32925e-05 0.000218243 -3.58613e-05)
(7.1759e-05 0.000247346 -4.04608e-05)
(5.78164e-05 0.000269158 -4.43121e-05)
(4.34073e-05 0.000286431 -4.7014e-05)
(2.74804e-05 0.000297996 -4.88533e-05)
(1.10573e-05 0.000304029 -4.97997e-05)
(-5.69926e-06 0.000304279 -4.98497e-05)
(-2.20814e-05 0.000298741 -4.90031e-05)
(-3.79253e-05 0.000287664 -4.72614e-05)
(-5.21898e-05 0.00027086 -4.46555e-05)
(-6.59259e-05 0.000249515 -4.08949e-05)
(-7.71232e-05 0.000220865 -3.63845e-05)
(-8.65656e-05 0.000186956 -3.1303e-05)
(-8.14029e-05 0.000141738 -2.60229e-05)
(-6.50754e-05 0.000115603 -2.17078e-05)
(-5.25634e-05 9.62692e-05 -1.81014e-05)
(-4.08388e-05 8.33154e-05 -1.54059e-05)
(-3.12742e-05 7.34907e-05 -1.35539e-05)
(-2.19932e-05 6.62054e-05 -1.24988e-05)
(-1.27495e-05 6.10974e-05 -1.19247e-05)
(-2.80658e-06 5.76406e-05 -1.03377e-05)
(1.47231e-06 5.27235e-05 -4.59398e-06)
(-1.65458e-07 4.01996e-05 -3.11377e-06)
(4.83082e-06 4.42803e-05 -7.90976e-06)
(1.4861e-05 4.7541e-05 -9.18176e-06)
(2.43315e-05 5.24516e-05 -9.53846e-06)
(3.35017e-05 5.94394e-05 -1.02588e-05)
(4.25556e-05 6.85e-05 -1.16044e-05)
(5.23617e-05 7.96636e-05 -1.36735e-05)
(6.37092e-05 9.31643e-05 -1.66793e-05)
(7.99562e-05 0.000109941 -2.07355e-05)
(9.96513e-05 0.000134782 -2.60003e-05)
(0.00013175 0.000172346 -3.18396e-05)
(0.000141251 0.000253014 -3.98071e-05)
(0.000120539 0.000305627 -4.73549e-05)
(0.000101432 0.000347722 -5.43913e-05)
(8.05793e-05 0.000378477 -6.03863e-05)
(6.02561e-05 0.000403172 -6.41649e-05)
(3.77616e-05 0.000419717 -6.67592e-05)
(1.47264e-05 0.000428352 -6.80826e-05)
(-8.80354e-06 0.000428685 -6.81441e-05)
(-3.1807e-05 0.000420706 -6.69432e-05)
(-5.42392e-05 0.0004048 -6.4467e-05)
(-7.444e-05 0.000380695 -6.08033e-05)
(-9.51113e-05 0.000350488 -5.49106e-05)
(-0.000113847 0.000308856 -4.79703e-05)
(-0.000134111 0.000256791 -4.05049e-05)
(-0.000123564 0.000176596 -3.26159e-05)
(-9.06502e-05 0.000140844 -2.68913e-05)
(-7.06544e-05 0.000117084 -2.17954e-05)
(-5.35821e-05 0.000101459 -1.79914e-05)
(-4.094e-05 8.92483e-05 -1.54011e-05)
(-2.90452e-05 7.97997e-05 -1.39478e-05)
(-1.73173e-05 7.30432e-05 -1.3176e-05)
(-4.84316e-06 6.84998e-05 -1.13171e-05)
(9.55954e-07 6.25313e-05 -4.73215e-06)
(3.73517e-07 4.52475e-05 -3.1401e-06)
(6.82881e-06 4.99198e-05 -8.56511e-06)
(1.92231e-05 5.39498e-05 -1.00412e-05)
(3.10515e-05 6.01456e-05 -1.04927e-05)
(4.25621e-05 6.90355e-05 -1.14133e-05)
(5.39105e-05 8.05709e-05 -1.3147e-05)
(6.59972e-05 9.46112e-05 -1.58694e-05)
(7.99686e-05 0.000110618 -1.99982e-05)
(0.00010127 0.000128833 -2.56039e-05)
(0.000130554 0.000156021 -3.31499e-05)
(0.000196047 0.000200705 -3.7804e-05)
(0.000216916 0.000349955 -4.77819e-05)
(0.000173421 0.000426802 -5.88754e-05)
(0.000143028 0.000483792 -6.9917e-05)
(0.000112789 0.000525275 -7.93593e-05)
(8.44417e-05 0.000558981 -8.42817e-05)
(5.2562e-05 0.000581773 -8.77115e-05)
(1.99942e-05 0.000593694 -8.94529e-05)
(-1.33195e-05 0.00059414 -8.95299e-05)
(-4.58736e-05 0.000583098 -8.7942e-05)
(-7.77357e-05 0.00056115 -8.46585e-05)
(-0.000106028 0.000528202 -7.98787e-05)
(-0.000136191 0.00048736 -7.05565e-05)
(-0.000166266 0.000430773 -5.96246e-05)
(-0.000209407 0.000354362 -4.86322e-05)
(-0.000186717 0.000205094 -3.86753e-05)
(-0.000120019 0.000163608 -3.41275e-05)
(-9.08911e-05 0.000137473 -2.67606e-05)
(-6.8627e-05 0.000120364 -2.14384e-05)
(-5.30487e-05 0.000105625 -1.77851e-05)
(-3.82759e-05 9.34209e-05 -1.57816e-05)
(-2.34385e-05 8.4532e-05 -1.47325e-05)
(-7.63853e-06 7.86167e-05 -1.25016e-05)
(2.21041e-07 7.16113e-05 -4.87206e-06)
(1.04559e-06 4.92874e-05 -3.16091e-06)
(9.31959e-06 5.45313e-05 -9.32311e-06)
(2.46599e-05 5.94473e-05 -1.10502e-05)
(3.94884e-05 6.72297e-05 -1.16203e-05)
(5.40251e-05 7.86606e-05 -1.27833e-05)
(6.82915e-05 9.38392e-05 -1.49789e-05)
(8.27625e-05 0.000112593 -1.84889e-05)
(9.82546e-05 0.000132362 -2.39867e-05)
(0.000122905 0.000151485 -3.19787e-05)
(0.000155662 0.000166576 -4.09192e-05)
(0.000283712 0.000175838 -4.85888e-05)
(0.000331021 0.000461867 -5.06157e-05)
(0.000239053 0.000571645 -6.35485e-05)
(0.000195896 0.000647582 -8.00542e-05)
(0.000155203 0.000705071 -9.37885e-05)
(0.000116724 0.000752124 -9.93978e-05)
(7.25338e-05 0.000784214 -0.000103637)
(2.71225e-05 0.000800843 -0.000105749)
(-1.9429e-05 0.000801437 -0.00010584)
(-6.48553e-05 0.000785983 -0.000103909)
(-0.000109103 0.000755033 -9.98392e-05)
(-0.000147662 0.000709001 -9.43971e-05)
(-0.00018853 0.00065233 -8.07946e-05)
(-0.000231569 0.000576765 -6.4424e-05)
(-0.000323748 0.000467004 -5.16038e-05)
(-0.000273086 0.000178952 -4.97717e-05)
(-0.000143144 0.000175737 -4.20362e-05)
(-0.000111797 0.000161634 -3.32335e-05)
(-8.59038e-05 0.000143454 -2.55738e-05)
(-6.83545e-05 0.000124812 -2.06233e-05)
(-5.03912e-05 0.000107927 -1.79578e-05)
(-3.15537e-05 9.56934e-05 -1.65808e-05)
(-1.13909e-05 8.77867e-05 -1.38833e-05)
(-7.69418e-07 7.95698e-05 -5.00376e-06)
(1.90872e-06 5.19373e-05 -3.15355e-06)
(1.24577e-05 5.76153e-05 -1.01661e-05)
(3.15225e-05 6.33356e-05 -1.21868e-05)
(5.03962e-05 7.26595e-05 -1.28929e-05)
(6.93817e-05 8.67578e-05 -1.43295e-05)
(8.83914e-05 0.000106233 -1.70271e-05)
(0.000106198 0.000131265 -2.12933e-05)
(0.000122643 0.000157734 -2.85302e-05)
(0.000136733 0.00017476 -3.76254e-05)
(0.000113505 0.000128628 -5.35993e-05)
(0.000344726 0.000175826 -6.32581e-05)
(0.000478059 0.000687135 -3.69796e-05)
(0.000314074 0.000771374 -4.90068e-05)
(0.000269043 0.000838132 -6.77679e-05)
(0.000218637 0.000908494 -8.31603e-05)
(0.000165224 0.000965383 -8.67076e-05)
(0.00010244 0.00100641 -9.02237e-05)
(3.76349e-05 0.00102757 -9.19998e-05)
(-2.85577e-05 0.00102834 -9.20849e-05)
(-9.33971e-05 0.00100873 -9.04799e-05)
(-0.000156309 0.000969211 -8.71132e-05)
(-0.000209974 0.00091372 -8.37337e-05)
(-0.000260925 0.000844486 -6.84574e-05)
(-0.000306496 0.000778004 -4.98259e-05)
(-0.000473415 0.000691597 -3.81514e-05)
(-0.000334135 0.000178807 -6.48958e-05)
(-9.90419e-05 0.000143326 -5.44842e-05)
(-0.000125557 0.000188254 -3.88646e-05)
(-0.000109598 0.000170535 -3.02703e-05)
(-9.0457e-05 0.000144534 -2.3681e-05)
(-6.81302e-05 0.000121185 -2.04171e-05)
(-4.31823e-05 0.00010482 -1.87067e-05)
(-1.6826e-05 9.47153e-05 -1.5452e-05)
(-2.28324e-06 8.54292e-05 -5.04619e-06)
(2.8705e-06 5.29228e-05 -3.14401e-06)
(1.60057e-05 5.89029e-05 -1.10895e-05)
(3.93569e-05 6.53627e-05 -1.34516e-05)
(6.31249e-05 7.63059e-05 -1.43325e-05)
(8.80305e-05 9.37484e-05 -1.61053e-05)
(0.000114293 0.000120132 -1.92656e-05)
(0.000139826 0.000159508 -2.4013e-05)
(0.000159581 0.000215239 -2.98892e-05)
(0.000137667 0.000287157 -4.28944e-05)
(0.000141679 0.000328457 -6.07731e-05)
(0.00022951 0.000616088 4.712e-05)
(0.000279004 0.000804611 1.78041e-05)
(0.000327904 0.000934659 9.85771e-06)
(0.000291658 0.00104977 1.21413e-05)
(0.000221975 0.00113178 1.01525e-05)
(0.000139201 0.00118691 8.55964e-06)
(5.05962e-05 0.00121407 7.93554e-06)
(-3.9666e-05 0.00121497 7.93529e-06)
(-0.000128322 0.00118961 8.55685e-06)
(-0.000211277 0.00113634 1.01553e-05)
(-0.000281354 0.00105628 1.21406e-05)
(-0.000318671 0.000943284 9.90177e-06)
(-0.00027233 0.000815247 1.75943e-05)
(-0.000225112 0.000627264 4.62314e-05)
(-0.000138058 0.00033993 -5.98516e-05)
(-0.000131581 0.000299861 -4.38582e-05)
(-0.000148199 0.000227851 -3.17701e-05)
(-0.000123599 0.000172784 -2.66879e-05)
(-9.19194e-05 0.000135194 -2.31454e-05)
(-5.79886e-05 0.000112103 -2.11882e-05)
(-2.35678e-05 9.90257e-05 -1.72709e-05)
(-4.09117e-06 8.85753e-05 -5.11386e-06)
(4.01959e-06 5.1846e-05 -3.10644e-06)
(2.01545e-05 5.77507e-05 -1.20448e-05)
(4.8649e-05 6.42452e-05 -1.47595e-05)
(7.90835e-05 7.53301e-05 -1.58194e-05)
(0.000113902 9.3139e-05 -1.79583e-05)
(0.000156949 0.000120465 -2.17339e-05)
(0.000213143 0.000162298 -2.73165e-05)
(0.000295033 0.000224599 -3.33058e-05)
(0.000401577 0.000314279 -3.78234e-05)
(0.000620408 0.000418428 -2.96323e-05)
(0.000639675 0.00013233 3.25918e-05)
(0.00052186 0.000301223 3.31969e-05)
(0.000591247 0.000611185 0.000104218)
(0.000534779 0.000798735 0.000159278)
(0.000435314 0.000936282 0.000192157)
(0.00031455 0.00102886 0.000204642)
(0.000191645 0.00108721 0.000210166)
(6.79893e-05 0.00111524 0.000212357)
(-5.51037e-05 0.00111607 0.000212421)
(-0.000178715 0.00108972 0.00021036)
(-0.000301555 0.00103315 0.000204986)
(-0.000422162 0.00094253 0.000192681)
(-0.000521482 0.000807282 0.000160159)
(-0.000577575 0.000622397 0.000105454)
(-0.000506261 0.000314957 3.5225e-05)
(-0.000628952 0.000135872 3.41591e-05)
(-0.000614967 0.000423756 -2.92431e-05)
(-0.000392474 0.000323695 -3.87186e-05)
(-0.000282305 0.000235646 -3.50855e-05)
(-0.000195411 0.000174752 -3.02136e-05)
(-0.000132123 0.000134998 -2.61552e-05)
(-7.98342e-05 0.00011108 -2.38811e-05)
(-3.31642e-05 9.77092e-05 -1.92577e-05)
(-6.80386e-06 8.72709e-05 -5.08501e-06)
(4.99716e-06 4.8673e-05 -3.08803e-06)
(2.37721e-05 5.41026e-05 -1.29642e-05)
(5.66856e-05 5.98649e-05 -1.60375e-05)
(9.23206e-05 6.9456e-05 -1.73107e-05)
(0.000133811 8.42573e-05 -1.98671e-05)
(0.000185965 0.000105516 -2.4394e-05)
(0.000254517 0.000134601 -3.10898e-05)
(0.000351907 0.000171033 -3.91985e-05)
(0.000477031 0.000207335 -4.60031e-05)
(0.000670443 0.000225975 -4.54509e-05)
(0.000759157 0.000127651 -2.60324e-05)
(0.000775975 0.000284885 2.83713e-06)
(0.000781654 0.000454467 0.000115076)
(0.000670329 0.000579415 0.00017879)
(0.000535201 0.000678104 0.000213478)
(0.000381514 0.000746469 0.000228661)
(0.000230286 0.00079055 0.000235058)
(8.09805e-05 0.000812053 0.0002374)
(-6.65829e-05 0.000812732 0.000237456)
(-0.000215814 0.000792596 0.000235226)
(-0.000366913 0.000749913 0.000228963)
(-0.000520339 0.000682977 0.000213953)
(-0.000655292 0.000585736 0.000179622)
(-0.000766339 0.000461926 0.000116317)
(-0.000760723 0.000292751 5.15695e-06)
(-0.000747342 0.000131677 -2.46879e-05)
(-0.000661505 0.000233215 -4.5224e-05)
(-0.000466611 0.000216238 -4.68369e-05)
(-0.00033804 0.000181233 -4.10258e-05)
(-0.000235217 0.000146226 -3.42159e-05)
(-0.000158638 0.000119217 -2.92944e-05)
(-9.57702e-05 0.000101218 -2.65107e-05)
(-4.03239e-05 9.05252e-05 -2.11387e-05)
(-8.71619e-06 8.13648e-05 -5.14275e-06)
(5.86882e-06 4.37596e-05 -3.06143e-06)
(2.69637e-05 4.8535e-05 -1.37783e-05)
(6.37269e-05 5.33766e-05 -1.71594e-05)
(0.000103703 6.12591e-05 -1.85945e-05)
(0.000150368 7.30796e-05 -2.14678e-05)
(0.000208689 8.93707e-05 -2.65864e-05)
(0.000284161 0.000110309 -3.42468e-05)
(0.000387257 0.000135051 -4.43343e-05)
(0.0005156 0.000158375 -5.46075e-05)
(0.000685721 0.000176091 -6.12477e-05)
(0.000808169 0.000154687 -4.96218e-05)
(0.000895847 0.000234914 -1.00934e-05)
(0.00089727 0.000334069 0.000104214)
(0.000765835 0.000417946 0.000163958)
(0.000607492 0.000487046 0.00019582)
(0.000430272 0.000535501 0.000207005)
(0.000258944 0.0005675 0.000211011)
(9.07038e-05 0.000583274 0.000212172)
(-7.50498e-05 0.000583845 0.000212205)
(-0.000243204 0.000569211 0.00021111)
(-0.000414388 0.000538349 0.000207189)
(-0.000591335 0.000491011 0.000196127)
(-0.00074959 0.000422984 0.000164576)
(-0.000880912 0.000339931 0.000105203)
(-0.00088094 0.000241324 -8.13751e-06)
(-0.000796308 0.000159888 -4.85039e-05)
(-0.000675248 0.000182703 -6.09019e-05)
(-0.000503921 0.000166193 -5.53779e-05)
(-0.000372072 0.000144108 -4.6198e-05)
(-0.000263201 0.000120764 -3.75648e-05)
(-0.000178896 0.000101798 -3.18788e-05)
(-0.000108604 8.8448e-05 -2.86966e-05)
(-4.62044e-05 8.01866e-05 -2.2715e-05)
(-1.03349e-05 7.23963e-05 -5.14094e-06)
(6.5215e-06 3.73992e-05 -3.05999e-06)
(2.94118e-05 4.13444e-05 -1.44753e-05)
(6.91186e-05 4.51027e-05 -1.81137e-05)
(0.000112178 5.10649e-05 -1.96828e-05)
(0.000162138 5.97464e-05 -2.28117e-05)
(0.000223786 7.1243e-05 -2.83954e-05)
(0.000302328 8.52496e-05 -3.67886e-05)
(0.000406833 0.000101153 -4.81514e-05)
(0.000535856 0.000115997 -6.03055e-05)
(0.000698941 0.000130706 -6.95589e-05)
(0.000840251 0.000135145 -5.90401e-05)
(0.000962953 0.000182458 -2.24171e-05)
(0.000966628 0.000242682 9.01344e-05)
(0.000824821 0.000295402 0.000144588)
(0.000653992 0.000340328 0.000172515)
(0.000462889 0.000373067 0.000180211)
(0.000278574 0.000395196 0.000182205)
(9.74899e-05 0.000406297 0.000182354)
(-8.07963e-05 0.000406793 0.000182368)
(-0.000261809 0.000396672 0.000182244)
(-0.000446016 0.000375492 0.000180294)
(-0.000636905 0.000343639 0.000172676)
(-0.000807789 0.000299517 0.000145022)
(-0.000949681 0.000247396 9.09431e-05)
(-0.000947905 0.00018761 -2.0428e-05)
(-0.000827947 0.000140201 -5.79848e-05)
(-0.000687402 0.000136684 -6.92435e-05)
(-0.000523113 0.000122868 -6.11129e-05)
(-0.000390445 0.000109044 -5.01032e-05)
(-0.000279828 9.43654e-05 -4.02889e-05)
(-0.00019178 8.20661e-05 -3.40094e-05)
(-0.000117158 7.30293e-05 -3.05004e-05)
(-5.01063e-05 6.72079e-05 -2.4028e-05)
(-1.13457e-05 6.10409e-05 -5.21626e-06)
(7.00699e-06 3.00263e-05 -3.06839e-06)
(3.1246e-05 3.30953e-05 -1.50343e-05)
(7.31584e-05 3.58479e-05 -1.88692e-05)
(0.000118442 4.0131e-05 -2.05331e-05)
(0.000170654 4.62684e-05 -2.38428e-05)
(0.000234403 5.42443e-05 -2.97527e-05)
(0.000314745 6.37761e-05 -3.86538e-05)
(0.000419996 7.46025e-05 -5.08324e-05)
(0.000549769 8.53159e-05 -6.41122e-05)
(0.000712033 9.75115e-05 -7.48246e-05)
(0.000864206 0.000108217 -6.49222e-05)
(0.00100392 0.000138061 -3.00611e-05)
(0.0010101 0.000175141 8.1559e-05)
(0.000863694 0.000209183 0.00013332)
(0.00068548 0.000238863 0.000159141)
(0.000485438 0.000261029 0.000164877)
(0.000292351 0.000276231 0.000165682)
(0.000102358 0.000283992 0.000165239)
(-8.47261e-05 0.000284452 0.000165242)
(-0.000274675 0.000277592 0.000165692)
(-0.000467711 0.000263243 0.000164908)
(-0.000667623 0.000241846 0.000159228)
(-0.000846025 0.000212828 0.000133657)
(-0.000992655 0.000179282 8.22583e-05)
(-0.000988589 0.000142596 -2.81648e-05)
(-0.000851479 0.000112897 -6.39401e-05)
(-0.000699765 0.000102786 -7.45553e-05)
(-0.000536219 9.1204e-05 -6.49802e-05)
(-0.000402621 8.12567e-05 -5.28771e-05)
(-0.000290955 7.1391e-05 -4.2311e-05)
(-0.000200572 6.31966e-05 -3.56219e-05)
(-0.000123091 5.7106e-05 -3.18849e-05)
(-5.27949e-05 5.30881e-05 -2.5052e-05)
(-1.20323e-05 4.84031e-05 -5.29523e-06)
(7.32319e-06 2.19568e-05 -3.09355e-06)
(3.24793e-05 2.41053e-05 -1.54562e-05)
(7.58945e-05 2.59022e-05 -1.94303e-05)
(0.000122652 2.86531e-05 -2.1158e-05)
(0.000176307 3.25662e-05 -2.45874e-05)
(0.000241364 3.76231e-05 -3.07076e-05)
(0.00032287 4.36759e-05 -3.99249e-05)
(0.000428874 5.06944e-05 -5.25693e-05)
(0.000559832 5.81809e-05 -6.6449e-05)
(0.000723317 6.73782e-05 -7.78588e-05)
(0.00088152 7.74065e-05 -6.84094e-05)
(0.00102965 9.59731e-05 -3.43712e-05)
(0.00103751 0.00011853 7.7347e-05)
(0.000888565 0.000139577 0.000128192)
(0.000705957 0.000158078 0.00015321)
(0.000500396 0.000172206 0.000158118)
(0.000301628 0.00018202 0.000158419)
(0.000105743 0.000187149 0.000157717)
(-8.72244e-05 0.000187598 0.000157717)
(-0.000283105 0.000183347 0.000158416)
(-0.000481898 0.000174343 0.000158129)
(-0.000687438 0.000160917 0.000153266)
(-0.000870373 0.000142978 0.000128486)
(-0.00101967 0.000122328 7.7992e-05)
(-0.00101406 0.000100044 -3.25455e-05)
(-0.000868471 8.16148e-05 -6.74965e-05)
(-0.000710576 7.19152e-05 -7.76542e-05)
(-0.000545722 6.3081e-05 -6.73913e-05)
(-0.000410786 5.6078e-05 -5.47078e-05)
(-0.000298133 4.96937e-05 -4.37164e-05)
(-0.000206198 4.4536e-05 -3.67763e-05)
(-0.000126881 4.07336e-05 -3.28947e-05)
(-5.44722e-05 3.81954e-05 -2.58157e-05)
(-1.24293e-05 3.49733e-05 -5.39752e-06)
(7.49857e-06 1.3504e-05 -3.12834e-06)
(3.3193e-05 1.47253e-05 -1.57377e-05)
(7.74982e-05 1.56327e-05 -1.97951e-05)
(0.000125131 1.6999e-05 -2.15585e-05)
(0.000179653 1.89604e-05 -2.50553e-05)
(0.000245536 2.15438e-05 -3.12932e-05)
(0.000327863 2.47526e-05 -4.06861e-05)
(0.000434617 2.86715e-05 -5.35788e-05)
(0.000566682 3.32748e-05 -6.77675e-05)
(0.000731537 3.91257e-05 -7.95132e-05)
(0.000892876 4.60826e-05 -7.02676e-05)
(0.00104487 5.6161e-05 -3.64529e-05)
(0.00105358 6.77995e-05 7.56592e-05)
(0.000903252 7.87272e-05 0.000126383)
(0.000718161 8.82995e-05 0.000151215)
(0.000509445 9.57727e-05 0.000155867)
(0.000307334 0.000101041 0.000156002)
(0.000107951 0.00010393 0.000155213)
(-8.85415e-05 0.000104397 0.000155211)
(-0.000287969 0.000102414 0.000155996)
(-0.000490204 9.7964e-05 0.000155871)
(-0.00069904 9.11738e-05 0.000151259)
(-0.000884626 8.20973e-05 0.000126656)
(-0.00103547 7.14691e-05 7.62717e-05)
(-0.00102913 5.99416e-05 -3.46858e-05)
(-0.00087968 4.98611e-05 -6.94218e-05)
(-0.000718577 4.29748e-05 -7.93785e-05)
(-0.000552289 3.7221e-05 -6.87854e-05)
(-0.000416138 3.27933e-05 -5.58034e-05)
(-0.000302578 2.91409e-05 -4.45862e-05)
(-0.000209581 2.63424e-05 -3.75084e-05)
(-0.000129115 2.43558e-05 -3.35474e-05)
(-5.54389e-05 2.30362e-05 -2.63228e-05)
(-1.26446e-05 2.12098e-05 -5.49333e-06)
(7.54022e-06 4.91634e-06 -3.17321e-06)
(3.34135e-05 5.20507e-06 -1.58805e-05)
(7.80268e-05 5.23956e-06 -1.99677e-05)
(0.000125983 5.25843e-06 -2.17421e-05)
(0.000180863 5.33227e-06 -2.52599e-05)
(0.000247163 5.54003e-06 -3.15348e-05)
(0.000330008 6.03044e-06 -4.09828e-05)
(0.000437418 6.97137e-06 -5.39506e-05)
(0.000570328 8.69814e-06 -6.82309e-05)
(0.000736169 1.11279e-05 -8.00737e-05)
(0.000898553 1.45451e-05 -7.08805e-05)
(0.00105131 1.71269e-05 -3.70561e-05)
(0.00106004 1.89689e-05 7.53508e-05)
(0.000909077 2.0625e-05 0.000126233)
(0.000723021 2.18999e-05 0.000151139)
(0.000513164 2.31134e-05 0.000155814)
(0.000309801 2.40943e-05 0.000155953)
(0.000109105 2.48777e-05 0.000155165)
(-8.87464e-05 2.53918e-05 0.000155162)
(-0.000289553 2.56037e-05 0.000155944)
(-0.000493164 2.5505e-05 0.000155811)
(-0.000703325 2.50038e-05 0.000151171)
(-0.000890094 2.41869e-05 0.000126484)
(-0.0010418 2.27337e-05 7.59265e-05)
(-0.00103561 2.08037e-05 -3.53583e-05)
(-0.000885432 1.79943e-05 -7.01133e-05)
(-0.000723258 1.43808e-05 -8.00208e-05)
(-0.000555946 1.17662e-05 -6.93299e-05)
(-0.000418894 9.89085e-06 -5.62567e-05)
(-0.000304609 8.82618e-06 -4.49691e-05)
(-0.000210993 8.23873e-06 -3.78479e-05)
(-0.000129981 7.95502e-06 -3.38626e-05)
(-5.57895e-05 7.7912e-06 -2.65841e-05)
(-1.27038e-05 7.35526e-06 -5.58263e-06)
(7.45089e-06 -3.53885e-06 -3.22536e-06)
(3.31439e-05 -4.1783e-06 -1.58845e-05)
(7.74824e-05 -5.03104e-06 -1.99488e-05)
(0.000125208 -6.39459e-06 -2.17107e-05)
(0.00017993 -8.27563e-06 -2.52047e-05)
(0.000246231 -1.0557e-05 -3.1438e-05)
(0.000329287 -1.29458e-05 -4.08239e-05)
(0.000437267 -1.51533e-05 -5.36997e-05)
(0.000570806 -1.6343e-05 -6.78623e-05)
(0.000737343 -1.71313e-05 -7.95755e-05)
(0.00089886 -1.64214e-05 -7.03039e-05)
(0.00104933 -2.13004e-05 -3.62821e-05)
(0.00105711 -2.98555e-05 7.62897e-05)
(0.000906195 -3.79156e-05 0.000127578)
(0.000720645 -4.53188e-05 0.000152793)
(0.000511634 -5.05539e-05 0.000157753)
(0.000309093 -5.39611e-05 0.000158056)
(0.000109247 -5.5301e-05 0.000157347)
(-8.78147e-05 -5.46998e-05 0.000157341)
(-0.000287852 -5.21945e-05 0.000158035)
(-0.000490799 -4.77631e-05 0.000157728)
(-0.000700356 -4.17121e-05 0.000152793)
(-0.000886911 -3.38421e-05 0.000127779)
(-0.00103889 -2.56576e-05 7.67969e-05)
(-0.00103391 -1.74419e-05 -3.46879e-05)
(-0.000886083 -1.31172e-05 -6.96425e-05)
(-0.000724761 -1.43217e-05 -7.96312e-05)
(-0.000556746 -1.40185e-05 -6.9059e-05)
(-0.000419061 -1.33109e-05 -5.60904e-05)
(-0.000304222 -1.16262e-05 -4.48794e-05)
(-0.000210436 -9.84991e-06 -3.78044e-05)
(-0.000129483 -8.32481e-06 -3.38467e-05)
(-5.55287e-05 -7.27737e-06 -2.6603e-05)
(-1.26099e-05 -6.31856e-06 -5.66254e-06)
(7.21926e-06 -1.1605e-05 -3.29087e-06)
(3.23556e-05 -1.31695e-05 -1.57529e-05)
(7.58092e-05 -1.49718e-05 -1.97395e-05)
(0.000122701 -1.78589e-05 -2.14625e-05)
(0.000176678 -2.1963e-05 -2.48837e-05)
(0.000242473 -2.71887e-05 -3.09894e-05)
(0.000325366 -3.31293e-05 -4.01839e-05)
(0.000433905 -3.92701e-05 -5.27704e-05)
(0.000568112 -4.38136e-05 -6.65528e-05)
(0.000735767 -4.73912e-05 -7.78156e-05)
(0.000894197 -4.65704e-05 -6.82528e-05)
(0.00103795 -5.99881e-05 -3.35761e-05)
(0.00104351 -8.18738e-05 7.93219e-05)
(0.000893611 -0.000102084 0.000131687)
(0.000710344 -0.000120162 0.000157741)
(0.000504475 -0.000132998 0.000163493)
(0.000305024 -0.000141456 0.000164255)
(0.000108356 -0.000145173 0.000163771)
(-8.56321e-05 -0.000144428 0.000163753)
(-0.000282589 -0.000139258 0.000164199)
(-0.000482639 -0.000129517 0.000163408)
(-0.000689369 -0.000115639 0.000157654)
(-0.000874038 -9.70044e-05 0.000131772)
(-0.00102548 -7.67e-05 7.96917e-05)
(-0.00102313 -5.55083e-05 -3.21552e-05)
(-0.000882108 -4.31637e-05 -6.77489e-05)
(-0.000723826 -4.48116e-05 -7.80275e-05)
(-0.000554693 -4.20296e-05 -6.78792e-05)
(-0.000416379 -3.83037e-05 -5.52603e-05)
(-0.000301083 -3.30833e-05 -4.42985e-05)
(-0.000207639 -2.82686e-05 -3.73677e-05)
(-0.000127443 -2.44815e-05 -3.34944e-05)
(-5.45628e-05 -2.19773e-05 -2.63807e-05)
(-1.23331e-05 -1.95562e-05 -5.74409e-06)
(6.82077e-06 -1.89748e-05 -3.37541e-06)
(3.0975e-05 -2.14125e-05 -1.54907e-05)
(7.28468e-05 -2.41967e-05 -1.9345e-05)
(0.000118151 -2.87244e-05 -2.10017e-05)
(0.000170551 -3.5332e-05 -2.42952e-05)
(0.000234999 -4.4066e-05 -3.01681e-05)
(0.00031702 -5.45484e-05 -3.89985e-05)
(0.000426063 -6.59953e-05 -5.09816e-05)
(0.000561529 -7.50632e-05 -6.39134e-05)
(0.000732833 -8.13518e-05 -7.40256e-05)
(0.000884982 -7.32271e-05 -6.4067e-05)
(0.00101377 -9.80052e-05 -2.81442e-05)
(0.00101502 -0.000141015 8.58231e-05)
(0.000867816 -0.000178422 0.000140781)
(0.000689603 -0.000210774 0.000168789)
(0.000490213 -0.000233306 0.000176339)
(0.000296835 -0.000248009 0.000178152)
(0.000106245 -0.000254576 0.00017817)
(-8.18792e-05 -0.000253605 0.000178125)
(-0.000272868 -0.000245121 0.000178013)
(-0.000467062 -0.000228686 0.000176111)
(-0.000667721 -0.000204665 0.000168505)
(-0.000847877 -0.000171506 0.000140615)
(-0.000997373 -0.000133912 8.59252e-05)
(-0.00100004 -9.21552e-05 -2.7019e-05)
(-0.000874035 -6.93972e-05 -6.38133e-05)
(-0.000721845 -7.86755e-05 -7.44971e-05)
(-0.00054907 -7.34815e-05 -6.54451e-05)
(-0.000409577 -6.55798e-05 -5.36142e-05)
(-0.000293958 -5.54577e-05 -4.31783e-05)
(-0.000201702 -4.66124e-05 -3.65239e-05)
(-0.000123304 -3.99907e-05 -3.28035e-05)
(-5.26123e-05 -3.57664e-05 -2.59232e-05)