/*--------------------------------*- C++ -*----------------------------------*\
| =========                 |                                                 |
| \\      /  F ield         | OpenFOAM: The Open Source CFD Toolbox           |
|  \\    /   O peration     | Version:  2112                                  |
|   \\  /    A nd           | Website:  www.openfoam.com                      |
|    \\/     M anipulation  |                                                 |
\*---------------------------------------------------------------------------*/
FoamFile
{
    version     2.0;
    format      ascii;
    arch        "LSB;label=32;scalar=64";
    class       volScalarField;
    location    "5";
    object      epsilon;
}
// * * * * * * * * * * * * * * * * * * * * * * * * * * * * * * * * * * * * * //

dimensions      [0 2 -3 0 0 0 0];

internalField   nonuniform List<scalar> 
64906
(
7.25233e-05
8.82798e-05
9.92312e-05
0.000105285
0.000108427
0.000109981
0.000110703
0.000111004
0.000111101
0.0001111
0.000111059
0.000111006
0.00011096
0.000110929
0.000110908
0.000110891
0.000110879
0.000110871
0.000110869
0.000110873
0.000110884
0.000110898
0.000110917
0.000110942
0.000110969
0.000110973
0.000110895
0.000110622
0.000109928
0.000108397
0.000105271
9.92283e-05
8.82854e-05
7.25296e-05
8.82964e-05
0.000170584
0.000224667
0.000256725
0.000275195
0.000285354
0.000290542
0.000292869
0.000293628
0.000293591
0.000293218
0.000292771
0.00029239
0.000292121
0.000291954
0.000291855
0.000291799
0.000291773
0.000291772
0.000291797
0.000291851
0.00029194
0.000292077
0.000292266
0.000292447
0.000292423
0.000291756
0.00028964
0.000284713
0.000274803
0.000256529
0.000224598
0.00017058
8.83164e-05
9.92716e-05
0.000224707
0.000310302
0.000363232
0.000395028
0.000413184
0.000422687
0.000426879
0.000427971
0.000427411
0.000426156
0.000424816
0.000423723
0.000422983
0.000422542
0.000422288
0.000422147
0.000422084
0.000422086
0.00042215
0.000422286
0.000422516
0.000422888
0.000423443
0.000424088
0.000424418
0.00042355
0.000419938
0.000411184
0.000393757
0.000362548
0.000310014
0.000224648
9.93051e-05
0.000105344
0.000256813
0.000363283
0.000431077
0.000472849
0.000497094
0.000509665
0.000514673
0.000515022
0.000512812
0.0005096
0.000506485
0.000504054
0.000502473
0.000501558
0.000501028
0.000500724
0.000500586
0.000500588
0.000500728
0.000501023
0.000501515
0.000502317
0.000503605
0.000505339
0.000506923
0.000507009
0.000503279
0.000492385
0.000469788
0.000429359
0.000362501
0.000256595
0.000105381
0.000108497
0.000275327
0.000395153
0.000472956
0.000521539
0.000549661
0.000563501
0.000567564
0.000565272
0.000559432
0.000552448
0.000546192
0.00054155
0.000538703
0.000537143
0.000536214
0.000535655
0.000535393
0.000535396
0.000535661
0.000536209
0.000537088
0.000538502
0.000540971
0.000544716
0.000549013
0.000552051
0.000550535
0.000540069
0.000515247
0.000469353
0.000393439
0.000274781
0.000108518
0.000110057
0.000285534
0.000413432
0.000497422
0.000549975
0.000579649
0.000592517
0.000593135
0.000585291
0.000572697
0.000559199
0.000548087
0.000540354
0.000536018
0.000533862
0.000532468
0.000531559
0.000531122
0.000531126
0.000531567
0.000532467
0.00053381
0.00053581
0.000539726
0.000546444
0.000555308
0.000564267
0.000568463
0.000561952
0.000538384
0.000490731
0.000410176
0.00028442
0.000110035
0.000110784
0.000290796
0.000423164
0.000510455
0.000564576
0.000593542
0.000602903
0.000596829
0.000579221
0.000555077
0.000531167
0.000514031
0.000503208
0.000497986
0.000495869
0.000494088
0.000492782
0.00049215
0.000492155
0.000492795
0.000494096
0.000495836
0.000497812
0.000502633
0.000512434
0.000527206
0.000546216
0.000561239
0.000563382
0.000545052
0.000499215
0.000417636
0.000288822
0.000110685
0.000111097
0.000293251
0.000427774
0.000516346
0.000570198
0.000596513
0.000599823
0.000583179
0.000549822
0.000506291
0.000465867
0.000445355
0.000434864
0.000431317
0.00043084
0.000429025
0.000427475
0.00042674
0.000426747
0.000427491
0.000429044
0.000430836
0.000431212
0.000434441
0.000444041
0.000462294
0.000497664
0.000531554
0.000548653
0.00053993
0.000499127
0.000419297
0.000290145
0.000110882
0.000111213
0.000294232
0.000429556
0.0005182
0.000570668
0.000593093
0.000588411
0.000557252
0.000499792
0.000421784
0.000350974
0.000344101
0.000346283
0.000349985
0.000353302
0.00035231
0.000351144
0.000350613
0.000350619
0.000351162
0.000352337
0.000353326
0.000349959
0.000346074
0.000343301
0.000348405
0.000414178
0.000482003
0.000522513
0.000527617
0.000494192
0.000417803
0.000289871
0.000110862
0.000111241
0.000294532
0.00043002
0.000518257
0.000569101
0.000587627
0.000574799
0.000527186
0.000436168
0.000293978
0.000161039
0.000215996
0.000256053
0.00027339
0.000280957
0.000281978
0.000281976
0.000281922
0.000281928
0.000281993
0.000282006
0.000280995
0.000273424
0.000256046
0.000215863
0.000160298
0.000288483
0.000419464
0.000492719
0.000513732
0.000488073
0.000415366
0.000289067
0.000110764
0.000111239
0.000294601
0.000430107
0.000518044
0.0005679
0.000584119
0.000566357
0.000507489
0.000386675
0.000171659
0.000127381
0.00019562
0.000221324
0.00022958
0.000232557
0.000233493
0.000233732
0.000233736
0.000233504
0.000232577
0.00022961
0.000221369
0.000195676
0.000127399
0.000169246
0.000371231
0.000473354
0.000505238
0.000484298
0.000413786
0.000288506
0.000110683
0.000111228
0.000294658
0.000430286
0.000518352
0.000568353
0.000584969
0.00056882
0.000516336
0.000419612
0.000273459
0.000147446
0.000174865
0.000203851
0.000215914
0.000218803
0.000222068
0.000223196
0.000223431
0.000223431
0.000223197
0.000222069
0.0002188
0.000215907
0.000203815
0.000174669
0.000146655
0.000268074
0.000403038
0.000481867
0.000507518
0.000484942
0.000413983
0.000288558
0.000110655
0.000111223
0.000294769
0.000430671
0.000519239
0.000570203
0.00058882
0.000577126
0.000535052
0.000462755
0.00036725
0.000279391
0.000244965
0.000227209
0.000220592
0.000217985
0.000218234
0.000218451
0.000218477
0.000218475
0.000218443
0.000218219
0.000217952
0.000220521
0.000227013
0.000244302
0.000277105
0.000360076
0.000445265
0.000500177
0.000515599
0.000488587
0.000415584
0.000289128
0.000110707
0.00011122
0.000294915
0.000431173
0.000520414
0.000572632
0.0005936
0.000586329
0.000552466
0.000494519
0.000419743
0.000344193
0.000286235
0.000245951
0.000227701
0.000220838
0.000218773
0.00021815
0.000217952
0.000217947
0.000218135
0.000218744
0.000220786
0.000227594
0.000245669
0.000285336
0.00034126
0.000411757
0.000476431
0.000517208
0.00052453
0.000493115
0.000417718
0.000289916
0.000110781
0.000111218
0.000295057
0.000431665
0.000521548
0.000574903
0.000597827
0.000593788
0.000564965
0.000514026
0.000446692
0.000373534
0.000307088
0.000257124
0.000232985
0.000223522
0.000220228
0.000219127
0.000218776
0.000218768
0.000219105
0.00022019
0.000223459
0.00023286
0.000256806
0.000306085
0.000370331
0.000438323
0.000495567
0.000529396
0.000531719
0.000497073
0.000419679
0.000290657
0.000110842
0.000111213
0.000295167
0.000432059
0.000522444
0.000576647
0.000600924
0.000598904
0.000572816
0.000525027
0.000460224
0.000387082
0.000317034
0.000262888
0.000236008
0.000225212
0.000221322
0.000219976
0.000219525
0.000219514
0.000219947
0.000221278
0.000225143
0.000235876
0.000262553
0.000315981
0.000383752
0.000451651
0.000506332
0.000537008
0.000536599
0.000499923
0.000421143
0.000291209
0.000110877
0.000111204
0.000295234
0.000432321
0.000523036
0.000577771
0.000602852
0.000601936
0.000577186
0.000530711
0.000466689
0.000393185
0.000321505
0.000265549
0.000237464
0.000226055
0.000221892
0.000220421
0.000219901
0.000219885
0.000220386
0.000221843
0.000225982
0.000237326
0.000265205
0.000320417
0.000389794
0.000458007
0.000511873
0.000541217
0.00053946
0.000501667
0.00042206
0.000291549
0.000110888
0.000111194
0.00029526
0.000432452
0.000523331
0.000578322
0.000603771
0.000603336
0.000579125
0.000533119
0.000469299
0.000395556
0.000323236
0.000266577
0.000238032
0.000226383
0.000222107
0.000220575
0.000220006
0.000219986
0.000220535
0.000222055
0.000226307
0.000237892
0.000266229
0.000322118
0.000392138
0.000460568
0.000514214
0.000543075
0.00054077
0.000502487
0.000422496
0.000291702
0.000110882
0.000111185
0.000295252
0.00043246
0.000523349
0.000578349
0.000603811
0.000603391
0.000579195
0.000533206
0.000469397
0.000395658
0.000323328
0.000266644
0.00023807
0.000226398
0.000222104
0.000220553
0.000219954
0.000219929
0.000220508
0.000222049
0.00022632
0.000237929
0.000266295
0.000322204
0.000392243
0.000460669
0.000514302
0.000543146
0.000540824
0.000502524
0.000422517
0.000291699
0.000110866
0.000111181
0.000295215
0.000432343
0.000523086
0.00057785
0.000602965
0.000602093
0.000577393
0.00053097
0.000466989
0.000393502
0.000321786
0.000265756
0.000237584
0.000226105
0.000221888
0.00022036
0.000219763
0.000219736
0.000220312
0.00022183
0.000226026
0.000237445
0.000265415
0.000320688
0.000390123
0.000458317
0.000512139
0.000541427
0.000539616
0.000501774
0.000422119
0.000291543
0.000110849
0.000111183
0.000295146
0.000432089
0.000522514
0.000576758
0.000601091
0.000599144
0.000573146
0.000525458
0.000460744
0.00038765
0.000317514
0.000263261
0.000236226
0.000225307
0.000221325
0.000219889
0.00021934
0.000219315
0.000219842
0.000221268
0.00022523
0.000236093
0.000262937
0.000316473
0.00038435
0.000452193
0.000506775
0.000537342
0.000536839
0.000500085
0.000421234
0.00029121
0.000110828
0.000111186
0.000295032
0.000431686
0.000521604
0.000575001
0.00059799
0.000594054
0.000565375
0.000514614
0.00044746
0.000374427
0.000307844
0.000257692
0.000233302
0.000223654
0.000220225
0.000219009
0.000218562
0.000218541
0.000218964
0.000220169
0.000223581
0.000233181
0.000257399
0.000306885
0.000371283
0.000439129
0.000496165
0.000529799
0.000531982
0.000497242
0.000419775
0.00029066
0.000110788
0.000111186
0.000294867
0.000431134
0.000520371
0.000572598
0.00059362
0.000586473
0.000552828
0.000495199
0.000420791
0.000345498
0.000287357
0.000246657
0.000227992
0.000220861
0.000218602
0.000217847
0.000217568
0.000217552
0.000217807
0.000218547
0.000220788
0.00022788
0.000246413
0.00028655
0.000342673
0.000412866
0.000477087
0.000517514
0.00052465
0.000493167
0.000417744
0.000289897
0.000110722
0.000111182
0.000294647
0.000430451
0.000518899
0.000569769
0.000588365
0.000576779
0.000535001
0.000463254
0.00036847
0.000281126
0.000246417
0.000227561
0.000220213
0.0002172
0.000217159
0.000217223
0.000217178
0.000217164
0.000217182
0.000217088
0.000217087
0.00022005
0.000227333
0.000245892
0.000279009
0.000361357
0.000445588
0.000499901
0.000515157
0.000488221
0.000415367
0.000289011
0.000110639
0.000111168
0.000294339
0.000429613
0.000517288
0.000566947
0.000583342
0.000567182
0.000515049
0.000419247
0.000274572
0.000148211
0.000175005
0.000201714
0.000212447
0.000214544
0.000217363
0.00021832
0.000218486
0.000218466
0.000218249
0.000217204
0.000214224
0.000211937
0.000201134
0.000174713
0.000147406
0.000269137
0.000402007
0.000479898
0.000505604
0.000483529
0.000413149
0.00028818
0.000110567
0.000111129
0.00029381
0.000428407
0.000515391
0.000564383
0.00057991
0.000561699
0.000502807
0.000382961
0.00017048
0.000122962
0.000184994
0.000207169
0.000213188
0.000215433
0.000216175
0.000216346
0.000216296
0.000215985
0.000214956
0.000212143
0.000205256
0.000182329
0.000121206
0.000166955
0.000365206
0.000466846
0.000499926
0.000480594
0.000411603
0.000287547
0.000110529
0.00011101
0.000292696
0.000426173
0.000512403
0.000561447
0.000578439
0.000564325
0.000515697
0.000424323
0.000283542
0.000154263
0.000193661
0.000223263
0.000231648
0.000233035
0.000232843
0.000232764
0.000232723
0.000232628
0.00023237
0.000231751
0.00023037
0.00022609
0.000214047
0.000184095
0.000148922
0.000271009
0.000401208
0.000477305
0.000502115
0.000480092
0.000410567
0.000286909
0.000110461
0.000110705
0.00029024
0.000421513
0.000506324
0.000555431
0.000574928
0.00056746
0.000533167
0.000471691
0.000388254
0.000309466
0.000285157
0.000268846
0.000253747
0.00024556
0.000242165
0.000241013
0.000240651
0.000240509
0.000240392
0.000240301
0.00024057
0.000242073
0.000246948
0.000259313
0.000284913
0.000362395
0.000441346
0.000491886
0.00050537
0.000478827
0.000408269
0.000285391
0.000110264
0.000109991
0.000285088
0.00041206
0.00049388
0.000542047
0.000563537
0.000562231
0.000540083
0.000498836
0.000443183
0.000384533
0.000337863
0.000296513
0.000262854
0.000246773
0.00024066
0.000238618
0.000237996
0.000237826
0.000237852
0.00023824
0.000239882
0.000245406
0.000261064
0.000296375
0.000344877
0.000407004
0.000463164
0.000497579
0.000502158
0.000472089
0.000401707
0.000281388
0.00010968
0.00010845
0.000275048
0.000394233
0.000470423
0.000515675
0.000537522
0.000540481
0.00052711
0.000499153
0.000459106
0.000411617
0.000362606
0.000314734
0.000275284
0.000256166
0.000248727
0.000246171
0.00024538
0.00024519
0.000245305
0.000245989
0.00024839
0.000255705
0.000275061
0.00031594
0.000367244
0.000420109
0.000463166
0.000487005
0.000485668
0.000454381
0.000386825
0.000272505
0.000108263
0.000105319
0.000256706
0.000362835
0.000429633
0.000469229
0.000489239
0.000494295
0.000487007
0.00046877
0.000440757
0.000404916
0.00036454
0.00032406
0.000290552
0.000272707
0.00026517
0.000262375
0.000261456
0.000261241
0.000261424
0.000262303
0.000265053
0.000272603
0.000290617
0.000324902
0.000366592
0.000407103
0.000438198
0.000453544
0.000448626
0.00041899
0.000358137
0.000255194
0.000105229
9.92645e-05
0.000224733
0.00031022
0.000362683
0.000393329
0.000409109
0.000414213
0.000410943
0.000400324
0.000382903
0.000359515
0.000332109
0.000304259
0.000281177
0.000267818
0.00026165
0.000259237
0.000258423
0.000258235
0.000258409
0.000259208
0.000261606
0.000267793
0.000281278
0.000304664
0.000332767
0.00035939
0.000378991
0.000387401
0.000381274
0.00035676
0.000307787
0.000224038
9.92486e-05
8.83109e-05
0.000170664
0.000224787
0.000256755
0.00027485
0.000284097
0.000287443
0.000286453
0.000281809
0.000273673
0.000262244
0.000248396
0.000234063
0.000222002
0.00021462
0.000211001
0.000209507
0.000208976
0.000208852
0.00020898
0.000209512
0.000211008
0.00021464
0.000222076
0.000234231
0.000248569
0.000261838
0.000271168
0.000274461
0.000269795
0.000254478
0.000223978
0.000170496
8.83352e-05
7.2544e-05
8.8349e-05
9.93629e-05
0.000105469
0.000108637
0.000110166
0.000110765
0.000110767
0.000110281
0.000109292
0.000107842
0.000105978
0.00010392
0.000102093
0.000100925
0.000100321
0.000100042
9.99129e-05
9.98695e-05
9.99181e-05
0.000100048
0.000100325
0.000100926
0.000102094
0.000103925
0.000105978
0.00010777
0.00010898
0.000109272
0.000108286
0.000105396
9.93979e-05
8.83976e-05
7.25724e-05
9.78625e-05
0.00015001
0.000187324
0.000209622
0.000222282
0.000229118
0.000232548
0.000234064
0.000234551
0.000234524
0.000234278
0.000233979
0.000233719
0.000233527
0.000233399
0.000233318
0.000233268
0.000233243
0.000233241
0.000233263
0.000233309
0.000233383
0.000233491
0.000233632
0.000233766
0.000233765
0.000233342
0.000231961
0.000228693
0.000222012
0.000209473
0.000187256
0.000149989
9.78679e-05
0.000150016
0.000191017
0.000232585
0.000259789
0.00027606
0.000285159
0.000289845
0.000291952
0.000292631
0.000292579
0.000292213
0.000291776
0.000291399
0.000291127
0.000290952
0.000290845
0.000290783
0.000290755
0.000290755
0.000290783
0.000290841
0.000290938
0.000291084
0.00029128
0.000291468
0.000291465
0.00029087
0.000288957
0.000284514
0.00027565
0.000259572
0.000232503
0.000191016
0.000149997
0.000187354
0.000232601
0.000283512
0.000318454
0.000340212
0.000352786
0.000359384
0.000362289
0.000363036
0.000362635
0.000361749
0.000360799
0.000360011
0.00035946
0.000359115
0.000358909
0.000358791
0.000358737
0.000358737
0.00035879
0.000358902
0.000359091
0.000359385
0.000359804
0.000360274
0.000360516
0.000359915
0.000357404
0.00035132
0.000339257
0.000317923
0.000283282
0.000232549
0.000187294
0.000209684
0.000259829
0.000318482
0.000359795
0.000386127
0.000401571
0.000409596
0.000412794
0.000413031
0.000411657
0.000409659
0.000407714
0.000406182
0.000405153
0.00040453
0.000404163
0.000403953
0.000403855
0.000403856
0.000403952
0.000404154
0.000404493
0.00040504
0.000405878
0.00040696
0.000407921
0.000407915
0.000405483
0.000398492
0.000384081
0.00035861
0.000317913
0.000259628
0.000209529
0.00022238
0.00027613
0.000340286
0.000386191
0.000415779
0.000433076
0.000441621
0.000444174
0.000442872
0.000439458
0.000435392
0.000431747
0.000429039
0.000427311
0.000426312
0.000425734
0.000425395
0.000425234
0.000425234
0.000425394
0.000425723
0.000426267
0.00042717
0.000428656
0.0004308
0.000433224
0.000434845
0.000433709
0.000427124
0.000411787
0.000383822
0.000339078
0.000275624
0.000222025
0.000229257
0.000285274
0.000352945
0.000401775
0.000433268
0.000451234
0.000459104
0.000459653
0.000455238
0.000448134
0.0004406
0.000434382
0.000430105
0.000427563
0.000426176
0.000425396
0.000424915
0.000424676
0.000424677
0.000424914
0.000425385
0.000426129
0.000427412
0.000429681
0.000433314
0.000438134
0.000442882
0.000444866
0.000440552
0.0004261
0.000397477
0.00035068
0.000284246
0.000228557
0.000232742
0.000290036
0.000359704
0.000410091
0.000442269
0.000459703
0.000465523
0.000462314
0.000452566
0.00043935
0.000426467
0.000416875
0.000411135
0.000408074
0.000406505
0.000405717
0.000405163
0.00040486
0.000404861
0.000405165
0.000405711
0.000406468
0.000407936
0.000410719
0.00041578
0.000423859
0.00043371
0.000441391
0.000441815
0.000430372
0.000402957
0.000355885
0.000288225
0.00023152
0.00023434
0.000292275
0.000362899
0.000413841
0.000445743
0.000461603
0.000464013
0.00045504
0.000437042
0.00041425
0.000393837
0.000380378
0.000374921
0.000372668
0.00037143
0.000371309
0.00037097
0.000370689
0.00037069
0.000370974
0.000371311
0.00037141
0.000372567
0.000374572
0.000379366
0.00039124
0.000408438
0.000425386
0.000433652
0.000427495
0.000402995
0.00035707
0.000289446
0.000232432
0.000234963
0.000293171
0.000364124
0.000415008
0.000446053
0.000459697
0.000457752
0.00044128
0.000411837
0.0003752
0.00034817
0.000326919
0.000327284
0.000329106
0.000328603
0.00033098
0.000331618
0.000331589
0.000331592
0.000331626
0.000330991
0.000328605
0.000329062
0.000327061
0.000326117
0.00034564
0.000369296
0.000399866
0.000419317
0.000420386
0.00039998
0.000356069
0.000289217
0.000232285
0.000235136
0.000293441
0.000364427
0.000415021
0.000445109
0.000456598
0.000450451
0.000426434
0.000384884
0.000336584
0.000383413
0.000263439
0.000277953
0.000288586
0.000287884
0.000295824
0.000298338
0.000298773
0.000298777
0.000298349
0.000295843
0.000287902
0.000288599
0.000277896
0.000262961
0.000379443
0.000330139
0.000372506
0.000404034
0.000412547
0.000396236
0.000354407
0.000288494
0.000231771
0.000235152
0.000293493
0.000364456
0.000414844
0.000444352
0.000454593
0.000446098
0.000418334
0.000375832
0.000425551
0.000252281
0.000227276
0.000243007
0.00025204
0.000252594
0.000252484
0.000252461
0.000252463
0.000252491
0.000252606
0.00025206
0.000243036
0.000227302
0.00025219
0.00041327
0.00036272
0.000395618
0.000407899
0.000393896
0.000353287
0.000287962
0.000231381
0.000235152
0.00029353
0.000364539
0.000414973
0.000444523
0.000454861
0.000446689
0.000419474
0.000373009
0.000315721
0.000325125
0.000227588
0.000256417
0.000277275
0.00029993
0.000284485
0.000279205
0.000278177
0.000278174
0.000279196
0.000284468
0.000299922
0.000277251
0.00025633
0.000227118
0.000321317
0.000309294
0.000360576
0.000396882
0.000408457
0.000394054
0.000353312
0.000287951
0.000231349
0.000235182
0.000293618
0.000364765
0.000415472
0.000445549
0.000456933
0.00045086
0.000427739
0.000388305
0.000337016
0.000289643
0.000253834
0.000244492
0.000241538
0.0002438
0.000239893
0.000238284
0.0002379
0.000237899
0.000238281
0.000239886
0.000243787
0.000241482
0.000244285
0.00025309
0.000287219
0.000331136
0.000376139
0.00040529
0.000412686
0.000396122
0.000354298
0.000288412
0.000231636
0.000235235
0.000293743
0.000365079
0.000416164
0.00044696
0.000459669
0.000455983
0.000436996
0.000404103
0.000360848
0.000315219
0.000276609
0.000251106
0.00023569
0.000229871
0.000227293
0.000226399
0.000226151
0.000226149
0.000226393
0.00022728
0.000229839
0.000235597
0.000250819
0.000275727
0.000312735
0.000354949
0.000391969
0.000414589
0.000417833
0.000398853
0.000355683
0.000289087
0.00023206
0.000235289
0.000293871
0.000365394
0.000416847
0.000448309
0.000462167
0.000460364
0.000444269
0.000415341
0.000376319
0.000332456
0.000291083
0.000259256
0.000238302
0.000229329
0.000226118
0.000225097
0.000224814
0.000224812
0.000225089
0.0002261
0.000229287
0.000238191
0.000258932
0.000290127
0.000329876
0.000370335
0.000403153
0.000421831
0.000422186
0.000401315
0.000356989
0.000289737
0.000232462
0.00023533
0.000293975
0.00036565
0.00041739
0.000449353
0.000464024
0.000463451
0.000449051
0.000422157
0.000384979
0.000341695
0.000298839
0.000264276
0.000240845
0.000230489
0.000226775
0.000225597
0.000225271
0.000225268
0.000225588
0.000226755
0.000230444
0.000240727
0.000263934
0.000297843
0.000339051
0.00037892
0.000409899
0.00042655
0.000425214
0.000403113
0.000357974
0.000290233
0.000232758
0.000235351
0.000294043
0.00036582
0.000417749
0.000450027
0.000465185
0.000465301
0.000451771
0.000425805
0.000389334
0.000346131
0.000302511
0.000266732
0.00024222
0.000231256
0.00022729
0.000226025
0.000225672
0.000225668
0.000226015
0.000227269
0.000231209
0.000242098
0.000266382
0.000301493
0.000343449
0.000383223
0.00041349
0.000429213
0.000427006
0.000404218
0.000358593
0.000290545
0.000232934
0.000235354
0.000294076
0.000365904
0.000417925
0.000450353
0.000465735
0.000466153
0.000452982
0.000427365
0.00039112
0.000347889
0.000303943
0.000267694
0.000242773
0.000231576
0.000227509
0.000226206
0.000225839
0.000225834
0.000226195
0.000227487
0.000231527
0.000242649
0.00026734
0.000302913
0.000345189
0.000384984
0.000415019
0.000430389
0.000427823
0.000404733
0.000358886
0.000290691
0.000233007
0.000235344
0.000294074
0.000365907
0.00041793
0.000450362
0.00046575
0.000466175
0.000453013
0.000427405
0.000391169
0.000347943
0.000303996
0.000267739
0.000242802
0.00023159
0.000227514
0.000226207
0.000225835
0.000225829
0.000226195
0.000227492
0.000231542
0.000242678
0.000267386
0.000302966
0.000345244
0.000385033
0.000415058
0.000430418
0.000427843
0.000404745
0.000358893
0.000290693
0.000232994
0.000235324
0.00029404
0.000365826
0.000417763
0.000450053
0.000465227
0.000465364
0.000451861
0.000425925
0.000389483
0.0003463
0.000302677
0.000266874
0.000242314
0.000231304
0.000227311
0.000226031
0.000225666
0.00022566
0.000226019
0.000227289
0.000231256
0.000242192
0.000266527
0.000301661
0.000343621
0.000383373
0.000413607
0.000429297
0.000427063
0.000404253
0.000358613
0.00029055
0.000232902
0.000235292
0.000293969
0.000365654
0.000417406
0.000449385
0.000464081
0.000463544
0.000449193
0.000422357
0.000385239
0.000341999
0.000299139
0.000264532
0.000241013
0.000230576
0.000226818
0.000225616
0.000225274
0.000225269
0.000225605
0.000226797
0.000230532
0.000240899
0.000264201
0.000298155
0.000339365
0.000379182
0.000410091
0.000426679
0.000425294
0.000403161
0.000358
0.000290239
0.000232714
0.000235241
0.000293857
0.000365385
0.000416843
0.000448319
0.000462205
0.000460453
0.000444435
0.000415608
0.000376701
0.000332928
0.000291552
0.000259634
0.00023852
0.000229418
0.000226144
0.000225093
0.000224794
0.00022479
0.000225083
0.000226126
0.000229378
0.000238418
0.000259332
0.000290624
0.000330369
0.000370715
0.000403396
0.000421964
0.00042225
0.000401343
0.000357001
0.000289736
0.000232405
0.000235164
0.000293701
0.000365019
0.000416085
0.000446874
0.000459601
0.000455972
0.000437094
0.000404374
0.000361335
0.000315881
0.000277248
0.000251484
0.000235747
0.000229691
0.000227038
0.000226111
0.000225847
0.000225843
0.000226099
0.000227015
0.000229644
0.000235646
0.000251215
0.00027641
0.000313423
0.000355407
0.00039216
0.000414602
0.000417768
0.000398777
0.000355627
0.000289049
0.000231974
0.000235058
0.000293499
0.000364569
0.00041519
0.0004452
0.000456554
0.000450513
0.000427519
0.000388348
0.000337458
0.000290454
0.000254441
0.000244278
0.000240624
0.000242396
0.000238427
0.00023678
0.000236374
0.000236367
0.000236754
0.000238369
0.000242289
0.000240446
0.000243976
0.000253706
0.000288034
0.000331421
0.000375924
0.000404838
0.000412212
0.000395741
0.000354045
0.000288268
0.000231475
0.000234897
0.000293217
0.000364014
0.000414214
0.000443553
0.000453732
0.000445481
0.000418316
0.000372114
0.000315378
0.00032657
0.00022672
0.000253894
0.000273574
0.00029548
0.000279808
0.000274416
0.000273367
0.00027336
0.00027438
0.00027969
0.000295245
0.000273071
0.000253164
0.000225718
0.000322644
0.000308278
0.000358881
0.000395121
0.000406961
0.000392948
0.000352594
0.000287546
0.000231012
0.00023459
0.00029273
0.000363199
0.000413053
0.000442059
0.000451856
0.000442975
0.000414866
0.000371931
0.000418356
0.000236393
0.000214492
0.00022755
0.000234574
0.000234402
0.00023413
0.000234077
0.000234036
0.000233961
0.000233946
0.000233521
0.000225479
0.000211154
0.000230395
0.00040144
0.000356518
0.000390738
0.000404192
0.000391271
0.000351592
0.000286992
0.00023066
0.000233894
0.000291704
0.000361654
0.000411161
0.000440226
0.000450766
0.000443658
0.000418495
0.000375222
0.000323067
0.000350032
0.000236492
0.000244421
0.000248172
0.000243242
0.000248866
0.00025094
0.000251351
0.000251268
0.000250583
0.000247835
0.000240645
0.000242681
0.000235224
0.000224459
0.000327963
0.000308572
0.000357942
0.000393366
0.000404788
0.000390792
0.000350833
0.000286385
0.000230265
0.000232305
0.000289456
0.00035841
0.000407272
0.000436457
0.000448369
0.000444594
0.000425754
0.000392661
0.000349728
0.000311668
0.000278764
0.000264799
0.000253493
0.000244806
0.000243412
0.000243183
0.000243066
0.000242936
0.000242607
0.000241669
0.000240204
0.00024333
0.000248281
0.0002588
0.000291139
0.000331063
0.000372678
0.000399633
0.000406084
0.000389769
0.000349148
0.000284952
0.000229252
0.000228898
0.000284787
0.00035183
0.000399305
0.000428137
0.000441234
0.000440796
0.000428182
0.000404676
0.000373063
0.00033916
0.000308185
0.000282918
0.000263753
0.00025014
0.000244625
0.000242776
0.000242205
0.000242037
0.000242018
0.000242251
0.000243627
0.000249161
0.000262387
0.00028307
0.000314598
0.000350969
0.000382842
0.000401908
0.00040364
0.000385264
0.000344483
0.000281282
0.000226542
0.000222131
0.00027579
0.000339478
0.000384341
0.000411853
0.000425322
0.000427327
0.000419531
0.000403145
0.000379736
0.000351883
0.000322707
0.000295163
0.000273447
0.000257809
0.000250848
0.000248333
0.000247531
0.000247335
0.000247458
0.00024815
0.000250526
0.00025747
0.000273373
0.000296302
0.000326288
0.00035698
0.000381558
0.000394761
0.000393098
0.000373775
0.000334071
0.000273292
0.000220478
0.000209541
0.000259643
0.000318006
0.000358629
0.000383526
0.000396259
0.00039956
0.000395143
0.000384011
0.00036699
0.000345259
0.000320688
0.000296076
0.000275527
0.000261791
0.000255242
0.000252672
0.000251796
0.000251588
0.000251774
0.000252619
0.000255158
0.00026174
0.000275696
0.000296866
0.000322301
0.000346681
0.000365072
0.000373794
0.000370082
0.000351264
0.000314364
0.000258042
0.000208522
0.000187299
0.000232543
0.000283317
0.000317878
0.000338776
0.000349644
0.000353163
0.000350942
0.00034378
0.000332107
0.000316478
0.000298098
0.000279251
0.000263269
0.00025279
0.000247528
0.000245335
0.000244548
0.00024436
0.000244547
0.000245332
0.000247527
0.000252823
0.000263428
0.000279664
0.000298679
0.000316387
0.000329214
0.000334494
0.000330005
0.000313256
0.000281141
0.000231655
0.000186788
0.000150017
0.000191039
0.000232574
0.000259618
0.000275459
0.000283631
0.000286545
0.000285568
0.000281306
0.000273957
0.000263755
0.000251441
0.000238639
0.000227721
0.000220635
0.000217003
0.000215441
0.000214865
0.000214727
0.000214873
0.000215457
0.000217029
0.000220686
0.000227835
0.000238849
0.000251634
0.000263359
0.000271594
0.000274506
0.000270406
0.000257098
0.000231468
0.000190637
0.000149855
9.78832e-05
0.000150015
0.000187326
0.000209557
0.000221977
0.000228235
0.000230494
0.000229886
0.00022686
0.000221514
0.000213974
0.000204778
0.000195191
0.000187094
0.000182082
0.000179591
0.000178526
0.000178126
0.000178028
0.000178135
0.000178541
0.000179613
0.000182118
0.000187166
0.000195319
0.000204891
0.000213689
0.000219847
0.000221954
0.000218658
0.000208009
0.000186718
0.000149842
9.78968e-05
0.000115059
0.000198526
0.000259862
0.000297788
0.000320169
0.000332726
0.000339252
0.000342212
0.00034316
0.000343055
0.000342482
0.000341796
0.000341194
0.000340753
0.000340462
0.000340281
0.000340174
0.000340124
0.000340123
0.00034017
0.00034027
0.000340433
0.000340677
0.000341
0.000341317
0.000341356
0.000340546
0.00033788
0.000331714
0.000319502
0.0002974
0.000259668
0.000198454
0.000115062
0.000198529
0.000229541
0.000273857
0.000304838
0.000324168
0.000335343
0.000341263
0.000343993
0.000344895
0.00034483
0.000344335
0.000343736
0.00034321
0.000342823
0.000342569
0.000342414
0.000342325
0.000342284
0.000342283
0.000342323
0.000342406
0.000342545
0.000342753
0.000343026
0.00034328
0.000343267
0.000342474
0.000339999
0.000334405
0.000323556
0.000304497
0.000273713
0.00022951
0.000198454
0.000259897
0.000273868
0.000318784
0.000352678
0.000374857
0.000388111
0.000395252
0.000398473
0.000399336
0.000398913
0.000397929
0.00039685
0.000395936
0.000395278
0.000394853
0.000394596
0.00039445
0.000394384
0.000394383
0.000394447
0.000394584
0.000394815
0.000395171
0.000395662
0.000396188
0.000396428
0.000395715
0.000392919
0.000386348
0.000373675
0.000351992
0.000318462
0.000273755
0.00025969
0.000297869
0.000304873
0.000352705
0.000390133
0.000415242
0.000430459
0.000438566
0.000441888
0.000442206
0.000440858
0.00043884
0.000436838
0.000435221
0.000434092
0.000433381
0.000432964
0.000432729
0.00043262
0.000432619
0.000432724
0.000432946
0.000433327
0.000433944
0.000434845
0.000435946
0.000436862
0.000436742
0.000434156
0.000427081
0.000412929
0.000388734
0.000351979
0.000304538
0.000297406
0.000320307
0.000324242
0.000374936
0.00041531
0.000442667
0.000459168