/*--------------------------------*- C++ -*----------------------------------*\
| =========                 |                                                 |
| \\      /  F ield         | OpenFOAM: The Open Source CFD Toolbox           |
|  \\    /   O peration     | Version:  2112                                  |
|   \\  /    A nd           | Website:  www.openfoam.com                      |
|    \\/     M anipulation  |                                                 |
\*---------------------------------------------------------------------------*/
FoamFile
{
    version     2.0;
    format      ascii;
    arch        "LSB;label=32;scalar=64";
    class       volScalarField;
    location    "5";
    object      k;
}
// * * * * * * * * * * * * * * * * * * * * * * * * * * * * * * * * * * * * * //

dimensions      [0 2 -2 0 0 0 0];

internalField   nonuniform List<scalar> 
64906
(
0.00016084
0.000183493
0.000198472
0.000206538
0.000210678
0.000212719
0.000213667
0.000214064
0.000214192
0.000214191
0.000214136
0.000214065
0.000214005
0.000213962
0.000213934
0.000213912
0.000213896
0.000213885
0.000213882
0.000213888
0.000213902
0.000213921
0.000213946
0.00021398
0.000214016
0.000214022
0.000213919
0.000213559
0.000212647
0.000210637
0.000206518
0.000198468
0.0001835
0.00016085
0.000183516
0.000284904
0.000342505
0.000374515
0.000392398
0.000402096
0.000407021
0.000409227
0.000409946
0.00040991
0.000409551
0.000409122
0.000408754
0.000408494
0.000408333
0.000408236
0.000408182
0.000408156
0.000408156
0.00040818
0.000408232
0.000408318
0.000408451
0.000408634
0.000408808
0.000408786
0.000408154
0.000406147
0.00040147
0.000392009
0.000374313
0.000342429
0.000284898
0.000183544
0.000198527
0.000342546
0.000424995
0.000472233
0.000499568
0.000514889
0.00052284
0.000526338
0.000527247
0.000526775
0.000525719
0.000524588
0.000523662
0.000523033
0.000522656
0.000522439
0.000522319
0.000522265
0.000522266
0.000522321
0.000522437
0.000522634
0.00052295
0.000523421
0.000523967
0.000524246
0.000523522
0.000520505
0.000513172
0.000498456
0.000471615
0.000424717
0.00034248
0.000198572
0.000206617
0.000374601
0.000472278
0.000529545
0.000563401
0.000582637
0.000592511
0.00059643
0.0005967
0.000594963
0.000592429
0.000589964
0.000588031
0.000586768
0.000586035
0.000585609
0.000585365
0.000585254
0.000585256
0.000585368
0.000585604
0.000585999
0.000586641
0.000587667
0.000589044
0.000590296
0.000590366
0.000587436
0.000578857
0.000560895
0.000528089
0.000471571
0.000374376
0.000206663
0.00021077
0.000392526
0.000499675
0.000563488
0.000601623
0.000623198
0.000633701
0.000636774
0.00063504
0.000630602
0.000625268
0.00062046
0.000616872
0.00061466
0.000613441
0.000612715
0.000612279
0.000612075
0.000612077
0.000612283
0.00061271
0.000613397
0.0006145
0.000616415
0.000619305
0.000622603
0.000624923
0.000623767
0.000615778
0.000596659
0.00056054
0.000498179
0.000391983
0.000210795
0.000212818
0.000402269
0.0005151
0.000582902
0.000623443
0.000645801
0.000655395
0.000655861
0.000650019
0.000640571
0.000630352
0.000621857
0.000615896
0.00061253
0.000610845
0.000609756
0.000609048
0.000608709
0.000608712
0.000609055
0.000609755
0.000610803
0.000612363
0.0006154
0.000620574
0.000627346
0.000634134
0.000637289
0.000632376
0.000614482
0.000577538
0.000512313
0.000401182
0.000212786
0.000213774
0.000407265
0.000523246
0.000593142
0.00063453
0.000656169
0.000663103
0.000658627
0.000645532
0.000627339
0.000609034
0.000595699
0.00058717
0.000583013
0.000581312
0.000579888
0.000578849
0.000578346
0.00057835
0.000578859
0.000579894
0.000581284
0.00058287
0.000586705
0.000594424
0.00060592
0.000620499
0.000631871
0.000633468
0.000619584
0.000584229
0.000518564
0.00040536
0.000213638
0.000214187
0.000409595
0.000527097
0.000597759
0.000638792
0.0006584
0.000660867
0.000648546
0.00062347
0.000589952
0.000557912
0.00054119
0.000532473
0.00052947
0.000529033
0.000527509
0.000526216
0.000525605
0.00052561
0.00052623
0.000527524
0.000529028
0.000529378
0.000532112
0.000540088
0.000554976
0.00058308
0.000609339
0.000622349
0.000615688
0.000584169
0.000519956
0.000406616
0.000213897
0.000214341
0.000410529
0.000528589
0.000599218
0.000639164
0.000655889
0.000652447
0.000629149
0.000584999
0.000522246
0.00046179
0.000455461
0.000457162
0.000460313
0.000463192
0.000462283
0.000461238
0.000460764
0.00046077
0.000461254
0.000462306
0.000463211
0.000460287
0.000456969
0.000454728
0.000459468
0.000515802
0.000570781
0.000602362
0.000606251
0.000580288
0.000518711
0.000406357
0.000213872
0.000214379
0.000410816
0.000528981
0.00059927
0.000637993
0.000651839
0.000642315
0.000606264
0.000534175
0.000410467
0.000274601
0.000333658
0.00037353
0.000390143
0.000397315
0.000398237
0.000398216
0.00039816
0.000398165
0.000398232
0.000398263
0.000397351
0.000390174
0.000373521
0.000333512
0.00027373
0.000405211
0.000520193
0.000579169
0.000595512
0.000575451
0.000516669
0.000405593
0.000213743
0.000214376
0.000410883
0.000529055
0.000599106
0.000637086
0.000649219
0.00063597
0.000591007
0.000492881
0.000286655
0.000234492
0.000311919
0.00033864
0.000347005
0.000349999
0.000350939
0.000351179
0.000351183
0.000350951
0.00035002
0.000347037
0.000338686
0.000311978
0.000234513
0.000283891
0.000479418
0.000563817
0.000588875
0.000572443
0.000515336
0.000405057
0.000213636
0.000214362
0.000410937
0.000529203
0.000599341
0.000637417
0.000649829
0.000637772
0.000597786
0.00052038
0.000390884
0.000258707
0.000289353
0.000320318
0.000332783
0.000335711
0.000339069
0.000340229
0.00034047
0.00034047
0.000340229
0.000339071
0.000335708
0.000332775
0.000320279
0.000289129
0.000257753
0.00038561
0.000506323
0.00057049
0.000590604
0.000572927
0.000515488
0.000405101
0.000213599
0.000214355
0.000411042
0.000529521
0.000600027
0.000638797
0.000652664
0.000643935
0.000612086
0.000555369
0.000475701
0.000396018
0.000362317
0.000344264
0.0003374
0.000334675
0.000334931
0.000335158
0.000335187
0.000335185
0.00033515
0.000334915
0.00033464
0.000337327
0.00034406
0.000361642
0.000393793
0.000469336
0.000541016
0.000584802
0.000596833
0.000575786
0.000516816
0.000405637
0.000213666
0.000214352
0.000411181
0.000529938
0.000600938
0.000640614
0.00065619
0.000650749
0.000625264
0.000580452
0.000519973
0.000455096
0.000401997
0.000362959
0.000344575
0.00033753
0.000335397
0.000334755
0.000334551
0.000334546
0.000334739
0.000335368
0.000337476
0.000344464
0.000362674
0.000401128
0.000452432
0.000513198
0.000565938
0.000597983
0.0006037
0.000579343
0.000518592
0.000406382
0.000213763
0.000214349
0.000411316
0.000530348
0.00060182
0.000642316
0.000659308
0.000656257
0.000634651
0.000595604
0.00054199
0.000480618
0.000421328
0.000373898
0.000349889
0.000340247
0.000336858
0.000335721
0.000335358
0.00033535
0.000335698
0.000336819
0.000340182
0.000349761
0.000373581
0.00042038
0.000477788
0.000535035
0.000580986
0.000607341
0.000609212
0.000582451
0.000520227
0.000407083
0.000213843
0.000214343
0.000411421
0.000530676
0.000602517
0.000643625
0.000661595
0.00066003
0.000640523
0.000604077
0.000552891
0.00049219
0.000430406
0.00037949
0.000352921
0.000341962
0.000337968
0.000336579
0.000336114
0.000336102
0.000336549
0.000337923
0.000341891
0.000352786
0.000379158
0.000429421
0.000489283
0.000545839
0.000589378
0.00061316
0.000612948
0.000584691
0.00052145
0.000407608
0.00021389
0.000214332
0.000411485
0.000530895
0.000602979
0.00064447
0.000663019
0.000662267
0.000643787
0.00060844
0.000558071
0.000497369
0.000434462
0.000382063
0.00035438
0.00034282
0.000338549
0.000337032
0.000336495
0.000336479
0.000336996
0.000338499
0.000342744
0.00035424
0.000381723
0.000433451
0.000494423
0.000550962
0.000593683
0.000616373
0.000615138
0.000586062
0.000522216
0.000407931
0.000213906
0.000214319
0.00041151
0.000531005
0.00060321
0.000644884
0.000663699
0.0006633
0.000645236
0.000610287
0.000560159
0.000499377
0.000436029
0.000383058
0.000354951
0.000343154
0.000338769
0.00033719
0.000336601
0.00033658
0.000337148
0.000338715
0.000343075
0.000354808
0.000382713
0.000434993
0.000496414
0.000553024
0.0005955
0.000617791
0.000616141
0.000586708
0.000522582
0.000408077
0.000213898
0.000214307
0.000411503
0.000531011
0.000603223
0.000644905
0.000663728
0.00066334
0.000645288
0.000610354
0.000560238
0.000499464
0.000436113
0.000383122
0.000354989
0.000343169
0.000338766
0.000337166
0.000336547
0.000336521
0.00033712
0.000338708
0.000343089
0.000354845
0.000382778
0.000435072
0.000496504
0.000553106
0.000595569
0.000617846
0.000616182
0.000586737
0.000522599
0.000408073
0.000213877
0.000214302
0.000411467
0.000530913
0.000603017
0.000644529
0.000663103
0.000662382
0.000643943
0.00060864
0.000558313
0.00049764
0.000434717
0.000382266
0.000354502
0.00034287
0.000338544
0.000336969
0.000336352
0.000336323
0.000336919
0.000338485
0.000342789
0.00035436
0.000381928
0.000433698
0.000494705
0.000551214
0.000593891
0.000616534
0.000615257
0.000586146
0.000522266
0.000407925
0.000213855
0.000214305
0.0004114
0.000530701
0.00060257
0.000643707
0.000661717
0.000660207
0.000640771
0.00060441
0.000553312
0.000492678
0.000430845
0.000379855
0.000353142
0.00034206
0.000337971
0.000336489
0.000335921
0.000335895
0.00033644
0.000337911
0.00034198
0.000353006
0.000379533
0.000429873
0.000489797
0.00054628
0.000589724
0.000613416
0.000613131
0.000584817
0.000521525
0.000407607
0.000213826
0.000214308
0.000411291
0.000530363
0.00060186
0.000642386
0.000659426
0.000656451
0.000634958
0.00059606
0.000542617
0.000481393
0.000422029
0.000374457
0.00035021
0.000340382
0.000336853
0.000335597
0.000335134
0.000335113
0.00033555
0.000336795
0.000340307
0.000350086
0.000374164
0.000421123
0.000478616
0.000535697
0.000581455
0.000607649
0.000609411
0.000582582
0.000520305
0.000407085
0.000213773
0.000214307
0.000411134
0.000529902
0.000600899
0.000640581
0.000656196
0.000650847
0.000625531
0.000580984
0.000520845
0.000456258
0.000403062
0.000363664
0.00034487
0.00033755
0.000335215
0.000334435
0.000334146
0.00033413
0.000334394
0.000335158
0.000337474
0.000344754
0.000363416
0.00040228
0.000453693
0.000514124
0.000566456
0.000598212
0.000603784
0.000579376
0.000518609
0.000406361
0.000213685
0.000214302
0.000410923
0.000529331
0.00059975
0.000638453
0.000652307
0.000643654
0.000612028
0.000555759
0.000476759
0.000397673
0.000363766
0.000344621
0.000337002
0.00033385
0.000333803
0.000333871
0.000333826
0.000333811
0.000333828
0.000333728
0.000333731
0.000336832
0.000344384
0.000363229
0.000395612
0.000470451
0.000541264
0.000584565
0.000596468
0.00057548
0.000516623
0.000405521
0.000213576
0.000214283
0.000410628
0.000528629
0.000598489
0.000636324
0.000648576
0.000636498
0.000596747
0.000520047
0.000391944
0.000259611
0.000289503
0.000318031
0.000329143
0.000331259
0.000334175
0.000335163
0.000335336
0.000335314
0.000335089
0.000334008
0.000330924
0.000328608
0.000317411
0.00028917
0.00025864
0.000386624
0.000505417
0.00056888
0.000589065
0.000571771
0.000514766
0.000404732
0.000213482
0.00021423
0.000410122
0.000527616
0.000596997
0.000634377
0.000646007
0.000632378
0.000587262
0.00048963
0.000285301
0.000228938
0.000300345
0.000323832
0.000330051
0.000332361
0.000333126
0.000333302
0.00033325
0.000332928
0.000331864
0.000328956
0.00032181
0.000297417
0.00022672
0.000281262
0.000474098
0.000558511
0.00058463
0.000569436
0.000513464
0.000404127
0.000213432
0.000214072
0.00040906
0.000525742
0.000594643
0.000632129
0.000644872
0.000634312
0.000597229
0.000524256
0.000400501
0.000266698
0.000309929
0.000340533
0.000348902
0.000350254
0.000350027
0.000349934
0.000349889
0.000349792
0.000349534
0.000348917
0.000347549
0.000343241
0.000331001
0.000299531
0.000260413
0.00038841
0.00050472
0.000566789
0.000586305
0.000569011
0.000512577
0.000403513
0.000213341
0.00021367
0.000406726
0.000521843
0.000589861
0.000627534
0.00064219
0.000636592
0.000610571
0.000562499
0.000493777
0.000424154
0.000401255
0.000385491
0.000370714
0.000362594
0.000359194
0.000358035
0.00035767
0.000357527
0.000357412
0.000357327
0.000357615
0.000359148
0.000364083
0.000376407
0.000401177
0.000471315
0.000537751
0.000578206
0.000588782
0.000567964
0.000510624
0.00040206
0.00021308
0.00021273
0.000401832
0.00051392
0.000580056
0.000617311
0.000633581
0.000632581
0.000615748
0.000583789
0.000539243
0.000490208
0.00044932
0.000411517
0.000379467
0.00036368
0.000357585
0.000355536
0.000354911
0.00035474
0.000354766
0.00035516
0.000356813
0.000362337
0.000377761
0.000411443
0.000455588
0.000509147
0.00055524
0.000582577
0.000586212
0.000562555
0.000505075
0.000398244
0.000212312
0.000210706
0.000392247
0.000498867
0.00056141
0.000596991
0.000613803
0.000616042
0.00060574
0.000583942
0.000552012
0.000512934
0.000471011
0.000428239
0.000391368
0.000372872
0.000365549
0.000363014
0.000362227
0.000362037
0.000362153
0.000362833
0.000365218
0.000372427
0.000391169
0.00042936
0.000475044
0.000519949
0.000555158
0.000574207
0.000573218
0.000548306
0.000492433
0.000389744
0.000210451
0.000206581
0.000374488
0.000471867
0.000528313
0.000560431
0.000576329
0.000580294
0.000574494
0.000559899
0.000537132
0.000507319
0.0004727
0.000436726
0.000405824
0.000388884
0.000381615
0.000378899
0.000378003
0.000377793
0.000377973
0.00037883
0.000381503
0.000388787
0.000405891
0.000437492
0.000474476
0.000509113
0.000534947
0.000547505
0.000543587
0.000519343
0.000467662
0.000372959
0.000206457
0.000198517
0.000342568
0.000424907
0.000471727
0.000498074
0.000511389
0.000515647
0.000512872
0.00050387
0.000488957
0.000468608
0.000444232
0.000418797
0.000397141
0.000384336
0.000378348
0.000375991
0.000375192
0.000375008
0.000375179
0.000375963
0.000378307
0.000384313
0.00039724
0.000419173
0.000444815
0.000468468
0.000485534
0.000492797
0.000487612
0.000466432
0.000422603
0.000341828
0.000198491
0.000183536
0.000284992
0.000342623
0.000374531
0.000392042
0.000400858
0.00040402
0.000403061
0.000398611
0.000390778
0.000379666
0.00036601
0.000351628
0.000339309
0.000331657
0.000327872
0.000326301
0.000325741
0.00032561
0.000325744
0.000326306
0.000327879
0.000331679
0.000339386
0.000351798
0.000366177
0.000379254
0.000388332
0.000391535
0.000387087
0.000372237
0.000341762
0.000284791
0.000183568
0.000160871
0.00018359
0.00019865
0.000206781
0.000210951
0.000212955
0.000213737
0.000213737
0.000213093
0.000211786
0.000209869
0.000207398
0.000204657
0.000202213
0.000200642
0.000199827
0.00019945
0.000199274
0.000199215
0.000199281
0.000199457
0.000199832
0.000200644
0.000202215
0.000204665
0.000207398
0.000209772
0.000211371
0.000211762
0.000210475
0.000206676
0.000198693
0.000183657
0.000160914
0.000233173
0.000310267
0.000360001
0.000388197
0.000403804
0.000412135
0.0004163
0.000418139
0.000418731
0.000418697
0.000418394
0.000418027
0.000417706
0.00041747
0.000417313
0.000417212
0.00041715
0.00041712
0.000417118
0.000417145
0.000417201
0.000417292
0.000417425
0.000417599
0.000417764
0.000417763
0.000417249
0.000415573
0.000411606
0.000403462
0.000388004
0.000359909
0.000310236
0.000233181
0.000310275
0.000604695
0.000747154
0.000829122
0.000876678
0.000903403
0.000917417
0.000923815
0.000925822
0.000925475
0.000924068
0.000922407
0.000920956
0.000919887
0.000919185
0.000918748
0.000918494
0.000918377
0.000918377
0.000918491
0.000918732
0.000919128
0.000919718
0.000920502
0.000921279
0.000921445
0.000919741
0.000914018
0.000900847
0.000874944
0.000828061
0.000746575
0.000604427
0.000310247
0.000360041
0.000747232
0.000935742
0.00104728
0.00111383
0.00115212
0.00117244
0.00118146
0.00118365
0.00118205
0.00117877
0.00117521
0.00117221
0.00117007
0.0011687
0.00116787
0.00116739
0.00116717
0.00116717
0.00116738
0.00116783
0.00116859
0.00116975
0.00117138
0.00117323
0.00117431
0.00117266
0.001165
0.00114646
0.00110993
0.00104486
0.000934415
0.00074663
0.000359959
0.000388274
0.000829282
0.00104738
0.00117901
0.00125891
0.00130527
0.00132945
0.00133907
0.00133947
0.00133464
0.00132761
0.00132062
0.00131499
0.00131113
0.00130876
0.00130733
0.0013065
0.00130612
0.00130612
0.00130649
0.00130728
0.0013086
0.00131068
0.00131381
0.00131784
0.00132147
0.00132197
0.00131493
0.00129414
0.00125117
0.00117414
0.00104466
0.000828019
0.000388072
0.000403924
0.000876938
0.0011141
0.00125914
0.00134786
0.00139893
0.00142409
0.00143139
0.00142687
0.00141549
0.00140164
0.00138882
0.001379
0.00137265
0.00136894
0.00136669
0.00136535
0.00136472
0.00136472
0.00136534
0.00136663
0.00136875
0.00137209
0.00137756
0.0013854
0.00139412
0.00140013
0.00139753
0.00137858
0.00133368
0.00125015
0.001109
0.000874509
0.000403475
0.000412305
0.000903823
0.00115272
0.00130602
0.00139962
0.00145201
0.00147472
0.00147576
0.00146158
0.00143847
0.00141308
0.0013912
0.00137542
0.00136597
0.00136088
0.00135766
0.00135563
0.00135467
0.00135467
0.00135563
0.00135761
0.00136068
0.00136538
0.00137384
0.0013874
0.00140461
0.00142113
0.0014286
0.00141699
0.00137535
0.00129063
0.00114389
0.000899529
0.000411433
0.000416537
0.000918126
0.00117365
0.00133129
0.00142642
0.00147683
0.00149321
0.00148285
0.00145215
0.00140917
0.00136513
0.00133096
0.00130835
0.00129637
0.00129076
0.00128665
0.00128381
0.00128244
0.00128245
0.00128381
0.00128661
0.0012906
0.00129583
0.00130683
0.00132709
0.00135622
0.00139056
0.00141659
0.00141976
0.00138746
0.00130675
0.00115955
0.000911158
0.000415029
0.000418479
0.000925035
0.00118379
0.00134293
0.00143699
0.00148253
0.00148865
0.00146066
0.00140345
0.00132688
0.00125243
0.00120668
0.00118144
0.00117084
0.00116742
0.00116305
0.00115961
0.00115795
0.00115796
0.00115962
0.00116304
0.00116733
0.00117044
0.00118018
0.00120316
0.0012437
0.00130772
0.00136618
0.00139451
0.00137845
0.00130662
0.00116301
0.000914672
0.000416136
0.000419237
0.000927871
0.00118779
0.00134669
0.00143807
0.00147692
0.00146974
0.00141771
0.00131981
0.00118243
0.00104843
0.00101269
0.00100641
0.00100827
0.00101153
0.00100908
0.00100636
0.00100502
0.00100503
0.00100638
0.00100909
0.0010115
0.00100806
0.0010056
0.00101007
0.00104078
0.00116346
0.00128143
0.00134935
0.00135642
0.00129715
0.00115969
0.000913803
0.000415957
0.00041945
0.000928729
0.00118882
0.0013468
0.00143522
0.00146742
0.00144676
0.00136764
0.00121317
0.000951144
0.000581291
0.000731579
0.000810654
0.000843264
0.000855062
0.000859192
0.000859625
0.000859422
0.000859429
0.000859647
0.000859225
0.000855093
0.000843244
0.000810433
0.000730662
0.000577165
0.00093341
0.00117405
0.00129763
0.00133129
0.00128517
0.0011542
0.000911382
0.000415333
0.000419471
0.000928869
0.00118891
0.00134619
0.00143271
0.00146083
0.00143185
0.00133463
0.00113092
0.00062339
0.000438845
0.000646614
0.000704841
0.000724297
0.000729752
0.000731173
0.00073149
0.000731496
0.000731191
0.000729784
0.000724343
0.000704894
0.000646649
0.000438732
0.000611083
0.00109152
0.00126365
0.0013152
0.00127726
0.00115032
0.000909501
0.000414858
0.000419472
0.000928943
0.00118912
0.00134645
0.0014329
0.00146111
0.00143364
0.001344
0.00117438
0.000891231
0.000520183
0.000605752
0.000675197
0.000705405
0.000718153
0.000719121
0.00071893
0.000718828
0.000718827
0.000718927
0.000719115
0.000718137
0.000705354
0.000674997
0.000604862
0.000516005
0.00087341
0.00113479
0.0012731
0.00131685
0.0012772
0.00115001
0.000909207
0.000414815
0.000419508
0.000929184
0.00118979
0.00134781
0.00143559
0.00146661
0.00144559
0.00137156
0.00124106
0.00105783
0.000866169
0.000764383
0.000706485
0.000684214
0.000677019
0.000675819
0.000675658
0.0006756
0.000675598
0.000675653
0.000675802
0.000676965
0.000684041
0.000705866
0.000762134
0.000858851
0.0010387
0.00120165
0.00130114
0.0013292
0.00128291
0.00115272
0.000910414
0.000415159
0.000419572
0.000929564
0.00119075
0.00134981
0.00143946
0.00147399
0.00145968
0.00139851
0.00129185
0.00114699
0.000987572
0.000849666
0.00074287
0.000691246
0.000671988
0.000666214
0.000664657
0.000664267
0.000664264
0.000664648
0.000666186
0.000671906
0.000690993
0.00074202
0.000846845
0.000979368
0.00112738
0.00125255
0.00132847
0.00134369
0.0012906
0.00115675
0.000912351
0.000415672
0.000419639
0.000929976
0.00119176
0.00135184
0.00144325
0.00148079
0.00147152
0.00141851
0.00132399
0.00119382
0.00104271
0.000893326
0.000767534
0.000702035
0.000676178
0.000667583
0.000665051
0.000664409
0.000664406
0.000665041
0.000667552
0.000676085
0.000701747
0.000766588
0.00089028
0.00103415
0.00117396
0.0012847
0.00134865
0.00135577
0.0012976
0.00116064
0.000914297
0.000416159
0.000419689
0.000930325
0.0011926
0.00135349
0.00144624
0.00148591
0.00147986
0.00143138
0.00134255
0.00121789
0.00106877
0.000914718
0.000781008
0.000709202
0.00068005
0.000670041
0.000667017
0.000666243
0.000666241
0.000667006
0.000670009
0.000679954
0.0007089
0.000780024
0.000911572
0.00106004
0.00119788
0.00130319
0.00136155
0.00136418
0.00130279
0.00116365
0.00091583
0.000416519
0.000419716
0.000930564
0.00119317
0.00135461
0.00144822
0.00148916
0.0014849
0.0014387
0.00135235
0.00122963
0.00108077
0.000924549
0.000787439
0.000712863
0.000682203
0.000671548
0.000668298
0.000667462
0.000667459
0.000668287
0.000671515
0.000682104
0.000712556
0.000786439
0.00092136
0.00107195
0.00120953
0.00131291
0.00136883
0.00136921
0.00130603
0.00116558
0.000916823
0.000416734
0.00041972
0.000930682
0.00119346
0.00135517
0.00144919
0.00149072
0.00148724
0.00144197
0.00135653
0.00123442
0.00108547
0.000928343
0.000789957
0.000714326
0.000683075
0.000672166
0.000668827
0.000667963
0.000667959
0.000668815
0.000672132
0.000682975
0.000714015
0.000788953
0.000925152
0.00107661
0.00121426
0.00131705
0.00137206
0.00137153
0.00130757
0.0011665
0.000917299
0.000416823
0.000419708
0.000930681
0.00119347
0.00135518
0.00144921
0.00149076
0.00148729
0.00144204
0.00135663
0.00123454
0.0010856
0.000928464
0.000790077
0.000714402
0.000683113
0.000672184
0.000668835
0.000667965
0.000667961
0.000668822
0.000672149
0.000683012
0.000714092
0.000789075
0.000925283
0.00107673
0.00121437
0.00131714
0.00137213
0.00137158
0.0013076
0.00116652
0.000917304
0.000416808
0.000419683
0.000930558
0.00119318
0.00135464
0.00144827
0.00148925
0.00148503
0.00143889
0.00135262
0.00122997
0.00108115
0.000924946
0.00078782
0.000713111
0.000682334
0.000671618
0.000668341
0.00066749
0.000667486
0.000668329
0.000671586
0.000682237
0.000712809
0.000786834
0.000921785
0.00107234
0.00120986
0.00131317
0.00136902
0.00136934
0.00130611
0.00116562
0.000916835
0.000416696
0.000419644
0.000930306
0.00119259
0.00135351
0.00144628
0.001486
0.00148002
0.00143167
0.00134299
0.00121847
0.00106947
0.000915486
0.00078172
0.00070967
0.00068032
0.00067021
0.000667144
0.000666351
0.000666348
0.000667135
0.000670185
0.000680235
0.000709389
0.00078077
0.000912378
0.00106075
0.00119846
0.0013036
0.00136181
0.00136433
0.00130287
0.00116369
0.000915835
0.000416466
0.00041958
0.000929915
0.00119168
0.00135175
0.00144316
0.00148075
0.00147159
0.00141877
0.00132452
0.00119466
0.00104382
0.000894579
0.000768641
0.000702735
0.00067658
0.000667835
0.000665246
0.000664585
0.000664585
0.000665245
0.000667821
0.000676513
0.000702488
0.000767764
0.000891611
0.00103529
0.00117479
0.00128516
0.00134883
0.00135579
0.00129756
0.0011606
0.000914254
0.000416089
0.000419486
0.000929384
0.00119046
0.0013494
0.00143897
0.0014735
0.0014593
0.00139842
0.00129226
0.00114806
0.000989218
0.000851507
0.000744188
0.000691814
0.000672096
0.000666084
0.000664445
0.000664036
0.000664038
0.000664449
0.000666075
0.000672034
0.000691588
0.00074342
0.000848829
0.000981081
0.00112839
0.00125274
0.00132814
0.00134317
0.00129012
0.00115641
0.000912145
0.000415566
0.000419356
0.000928703
0.00118896
0.00134663
0.00143411
0.00146496
0.00144397
0.0013703
0.00124068
0.00105888
0.000868444
0.00076655
0.000706665
0.000682787
0.000674766
0.000673119
0.000672821
0.000672737
0.000672736
0.000672809
0.000673061
0.000674592
0.000682406
0.000705892
0.000764424
0.000861223
0.00103952
0.0012006
0.00129919
0.00132719
0.00128127
0.00115161
0.000909785
0.000414959
0.000419157
0.000927755
0.00118708
0.00134354
0.00142922
0.00145683
0.00142905
0.00133963
0.00117127
0.00089138
0.000521731
0.000604783
0.000668401
0.000695261
0.000706129
0.000706321
0.000705957
0.000705842
0.000705825
0.000705867
0.000706033
0.000705405
0.000693883
0.000666539
0.000603252
0.000517427
0.000872708
0.00112963
0.0012669
0.00131132
0.00127296
0.00114717
0.000907612
0.000414397
0.00041878
0.000926137
0.0011843
0.00133975
0.00142458
0.00145119
0.00142096
0.0013229
0.0011195
0.000616192
0.000419945
0.000612447
0.000662611
0.000676504
0.000680776
0.000682206
0.000682603
0.000682501
0.000681773
0.000679568
0.000673635
0.000657026
0.000603887
0.000412725
0.000599157
0.00107394
0.00124746
0.00130223
0.00126775
0.00114398
0.000905913
0.000413966
0.000417931
0.000922824
0.00117916
0.00133359
0.00141874
0.00144785
0.00142403
0.00134137
0.00118272
0.000915897
0.000546587
0.000656934
0.000715627
0.000728247
0.000726215
0.000727888
0.000728723
0.000728903
0.000728678
0.000727742
0.000725019
0.000718965
0.0007127
0.000688663
0.000624992
0.000523091
0.000877283
0.00112834
0.0012622
0.00130481
0.00126617
0.00114144
0.000903985
0.00041348
0.000415998
0.000915837
0.00116876
0.00132135
0.00140703
0.00144042
0.00142725
0.00136744
0.00125806
0.00110244
0.000939521
0.000863259
0.000813326
0.000769895
0.000745697
0.000737114
0.000734452
0.000733639
0.000733281
0.000732847
0.000732186
0.00073234
0.000738613
0.000755892
0.000796976
0.000876095
0.0010419
0.00119272
0.00128438
0.00130881
0.00126273
0.00113601
0.000899593
0.000412242
0.000411859
0.000901797
0.00114833
0.00129702
0.001382
0.00141909
0.00141599
0.00137582
0.00130018
0.00119443
0.00107551
0.000969263
0.00087114
0.000785534
0.000742138
0.000725584
0.000720117
0.000718467
0.000718019
0.00071807
0.000719076
0.000723569
0.00073922
0.000782395
0.000873219
0.000987884
0.00111789
0.00122693
0.0012914
0.00130116
0.00124889
0.00112168
0.000888763
0.000408941
0.00040361
0.000875374
0.00111068
0.001252
0.0013337
0.00137229
0.00137653
0.00135078
0.00129737
0.0012193
0.00112303
0.00101806
0.000910606
0.000814764
0.00076471
0.000744691
0.000737732
0.000735554
0.000735033
0.000735375
0.000737295
0.000743929
0.000763847
0.000814909
0.000914674
0.0010291
0.00113894
0.001224
0.00127038
0.00126992
0.0012146
0.00109036
0.000865665
0.000401539
0.000388089
0.000828225
0.00104506
0.00117404
0.0012488
0.00128587
0.00129428
0.00127872
0.00124142
0.00118389
0.00110882
0.00102155
0.000930748
0.000852092
0.000807491
0.000787794
0.000780328
0.000777821
0.00077723
0.00077776
0.000780187
0.000787591
0.00080743
0.000852856
0.000933415
0.00102642
0.00111262
0.00117674
0.00120869
0.00120147
0.00114695
0.00103077
0.00082162
0.000386783
0.000359966
0.000746627
0.000934428
0.00104434
0.00110758
0.00113969
0.00114922
0.00114067
0.00111599
0.00107605
0.00102224
0.000958241
0.000891629
0.000834693
0.000800226
0.000783724
0.000776966
0.000774542
0.000773963
0.000774551
0.000776983
0.000783776
0.000800431
0.000835348
0.000893045
0.000959963
0.00102147
0.00106614
0.00108623
0.00107565
0.00102667
0.000925483
0.000742684
0.000359282
0.000310274
0.000604438
0.000746624
0.000827823
0.000873663
0.00089699
0.000904835
0.000900831
0.000886495
0.000862314
0.000828975
0.000788792
0.000746909
0.000711157
0.000688666
0.000677348
0.000672493
0.000670686
0.000670254
0.000670726
0.000672574
0.000677484
0.000688914
0.000711641
0.000747691
0.000789437
0.00082762
0.000854784
0.000865653
0.000855625
0.000818312
0.000742096
0.000602587
0.000310039
0.000233206
0.000310272
0.000359999
0.000388105
0.00040341
0.000411028
0.000413758
0.000413004
0.000409299
0.000402733
0.0003934
0.000381891
0.000369728
0.000359309
0.000352783
0.000349515
0.000348112
0.000347584
0.000347455
0.000347595
0.000348132
0.000349544
0.000352831
0.000359402
0.000369891
0.000382029
0.000393032
0.000400659
0.000403271
0.000399263
0.000386126
0.000359187
0.000310021
0.000233226
0.000259844
0.00037417
0.000447992
0.000490793
0.000515257
0.000528774
0.000535754
0.000538914
0.000539926
0.000539811
0.000539193
0.000538453
0.000537803
0.000537324
0.000537009
0.000536812
0.000536696
0.000536642
0.000536641
0.000536692
0.0005368
0.000536977
0.000537241
0.00053759
0.000537932
0.000537975
0.00053711
0.000534261
0.000527664
0.000514515
0.000490349
0.000447759
0.000374074
0.000259848
0.000374173
0.000764469
0.000951096
0.00106096
0.00112632
0.00116392
0.00118407
0.00119341
0.00119633
0.00119568
0.00119338
0.00119066
0.00118825
0.00118646
0.00118526
0.00118451
0.00118407
0.00118387
0.00118387
0.00118406
0.00118447
0.00118514
0.00118614
0.00118744
0.00118874
0.00118909
0.00118665
0.00117836
0.00115955
0.00112327
0.00105902
0.000949977
0.000763911
0.000374075
0.000448032
0.000951199
0.00119116
0.0013357
0.00142385
0.00147559
0.00150351
0.00151605
0.00151903
0.00151656
0.00151157
0.00150612
0.00150147
0.0014981
0.00149591
0.00149456
0.00149378
0.00149342
0.00149342
0.00149376
0.00149449
0.0014957
0.00149754
0.0015001
0.00150295
0.00150468
0.0015025
0.00149196
0.00146665
0.00141754
0.00133164
0.00118881
0.000950028
0.000447784
0.000490883
0.00106119
0.00133585
0.00150392
0.00160789
0.00166925
0.0017017
0.00171469
0.00171508
0.00170811
0.00169792
0.00168765
0.00167925
0.00167341
0.00166975
0.00166753
0.00166624
0.00166565
0.00166564
0.00166621
0.00166743
0.00166946
0.00167264
0.00167736
0.00168332
0.00168869
0.00168963
0.00168026
0.00165257
0.00159602
0.00149619
0.00133131
0.00105888
0.000490352
0.000515409
0.0011267
0.00142427
0.00160824
0.00172266
0.00178949
0.0018228
0.00183249
0.00182621
0.00181041
0.00179089
0.00177246
0.00175807
0.0017486
0.00174299
0.00173956
0.00173753
0.00173659
0.00173658
0.0017375
0.00173944
0.00174264
0.00174767
0.00175578
0.0017672
0.00177971
0.00178823
0.00178499
0.00176013
0.00170175
0.00159455
0.0014161
0.00112248
0.000514366
0.000529012
0.00116458
0.00147653
0.00167041
0.00179055
0.00185866
0.00188849
0.00188987
0.0018709
0.00183957
0.00180438
0.00177305
0.00174983
0.00173567
0.00172792
0.001723
0.00171995
0.00171851
0.00171851
0.00171992
0.00172289
0.00172757
0.00173468
0.00174733
0.0017672
0.00179179
0.00181455
0.00182467
0.00180955
0.00175579
0.00164766
0.00146286
0.00115739