/*--------------------------------*- C++ -*----------------------------------*\
| =========                 |                                                 |
| \\      /  F ield         | OpenFOAM: The Open Source CFD Toolbox           |
|  \\    /   O peration     | Version:  2112                                  |
|   \\  /    A nd           | Website:  www.openfoam.com                      |
|    \\/     M anipulation  |                                                 |
\*---------------------------------------------------------------------------*/
FoamFile
{
    version     2.0;
    format      ascii;
    arch        "LSB;label=32;scalar=64";
    class       volScalarField;
    location    "5";
    object      nut;
}
// * * * * * * * * * * * * * * * * * * * * * * * * * * * * * * * * * * * * * //

dimensions      [0 2 -1 0 0 0 0];

internalField   nonuniform List<scalar> 
64906
(
3.21037e-05
3.43256e-05
3.57269e-05
3.64649e-05
3.68419e-05
3.70286e-05
3.7116e-05
3.71529e-05
3.71649e-05
3.71647e-05
3.71595e-05
3.71526e-05
3.71467e-05
3.71426e-05
3.71398e-05
3.71377e-05
3.71362e-05
3.71352e-05
3.7135e-05
3.71355e-05
3.71368e-05
3.71386e-05
3.7141e-05
3.71444e-05
3.71478e-05
3.71485e-05
3.71388e-05
3.71054e-05
3.70215e-05
3.68378e-05
3.64629e-05
3.57263e-05
3.43263e-05
3.21047e-05
3.43279e-05
4.28254e-05
4.69934e-05
4.91712e-05
5.03566e-05
5.09939e-05
5.13177e-05
5.14633e-05
5.15109e-05
5.15081e-05
5.14835e-05
5.1454e-05
5.14286e-05
5.14105e-05
5.13992e-05
5.13924e-05
5.13885e-05
5.13867e-05
5.13867e-05
5.13884e-05
5.13921e-05
5.13981e-05
5.14074e-05
5.142e-05
5.14321e-05
5.14309e-05
5.13891e-05
5.12567e-05
5.09496e-05
5.03283e-05
4.91559e-05
4.6987e-05
4.28244e-05
3.43306e-05
3.5732e-05
4.69964e-05
5.23871e-05
5.5255e-05
5.68595e-05
5.77465e-05
5.82052e-05
5.84072e-05
5.84597e-05
5.84316e-05
5.83688e-05
5.83012e-05
5.82455e-05
5.82073e-05
5.81842e-05
5.81709e-05
5.81634e-05
5.81601e-05
5.81602e-05
5.81635e-05
5.81706e-05
5.81827e-05
5.8202e-05
5.82305e-05
5.82632e-05
5.828e-05
5.82382e-05
5.80639e-05
5.76411e-05
5.67896e-05
5.52143e-05
5.23673e-05
4.69905e-05
3.5736e-05
3.64722e-05
4.91772e-05
5.52578e-05
5.85455e-05
6.04164e-05
6.14611e-05
6.19942e-05
6.22056e-05
6.22199e-05
6.21246e-05
6.1985e-05
6.18481e-05
6.17399e-05
6.16685e-05
6.16266e-05
6.16022e-05
6.15882e-05
6.15819e-05
6.15819e-05
6.15883e-05
6.16018e-05
6.16243e-05
6.16608e-05
6.17186e-05
6.17952e-05
6.18643e-05
6.18684e-05
6.171e-05
6.12463e-05
6.02703e-05
5.84568e-05
5.52112e-05
4.91597e-05
3.64761e-05
3.68503e-05
5.03652e-05
5.68661e-05
6.04215e-05
6.24604e-05
6.35916e-05
6.41383e-05
6.42982e-05
6.42077e-05
6.39745e-05
6.36917e-05
6.34343e-05
6.32403e-05
6.31194e-05
6.3052e-05
6.30118e-05
6.29878e-05
6.29766e-05
6.29767e-05
6.29879e-05
6.30114e-05
6.30493e-05
6.311e-05
6.32143e-05
6.33697e-05
6.35452e-05
6.36674e-05
6.36066e-05
6.31891e-05
6.21841e-05
6.025e-05
5.67721e-05
5.03257e-05
3.68519e-05
3.70375e-05
5.10056e-05
5.77593e-05
6.14763e-05
6.36052e-05
6.47552e-05
6.52452e-05
6.52697e-05
6.49714e-05
6.4484e-05
6.39503e-05
6.35001e-05
6.318e-05
6.29966e-05
6.29036e-05
6.28437e-05
6.28051e-05
6.27867e-05
6.27868e-05
6.28054e-05
6.28435e-05
6.2901e-05
6.29868e-05
6.31516e-05
6.34284e-05
6.37857e-05
6.41386e-05
6.43003e-05
6.40464e-05
6.31202e-05
6.11731e-05
5.75893e-05
5.09291e-05
3.70335e-05
3.71258e-05
5.13344e-05
5.82299e-05
6.20301e-05
6.41836e-05
6.52863e-05
6.56383e-05
6.54142e-05
6.4749e-05
6.38109e-05
6.28484e-05
6.21309e-05
6.16628e-05
6.14303e-05
6.13329e-05
6.12529e-05
6.11952e-05
6.11674e-05
6.11677e-05
6.11957e-05
6.12531e-05
6.1331e-05
6.14216e-05
6.16356e-05
6.20579e-05
6.26748e-05
6.34395e-05
6.40254e-05
6.41044e-05
6.33877e-05
6.15348e-05
5.79495e-05
5.12029e-05
3.71118e-05
3.71643e-05
5.14888e-05
5.84533e-05
6.22808e-05
6.44074e-05
6.54038e-05
6.55311e-05
6.49116e-05
6.36285e-05
6.18694e-05
6.01328e-05
5.91884e-05
5.86792e-05
5.84962e-05
5.84645e-05
5.83741e-05
5.8299e-05
5.82636e-05
5.82639e-05
5.82997e-05
5.83749e-05
5.84639e-05
5.84903e-05
5.86568e-05
5.9122e-05
5.99614e-05
6.1484e-05
6.28654e-05
6.3535e-05
6.31868e-05
6.1533e-05
5.80302e-05
5.12855e-05
3.71357e-05
3.71788e-05
5.15513e-05
5.85409e-05
6.23613e-05
6.44294e-05
6.528e-05
6.51107e-05
6.39289e-05
6.16259e-05
5.81973e-05
5.46836e-05
5.42574e-05
5.43189e-05
5.4488e-05
5.46535e-05
5.45924e-05
5.45265e-05
5.4497e-05
5.44973e-05
5.45274e-05
5.45937e-05
5.46545e-05
5.44859e-05
5.43057e-05
5.4209e-05
5.45342e-05
5.78124e-05
6.08319e-05
6.24972e-05
6.26943e-05
6.13245e-05
5.79591e-05
5.12687e-05
3.71336e-05
3.71825e-05
5.15708e-05
5.85644e-05
6.23653e-05
6.43703e-05
6.5076e-05
6.45986e-05
6.27482e-05
5.88785e-05
5.15803e-05
4.21421e-05
4.63874e-05
4.90417e-05
5.01079e-05
5.05676e-05
5.06186e-05
5.06137e-05
5.06091e-05
5.06095e-05
5.06147e-05
5.06202e-05
5.05699e-05
5.01098e-05
4.90403e-05
4.63754e-05
4.2069e-05
5.12255e-05
5.80601e-05
6.12708e-05
6.21279e-05
6.10624e-05
5.78411e-05
5.12183e-05
3.71217e-05
3.71824e-05
5.15755e-05
5.85689e-05
6.23566e-05
6.43231e-05
6.49418e-05
6.42726e-05
6.19441e-05
5.65432e-05
4.30821e-05
3.88503e-05
4.47623e-05
4.66327e-05
4.72043e-05
4.74077e-05
4.74715e-05
4.74878e-05
4.74881e-05
4.74723e-05
4.74091e-05
4.72065e-05
4.66359e-05
4.47665e-05
3.88517e-05
4.28577e-05
5.57221e-05
6.04412e-05
6.17721e-05
6.08969e-05
5.77628e-05
5.11823e-05
3.71118e-05
3.71812e-05
5.15791e-05
5.85774e-05
6.23686e-05
6.43386e-05
6.49691e-05
6.43575e-05
6.22877e-05
5.80813e-05
5.02858e-05
4.08533e-05
4.30918e-05
4.52994e-05
4.61619e-05
4.63577e-05
4.65944e-05
4.66764e-05
4.66936e-05
4.66936e-05
4.66765e-05
4.65945e-05
4.63575e-05
4.61614e-05
4.52962e-05
4.30735e-05
4.07712e-05
4.99211e-05
5.72469e-05
6.07871e-05
6.18562e-05
6.09188e-05
5.77693e-05
5.11842e-05
3.71082e-05
3.71806e-05
5.15861e-05
5.85955e-05
6.24046e-05
6.44078e-05
6.51088e-05
6.4663e-05
6.30189e-05
5.99866e-05
5.54562e-05
5.05197e-05
4.82297e-05
4.69461e-05
4.64456e-05
4.62445e-05
4.62626e-05
4.62795e-05
4.6282e-05
4.62818e-05
4.6279e-05
4.62615e-05
4.62421e-05
4.64403e-05
4.6931e-05
4.81807e-05
5.03656e-05
5.50573e-05
5.91621e-05
6.15372e-05
6.21778e-05
6.10692e-05
5.78436e-05
5.12186e-05
3.71141e-05
3.71804e-05
5.15954e-05
5.86194e-05
6.2453e-05
6.45e-05
6.52842e-05
6.50021e-05
6.36888e-05
6.13186e-05
5.79724e-05
5.4156e-05
5.08119e-05
4.8207e-05
4.69293e-05
4.64293e-05
4.62773e-05
4.62318e-05
4.62174e-05
4.6217e-05
4.62306e-05
4.62752e-05
4.64254e-05
4.69212e-05
4.81864e-05
5.07518e-05
5.39839e-05
5.75666e-05
6.05035e-05
6.22236e-05
6.25338e-05
6.12583e-05
5.79443e-05
5.1267e-05
3.71231e-05
3.71802e-05
5.16045e-05
5.86431e-05
6.25001e-05
6.4587e-05
6.54402e-05
6.52768e-05
6.4164e-05
6.21115e-05
5.91857e-05
5.56561e-05
5.2026e-05
4.89336e-05
4.72906e-05
4.66134e-05
4.63727e-05
4.62917e-05
4.62658e-05
4.62652e-05
4.629e-05
4.637e-05
4.66087e-05
4.72813e-05
4.89109e-05
5.19619e-05
5.54782e-05
5.87778e-05
6.13014e-05
6.27086e-05
6.28199e-05
6.14245e-05
5.80378e-05
5.1313e-05
3.71306e-05
3.71797e-05
5.16116e-05
5.86622e-05
6.25377e-05
6.46544e-05
6.55551e-05
6.54655e-05
6.44611e-05
6.25526e-05
5.97795e-05
5.63256e-05
5.25886e-05
4.93029e-05
4.74975e-05
4.67312e-05
4.64482e-05
4.63492e-05
4.63159e-05
4.6315e-05
4.6347e-05
4.64449e-05
4.67261e-05
4.74877e-05
4.92794e-05
5.25228e-05
5.6145e-05
5.93702e-05
6.1744e-05
6.30101e-05
6.30144e-05
6.15449e-05
5.81082e-05
5.13478e-05
3.71351e-05
3.71789e-05
5.1616e-05
5.86751e-05
6.25627e-05
6.46982e-05
6.56272e-05
6.55779e-05
6.46267e-05
6.27798e-05
6.00611e-05
5.66243e-05
5.28394e-05
4.9473e-05
4.75975e-05
4.67907e-05
4.64883e-05
4.63801e-05
4.63417e-05
4.63406e-05
4.63775e-05
4.64847e-05
4.67853e-05
4.75875e-05
4.9449e-05
5.27723e-05
5.64423e-05
5.96506e-05
6.19712e-05
6.31769e-05
6.31289e-05
6.1619e-05
5.81526e-05
5.13693e-05
3.71366e-05
3.71777e-05
5.16178e-05
5.86816e-05
6.25753e-05
6.47197e-05
6.56617e-05
6.56301e-05
6.47004e-05
6.28763e-05
6.01749e-05
5.67403e-05
5.29363e-05
4.9539e-05
4.76369e-05
4.6814e-05
4.65036e-05
4.6391e-05
4.63489e-05
4.63474e-05
4.6388e-05
4.64997e-05
4.68084e-05
4.76266e-05
4.95148e-05
5.2868e-05
5.65577e-05
5.97636e-05
6.20673e-05
6.32508e-05
6.31815e-05
6.1654e-05
5.81739e-05
5.13791e-05
3.7136e-05
3.71766e-05
5.16173e-05
5.86819e-05
6.2576e-05
6.47208e-05
6.56632e-05
6.56321e-05
6.47031e-05
6.28798e-05
6.01793e-05
5.67455e-05
5.29416e-05
4.95434e-05
4.76396e-05
4.68151e-05
4.65034e-05
4.63893e-05
4.6345e-05
4.63432e-05
4.6386e-05
4.64993e-05
4.68093e-05
4.76293e-05
4.95192e-05
5.28729e-05
5.6563e-05
5.97682e-05
6.2071e-05
6.32537e-05
6.31837e-05
6.16556e-05
5.81749e-05
5.13789e-05
3.71342e-05
3.71761e-05
5.16149e-05
5.86761e-05
6.25647e-05
6.47011e-05
6.56314e-05
6.55837e-05
6.46346e-05
6.27904e-05
6.00746e-05
5.66403e-05
5.28553e-05
4.94868e-05
4.76061e-05
4.67943e-05
4.64879e-05
4.63755e-05
4.63314e-05
4.63294e-05
4.6372e-05
4.64837e-05
4.67885e-05
4.75959e-05
4.9463e-05
5.2788e-05
5.6459e-05
5.96646e-05
6.19823e-05
6.31853e-05
6.31351e-05
6.16235e-05
5.81555e-05
5.13689e-05
3.7132e-05
3.71763e-05
5.16102e-05
5.86635e-05
6.25403e-05
6.46585e-05
6.55611e-05
6.54743e-05
6.44737e-05
6.25702e-05
5.9803e-05
5.63546e-05
5.26166e-05
4.93277e-05
4.7513e-05
4.67381e-05
4.64483e-05
4.63426e-05
4.63019e-05
4.63e-05
4.6339e-05
4.6444e-05
4.67324e-05
4.75032e-05
4.93049e-05
5.25517e-05
5.61756e-05
5.93949e-05
6.17626e-05
6.30234e-05
6.30238e-05
6.15516e-05
5.81124e-05
5.13477e-05
3.71292e-05
3.71765e-05
5.16027e-05
5.86437e-05
6.25018e-05
6.45901e-05
6.54456e-05
6.52861e-05
6.41794e-05
6.21357e-05
5.92208e-05
5.57026e-05
5.20711e-05
4.89718e-05
4.73132e-05
4.66229e-05
4.63721e-05
4.62824e-05
4.62492e-05
4.62477e-05
4.62791e-05
4.63679e-05
4.66174e-05
4.73042e-05
4.89509e-05
5.20098e-05
5.55278e-05
5.88151e-05
6.13265e-05
6.27244e-05
6.28298e-05
6.14311e-05
5.8042e-05
5.1313e-05
3.71241e-05
3.71763e-05
5.1592e-05
5.86167e-05
6.24499e-05
6.44971e-05
6.52832e-05
6.50058e-05
6.37016e-05
6.13466e-05
5.80221e-05
5.42274e-05
5.08819e-05
4.82557e-05
4.69499e-05
4.64301e-05
4.62634e-05
4.62077e-05
4.61871e-05
4.61859e-05
4.62047e-05
4.62592e-05
4.64246e-05
4.69414e-05
4.82377e-05
5.08275e-05
5.40614e-05
5.76195e-05
6.05309e-05
6.22344e-05
6.25369e-05
6.1259e-05
5.79445e-05
5.12652e-05
3.71159e-05
3.71757e-05
5.15776e-05
5.85833e-05
6.23879e-05
6.43876e-05
6.50877e-05
6.46456e-05
6.30131e-05
6.00061e-05
5.55186e-05
5.06284e-05
4.83298e-05
4.69708e-05
4.64156e-05
4.61832e-05
4.6179e-05
4.61843e-05
4.61812e-05
4.61802e-05
4.61811e-05
4.61735e-05
4.61745e-05
4.64031e-05
4.69532e-05
4.82902e-05
5.04852e-05
5.51233e-05
5.91735e-05
6.15212e-05
6.21552e-05
6.105e-05
5.78306e-05
5.12099e-05
3.71059e-05
3.71737e-05
5.15575e-05
5.85419e-05
6.23193e-05
6.42773e-05
6.48994e-05
6.42856e-05
6.22262e-05
5.80574e-05
5.03539e-05
4.09267e-05
4.31019e-05
4.51279e-05
4.58947e-05
4.60324e-05
4.62385e-05
4.63087e-05
4.63209e-05
4.63194e-05
4.63032e-05
4.62263e-05
4.60079e-05
4.58554e-05
4.50815e-05
4.30748e-05
4.0843e-05
4.99859e-05
5.71885e-05
6.06924e-05
6.17672e-05
6.08505e-05
5.7724e-05
5.11579e-05
3.70972e-05
3.71685e-05
5.1523e-05
5.8482e-05
6.22372e-05
6.41745e-05
6.47673e-05
6.40756e-05
6.17313e-05
5.63409e-05
4.29711e-05
3.83624e-05
4.38859e-05
4.55574e-05
4.59875e-05
4.61479e-05
4.62013e-05
4.62136e-05
4.62099e-05
4.61869e-05
4.61118e-05
4.5908e-05
4.54094e-05
4.36633e-05
3.81678e-05
4.26448e-05
5.53912e-05
6.01358e-05
6.15318e-05
6.0723e-05
5.76479e-05
5.11175e-05
3.70923e-05
3.71535e-05
5.14517e-05
5.83718e-05
6.21074e-05
6.40538e-05
6.47041e-05
6.41681e-05
6.22485e-05
5.82952e-05
5.09134e-05
4.14974e-05
4.46403e-05
4.6746e-05
4.72957e-05
4.73793e-05
4.73566e-05
4.73477e-05
4.73439e-05
4.7337e-05
4.73195e-05
4.72787e-05
4.71899e-05
4.68984e-05
4.60673e-05
4.38615e-05
4.09834e-05
5.01002e-05
5.71445e-05
6.05744e-05
6.1615e-05
6.06958e-05
5.75941e-05
5.10756e-05
3.70835e-05
3.71159e-05
5.12967e-05
5.81448e-05
6.18463e-05
6.38097e-05
6.45589e-05
6.42731e-05
6.29291e-05
6.0371e-05
5.65182e-05
5.2321e-05
5.08158e-05
4.97471e-05
4.87438e-05
4.81865e-05
4.79501e-05
4.78688e-05
4.78432e-05
4.78332e-05
4.78256e-05
4.78211e-05
4.78445e-05
4.7956e-05
4.83099e-05
4.91739e-05
5.08395e-05
5.51674e-05
5.89693e-05
6.11706e-05
6.17365e-05
6.06325e-05
5.74776e-05
5.09783e-05
3.7059e-05
3.70292e-05
5.09745e-05
5.76864e-05
6.13141e-05
6.32721e-05
6.41098e-05
6.40559e-05
6.31812e-05
6.14889e-05
5.90511e-05
5.62432e-05
5.37792e-05
5.14012e-05
4.93033e-05
4.82373e-05
4.78188e-05
4.76769e-05
4.76334e-05
4.76215e-05
4.76235e-05
4.76513e-05
4.77667e-05
4.81483e-05
4.9196e-05
5.14067e-05
5.41655e-05
5.73231e-05
5.99058e-05
6.13886e-05
6.15901e-05
6.03321e-05
5.71538e-05
5.07266e-05
3.69882e-05
3.68441e-05
5.03446e-05
5.68145e-05
6.02994e-05
6.22016e-05
6.30819e-05
6.3195e-05
6.26489e-05
6.1482e-05
5.97347e-05
5.75271e-05
5.50644e-05
5.2441e-05
5.00762e-05
4.88473e-05
4.83516e-05
4.81784e-05
4.81244e-05
4.81113e-05
4.81193e-05
4.81661e-05
4.83295e-05
4.88186e-05
5.00658e-05
5.25147e-05
5.5304e-05
5.79165e-05
5.98878e-05
6.09321e-05
6.08894e-05
5.95483e-05
5.64187e-05
5.01681e-05
3.68186e-05
3.64686e-05
4.91679e-05
5.52296e-05
5.84692e-05
6.02423e-05
6.1103e-05
6.1313e-05
6.09928e-05
6.01868e-05
5.89122e-05
5.72059e-05
5.51657e-05
5.29705e-05
5.10145e-05
4.99099e-05
4.94276e-05
4.92457e-05
4.91853e-05
4.91711e-05
4.91833e-05
4.92411e-05
4.94203e-05
4.99041e-05
5.10198e-05
5.3019e-05
5.52698e-05
5.73015e-05
5.87753e-05
5.94839e-05
5.92783e-05
5.79358e-05
5.49614e-05
4.90562e-05
3.64555e-05
3.57308e-05
4.69969e-05
5.23792e-05
5.522e-05
5.67641e-05
5.75314e-05
5.77729e-05
5.76075e-05
5.7078e-05
5.61947e-05
5.49725e-05
5.34787e-05
5.18807e-05
5.04839e-05
4.96393e-05
4.92386e-05
4.90795e-05
4.90252e-05
4.90127e-05
4.90244e-05
4.90776e-05
4.92359e-05
4.9638e-05
5.04907e-05
5.19048e-05
5.35131e-05
5.49587e-05
5.59825e-05
5.64182e-05
5.61248e-05
5.48837e-05
5.22224e-05
4.69392e-05
3.57274e-05
3.43297e-05
4.28318e-05
4.70006e-05
4.91698e-05
5.03283e-05
5.09047e-05
5.11091e-05
5.10423e-05
5.07442e-05
5.02193e-05
4.94698e-05
4.85381e-05
4.75419e-05
4.6674e-05
4.61265e-05
4.58527e-05
4.57383e-05
4.56972e-05
4.56876e-05
4.56974e-05
4.57386e-05
4.58533e-05
4.61282e-05
4.66797e-05
4.75538e-05
4.85486e-05
4.94389e-05
5.00508e-05
5.02694e-05
4.99834e-05
4.90038e-05
4.69337e-05
4.28134e-05
3.43324e-05
3.21069e-05
3.43351e-05
3.57434e-05
3.64869e-05
3.6866e-05
3.70483e-05
3.71194e-05
3.71184e-05
3.70578e-05
3.6936e-05
3.67578e-05
3.65287e-05
3.62744e-05
3.60467e-05
3.58995e-05
3.58227e-05
3.57869e-05
3.57702e-05
3.57646e-05
3.57709e-05
3.57876e-05
3.58232e-05
3.58997e-05
3.6047e-05
3.62751e-05
3.65285e-05
3.67483e-05
3.68966e-05
3.69341e-05
3.68188e-05
3.64751e-05
3.57464e-05
3.43412e-05
3.21112e-05
5.00013e-05
5.77554e-05
6.22668e-05
6.47007e-05
6.60203e-05
6.6721e-05
6.70721e-05
6.7228e-05
6.72783e-05
6.72751e-05
6.72485e-05
6.72163e-05
6.7188e-05
6.7167e-05
6.71531e-05
6.71441e-05
6.71387e-05
6.7136e-05
6.71358e-05
6.71382e-05
6.71432e-05
6.71512e-05
6.7163e-05
6.71783e-05
6.71928e-05
6.71929e-05
6.71492e-05
6.70073e-05
6.66733e-05
6.5989e-05
6.46824e-05
6.22577e-05
5.7752e-05
5.00022e-05
5.77562e-05
0.000172283
0.000216014
0.000238154
0.000250565
0.000257584
0.000261342
0.000263088
0.000263619
0.000263469
0.000262997
0.000262445
0.000261958
0.000261595
0.000261353
0.0002612
0.000261111
0.00026107
0.00026107
0.00026111
0.000261194
0.000261333
0.000261537
0.000261807
0.00026208
0.000262177
0.000261743
0.000260207
0.000256709
0.000249945
0.000237743
0.000215755
0.000172132
5.77531e-05
6.22704e-05
0.000216044
0.000277961
0.000309968
0.000328193
0.000338633
0.00034424
0.000346755
0.000347328
0.000346774
0.000345692
0.000344513
0.000343507
0.000342778
0.000342306
0.000342015
0.000341846
0.000341769
0.000341769
0.000341843
0.000342002
0.000342265
0.000342665
0.000343223
0.000343852
0.000344257
0.000343862
0.000341772
0.000336711
0.000326816
0.000309054
0.000277398
0.000215744
6.2262e-05
6.47074e-05
0.000238209
0.000310003
0.000347713
0.000369405
0.000381841
0.000388358
0.000390943
0.000390955
0.000389433
0.000387221
0.000384982
0.000383146
0.000381872
0.000381078
0.000380589
0.000380304
0.000380173
0.000380172
0.000380299
0.000380571
0.000381019
0.000381712
0.00038275
0.000384072
0.000385282
0.000385582
0.000383775
0.000378256
0.00036682
0.000345988
0.000308947
0.000237668
6.4688e-05
6.60308e-05
0.000250649
0.000328282
0.000369479
0.00039325
0.000406694
0.000413299
0.000415152
0.000413743
0.000410333
0.0004061
0.000402074
0.000398911
0.000396842
0.000395624
0.000394859
0.0003944
0.000394186
0.000394185
0.000394395
0.000394838
0.000395555
0.000396651
0.000398433
0.000400975
0.000403767
0.000405738
0.000405291
0.000400455
0.000388753
0.000366471
0.000326441
0.00024972
6.59892e-05
6.67357e-05
0.000257719
0.000338829
0.000382087
0.00040692
0.000420513
0.000426333
0.000426426
0.000422329
0.000415563
0.000407877
0.000401007
0.000395855
0.000392757
0.000391104
0.000389969
0.000389247
0.00038891
0.00038891
0.000389243
0.000389949
0.000391035
0.000392557
0.000395341
0.000399798
0.000405273
0.000410411
0.000412892
0.000410182
0.000399538
0.000377166
0.000335816
0.0002562
6.66572e-05
6.70927e-05
0.000261574
0.000344647
0.000388962
0.00041405
0.000426997
0.000431064
0.000428054
0.000419354
0.00040678
0.000393282
0.00038244
0.000374722
0.000370648
0.000368868
0.00036723
0.000366114
0.000365607
0.000365607
0.000366113
0.000367216
0.000368809
0.000370467
0.000374229
0.000381223
0.000390556
0.000401256
0.000409171
0.000410612
0.00040257
0.00038139
0.000340025
0.000259237
6.69592e-05
6.72578e-05
0.000263492
0.00034754
0.000392206
0.00041693
0.000428532
0.000429832
0.000421979
0.000405616
0.00038251
0.000358451
0.000344516
0.000335064
0.000331068
0.000330235
0.00032787
0.000326232
0.000325548
0.000325549
0.000326234
0.000327863
0.000330197
0.000330931
0.000334658
0.000343423
0.000355817
0.000376828
0.000394889
0.000403596
0.000400031
0.000381277
0.000340921
0.000260139
6.70527e-05
6.73231e-05
0.000264299
0.000348719
0.000393299
0.000417271
0.000427056
0.000424713
0.000409925
0.000380664
0.000335374
0.000284141
0.000282331
0.000278525
0.000278012
0.000280238
0.000276878
0.000274861
0.000274153
0.000274154
0.000274863
0.000276878
0.000280221
0.000277934
0.000278267
0.000281558
0.000282057
0.000329894
0.000369591
0.000390794
0.000393898
0.000378602
0.000339931
0.000259851
6.70378e-05
6.73417e-05
0.000264545
0.000349034
0.000393351
0.000416497
0.000424438
0.000418203
0.000394764
0.000344156
0.000241903
7.93164e-05
0.000182846
0.000212785
0.000221766
0.000228571
0.000224589
0.000222922
0.000222492
0.000222493
0.000222924
0.000224593
0.000228573
0.000221745
0.000212713
0.000182719
7.90125e-05
0.000237515
0.000333027
0.00037508
0.000386645
0.000375156
0.000338303
0.000259123
6.69849e-05
6.73438e-05
0.000264578
0.000349056
0.000393164
0.000415751
0.00042249
0.000413628
0.000383214
0.000306277
8.21883e-05
6.87036e-05
0.000165569
0.000183995
0.00018733
0.000189745
0.000190567
0.000190751
0.000190752
0.000190572
0.000189753
0.000187338
0.000184001
0.000165568
6.86931e-05
8.13222e-05
0.000295623
0.000363261
0.000381658
0.000372753
0.000337094
0.000258531
6.69441e-05
6.73439e-05
0.000264587
0.000349102
0.000393189
0.000415698
0.000422405
0.00041411
0.000387558
0.000332765
0.000226423
7.4904e-05
0.000145105
0.000160014
0.000161513
0.000154759
0.000163601
0.000166607
0.000167175
0.000167176
0.000166611
0.000163609
0.000154756
0.000161504
0.000159973
0.000144979
7.45788e-05
0.000221977
0.000321421
0.00036754
0.000382094
0.000372567
0.000336891
0.000258374
6.69395e-05
6.73471e-05
0.000264645
0.000349275
0.000393515
0.000416301
0.000423663
0.00041715
0.000395815
0.000356989
0.000298829
0.000233123
0.000207164
0.000183732
0.000174438
0.000169204
0.000171351
0.000172426
0.000172674
0.000172674
0.000172425
0.000171347
0.000169186
0.00017439
0.000183565
0.000206553
0.000231134
0.000293237
0.000345502
0.000375944
0.000385301
0.000373941
0.00033754
0.000258647
6.69677e-05
6.73527e-05
0.000264749
0.000349542
0.000394024
0.000417228
0.000425391
0.000420543
0.000402808
0.000371685
0.000328124
0.000278463
0.000234895
0.000197793
0.00018246
0.000176799
0.000175745
0.000175616
0.000175602
0.000175602
0.000175616
0.000175741
0.000176781
0.000182398
0.000197566
0.000234083
0.000276031
0.000322268
0.000360232
0.000383116
0.000388901
0.000375846
0.000338577
0.000259142
6.70105e-05
6.73586e-05
0.000264868
0.00034983
0.000394561
0.000418165
0.000427003
0.000423326
0.000407626
0.000379847
0.000340848
0.000294329
0.000246744
0.000204507
0.000186137
0.000179434
0.000177385
0.000176841
0.000176721
0.000176722
0.000176842
0.000177383
0.000179418
0.000186071
0.000204259
0.000245871
0.00029178
0.000334931
0.000368445
0.000388064
0.000391844
0.000377605
0.000339612
0.000259665
6.70516e-05
6.73631e-05
0.000264973
0.000350078
0.000395014
0.000418927
0.00042824
0.000425282
0.000410637
0.000384266
0.000346751
0.000300866
0.000251988
0.000207729
0.000187951
0.000180582
0.000178177
0.000177494
0.000177338
0.00017734
0.000177495
0.000178175
0.000180566
0.000187884
0.000207473
0.000251094
0.000298278
0.000340816
0.000372893
0.000391148
0.000393895
0.000378934
0.000340434
0.000260091
6.70823e-05
6.73655e-05
0.000265048
0.000350252
0.000395327
0.000419443
0.000429044
0.000426482
0.000412346
0.000386552
0.00034952
0.000303716
0.000254309
0.000209219
0.000188818
0.000181124
0.000178573
0.000177839
0.000177672
0.000177673
0.000177841
0.000178572
0.000181109
0.000188751
0.000208962
0.00025341
0.000301111
0.000343574
0.000375188
0.000392888
0.000395139
0.000379782
0.000340974
0.000260375
6.71008e-05
6.7366e-05
0.000265086
0.000350341
0.000395486
0.0004197
0.000429435
0.000427047
0.000413116
0.000387529
0.00035064
0.000304817
0.000255192
0.000209803
0.000189162
0.000181337
0.00017873
0.000177978
0.000177807
0.000177809
0.00017798
0.000178729
0.000181322
0.000189095
0.000209546
0.000254302
0.000302206
0.000344687
0.000376166
0.000393668
0.00039572
0.00038019
0.000341238
0.000260515
6.71086e-05
6.7365e-05
0.000265086
0.000350342
0.000395488
0.000419703
0.000429441
0.000427056
0.000413128
0.000387545
0.00035066
0.000304839
0.000255214
0.000209831
0.00018918
0.000181346
0.000178735
0.000177981
0.000177811
0.000177813
0.000177984
0.000178734
0.00018133
0.000189112
0.000209576
0.00025433
0.000302228
0.000344706
0.000376181
0.00039368
0.000395729
0.000380196
0.000341242
0.000260516
6.71073e-05
6.73628e-05
0.000265047
0.000350253
0.000395331
0.000419449
0.000429055
0.000426502
0.000412377
0.000386598
0.00034958
0.000303784
0.000254388
0.00020931
0.000188877
0.000181156
0.000178594
0.000177857
0.000177692
0.000177694
0.00017786
0.000178594
0.000181142
0.000188811
0.000209058
0.000253503
0.00030118
0.000343632
0.000375232
0.000392918
0.00039516
0.000379796
0.000340983
0.000260378
6.70976e-05
6.73592e-05
0.000264967
0.000350071
0.000395006
0.00041892
0.000428239
0.000425294
0.000410671
0.000384331
0.00034685
0.000300992
0.000252158
0.000207906
0.000188068
0.000180657
0.000178233
0.000177546
0.000177393
0.000177396
0.00017755
0.000178235
0.000180646
0.000188008
0.00020766
0.000251275
0.000298404
0.00034091
0.000372953
0.000391178
0.000393907
0.000378938
0.000340434
0.000260088
6.70778e-05
6.73535e-05
0.000264845
0.000349795
0.000394512
0.000418105
0.000426943
0.000423283
0.000407622
0.000379906
0.000340984
0.000294537
0.000247038
0.000204799
0.000186337
0.000179578
0.000177499
0.000176948
0.000176831
0.000176834
0.000176955
0.000177506
0.000179574
0.000186286
0.00020457
0.000246185
0.00029199
0.00033506
0.000368486
0.000388043
0.000391794
0.000377556
0.000339575
0.000259641
6.70456e-05
6.73452e-05
0.000264684
0.000349428
0.000393863
0.000417026
0.00042517
0.000420335
0.000402664
0.00037167
0.000328293
0.000278807
0.00023537
0.000198197
0.000182716
0.000176995
0.000175874
0.000175727
0.000175716
0.000175721
0.000175738
0.000175887
0.000176999
0.000182675
0.000198
0.000234601
0.000276389
0.000322428
0.000360166
0.000382913
0.000388663
0.000375639
0.00033843
0.000259059
6.70011e-05
6.73336e-05
0.000264478
0.000348976
0.000393092
0.000415771
0.000423059
0.000416533
0.000395292
0.000356731
0.000299031
0.000233695
0.000207843
0.000183986
0.000174371
0.000169053
0.00017103
0.000172067
0.000172319
0.000172324
0.000172079
0.000171042
0.00016904
0.000174305
0.000183812
0.000207291
0.000231756
0.000293447
0.000345094
0.000375241
0.000384581
0.00037335
0.000337127
0.000258419
6.69499e-05
6.73161e-05
0.000264192
0.000348403
0.000392212
0.000414473
0.000420982
0.00041258
0.000386108
0.000331805
0.000226744
7.50169e-05
0.000145195
0.000158367
0.000159024
0.000151874
0.000160467
0.000163452
0.000164026
0.000164022
0.000163432
0.000160404
0.000151683
0.000158687
0.00015794
0.000145102
7.46822e-05
0.000222351
0.000320012
0.00036559
0.00038028
0.000371139
0.000335908
0.000257831
6.69023e-05
6.7283e-05
0.000263709
0.000347551
0.000391098
0.000413178
0.000419463
0.000410228
0.000379654
0.000303268
8.16823e-05
6.7142e-05
0.000157387
0.000173653
0.000175591
0.000177946
0.000178903
0.000179151
0.000179129
0.000178805
0.000177662
0.00017489
0.000172306
0.000155437
6.65412e-05
8.04828e-05
0.000291152
0.000358437
0.000377599
0.000369687
0.000334998
0.000257363
6.68652e-05
6.72097e-05
0.000262747
0.000346012
0.000389294
0.000411503
0.000418539
0.00041137
0.000386947
0.000335521
0.000233691
7.68165e-05
0.000164236
0.000188572
0.00019233
0.000195134
0.000191604
0.000190457
0.00019024
0.000190185
0.000190215
0.000190888
0.000193322
0.000188374
0.000181457
0.000156622
7.50885e-05
0.000224474
0.000320116
0.000364504
0.00037854
0.000369218
0.000334234
0.000256812
6.68227e-05
6.7045e-05
0.000260793
0.000343015
0.00038583
0.000408235
0.000416469
0.00041236
0.000395274
0.000362768
0.000312766
0.000254896
0.000240596
0.000224831
0.000210446
0.00020443
0.000200896
0.000199635
0.000199289
0.000199201
0.000199235
0.000199648
0.00020095
0.000201781
0.000207118
0.000220886
0.000237271
0.000295109
0.000343548
0.000371506
0.000379645
0.000368176
0.000332655
0.000255602
6.67167e-05
6.66957e-05
0.000257005
0.00033732
0.000379169
0.000401493
0.000410765
0.000409379
0.000397864
0.000375958
0.000344177
0.000306948
0.000274356
0.000241411
0.00021056
0.000198166
0.000193695
0.000192239
0.000191811
0.000191705
0.000191747
0.000192099
0.00019341
0.000197383
0.000209967
0.000242434
0.000279189
0.000320456
0.000353886
0.000373451
0.000377492
0.000364363
0.000328709
0.000252739
6.6438e-05
6.6002e-05
0.000250064
0.000327044
0.000367056
0.0003887
0.000398489
0.000399073
0.000391422
0.000375756
0.000352356
0.000322569
0.000289056
0.000252837
0.000218491
0.000204145
0.000198968
0.000197245
0.000196718
0.000196594
0.000196679
0.000197156
0.000198817
0.000203952
0.000218628
0.000254121
0.000292115
0.000327042
0.000353381
0.000367937
0.000369229
0.000355221
0.000320292
0.000246783
6.58159e-05
6.46899e-05
0.000237773
0.000309092
0.000345908
0.00036596
0.000375541
0.000377325
0.000372426
0.000361189
0.000343724
0.000320496
0.000292876
0.000263332
0.000237165
0.000224163
0.000218834
0.00021689
0.000216248
0.000216098
0.000216233
0.000216857
0.000218794
0.000224172
0.000237446
0.000264139
0.000294193
0.000321369
0.00034137
0.000351756
0.000351051
0.000337054
0.000304182
0.000235448
6.45692e-05
6.22627e-05
0.000215748
0.000277371
0.000308791
0.000325897
0.000334339
0.00033657
0.000333677
0.000326046
0.000313784
0.000297171
0.000277225
0.000256222
0.000238175
0.000227986
0.000223329
0.000221456
0.000220784
0.000220623
0.00022079
0.000221469
0.000223359
0.000228073
0.000238405
0.000256657
0.000277682
0.000296811
0.000310739
0.000317464
0.000315546
0.000302832
0.000274193
0.000214294
6.21963e-05
5.77556e-05
0.000172117
0.000215718
0.000237565
0.000249387
0.000255308
0.000257151
0.000255752
0.00025143
0.000244281
0.00023449
0.000222705
0.000210395
0.000199881
0.000193458
0.000190283
0.000188925
0.000188415
0.000188293
0.00018843
0.000188956
0.000190337
0.000193552
0.000200052
0.000210651
0.000222899
0.000234075
0.000242122
0.000245685
0.000243666
0.000234413
0.000214127
0.000171426
5.77304e-05
5.00049e-05
5.77554e-05
6.22654e-05
6.46903e-05
6.59823e-05
6.66197e-05
6.68462e-05
6.67788e-05
6.6461e-05
6.58983e-05
6.50952e-05
6.4097e-05
6.30299e-05
6.21038e-05
6.15164e-05
6.12195e-05
6.10913e-05
6.10427e-05
6.10308e-05
6.10437e-05
6.10931e-05
6.12222e-05
6.15209e-05
6.21124e-05
6.30443e-05
6.4108e-05
6.50605e-05
6.5716e-05
6.59439e-05
6.56139e-05
6.45087e-05
6.21867e-05
5.77286e-05
5.00068e-05
5.28134e-05
6.34692e-05
6.95088e-05
7.28001e-05
7.46298e-05
7.56304e-05
7.61467e-05
7.63812e-05
7.64565e-05
7.64473e-05
7.64001e-05
7.63434e-05
7.62933e-05
7.62563e-05
7.62318e-05
7.62165e-05
7.62075e-05
7.62033e-05
7.62032e-05
7.62071e-05
7.62155e-05
7.62292e-05
7.62496e-05
7.62765e-05
7.63026e-05
7.63061e-05
7.62417e-05
7.60305e-05
7.5543e-05
7.45701e-05
7.27632e-05
6.94883e-05
6.34599e-05
5.28137e-05
6.34695e-05
0.000229141
0.000297281
0.000332335
0.000352205
0.000363581
0.000369747
0.000372627
0.00037347
0.000373136
0.000372234
0.000371184
0.000370254
0.000369553
0.000369081
0.000368782
0.000368606
0.000368524
0.000368523
0.000368601
0.000368765
0.000369034
0.000369429
0.000369949
0.000370482
0.000370715
0.000370048
0.000367552
0.000361865
0.000350961
0.000331489
0.000296738
0.000228837
6.346e-05
6.95121e-05
0.000297333
0.00040058
0.000455286
0.000486752
0.000504917
0.000514733
0.000519124
0.000520041
0.000518897
0.000516764
0.000514442
0.000512449
0.000511
0.000510055
0.000509467
0.000509125
0.000508968
0.000508966
0.000509115
0.000509435
0.000509963
0.000510759
0.000511868
0.000513133
0.000514005
0.00051344
0.000509866
0.000501092
0.000483969
0.0004534
0.000399399
0.000296724
6.94901e-05
7.28071e-05
0.000332435
0.000455354
0.000521768
0.000560343
0.000582577
0.000594253
0.000598824
0.000598668
0.000595629
0.00059125
0.000586796
0.000583127
0.000580584
0.000578999
0.000578012
0.000577433
0.000577166
0.000577164
0.00057742
0.000577968
0.000578869
0.000580246
0.000582316
0.000584985
0.000587483
0.000588301
0.000585258
0.000575508
0.000555193
0.00051828
0.000453192
0.000331357
7.27627e-05
7.46415e-05
0.000352364
0.000486934
0.000560498
0.000603344
0.00062767
0.000639596