/*--------------------------------*- C++ -*----------------------------------*\
| =========                 |                                                 |
| \\      /  F ield         | OpenFOAM: The Open Source CFD Toolbox           |
|  \\    /   O peration     | Version:  2112                                  |
|   \\  /    A nd           | Website:  www.openfoam.com                      |
|    \\/     M anipulation  |                                                 |
\*---------------------------------------------------------------------------*/
FoamFile
{
    version     2.0;
    format      ascii;
    arch        "LSB;label=32;scalar=64";
    class       volScalarField;
    location    "5";
    object      p;
}
// * * * * * * * * * * * * * * * * * * * * * * * * * * * * * * * * * * * * * //

dimensions      [0 2 -2 0 0 0 0];

internalField   nonuniform List<scalar> 
64906
(
-4.30473e-06
-4.28781e-06
-4.27773e-06
-4.27881e-06
-4.29942e-06
-4.3385e-06
-4.39902e-06
-4.48186e-06
-4.58584e-06
-4.70829e-06
-4.84306e-06
-4.98433e-06
-5.1232e-06
-5.26149e-06
-5.37585e-06
-5.4657e-06
-5.53174e-06
-5.57329e-06
-5.58987e-06
-5.58159e-06
-5.54915e-06
-5.49306e-06
-5.41121e-06
-5.31212e-06
-5.212e-06
-5.11108e-06
-5.0185e-06
-4.93957e-06
-4.87983e-06
-4.84058e-06
-4.82015e-06
-4.82144e-06
-4.8356e-06
-4.84974e-06
-4.25591e-06
-4.20073e-06
-4.15218e-06
-4.11626e-06
-4.10229e-06
-4.10951e-06
-4.13668e-06
-4.18209e-06
-4.24274e-06
-4.31537e-06
-4.39378e-06
-4.47459e-06
-4.55084e-06
-4.61528e-06
-4.67742e-06
-4.73194e-06
-4.77394e-06
-4.80272e-06
-4.81796e-06
-4.81982e-06
-4.80901e-06
-4.7869e-06
-4.7607e-06
-4.7294e-06
-4.6893e-06
-4.64635e-06
-4.60794e-06
-4.57768e-06
-4.5624e-06
-4.56607e-06
-4.59258e-06
-4.64431e-06
-4.70851e-06
-4.78085e-06
-4.22778e-06
-4.13982e-06
-4.05029e-06
-3.9707e-06
-3.91996e-06
-3.89717e-06
-3.9008e-06
-3.92876e-06
-3.97741e-06
-4.04406e-06
-4.1197e-06
-4.20084e-06
-4.27262e-06
-4.33509e-06
-4.3864e-06
-4.42887e-06
-4.46129e-06
-4.48458e-06
-4.49888e-06
-4.50435e-06
-4.50121e-06
-4.48894e-06
-4.46932e-06
-4.43916e-06
-4.40187e-06
-4.35781e-06
-4.32329e-06
-4.30279e-06
-4.3075e-06
-4.34211e-06
-4.41124e-06
-4.51996e-06
-4.63874e-06
-4.75316e-06
-4.22317e-06
-4.1048e-06
-3.97541e-06
-3.85351e-06
-3.77086e-06
-3.72684e-06
-3.72154e-06
-3.75479e-06
-3.82416e-06
-3.92922e-06
-4.05526e-06
-4.19636e-06
-4.31499e-06
-4.4134e-06
-4.48469e-06
-4.53836e-06
-4.57574e-06
-4.60062e-06
-4.61393e-06
-4.61578e-06
-4.60554e-06
-4.57969e-06
-4.53745e-06
-4.46958e-06
-4.3844e-06
-4.28054e-06
-4.19857e-06
-4.14578e-06
-4.14062e-06
-4.18662e-06
-4.28769e-06
-4.44473e-06
-4.61451e-06
-4.7687e-06
-4.25663e-06
-4.11204e-06
-3.94994e-06
-3.79613e-06
-3.694e-06
-3.64578e-06
-3.65529e-06
-3.72716e-06
-3.86316e-06
-4.0695e-06
-4.32342e-06
-4.61754e-06
-4.85497e-06
-5.04389e-06
-5.17326e-06
-5.26617e-06
-5.32642e-06
-5.36194e-06
-5.37451e-06
-5.36415e-06
-5.32934e-06
-5.26226e-06
-5.1599e-06
-4.99978e-06
-4.7952e-06
-4.53897e-06
-4.33364e-06
-4.18717e-06
-4.12761e-06
-4.15254e-06
-4.26078e-06
-4.45242e-06
-4.65968e-06
-4.84786e-06
-4.331e-06
-4.16089e-06
-3.97093e-06
-3.79514e-06
-3.68594e-06
-3.65075e-06
-3.69843e-06
-3.84117e-06
-4.08869e-06
-4.46153e-06
-4.93173e-06
-5.50938e-06
-5.94625e-06
-6.28182e-06
-6.504e-06
-6.66209e-06
-6.76169e-06
-6.81637e-06
-6.82849e-06
-6.79797e-06
-6.72256e-06
-6.58862e-06
-6.39153e-06
-6.08277e-06
-5.67812e-06
-5.13862e-06
-4.72341e-06
-4.41872e-06
-4.26047e-06
-4.23306e-06
-4.3283e-06
-4.53382e-06
-4.77225e-06
-4.99374e-06
-4.44892e-06
-4.2476e-06
-4.03188e-06
-3.84114e-06
-3.73561e-06
-3.72824e-06
-3.83305e-06
-4.07109e-06
-4.46378e-06
-5.06305e-06
-5.82345e-06
-6.89656e-06
-7.60652e-06
-8.13302e-06
-8.46922e-06
-8.70963e-06
-8.85912e-06
-8.93875e-06
-8.95073e-06
-8.89484e-06
-8.76877e-06
-8.55102e-06
-8.23787e-06
-7.73537e-06
-7.05698e-06
-6.01993e-06
-5.32504e-06
-4.80177e-06
-4.51078e-06
-4.40673e-06
-4.47161e-06
-4.68054e-06
-4.94654e-06
-5.20486e-06
-4.60031e-06
-4.36503e-06
-4.12467e-06
-3.92438e-06
-3.83285e-06
-3.86725e-06
-4.04487e-06
-4.3907e-06
-4.94036e-06
-5.77829e-06
-6.82955e-06
-8.80241e-06
-9.79771e-06
-1.05479e-05
-1.10126e-05
-1.13525e-05
-1.1563e-05
-1.16737e-05
-1.16858e-05
-1.1599e-05
-1.14115e-05
-1.10931e-05
-1.06493e-05
-9.91871e-06
-8.95404e-06
-7.00804e-06
-6.04334e-06
-5.28659e-06
-4.84932e-06
-4.6554e-06
-4.67616e-06
-4.88088e-06
-5.17367e-06
-5.47888e-06
-4.78117e-06
-4.50525e-06
-4.23888e-06
-4.03226e-06
-3.96301e-06
-4.04989e-06
-4.30868e-06
-4.75865e-06
-5.39146e-06
-6.34539e-06
-7.73375e-06
-1.13435e-05
-1.23419e-05
-1.32868e-05
-1.38607e-05
-1.42834e-05
-1.45447e-05
-1.46825e-05
-1.46948e-05
-1.45811e-05
-1.43429e-05
-1.39409e-05
-1.33862e-05
-1.24534e-05
-1.14842e-05
-7.89414e-06
-6.6484e-06
-5.75437e-06
-5.23452e-06
-4.95088e-06
-4.92016e-06
-5.11695e-06
-5.4384e-06
-5.80743e-06
-4.98427e-06
-4.65916e-06
-4.3702e-06
-4.16246e-06
-4.13068e-06
-4.2945e-06
-4.67188e-06
-5.26674e-06
-6.08686e-06
-8.18548e-06
-6.43807e-06
-1.38414e-05
-1.48221e-05
-1.61475e-05
-1.68808e-05
-1.74335e-05
-1.77735e-05
-1.79504e-05
-1.79627e-05
-1.78101e-05
-1.74936e-05
-1.69617e-05
-1.62483e-05
-1.49324e-05
-1.40021e-05
-6.51623e-06
-8.44753e-06
-6.41114e-06
-5.74027e-06
-5.33009e-06
-5.2137e-06
-5.38707e-06
-5.72756e-06
-6.17582e-06
-5.19912e-06
-4.8182e-06
-4.50392e-06
-4.29706e-06
-4.3104e-06
-4.56186e-06
-5.02615e-06
-5.54829e-06
-6.04786e-06
-4.11329e-06
-2.02495e-05
-1.80027e-05
-1.87923e-05
-1.94128e-05
-1.9964e-05
-2.03282e-05
-2.05144e-05
-2.05263e-05
-2.03637e-05
-2.00223e-05
-1.94914e-05
-1.88866e-05
-1.80993e-05
-2.02822e-05
-4.67066e-06
-6.49156e-06
-6.05318e-06
-5.69715e-06
-5.51763e-06
-5.65882e-06
-6.0207e-06
-6.56624e-06
-5.41735e-06
-4.97763e-06
-4.63956e-06
-4.44293e-06
-4.53243e-06
-4.96771e-06
-5.83496e-06
-7.24679e-06
-9.53279e-06
-1.23485e-05
-1.83579e-05
-1.70712e-05
-1.92731e-05
-2.07361e-05
-2.18005e-05
-2.26013e-05
-2.30931e-05
-2.33277e-05
-2.33391e-05
-2.31275e-05
-2.26593e-05
-2.18827e-05
-2.08442e-05
-1.94134e-05
-1.72434e-05
-1.86001e-05
-1.25849e-05
-9.82911e-06
-7.66187e-06
-6.46105e-06
-5.92792e-06
-5.95527e-06
-6.31457e-06
-6.97032e-06
-5.62581e-06
-5.12809e-06
-4.76104e-06
-4.5625e-06
-4.69721e-06
-5.23496e-06
-6.26238e-06
-7.83726e-06
-1.00168e-05
-1.24627e-05
-1.65364e-05
-1.86543e-05
-2.04024e-05
-2.19086e-05
-2.30909e-05
-2.39392e-05
-2.44657e-05
-2.47175e-05
-2.47281e-05
-2.44976e-05
-2.39927e-05
-2.31666e-05
-2.2008e-05
-2.05223e-05
-1.87865e-05
-1.67158e-05
-1.26902e-05
-1.02797e-05
-8.21362e-06
-6.86595e-06
-6.20988e-06
-6.19547e-06
-6.57431e-06
-7.36031e-06
-5.81697e-06
-5.26714e-06
-4.8706e-06
-4.66387e-06
-4.82605e-06
-5.43111e-06
-6.56522e-06
-8.28256e-06
-1.06293e-05
-1.34237e-05
-1.67402e-05
-1.9152e-05
-2.12063e-05
-2.28237e-05
-2.40607e-05
-2.49027e-05
-2.54173e-05
-2.56596e-05
-2.56691e-05
-2.5446e-05
-2.49513e-05
-2.41301e-05
-2.2916e-05
-2.13197e-05
-1.92907e-05
-1.68979e-05
-1.35982e-05
-1.08492e-05
-8.62664e-06
-7.15615e-06
-6.42939e-06
-6.40419e-06
-6.82142e-06
-7.70254e-06
-5.98258e-06
-5.38872e-06
-4.96222e-06
-4.73894e-06
-4.9067e-06
-5.53859e-06
-6.71415e-06
-8.47997e-06
-1.08529e-05
-1.3672e-05
-1.67614e-05
-1.94302e-05
-2.16866e-05
-2.33525e-05
-2.45992e-05
-2.54157e-05
-2.59058e-05
-2.61328e-05
-2.61414e-05
-2.59318e-05
-2.54597e-05
-2.46624e-05
-2.34375e-05
-2.17914e-05
-1.95592e-05
-1.69002e-05
-1.38244e-05
-1.10511e-05
-8.8089e-06
-7.30716e-06
-6.57022e-06
-6.56574e-06
-7.02902e-06
-7.99244e-06
-6.11866e-06
-5.49048e-06
-5.03776e-06
-4.79652e-06
-4.96068e-06
-5.60187e-06
-6.79407e-06
-8.58005e-06
-1.09638e-05
-1.38026e-05
-1.68585e-05
-1.96562e-05
-2.20157e-05
-2.37184e-05
-2.4968e-05
-2.5762e-05
-2.62294e-05
-2.6442e-05
-2.645e-05
-2.62537e-05
-2.58033e-05
-2.50276e-05
-2.37992e-05
-2.21159e-05
-1.978e-05
-1.69872e-05
-1.39426e-05
-1.11504e-05
-8.90411e-06
-7.39704e-06
-6.66914e-06
-6.69271e-06
-7.19668e-06
-8.22738e-06
-6.22223e-06
-5.56942e-06
-5.09596e-06
-4.83843e-06
-4.995e-06
-5.63621e-06
-6.83281e-06
-8.62703e-06
-1.10184e-05
-1.38789e-05
-1.69527e-05
-1.98208e-05
-2.22511e-05
-2.39823e-05
-2.52357e-05
-2.60174e-05
-2.64714e-05
-2.66754e-05
-2.66834e-05
-2.64955e-05
-2.60584e-05
-2.52949e-05
-2.4063e-05
-2.23526e-05
-1.99497e-05
-1.70795e-05
-1.40143e-05
-1.1201e-05
-8.95246e-06
-7.44867e-06
-6.73549e-06
-6.78561e-06
-7.32088e-06
-8.40461e-06
-6.29233e-06
-5.62446e-06
-5.13757e-06
-4.86902e-06
-5.01994e-06
-5.66073e-06
-6.86115e-06
-8.66416e-06
-1.10682e-05
-1.39523e-05
-1.7052e-05
-1.99493e-05
-2.24433e-05
-2.42004e-05
-2.54623e-05
-2.62426e-05
-2.66927e-05
-2.68941e-05
-2.69026e-05
-2.67184e-05
-2.62861e-05
-2.55248e-05
-2.42854e-05
-2.25526e-05
-2.01063e-05
-1.71844e-05
-1.4088e-05
-1.12509e-05
-8.99303e-06
-7.48793e-06
-6.78308e-06
-6.84998e-06
-7.40396e-06
-8.52347e-06
-6.32877e-06
-5.65507e-06
-5.16264e-06
-4.88958e-06
-5.03873e-06
-5.68116e-06
-6.88754e-06
-8.70188e-06
-1.11233e-05
-1.40314e-05
-1.71587e-05
-2.00858e-05
-2.26036e-05
-2.43784e-05
-2.56517e-05
-2.64393e-05
-2.68938e-05
-2.70978e-05
-2.71073e-05
-2.69227e-05
-2.64879e-05
-2.57208e-05
-2.44713e-05
-2.27217e-05
-2.0251e-05
-1.72968e-05
-1.41704e-05
-1.13086e-05
-9.03467e-06
-7.52138e-06
-6.81567e-06
-6.88785e-06
-7.45092e-06
-8.58004e-06
-6.332e-06
-5.66163e-06
-5.17149e-06
-4.90035e-06
-5.05161e-06
-5.69779e-06
-6.91173e-06
-8.73899e-06
-1.11813e-05
-1.41135e-05
-1.72695e-05
-2.02055e-05
-2.27309e-05
-2.45157e-05
-2.58011e-05
-2.66034e-05
-2.70695e-05
-2.72809e-05
-2.7292e-05
-2.71032e-05
-2.66595e-05
-2.58802e-05
-2.46199e-05
-2.28606e-05
-2.03837e-05
-1.74152e-05
-1.42586e-05
-1.13716e-05
-9.07607e-06
-7.54865e-06
-6.83341e-06
-6.89877e-06
-7.45489e-06
-8.58463e-06
-6.3036e-06
-5.64583e-06
-5.16502e-06
-4.90075e-06
-5.05549e-06
-5.70382e-06
-6.92316e-06
-8.76202e-06
-1.12288e-05
-1.41884e-05
-1.73912e-05
-2.03482e-05
-2.28299e-05
-2.46126e-05
-2.59103e-05
-2.67348e-05
-2.72201e-05
-2.74438e-05
-2.74572e-05
-2.72605e-05
-2.68017e-05
-2.60036e-05
-2.47326e-05
-2.29724e-05
-2.05144e-05
-1.75455e-05
-1.43451e-05
-1.14302e-05
-9.10809e-06
-7.56406e-06
-6.83456e-06
-6.88496e-06
-7.426e-06
-8.52995e-06
-6.24567e-06
-5.60968e-06
-5.14334e-06
-4.8874e-06
-5.04111e-06
-5.68087e-06
-6.89016e-06
-8.72332e-06
-1.12044e-05
-1.41903e-05
-1.74984e-05
-2.04391e-05
-2.28602e-05
-2.46244e-05
-2.59263e-05
-2.6777e-05
-2.72874e-05
-2.75277e-05
-2.75442e-05
-2.73368e-05
-2.68586e-05
-2.60396e-05
-2.47678e-05
-2.30271e-05
-2.06232e-05
-1.76685e-05
-1.43669e-05
-1.14274e-05
-9.08893e-06
-7.54225e-06
-6.80721e-06
-6.84306e-06
-7.36114e-06
-8.42237e-06
-6.16271e-06
-5.55749e-06
-5.10943e-06
-4.86115e-06
-5.00578e-06
-5.62008e-06
-6.79345e-06
-8.58959e-06
-1.10752e-05
-1.40965e-05
-1.76688e-05
-2.05132e-05
-2.28007e-05
-2.45357e-05
-2.58337e-05
-2.67125e-05
-2.72493e-05
-2.75076e-05
-2.75287e-05
-2.73128e-05
-2.68177e-05
-2.59806e-05
-2.47204e-05
-2.3015e-05
-2.07353e-05
-1.78718e-05
-1.43237e-05
-1.13461e-05
-8.99575e-06
-7.4725e-06
-6.75041e-06
-6.77854e-06
-7.27035e-06
-8.26592e-06
-6.05985e-06
-5.49245e-06
-5.06264e-06
-4.81518e-06
-4.93129e-06
-5.48196e-06
-6.55145e-06
-8.19231e-06
-1.04529e-05
-1.30675e-05
-1.76577e-05
-2.08541e-05
-2.26062e-05
-2.41864e-05
-2.54219e-05
-2.63056e-05
-2.68581e-05
-2.71316e-05
-2.71593e-05
-2.69419e-05
-2.6445e-05
-2.56196e-05
-2.44377e-05
-2.2908e-05
-2.1184e-05
-1.78983e-05
-1.33355e-05
-1.07787e-05
-8.66307e-06
-7.28185e-06
-6.63319e-06
-6.68286e-06
-7.16797e-06
-8.0549e-06
-5.94709e-06
-5.42244e-06
-5.01239e-06
-4.76407e-06
-4.84248e-06
-5.31074e-06
-6.26414e-06
-7.82853e-06
-1.03591e-05
-1.36811e-05
-1.89638e-05
-1.9362e-05
-2.19318e-05
-2.37521e-05
-2.49597e-05
-2.58531e-05
-2.64084e-05
-2.66866e-05
-2.67263e-05
-2.65299e-05
-2.60567e-05
-2.52499e-05
-2.41142e-05
-2.23621e-05
-1.9821e-05
-1.91659e-05
-1.4193e-05
-1.08792e-05
-8.44244e-06
-7.0843e-06
-6.50044e-06
-6.5761e-06
-7.0428e-06
-7.84748e-06
-5.83189e-06
-5.35022e-06
-4.95687e-06
-4.69909e-06
-4.71146e-06
-5.00457e-06
-5.51854e-06
-6.00092e-06
-6.37893e-06
-3.39818e-06
-2.5392e-05
-2.21328e-05
-2.29716e-05
-2.36814e-05
-2.43305e-05
-2.47813e-05
-2.50304e-05
-2.50834e-05
-2.49453e-05
-2.46102e-05
-2.40924e-05
-2.34933e-05
-2.27859e-05
-2.5996e-05
-3.88431e-06
-6.99343e-06
-6.71503e-06
-6.43221e-06
-6.24311e-06
-6.42851e-06
-6.90253e-06
-7.63484e-06
-5.72848e-06
-5.28767e-06
-4.91831e-06
-4.67096e-06
-4.6763e-06
-4.97668e-06
-5.64019e-06
-6.75649e-06
-8.56829e-06
-1.14925e-05
-1.21906e-05
-1.79048e-05
-1.97269e-05
-2.14858e-05
-2.26127e-05
-2.34684e-05
-2.40245e-05
-2.43334e-05
-2.44066e-05
-2.4253e-05
-2.38621e-05
-2.31964e-05
-2.22237e-05
-2.06827e-05
-1.89268e-05
-1.37601e-05
-1.27967e-05
-9.70466e-06
-7.7673e-06
-6.69049e-06
-6.2548e-06
-6.36272e-06
-6.78619e-06
-7.45357e-06
-5.64317e-06
-5.23934e-06
-4.89527e-06
-4.66072e-06
-4.65387e-06
-4.91328e-06
-5.48128e-06
-6.38776e-06
-7.64395e-06
-9.23858e-06
-1.25703e-05
-1.65683e-05
-1.83e-05
-1.99233e-05
-2.10948e-05
-2.19917e-05
-2.25726e-05
-2.28997e-05
-2.29864e-05
-2.28468e-05
-2.24702e-05
-2.18193e-05
-2.08415e-05
-1.94796e-05
-1.78046e-05
-1.40345e-05
-1.04111e-05
-8.75551e-06
-7.44203e-06
-6.57722e-06
-6.1977e-06
-6.29179e-06
-6.68202e-06
-7.30109e-06
-5.58498e-06
-5.21796e-06
-4.90726e-06
-4.69771e-06
-4.69483e-06
-4.93683e-06
-5.47395e-06
-6.36789e-06
-7.71282e-06
-9.54792e-06
-1.18836e-05
-1.46564e-05
-1.6658e-05
-1.83431e-05
-1.95693e-05
-2.05081e-05
-2.11085e-05
-2.14433e-05
-2.15345e-05
-2.14e-05
-2.10237e-05
-2.03681e-05
-1.93748e-05
-1.79988e-05
-1.61427e-05
-1.34812e-05
-1.10342e-05
-9.01522e-06
-7.52513e-06
-6.60861e-06
-6.20947e-06
-6.27145e-06
-6.6179e-06
-7.18338e-06
-5.55333e-06
-5.23106e-06
-4.96373e-06
-4.78988e-06
-4.7994e-06
-5.02424e-06
-5.50664e-06
-6.29794e-06
-7.45597e-06
-9.01998e-06
-1.09681e-05
-1.31337e-05
-1.50005e-05
-1.66214e-05
-1.78179e-05
-1.87202e-05
-1.92936e-05
-1.96126e-05
-1.97027e-05
-1.95831e-05
-1.92368e-05
-1.86282e-05
-1.76913e-05
-1.64035e-05
-1.46785e-05
-1.25616e-05
-1.04894e-05
-8.75517e-06
-7.46159e-06
-6.63687e-06
-6.26465e-06
-6.30424e-06
-6.60552e-06
-7.12381e-06
-5.56745e-06
-5.28903e-06
-5.07947e-06
-4.95859e-06
-4.99865e-06
-5.22319e-06
-5.66152e-06
-6.34923e-06
-7.32362e-06
-8.6017e-06
-1.0149e-05
-1.18522e-05
-1.34438e-05
-1.48773e-05
-1.59646e-05
-1.67796e-05
-1.73028e-05
-1.75955e-05
-1.76819e-05
-1.75788e-05
-1.72711e-05
-1.67294e-05
-1.58974e-05
-1.4767e-05
-1.32945e-05
-1.16223e-05
-9.97695e-06
-8.5604e-06
-7.47606e-06
-6.76372e-06
-6.42131e-06
-6.42629e-06
-6.6639e-06
-7.11901e-06
-5.6114e-06
-5.39313e-06
-5.2616e-06
-5.21798e-06
-5.3116e-06
-5.55776e-06
-5.97816e-06
-6.59563e-06
-7.42883e-06
-8.4784e-06
-9.70884e-06
-1.1047e-05
-1.23415e-05
-1.35212e-05
-1.44415e-05
-1.51357e-05
-1.55907e-05
-1.58489e-05
-1.59282e-05
-1.58413e-05
-1.55769e-05
-1.5115e-05
-1.44174e-05
-1.34853e-05
-1.23037e-05
-1.10004e-05
-9.71436e-06
-8.57787e-06
-7.67696e-06
-7.05251e-06
-6.71567e-06
-6.65756e-06
-6.79871e-06
-7.16774e-06
-5.66846e-06
-5.52088e-06
-5.46875e-06
-5.50495e-06
-5.66401e-06
-5.95891e-06
-6.4043e-06
-7.01094e-06
-7.78218e-06
-8.70851e-06
-9.76576e-06
-1.08937e-05
-1.19886e-05
-1.29872e-05
-1.37897e-05
-1.44039e-05
-1.48191e-05
-1.50591e-05
-1.51345e-05
-1.50532e-05
-1.48084e-05
-1.43891e-05
-1.3775e-05
-1.29731e-05
-1.1987e-05
-1.09103e-05
-9.83399e-06
-8.86792e-06
-8.06885e-06
-7.47509e-06
-7.10509e-06
-6.96079e-06
-6.99742e-06
-7.23442e-06
-5.71568e-06
-5.65531e-06
-5.67395e-06
-5.7778e-06
-6.0008e-06
-6.36084e-06
-6.87338e-06
-7.54948e-06
-8.39083e-06
-9.38146e-06
-1.04721e-05
-1.16068e-05
-1.27052e-05
-1.37083e-05
-1.45378e-05
-1.51853e-05
-1.56356e-05
-1.58983e-05
-1.5979e-05
-1.5882e-05
-1.56039e-05
-1.51391e-05
-1.44806e-05
-1.36436e-05
-1.26472e-05
-1.15714e-05
-1.04973e-05
-9.49773e-06
-8.64784e-06
-7.99081e-06
-7.5421e-06
-7.29839e-06
-7.22125e-06
-7.30619e-06
-4.34861e-06
-4.35102e-06
-4.36117e-06
-4.37984e-06
-4.41158e-06
-4.46492e-06
-4.54232e-06
-4.64518e-06
-4.77244e-06
-4.92142e-06
-5.08456e-06
-5.25526e-06
-5.42182e-06
-5.57801e-06
-5.71202e-06
-5.81945e-06
-5.89759e-06
-5.94542e-06
-5.96235e-06
-5.9485e-06
-5.90478e-06
-5.83239e-06
-5.73438e-06
-5.61654e-06
-5.49005e-06
-5.3612e-06
-5.24172e-06
-5.1376e-06
-5.05544e-06
-4.99633e-06
-4.95971e-06
-4.93533e-06
-4.91851e-06
-4.90686e-06
-4.31067e-06
-4.29047e-06
-4.28126e-06
-4.27679e-06
-4.28872e-06
-4.32099e-06
-4.37556e-06
-4.45234e-06
-4.54787e-06
-4.65897e-06
-4.77632e-06
-4.89743e-06
-5.01247e-06
-5.11985e-06
-5.2137e-06
-5.292e-06
-5.35037e-06
-5.38806e-06
-5.40435e-06
-5.39939e-06
-5.37428e-06
-5.33016e-06
-5.27203e-06
-5.201e-06
-5.12417e-06
-5.043e-06
-4.9676e-06
-4.90034e-06
-4.85036e-06
-4.82012e-06
-4.81099e-06
-4.81946e-06
-4.83155e-06
-4.85135e-06
-4.29688e-06
-4.27209e-06
-4.25369e-06
-4.23021e-06
-4.22671e-06
-4.24938e-06
-4.30186e-06
-4.38532e-06
-4.49568e-06
-4.63232e-06
-4.77915e-06
-4.93795e-06
-5.08065e-06
-5.21268e-06
-5.32056e-06
-5.40814e-06
-5.47095e-06
-5.51055e-06
-5.52639e-06
-5.51859e-06
-5.48807e-06
-5.43358e-06
-5.36009e-06
-5.26358e-06
-5.15859e-06
-5.0399e-06
-4.93686e-06
-4.84783e-06
-4.78975e-06
-4.76285e-06
-4.76798e-06
-4.79866e-06
-4.82108e-06
-4.84222e-06
-4.30639e-06
-4.26945e-06
-4.23603e-06
-4.19137e-06
-4.17394e-06
-4.19357e-06
-4.25707e-06
-4.36914e-06
-4.52605e-06
-4.73331e-06
-4.96222e-06
-5.22334e-06
-5.44562e-06
-5.64735e-06
-5.80125e-06
-5.92153e-06
-6.00291e-06
-6.05132e-06
-6.06655e-06
-6.04867e-06
-5.9982e-06
-5.90945e-06
-5.78833e-06
-5.62087e-06
-5.43598e-06
-5.21575e-06
-5.03425e-06
-4.88092e-06
-4.78664e-06
-4.7456e-06
-4.75682e-06
-4.80729e-06
-4.84476e-06
-4.8763e-06
-4.3538e-06
-4.30097e-06
-4.25423e-06
-4.19515e-06
-4.17402e-06
-4.2053e-06
-4.30028e-06
-4.46976e-06
-4.71164e-06
-5.04532e-06
-5.42108e-06
-5.87468e-06
-6.23796e-06
-6.56181e-06
-6.79559e-06
-6.97368e-06
-7.08857e-06
-7.15338e-06
-7.16811e-06
-7.13271e-06
-7.04748e-06
-6.89932e-06
-6.69673e-06
-6.40564e-06
-6.07957e-06
-5.66792e-06
-5.34469e-06
-5.07251e-06
-4.90519e-06
-4.82275e-06
-4.8212e-06
-4.87937e-06
-4.92675e-06
-4.97439e-06
-4.44231e-06
-4.36883e-06
-4.31064e-06
-4.24465e-06
-4.231e-06
-4.28912e-06
-4.43512e-06
-4.68772e-06
-5.04742e-06
-5.56034e-06
-6.15085e-06
-6.92384e-06
-7.49104e-06
-7.99118e-06
-8.3355e-06
-8.59503e-06
-8.75713e-06
-8.84573e-06
-8.86011e-06
-8.80009e-06
-8.66655e-06
-8.4353e-06
-8.12029e-06
-7.65068e-06
-7.12015e-06
-6.38963e-06
-5.8586e-06
-5.41525e-06
-5.14304e-06
-4.99483e-06
-4.96333e-06
-5.01631e-06
-5.06964e-06
-5.14203e-06
-4.56891e-06
-4.47217e-06
-4.40462e-06
-4.3383e-06
-4.34197e-06
-4.43892e-06
-4.64889e-06
-4.99847e-06
-5.49003e-06
-6.22768e-06
-7.0909e-06
-8.38902e-06
-9.20135e-06
-9.90774e-06
-1.03685e-05
-1.0716e-05
-1.09273e-05
-1.10418e-05
-1.1056e-05
-1.09696e-05
-1.07859e-05
-1.0465e-05
-1.00312e-05
-9.3519e-06
-8.57529e-06
-7.31868e-06
-6.52602e-06
-5.86565e-06
-5.47466e-06
-5.2474e-06
-5.17504e-06
-5.21523e-06
-5.27361e-06
-5.37732e-06
-4.73556e-06
-4.60715e-06
-4.53238e-06
-4.47327e-06
-4.50666e-06
-4.65733e-06
-4.94535e-06
-5.39595e-06
-6.01133e-06
-6.9305e-06
-8.10017e-06
-1.02871e-05
-1.13105e-05
-1.22388e-05
-1.28231e-05
-1.32767e-05
-1.35495e-05
-1.36971e-05
-1.37113e-05
-1.35916e-05
-1.33459e-05
-1.29172e-05
-1.23573e-05
-1.14504e-05
-1.04593e-05
-8.30732e-06
-7.22881e-06
-6.39085e-06
-5.88888e-06
-5.57873e-06
-5.45386e-06
-5.47212e-06
-5.5323e-06
-5.67648e-06
-4.93468e-06
-4.7652e-06
-4.68314e-06
-4.63505e-06
-4.7046e-06
-4.91294e-06
-5.27174e-06
-5.79129e-06
-6.39738e-06
-7.34737e-06
-8.74126e-06
-1.28762e-05
-1.36561e-05
-1.46158e-05
-1.5235e-05
-1.57305e-05
-1.60242e-05
-1.61888e-05
-1.62029e-05
-1.60657e-05
-1.57985e-05
-1.53262e-05
-1.47285e-05
-1.37806e-05
-1.30268e-05
-8.9188e-06
-7.67764e-06
-6.78935e-06
-6.30145e-06
-5.93691e-06
-5.76673e-06
-5.76375e-06
-5.82815e-06
-6.02758e-06
-5.1592e-06
-4.94032e-06
-4.85657e-06
-4.83389e-06
-4.96754e-06
-5.27678e-06
-5.77493e-06
-6.39963e-06
-7.09971e-06
-8.9759e-06
-6.05763e-06
-1.48257e-05
-1.55073e-05
-1.67907e-05
-1.75239e-05
-1.81599e-05
-1.85212e-05
-1.87209e-05
-1.87344e-05
-1.85612e-05
-1.8226e-05
-1.76131e-05
-1.69014e-05
-1.56247e-05
-1.49907e-05
-6.11929e-06
-9.244e-06
-7.44522e-06
-6.89686e-06
-6.44661e-06
-6.16747e-06
-6.10665e-06
-6.15723e-06
-6.43057e-06
-5.39703e-06
-5.11926e-06
-5.03113e-06
-5.03322e-06
-5.22981e-06
-5.63272e-06
-6.22205e-06
-6.81574e-06
-7.00208e-06
-3.41394e-06
-2.10683e-05
-1.77207e-05
-1.83255e-05
-1.89369e-05
-1.94386e-05
-1.97653e-05
-1.99453e-05
-1.99576e-05
-1.98017e-05
-1.94981e-05
-1.9017e-05
-1.8422e-05
-1.7817e-05
-2.10717e-05
-4.05421e-06
-7.45518e-06
-7.33388e-06
-6.90299e-06
-6.55166e-06
-6.43869e-06
-6.48326e-06
-6.85902e-06
-5.63947e-06
-5.30011e-06
-5.21703e-06
-5.26887e-06
-5.5898e-06
-6.23634e-06
-7.30045e-06
-8.82394e-06
-1.12651e-05
-1.36757e-05
-1.93016e-05
-1.65109e-05
-1.82226e-05
-1.95715e-05
-2.05585e-05
-2.11797e-05
-2.15883e-05
-2.1798e-05
-2.18093e-05
-2.16219e-05
-2.12358e-05
-2.06368e-05
-1.96728e-05
-1.83516e-05
-1.66665e-05
-1.95281e-05
-1.38707e-05
-1.15307e-05
-9.23363e-06
-7.91579e-06
-7.13447e-06
-6.83222e-06
-6.81729e-06
-7.30371e-06
-5.87131e-06
-5.47075e-06
-5.38288e-06
-5.46208e-06
-5.8559e-06
-6.62662e-06
-7.86243e-06
-9.5461e-06
-1.18044e-05
-1.38432e-05
-1.72988e-05
-1.80945e-05
-1.8944e-05
-1.98244e-05
-2.06132e-05
-2.11933e-05
-2.16019e-05
-2.18122e-05
-2.18221e-05
-2.16311e-05
-2.12413e-05
-2.06778e-05
-1.99036e-05
-1.90306e-05
-1.81786e-05
-1.74295e-05
-1.40255e-05
-1.20378e-05
-9.91702e-06
-8.45373e-06
-7.52938e-06
-7.14879e-06
-7.1204e-06
-7.72392e-06
-6.08445e-06
-5.63119e-06
-5.53916e-06
-5.6429e-06
-6.10247e-06
-6.98673e-06
-8.38116e-06
-1.02593e-05
-1.2652e-05
-1.50537e-05
-1.76668e-05
-1.88649e-05
-1.97765e-05
-2.05656e-05
-2.12976e-05
-2.18409e-05
-2.22274e-05
-2.24235e-05
-2.24321e-05
-2.2253e-05
-2.18829e-05
-2.13535e-05
-2.06338e-05
-1.98495e-05
-1.8946e-05
-1.77628e-05
-1.51803e-05
-1.28414e-05
-1.05933e-05
-8.95398e-06
-7.90058e-06
-7.45094e-06
-7.41082e-06
-8.10486e-06
-6.2687e-06
-5.77171e-06
-5.66979e-06
-5.78114e-06
-6.27228e-06
-7.21127e-06
-8.67188e-06
-1.06224e-05
-1.30251e-05
-1.55031e-05
-1.79014e-05
-1.93412e-05
-2.03779e-05
-2.11419e-05
-2.18491e-05
-2.2365e-05
-2.27344e-05
-2.292e-05
-2.29278e-05
-2.27575e-05
-2.24026e-05
-2.18982e-05
-2.12012e-05
-2.04392e-05
-1.9411e-05
-1.79761e-05
-1.56063e-05
-1.31955e-05
-1.09433e-05
-9.24754e-06
-8.15327e-06
-7.68684e-06
-7.6581e-06
-8.42549e-06
-6.41975e-06
-5.89025e-06
-5.77891e-06
-5.89237e-06
-6.40241e-06
-7.37636e-06
-8.87962e-06
-1.08794e-05
-1.32999e-05
-1.58229e-05
-1.81693e-05
-1.97374e-05
-2.08479e-05
-2.16304e-05
-2.23404e-05
-2.28444e-05
-2.32029e-05
-2.33807e-05
-2.33881e-05
-2.32248e-05
-2.28798e-05
-2.23862e-05
-2.16856e-05
-2.09034e-05
-1.9799e-05
-1.82328e-05
-1.59138e-05
-1.34601e-05
-1.11966e-05
-9.46567e-06
-8.35038e-06
-7.8798e-06
-7.86371e-06
-8.68309e-06
-6.53413e-06
-5.98204e-06
-5.86185e-06
-5.97252e-06
-6.48946e-06
-7.47927e-06
-9.00222e-06
-1.10269e-05
-1.34599e-05
-1.60193e-05
-1.83728e-05
-2.00283e-05
-2.11835e-05
-2.19852e-05
-2.27015e-05
-2.3201e-05
-2.35547e-05
-2.37288e-05
-2.37362e-05
-2.35767e-05
-2.32365e-05
-2.27472e-05
-2.20402e-05
-2.12372e-05
-2.0079e-05
-1.84313e-05
-1.61059e-05
-1.36182e-05
-1.13478e-05
-9.6031e-06
-8.48444e-06
-8.02021e-06
-8.01809e-06
-8.87416e-06
-6.61106e-06
-6.04595e-06
-5.92004e-06
-6.02806e-06
-6.54815e-06
-7.54701e-06
-9.08308e-06
-1.11265e-05
-1.35767e-05
-1.61679e-05
-1.85491e-05
-2.02837e-05
-2.14419e-05
-2.22569e-05
-2.29809e-05
-2.34823e-05
-2.38361e-05
-2.40098e-05
-2.40178e-05
-2.38598e-05
-2.35206e-05
-2.30302e-05
-2.23154e-05
-2.14953e-05
-2.03063e-05
-1.86046e-05
-1.62553e-05
-1.37376e-05
-1.14539e-05
-9.69756e-06
-8.57614e-06
-8.11633e-06
-8.12271e-06
-9.00039e-06
-6.65038e-06
-6.08114e-06
-5.95308e-06
-6.05971e-06
-6.58085e-06
-7.58394e-06
-9.12854e-06
-1.11857e-05
-1.36549e-05
-1.6272e-05
-1.86815e-05
-2.04455e-05
-2.16202e-05
-2.24472e-05
-2.31792e-05
-2.36867e-05
-2.40445e-05
-2.42208e-05
-2.42301e-05
-2.40718e-05
-2.37307e-05
-2.3236e-05
-2.25145e-05
-2.16829e-05
-2.04781e-05
-1.8744e-05
-1.63661e-05
-1.38224e-05
-1.15212e-05
-9.75401e-06
-8.62814e-06
-8.16878e-06
-8.17793e-06
-9.06244e-06
-6.65263e-06
-6.08813e-06
-5.96146e-06
-6.0679e-06
-6.58793e-06
-7.59062e-06
-9.13809e-06
-1.12031e-05
-1.36923e-05
-1.63305e-05
-1.87728e-05
-2.05506e-05
-2.17255e-05
-2.25594e-05
-2.3298e-05
-2.38148e-05
-2.41798e-05
-2.43614e-05
-2.43724e-05
-2.42125e-05
-2.38674e-05
-2.33664e-05
-2.26406e-05
-2.18038e-05
-2.0595e-05
-1.88489e-05
-1.64368e-05
-1.38708e-05
-1.1549e-05
-9.77241e-06
-8.64104e-06
-8.17828e-06
-8.18365e-06
-9.06352e-06
-6.61943e-06
-6.06916e-06
-5.94703e-06
-6.05341e-06
-6.56837e-06
-7.56282e-06
-9.10549e-06
-1.117e-05
-1.36814e-05
-1.63359e-05
-1.88281e-05
-2.05693e-05
-2.17596e-05
-2.25999e-05
-2.3345e-05
-2.3876e-05
-2.4252e-05
-2.44418e-05
-2.44554e-05
-2.42925e-05
-2.3941e-05
-2.34304e-05
-2.27015e-05
-2.18647e-05
-2.067e-05
-1.89291e-05
-1.64629e-05
-1.38785e-05
-1.15326e-05
-9.75103e-06
-8.616e-06
-8.1486e-06
-8.14533e-06
-9.00348e-06
-6.55287e-06
-6.02643e-06
-5.90937e-06
-6.01083e-06
-6.50846e-06
-7.47427e-06
-8.98571e-06
-1.10196e-05
-1.35404e-05
-1.62045e-05
-1.88199e-05
-2.05348e-05
-2.16976e-05
-2.25328e-05
-2.32782e-05
-2.38255e-05
-2.42156e-05
-2.44166e-05
-2.44336e-05
-2.42664e-05
-2.39071e-05
-2.33866e-05
-2.26619e-05
-2.18354e-05
-2.06772e-05
-1.8948e-05
-1.63616e-05
-1.37675e-05
-1.14112e-05
-9.652e-06
-8.53405e-06
-8.07386e-06
-8.06378e-06
-8.88398e-06
-6.45814e-06
-5.96637e-06
-5.8557e-06
-5.94851e-06
-6.41858e-06
-7.33817e-06
-8.7953e-06
-1.07711e-05
-1.33024e-05
-1.59343e-05
-1.88325e-05
-2.05001e-05
-2.15586e-05
-2.24278e-05
-2.32008e-05
-2.37802e-05
-2.41909e-05
-2.44065e-05
-2.44286e-05
-2.42572e-05
-2.38873e-05
-2.33457e-05
-2.26018e-05
-2.17507e-05
-2.06965e-05
-1.90028e-05
-1.61467e-05
-1.35827e-05
-1.12135e-05
-9.49968e-06
-8.41564e-06
-7.97194e-06
-7.9543e-06
-8.71281e-06
-6.34074e-06
-5.89156e-06
-5.78218e-06
-5.85099e-06
-6.26108e-06
-7.07553e-06
-8.37932e-06
-1.01507e-05
-1.24861e-05
-1.46769e-05
-1.86384e-05
-2.06216e-05
-2.13303e-05
-2.22125e-05
-2.30059e-05
-2.36097e-05
-2.40396e-05
-2.42715e-05
-2.42994e-05
-2.41237e-05
-2.3746e-05
-2.31952e-05
-2.24453e-05
-2.16066e-05
-2.09233e-05
-1.88414e-05
-1.49394e-05
-1.28349e-05
-1.06752e-05
-9.15184e-06
-8.19411e-06
-7.81795e-06
-7.81663e-06
-8.49485e-06
-6.21267e-06
-5.81392e-06
-5.71001e-06
-5.75941e-06
-6.11553e-06
-6.83627e-06
-8.01624e-06
-9.68406e-06
-1.2313e-05
-1.52135e-05
-1.98053e-05
-1.89695e-05
-2.09684e-05
-2.25408e-05
-2.35981e-05
-2.4281e-05
-2.47398e-05
-2.49883e-05
-2.50275e-05
-2.48592e-05
-2.44745e-05
-2.38681e-05
-2.28682e-05
-2.13686e-05
-1.94046e-05
-1.99719e-05
-1.5694e-05
-1.28304e-05
-1.03456e-05
-8.88714e-06
-8.01123e-06
-7.68156e-06
-7.68126e-06
-8.26557e-06
-6.0816e-06
-5.73238e-06
-5.62525e-06
-5.63486e-06
-5.88543e-06
-6.38202e-06
-7.07919e-06
-7.68627e-06
-7.61646e-06
-2.38662e-06
-2.6477e-05
-2.16021e-05
-2.20918e-05
-2.2661e-05
-2.31747e-05
-2.35455e-05
-2.37673e-05
-2.38161e-05
-2.36955e-05
-2.34179e-05
-2.30086e-05
-2.25109e-05
-2.21302e-05
-2.69501e-05
-2.92488e-06
-8.29079e-06
-8.49814e-06
-8.07866e-06
-7.63716e-06
-7.4757e-06
-7.5246e-06
-8.02827e-06
-5.96366e-06
-5.66203e-06
-5.56809e-06
-5.57791e-06
-5.81871e-06
-6.32839e-06
-7.16184e-06
-8.30606e-06
-9.99906e-06
-1.26967e-05
-1.22425e-05
-1.85092e-05
-1.9793e-05
-2.12334e-05
-2.21068e-05
-2.28846e-05
-2.33819e-05
-2.36729e-05
-2.37384e-05
-2.35835e-05
-2.3207e-05
-2.25601e-05
-2.17364e-05
-2.04544e-05
-1.92467e-05
-1.37806e-05
-1.39039e-05
-1.1148e-05
-9.36794e-06
-8.28361e-06
-7.62855e-06
-7.39324e-06
-7.39888e-06
-7.82619e-06
-5.86491e-06
-5.60282e-06
-5.51919e-06
-5.52391e-06
-5.73379e-06
-6.18712e-06
-6.92423e-06
-7.94767e-06
-9.2344e-06
-1.069e-05
-1.37856e-05
-1.77026e-05
-1.8683e-05
-1.97217e-05
-2.04829e-05
-2.12017e-05
-2.16799e-05
-2.1973e-05
-2.20481e-05
-2.19129e-05
-2.1569e-05
-2.09956e-05
-2.02447e-05
-1.92951e-05
-1.84553e-05
-1.49684e-05
-1.17417e-05
-1.03392e-05
-9.05718e-06
-8.09743e-06
-7.5035e-06
-7.27781e-06
-7.27291e-06
-7.65066e-06
-5.79666e-06
-5.56995e-06
-5.50618e-06
-5.52484e-06
-5.73407e-06
-6.1775e-06
-6.90527e-06
-7.94498e-06
-9.34525e-06
-1.10824e-05
-1.32639e-05
-1.57081e-05
-1.69989e-05
-1.80754e-05
-1.88784e-05
-1.96296e-05
-2.0125e-05
-2.04239e-05
-2.0502e-05
-2.03697e-05
-2.0019e-05
-1.94415e-05
-1.86526e-05
-1.76578e-05
-1.64926e-05
-1.44065e-05
-1.22885e-05
-1.05471e-05
-9.12079e-06
-8.10901e-06
-7.48659e-06
-7.2296e-06
-7.1937e-06
-7.53017e-06
-5.76446e-06
-5.56579e-06
-5.52479e-06
-5.56145e-06
-5.76855e-06
-6.1858e-06
-6.85693e-06
-7.8093e-06
-9.06274e-06
-1.06155e-05
-1.23745e-05
-1.42147e-05
-1.54678e-05
-1.6526e-05
-1.73525e-05
-1.80819e-05
-1.85653e-05
-1.88574e-05
-1.89374e-05
-1.88172e-05
-1.84875e-05
-1.79483e-05
-1.71772e-05
-1.62222e-05
-1.5071e-05
-1.34852e-05
-1.18032e-05
-1.02626e-05
-8.99265e-06
-8.05873e-06
-7.4703e-06
-7.20846e-06
-7.15224e-06
-7.44562e-06
-5.75197e-06
-5.59195e-06
-5.58187e-06
-5.64772e-06
-5.86476e-06
-6.26592e-06
-6.88524e-06
-7.74124e-06
-8.83696e-06
-1.01459e-05
-1.15727e-05
-1.30264e-05
-1.41701e-05
-1.51945e-05
-1.60146e-05
-1.67113e-05
-1.71881e-05
-1.74778e-05
-1.75613e-05
-1.74501e-05
-1.71347e-05
-1.66212e-05
-1.58934e-05
-1.50053e-05
-1.39374e-05
-1.26703e-05
-1.13091e-05
-1.00154e-05
-8.90898e-06
-8.06846e-06
-7.51681e-06
-7.24612e-06
-7.16352e-06
-7.40697e-06
-5.76426e-06
-5.64465e-06
-5.67001e-06
-5.77306e-06
-6.00826e-06
-6.40072e-06
-6.97602e-06
-7.74486e-06
-8.70063e-06
-9.81299e-06
-1.10009e-05
-1.21987e-05
-1.32354e-05
-1.41675e-05
-1.49325e-05
-1.55763e-05
-1.60245e-05
-1.6297e-05
-1.63798e-05
-1.62811e-05
-1.59943e-05
-1.55269e-05
-1.48698e-05
-1.40739e-05
-1.31363e-05
-1.20724e-05
-1.09395e-05
-9.84471e-06
-8.88691e-06
-8.13555e-06
-7.61787e-06
-7.33417e-06
-7.22041e-06
-7.40592e-06
-5.7832e-06
-5.69616e-06
-5.73655e-06
-5.86487e-06
-6.11296e-06
-6.50146e-06
-7.05084e-06
-7.76512e-06
-8.63435e-06
-9.62936e-06
-1.06899e-05
-1.17584e-05
-1.27382e-05
-1.36217e-05
-1.43538e-05
-1.49542e-05
-1.5379e-05
-1.56364e-05
-1.57171e-05
-1.56256e-05
-1.53587e-05