/*--------------------------------*- C++ -*----------------------------------*\
| =========                 |                                                 |
| \\      /  F ield         | OpenFOAM: The Open Source CFD Toolbox           |
|  \\    /   O peration     | Version:  2112                                  |
|   \\  /    A nd           | Website:  www.openfoam.com                      |
|    \\/     M anipulation  |                                                 |
\*---------------------------------------------------------------------------*/
FoamFile
{
    version     2.0;
    format      ascii;
    arch        "LSB;label=32;scalar=64";
    class       surfaceScalarField;
    location    "5";
    object      phi;
}
// * * * * * * * * * * * * * * * * * * * * * * * * * * * * * * * * * * * * * //

dimensions      [0 3 -1 0 0 0 0];

oriented        oriented;

internalField   nonuniform List<scalar> 
188215
(
4.04749e-10
7.36876e-10
-1.14162e-09
2.38502e-09
-3.53329e-10
-1.62694e-09
5.38527e-09
-2.03599e-09
-9.64254e-10
8.97295e-09
-3.64082e-09
5.31374e-11
1.26711e-08
-4.87756e-09
1.17941e-09
1.64357e-08
-5.7086e-09
1.94404e-09
2.01662e-08
-6.20046e-09
2.46992e-09
2.3689e-08
-6.35375e-09
2.83099e-09
2.67557e-08
-6.13684e-09
3.07005e-09
2.89286e-08
-5.38057e-09
3.20775e-09
2.98819e-08
-4.19965e-09
3.24632e-09
2.913e-08
-2.46301e-09
3.21486e-09
2.68831e-08
-9.95517e-10
3.24243e-09
2.32803e-08
2.20716e-10
3.38211e-09
1.88915e-08
7.14982e-10
3.67379e-09
1.38777e-08
1.0564e-09
3.95748e-09
8.47707e-09
1.23201e-09
4.1686e-09
2.89726e-09
1.29851e-09
4.2813e-09
-2.65843e-09
1.2687e-09
4.28699e-09
-7.98832e-09
1.14298e-09
4.18692e-09
-1.28901e-08
9.10825e-10
3.99096e-09
-1.71443e-08
5.24927e-10
3.72931e-09
-2.05547e-08
-7.78877e-11
3.4883e-09
-2.25309e-08
-1.41952e-09
3.39563e-09
-2.30265e-08
-2.88694e-09
3.3826e-09
-2.18152e-08
-4.61633e-09
3.40506e-09
-1.94022e-08
-5.72167e-09
3.30859e-09
-1.61239e-08
-6.3004e-09
3.02218e-09
-1.24521e-08
-6.14862e-09
2.47677e-09
-8.68585e-09
-5.33549e-09
1.56926e-09
-4.99902e-09
-3.80311e-09
1.16274e-10
-2.05015e-09
-1.66818e-09
-1.28069e-09
-2.12521e-10
4.53055e-10
-2.29068e-09
1.62538e-09
-1.8379e-09
-2.12012e-09
5.59959e-09
-2.74259e-09
1.45599e-10
5.54964e-09
-8.16868e-09
3.93347e-09
4.3117e-09
-1.01356e-08
8.04427e-09
3.01394e-09
-1.07655e-08
1.21094e-08
2.34482e-09
-1.12875e-08
1.60824e-08
2.4431e-09
-1.21248e-08
1.99434e-08
3.39382e-09
-1.34553e-08
2.35772e-08
5.3701e-09
-1.53576e-08
2.67421e-08
8.56669e-09
-1.78684e-08
2.89916e-08
1.3361e-08
-2.09911e-08
2.99392e-08
1.94522e-08
-2.45995e-08
2.91158e-08
2.68207e-08
-2.84602e-08
2.68815e-08
3.331e-08
-3.20713e-08
2.34321e-08
3.88646e-08
-3.51944e-08
1.9021e-08
4.29108e-08
-3.77847e-08
1.3974e-08
4.58499e-08
-3.97466e-08
8.55768e-09
4.77046e-08
-4.10562e-08
2.97426e-09
4.86141e-08
-4.17322e-08
-2.58326e-09
4.86037e-08
-4.17775e-08
-7.92153e-09
4.76732e-08
-4.1192e-08
-1.28375e-08
4.57995e-08
-3.99727e-08
-1.70508e-08
4.28435e-08
-3.81052e-08
-2.02729e-08
3.87796e-08
-3.56353e-08
-2.22823e-08
3.32263e-08
-3.26364e-08
-2.28299e-08
2.68217e-08
-2.9161e-08
-2.15785e-08
1.96158e-08
-2.54836e-08
-1.90109e-08
1.38423e-08
-2.21316e-08
-1.54907e-08
9.5366e-09
-1.93572e-08
-1.1442e-08
7.10294e-09
-1.73003e-08
-7.08667e-09
6.23578e-09
-1.59266e-08
-2.61421e-09
6.75301e-09
-1.50286e-08
1.44664e-09
8.32933e-09
-1.40584e-08
3.55744e-09
9.76934e-09
-1.14271e-08
9.46358e-09
-4.28076e-09
-4.223e-09
1.27407e-08
-2.91811e-09
-2.09262e-09
1.40029e-08
-1.05837e-08
2.21145e-09
1.36312e-08
-1.36236e-08
6.94713e-09
1.32844e-08
-1.50061e-08
1.16457e-08
1.38336e-08
-1.61874e-08
1.62618e-08
1.55472e-08
-1.77201e-08
2.08428e-08
1.86941e-08
-1.98813e-08
2.53327e-08
2.36983e-08
-2.28181e-08
2.94762e-08
3.10249e-08
-2.66018e-08
3.26155e-08
4.1478e-08
-3.12563e-08
3.41028e-08
5.45685e-08
-3.66035e-08
3.29688e-08
7.03074e-08
-4.23528e-08
3.0044e-08
8.40102e-08
-4.77753e-08
2.57228e-08
9.57152e-08
-5.25294e-08
2.06089e-08
1.04434e-07
-5.64098e-08
1.49573e-08
1.10856e-07
-5.93544e-08
9.00971e-09
1.14978e-07
-6.13258e-08
2.93052e-09
1.1704e-07
-6.23465e-08
-3.12185e-09
1.17073e-07
-6.24165e-08
-8.98827e-09
1.15076e-07
-6.15359e-08
-1.4504e-08
1.1102e-07
-5.97047e-08
-1.94235e-08
1.04667e-07
-5.69046e-08
-2.35016e-08
9.60376e-08
-5.31799e-08
-2.61363e-08
8.44606e-08
-4.85996e-08
-2.6925e-08
7.09943e-08
-4.3384e-08
-2.50234e-08
5.56141e-08
-3.78998e-08
-2.14066e-08
4.31258e-08
-3.29003e-08
-1.66619e-08
3.34745e-08
-2.86825e-08
-1.14063e-08
2.72616e-08
-2.54143e-08
-5.88974e-09
2.37156e-08
-2.29964e-08
-3.63488e-10
2.23304e-08
-2.11036e-08
4.52956e-09
2.24928e-08
-1.90565e-08
6.46399e-09
2.27528e-08
-1.49178e-08
2.06788e-08
-4.75118e-09
-5.79138e-09
2.07645e-08
-2.23241e-09
-3.64037e-09
2.30159e-08
-1.1164e-08
1.32805e-09
2.34156e-08
-1.47528e-08
6.9575e-09
2.41166e-08
-1.64616e-08
1.27003e-08
2.60436e-08
-1.79527e-08
1.85293e-08
2.955e-08
-1.98319e-08
2.45954e-08
3.50488e-08
-2.24209e-08
3.09357e-08
4.32556e-08
-2.58976e-08
3.72369e-08
5.50572e-08
-3.03335e-08
4.23983e-08
7.20928e-08
-3.57762e-08
4.50734e-08
9.38952e-08
-4.20018e-08
4.31299e-08
1.21075e-07
-4.88236e-08
3.85369e-08
1.43827e-07
-5.52234e-08
3.22279e-08
1.62875e-07
-6.08509e-08
2.53032e-08
1.76795e-07
-6.54363e-08
1.7989e-08
1.87071e-07
-6.89009e-08
1.04919e-08
1.93677e-07
-7.12018e-08
2.9149e-09
1.97007e-07
-7.23905e-08
-4.63541e-09
1.97092e-07
-7.24688e-08
-1.20507e-08
1.93927e-07
-7.14366e-08
-1.92258e-08
1.87487e-07
-6.92916e-08
-2.59447e-08
1.77373e-07
-6.59864e-08
-3.19776e-08
1.6364e-07
-6.15692e-08
-3.62078e-08
1.44823e-07
-5.61324e-08
-3.76976e-08
1.2245e-07
-4.99658e-08
-3.44456e-08
9.58029e-08
-4.34409e-08
-2.86081e-08
7.48909e-08
-3.76026e-08
-2.14284e-08
5.89261e-08
-3.26313e-08
-1.39625e-08
4.85279e-08
-2.87322e-08
-6.55731e-09
4.20783e-08
-2.57678e-08
4.88299e-10
3.86671e-08
-2.33823e-08
6.48035e-09
3.73532e-08
-2.08524e-08
8.54421e-09
3.66422e-08
-1.59533e-08
3.32841e-08
-4.06112e-09
-6.75143e-09
2.88299e-08
-1.31395e-09
-4.21978e-09
3.18208e-08
-1.13365e-08
1.74017e-09
3.28459e-08
-1.53902e-08
8.64143e-09
3.4549e-08
-1.73337e-08
1.58872e-08
3.78556e-08
-1.90578e-08
2.35368e-08
4.31372e-08
-2.12367e-08
3.19341e-08
5.08747e-08
-2.42232e-08
4.13421e-08
6.20583e-08
-2.82108e-08
5.14406e-08
7.81874e-08
-3.32287e-08
6.04517e-08
1.02439e-07
-3.93575e-08
6.5551e-08
1.35071e-07
-4.62747e-08
6.18024e-08
1.79055e-07
-5.42317e-08
5.39083e-08
2.1331e-07
-6.15897e-08
4.39695e-08
2.40973e-07
-6.81587e-08
3.38438e-08
2.6046e-07
-7.35387e-08
2.35754e-08
2.74882e-07
-7.75426e-08
1.32775e-08
2.84131e-07
-8.01558e-08
2.96042e-09
2.88823e-07
-8.14984e-08
-7.33188e-09
2.88964e-07
-8.15803e-08
-1.75521e-08
2.84549e-07
-8.0401e-08
-2.76843e-08
2.75568e-07
-7.7949e-08
-3.75951e-08
2.61393e-07
-7.41096e-08
-4.72227e-08
2.42169e-07
-6.89018e-08
-5.46701e-08
2.14802e-07
-6.25318e-08
-5.78298e-08
1.81034e-07
-5.54241e-08
-5.19467e-08
1.37707e-07
-4.77871e-08
-4.20598e-08
1.06301e-07
-4.12969e-08
-3.08058e-08
8.33503e-08
-3.56782e-08
-1.9912e-08
6.88717e-08
-3.12376e-08
-9.76284e-09
5.97282e-08
-2.77991e-08
-5.48052e-10
5.44744e-08
-2.50221e-08
7.0496e-09
5.18789e-08
-2.21234e-08
9.79373e-09
5.04586e-08
-1.65606e-08
4.6144e-08
-3.06613e-09
-7.28187e-09
3.65087e-08
-3.96991e-10
-3.92419e-09
4.00387e-08
-1.15756e-08
3.47145e-09
4.15983e-08
-1.61481e-08
1.21028e-08
4.42615e-08
-1.83438e-08
2.13179e-08
4.89537e-08
-2.03131e-08
3.13316e-08
5.59525e-08
-2.2829e-08
4.28088e-08
6.56577e-08
-2.62603e-08
5.65326e-08
7.91289e-08
-3.07945e-08
7.24844e-08
9.85533e-08
-3.63177e-08
8.8348e-08
1.29486e-07
-4.29105e-08
9.85216e-08
1.74687e-07
-4.97897e-08
9.10646e-08
2.45312e-07
-5.88003e-08
7.73167e-08
2.94141e-07
-6.70828e-08
6.16104e-08
3.3162e-07
-7.49407e-08
4.67327e-08
3.56844e-07
-8.15063e-08
3.20866e-08
3.75717e-07
-8.61885e-08
1.75679e-08
3.878e-07
-8.91509e-08
3.07564e-09
3.93976e-07
-9.06611e-08
-1.13972e-08
3.94182e-07
-9.07452e-08
-2.58532e-08
3.88408e-07
-8.94029e-08
-4.03841e-08
3.76703e-07
-8.66044e-08
-5.50594e-08
3.58159e-07
-8.20904e-08
-7.04391e-08
3.33249e-07
-7.57002e-08
-8.36563e-08
2.96071e-07
-6.80514e-08
-9.03634e-08
2.47785e-07
-6.00437e-08
-7.91253e-08
1.77842e-07
-5.13729e-08
-6.22212e-08
1.34368e-07
-4.49714e-08
-4.48408e-08
1.0491e-07
-3.89405e-08
-2.92328e-08
8.73282e-08
-3.40644e-08
-1.55014e-08
7.61548e-08
-3.0158e-08
-3.39266e-09
6.93639e-08
-2.69983e-08
6.43694e-09
6.57256e-08
-2.36763e-08
1.04919e-08
6.37518e-08
-1.73481e-08
5.86858e-08
-2.04999e-09
-7.55818e-09
4.3435e-08
6.31909e-10
-2.85206e-09
4.73846e-08
-1.2052e-08
6.52394e-09
4.94817e-08
-1.72594e-08
1.73911e-08
5.3157e-08
-1.97627e-08
2.90088e-08
5.93543e-08
-2.20183e-08
4.17537e-08
6.81243e-08
-2.49167e-08
5.67185e-08
7.95153e-08
-2.88224e-08
7.57019e-08
9.40314e-08
-3.38858e-08
9.98443e-08
1.14116e-07
-3.97055e-08
1.27017e-07
1.48473e-07
-4.61599e-08
1.48516e-07
2.04476e-07
-5.1288e-08
1.33185e-07
3.21407e-07
-6.07637e-08
1.09401e-07
3.87332e-07
-6.94069e-08
8.52975e-08
4.34861e-07
-7.91382e-08
6.41507e-08
4.65622e-07
-8.76314e-08
4.37088e-08
4.8918e-07
-9.30217e-08
2.34803e-08
5.04345e-07
-9.63161e-08
3.27349e-09
5.12168e-07
-9.79848e-08
-1.69248e-08
5.12451e-07
-9.80702e-08
-3.71232e-08
5.05177e-07
-9.65714e-08
-5.75028e-08
4.90523e-07
-9.34409e-08
-7.85054e-08
4.67384e-07
-8.82225e-08
-1.02318e-07
4.36969e-07
-7.9908e-08
-1.25503e-07
3.89662e-07
-7.04054e-08
-1.39895e-07
3.2426e-07
-6.20831e-08
-1.16902e-07
2.07815e-07
-5.29662e-08
-8.86279e-08
1.54478e-07
-4.8384e-08
-6.28088e-08
1.21636e-07
-4.25452e-08
-4.1471e-08
1.03462e-07
-3.74717e-08
-2.35913e-08
9.14248e-08
-3.31497e-08
-7.99667e-09
8.33747e-08
-2.96054e-08
4.80723e-09
7.87229e-08
-2.58012e-08
1.08619e-08
7.62019e-08
-1.85049e-08
7.05621e-08
-1.01431e-09
-7.60778e-09
4.92369e-08
1.8059e-09
-9.24372e-10
5.35124e-08
-1.28112e-08
1.11018e-08
5.62732e-08
-1.88177e-08
2.48639e-08
6.10971e-08
-2.17023e-08
3.9396e-08
6.9127e-08
-2.43046e-08
5.50452e-08
8.01278e-08
-2.76528e-08
7.31027e-08
9.35592e-08
-3.21013e-08
9.66401e-08
1.08278e-07
-3.77835e-08
1.294e-07
1.25092e-07
-4.37352e-08
1.74894e-07
1.52979e-07
-5.00006e-08
2.22069e-07
2.04984e-07
-4.76834e-08
1.90739e-07
4.07452e-07
-5.47152e-08
1.51793e-07
4.89713e-07
-6.34342e-08
1.1682e-07
5.46866e-07
-7.70321e-08
8.80561e-08
5.8339e-07
-8.90043e-08
5.99925e-08
6.12397e-07
-9.51534e-08
3.18389e-08
6.31278e-07
-9.87793e-08
3.57778e-09
6.41048e-07
-1.0062e-07
-2.46917e-08
6.41426e-07
-1.00705e-07
-5.28694e-08
6.3239e-07
-9.9035e-08
-8.09707e-08
6.14196e-07
-9.55714e-08
-1.0973e-07
5.85744e-07
-8.96e-08
-1.44576e-07
5.49628e-07
-7.78132e-08
-1.82972e-07
4.92537e-07
-6.44794e-08
-2.13104e-07
4.10584e-07
-5.61918e-08
-1.63712e-07
2.07892e-07
-4.94694e-08
-1.17289e-07
1.60389e-07
-5.23339e-08
-8.26255e-08
1.33752e-07
-4.67785e-08
-5.61393e-08
1.18709e-07
-4.17334e-08
-3.42788e-08
1.06529e-07
-3.69648e-08
-1.47009e-08
9.6807e-08
-3.30101e-08
1.93513e-09
9.07312e-08
-2.86444e-08
1.09221e-08
8.73254e-08
-2.01105e-08
8.14085e-08
7.56699e-11
-7.45301e-09
5.36365e-08
3.05344e-09
1.74774e-09
5.81697e-08
-1.38581e-08
1.73124e-08
6.1603e-08
-2.08944e-08
3.47782e-08
6.78528e-08
-2.42215e-08
5.28499e-08
7.82719e-08
-2.72167e-08
7.14539e-08
9.25557e-08
-3.10319e-08
9.13344e-08
1.09709e-07
-3.60306e-08
1.15954e-07
1.2596e-07
-4.23026e-08
1.52357e-07
1.37564e-07
-4.88747e-08
2.27241e-07
1.31422e-07
-5.33267e-08
3.26169e-07
1.56931e-07
-5.08746e-08
2.62328e-07
5.12697e-07
-4.14045e-08
2.00973e-07
5.96881e-07
-4.5812e-08
1.54301e-07
6.58589e-07
-6.50513e-08
1.17347e-07
7.01993e-07
-8.16486e-08
8.02915e-08
7.3727e-07
-8.78182e-08
4.23757e-08
7.61211e-07
-9.20177e-08
4.0171e-09
7.73543e-07
-9.4136e-08
-3.43714e-08
7.7403e-07
-9.42159e-08
-7.23836e-08
7.62657e-07
-9.22544e-08
-1.09621e-07
7.39631e-07
-8.81973e-08
-1.46818e-07
7.05133e-07
-8.21929e-08
-1.93719e-07
6.62288e-07
-6.57594e-08
-2.54814e-07
6.00434e-07
-4.68022e-08
-3.16906e-07
5.15633e-07
-4.2957e-08
-2.14596e-07
1.5872e-07
-5.31379e-08
-1.40157e-07
1.41891e-07
-5.59405e-08
-1.0134e-07
1.47135e-07
-5.22006e-08
-7.2936e-08
1.37051e-07
-4.67454e-08
-4.80502e-08
1.23259e-07
-4.16156e-08
-2.40027e-08
1.10067e-07
-3.73077e-08
-2.28527e-09
1.01395e-07
-3.2381e-08
1.07241e-08
9.65888e-08
-2.22728e-08
9.03947e-08
1.7379e-09
-6.90503e-09
5.61382e-08
4.40333e-09
5.69991e-09
6.08099e-08
-1.52452e-08
2.60218e-08
6.48198e-08
-2.35387e-08
4.88239e-08
7.24677e-08
-2.7417e-08
7.24819e-08
8.55391e-08
-3.09252e-08
9.60501e-08
1.04349e-07
-3.5361e-08
1.18619e-07
1.28279e-07
-4.11383e-08
1.40141e-07
1.53812e-07
-4.93731e-08
1.57384e-07
1.77689e-07
-5.7368e-08
2.12654e-07
1.48373e-07
-7.22206e-08
4.48567e-07
-7.89817e-08
3.57915e-07
6.10276e-07
-6.92725e-09
2.70803e-07
6.80871e-07
3.12187e-09
2.12183e-07
7.32089e-07
-1.48812e-08
1.64781e-07
7.83089e-07
-3.36939e-08
1.13188e-07
8.23737e-07
-3.48733e-08
5.91604e-08
8.52321e-07
-3.7082e-08
4.64633e-09
8.66685e-07
-3.8628e-08
-4.99086e-08
8.67264e-07
-3.86795e-08
-1.04082e-07
8.54066e-07
-3.72355e-08
-1.55998e-07
8.26645e-07
-3.50983e-08
-2.03942e-07
7.87142e-07
-3.40635e-08
-2.6342e-07
7.37112e-07
-1.53458e-08
-3.51741e-07
6.86535e-07
2.22065e-09
-4.41805e-07
6.14016e-07
-8.319e-09
-2.00947e-07
-8.21383e-08
-1.43694e-07
1.5869e-07
-7.4052e-08
-1.25053e-07
1.88894e-07
-6.03994e-08
-9.9103e-08
1.65358e-07
-5.42571e-08
-7.01462e-08
1.41966e-07
-4.76635e-08
-3.92125e-08
1.22059e-07
-4.29259e-08
-9.75265e-09
1.09296e-07
-3.73612e-08
9.36065e-09
1.02699e-07
-2.52233e-08
9.62579e-08
3.49746e-09
-6.13463e-09
5.6488e-08
5.7848e-09
1.05165e-08
6.11212e-08
-1.69624e-08
3.65122e-08
6.55195e-08
-2.66955e-08
6.60307e-08
7.41876e-08
-3.12383e-08
9.73117e-08
8.95845e-08
-3.53264e-08
1.28087e-07
1.13649e-07
-4.00761e-08
1.51975e-07
1.49891e-07
-4.54999e-08
1.52985e-07
2.03147e-07
-5.03445e-08
1.17035e-07
2.8099e-07
-6.73512e-08
3.81125e-07
-1.15718e-07
1.98537e-07
3.28435e-07
8.33036e-08
2.64425e-07
5.60793e-07
5.419e-08
2.60942e-07
6.88633e-07
4.69398e-08
2.13175e-07
7.82591e-07
4.82649e-08
1.4762e-07
8.44767e-07
4.45256e-08
7.72249e-08
8.83536e-07
3.91802e-08
5.44176e-09
9.02051e-07
3.64169e-08
-6.63894e-08
9.02677e-07
3.64185e-08
-1.3695e-07
8.8545e-07
3.91768e-08
-2.02896e-07
8.48062e-07
4.45285e-08
-2.5156e-07
7.87493e-07
4.83123e-08
-2.57083e-07
6.95521e-07
4.71144e-08
-1.94434e-07
5.69771e-07
5.41137e-08
3.37627e-07
8.19553e-08
-1.12894e-07
3.83806e-07
-1.12223e-07
-1.42368e-07
2.88307e-07
-6.99388e-08
-1.33716e-07
2.1278e-07
-5.60743e-08
-1.00819e-07
1.62514e-07
-5.34441e-08
-5.99913e-08
1.3072e-07
-4.94891e-08
-2.01867e-08
1.13104e-07
-4.36126e-08
7.08322e-09
1.04569e-07
-2.91402e-08
9.817e-08
5.17113e-09
-4.86302e-09
5.42056e-08
7.14538e-09
1.65988e-08
5.85848e-08
-1.89254e-08
4.98273e-08
6.25419e-08
-3.02508e-08
8.93727e-08
7.03378e-08
-3.56957e-08
1.35858e-07
8.39836e-08
-4.08843e-08
1.92064e-07
1.04558e-07
-4.71143e-08
2.62988e-07
1.33205e-07
-5.42386e-08
3.54954e-07
1.70281e-07
-5.91006e-08
4.80872e-07
2.1464e-07
-5.95672e-08
6.34177e-07
2.68394e-07
-4.05738e-08
4.96245e-07
8.79636e-08
4.99688e-08
4.96496e-07
2.30453e-07
9.77305e-08
4.73414e-07
4.19823e-07
1.64052e-07
4.03221e-07
5.38457e-07
2.2037e-07
3.06969e-07
6.26396e-07
2.52446e-07
2.04058e-07
6.84276e-07
2.63403e-07
1.0391e-07
7.20119e-07
2.63565e-07
6.2559e-09
7.37305e-07
2.624e-07
-9.13796e-08
7.37867e-07
2.62446e-07
-1.91462e-07
7.21827e-07
2.63706e-07
-2.94277e-07
6.87189e-07
2.63688e-07
-3.90463e-07
6.3061e-07
2.53069e-07
-4.60677e-07
5.4403e-07
2.21706e-07
-4.83551e-07
4.2636e-07
1.66285e-07
-4.85659e-07
2.38112e-07
1.01623e-07
-6.28647e-07
8.93371e-08
5.36511e-08
-4.75286e-07
2.70535e-07
-4.00907e-08
-3.44482e-07
2.20498e-07
-6.29951e-08
-2.4479e-07
1.78866e-07
-6.57787e-08
-1.6343e-07
1.4503e-07
-6.38764e-08
-9.48407e-08
1.20904e-07
-5.87725e-08
-3.68365e-08
1.06663e-07
-5.15634e-08
2.07363e-09
9.9763e-08
-3.41041e-08
9.36795e-08
6.56418e-09
-4.02702e-09
4.97469e-08
8.48574e-09
2.16107e-08
5.3713e-08
-2.0766e-08
6.08716e-08
5.69133e-08
-3.36324e-08
1.08033e-07
6.31193e-08
-3.99426e-08
1.64371e-07
7.37489e-08
-4.61036e-08
2.33433e-07
8.90453e-08
-5.35491e-08
3.19866e-07
1.08556e-07
-6.17837e-08
4.26637e-07
1.30913e-07
-6.74038e-08
5.56196e-07
1.51222e-07
-6.6141e-08
7.04116e-07
1.67876e-07
-4.74018e-08
6.97222e-07
1.06503e-07
-1.16464e-08
6.72624e-07
1.93815e-07
6.12365e-08
6.09704e-07
3.08318e-07
1.74425e-07
5.02807e-07
3.94015e-07
2.51339e-07
3.77299e-07
4.59088e-07
2.92817e-07
2.48904e-07
5.01154e-07
3.11517e-07
1.25782e-07
5.27193e-07
3.16048e-07
6.92645e-09
5.39626e-07
3.16534e-07
-1.11889e-07
5.4009e-07
3.16592e-07
-2.34884e-07
5.28592e-07
3.16229e-07
-3.63091e-07
5.03501e-07
3.11895e-07
-4.88474e-07
4.62379e-07
2.93614e-07
-5.95671e-07
3.98195e-07
2.53032e-07
-6.59723e-07
3.13097e-07
1.77314e-07
-6.86372e-07
1.98706e-07
6.60546e-08
-6.9735e-07
1.08912e-07
-8.59572e-09
-5.50566e-07
1.71433e-07
-4.76826e-08
-4.16619e-07
1.5681e-07
-7.02595e-08
-3.01465e-07
1.3886e-07
-7.51472e-08
-2.03033e-07
1.19591e-07
-7.29933e-08
-1.19282e-07
1.0438e-07
-6.72273e-08
-4.87122e-08
9.49292e-08
-5.88358e-08
-7.65263e-10
9.03623e-08
-3.85462e-08
8.47689e-08
8.14535e-09
-3.4625e-09
4.34442e-08
9.76518e-09
2.56647e-08
4.69046e-08
-2.23188e-08
6.99159e-08
4.92205e-08
-3.65583e-08
1.23056e-07
5.36305e-08
-4.36515e-08
1.86446e-07
6.10866e-08
-5.07276e-08
2.63575e-07
7.14277e-08
-5.95115e-08
3.58031e-07
8.37426e-08
-6.96431e-08
4.70602e-07
9.68457e-08
-7.85029e-08
5.96627e-07
1.06963e-07
-8.1766e-08
7.19686e-07
1.16258e-07
-7.14418e-08
7.64462e-07
1.03652e-07
-4.1925e-08
7.64604e-07
1.54311e-07
3.93617e-08
6.91044e-07
2.23081e-07
1.58796e-07
5.68114e-07
2.79534e-07
2.37411e-07
4.22961e-07
3.23058e-07
2.81183e-07
2.77588e-07
3.50998e-07
2.95529e-07
1.39758e-07
3.68421e-07
2.96603e-07
7.44105e-09
3.76751e-07
2.95192e-07
-1.24828e-07
3.77143e-07
2.95216e-07
-2.62513e-07
3.69592e-07
2.96685e-07
-4.07689e-07
3.52926e-07
2.95751e-07
-5.52787e-07
3.25693e-07
2.81784e-07
-6.76303e-07
2.82796e-07
2.38915e-07
-7.51475e-07
2.26747e-07
1.61523e-07
-7.54996e-07
1.58174e-07
4.40525e-08
-7.13704e-07
1.06726e-07
-3.91064e-08
-5.90691e-07
1.20176e-07
-7.17552e-08
-4.60058e-07
1.12341e-07
-8.61647e-08
-3.38501e-07
1.04223e-07
-8.692e-08
-2.3078e-07
9.38583e-08
-8.19872e-08
-1.3704e-07
8.53322e-08
-7.46927e-08
-5.71502e-08
7.99842e-08
-6.49447e-08
-2.02782e-09
7.74139e-08
-4.2174e-08
7.27473e-08
9.99368e-09
-3.36216e-09
3.59206e-08
1.08858e-08
2.82748e-08
3.87905e-08
-2.35229e-08
7.60301e-08
4.03548e-08
-3.88896e-08
1.33018e-07
4.32659e-08
-4.66235e-08
2.00352e-07
4.81803e-08
-5.44277e-08
2.812e-07
5.48487e-08
-6.42688e-08
3.78341e-07
6.24788e-08
-7.58772e-08
4.91665e-07
7.04434e-08
-8.69222e-08
6.14555e-07
7.67946e-08
-9.27212e-08
7.31465e-07
8.47301e-08
-8.53817e-08
8.03186e-07
8.8601e-08
-5.66706e-08
8.16159e-07
1.20741e-07
2.05973e-08
7.37547e-07
1.63624e-07
1.3807e-07
6.05931e-07
2.00134e-07
2.11016e-07
4.50113e-07
2.28518e-07
2.50358e-07
2.95062e-07
2.47066e-07
2.58982e-07
1.48441e-07
2.58759e-07
2.56283e-07
7.84526e-09
2.64424e-07
2.52923e-07
-1.32713e-07
2.64792e-07
2.52909e-07
-2.79223e-07
2.5985e-07
2.56253e-07
-4.34144e-07
2.48834e-07
2.59013e-07
-5.90027e-07
2.30885e-07
2.5069e-07
-7.22447e-07
2.03006e-07
2.1221e-07
-8.03048e-07
1.66842e-07
1.40507e-07
-7.94218e-07
1.24247e-07
2.50982e-08
-7.25456e-07
9.19673e-08
-5.40033e-08
-6.08143e-07
8.87492e-08
-8.58864e-08
-4.80275e-07
8.18772e-08
-9.74037e-08
-3.57316e-07
7.71181e-08
-9.58544e-08
-2.45826e-07
7.13939e-08
-8.90255e-08
-1.46857e-07
6.68418e-08
-8.04792e-08
-6.14128e-08
6.41142e-08
-6.95738e-08
-2.04451e-09
6.28192e-08
-4.47735e-08
5.91092e-08
1.15936e-08
-3.47815e-09
2.76074e-08
1.17913e-08
2.98924e-08
2.98301e-08
-2.44101e-08
8.00691e-08
3.08158e-08
-4.06377e-08
1.39583e-07
3.26106e-08
-4.8859e-08
2.09281e-07
3.569e-08
-5.72072e-08
2.92072e-07
3.98889e-08
-6.78311e-08
3.90336e-07
4.47391e-08
-8.05249e-08
5.03788e-07
5.00628e-08
-9.30711e-08
6.26018e-07
5.5104e-08
-1.00539e-07
7.43406e-07
6.23593e-08
-9.50179e-08
8.28026e-07
7.03257e-08
-6.63441e-08
8.47652e-07
9.1641e-08
9.47419e-09
7.67041e-07
1.18905e-07
1.25329e-07
6.30195e-07
1.42688e-07
1.94293e-07
4.67595e-07
1.61318e-07
2.298e-07
3.06326e-07
1.73849e-07
2.34487e-07
1.54082e-07
1.81876e-07
2.29127e-07
8.21405e-09
1.85873e-07
2.24418e-07
-1.37633e-07
1.86255e-07
2.24385e-07
-2.89816e-07
1.83e-07
2.29032e-07
-4.51039e-07
1.75651e-07
2.34406e-07
-6.13825e-07
1.63697e-07
2.29974e-07
-7.51647e-07
1.45522e-07
1.95306e-07
-8.34444e-07
1.22058e-07
1.27581e-07
-8.19204e-07
9.51245e-08
1.38823e-08
-7.37225e-07
7.37682e-08
-6.37798e-08
-6.19071e-07
6.62266e-08
-9.5632e-08
-4.9146e-07
5.96934e-08
-1.05426e-07
-3.67783e-07
5.58007e-08
-1.0236e-07
-2.54304e-07
5.2126e-08
-9.42115e-08
-1.52286e-07
4.95291e-08
-8.4705e-08
-6.34296e-08
4.8148e-08
-7.28903e-08
-1.56827e-09
4.75021e-08
-4.65442e-08
4.47099e-08
1.28311e-08
-3.70494e-09
1.88819e-08
1.24305e-08
3.07564e-08
2.04092e-08
-2.50405e-08
8.24713e-08
2.09694e-08
-4.18686e-08
1.43537e-07
2.19683e-08
-5.04232e-08
2.14607e-07
2.37487e-08
-5.91286e-08
2.98469e-07
2.62762e-08
-7.02495e-08
3.97424e-07
2.93936e-08
-8.36095e-08
5.11336e-07
3.3162e-08
-9.70109e-08
6.34371e-07
3.74438e-08
-1.05375e-07
7.53736e-07
4.36628e-08
-1.00668e-07
8.44726e-07
5.14454e-08
-7.21096e-08
8.68434e-07
6.52338e-08
2.69901e-09
7.86383e-07
8.17823e-08
1.19173e-07
6.46104e-07
9.64794e-08
1.86489e-07
4.79223e-07
1.08113e-07
2.20086e-07
3.13953e-07
1.16267e-07
2.22852e-07
1.57997e-07
1.2162e-07
2.16212e-07
8.5883e-09
1.24417e-07
2.10865e-07
-1.40823e-07
1.2484e-07
2.10826e-07
-2.96784e-07
1.22862e-07
2.16099e-07
-4.62116e-07
1.18244e-07
2.22739e-07
-6.29321e-07
1.10692e-07
2.2021e-07
-7.70726e-07
9.94881e-08
1.87439e-07
-8.55029e-07
8.5039e-08
1.21322e-07
-8.35993e-07
6.86436e-08
7.44472e-09
-7.47376e-07
5.48223e-08
-6.96706e-08
-6.26973e-07
4.72353e-08
-1.01412e-07
-4.98218e-07
4.13975e-08
-1.10459e-07
-3.73617e-07
3.77875e-08
-1.06588e-07
-2.58822e-07
3.50172e-08
-9.76871e-08
-1.54991e-07
3.32728e-08
-8.75739e-08
-6.41396e-08
3.24405e-08
-7.51443e-08
-9.54981e-10
3.20435e-08
-4.77259e-08
3.01372e-08
1.36177e-08
-3.90177e-09
9.99328e-09
1.27904e-08
3.11734e-08
1.07996e-08
-2.54655e-08
8.37856e-08
1.10114e-08
-4.26541e-08
1.45777e-07
1.13785e-08
-5.14014e-08
2.17708e-07
1.21229e-08
-6.03052e-08
3.02337e-07
1.33417e-08
-7.16946e-08
4.01987e-07
1.51498e-08
-8.54065e-08
5.16654e-07
1.77313e-08
-9.92365e-08
6.40839e-07
2.12855e-08
-1.08027e-07
7.61971e-07
2.61641e-08
-1.03633e-07
8.56099e-07
3.23419e-08
-7.50239e-08
8.81787e-07
3.99674e-08
-4.21723e-10
7.98789e-07
4.77099e-08
1.1707e-07
6.56369e-07
5.47447e-08
1.84155e-07
4.86868e-07
6.04065e-08
2.17207e-07
3.19071e-07
6.47205e-08
2.19344e-07
1.60724e-07
6.77071e-08
2.1226e-07
9.00005e-09
6.9448e-08
2.06692e-07
-1.42754e-07
6.9938e-08
2.06656e-07
-3.01192e-07
6.91443e-08
2.12156e-07
-4.69185e-07
6.69946e-08
2.19242e-07
-6.39184e-07
6.33503e-08
2.17341e-07
-7.82916e-07
5.81182e-08
1.85102e-07
-8.68298e-07
5.12598e-08
1.19162e-07
-8.47426e-07
4.34279e-08
4.3434e-09
-7.55531e-07
3.56571e-08
-7.27297e-08
-6.3319e-07
2.94147e-08
-1.04521e-07
-5.03051e-07
2.45611e-08
-1.13302e-07
-3.77389e-07
2.11862e-08
-1.09061e-07
-2.61509e-07
1.89261e-08
-9.97885e-08
-1.56477e-07
1.7591e-08
-8.93502e-08
-6.44291e-08
1.69626e-08
-7.65702e-08
-5.3777e-10
1.66547e-08
-4.85025e-08
1.55981e-08
1.40013e-08
-4.02038e-09
1.14997e-09
1.28637e-08
3.12671e-08
1.22831e-09
-2.57162e-08
8.42323e-08
1.08503e-09
-4.30389e-08
1.46645e-07
8.12091e-10
-5.18462e-08
2.19068e-07
5.02301e-10
-6.08021e-08
3.04293e-07
3.71752e-10
-7.22557e-08
4.04685e-07
8.04083e-10
-8.60463e-08
5.20268e-07
2.11105e-09
-9.99622e-08
6.45527e-07
4.85801e-09
-1.08832e-07
7.67746e-07
8.43231e-09
-1.04488e-07
8.62768e-07
1.32185e-08
-7.58982e-08
8.88624e-07
1.516e-08
-1.04837e-09
8.0506e-07
1.4492e-08
1.16782e-07
6.61626e-07
1.39579e-08
1.84221e-07
4.90965e-07
1.36262e-08
2.17441e-07
3.21964e-07
1.40698e-08
2.19652e-07
1.62413e-07
1.4679e-08
2.12579e-07
9.47398e-09
1.53745e-08
2.07013e-07
-1.43531e-07
1.59627e-08
2.06981e-07
-3.03277e-07
1.64054e-08
2.12485e-07
-4.72643e-07
1.67967e-08
2.19564e-07
-6.44027e-07
1.71458e-08
2.17589e-07
-7.89017e-07
1.79433e-08
1.85164e-07
-8.75207e-07
1.86058e-08
1.18845e-07
-8.54188e-07
1.90356e-08
3.37273e-09
-7.61388e-07
1.65983e-08
-7.37412e-08
-6.37879e-07
1.14613e-08
-1.05555e-07
-5.06554e-07
7.55849e-09
-1.14322e-07
-3.79847e-07
4.50862e-09
-1.1003e-07
-2.63073e-07
2.84573e-09
-1.00693e-07
-1.5728e-07
1.98083e-09
-9.01828e-08
-6.46088e-08
1.59303e-09
-7.7302e-08
-3.64758e-10
1.39645e-09
-4.89858e-08
1.21264e-09
1.40207e-08
-4.06508e-09
-7.43515e-09
1.26502e-08
3.10322e-08
-8.07143e-09
-2.57975e-08
8.38031e-08
-8.65521e-09
-4.30307e-08
1.46127e-07
-9.74328e-09
-5.17682e-08
2.18657e-07
-1.13927e-08
-6.06356e-08
3.04273e-07
-1.32876e-08
-7.19563e-08
4.05414e-07
-1.47736e-08
-8.55631e-08
5.22063e-07
-1.53048e-08
-9.92331e-08
6.48381e-07
-1.36151e-08
-1.07845e-07
7.71142e-07
-1.10221e-08
-1.03307e-07
8.64841e-07
-5.64957e-09
-7.48316e-08
8.8917e-07
-8.93279e-09
-2.3644e-10
8.05181e-07
-1.94785e-08
1.1796e-07
6.61807e-07
-2.88325e-08
1.86165e-07
4.91456e-07
-3.6198e-08
2.20174e-07
3.22605e-07
-4.01795e-08
2.23101e-07
1.63068e-07
-4.22414e-08
2.16457e-07
1.00364e-08
-4.26877e-08
2.11093e-07
-1.43103e-07
-4.19563e-08
2.11059e-07
-3.02964e-07
-4.0088e-08
2.16354e-07
-4.72386e-07
-3.67694e-08
2.22989e-07
-6.43741e-07
-3.17764e-08
2.20277e-07
-7.88976e-07
-2.38489e-08
1.87027e-07
-8.75849e-07
-1.44173e-08
1.19896e-07
-8.56575e-07
-4.53794e-09
4.29964e-09
-7.65059e-07
-2.02478e-09
-7.28928e-08
-6.40992e-07
-7.97738e-09
-1.04628e-07
-5.08621e-07
-1.12131e-08
-1.136e-07
-3.80895e-07
-1.36608e-08
-1.09556e-07
-2.63452e-07
-1.41529e-08
-1.00445e-07
-1.57363e-07
-1.40037e-08
-9.0104e-08
-6.46579e-08
-1.37496e-08
-7.73628e-08
-4.53193e-10
-1.36233e-08
-4.91849e-08
-1.29079e-08
1.36674e-08
-4.09098e-09
-1.54983e-08
1.21542e-08
3.03401e-08
-1.68119e-08
-2.56907e-08
8.22687e-08
-1.79812e-08
-4.26025e-08
1.43846e-07
-2.0183e-08
-5.1138e-08
2.1591e-07
-2.36861e-08
-5.977e-08
3.01525e-07
-2.81521e-08
-7.07505e-08
4.03322e-07
-3.2678e-08
-8.38927e-08
5.21294e-07
-3.63317e-08
-9.69449e-08
6.49135e-07
-3.65609e-08
-1.04895e-07
7.72678e-07
-3.48115e-08
-9.97537e-08
8.62491e-07
-2.40756e-08
-7.13875e-08
8.82504e-07
-3.2875e-08
3.92946e-09
7.98315e-07
-5.71289e-08
1.2184e-07
6.56224e-07
-7.85683e-08
1.91826e-07
4.87898e-07
-9.55593e-08
2.27687e-07
3.20737e-07
-1.05457e-07
2.32438e-07
1.6259e-07
-1.1103e-07
2.26936e-07
1.07353e-08
-1.12946e-07
2.22114e-07
-1.41276e-07
-1.11995e-07
2.2205e-07
-2.99896e-07
-1.0821e-07
2.26742e-07
-4.67877e-07
-1.00957e-07
2.32169e-07
-6.37568e-07
-8.96472e-08
2.27562e-07
-7.81933e-07
-7.18765e-08
1.92392e-07
-8.69475e-07
-5.0349e-08
1.23474e-07
-8.54578e-07
-2.72463e-08
7.81146e-09
-7.66983e-07
-1.98508e-08
-6.97689e-08
-6.42186e-07
-3.13048e-08
-1.01469e-07
-5.08428e-07
-3.39577e-08
-1.11014e-07
-3.79616e-07
-3.49101e-08
-1.07563e-07
-2.61847e-07
-3.29376e-08
-9.8984e-08
-1.56148e-07
-3.06566e-08
-8.90465e-08
-6.42289e-08
-2.89891e-08
-7.66792e-08
-6.48454e-10
-2.81573e-08
-4.90465e-08
-2.64779e-08
1.29215e-08
-4.2368e-09
-2.26466e-08
1.1385e-08
2.8897e-08
-2.4587e-08
-2.53586e-08
7.91001e-08
-2.64791e-08
-4.17053e-08
1.38921e-07
-3.01051e-08
-4.98989e-08
2.0943e-07
-3.60665e-08
-5.8128e-08
2.93994e-07
-4.42041e-08
-6.85123e-08
3.95773e-07
-5.36397e-08
-8.08176e-08
5.15236e-07
-6.31151e-08
-9.26797e-08
6.46244e-07
-6.82787e-08
-9.92899e-08
7.73078e-07
-6.90182e-08
-9.26278e-08
8.54222e-07
-4.06376e-08
-6.45817e-08
8.65816e-07
-5.61755e-08
1.17066e-08
7.81079e-07
-1.02314e-07
1.29922e-07
6.41943e-07
-1.4251e-07
2.03077e-07
4.78325e-07
-1.74002e-07
2.42062e-07
3.15259e-07
-1.92664e-07
2.50273e-07
1.6052e-07
-2.03338e-07
2.47048e-07
1.1629e-08
-2.07386e-07
2.43331e-07
-1.37467e-07
-2.06089e-07
2.43191e-07
-2.92837e-07
-1.99459e-07
2.46618e-07
-4.56999e-07
-1.86393e-07
2.49597e-07
-6.2243e-07
-1.65583e-07
2.41367e-07
-7.64394e-07
-1.3285e-07
2.02938e-07
-8.53208e-07
-9.23779e-08
1.30843e-07
-8.46882e-07
-4.81274e-08
1.4555e-08
-7.67744e-07
-3.54747e-08
-6.35151e-08
-6.39768e-07
-6.43309e-08
-9.49492e-08
-5.03132e-07
-6.46775e-08
-1.05916e-07
-3.73256e-07
-6.11451e-08
-1.03642e-07
-2.56088e-07
-5.40429e-08
-9.60623e-08
-1.5215e-07
-4.77727e-08
-8.68216e-08
-6.24677e-08
-4.35903e-08
-7.50813e-08
-6.83506e-10
-4.15204e-08
-4.84212e-08
-3.88848e-08
1.17235e-08
-4.57726e-09
-2.84597e-08
1.03904e-08
2.65364e-08
-3.09363e-08
-2.47644e-08
7.39879e-08
-3.36213e-08
-4.03092e-08
1.30756e-07
-3.88395e-08
-4.80337e-08
1.98074e-07
-4.76706e-08
-5.57145e-08
2.79601e-07
-6.04371e-08
-6.52934e-08
3.7936e-07
-7.69126e-08
-7.64866e-08
4.99223e-07
-9.62691e-08
-8.67089e-08
6.35666e-07
-1.13184e-07
-9.15376e-08
7.73025e-07
-1.23486e-07
-8.28911e-08
8.35197e-07
-4.96346e-08
-5.31743e-08
8.30756e-07
-7.74777e-08
2.57424e-08
7.47334e-07
-1.62344e-07
1.43452e-07
6.14869e-07
-2.29953e-07
2.19909e-07
4.59926e-07
-2.80974e-07
2.61915e-07
3.04347e-07
-3.11892e-07
2.74807e-07
1.56005e-07
-3.29549e-07
2.74553e-07
1.28628e-08
-3.36549e-07
2.72304e-07
-1.30519e-07
-3.34734e-07
2.72026e-07
-2.79625e-07
-3.24054e-07
2.73701e-07
-4.36579e-07
-3.02854e-07
2.73415e-07
-5.93912e-07
-2.68502e-07
2.60252e-07
-7.29998e-07
-2.15358e-07
2.18594e-07
-8.18792e-07
-1.46788e-07
1.43204e-07
-8.28734e-07
-6.56877e-08
2.75026e-08
-7.67754e-07
-4.35119e-08
-5.29426e-08
-6.29726e-07
-1.16109e-07
-8.62497e-08
-4.88091e-07
-1.07391e-07
-9.89223e-08
-3.58354e-07
-9.28195e-08
-9.8062e-08
-2.43986e-07
-7.6642e-08
-9.17695e-08
-1.44081e-07
-6.4296e-08
-8.33814e-08
-5.86639e-08
-5.65675e-08
-7.244e-08
-3.52415e-10
-5.26699e-08
-4.7162e-08
-4.94262e-08
1.0189e-08
-5.33964e-09
-3.23375e-08
9.21738e-09
2.28659e-08
-3.5237e-08
-2.39049e-08
6.61851e-08
-3.84983e-08
-3.84422e-08
1.17855e-07
-4.4927e-08
-4.55827e-08
1.78891e-07
-5.6149e-08
-5.25572e-08
2.52814e-07
-7.32854e-08
-6.1075e-08
3.44358e-07
-9.77084e-08
-7.07482e-08
4.5751e-07
-1.31229e-07
-7.81921e-08
5.97662e-07
-1.74135e-07
-7.92004e-08
7.73681e-07
-2.36682e-07
-6.28235e-08
8.03396e-07
-5.02453e-08
-2.91042e-08
7.52314e-07
-6.70046e-08
4.06085e-08
6.78753e-07
-2.39653e-07
1.5087e-07
5.61482e-07