/*--------------------------------*- C++ -*----------------------------------*\
| =========                 |                                                 |
| \\      /  F ield         | OpenFOAM: The Open Source CFD Toolbox           |
|  \\    /   O peration     | Version:  2112                                  |
|   \\  /    A nd           | Website:  www.openfoam.com                      |
|    \\/     M anipulation  |                                                 |
\*---------------------------------------------------------------------------*/
FoamFile
{
    version     2.0;
    format      ascii;
    arch        "LSB;label=32;scalar=64";
    class       volVectorField;
    location    "5";
    object      U;
}
// * * * * * * * * * * * * * * * * * * * * * * * * * * * * * * * * * * * * * //

dimensions      [0 1 -1 0 0 0 0];

internalField   nonuniform List<vector> 
64906
(
(-2.29628e-07 -7.08977e-07 8.6764e-08)
(1.54052e-06 -2.54727e-06 6.77391e-08)
(5.45703e-06 -4.52851e-06 1.02402e-06)
(1.02477e-05 -6.39341e-06 2.29839e-06)
(1.55371e-05 -7.91771e-06 3.28456e-06)
(2.0912e-05 -9.13553e-06 4.09588e-06)
(2.63254e-05 -1.01796e-05 4.82353e-06)
(3.15727e-05 -1.1118e-05 5.54728e-06)
(3.64068e-05 -1.19868e-05 6.30022e-06)
(4.02616e-05 -1.26819e-05 7.10164e-06)
(4.26618e-05 -1.32982e-05 7.90039e-06)
(4.28421e-05 -1.36673e-05 8.70063e-06)
(4.06013e-05 -1.42784e-05 9.49307e-06)
(3.63413e-05 -1.48392e-05 1.03208e-05)
(3.05033e-05 -1.53699e-05 1.1131e-05)
(2.3691e-05 -1.58264e-05 1.17965e-05)
(1.61392e-05 -1.62068e-05 1.22552e-05)
(8.19588e-06 -1.64322e-05 1.2495e-05)
(1.34302e-07 -1.64867e-05 1.25083e-05)
(-7.74135e-06 -1.63709e-05 1.22961e-05)
(-1.51616e-05 -1.6101e-05 1.18669e-05)
(-2.17957e-05 -1.57506e-05 1.12358e-05)
(-2.73995e-05 -1.52881e-05 1.04835e-05)
(-3.13246e-05 -1.47744e-05 9.72581e-06)
(-3.31861e-05 -1.42475e-05 8.97647e-06)
(-3.26316e-05 -1.3953e-05 8.21014e-06)
(-2.9868e-05 -1.33591e-05 7.42227e-06)
(-2.56865e-05 -1.26005e-05 6.57847e-06)
(-2.05827e-05 -1.14923e-05 5.67712e-06)
(-1.51878e-05 -1.00179e-05 4.62343e-06)
(-9.73836e-06 -8.01332e-06 3.30709e-06)
(-4.90089e-06 -5.50526e-06 1.52616e-06)
(-1.17209e-06 -2.80816e-06 1.17432e-07)
(4.74862e-07 -5.95409e-07 -6.14249e-08)
(-3.16151e-06 3.17672e-06 -9.10136e-07)
(-2.42608e-06 1.81296e-06 -6.12381e-06)
(2.88179e-06 -5.47134e-07 -7.86653e-06)
(8.58902e-06 -2.95416e-06 -8.25765e-06)
(1.44967e-05 -4.7014e-06 -8.54253e-06)
(2.02579e-05 -5.64471e-06 -9.09073e-06)
(2.59099e-05 -5.79845e-06 -1.00323e-05)
(3.13257e-05 -5.08845e-06 -1.14183e-05)
(3.63497e-05 -3.40376e-06 -1.32801e-05)
(4.03485e-05 -4.27834e-07 -1.56267e-05)
(4.2878e-05 3.54865e-06 -1.83755e-05)
(4.30054e-05 8.5528e-06 -2.1328e-05)
(4.06651e-05 1.27611e-05 -2.40852e-05)
(3.65162e-05 1.62987e-05 -2.6481e-05)
(3.07308e-05 1.8816e-05 -2.84632e-05)
(2.38767e-05 2.05864e-05 -2.9954e-05)
(1.62731e-05 2.16347e-05 -3.09457e-05)
(8.31239e-06 2.21161e-05 -3.14567e-05)
(2.37355e-07 2.20649e-05 -3.14904e-05)
(-7.64827e-06 2.14809e-05 -3.10463e-05)
(-1.51016e-05 2.03311e-05 -3.01207e-05)
(-2.17176e-05 1.84658e-05 -2.86982e-05)
(-2.71971e-05 1.58875e-05 -2.68039e-05)
(-3.10167e-05 1.23127e-05 -2.45131e-05)
(-3.29959e-05 8.09095e-06 -2.18566e-05)
(-3.24477e-05 3.1465e-06 -1.90385e-05)
(-2.9471e-05 -6.06756e-07 -1.64822e-05)
(-2.49965e-05 -3.15032e-06 -1.44063e-05)
(-1.942e-05 -4.0478e-06 -1.29125e-05)
(-1.3359e-05 -3.48003e-06 -1.19802e-05)
(-6.94542e-06 -1.48798e-06 -1.14454e-05)
(-7.35051e-07 1.59364e-06 -1.08258e-05)
(4.80923e-06 4.56365e-06 -8.53452e-06)
(4.68463e-06 5.90812e-06 -1.65424e-06)
(-5.42931e-06 1.29762e-05 -7.28307e-07)
(-5.89368e-06 1.3984e-05 -8.26451e-06)
(2.75619e-08 1.29175e-05 -1.09894e-05)
(6.55076e-06 1.17589e-05 -1.20135e-05)
(1.33818e-05 1.1658e-05 -1.28484e-05)
(2.00332e-05 1.29443e-05 -1.3987e-05)
(2.66482e-05 1.58925e-05 -1.56576e-05)
(3.31728e-05 2.09215e-05 -1.79777e-05)
(3.95742e-05 2.84676e-05 -2.10114e-05)
(4.49502e-05 3.92888e-05 -2.47893e-05)
(4.87091e-05 5.27885e-05 -2.9177e-05)
(4.90005e-05 6.88565e-05 -3.39148e-05)
(4.57703e-05 8.3054e-05 -3.83816e-05)
(4.04733e-05 9.52595e-05 -4.22747e-05)
(3.34921e-05 0.000104361 -4.54386e-05)
(2.57173e-05 0.000111046 -4.78296e-05)
(1.72904e-05 0.000115323 -4.9427e-05)
(8.60434e-06 0.000117449 -5.02539e-05)
(-1.8078e-07 0.000117465 -5.03101e-05)
(-8.7888e-06 0.000115369 -4.95952e-05)
(-1.70604e-05 0.000111126 -4.81093e-05)
(-2.45967e-05 0.00010448 -4.58325e-05)
(-3.12646e-05 9.54327e-05 -4.27911e-05)
(-3.6174e-05 8.33259e-05 -3.90363e-05)
(-3.89515e-05 6.93632e-05 -3.47314e-05)
(-3.81094e-05 5.36771e-05 -3.02012e-05)
(-3.3713e-05 4.0844e-05 -2.60906e-05)
(-2.75814e-05 3.09684e-05 -2.26707e-05)
(-2.02016e-05 2.47969e-05 -2.00757e-05)
(-1.24653e-05 2.16361e-05 -1.82231e-05)
(-4.37581e-06 2.09969e-05 -1.6831e-05)
(3.16592e-06 2.21864e-05 -1.52939e-05)
(9.6115e-06 2.32485e-05 -1.15997e-05)
(7.84515e-06 2.13384e-05 -1.58806e-06)
(-7.16806e-06 2.40031e-05 8.12203e-08)
(-8.4309e-06 2.65717e-05 -8.61002e-06)
(-1.7776e-06 2.66276e-05 -1.17532e-05)
(5.86179e-06 2.68919e-05 -1.29846e-05)
(1.41183e-05 2.86636e-05 -1.40291e-05)
(2.23539e-05 3.24072e-05 -1.54179e-05)
(3.08811e-05 3.86274e-05 -1.74196e-05)
(3.97531e-05 4.81357e-05 -2.01807e-05)
(4.91476e-05 6.18501e-05 -2.37629e-05)
(5.75909e-05 8.13645e-05 -2.82193e-05)
(6.41465e-05 0.000105877 -3.33644e-05)
(6.4713e-05 0.000135574 -3.90316e-05)
(5.92849e-05 0.000161122 -4.43402e-05)
(5.13116e-05 0.000182811 -4.89647e-05)
(4.14792e-05 0.000198902 -5.27117e-05)
(3.12581e-05 0.000210773 -5.55284e-05)
(2.05095e-05 0.000218409 -5.73931e-05)
(9.65724e-06 0.000222246 -5.83567e-05)
(-1.27931e-06 0.000222329 -5.84194e-05)
(-1.20532e-05 0.000218656 -5.75806e-05)
(-2.26455e-05 0.000211185 -5.58391e-05)
(-3.26182e-05 0.000199481 -5.31475e-05)
(-4.21099e-05 0.000183594 -4.95309e-05)
(-4.96193e-05 0.000162171 -4.50533e-05)
(-5.44734e-05 0.000137072 -3.9923e-05)
(-5.31556e-05 0.000108022 -3.44851e-05)
(-4.57025e-05 8.45762e-05 -2.96467e-05)
(-3.61755e-05 6.64151e-05 -2.55762e-05)
(-2.5338e-05 5.45171e-05 -2.24526e-05)
(-1.47021e-05 4.7319e-05 -2.01612e-05)
(-4.07536e-06 4.38409e-05 -1.83948e-05)
(5.32224e-06 4.29665e-05 -1.65399e-05)
(1.29276e-05 4.25734e-05 -1.22531e-05)
(1.0196e-05 3.86187e-05 -6.6943e-07)
(-8.33546e-06 3.57117e-05 1.06859e-06)
(-9.84647e-06 3.95242e-05 -8.62066e-06)
(-1.95118e-06 4.05741e-05 -1.21213e-05)
(7.30712e-06 4.23167e-05 -1.34913e-05)
(1.7566e-05 4.60852e-05 -1.46915e-05)
(2.81285e-05 5.24233e-05 -1.63118e-05)
(3.95854e-05 6.20016e-05 -1.86502e-05)
(5.22204e-05 7.60632e-05 -2.18751e-05)
(6.67154e-05 9.62584e-05 -2.60035e-05)
(8.07119e-05 0.000125771 -3.11239e-05)
(9.28866e-05 0.000164161 -3.69348e-05)
(9.3915e-05 0.000213282 -4.36818e-05)
(8.38535e-05 0.000253324 -4.98843e-05)
(7.08484e-05 0.000286438 -5.53582e-05)
(5.59185e-05 0.000310324 -5.98133e-05)
(4.14005e-05 0.00032797 -6.31022e-05)
(2.64905e-05 0.000339309 -6.5239e-05)
(1.16942e-05 0.000345042 -6.63374e-05)
(-3.18654e-06 0.000345203 -6.64031e-05)
(-1.79087e-05 0.000339785 -6.54352e-05)
(-3.26701e-05 0.000328757 -6.34255e-05)
(-4.69363e-05 0.000311407 -6.02652e-05)
(-6.15011e-05 0.000287852 -5.59417e-05)
(-7.39553e-05 0.00025513 -5.06175e-05)
(-8.33035e-05 0.00021572 -4.46026e-05)
(-8.12596e-05 0.000167463 -3.80973e-05)
(-6.78872e-05 0.00013057 -3.2622e-05)
(-5.24933e-05 0.000102766 -2.79174e-05)
(-3.60864e-05 8.47711e-05 -2.42819e-05)
(-2.11321e-05 7.34363e-05 -2.15667e-05)
(-6.97189e-06 6.71217e-05 -1.94891e-05)
(5.0929e-06 6.42472e-05 -1.73725e-05)
(1.4679e-05 6.26632e-05 -1.25631e-05)
(1.178e-05 5.70998e-05 4.97152e-07)
(-9.17491e-06 4.70886e-05 2.09368e-06)
(-1.0371e-05 5.18066e-05 -8.71504e-06)
(-5.27637e-07 5.36607e-05 -1.26371e-05)
(1.10005e-05 5.67757e-05 -1.41721e-05)
(2.38988e-05 6.24857e-05 -1.55521e-05)
(3.74883e-05 7.12892e-05 -1.74624e-05)
(5.2758e-05 8.38792e-05 -2.02211e-05)
(7.04473e-05 0.000101835 -2.4008e-05)
(9.24025e-05 0.000127815 -2.86919e-05)
(0.000115419 0.000167918 -3.43721e-05)
(0.000138661 0.000223112 -4.01826e-05)
(0.000140773 0.000301937 -4.80502e-05)
(0.000121631 0.0003603 -5.5216e-05)
(0.000100314 0.000406518 -6.19472e-05)
(7.75872e-05 0.000438427 -6.75366e-05)
(5.67984e-05 0.000462091 -7.14622e-05)
(3.56499e-05 0.000477238 -7.39299e-05)
(1.48722e-05 0.000484946 -7.5187e-05)
(-6.03512e-06 0.000485193 -7.52556e-05)
(-2.67528e-05 0.000477964 -7.41346e-05)
(-4.77823e-05 0.000463278 -7.17979e-05)
(-6.83438e-05 0.000440028 -6.80051e-05)
(-9.07165e-05 0.00040854 -6.25494e-05)
(-0.000111407 0.000362769 -5.59742e-05)
(-0.000129703 0.000305174 -4.90124e-05)
(-0.000126213 0.000227334 -4.13918e-05)
(-0.000101428 0.000174204 -3.59547e-05)
(-7.67627e-05 0.000136112 -3.07314e-05)
(-5.2397e-05 0.000112655 -2.6599e-05)
(-3.17462e-05 9.78217e-05 -2.33977e-05)
(-1.30382e-05 8.90994e-05 -2.09745e-05)
(2.64849e-06 8.46102e-05 -1.85184e-05)
(1.52587e-05 8.21723e-05 -1.30551e-05)
(1.29642e-05 7.54099e-05 1.71275e-06)
(-9.89824e-06 5.76624e-05 3.11658e-06)
(-1.02461e-05 6.30911e-05 -9.02161e-06)
(2.41464e-06 6.5713e-05 -1.34814e-05)
(1.69818e-05 7.02348e-05 -1.52367e-05)
(3.3196e-05 7.80089e-05 -1.68422e-05)
(5.03815e-05 8.93117e-05 -1.9105e-05)
(6.99696e-05 0.000104564 -2.23482e-05)
(9.34223e-05 0.000125127 -2.67517e-05)
(0.000125046 0.000154601 -3.19017e-05)
(0.000161152 0.000202568 -3.76862e-05)
(0.000206321 0.000276146 -4.18967e-05)
(0.000211512 0.000403743 -5.06255e-05)
(0.000174163 0.000484704 -5.82956e-05)
(0.000140083 0.00054602 -6.6928e-05)
(0.000106651 0.000586522 -7.44278e-05)
(7.77746e-05 0.000617123 -7.90409e-05)
(4.82151e-05 0.000636736 -8.18492e-05)
(1.92936e-05 0.000646791 -8.32645e-05)
(-9.89068e-06 0.000647137 -8.33361e-05)
(-3.87816e-05 0.000637754 -8.20624e-05)
(-6.82877e-05 0.000618772 -7.93885e-05)
(-9.70156e-05 0.000588703 -7.49147e-05)
(-0.000130181 0.000548681 -6.75526e-05)
(-0.000163601 0.000487767 -5.90925e-05)
(-0.000200031 0.000407597 -5.16633e-05)
(-0.000192903 0.000280889 -4.31791e-05)
(-0.00014576 0.000210319 -3.94003e-05)
(-0.000107946 0.00016454 -3.41106e-05)
(-7.33576e-05 0.000137813 -2.95925e-05)
(-4.61429e-05 0.000120715 -2.58781e-05)
(-2.20831e-05 0.00010997 -2.30679e-05)
(-1.80413e-06 0.000104032 -2.01953e-05)
(1.49972e-05 0.000100817 -1.38684e-05)
(1.40274e-05 9.30641e-05 3.06376e-06)
(-1.05997e-05 6.68782e-05 4.17224e-06)
(-9.49197e-06 7.28465e-05 -9.5645e-06)
(7.05174e-06 7.62992e-05 -1.47152e-05)
(2.56508e-05 8.22968e-05 -1.67539e-05)
(4.60657e-05 9.23054e-05 -1.8645e-05)
(6.74215e-05 0.000106163 -2.13442e-05)
(9.12088e-05 0.000123538 -2.51869e-05)
(0.00011952 0.000144446 -3.04203e-05)
(0.000159655 0.000171448 -3.60603e-05)
(0.000211225 0.000220486 -4.24426e-05)
(0.000301022 0.000307777 -3.83582e-05)
(0.000315494 0.0005224 -4.54584e-05)
(0.000242984 0.000625564 -5.38179e-05)
(0.000192544 0.000699758 -6.66742e-05)
(0.000145925 0.000747092 -7.78369e-05)
(0.000107028 0.000783604 -8.32131e-05)
(6.59347e-05 0.000807198 -8.63757e-05)
(2.5579e-05 0.000819442 -8.79571e-05)
(-1.53047e-05 0.000819907 -8.80321e-05)
(-5.56766e-05 0.000808565 -8.65981e-05)
(-9.68303e-05 0.000785805 -8.35746e-05)
(-0.000135743 0.000749967 -7.83506e-05)
(-0.000182344 0.000703155 -6.73385e-05)
(-0.000232238 0.000629159 -5.46915e-05)
(-0.000303992 0.000526728 -4.66857e-05)
(-0.000286525 0.000312693 -3.97192e-05)
(-0.000194142 0.000230403 -4.42217e-05)
(-0.000141278 0.000183187 -3.84183e-05)
(-9.7484e-05 0.000158839 -3.35405e-05)
(-6.43729e-05 0.000141547 -2.91512e-05)
(-3.46758e-05 0.000129246 -2.58781e-05)
(-8.71461e-06 0.000121881 -2.24959e-05)
(1.38223e-05 0.000117799 -1.50338e-05)
(1.50721e-05 0.000109476 4.68481e-06)
(-1.13462e-05 7.43412e-05 5.35364e-06)
(-8.085e-06 8.07845e-05 -1.03267e-05)
(1.35146e-05 8.5261e-05 -1.64057e-05)
(3.72521e-05 9.322e-05 -1.87615e-05)
(6.29695e-05 0.00010643 -2.09694e-05)
(8.91631e-05 0.000124434 -2.41163e-05)
(0.000116562 0.000146127 -2.85881e-05)
(0.000145965 0.000168103 -3.47032e-05)
(0.000189705 0.000191773 -4.18189e-05)
(0.000249403 0.000234314 -4.70243e-05)
(0.000425429 0.000257988 -4.51887e-05)
(0.000464352 0.000637208 -3.52626e-05)
(0.000318454 0.00077362 -4.00415e-05)
(0.000253622 0.000867548 -5.99464e-05)
(0.000193735 0.000926505 -7.62654e-05)
(0.000143322 0.000974626 -8.20934e-05)
(8.81748e-05 0.00100609 -8.61071e-05)
(3.35709e-05 0.00102226 -8.8046e-05)
(-2.20373e-05 0.00102288 -8.81202e-05)
(-7.67183e-05 0.00100791 -8.63264e-05)
(-0.000132078 0.000977589 -8.24433e-05)
(-0.000182763 0.000930402 -7.67674e-05)
(-0.000243148 0.000872117 -6.05939e-05)
(-0.000307736 0.000778232 -4.09384e-05)
(-0.000453433 0.000642314 -3.6635e-05)
(-0.000409381 0.000260817 -4.70772e-05)
(-0.000230345 0.000245047 -4.91232e-05)
(-0.000171138 0.000204169 -4.44103e-05)
(-0.00012254 0.000183472 -3.82244e-05)
(-8.69246e-05 0.00016526 -3.31491e-05)
(-5.16331e-05 0.000149152 -2.94467e-05)
(-1.87372e-05 0.000138765 -2.55794e-05)
(1.15895e-05 0.000132925 -1.66264e-05)
(1.6337e-05 0.000124064 6.35707e-06)
(-1.19679e-05 7.9393e-05 6.68707e-06)
(-5.69515e-06 8.61282e-05 -1.1362e-05)
(2.25884e-05 9.14938e-05 -1.85663e-05)
(5.34776e-05 0.00010143 -2.13227e-05)
(8.71297e-05 0.000118046 -2.39383e-05)
(0.000121445 0.000140902 -2.76562e-05)
(0.000154619 0.000167583 -3.29357e-05)
(0.000186718 0.000189165 -4.15812e-05)
(0.000228156 0.000192284 -5.06207e-05)
(0.00018737 0.00010181 -7.35793e-05)
(0.00049782 0.000223808 -7.16125e-05)
(0.000675683 0.000886782 -3.87624e-06)
(0.000415898 0.000957803 2.34178e-06)
(0.000346681 0.00101838 -2.02171e-05)
(0.000270591 0.00107805 -4.06012e-05)
(0.000202377 0.00112823 -4.17447e-05)
(0.000123929 0.00116412 -4.42726e-05)
(4.61087e-05 0.00118267 -4.57861e-05)
(-3.27672e-05 0.00118344 -4.5838e-05)
(-0.000110695 0.00116643 -4.44305e-05)
(-0.000189479 0.001132 -4.19761e-05)
(-0.000258239 0.00108311 -4.09836e-05)
(-0.000335476 0.00102428 -2.07226e-05)
(-0.000405239 0.000963329 1.66082e-06)
(-0.000669235 0.000888742 -5.4912e-06)
(-0.00048392 0.000227037 -7.41266e-05)
(-0.000166963 0.000121139 -7.4708e-05)
(-0.000209636 0.000209136 -5.27884e-05)
(-0.000162001 0.000206197 -4.53967e-05)
(-0.000122504 0.000187495 -3.82696e-05)
(-7.90926e-05 0.000166452 -3.41048e-05)
(-3.53485e-05 0.000151997 -2.97102e-05)
(6.58298e-06 0.000144104 -1.88425e-05)
(1.71359e-05 0.000134948 8.36552e-06)
(-1.25971e-05 8.15918e-05 8.07327e-06)
(-2.71769e-06 8.84861e-05 -1.26811e-05)
(3.344e-05 9.47543e-05 -2.11744e-05)
(7.30632e-05 0.00010693 -2.44229e-05)
(0.000117004 0.000128256 -2.74916e-05)
(0.000162276 0.000160709 -3.13875e-05)
(0.000203476 0.000207105 -3.61473e-05)
(0.000231673 0.000269621 -4.01359e-05)
(0.000185457 0.000352413 -5.96307e-05)
(0.000181464 0.000399939 -9.89728e-05)
(0.000293515 0.000744085 7.43603e-05)
(0.00032127 0.00095394 4.24332e-05)
(0.000402659 0.00107281 2.92198e-05)
(0.000347796 0.00117823 2.88357e-05)
(0.000262046 0.00125276 2.38233e-05)
(0.000162336 0.00130199 1.81055e-05)
(5.97728e-05 0.001326 1.5322e-05)
(-4.41445e-05 0.0013269 1.53233e-05)
(-0.000146839 0.00130472 1.80982e-05)
(-0.000246929 0.00125741 2.38119e-05)
(-0.000333448 0.00118499 2.88475e-05)
(-0.000390291 0.00108182 2.93228e-05)
(-0.000313284 0.000965208 4.21566e-05)
(-0.000288698 0.00075469 7.27275e-05)
(-0.000177144 0.000410523 -9.5245e-05)
(-0.000176331 0.000366547 -6.1306e-05)
(-0.000211114 0.000285186 -4.47962e-05)
(-0.00017129 0.000226197 -4.2751e-05)
(-0.000116192 0.00018589 -3.95152e-05)
(-5.7821e-05 0.000162503 -3.49942e-05)
(-6.47212e-07 0.000150903 -2.19283e-05)
(1.7776e-05 0.000141212 1.03691e-05)
(-1.29548e-05 8.02175e-05 9.49231e-06)
(1.27216e-06 8.6915e-05 -1.41916e-05)
(4.68926e-05 9.31823e-05 -2.41019e-05)
(9.83505e-05 0.000105559 -2.80292e-05)
(0.000159503 0.000127531 -3.19967e-05)
(0.000232428 0.000161852 -3.71963e-05)
(0.000321572 0.000213411 -4.36502e-05)
(0.000439744 0.0002893 -4.80336e-05)
(0.000574886 0.000402022 -4.95546e-05)
(0.000844036 0.000571659 -2.99878e-05)
(0.000871896 0.000154816 5.28089e-05)
(0.000653048 0.000296731 8.67354e-05)
(0.000719376 0.000689679 0.000137699)
(0.000647008 0.0009021 0.000186449)
(0.000513955 0.00104906 0.000213849)
(0.000367108 0.00114549 0.000222417)
(0.000220635 0.00120429 0.000221854)
(7.89228e-05 0.00123216 0.000220573)
(-6.09419e-05 0.00123304 0.000220619)
(-0.000202591 0.001207 0.000221989)
(-0.00034895 0.00115017 0.000222666)
(-0.000495615 0.00105605 0.000214368)
(-0.000628596 0.000911828 0.000187579)
(-0.000701323 0.000702747 0.000139561)
(-0.000634035 0.000312089 8.99361e-05)
(-0.000860243 0.00015707 5.54186e-05)
(-0.000839123 0.00057136 -2.91193e-05)
(-0.000563976 0.000410051 -5.20935e-05)
(-0.000419845 0.000301922 -5.33789e-05)
(-0.00028881 0.000230889 -5.16765e-05)
(-0.000182888 0.000185957 -4.73092e-05)
(-9.31749e-05 0.000160975 -4.1723e-05)
(-1.29936e-05 0.00014896 -2.58561e-05)
(1.69262e-05 0.000139451 1.23779e-05)
(-1.36181e-05 7.52281e-05 1.08595e-05)
(4.30761e-06 8.13622e-05 -1.55989e-05)
(5.81613e-05 8.65704e-05 -2.68796e-05)
(0.000119134 9.67052e-05 -3.14653e-05)
(0.000192533 0.000114171 -3.62179e-05)
(0.00028141 0.000139702 -4.24657e-05)
(0.000390689 0.000173123 -4.9846e-05)
(0.000529977 0.000211754 -5.49197e-05)
(0.000690596 0.000244442 -5.3933e-05)
(0.000929132 0.000263672 -3.58745e-05)
(0.00104334 0.00012348 -7.28704e-06)
(0.000989961 0.000316877 4.49164e-05)
(0.00094202 0.000512124 0.000142783)
(0.000807737 0.000655621 0.000208623)
(0.000635909 0.000766073 0.000242905)
(0.000448958 0.000838646 0.000257165)
(0.000267742 0.000883791 0.000259928)
(9.47363e-05 0.000905512 0.000259964)
(-7.48277e-05 0.000906252 0.000260019)
(-0.000247709 0.000886026 0.000260089)
(-0.000428698 0.000842407 0.000257474)
(-0.00061532 0.000771381 0.000243528)
(-0.000787264 0.000662388 0.000209984)
(-0.000922316 0.000519626 0.000145155)
(-0.000971613 0.000323974 4.90875e-05)
(-0.00103105 0.000125759 -4.60473e-06)
(-0.00092201 0.000268971 -3.59866e-05)
(-0.000680531 0.000252938 -5.71846e-05)
(-0.000510538 0.000223709 -6.12362e-05)
(-0.000356727 0.00018963 -5.92765e-05)
(-0.000227918 0.000162611 -5.44081e-05)
(-0.000118758 0.00014593 -4.78771e-05)
(-2.11106e-05 0.000137757 -2.94131e-05)
(1.74019e-05 0.000129195 1.44336e-05)
(-1.43279e-05 6.73821e-05 1.21589e-05)
(6.60328e-06 7.28357e-05 -1.67504e-05)
(6.74088e-05 7.68406e-05 -2.92394e-05)
(0.000136104 8.45072e-05 -3.44087e-05)
(0.000218816 9.75194e-05 -3.98852e-05)
(0.000318571 0.000115866 -4.72922e-05)
(0.000440069 0.000138376 -5.63999e-05)
(0.00059003 0.000163014 -6.48e-05)
(0.000759423 0.00018324 -6.88169e-05)
(0.000957098 0.000201597 -6.1532e-05)
(0.00108654 0.000163273 -4.01791e-05)
(0.00112161 0.000252261 2.48478e-05)
(0.00107125 0.000373708 0.000127796)
(0.000915077 0.000473814 0.000192973)
(0.000716012 0.000550731 0.000227776)
(0.000501446 0.000599704 0.000236882)
(0.000297944 0.000630063 0.000235939)
(0.000104902 0.000644522 0.000234004)
(-8.35117e-05 0.000645124 0.000234025)
(-0.000276407 0.000631868 0.000235998)
(-0.000479654 0.000602705 0.000237022)
(-0.000693895 0.000554886 0.000228172)
(-0.000893274 0.000479025 0.000194091)
(-0.00105059 0.000379614 0.000129922)
(-0.00110478 0.000258568 2.88118e-05)
(-0.00107618 0.000167508 -3.78198e-05)
(-0.000949757 0.000206949 -6.16097e-05)
(-0.000748772 0.000191058 -7.22793e-05)
(-0.000569533 0.000174027 -7.16583e-05)
(-0.000403771 0.000153637 -6.67956e-05)
(-0.000260452 0.000137011 -6.05582e-05)
(-0.000137473 0.000126526 -5.29132e-05)
(-2.65371e-05 0.000121425 -3.22032e-05)
(1.81571e-05 0.000113867 1.66557e-05)
(-1.51654e-05 5.72886e-05 1.32739e-05)
(7.78707e-06 6.18886e-05 -1.76263e-05)
(7.36435e-05 6.46307e-05 -3.10963e-05)
(0.000147577 6.97645e-05 -3.67368e-05)
(0.000235961 7.83962e-05 -4.27771e-05)
(0.000341288 9.01443e-05 -5.108e-05)
(0.00046788 0.000103663 -6.15028e-05)
(0.000620112 0.000117656 -7.20256e-05)
(0.000790249 0.000128174 -7.86255e-05)
(0.000972993 0.000140163 -7.44675e-05)
(0.00111582 0.000138459 -5.34379e-05)
(0.00119294 0.000194821 7.86468e-06)
(0.00114581 0.000271533 0.000108725)
(0.00097671 0.000335067 0.000167634)
(0.000763157 0.000384379 0.000197502)
(0.000533179 0.00041639 0.000200873)
(0.000316634 0.000436546 0.000196274)
(0.000111319 0.000446264 0.000192471)
(-8.87682e-05 0.000446799 0.000192456)
(-0.000293965 0.000438132 0.000196222)
(-0.000510325 0.000418971 0.000200824)
(-0.000740095 0.000387858 0.000197627)
(-0.000954212 0.000339318 0.000168429)
(-0.0011248 0.000276297 0.000110533)
(-0.00117669 0.000199977 1.16692e-05)
(-0.00110594 0.000143159 -5.12279e-05)
(-0.000965117 0.00014597 -7.47303e-05)
(-0.000778691 0.000135762 -8.23258e-05)
(-0.000598026 0.000127824 -7.93078e-05)
(-0.00042879 0.000117436 -7.25796e-05)
(-0.000278501 0.000108886 -6.52458e-05)
(-0.000147736 0.00010358 -5.66543e-05)
(-2.83459e-05 0.000101038 -3.41249e-05)
(1.97909e-05 9.50164e-05 1.8466e-05)
(-1.59268e-05 4.58122e-05 1.41737e-05)
(8.31742e-06 4.95065e-05 -1.82572e-05)
(7.77187e-05 5.1304e-05 -3.24687e-05)
(0.000155201 5.45958e-05 -3.84628e-05)
(0.00024718 6.01799e-05 -4.49191e-05)
(0.000355641 6.77395e-05 -5.38809e-05)
(0.00048471 7.63651e-05 -6.52696e-05)
(0.000637536 8.55481e-05 -7.72215e-05)
(0.000807984 9.35476e-05 -8.5452e-05)
(0.000987151 0.000104618 -8.30885e-05)
(0.00113963 0.000114844 -6.17668e-05)
(0.00123654 0.000152242 -1.76709e-06)
(0.00119178 0.000200411 9.77838e-05)
(0.00101624 0.000242166 0.000152725)
(0.000793513 0.000274784 0.000178895)
(0.000553662 0.00029639 0.000178527)
(0.000328726 0.000310108 0.000171472)
(0.000115578 0.000316838 0.000166432)
(-9.19671e-05 0.000317367 0.000166399)
(-0.000305045 0.000311671 0.000171362)
(-0.000529892 0.000298908 0.000178377)
(-0.000769677 0.00027813 0.000178871)
(-0.000993192 0.000246192 0.000153341)
(-0.00117046 0.000204924 9.93821e-05)
(-0.00122045 0.000157225 1.76949e-06)
(-0.0011298 0.000119779 -5.96671e-05)
(-0.000978725 0.00011034 -8.3434e-05)
(-0.000795414 0.000100542 -8.93074e-05)
(-0.000613734 9.45205e-05 -8.47813e-05)
(-0.000442889 8.81517e-05 -7.67862e-05)
(-0.000288686 8.33767e-05 -6.86113e-05)
(-0.000153246 8.06763e-05 -5.92745e-05)
(-2.84459e-05 7.94055e-05 -3.53673e-05)
(2.14955e-05 7.47224e-05 1.98555e-05)
(-1.65601e-05 3.34819e-05 1.4812e-05)
(8.41758e-06 3.61861e-05 -1.87037e-05)
(8.00889e-05 3.72629e-05 -3.3428e-05)
(0.000159796 3.91939e-05 -3.96598e-05)
(0.000253929 4.2559e-05 -4.63823e-05)
(0.000364147 4.72095e-05 -5.5751e-05)
(0.000494583 5.27099e-05 -6.77149e-05)
(0.000647962 5.90308e-05 -8.04444e-05)
(0.000819514 6.56704e-05 -8.95025e-05)
(0.000999335 7.54876e-05 -8.78675e-05)
(0.00115808 8.74735e-05 -6.65054e-05)
(0.00126514 0.000112152 -6.31683e-06)
(0.00122193 0.000142678 9.29114e-05)
(0.00104214 0.000169555 0.000146252)
(0.000813508 0.000190713 0.00017069)
(0.000567437 0.000205247 0.000168587)
(0.000337009 0.000214677 0.000160414)
(0.000118637 0.000219481 0.00015482)
(-9.39521e-05 0.000220051 0.000154783)
(-0.000312319 0.000216353 0.000160289)
(-0.000542784 0.000207921 0.000168408)
(-0.000788969 0.000194221 0.00017062)
(-0.0010186 0.00017369 0.00014681)
(-0.00120027 0.000147224 9.44029e-05)
(-0.00124906 0.000117067 -3.18299e-06)
(-0.00114822 9.23814e-05 -6.45337e-05)
(-0.000990456 8.08515e-05 -8.8315e-05)
(-0.000806084 7.18326e-05 -9.35097e-05)
(-0.000622726 6.65078e-05 -8.82299e-05)
(-0.000450564 6.20988e-05 -7.95487e-05)
(-0.000293988 5.92107e-05 -7.08608e-05)
(-0.000155808 5.77954e-05 -6.10294e-05)
(-2.77459e-05 5.71397e-05 -3.61744e-05)
(2.30199e-05 5.37886e-05 2.07523e-05)
(-1.69847e-05 2.07677e-05 1.51876e-05)
(8.36674e-06 2.24486e-05 -1.90076e-05)
(8.13434e-05 2.29953e-05 -3.40394e-05)
(0.00016236 2.39577e-05 -4.04073e-05)
(0.000257799 2.57424e-05 -4.72761e-05)
(0.000369174 2.83974e-05 -5.68625e-05)
(0.000500686 3.19018e-05 -6.91287e-05)
(0.000654959 3.64478e-05 -8.22422e-05)
(0.000827935 4.21132e-05 -9.16847e-05)
(0.00100939 5.01393e-05 -9.03096e-05)
(0.00117189 6.03152e-05 -6.88353e-05)
(0.00128373 7.54574e-05 -8.06991e-06)
(0.00124116 9.25984e-05 9.14666e-05)
(0.00105877 0.000107995 0.000144623)
(0.000826493 0.00012028 0.000168599)
(0.000576598 0.000129166 0.000165953)
(0.000342644 0.000135112 0.000157412)
(0.000120889 0.000138347 0.00015164)
(-9.50222e-05 0.000138994 0.000151606)
(-0.000316854 0.00013701 0.000157297)
(-0.000551005 0.000132176 0.000165787)
(-0.000801241 0.000124191 0.000168544)
(-0.00103479 0.000112517 0.000145186)
(-0.0012193 9.7429e-05 9.29593e-05)
(-0.0012677 8.03559e-05 -5.06393e-06)
(-0.00116204 6.51089e-05 -6.69502e-05)
(-0.00100028 5.503e-05 -9.08638e-05)
(-0.000813995 4.72967e-05 -9.58375e-05)
(-0.000628824 4.22435e-05 -9.02201e-05)
(-0.000455278 3.86489e-05 -8.1206e-05)
(-0.000297018 3.64737e-05 -7.22467e-05)
(-0.000157127 3.54582e-05 -6.21362e-05)
(-2.71273e-05 3.49692e-05 -3.67065e-05)
(2.40476e-05 3.28448e-05 2.12388e-05)
(-1.7182e-05 7.96346e-06 1.52967e-05)
(8.2713e-06 8.59377e-06 -1.91948e-05)
(8.17231e-05 8.65345e-06 -3.43429e-05)
(0.000163288 8.74398e-06 -4.07526e-05)
(0.000259377 9.09945e-06 -4.76586e-05)
(0.000371519 9.94955e-06 -5.72957e-05)
(0.000503984 1.16343e-05 -6.96288e-05)
(0.000659428 1.4488e-05 -8.2817e-05)
(0.000833864 1.90124e-05 -9.23272e-05)
(0.00101688 2.49977e-05 -9.09869e-05)
(0.00118094 3.25872e-05 -6.95153e-05)
(0.00129369 3.93242e-05 -8.59749e-06)
(0.0012508 4.45223e-05 9.13414e-05)
(0.00106717 4.93226e-05 0.000144833)
(0.000833246 5.32731e-05 0.00016896)
(0.000581644 5.67538e-05 0.000166375)
(0.000345943 5.93706e-05 0.000157842)
(0.000122456 6.11273e-05 0.000152073)
(-9.52301e-05 6.18879e-05 0.000152044)
(-0.000318896 6.16011e-05 0.00015774)
(-0.000554991 6.02777e-05 0.000166227)
(-0.000807228 5.78242e-05 0.000168925)
(-0.00104277 5.45055e-05 0.000145406)
(-0.00122888 4.99266e-05 9.28436e-05)
(-0.00127784 4.45169e-05 -5.54818e-06)
(-0.00117123 3.73462e-05 -6.7717e-05)
(-0.00100783 2.94519e-05 -9.16772e-05)
(-0.000819853 2.32405e-05 -9.66469e-05)
(-0.000633045 1.86159e-05 -9.09864e-05)
(-0.000458132 1.5732e-05 -8.19182e-05)
(-0.000298687 1.40817e-05 -7.29029e-05)
(-0.000157817 1.33004e-05 -6.27151e-05)
(-2.69097e-05 1.29112e-05 -3.706e-05)
(2.4479e-05 1.20235e-05 2.13566e-05)
(-1.71563e-05 -4.62087e-06 1.51415e-05)
(8.12485e-06 -5.03246e-06 -1.92677e-05)
(8.12193e-05 -5.52022e-06 -3.43429e-05)
(0.000162565 -6.42128e-06 -4.07024e-05)
(0.000258635 -7.69191e-06 -4.75426e-05)
(0.000371117 -8.93404e-06 -5.70725e-05)
(0.000504353 -9.41815e-06 -6.9246e-05)
(0.000661199 -8.57778e-06 -8.22086e-05)
(0.000837167 -5.25023e-06 -9.14769e-05)
(0.00102179 -9.56277e-07 -8.99608e-05)
(0.00118541 5.44977e-06 -6.86223e-05)
(0.00129534 4.444e-06 -7.82357e-06)
(0.00125096 -2.93179e-06 9.2246e-05)
(0.00106726 -9.33259e-06 0.000146427)
(0.00083367 -1.42672e-05 0.000171227)
(0.000582509 -1.64796e-05 0.000169251)
(0.000346889 -1.73525e-05 0.000161068)
(0.000123359 -1.71172e-05 0.000155466)
(-9.4519e-05 -1.61875e-05 0.000155438)
(-0.000318352 -1.4621e-05 0.000160969)
(-0.000554606 -1.21632e-05 0.0001691)
(-0.000806763 -8.69194e-06 0.000171174)
(-0.00104241 -3.04108e-06 0.000146951)
(-0.00122903 3.50431e-06 9.36454e-05)
(-0.00127984 1.0281e-05 -5.01723e-06)
(-0.00117615 1.042e-05 -6.70043e-05)
(-0.00101312 3.32389e-06 -9.08519e-05)
(-0.00082353 -1.69244e-06 -9.60049e-05)
(-0.000635231 -5.80378e-06 -9.05784e-05)
(-0.00045901 -7.64502e-06 -8.17187e-05)
(-0.000298924 -8.42686e-06 -7.28514e-05)
(-0.000157842 -8.71085e-06 -6.27809e-05)
(-2.70616e-05 -8.85938e-06 -3.72414e-05)
(2.43359e-05 -8.49173e-06 2.11076e-05)
(-1.69343e-05 -1.66745e-05 1.4726e-05)
(7.81162e-06 -1.8116e-05 -1.92088e-05)
(7.95852e-05 -1.9349e-05 -3.40118e-05)
(0.000159772 -2.16378e-05 -4.02259e-05)
(0.000254909 -2.51989e-05 -4.68893e-05)
(0.000367021 -2.95333e-05 -5.61397e-05)
(0.000500599 -3.34994e-05 -6.79135e-05)
(0.000659055 -3.60673e-05 -8.03132e-05)
(0.000836915 -3.4683e-05 -8.89644e-05)
(0.00102445 -3.1536e-05 -8.68884e-05)
(0.00118617 -2.19663e-05 -6.56923e-05)
(0.00128803 -3.06811e-05 -5.27917e-06)
(0.00124022 -5.38018e-05 9.5452e-05)
(0.00105792 -7.4578e-05 0.000151335)
(0.000826933 -9.10684e-05 0.000177816)
(0.000578712 -0.000100437 0.000177481)
(0.000345231 -0.000105568 0.000170288)
(0.000123567 -0.000107119 0.000165154)
(-9.27199e-05 -0.000105939 0.000165106)
(-0.00031483 -0.000102087 0.000170122)
(-0.000549225 -9.49132e-05 0.000177209)
(-0.000798895 -8.38766e-05 0.000177587)
(-0.0010325 -6.64718e-05 0.000151622)
(-0.00121843 -4.55984e-05 9.65734e-05)
(-0.00127307 -2.3694e-05 -2.63584e-06)
(-0.00117745 -1.64702e-05 -6.43555e-05)
(-0.00101633 -2.69882e-05 -8.81077e-05)
(-0.000823989 -3.12695e-05 -9.37917e-05)
(-0.00063406 -3.40526e-05 -8.89231e-05)
(-0.000456639 -3.34244e-05 -8.05493e-05)
(-0.000296737 -3.20251e-05 -7.20253e-05)
(-0.000156536 -3.08669e-05 -6.22591e-05)
(-2.7247e-05 -3.02809e-05 -3.71925e-05)
(2.37139e-05 -2.85225e-05 2.04715e-05)
(-1.66017e-05 -2.77019e-05 1.40516e-05)
(7.05784e-06 -3.00957e-05 -1.89859e-05)
(7.62573e-05 -3.22606e-05 -3.33021e-05)
(0.000153941 -3.63428e-05 -3.92657e-05)
(0.000246617 -4.29169e-05 -4.56173e-05)
(0.000356789 -5.15287e-05 -5.43609e-05)
(0.000489287 -6.07514e-05 -6.53849e-05)
(0.000648949 -6.89354e-05 -7.66409e-05)
(0.000829477 -7.1087e-05 -8.39684e-05)
(0.00102469 -6.92249e-05 -8.03536e-05)
(0.00118367 -4.61778e-05 -5.97e-05)
(0.00126835 -6.34759e-05 4.78602e-07)
(0.00121373 -0.000111192 0.000102503)
(0.00103439 -0.000152167 0.00016171)
(0.000809442 -0.000184687 0.000191259)
(0.000568133 -0.000203938 0.000194232)
(0.000339895 -0.000214992 0.000189145)
(0.000122813 -0.00021905 0.000185031)
(-8.93984e-05 -0.000217477 0.00018492)
(-0.000307077 -0.00021031 0.000188785)
(-0.000536518 -0.000196425 0.000193622)
(-0.000779816 -0.000174728 0.000190553)
(-0.0010081 -0.000140838 0.0001614)
(-0.00119208 -9.96652e-05 0.000103031)
(-0.00125429 -5.40954e-05 2.79577e-06)
(-0.0011756 -3.94456e-05 -5.88093e-05)
(-0.00101707 -6.34152e-05 -8.20999e-05)
(-0.000817417 -6.68233e-05 -8.92321e-05)
(-0.000625318 -6.67265e-05 -8.55406e-05)
(-0.000447415 -6.14461e-05 -7.8136e-05)
(-0.000289521 -5.61033e-05 -7.02296e-05)
(-0.00015225 -5.23426e-05 -6.09831e-05)
(-2.65943e-05 -5.04586e-05 -3.67771e-05)
(2.29542e-05 -4.73344e-05 1.93657e-05)
(-1.6198e-05 -3.71789e-05 1.31675e-05)
(5.70063e-06 -4.04789e-05 -1.85542e-05)