/*--------------------------------*- C++ -*----------------------------------*\
| =========                 |                                                 |
| \\      /  F ield         | OpenFOAM: The Open Source CFD Toolbox           |
|  \\    /   O peration     | Version:  2112                                  |
|   \\  /    A nd           | Website:  www.openfoam.com                      |
|    \\/     M anipulation  |                                                 |
\*---------------------------------------------------------------------------*/
FoamFile
{
    version     2.0;
    format      ascii;
    arch        "LSB;label=32;scalar=64";
    class       volScalarField;
    location    "2";
    object      epsilon;
}
// * * * * * * * * * * * * * * * * * * * * * * * * * * * * * * * * * * * * * //

dimensions      [0 2 -3 0 0 0 0];

internalField   nonuniform List<scalar> 
64906
(
0.00102489
0.0011354
0.00119253
0.00121356
0.0012202
0.00122209
0.00122261
0.00122275
0.00122281
0.00122285
0.00122288
0.0012229
0.00122291
0.00122291
0.00122291
0.0012229
0.00122288
0.00122286
0.00122285
0.00122286
0.00122288
0.00122289
0.00122289
0.00122289
0.00122288
0.00122285
0.0012228
0.00122266
0.00122215
0.00122026
0.00121362
0.00119259
0.00113545
0.00102493
0.00113543
0.00188715
0.00226655
0.00242313
0.00248064
0.00249953
0.00250515
0.00250671
0.00250714
0.00250727
0.00250733
0.00250739
0.00250745
0.00250752
0.00250758
0.00250762
0.00250764
0.00250765
0.00250765
0.00250765
0.00250762
0.00250759
0.00250753
0.00250747
0.00250739
0.00250726
0.00250686
0.00250534
0.00249975
0.00248087
0.00242336
0.00226677
0.00188733
0.00113552
0.00119263
0.00226668
0.00285139
0.00311312
0.00321761
0.00325488
0.00326684
0.00327031
0.00327118
0.00327131
0.0032713
0.00327139
0.00327157
0.00327182
0.00327205
0.00327221
0.00327232
0.00327237
0.00327238
0.00327234
0.00327225
0.00327209
0.00327187
0.00327163
0.00327141
0.00327113
0.0032703
0.003267
0.0032552
0.00321803
0.00311356
0.00285181
0.00226701
0.00119279
0.00121371
0.00242337
0.00311326
0.00343743
0.00357332
0.0036241
0.00364098
0.00364571
0.0036463
0.00364551
0.00364458
0.00364422
0.00364435
0.00364475
0.00364519
0.00364547
0.00364562
0.00364569
0.0036457
0.00364565
0.00364552
0.00364525
0.00364484
0.00364443
0.00364424
0.00364429
0.00364392
0.00363998
0.00362391
0.00357363
0.00343797
0.00311384
0.00242382
0.00121391
0.00122038
0.00248095
0.00321785
0.00357342
0.0037265
0.00378499
0.00380426
0.00380836
0.00380624
0.00380152
0.00379697
0.00379486
0.00379457
0.00379522
0.003796
0.00379634
0.00379641
0.00379643
0.00379644
0.00379645
0.0037964
0.00379609
0.00379533
0.00379467
0.00379488
0.00379659
0.00379952
0.00379853
0.00378233
0.00372583
0.00357372
0.00321846
0.00248148
0.00122062
0.00122229
0.00249986
0.00325515
0.00362424
0.00378504
0.00384651
0.00386493
0.00386424
0.00385285
0.00383556
0.00381994
0.00381379
0.00381326
0.00381503
0.00381682
0.00381713
0.00381684
0.00381664
0.00381666
0.00381689
0.00381721
0.00381693
0.00381516
0.00381339
0.00381383
0.00381953
0.00383339
0.00384445
0.00383611
0.00378109
0.00362345
0.00325553
0.00250042
0.00122257
0.0012228
0.00250547
0.00326709
0.00364112
0.00380436
0.00386506
0.00387785
0.0038634
0.00382669
0.00377444
0.00372899
0.00371861
0.0037227
0.00372972
0.0037349
0.00373523
0.00373421
0.00373359
0.00373361
0.00373426
0.00373533
0.00373503
0.00372988
0.00372286
0.00371868
0.00372859
0.00377227
0.00381811
0.00383454
0.00379192
0.00363738
0.00326669
0.00250593
0.0012231
0.00122294
0.00250699
0.00327051
0.00364587
0.00380865
0.00386495
0.00386449
0.00381888
0.00372206
0.00358108
0.00345855
0.00346441
0.0034977
0.00352365
0.0035382
0.00353951
0.00353782
0.00353683
0.00353685
0.00353789
0.00353962
0.00353836
0.00352384
0.0034979
0.00346454
0.00345822
0.00357905
0.00371367
0.00379008
0.00377815
0.00363593
0.0032684
0.00250714
0.00122325
0.00122299
0.00250736
0.00327134
0.00364659
0.00380721
0.00385548
0.00383178
0.00372823
0.0035077
0.00315517
0.00282314
0.00296169
0.00310839
0.0031863
0.00322002
0.00322585
0.00322541
0.00322484
0.00322486
0.00322548
0.00322597
0.0032202
0.00318652
0.00310865
0.00296192
0.00282291
0.00315345
0.00349977
0.00369992
0.00374576
0.0036264
0.00326639
0.00250695
0.00122328
0.001223
0.00250742
0.00327147
0.00364621
0.00380416
0.00384287
0.00378983
0.00360479
0.00317696
0.00236881
0.00150843
0.00213934
0.00259663
0.00277715
0.00283631
0.00285258
0.00285632
0.00285705
0.00285707
0.00285639
0.00285269
0.00283647
0.00277738
0.00259697
0.00213974
0.00150833
0.0023676
0.00316965
0.00357709
0.0037043
0.00361403
0.00326329
0.00250633
0.00122327
0.001223
0.0025074
0.00327155
0.00364613
0.00380282
0.00383643
0.00376567
0.0035214
0.0028951
0.00153329
0.00141478
0.00220979
0.00248426
0.0025613
0.00258051
0.00258447
0.00258514
0.00258515
0.0025845
0.00258056
0.0025614
0.00248444
0.00221011
0.00141498
0.0015328
0.00288828
0.003494
0.0036803
0.00360758
0.00326176
0.00250596
0.00122326
0.00122298
0.00250739
0.00327179
0.00364697
0.0038053
0.00384403
0.00378993
0.00360131
0.00316586
0.00234606
0.00149119
0.00204618
0.00246701
0.00262891
0.00267808
0.00269012
0.00269109
0.00269063
0.00269063
0.00269106
0.00269008
0.00267803
0.00262887
0.002467
0.00204602
0.00149081
0.00234422
0.00315815
0.00357331
0.00370405
0.00361464
0.00326367
0.00250623
0.00122326
0.00122296
0.00250738
0.00327213
0.0036483
0.00380965
0.00385775
0.00383131
0.00371896
0.00347787
0.00308656
0.00269434
0.00272189
0.00276687
0.00279105
0.00279977
0.00280047
0.00279898
0.00279804
0.00279803
0.00279893
0.00280038
0.00279965
0.00279088
0.00276661
0.00272142
0.00269335
0.0030842
0.0034695
0.00369025
0.00374468
0.0036276
0.00326727
0.00250687
0.00122326
0.00122292
0.00250736
0.00327245
0.00364952
0.00381357
0.00386958
0.00386466
0.00380463
0.00367315
0.00346372
0.00322718
0.00307053
0.0029467
0.00289167
0.00287255
0.00286561
0.00286273
0.00286163
0.00286161
0.00286267
0.0028655
0.00287239
0.00289143
0.00294637
0.00307005
0.00322618
0.00346116
0.00366438
0.00377534
0.00377735
0.0036387
0.00327046
0.00250744
0.00122323
0.00122287
0.00250734
0.00327267
0.00365037
0.00381613
0.0038769
0.00388405
0.00385071
0.00376803
0.00362448
0.0034284
0.00321674
0.00302846
0.00293873
0.00290607
0.00289522
0.0028915
0.00289022
0.00289019
0.00289141
0.00289508
0.00290589
0.00293848
0.00302812
0.00321609
0.00342743
0.00362185
0.00375905
0.00382106
0.00379626
0.00364549
0.00327249
0.00250778
0.00122317
0.00122282
0.0025073
0.00327281
0.00365086
0.00381753
0.00388061
0.00389326
0.0038712
0.00380715
0.00368528
0.00349895
0.00327027
0.0030593
0.00295677
0.00291882
0.0029063
0.0029021
0.00290062
0.00290057
0.00290199
0.00290615
0.00291862
0.00295651
0.00305896
0.00326963
0.00349801
0.00368263
0.00379807
0.00384137
0.0038052
0.00364888
0.00327354
0.00250793
0.0012231
0.00122277
0.00250727
0.00327289
0.00365113
0.00381821
0.00388225
0.00389704
0.0038791
0.0038213
0.00370588
0.00352162
0.00328766
0.00306938
0.00296272
0.00292298
0.00290983
0.00290536
0.00290366
0.0029036
0.00290523
0.00290967
0.00292277
0.00296245
0.00306904
0.00328703
0.00352069
0.00370323
0.00381219
0.00384918
0.00380886
0.00365036
0.00327403
0.00250797
0.00122303
0.00122272
0.00250724
0.00327293
0.00365127
0.0038185
0.00388289
0.00389838
0.00388169
0.00382568
0.00371193
0.00352802
0.00329257
0.00307223
0.0029644
0.00292414
0.00291077
0.00290614
0.00290426
0.00290418
0.00290599
0.00291059
0.00292392
0.00296413
0.00307188
0.00329195
0.0035271
0.00370929
0.00381656
0.00385175
0.00381015
0.00365092
0.00327423
0.00250798
0.00122295
0.00122268
0.00250723
0.00327295
0.00365131
0.00381857
0.00388297
0.00389849
0.00388184
0.00382586
0.00371215
0.00352825
0.00329279
0.00307237
0.00296449
0.00292417
0.00291075
0.00290606
0.00290406
0.00290396
0.00290589
0.00291056
0.00292395
0.00296421
0.00307202
0.00329219
0.00352735
0.00370953
0.00381677
0.00385192
0.00381028
0.00365101
0.00327428
0.00250797
0.00122289
0.00122268
0.00250724
0.00327295
0.00365126
0.0038184
0.00388252
0.00389739
0.00387955
0.00382187
0.00370656
0.00352236
0.00328837
0.00306983
0.00296299
0.0029231
0.00290981
0.00290514
0.00290315
0.00290305
0.00290496
0.0029096
0.00292288
0.00296272
0.00306949
0.00328779
0.00352149
0.00370398
0.00381282
0.00384969
0.00380925
0.00365062
0.00327417
0.00250797
0.00122289
0.00122272
0.00250728
0.00327291
0.00365108
0.00381786
0.00388106
0.00389385
0.00387199
0.00380816
0.0036865
0.00350033
0.00327163
0.00306015
0.00295732
0.0029191
0.00290633
0.00290183
0.00289999
0.0028999
0.00290165
0.00290613
0.00291888
0.00295706
0.00305984
0.00327111
0.00349952
0.003684
0.00379921
0.00384226
0.00380586
0.00364933
0.00327379
0.00250794
0.00122296
0.00122277
0.00250732
0.00327282
0.00365067
0.00381659
0.00387753
0.00388491
0.00385187
0.00376956
0.00362644
0.00343072
0.00321907
0.0030299
0.00293969
0.00290664
0.00289544
0.00289136
0.00288976
0.00288969
0.0028912
0.00289525
0.00290645
0.00293947
0.00302965
0.00321868
0.00343004
0.00362409
0.00376081
0.00382239
0.00379722
0.00364614
0.00327285
0.00250782
0.00122303
0.00122282
0.00250737
0.00327265
0.00364992
0.00381417
0.00387041
0.0038658
0.0038062
0.00367533
0.0034667
0.00323089
0.00307382
0.00294886
0.00289309
0.00287345
0.0028661
0.00286287
0.00286153
0.00286149
0.00286275
0.00286595
0.00287329
0.00289294
0.00294874
0.00307365
0.00323042
0.00346461
0.00366692
0.00377715
0.00377862
0.00363955
0.00327093
0.00250752
0.00122309
0.00122287
0.0025074
0.00327238
0.00364878
0.00381038
0.00385876
0.00383269
0.0037209
0.00348068
0.0030906
0.00269973
0.00272623
0.00276916
0.0027922
0.00280024
0.00280051
0.00279874
0.00279765
0.00279762
0.00279866
0.00280039
0.00280009
0.00279206
0.00276912
0.00272644
0.00269959
0.00308896
0.00347277
0.00369247
0.00374623
0.00362863
0.00326785
0.002507
0.00122313
0.0012229
0.00250742
0.00327205
0.00364747
0.00380607
0.00384511
0.00379142
0.00360339
0.00316888
0.00235037
0.00149358
0.00204828
0.00246542
0.0026255
0.00267349
0.00268494
0.00268564
0.00268506
0.00268503
0.00268554
0.00268473
0.00267305
0.00262477
0.00246468
0.00204851
0.00149339
0.00234934
0.00316145
0.00357552
0.00370563
0.00361575
0.0032643
0.00250639
0.00122314
0.00122292
0.00250739
0.00327166
0.0036464
0.0038033
0.00383718
0.00376667
0.00352255
0.00289622
0.00153358
0.00140926
0.0021928
0.00245996
0.00253225
0.00254958
0.0025529
0.0025533
0.00255321
0.00255255
0.0025487
0.00253019
0.00245585
0.00218691
0.00140631
0.00153229
0.00288814
0.00349441
0.0036811
0.00360835
0.00326226
0.00250609
0.00122315
0.00122291
0.00250708
0.00327081
0.00364529
0.00380319
0.00384205
0.0037892
0.0036041
0.00317573
0.00236672
0.00150564
0.0021069
0.00253473
0.00268452
0.00272457
0.00273502
0.00273759
0.00273806
0.00273789
0.00273679
0.0027325
0.00271745
0.00266812
0.00250679
0.00208373
0.00149891
0.00235751
0.00316262
0.0035736
0.00370288
0.00361344
0.003263
0.00250614
0.00122316
0.00122279
0.00250567
0.00326756
0.00364103
0.00380064
0.0038485
0.0038245
0.00371975
0.00349527
0.00313271
0.00277815
0.00286299
0.00293572
0.0029318
0.00291868
0.00291218
0.00291012
0.00290954
0.00290925
0.00290867
0.00290697
0.00290235
0.00288989
0.00285594
0.00278627
0.00272617
0.00309935
0.00347104
0.00368479
0.00373705
0.00362078
0.00326293
0.00250541
0.00122308
0.0012223
0.00250016
0.00325585
0.00362489
0.00378385
0.00383827
0.00383659
0.00378826
0.00368318
0.00352052
0.00334957
0.00326311
0.00316215
0.00304392
0.00298665
0.00296635
0.00296034
0.00295876
0.00295838
0.00295838
0.00295902
0.00296231
0.0029756
0.00301842
0.00312192
0.00324946
0.00346114
0.0036475
0.00374945
0.00374952
0.00361451
0.00325403
0.00250049
0.00122261
0.00122042
0.00248134
0.00321875
0.00357464
0.0037272
0.00378271
0.00379282
0.00377468
0.0037278
0.00364894
0.00354476
0.00342706
0.00327714
0.00312469
0.00305223
0.00302663
0.00301909
0.00301717
0.00301678
0.00301699
0.00301853
0.0030251
0.00304844
0.00311715
0.00326773
0.00343043
0.0035819
0.00368944
0.00373669
0.00371062
0.00357046
0.00321869
0.00248201
0.00122073
0.00121378
0.00242383
0.00311428
0.00343897
0.00357506
0.00362504
0.00363852
0.00363403
0.0036143
0.0035755
0.00351273
0.00342212
0.00330359
0.00318634
0.00312528
0.00310203
0.00309497
0.0030932
0.00309288
0.00309309
0.00309468
0.0031014
0.00312388
0.00318403
0.00330153
0.00342449
0.00352343
0.0035843
0.00360308
0.00356834
0.00343815
0.00311511
0.00242465
0.00121408
0.00119273
0.00226717
0.00285244
0.00311473
0.00321969
0.00325709
0.00326827
0.00326872
0.00326172
0.00324496
0.00321374
0.00316367
0.00309678
0.00303095
0.00299383
0.00297861
0.0029737
0.00297242
0.00297218
0.00297237
0.00297359
0.00297839
0.00299339
0.0030303
0.00309629
0.00316435
0.00321596
0.00324467
0.00324888
0.00321816
0.00311548
0.00285358
0.00226797
0.00119301
0.00113556
0.00188761
0.00226744
0.00242445
0.00248236
0.00250161
0.0025074
0.00250855
0.00250709
0.0025022
0.00249173
0.00247348
0.00244822
0.00242278
0.0024076
0.00240098
0.00239871
0.00239806
0.00239794
0.00239807
0.00239872
0.00240097
0.00240755
0.00242269
0.00244814
0.00247361
0.00249195
0.00250111
0.0025003
0.00248297
0.00242553
0.0022684
0.00188822
0.00113578
0.00102499
0.00113562
0.00119293
0.00121412
0.00122093
0.00122301
0.00122371
0.00122403
0.00122418
0.0012241
0.0012236
0.00122238
0.00122039
0.00121815
0.00121675
0.00121605
0.00121571
0.0012155
0.00121542
0.00121552
0.00121572
0.00121605
0.00121673
0.00121811
0.00122031
0.00122228
0.0012235
0.00122389
0.0012235
0.00122149
0.00121462
0.00119332
0.00113588
0.00102514
0.00133489
0.00177673
0.00202176
0.00212408
0.00216112
0.00217306
0.00217653
0.00217745
0.00217767
0.0021777
0.00217768
0.00217764
0.00217761
0.00217759
0.00217756
0.00217754
0.00217752
0.0021775
0.0021775
0.00217751
0.00217753
0.00217755
0.00217757
0.00217759
0.00217761
0.0021776
0.00217741
0.00217652
0.00217307
0.00216115
0.00212412
0.0020218
0.00177677
0.00133493
0.00177674
0.00207737
0.00235922
0.00249414
0.00254788
0.00256653
0.00257227
0.00257385
0.00257421
0.00257423
0.00257417
0.0025741
0.00257406
0.00257403
0.00257402
0.00257401
0.00257399
0.00257399
0.00257399
0.002574
0.00257401
0.00257402
0.00257404
0.00257406
0.00257409
0.00257406
0.00257374
0.00257222
0.00256652
0.0025479
0.00249419
0.00235927
0.00207741
0.00177678
0.00202185
0.00235927
0.0027023
0.0028786
0.00295412
0.0029823
0.0029916
0.00299427
0.00299481
0.00299472
0.00299449
0.00299432
0.00299425
0.00299425
0.00299427
0.00299428
0.00299429
0.00299429
0.00299429
0.00299429
0.00299429
0.00299428
0.00299426
0.00299426
0.00299429
0.00299428
0.00299381
0.00299132
0.00298221
0.00295415
0.00287869
0.00270242
0.00235938
0.00202196
0.00212425
0.00249426
0.00287867
0.0030836
0.00317504
0.0032106
0.00322269
0.00322602
0.00322625
0.00322541
0.00322444
0.00322385
0.00322365
0.00322368
0.00322376
0.00322381
0.00322381
0.00322381
0.00322381
0.00322382
0.00322382
0.00322378
0.0032237
0.00322367
0.00322381
0.00322414
0.00322411
0.00322142
0.00320998
0.00317488
0.00308368
0.00287884
0.00249444
0.00212444
0.00216135
0.00254803
0.00295424
0.0031751
0.00327582
0.00331573
0.00332913
0.00333187
0.00333014
0.00332657
0.00332315
0.00332131
0.00332081
0.00332094
0.00332116
0.00332124
0.0033212
0.00332116
0.00332116
0.00332121
0.00332126
0.00332119
0.00332097
0.00332083
0.00332126
0.00332278
0.003325
0.00332441
0.00331324
0.00327484
0.0031749
0.00295437
0.00254824
0.00216159
0.00217332
0.0025667
0.00298244
0.00321068
0.00331577
0.00335732
0.00336996
0.00336933
0.00336139
0.00334972
0.00333941
0.00333482
0.00333432
0.00333518
0.00333591
0.00333612
0.00333597
0.00333583
0.00333584
0.00333599
0.00333615
0.00333595
0.00333522
0.00333436
0.00333477
0.00333901
0.003348
0.00335518
0.00334933
0.00331232
0.00320957
0.0029823
0.00256685
0.00217357
0.0021768
0.00257243
0.00299173
0.00322279
0.00332923
0.00337008
0.00337879
0.00336903
0.00334498
0.00331233
0.0032853
0.00327638
0.0032789
0.00328316
0.00328567
0.00328656
0.00328638
0.0032861
0.00328611
0.0032864
0.00328659
0.00328571
0.00328322
0.00327895
0.00327634
0.0032849
0.00331057
0.00333858
0.00334845
0.00331973
0.00321941
0.00299087
0.0025724
0.00217699
0.00217771
0.00257399
0.0029944
0.00322617
0.00333217
0.00336994
0.00336987
0.00334039
0.00328057
0.00319996
0.00313847
0.00312452
0.00314175
0.00315752
0.00316485
0.00316832
0.00316869
0.00316841
0.00316842
0.00316872
0.00316836
0.00316491
0.00315759
0.00314183
0.00312451
0.00313809
0.00319822
0.00327415
0.00331964
0.00331031
0.00321821
0.00299206
0.00257354
0.00217773
0.00217791
0.00257433
0.00299496
0.00322657
0.00333101
0.00336342
0.00334869
0.00328502
0.00315906
0.0029857
0.00288773
0.00284367
0.00290472
0.00295026
0.0029676
0.0029781
0.00298071
0.00298092
0.00298093
0.00298074
0.00297815
0.00296767
0.00295036
0.00290484
0.00284372
0.00288736
0.00298397
0.00315265
0.00326424
0.00328898
0.00321134
0.00299031
0.00257321
0.00217761
0.00217792
0.00257433
0.00299494
0.00322613
0.00332873
0.00335507
0.00332318
0.00321728
0.00300471
0.00272527
0.00322537
0.00246598
0.00259459
0.00269422
0.00272697
0.00274918
0.00275566
0.00275685
0.00275686
0.00275569
0.00274923
0.00272704
0.00269435
0.00259476
0.00246607
0.00322447
0.00272338
0.0029982
0.00319641
0.00326334
0.00320278
0.00298774
0.00257245
0.00217723
0.00217787
0.00257427
0.00299488
0.00322588
0.0033276
0.00335091
0.00331019
0.00318383
0.00295908
0.00336466
0.00274214
0.00239204
0.00251449
0.00257357
0.00258459
0.00258555
0.00258541
0.00258542
0.00258556
0.00258462
0.00257362
0.00251459
0.00239218
0.00274251
0.00336014
0.00295221
0.00316277
0.00325017
0.00319841
0.00298638
0.00257198
0.00217696
0.00217781
0.00257423
0.00299494
0.00322628
0.00332894
0.00335503
0.00332209
0.00321338
0.00299451
0.00270013
0.00311962
0.00239239
0.00254727
0.0026685
0.0027463
0.00271929
0.00270573
0.00270222
0.00270221
0.00270571
0.00271924
0.00274627
0.00266846
0.00254723
0.00239215
0.00311802
0.00269796
0.00298782
0.00319232
0.00326198
0.00320236
0.00298748
0.00257216
0.00217701
0.00217776
0.0025742
0.00299511
0.00322706
0.00333165
0.00336351
0.00334642
0.00327642
0.0031362
0.00293369
0.00278312
0.00269
0.00272296
0.00275051
0.00277079
0.00276068
0.00275417
0.00275206
0.00275206
0.00275415
0.00276063
0.00277074
0.00275042
0.00272282
0.0026897
0.0027824
0.00293167
0.00312954
0.00325534
0.00328621
0.00321065
0.00298996
0.00257276
0.00217724
0.00217769
0.00257419
0.00299527
0.00322781
0.00333418
0.00337115
0.00336745
0.00332806
0.00324614
0.00312309
0.00299337
0.00289831
0.00284939
0.00281713
0.00280534
0.00279793
0.00279453
0.00279338
0.00279337
0.0027945
0.00279789
0.00280528
0.00281703
0.00284922
0.00289801
0.0029927
0.00312109
0.00323944
0.00330689
0.0033071
0.0032181
0.00299226
0.00257333
0.00217743
0.00217762
0.00257417
0.00299539
0.00322833
0.00333585
0.00337601
0.00338019
0.00335768
0.00330526
0.00321939
0.00310935
0.00299916
0.00291404
0.0028547
0.0028296
0.00282062
0.00281768
0.00281682
0.00281681
0.00281766
0.00282059
0.00282953
0.0028546
0.00291388
0.00299886
0.00310869
0.00321738
0.00329852
0.00333642
0.0033197
0.00322278
0.00299375
0.00257369
0.00217752
0.00217756
0.00257415
0.00299545
0.00322861
0.00333674
0.00337848
0.00338637
0.00337135
0.00333109
0.0032593
0.00315639
0.00303914
0.00294013
0.00287042
0.00284038
0.00283026
0.00282725
0.00282643
0.00282642
0.00282723
0.00283022
0.00284031
0.00287031
0.00293996
0.00303884
0.00315575
0.00325728
0.00332432
0.00335002
0.00332578
0.00322512
0.00299451
0.00257386
0.00217751
0.00217749
0.00257413
0.00299548
0.00322875
0.00333716
0.00337955
0.00338891
0.00337671
0.00334074
0.00327352
0.0031726
0.0030527
0.00294896
0.00287578
0.00284411
0.00283353
0.00283043
0.0028296
0.00282959
0.00283041
0.00283349
0.00284405
0.00287568
0.0029488
0.0030524
0.00317196
0.00327151
0.00333395
0.00335534
0.00332827
0.00322612
0.00299483
0.00257393
0.00217746
0.00217745
0.00257412
0.00299549
0.00322881
0.00333732
0.00337994
0.00338978
0.00337844
0.00334374
0.00327776
0.00317728
0.00305656
0.00295145
0.0028773
0.00284517
0.00283443
0.00283129
0.00283044
0.00283043
0.00283126
0.00283439
0.0028451
0.0028772
0.00295129
0.00305627
0.00317665
0.00327575
0.00333695
0.00335707
0.00332911
0.00322647
0.00299495
0.00257394
0.00217741
0.00217742
0.00257411
0.00299549
0.00322883
0.00333734
0.00337997
0.00338982
0.0033785
0.0033438
0.00327784
0.00317737
0.00305665
0.00295152
0.00287735
0.00284519
0.00283444
0.00283129
0.00283042
0.00283041
0.00283126
0.0028344
0.00284513
0.00287724
0.00295136
0.00305636
0.00317674
0.00327584
0.00333702
0.00335713
0.00332915
0.0032265
0.00299497
0.00257394
0.00217737
0.00217743
0.00257412
0.00299549
0.00322879
0.00333722
0.00337964
0.00338904
0.00337687
0.00334095
0.00327377
0.00317288
0.00305299
0.00294918
0.00287594
0.00284421
0.00283358
0.00283045
0.00282958
0.00282957
0.00283042
0.00283354
0.00284415
0.00287584
0.00294903
0.00305272
0.00317228
0.00327179
0.00333419
0.00335552
0.0033284
0.0032262
0.00299488
0.00257393
0.00217737
0.00217747
0.00257414
0.00299548
0.00322868
0.00333686
0.00337864
0.00338659
0.00337164
0.00333148
0.00325979
0.00315696
0.00303973
0.00294059
0.00287076
0.00284061
0.00283043
0.00282737
0.00282651
0.0028265
0.00282734
0.0028304
0.00284056
0.00287067
0.00294046
0.00303948
0.00315638
0.00325783
0.00332476
0.00335035
0.00332601
0.00322527
0.00299458
0.00257387
0.00217739
0.00217752
0.00257416
0.00299543
0.00322842
0.00333601
0.00337624
0.00338051
0.00335813
0.00330589
0.00322022
0.00311036
0.00300022
0.00291487
0.00285533
0.00283007
0.00282103
0.00281804
0.00281715
0.00281714
0.00281802
0.00282101
0.00283004
0.00285528
0.00291479
0.00300003
0.00310983
0.00321832
0.00329923
0.00333692
0.00332004
0.00322299
0.00299385
0.00257371
0.00217738
0.00217758
0.00257418
0.00299533
0.00322794
0.00333439
0.00337146
0.00336788
0.00332869
0.00324705
0.00312439
0.00299501
0.00289996
0.00285066
0.00281806
0.00280604
0.00279859
0.00279518
0.00279402
0.00279402
0.00279518
0.0027986
0.00280605
0.00281806
0.00285065
0.00289987
0.00299456
0.00312257
0.00324048
0.00330759
0.00330756
0.00321838
0.0029924
0.00257336
0.00217728
0.00217764
0.0025742
0.00299517
0.00322721
0.00333189
0.00336387
0.00334694
0.00327719
0.00313737
0.00293545
0.00278546
0.00269218
0.00272417
0.00275105
0.00277095
0.00276085
0.00275436
0.00275226
0.00275227
0.00275437
0.00276086
0.00277095
0.00275101
0.00272412
0.00269213
0.00278505
0.00293364
0.00313082
0.00325616
0.00328675
0.00321098
0.00299012
0.00257279
0.00217708
0.00217769
0.00257421
0.00299497
0.00322639
0.00332915
0.00335537
0.00332258
0.00321411
0.00299561
0.00270185
0.00312561
0.00239256
0.00254529
0.00266503
0.00274205
0.0027147
0.00270101
0.00269748
0.00269749
0.002701
0.00271462
0.00274181
0.00266438
0.00254427
0.00239148
0.00312464
0.00269948
0.0029887
0.00319291
0.0032624
0.00320263
0.0029876
0.00257218
0.00217684
0.0021777
0.00257417
0.00299474
0.00322576
0.00332753
0.00335091
0.00331026
0.00318391
0.00295895
0.00336247
0.0027174
0.00237373
0.00248999
0.00254474
0.00255412
0.00255467
0.00255444
0.00255438
0.00255443
0.00255341
0.00254284
0.00248581
0.00236654
0.00270329
0.00335286
0.00295039
0.00316205
0.00324993
0.00319832
0.0029863
0.00257189
0.00217673
0.00217754
0.00257384
0.00299411
0.00322503
0.00332747
0.00335376
0.00332177
0.00321546
0.00300161
0.00271789
0.00319009
0.00242855
0.00253781
0.00261685
0.00263639
0.00265319
0.00265856
0.00265961
0.00265949
0.00265794
0.00265114
0.00263051
0.00260341
0.00251507
0.00240142
0.00314882
0.00270432
0.00298983
0.00319229
0.00326116
0.00320146
0.00298688
0.00257194
0.00217677
0.00217668
0.00257234
0.00299156
0.00322195
0.00332561
0.00335757
0.00334233
0.00327739
0.00314786
0.00296505
0.00284443
0.00276633
0.00278255
0.00278595
0.00277588
0.00277432
0.00277415
0.00277401
0.00277378
0.00277297
0.00277016
0.00276351
0.00275735
0.00273769
0.00271564
0.00280243
0.00294026
0.00313032
0.00325201
0.00328141
0.00320612
0.00298676
0.00257116
0.00217628
0.00217326
0.00256666
0.00298242
0.00321036
0.00331387
0.00335022
0.00334899
0.00331723
0.0032514
0.00315605
0.00306357
0.00299864
0.00295119
0.00291133
0.00287599
0.00286101
0.00285627
0.00285498
0.00285465
0.00285458
0.00285481
0.00285703
0.00286767
0.00289332
0.00292994
0.00300806
0.00312115
0.00322859
0.00329009
0.00328866
0.00320144
0.00297985
0.00256613
0.00217318
0.00216135
0.00254806
0.00295436
0.0031752
0.00327527
0.00331271
0.00331932
0.00330661
0.00327551
0.0032262
0.00316543
0.0031009
0.00303276
0.00297548
0.00293023
0.00291043
0.00290395
0.00290218
0.00290181
0.00290204
0.00290346
0.00290911
0.00292728
0.00296997
0.00302769
0.00310667
0.00318878
0.00325165
0.00328019
0.0032621
0.00317078
0.00295324
0.00254793
0.00216146
0.00212429
0.00249433
0.00287889
0.00308396
0.00317527
0.00320988
0.00321906
0.00321536
0.00320125
0.00317544
0.00313675
0.00308522
0.00302393
0.00296783
0.00292912
0.00291172
0.00290572
0.002904
0.00290365
0.00290396
0.00290559
0.00291135
0.00292827
0.0029664
0.00302309
0.00308796
0.00314448
0.0031815
0.00319297
0.00316889
0.00308206
0.00287855
0.0024944
0.00212448
0.00202193
0.00235938
0.00270257
0.00287908
0.00295469
0.00298264
0.00299088
0.00299066
0.00298467
0.00297181
0.00294968
0.00291664
0.0028752
0.00283593
0.00281006
0.00279807
0.00279373
0.00279242
0.00279216
0.00279243
0.00279373
0.00279802
0.0028099
0.00283568
0.00287521
0.00291768
0.00295172
0.0029717
0.00297466
0.00295201
0.00287847
0.00270259
0.0023595
0.00202212
0.00177684
0.00207747
0.00235949
0.00249461
0.0025485
0.00256719
0.00257268
0.00257327
0.00257104
0.00256537
0.00255452
0.00253698
0.00251394
0.00249149
0.00247706
0.00247031
0.0024678
0.00246701
0.00246685
0.00246704
0.00246785
0.00247037
0.00247711
0.00249154
0.00251408
0.00253737
0.00255496
0.00256436
0.00256411
0.0025477
0.0024946
0.00235963
0.00207758
0.00177699
0.00133499
0.00177684
0.00202208
0.00212464
0.0021619
0.00217401
0.00217751
0.00217809
0.00217706
0.00217394
0.00216738
0.00215602
0.00214029
0.00212451
0.00211493
0.00211063
0.002109
0.00210844
0.00210832
0.00210847
0.00210905
0.00211068
0.00211498
0.00212454
0.00214034
0.00215616
0.00216752
0.00217321
0.00217277
0.00216188
0.00212493
0.00202234
0.00177699
0.00133512
0.00149313
0.00218101
0.00258531
0.0027657
0.00283587
0.00286014
0.00286767
0.00286975
0.00287022
0.00287022
0.0028701
0.00286996
0.00286984
0.00286975
0.00286968
0.00286963
0.00286959
0.00286957
0.00286957
0.00286959
0.00286962
0.00286967
0.00286974
0.00286981
0.0028699
0.00286991
0.00286951
0.00286751
0.00286005
0.00283582
0.00276568
0.0025853
0.00218101
0.00149318
0.002181
0.00239473
0.00269398
0.00285097
0.00291843
0.00294354
0.0029518
0.00295418
0.00295473
0.00295473
0.00295459
0.00295445
0.00295434
0.00295427
0.00295423
0.00295419
0.00295417
0.00295415
0.00295415
0.00295417
0.00295419
0.00295423
0.00295427
0.00295433
0.0029544
0.00295439
0.0029539
0.00295161
0.00294344
0.00291839
0.00285097
0.002694
0.00239475
0.002181
0.0025854
0.00269402
0.00300309
0.00318077
0.00326331
0.0032964
0.00330802
0.00331151
0.00331221
0.00331199
0.00331155
0.00331119
0.00331096
0.00331085
0.0033108
0.00331076
0.00331073
0.00331071
0.00331071
0.00331073
0.00331077
0.0033108
0.00331085
0.00331095
0.00331111
0.00331121
0.00331065
0.00330742
0.00329608
0.0032632
0.00318078
0.00300317
0.0026941
0.00258546
0.00276591
0.00285106
0.00318082
0.00337793
0.00347324
0.00351298
0.00352734
0.00353144
0.00353164
0.00353042
0.00352897
0.00352792
0.00352738
0.00352717
0.00352709
0.00352705
0.003527
0.00352696
0.00352697
0.003527
0.00352706
0.0035271
0.00352718
0.00352737
0.00352782
0.00352849
0.00352859
0.00352534
0.00351187
0.00347278
0.00337786
0.00318093
0.0028512
0.00276605
0.00283616
0.00291857
0.00326341
0.00347329
0.00357682
0.0036207
0.00363627
0.00363952
0.00363735
0.00363291
0.00362852
0.00362572
0.00362453
0.00362416
0.00362404
0.003624
0.0036239
0.00362382
0.00362383
0.00362391
0.00362401
0.00362405
0.00362417
0.00362452
0.00362559
0.00362794
0.00363073
0.00362998
0.00361712
0.00357519
0.00347276
0.00326339
0.0029187
0.00283634
0.00286048
0.00294371
0.00329652
0.00351307
0.00362076
0.00366617
0.00368068
0.00368003
0.00367099
0.00365793
0.00364617
0.00363963
0.00363786
0.00363765
0.00363755
0.00363779
0.0036377
0.00363754
0.00363754
0.00363771
0.00363781
0.00363757
0.00363768
0.00363785
0.0036395
0.00364553
0.00365553
0.003663
0.00365601
0.00361597
0.00351126
0.00329606
0.00294372
0.0028606
0.00286803
0.00295196
0.00330816
0.00352748
0.00363644
0.00368089
0.00369092
0.00368046
0.00365514
0.00362204
0.00359455
0.00358098
0.00358109
0.00358292
0.00358296
0.00358485
0.00358523
0.00358503
0.00358503
0.00358524
0.00358487
0.00358299
0.00358295
0.00358109
0.00358084
0.00359389
0.00361954
0.00364684
0.00365565
0.00362448
0.00352273
0.00330665
0.00295163
0.0028679
0.00287011
0.00295434
0.00331168
0.0035317
0.00364003
0.00368097
0.00368167
0.00365171
0.00359374
0.00352094
0.00346802
0.00343671
0.0034484
0.0034582
0.00345765
0.00346629
0.00346871
0.00346872
0.00346873
0.00346873
0.00346632
0.00345769
0.00345826
0.00344843
0.0034366
0.00346735
0.00351838
0.00358528
0.00362653
0.00361446
0.00352144
0.00330819
0.00295333
0.00286946
0.00287056
0.00295488
0.00331245
0.00353221
0.00363874
0.00367396
0.00366026
0.00359979
0.00348973
0.00335902
0.00332152
0.00318657
0.00323261
0.00326523
0.0032588
0.00328905
0.00329748
0.00329844
0.00329845
0.0032975
0.0032891
0.00325885
0.00326531
0.00323269
0.0031865
0.00332076
0.00335633
0.00348106
0.00357429
0.00359257
0.00351377
0.00330602
0.00295285
0.00286908
0.00287056
0.00295491
0.00331242
0.00353164
0.00363614
0.00366532
0.00363643
0.00354425
0.00338748
0.00328037
0.00438068
0.00286845
0.00296739
0.00305099
0.00302511
0.00310456
0.00312586
0.00312913
0.00312914
0.0031259
0.00310463
0.00302518
0.00305112
0.00296756
0.00286839
0.00437847
0.00327695
0.00337833
0.00351831
0.00356829
0.00350465
0.00330292
0.00295178
0.00286814
0.00287046
0.00295483
0.00331231
0.00353129
0.00363483
0.00366119
0.00362583
0.00352691
0.00343252
0.00471047
0.00321907
0.00271719
0.00285091
0.00293088
0.00292542
0.00292007
0.00291853
0.00291854
0.00292009
0.00292544
0.00293095
0.00285102
0.00271734
0.00321946
0.0046997
0.00342242
0.00350055