/*--------------------------------*- C++ -*----------------------------------*\
| =========                 |                                                 |
| \\      /  F ield         | OpenFOAM: The Open Source CFD Toolbox           |
|  \\    /   O peration     | Version:  2112                                  |
|   \\  /    A nd           | Website:  www.openfoam.com                      |
|    \\/     M anipulation  |                                                 |
\*---------------------------------------------------------------------------*/
FoamFile
{
    version     2.0;
    format      ascii;
    arch        "LSB;label=32;scalar=64";
    class       volScalarField;
    location    "2";
    object      k;
}
// * * * * * * * * * * * * * * * * * * * * * * * * * * * * * * * * * * * * * //

dimensions      [0 2 -2 0 0 0 0];

internalField   nonuniform List<scalar> 
64906
(
0.000913768
0.000979906
0.0010136
0.00102605
0.00103003
0.00103119
0.0010315
0.0010316
0.00103163
0.00103165
0.00103167
0.00103168
0.00103169
0.00103169
0.00103168
0.00103168
0.00103167
0.00103166
0.00103165
0.00103166
0.00103166
0.00103167
0.00103168
0.00103167
0.00103167
0.00103165
0.00103162
0.00103153
0.00103122
0.00103006
0.00102608
0.00101364
0.000979939
0.000913795
0.000979927
0.00137962
0.0015619
0.00163507
0.00166199
0.00167096
0.00167368
0.00167444
0.00167465
0.00167471
0.00167474
0.00167476
0.00167479
0.00167482
0.00167484
0.00167486
0.00167487
0.00167488
0.00167488
0.00167487
0.00167486
0.00167485
0.00167482
0.0016748
0.00167476
0.0016747
0.0016745
0.00167376
0.00167106
0.0016621
0.00163517
0.001562
0.00137971
0.000979982
0.00101366
0.00156196
0.0018241
0.00193686
0.00198169
0.00199785
0.00200312
0.00200467
0.00200506
0.0020051
0.00200508
0.0020051
0.00200517
0.00200527
0.00200536
0.00200543
0.00200547
0.0020055
0.0020055
0.00200548
0.00200544
0.00200538
0.00200529
0.00200519
0.00200511
0.002005
0.00200463
0.00200316
0.00199797
0.00198186
0.00193705
0.00182428
0.00156211
0.00101375
0.00102614
0.00163518
0.00193693
0.00207243
0.00212881
0.00215007
0.00215724
0.00215927
0.00215951
0.00215915
0.00215872
0.00215853
0.00215855
0.00215869
0.00215886
0.00215897
0.00215903
0.00215906
0.00215906
0.00215904
0.00215899
0.00215889
0.00215873
0.00215858
0.00215853
0.00215858
0.00215843
0.00215675
0.00214994
0.00212891
0.00207264
0.00193717
0.00163539
0.00102625
0.00103014
0.00166214
0.00198179
0.00212885
0.0021916
0.00221577
0.00222384
0.00222557
0.00222466
0.00222264
0.00222069
0.00221972
0.00221952
0.00221974
0.00222004
0.00222016
0.00222018
0.00222018
0.00222019
0.0022202
0.00222019
0.00222007
0.00221979
0.00221956
0.00221972
0.00222051
0.00222176
0.00222133
0.00221456
0.00219126
0.00212894
0.00198204
0.00166238
0.00103028
0.0010313
0.00167112
0.00199797
0.00215013
0.0022158
0.00224108
0.00224874
0.00224846
0.00224372
0.00223655
0.00223003
0.0022273
0.0022269
0.00222753
0.00222821
0.00222831
0.00222818
0.00222809
0.0022281
0.0022282
0.00222834
0.00222826
0.00222758
0.00222695
0.00222731
0.00222983
0.00223558
0.0022401
0.0022366
0.00221403
0.00214972
0.00199809
0.00167136
0.00103146
0.00103162
0.00167383
0.00200323
0.0021573
0.00222389
0.0022488
0.00225411
0.00224818
0.00223314
0.00221181
0.00219314
0.00218841
0.00218966
0.00219232
0.00219435
0.00219445
0.00219401
0.00219375
0.00219375
0.00219403
0.00219449
0.00219441
0.00219238
0.00218973
0.00218843
0.00219295
0.00221084
0.00222943
0.00223599
0.00221853
0.0021556
0.00200299
0.00167402
0.00103179
0.00103171
0.00167458
0.00200476
0.00215934
0.00222571
0.00224878
0.00224866
0.00223008
0.00219075
0.00213338
0.00208298
0.00208423
0.00209704
0.00210734
0.00211322
0.00211371
0.00211299
0.00211256
0.00211257
0.00211302
0.00211376
0.00211328
0.00210742
0.00209712
0.00208428
0.00208281
0.00213246
0.00218708
0.00221787
0.00221284
0.00215498
0.00200374
0.0016746
0.00103188
0.00103173
0.00167476
0.00200513
0.00215966
0.00222511
0.00224488
0.00223534
0.00219339
0.00210367
0.00195758
0.00181554
0.00187309
0.00193404
0.00196639
0.00198049
0.00198291
0.0019827
0.00198244
0.00198245
0.00198273
0.00198296
0.00198057
0.00196648
0.00193415
0.00187319
0.00181542
0.00195676
0.00210013
0.00218128
0.00219955
0.00215096
0.00200285
0.0016745
0.0010319
0.00103174
0.00167478
0.00200519
0.00215949
0.00222383
0.00223972
0.00221838
0.00214351
0.00196717
0.00161344
0.00119032
0.00150322
0.00171132
0.00179043
0.00181621
0.00182332
0.00182496
0.00182528
0.00182529
0.00182499
0.00182337
0.00181629
0.00179054
0.00171147
0.00150341
0.00119026
0.0016128
0.0019638
0.00213153
0.00218266
0.00214579
0.00200147
0.0016742
0.00103189
0.00103174
0.00167478
0.00200522
0.00215945
0.00222327
0.0022371
0.00220867
0.00210979
0.00184798
0.00120408
0.00113826
0.00153414
0.00165962
0.00169424
0.00170294
0.00170476
0.00170507
0.00170508
0.00170478
0.00170296
0.00169428
0.0016597
0.0015343
0.00113837
0.00120378
0.00184473
0.00209784
0.00217293
0.00214311
0.0020008
0.00167402
0.00103188
0.00103173
0.00167477
0.00200532
0.0021598
0.00222428
0.00224015
0.00221832
0.00214189
0.0019621
0.0016023
0.00118052
0.00145678
0.00165075
0.00172268
0.00174431
0.00174979
0.00175029
0.0017501
0.0017501
0.00175028
0.00174977
0.00174429
0.00172267
0.00165075
0.0014567
0.0011803
0.00160137
0.00195855
0.00212977
0.00218245
0.002146
0.00200162
0.00167415
0.00103188
0.00103171
0.00167477
0.00200547
0.00216036
0.00222608
0.00224572
0.00223495
0.00218919
0.00209052
0.00192688
0.00175633
0.00176514
0.00178286
0.00179271
0.00179631
0.00179664
0.00179601
0.00179561
0.0017956
0.00179599
0.0017966
0.00179626
0.00179263
0.00178274
0.00176492
0.00175586
0.00192578
0.00208679
0.00217691
0.0021989
0.00215137
0.00200319
0.00167446
0.00103188
0.00103169
0.00167476
0.00200562
0.00216088
0.00222772
0.00225058
0.00224847
0.0022237
0.00216962
0.00208295
0.00198325
0.00191493
0.00186046
0.00183598
0.00182742
0.00182434
0.00182308
0.0018226
0.00182259
0.00182305
0.0018243
0.00182735
0.00183588
0.00186031
0.00191473
0.0019828
0.0020818
0.00216579
0.00221127
0.00221224
0.00215603
0.0020046
0.00167475
0.00103186
0.00103166
0.00167475
0.00200572
0.00216125
0.0022288
0.00225363
0.00225642
0.00224239
0.00220799
0.00214837
0.00206638
0.00197659
0.00189559
0.00185632
0.00184187
0.00183705
0.00183541
0.00183485
0.00183483
0.00183537
0.001837
0.00184179
0.00185621
0.00189544
0.00197631
0.00206595
0.0021472
0.00220409
0.00222986
0.00222006
0.00215892
0.00200551
0.00167492
0.00103183
0.00103163
0.00167474
0.00200578
0.00216146
0.0022294
0.00225519
0.00226024
0.0022508
0.00222393
0.00217317
0.0020955
0.00199919
0.00190892
0.00186419
0.00184743
0.00184187
0.00184001
0.00183936
0.00183934
0.00183997
0.00184181
0.00184735
0.00186407
0.00190877
0.00199892
0.00209508
0.002172
0.00222
0.00223821
0.0022238
0.00216037
0.00200599
0.001675
0.00103179
0.0010316
0.00167472
0.00200581
0.00216158
0.00222969
0.00225589
0.00226184
0.00225409
0.00222977
0.00218167
0.00210495
0.00200661
0.00191333
0.00186681
0.00184927
0.00184343
0.00184145
0.0018407
0.00184068
0.00184139
0.00184336
0.00184918
0.0018667
0.00191318
0.00200634
0.00210453
0.0021805
0.00222582
0.00224146
0.00222535
0.00216102
0.00200621
0.00167502
0.00103175
0.00103157
0.00167471
0.00200583
0.00216163
0.00222982
0.00225616
0.0022624
0.00225518
0.00223159
0.00218419
0.00210764
0.00200872
0.00191459
0.00186757
0.00184979
0.00184385
0.0018418
0.00184097
0.00184094
0.00184173
0.00184377
0.00184969
0.00186745
0.00191444
0.00200846
0.00210723
0.00218302
0.00222765
0.00224254
0.00222589
0.00216126
0.0020063
0.00167503
0.00103171
0.00103155
0.00167471
0.00200584
0.00216165
0.00222984
0.0022562
0.00226245
0.00225524
0.00223167
0.00218428
0.00210774
0.00200882
0.00191465
0.0018676
0.0018498
0.00184384
0.00184176
0.00184089
0.00184084
0.00184169
0.00184376
0.00184971
0.00186748
0.0019145
0.00200856
0.00210734
0.00218312
0.00222773
0.00224261
0.00222595
0.0021613
0.00200632
0.00167502
0.00103167
0.00103155
0.00167471
0.00200584
0.00216163
0.00222977
0.002256
0.00226198
0.00225427
0.00222999
0.00218194
0.00210525
0.00200691
0.00191352
0.00186694
0.00184932
0.00184342
0.00184135
0.00184048
0.00184044
0.00184127
0.00184333
0.00184923
0.00186682
0.00191338
0.00200666
0.00210486
0.0021808
0.00222608
0.00224167
0.0022255
0.00216112
0.00200627
0.00167502
0.00103167
0.00103157
0.00167473
0.00200582
0.00216155
0.00222953
0.00225537
0.00226048
0.00225112
0.00222433
0.00217367
0.00209607
0.00199977
0.00190929
0.00186443
0.00184756
0.00184189
0.0018399
0.00183909
0.00183905
0.00183982
0.0018418
0.00184746
0.00186432
0.00190916
0.00199955
0.00209571
0.00217256
0.00222046
0.00223856
0.00222406
0.00216056
0.00200609
0.001675
0.00103171
0.0010316
0.00167475
0.00200578
0.00216137
0.00222899
0.00225389
0.00225676
0.00224286
0.00220861
0.00214917
0.00206735
0.00197758
0.00189622
0.00185674
0.00184212
0.00183715
0.00183535
0.00183465
0.00183462
0.00183528
0.00183707
0.00184204
0.00185664
0.00189611
0.00197741
0.00206704
0.00214812
0.0022048
0.00223039
0.00222044
0.00215918
0.00200566
0.00167494
0.00103175
0.00103163
0.00167476
0.0020057
0.00216104
0.00222796
0.00225092
0.00224893
0.00222433
0.00217051
0.00208419
0.00198483
0.00191634
0.0018614
0.0018366
0.00182782
0.00182455
0.00182313
0.00182255
0.00182253
0.00182308
0.00182449
0.00182775
0.00183654
0.00186135
0.00191626
0.0019846
0.00208323
0.00216682
0.002212
0.00221276
0.00215638
0.0020048
0.00167479
0.00103179
0.00103166
0.00167478
0.00200558
0.00216055
0.00222637
0.00224612
0.0022355
0.00218998
0.00209168
0.00192862
0.00175875
0.00176709
0.00178387
0.0017932
0.00179649
0.00179662
0.00179587
0.0017954
0.00179539
0.00179584
0.00179657
0.00179643
0.00179313
0.00178385
0.00176718
0.00175867
0.00192783
0.00208814
0.00217781
0.00219952
0.00215179
0.00200343
0.00167453
0.00103181
0.00103168
0.00167478
0.00200543
0.00215999
0.00222458
0.00224057
0.00221891
0.00214273
0.00196339
0.00160434
0.00118183
0.0014578
0.00164995
0.00172104
0.00174212
0.00174733
0.00174771
0.00174747
0.00174745
0.00174766
0.00174723
0.00174192
0.0017207
0.0016496
0.0014579
0.00118171
0.00160378
0.00195995
0.00213066
0.00218308
0.00214644
0.00200188
0.00167422
0.00103181
0.00103169
0.00167476
0.00200525
0.00215953
0.00222343
0.00223736
0.00220904
0.00211023
0.00184843
0.00120423
0.00113508
0.00152571
0.00164801
0.0016805
0.00168835
0.00168989
0.00169008
0.00169004
0.00168972
0.00168794
0.00167953
0.00164605
0.0015228
0.00113338
0.00120347
0.00184458
0.00209793
0.0021732
0.00214339
0.00200099
0.00167407
0.00103181
0.00103168
0.00167461
0.00200486
0.00215904
0.00222336
0.00223929
0.00221801
0.00214309
0.00196648
0.00161225
0.00118861
0.00148682
0.00168216
0.00174793
0.00176533
0.0017699
0.00177103
0.00177125
0.00177117
0.00177067
0.00176874
0.00176207
0.00174041
0.00166912
0.00147522
0.00118477
0.00160765
0.00196046
0.00212986
0.00218193
0.00214545
0.0020013
0.00167409
0.00103182
0.00103161
0.00167391
0.0020034
0.0021572
0.00222223
0.00224181
0.0022321
0.00218958
0.00209803
0.00194725
0.0017945
0.00182834
0.00185753
0.00185476
0.00184867
0.00184572
0.00184479
0.00184453
0.0018444
0.00184414
0.0018434
0.00184142
0.00183623
0.00182225
0.00179389
0.00177069
0.00193235
0.0020874
0.00217458
0.00219566
0.00214843
0.00200124
0.00167373
0.00103177
0.00103131
0.00167125
0.00199825
0.00215035
0.00221519
0.00223748
0.00223679
0.00221697
0.00217397
0.0021071
0.00203565
0.00199763
0.00195361
0.00190249
0.00187748
0.00186855
0.00186588
0.00186518
0.00186501
0.00186501
0.0018653
0.00186677
0.00187271
0.0018917
0.0019371
0.00199275
0.00208176
0.0021587
0.00220045
0.00220057
0.00214573
0.00199733
0.00167136
0.00103148
0.00103016
0.00166232
0.00198217
0.00212933
0.00219182
0.00221467
0.00221882
0.00221121
0.00219169
0.00215889
0.00211531
0.00206552
0.00200204
0.00193703
0.00190568
0.00189449
0.00189117
0.00189031
0.00189013
0.00189023
0.00189092
0.00189382
0.00190405
0.00193387
0.00199827
0.00206723
0.00213064
0.00217536
0.00219504
0.00218454
0.00212736
0.00198205
0.0016626
0.00103034
0.00102617
0.00163539
0.00193736
0.00207305
0.00212948
0.00215035
0.002156
0.00215401
0.00214552
0.00212895
0.00210225
0.00206377
0.00201348
0.00196348
0.00193713
0.001927
0.00192389
0.00192311
0.00192296
0.00192306
0.00192377
0.00192673
0.00193654
0.00196252
0.00201268
0.00206488
0.00210675
0.00213256
0.00214066
0.00212638
0.00207257
0.00193766
0.00163576
0.00102635
0.00101372
0.00156219
0.00182456
0.00193755
0.00198256
0.00199874
0.00200362
0.00200375
0.00200055
0.00199303
0.00197916
0.0019571
0.00192778
0.00189891
0.0018825
0.00187572
0.00187351
0.00187292
0.00187281
0.0018729
0.00187346
0.00187562
0.00188232
0.00189864
0.00192759
0.00195744
0.00198014
0.00199287
0.00199487
0.00198173
0.0019378
0.00182504
0.00156256
0.00101388
0.000980003
0.00137985
0.00156232
0.00163568
0.00166279
0.00167191
0.00167468
0.0016752
0.00167444
0.00167199
0.00166684
0.00165798
0.00164583
0.00163363
0.00162632
0.00162311
0.001622
0.00162168
0.00162162
0.00162168
0.001622
0.00162311
0.0016263
0.00163359
0.0016458
0.00165805
0.00166695
0.00167145
0.00167115
0.001663
0.00163616
0.00156277
0.00138015
0.000980135
0.000913834
0.000980039
0.00101384
0.00102638
0.00103046
0.00103172
0.00103215
0.00103234
0.00103241
0.00103235
0.00103201
0.00103124
0.00103
0.00102863
0.00102776
0.00102733
0.00102713
0.00102701
0.00102696
0.00102701
0.00102713
0.00102733
0.00102775
0.0010286
0.00102996
0.00103118
0.00103195
0.00103222
0.001032
0.00103078
0.00102667
0.00101407
0.000980194
0.000913925
0.00129436
0.00157056
0.00171496
0.00177427
0.00179587
0.00180293
0.00180502
0.00180558
0.00180572
0.00180574
0.00180572
0.0018057
0.00180568
0.00180566
0.00180565
0.00180563
0.00180562
0.00180561
0.00180561
0.00180562
0.00180563
0.00180564
0.00180565
0.00180567
0.00180568
0.00180567
0.00180555
0.00180501
0.00180293
0.00179588
0.00177429
0.00171498
0.00157059
0.00129438
0.00157057
0.00285803
0.00335024
0.00356305
0.00364899
0.00368038
0.00369067
0.00369364
0.0036943
0.00369425
0.00369403
0.00369378
0.0036936
0.00369346
0.00369337
0.0036933
0.00369325
0.00369323
0.00369323
0.00369325
0.00369331
0.00369338
0.00369347
0.00369359
0.00369373
0.00369377
0.0036932
0.00369037
0.00368021
0.00364889
0.003563
0.0033502
0.00285801
0.00157059
0.00171501
0.00335036
0.00399778
0.00429426
0.00442189
0.00447176
0.00448921
0.00449449
0.00449555
0.00449522
0.00449456
0.004494
0.00449367
0.00449352
0.00449347
0.00449343
0.00449338
0.00449336
0.00449336
0.00449339
0.00449344
0.00449349
0.00449354
0.00449366
0.0044939
0.00449405
0.00449318
0.00448833
0.0044713
0.00442172
0.00429424
0.00399783
0.00335042
0.00171507
0.00177437
0.00356326
0.00429437
0.00464158
0.00479694
0.00486004
0.00488272
0.00488923
0.00488954
0.00488758
0.00488521
0.00488348
0.00488257
0.00488226
0.00488221
0.00488214
0.00488204
0.00488197
0.00488198
0.00488205
0.00488216
0.00488224
0.00488229
0.00488257
0.00488333
0.00488446
0.00488466
0.00487954
0.00485829
0.00479621
0.00464139
0.00429442
0.00356338
0.00177448
0.001796
0.00364925
0.00442207
0.00479702
0.00496852
0.00503938
0.00506437
0.00506958
0.00506595
0.0050585
0.00505093
0.00504598
0.00504363
0.00504298
0.00504296
0.00504272
0.00504238
0.00504218
0.00504218
0.0050424
0.00504275
0.005043
0.00504302
0.00504363
0.00504579
0.00505
0.00505495
0.00505404
0.00503353
0.00496585
0.0047961
0.00442191
0.00364935
0.00179613
0.00180308
0.00368066
0.00447197
0.00486017
0.00503945
0.00511319
0.00513654
0.00513524
0.00511989
0.00509719
0.00507594
0.00506407
0.00505953
0.005059
0.00505951
0.00505895
0.00505804
0.00505749
0.00505749
0.00505806
0.00505899
0.00505956
0.00505905
0.00505954
0.00506387
0.00507493
0.00509331
0.00510693
0.00509638
0.00503157
0.00485715
0.00447111
0.00368058
0.00180321
0.00180517
0.00369094
0.00448943
0.00488292
0.00506462
0.00513686
0.00515275
0.00513468
0.00509046
0.00502977
0.00497587
0.0049537
0.00494983
0.00495285
0.0049561
0.00495531
0.0049534
0.00495228
0.00495229
0.00495343
0.00495536
0.00495616
0.00495292
0.00494987
0.00495353
0.00497486
0.0050258
0.00507706
0.00509456
0.00504484
0.00487511
0.00448691
0.00369038
0.00180527
0.00180574
0.00369388
0.00449473
0.0048896
0.00507037
0.00513675
0.00513663
0.00508375
0.00497661
0.00482734
0.00469764
0.00467546
0.00469184
0.00471101
0.00472305
0.00472325
0.00472051
0.00471888
0.00471889
0.00472054
0.0047233
0.00472312
0.00471109
0.00469191
0.00467534
0.00469671
0.00482343
0.00496315
0.00504319
0.00502757
0.00487274
0.00448908
0.00369239
0.00180572
0.00180586
0.00369452
0.0044959
0.00489041
0.00506817
0.00512471
0.00509866
0.00498582
0.00475721
0.00440567
0.00407672
0.00414277
0.00425602
0.00432461
0.00435612
0.00436198
0.00436081
0.00435963
0.00435964
0.00436084
0.00436203
0.00435621
0.00432472
0.00425614
0.00414276
0.00407593
0.00440194
0.00474381
0.00494511
0.00498912
0.00485982
0.00448556
0.00369162
0.00180564
0.00180586
0.0036945
0.00449584
0.0048895
0.00506376
0.00510936
0.00505286
0.00486138
0.00443845
0.00361723
0.00235225
0.00322843
0.00367648
0.00385337
0.00391227
0.00393324
0.0039381
0.00393877
0.00393878
0.00393813
0.00393329
0.00391236
0.00385351
0.0036767
0.00322869
0.00235175
0.00361378
0.00442504
0.00482045
0.00494293
0.00484394
0.00448052
0.00369006
0.00180541
0.00180584
0.00369434
0.00449567
0.00488894
0.0050615
0.00510142
0.00502766
0.00478422
0.00418778
0.00242202
0.00210334
0.00321078
0.00349488
0.00358022
0.00360188
0.00360611
0.00360665
0.00360665
0.00360612
0.00360191
0.00358028
0.00349501
0.00321104
0.00210354
0.00241958
0.00417423
0.00474298
0.00491738
0.00483559
0.0044778
0.00368904
0.00180525
0.0018058
0.00369422
0.00449578
0.00488962
0.00506379
0.00510849
0.00504929
0.00485157
0.0044163
0.0035725
0.00229721
0.00307621
0.00350071
0.00366821
0.0037304
0.00373566
0.00373328
0.00373189
0.00373188
0.00373324
0.00373561
0.00373034
0.00366814
0.00350065
0.00307598
0.00229635
0.00356856
0.00440258
0.00481034
0.00493896
0.00484247
0.00447975
0.00368928
0.00180528
0.00180577
0.00369416
0.00449611
0.00489111
0.00506872
0.00512335
0.00509129
0.00496392
0.00470481
0.00429545
0.00387025
0.00380624
0.00380562
0.00381746
0.00382643
0.00382415
0.00382116
0.00381977
0.00381976
0.00382113
0.00382409
0.00382634
0.00381731
0.00380538
0.00380575
0.00386901
0.0042913
0.00469103
0.00492272
0.00498096
0.0048572
0.0044844
0.00369037
0.00180542
0.00180574
0.00369412
0.00449646
0.0048926
0.00507348
0.00513712
0.00512766
0.00505154
0.00489508
0.00465409
0.00437786
0.00416582
0.00399744
0.00392031
0.00389411
0.00388478
0.0038813
0.00388015
0.00388014
0.00388128
0.00388473
0.00389402
0.00392016
0.00399717
0.00416535
0.00437663
0.00464988
0.00488123
0.00501027
0.00501722
0.00487077
0.00448886
0.00369148
0.00180555
0.0018057
0.00369408
0.00449671
0.00489365
0.00507675
0.00514617
0.0051503
0.00510206
0.00499364
0.00481542
0.00457853
0.00432286
0.00409118
0.00397434
0.00393116
0.00391748
0.00391347
0.00391242
0.00391242
0.00391346
0.00391744
0.00393109
0.0039742
0.00409094
0.00432249
0.00457733
0.00481119
0.00497971
0.00506066
0.00503969
0.00487961
0.00449186
0.00369221
0.00180561
0.00180566
0.00369404
0.00449685
0.00489424
0.00507856
0.00515096
0.00516171
0.00512608
0.00503721
0.00488092
0.00465449
0.00438391
0.00412933
0.0039971
0.00394707
0.00393142
0.00392711
0.00392609
0.00392608
0.0039271
0.00393139
0.003947
0.00399696
0.0041291
0.00438354
0.0046533
0.00487667
0.00502323
0.00508459
0.00505096
0.00488422
0.00449345
0.00369259
0.00180561
0.00180563
0.00369401
0.00449691
0.00489454
0.00507941
0.00515311
0.0051666
0.00513589
0.00505404
0.00490475
0.00468077
0.00440497
0.00414269
0.00400517
0.00395275
0.00393637
0.00393194
0.00393091
0.00393091
0.00393192
0.00393634
0.00395269
0.00400503
0.00414246
0.00440462
0.00467958
0.00490049
0.00504002
0.00509433
0.00505577
0.00488625
0.00449416
0.00369274
0.00180559
0.0018056
0.00369399
0.00449694
0.00489466
0.00507973
0.0051539
0.00516832
0.00513918
0.00505945
0.00491207
0.00468854
0.00441113
0.0041466
0.00400754
0.00395441
0.00393781
0.00393334
0.00393231
0.0039323
0.00393332
0.00393778
0.00395435
0.00400741
0.00414639
0.00441077
0.00468736
0.00490781
0.00504542
0.0050976
0.00505744
0.00488698
0.00449442
0.00369278
0.00180556
0.00180558
0.00369398
0.00449694
0.00489467
0.00507977
0.00515394
0.00516838
0.00513925
0.00505954
0.00491217
0.00468864
0.00441123
0.00414671
0.00400761
0.00395445
0.00393784
0.00393335
0.00393232
0.00393231
0.00393334
0.00393781
0.00395439
0.00400748
0.0041465
0.00441088
0.00468747
0.00490792
0.00504552
0.00509768
0.0050575
0.00488702
0.00449444
0.00369278
0.00180554
0.00180559
0.003694
0.00449693
0.00489459
0.0050795
0.00515324
0.00516678
0.00513611
0.00505432
0.00490507
0.00468111
0.00440532
0.00414304
0.00400541
0.00395291
0.00393649
0.00393203
0.00393099
0.00393099
0.00393202
0.00393646
0.00395285
0.00400529
0.00414284
0.00440498
0.00467996
0.00490085
0.00504033
0.00509458
0.00505595
0.00488637
0.00449421
0.00369273
0.00180554
0.00180561
0.00369402
0.00449689
0.00489434
0.00507871
0.00515118
0.00516201
0.00512648
0.00503772
0.00488154
0.00465519
0.00438461
0.00413005
0.00399764
0.00394747
0.00393176
0.00392743
0.00392639
0.00392639
0.00392742
0.00393175
0.00394744
0.00399755
0.00412988
0.00438431
0.00465407
0.00487737
0.0050238
0.00508503
0.00505128
0.00488442
0.00449354
0.00369258
0.00180554
0.00180564
0.00369406
0.00449676
0.00489378
0.00507698
0.00514649
0.00515074
0.00510266
0.00499446
0.00481649
0.00457981
0.00432417
0.00409248
0.00397538
0.00393201
0.00391828
0.00391426
0.00391321
0.00391321
0.00391427
0.00391829
0.00393202
0.00397534
0.00409238
0.00432394
0.00457877
0.00481241
0.00498065
0.00506134
0.00504016
0.0048799
0.004492
0.00369221
0.00180553
0.00180567
0.00369409
0.00449653
0.00489277
0.00507377
0.00513753
0.00512825
0.00505238
0.00489629
0.00465583
0.00438012
0.00416817
0.00399948
0.00392192
0.00389549
0.00388614
0.0038827
0.00388158
0.00388159
0.00388273
0.0038862
0.00389555
0.00392195
0.00399948
0.00416807
0.00437921
0.00465189
0.00488262
0.0050112
0.00501784
0.00487115
0.00448904
0.00369148
0.00180547
0.00180571
0.00369411
0.00449617
0.00489129
0.00506902
0.00512382
0.00509197
0.00496492
0.00470639
0.00429799
0.00387395
0.00380977
0.00380769
0.0038186
0.00382719
0.00382489
0.00382198
0.00382067
0.00382069
0.00382204
0.00382498
0.00382725
0.00381859
0.00380766
0.00380983
0.00387326
0.00429424
0.00469276
0.00492375
0.00498162
0.00485761
0.00448458
0.00369036
0.00180534
0.00180573
0.00369412
0.00449575
0.00488968
0.00506396
0.00510881
0.0050498
0.00485239
0.00441775
0.00357544
0.00230023
0.00307772
0.00349773
0.00366277
0.00372363
0.00372851
0.00372613
0.00372482
0.00372483
0.00372615
0.00372843
0.00372323
0.00366178
0.00349636
0.00307745
0.00229969
0.0035718
0.00440364
0.00481077
0.00493924
0.00484267
0.00447981
0.00368919
0.00180518
0.00180574
0.00369404
0.00449525
0.00488842
0.00506096
0.00510091
0.00502717
0.00478365
0.00418702
0.00242082
0.00208977
0.00318171
0.00345572
0.00353433
0.00355385
0.00355772
0.00355824
0.00355817
0.0035574
0.00355279
0.0035314
0.00344928
0.00317136
0.00208208
0.00241572
0.00417056
0.00474062
0.0049161
0.00483489
0.00447735
0.00368867
0.00180511
0.00180563
0.00369339
0.00449389
0.00488683
0.00506062
0.0051059
0.00504896
0.00485646
0.0044312
0.00360546
0.00233352
0.00316289
0.00357513
0.00371468
0.00374977
0.00376444
0.00376878
0.00376964
0.00376944
0.0037678
0.00376113
0.0037401
0.00369168
0.00353414
0.00311949
0.00231206
0.0035844
0.00440724
0.00481033
0.00493715
0.00484042
0.00447832
0.00368877
0.00180513
0.0018051
0.00369052
0.00448877
0.00488067
0.00505662
0.00511194
0.00508447
0.00496851
0.00473212
0.00436212
0.0039927
0.00398818
0.00401136
0.00398455
0.00396032
0.00395189
0.00394945
0.00394872
0.00394834
0.00394755
0.00394507
0.00393918
0.00393054
0.00390979
0.00388168
0.00391207
0.00431075
0.00469423
0.00491713
0.00497185
0.00484822
0.00447786
0.00368733
0.00180483
0.00180304
0.00368036
0.00447162
0.00485892
0.00503464
0.00509784
0.0050948
0.00503629
0.00491532
0.00473373
0.00453752
0.0044022
0.00426258
0.00411643
0.0040413
0.00401399
0.00400582
0.00400366
0.00400315
0.00400312
0.00400391
0.00400865
0.00402868
0.00409043
0.00423095
0.00441013
0.00465459
0.00486422
0.00498055
0.00498316
0.00483928
0.00446513
0.00367849
0.00180296
0.00179599
0.00364905
0.004422
0.00479664
0.00496639
0.00503176
0.00504278
0.0050175
0.00495669
0.00485812
0.0047281
0.00457723
0.00439604
0.00421543
0.00412274
0.0040882
0.00407758
0.00407475
0.00407417
0.00407453
0.00407686
0.00408627
0.00411834
0.00420781
0.00439032
0.00458883
0.00477147
0.00490263
0.00496296
0.00493709
0.00478584
0.00441859
0.00364809
0.00179604
0.00177439
0.00356313
0.00429448
0.00464173
0.00479648
0.00485715
0.00487321
0.00486455
0.00483459
0.0047795
0.00469432
0.00457623
0.00442944
0.00428818
0.0042104
0.00417913
0.00416877
0.0041658
0.0041652
0.00416576
0.0041686
0.0041786
0.00420923
0.00428642
0.00442917
0.00458219
0.00470873
0.00478999
0.00481848
0.00478087
0.00463634
0.00429292
0.0035627
0.00177449
0.00171506
0.00335028
0.00399799
0.00429468
0.00442223
0.00447125
0.00448598
0.00448444
0.00447073
0.00444204
0.00439287
0.00431929
0.00422637
0.00413778
0.00408577
0.00406323
0.00405524
0.00405282
0.00405232
0.00405285
0.00405528
0.00406321
0.00408562
0.0041376
0.00422684
0.00432166
0.00439686
0.00444164
0.00445181
0.00441492
0.0042924
0.00399742
0.0033501
0.00171516
0.00157063
0.00285802
0.00335049
0.00356353
0.00364958
0.00368081
0.00369024
0.00369074
0.00368548
0.00367311
0.00365025
0.00361422
0.00356769
0.00352281
0.00349533
0.0034828
0.00347812
0.00347662
0.00347631
0.00347669
0.00347825
0.00348297
0.00349552
0.00352306
0.00356816
0.0036152
0.00365126
0.00367132
0.00367306
0.00364695
0.00356285
0.00335037
0.00285793
0.00157072
0.00129442
0.00157063
0.00171514
0.00177459
0.00179631
0.00180346
0.00180556
0.00180589
0.00180523
0.00180329
0.00179928
0.00179241
0.00178299
0.00177358
0.00176784
0.00176526
0.00176427
0.00176394
0.00176386
0.00176395
0.0017643
0.00176529
0.00176787
0.00177359
0.00178302
0.0017925
0.00179936
0.00180284
0.00180264
0.00179625
0.00177475
0.00171529
0.00157072
0.00129451
0.0013959
0.00180335
0.00202408
0.00211993
0.00215722
0.00217028
0.00217441
0.00217557
0.00217583
0.00217583
0.00217576
0.00217568
0.00217562
0.00217557
0.00217553
0.0021755
0.00217548
0.00217547
0.00217547
0.00217548
0.0021755
0.00217553
0.00217556
0.0021756
0.00217565
0.00217566
0.00217543
0.00217431
0.00217023
0.0021572
0.00211992
0.00202407
0.00180336
0.00139592
0.00180335
0.00348089
0.00412849
0.00442217
0.00454762
0.00459625
0.00461315
0.00461829
0.00461944
0.0046193
0.00461881
0.00461828
0.00461787
0.00461758
0.00461738
0.00461723
0.00461712
0.00461706
0.00461706
0.00461712
0.00461722
0.00461737
0.00461756
0.00461783
0.00461814
0.00461827
0.0046173
0.00461243
0.00459577
0.00454731
0.00442196
0.00412834
0.00348078
0.00180335
0.00202413
0.00412864
0.00496032
0.00535654
0.00553584
0.00560976
0.00563702
0.0056456
0.00564727
0.00564652
0.00564512
0.00564383
0.00564295
0.00564247
0.00564221
0.00564203
0.00564189
0.00564181
0.00564181
0.00564189
0.00564204
0.00564222
0.00564246
0.0056429
0.00564358
0.0056441
0.00564284
0.00563506
0.00560859
0.00553525
0.00535628
0.00496021
0.0041286
0.00202416
0.00212004
0.00442244
0.00535668
0.00581622
0.00603164
0.0061236
0.00615827
0.00616851
0.00616881
0.0061652
0.00616069
0.00615702
0.00615472
0.00615361
0.00615314
0.00615277
0.00615246
0.00615228
0.00615228
0.00615247
0.00615279
0.00615316
0.00615362
0.00615465
0.00615666
0.00615924
0.00616003
0.00615221
0.00612004
0.00602989
0.00581553
0.00535648
0.00442242
0.00212011
0.00215738
0.00454796
0.00553608
0.00603175
0.00626881
0.0063715
0.00640929
0.00641726
0.00641121
0.0063988
0.00638558
0.00637569
0.00636992
0.00636746
0.00636658
0.0063657
0.00636487
0.0063644
0.0063644
0.00636488
0.00636573
0.00636661
0.00636748
0.00636985
0.00637525
0.0063838
0.00639257
0.00639154
0.00636101
0.00626362
0.00602961
0.00553538
0.00454782
0.00215746
0.00217046
0.00459662
0.00561005
0.00612382
0.00637165
0.00647823
0.00651323
0.00651116
0.00648749
0.00645221
0.00641744
0.00639399
0.00638168
0.00637738
0.00637637
0.00637444
0.00637241
0.00637129
0.0063713
0.00637243
0.00637447
0.00637641
0.00637741
0.00638161
0.00639352
0.00641549
0.00644537
0.00646604
0.00645044
0.00635784
0.00611798
0.005608
0.00459607
0.00217051
0.00217459
0.00461353
0.00563736
0.00615865
0.00640982
0.0065139
0.0065376
0.00651105
0.00644637
0.00635762
0.00627433
0.00622734
0.00620736
0.00620349
0.0062047
0.00620112
0.0061969
0.00619466
0.00619467
0.00619693
0.00620116
0.00620475
0.00620354
0.00620731
0.00622689
0.00627236
0.00635055
0.00642409
0.00644813
0.00637746
0.0061449
0.00563234
0.00461203
0.0021745
0.00217576
0.00461867
0.00564607
0.00616934
0.00641893
0.00651415
0.00651474
0.00643989
0.00629066
0.0060846
0.0058959
0.00582524
0.00581226
0.005821
0.00583159
0.00582683
0.00582002
0.00581657
0.00581657
0.00582005
0.00582687
0.00583165
0.00582106
0.00581225
0.00582486
0.00589401
0.00607754
0.00626807
0.00637598
0.00635245
0.00614135
0.00563574
0.00461542
0.00217536
0.00217601
0.00461986
0.00564806
0.00617069
0.00641568
0.00649664
0.00646137
0.00630716
0.00600263
0.00554259
0.00509345
0.00508158
0.00515728
0.00521528
0.00524575
0.00524764
0.00524249
0.00523952
0.00523953
0.00524251
0.00524768
0.00524581
0.00521535
0.00515733
0.00508136
0.00509179
0.00553569
0.00597986
0.00624262
0.0062979
0.00612206
0.00563013
0.00461407
0.00217515
0.00217602
0.00461986
0.00564796
0.00616922
0.00640901
0.0064746
0.00639882
0.00614485
0.00560166
0.00456433
0.00289001
0.00383214
0.00430077
0.00447686
0.00451478
0.00455773
0.00456746
0.00456843
0.00456844
0.00456748
0.00455777
0.00451485
0.00447699
0.00430096
0.00383232
0.00288892
0.00455766
0.00557852
0.00607955
0.00623435
0.00609887
0.00562222
0.00461142
0.00217463
0.00217596
0.00461961
0.00564765
0.00616824
0.00640544
0.00646309
0.00636479
0.00604695
0.00529423
0.00303688
0.00234277
0.0034853
0.00377464
0.00386511
0.00388241
0.00388439
0.00388426
0.00388427
0.00388441
0.00388245
0.00386518
0.00377478
0.00348556
0.00234296
0.00303172
0.00527058
0.00598093