/*--------------------------------*- C++ -*----------------------------------*\
| =========                 |                                                 |
| \\      /  F ield         | OpenFOAM: The Open Source CFD Toolbox           |
|  \\    /   O peration     | Version:  2112                                  |
|   \\  /    A nd           | Website:  www.openfoam.com                      |
|    \\/     M anipulation  |                                                 |
\*---------------------------------------------------------------------------*/
FoamFile
{
    version     2.0;
    format      ascii;
    arch        "LSB;label=32;scalar=64";
    class       volScalarField;
    location    "2";
    object      nut;
}
// * * * * * * * * * * * * * * * * * * * * * * * * * * * * * * * * * * * * * //

dimensions      [0 2 -1 0 0 0 0];

internalField   nonuniform List<scalar> 
64906
(
7.33228e-05
7.61138e-05
7.75367e-05
7.80755e-05
7.82548e-05
7.83091e-05
7.83245e-05
7.8329e-05
7.83306e-05
7.83315e-05
7.83321e-05
7.83325e-05
7.83327e-05
7.83327e-05
7.83325e-05
7.83321e-05
7.83317e-05
7.83312e-05
7.83308e-05
7.83312e-05
7.83316e-05
7.8332e-05
7.83322e-05
7.83322e-05
7.83319e-05
7.83313e-05
7.83299e-05
7.83256e-05
7.83102e-05
7.8256e-05
7.80768e-05
7.75381e-05
7.61152e-05
7.33239e-05
7.61148e-05
9.07726e-05
9.68683e-05
9.92975e-05
0.000100216
0.000100535
0.000100636
0.000100665
0.000100673
0.000100675
0.000100676
0.000100676
0.000100677
0.000100678
0.000100678
0.000100679
0.000100679
0.000100679
0.000100679
0.000100679
0.000100679
0.000100679
0.000100678
0.000100677
0.000100676
0.000100674
0.000100667
0.000100638
0.000100538
0.00010022
9.93009e-05
9.68717e-05
9.07757e-05
7.61171e-05
7.75393e-05
9.68704e-05
0.000105023
0.000108454
0.000109845
0.000110366
0.000110542
0.000110596
0.000110609
0.00011061
0.000110608
0.000110607
0.000110609
0.000110611
0.000110614
0.000110616
0.000110617
0.000110617
0.000110617
0.000110617
0.000110616
0.000110614
0.000110612
0.000110609
0.000110607
0.000110604
0.000110592
0.000110541
0.000110368
0.00010985
0.000108459
0.000105028
9.68755e-05
7.75431e-05
7.80795e-05
9.93012e-05
0.000108456
0.000112452
0.000114142
0.000114801
0.000115032
0.0001151
0.000115107
0.000115093
0.000115077
0.000115068
0.000115066
0.000115069
0.000115073
0.000115076
0.000115077
0.000115078
0.000115078
0.000115077
0.000115076
0.000115074
0.00011507
0.000115066
0.000115067
0.000115071
0.000115067
0.000115012
0.000114793
0.000114142
0.000112457
0.000108463
9.93079e-05
7.80844e-05
7.82595e-05
0.000100221
0.000109848
0.000114143
0.000116002
0.000116742
0.000116998
0.000117054
0.000117024
0.000116957
0.000116891
0.000116854
0.000116842
0.000116845
0.000116852
0.000116855
0.000116855
0.000116854
0.000116854
0.000116855
0.000116856
0.000116853
0.000116846
0.000116843
0.000116853
0.000116883
0.000116925
0.00011691
0.000116697
0.000115986
0.000114143
0.000109855
0.000100229
7.82654e-05
7.83141e-05
0.00010054
0.000110369
0.000114803
0.000116743
0.000117514
0.000117755
0.000117747
0.000117597
0.000117374
0.000117168
0.000117069
0.000117044
0.000117055
0.000117072
0.000117073
0.000117068
0.000117065
0.000117065
0.000117069
0.000117074
0.000117073
0.000117057
0.000117045
0.000117069
0.00011716
0.000117339
0.000117474
0.000117362
0.000116679
0.000114785
0.00011037
0.000100547
7.83208e-05
7.83295e-05
0.000100641
0.000110546
0.000115035
0.000117
0.000117758
0.000117924
0.000117743
0.000117287
0.00011665
0.000116087
0.00011591
0.000115915
0.000115977
0.000116032
0.000116032
0.000116017
0.000116008
0.000116008
0.000116018
0.000116033
0.000116033
0.000115979
0.000115916
0.00011591
0.00011608
0.000116615
0.00011716
0.000117347
0.000116819
0.000114972
0.000110533
0.000100645
7.83367e-05
7.83337e-05
0.00010067
0.000110599
0.000115103
0.00011706
0.000117759
0.00011776
0.000117206
0.00011605
0.000114384
0.000112906
0.000112851
0.000113155
0.000113428
0.000113592
0.000113604
0.00011358
0.000113566
0.000113566
0.000113581
0.000113605
0.000113594
0.00011343
0.000113157
0.000112852
0.000112899
0.00011435
0.000115923
0.000116806
0.000116645
0.000114952
0.000110558
0.000100667
7.83408e-05
7.83348e-05
0.000100677
0.000110612
0.000115113
0.000117041
0.000117639
0.000117362
0.000116137
0.000113547
0.00010931
0.00010508
0.000106615
0.000108302
0.000109218
0.00010963
0.000109699
0.000109691
0.000109682
0.000109682
0.000109692
0.000109701
0.000109632
0.000109221
0.000108305
0.000106618
0.000105075
0.000109278
0.000113421
0.000115738
0.000116244
0.000114824
0.000110527
0.000100663
7.83412e-05
7.83351e-05
0.000100678
0.000110614
0.000115107
0.000117001
0.000117483
0.000116868
0.000114714
0.000109627
9.89051e-05
8.45372e-05
9.50621e-05
0.000101506
0.000103887
0.00010467
0.00010489
0.000104941
0.00010495
0.000104951
0.000104942
0.000104891
0.000104673
0.00010389
0.000101511
9.50686e-05
8.45341e-05
9.88776e-05
0.000109503
0.000114313
0.000115746
0.000114664
0.000110481
0.000100651
7.83403e-05
7.8335e-05
0.000100678
0.000110615
0.000115105
0.000116982
0.000117404
0.00011659
0.000113764
0.000106163
8.51004e-05
8.24213e-05
9.58569e-05
9.97841e-05
0.000100863
0.000101143
0.000101204
0.000101215
0.000101215
0.000101205
0.000101144
0.000100864
9.97869e-05
9.58621e-05
8.24256e-05
8.50853e-05
0.00010604
0.000113361
0.000115465
0.000114581
0.000110458
0.000100644
7.83397e-05
7.83346e-05
0.000100677
0.000110618
0.000115116
0.000117012
0.000117492
0.000116858
0.00011465
0.000109445
9.84903e-05
8.41113e-05
9.33438e-05
9.9411e-05
0.000101596
0.000102251
0.000102433
0.000102455
0.000102451
0.000102451
0.000102455
0.000102433
0.00010225
0.000101596
9.94108e-05
9.3341e-05
8.41022e-05
9.84528e-05
0.000109315
0.000114245
0.000115733
0.000114666
0.000110484
0.000100649
7.83397e-05
7.83338e-05
0.000100678
0.000110623
0.000115134
0.000117068
0.000117658
0.000117336
0.000115982
0.000113094
0.000108262
0.000103039
0.000103022
0.000103392
0.000103632
0.000103725
0.000103737
0.000103719
0.000103707
0.000103707
0.000103719
0.000103736
0.000103723
0.000103629
0.000103388
0.000103015
0.000103022
0.000108221
0.000112962
0.000115576
0.000116209
0.00011483
0.000110536
0.000100661
7.83399e-05
7.83328e-05
0.000100677
0.000110628
0.000115151
0.00011712
0.000117806
0.000117735
0.000116972
0.000115338
0.000112735
0.000109692
0.000107482
0.000105717
0.000104913
0.000104629
0.000104529
0.000104489
0.000104474
0.000104474
0.000104488
0.000104528
0.000104627
0.00010491
0.000105712
0.000107476
0.000109677
0.000112693
0.000115205
0.000116565
0.000116606
0.000114976
0.000110583
0.000100672
7.83394e-05
7.83317e-05
0.000100677
0.000110631
0.000115163
0.000117155
0.000117903
0.000117977
0.000117524
0.000116445
0.000114608
0.000112091
0.00010931
0.000106785
0.000105532
0.000105064
0.000104907
0.000104854
0.000104836
0.000104836
0.000104853
0.000104905
0.000105062
0.000105529
0.00010678
0.000109301
0.000112076
0.000114566
0.000116311
0.000117115
0.000116846
0.000115069
0.000110615
0.00010068
7.83382e-05
7.83304e-05
0.000100677
0.000110634
0.000115171
0.000117175
0.000117953
0.000118097
0.00011778
0.000116919
0.000115335
0.000112948
0.000109994
0.000107201
0.00010578
0.000105238
0.000105056
0.000104996
0.000104975
0.000104974
0.000104994
0.000105054
0.000105235
0.000105777
0.000107196
0.000109985
0.000112934
0.000115293
0.000116784
0.00011737
0.000116965
0.000115117
0.000110632
0.000100683
7.83366e-05
7.83291e-05
0.000100676
0.000110635
0.000115175
0.000117185
0.000117976
0.000118149
0.000117884
0.000117098
0.000115592
0.000113235
0.000110225
0.000107343
0.000105866
0.000105297
0.000105106
0.000105042
0.000105018
0.000105017
0.00010504
0.000105104
0.000105295
0.000105862
0.000107338
0.000110216
0.000113221
0.000115551
0.000116963
0.000117473
0.000117015
0.000115139
0.00011064
0.000100684
7.83347e-05
7.83279e-05
0.000100676
0.000110635
0.000115176
0.000117189
0.000117985
0.000118167
0.000117919
0.000117156
0.000115671
0.00011332
0.000110293
0.000107384
0.000105891
0.000105315
0.00010512
0.000105053
0.000105027
0.000105026
0.000105051
0.000105118
0.000105312
0.000105887
0.000107379
0.000110284
0.000113305
0.000115629
0.000117021
0.000117508
0.000117033
0.000115147
0.000110643
0.000100684
7.83329e-05
7.83269e-05
0.000100676
0.000110636
0.000115177
0.00011719
0.000117986
0.000118169
0.00011792
0.000117158
0.000115673
0.000113322
0.000110296
0.000107386
0.000105892
0.000105315
0.00010512
0.000105052
0.000105024
0.000105023
0.00010505
0.000105117
0.000105312
0.000105888
0.000107381
0.000110287
0.000113308
0.000115632
0.000117023
0.00011751
0.000117035
0.000115148
0.000110644
0.000100684
7.83314e-05
7.83268e-05
0.000100676
0.000110636
0.000115176
0.000117187
0.000117979
0.000118153
0.000117889
0.000117105
0.0001156
0.000113244
0.000110234
0.000107349
0.00010587
0.000105299
0.000105106
0.000105039
0.000105011
0.00010501
0.000105036
0.000105103
0.000105296
0.000105866
0.000107344
0.000110226
0.000113231
0.000115559
0.000116971
0.000117479
0.00011702
0.000115142
0.000110642
0.000100684
7.83313e-05
7.83279e-05
0.000100676
0.000110635
0.000115173
0.000117179
0.000117959
0.000118104
0.000117789
0.00011693
0.00011535
0.000112965
0.000110012
0.000107213
0.000105788
0.000105242
0.000105057
0.000104992
0.000104967
0.000104965
0.00010499
0.000105054
0.000105239
0.000105784
0.000107208
0.000110004
0.000112953
0.00011531
0.000116798
0.00011738
0.000116972
0.000115123
0.000110635
0.000100683
7.8333e-05
7.83292e-05
0.000100677
0.000110633
0.000115167
0.000117161
0.00011791
0.000117987
0.000117537
0.000116463
0.000114632
0.00011212
0.00010934
0.000106805
0.000105546
0.000105072
0.000104911
0.000104852
0.00010483
0.000104829
0.00010485
0.000104908
0.00010507
0.000105543
0.000106801
0.000109335
0.000112109
0.000114593
0.000116332
0.00011713
0.000116857
0.000115077
0.00011062
0.00010068
7.83347e-05
7.83305e-05
0.000100678
0.000110631
0.000115156
0.000117127
0.000117816
0.000117748
0.000116991
0.000115364
0.000112772
0.00010974
0.000107525
0.000105747
0.000104933
0.000104642
0.000104536
0.000104491
0.000104472
0.000104472
0.000104489
0.000104534
0.000104639
0.000104931
0.000105745
0.000107522
0.000109732
0.000112736
0.000115236
0.000116586
0.000116621
0.000114986
0.000110589
0.000100674
7.8336e-05
7.83316e-05
0.000100678
0.000110626
0.00011514
0.000117076
0.000117669
0.000117351
0.000116004
0.000113128
0.000108316
0.000103117
0.000103085
0.000103424
0.000103646
0.000103728
0.000103734
0.000103712
0.000103698
0.000103698
0.000103711
0.000103732
0.000103726
0.000103643
0.000103423
0.000103088
0.000103113
0.000108284
0.000113002
0.000115602
0.000116227
0.000114842
0.000110543
0.000100663
7.83367e-05
7.83324e-05
0.000100678
0.000110621
0.000115121
0.00011702
0.000117504
0.000116875
0.000114674
0.000109484
9.85593e-05
8.41633e-05
9.33791e-05
9.93791e-05
0.000101534
0.00010217
0.000102343
0.00010236
0.000102354
0.000102354
0.000102359
0.000102339
0.000102162
0.000101522
9.93656e-05
9.33819e-05
8.4158e-05
9.85342e-05
0.000109356
0.00011427
0.000115749
0.000114678
0.000110492
0.000100651
7.83368e-05
7.83329e-05
0.000100677
0.000110615
0.000115106
0.000116985
0.00011741
0.000116598
0.000113774
0.000106174
8.51048e-05
8.22824e-05
9.55404e-05
9.93651e-05
0.000100373
0.000100624
0.000100676
0.000100683
0.000100681
0.00010067
0.000100609
0.000100338
9.92951e-05
9.54325e-05
8.22085e-05
8.5069e-05
0.000106028
0.000113358
0.000115469
0.000114587
0.000110463
0.000100645
7.83368e-05
7.83324e-05
0.00010067
0.0001106
0.000115089
0.00011698
0.000117463
0.000116848
0.00011469
0.000109591
9.88467e-05
8.44496e-05
9.4431e-05
0.000100472
0.00010243
0.000102943
0.000103081
0.000103117
0.000103123
0.000103121
0.000103104
0.000103041
0.000102832
0.000102175
0.000100022
9.39975e-05
8.42826e-05
9.86668e-05
0.000109373
0.000114245
0.000115713
0.000114646
0.000110471
0.000100646
7.8337e-05
7.83288e-05
0.000100643
0.00011055
0.000115027
0.00011694
0.00011753
0.000117246
0.000115998
0.000113341
0.000108935
0.000104322
0.000105084
0.000105779
0.000105604
0.000105384
0.000105283
0.000105251
0.000105242
0.000105238
0.000105229
0.000105206
0.000105147
0.000105007
0.000104643
0.000103947
0.000103508
0.000108429
0.000112978
0.0001155
0.000116103
0.000114731
0.000110467
0.000100631
7.83347e-05
7.8314e-05
0.000100544
0.000110376
0.000114806
0.000116716
0.000117389
0.000117368
0.000116768
0.000115485
0.000113502
0.000111342
0.000110063
0.000108626
0.000107018
0.000106221
0.000105932
0.000105845
0.000105822
0.000105816
0.000105816
0.000105826
0.000105875
0.000106075
0.000106701
0.000108174
0.000109987
0.00011269
0.000114983
0.000116224
0.000116235
0.000114642
0.000110337
0.000100544
7.83208e-05
7.82601e-05
0.000100227
0.000109859
0.000114155
0.000116002
0.000116696
0.000116822
0.00011658
0.00011597
0.000114957
0.000113607
0.000112042
0.000110076
0.000108071
0.000107085
0.000106725
0.000106617
0.000106588
0.000106582
0.000106585
0.000106608
0.000106704
0.000107034
0.000107979
0.000109978
0.000112117
0.000114064
0.000115437
0.000116048
0.000115749
0.000114078
0.000109848
0.000100234
7.82672e-05
7.80808e-05
9.93082e-05
0.000108469
0.00011247
0.000114158
0.000114802
0.000114978
0.000114907
0.000114626
0.000114087
0.000113231
0.000112014
0.000110446
0.000108894
0.000108062
0.000107736
0.000107634
0.000107607
0.000107602
0.000107605
0.00010763
0.000107728
0.000108044
0.000108866
0.000110427
0.000112056
0.000113371
0.000114193
0.000114462
0.00011404
0.000112444
0.000108474
9.93192e-05
7.80878e-05
7.75416e-05
9.68783e-05
0.000105037
0.000108475
0.00010987
0.000110389
0.000110549
0.000110549
0.000110432
0.000110169
0.000109697
0.000108963
0.000108006
0.000107072
0.000106534
0.000106308
0.000106232
0.000106212
0.000106208
0.000106211
0.000106231
0.000106305
0.000106528
0.000107064
0.000108002
0.000108977
0.000109729
0.000110161
0.00011024
0.000109831
0.000108477
0.00010505
9.68905e-05
7.75482e-05
7.61179e-05
9.07808e-05
9.68826e-05
9.93177e-05
0.000100242
0.000100565
0.000100666
0.000100683
0.000100649
0.000100551
0.000100352
0.000100021
9.95773e-05
9.91374e-05
9.88713e-05
9.87529e-05
9.87112e-05
9.8699e-05
9.86966e-05
9.86991e-05
9.87114e-05
9.87529e-05
9.88705e-05
9.91361e-05
9.95769e-05
0.000100025
0.000100357
0.00010053
0.000100526
0.000100244
9.93317e-05
9.68973e-05
9.07917e-05
7.61235e-05
7.33257e-05
7.61196e-05
7.75467e-05
7.80898e-05
7.82733e-05
7.8332e-05
7.83519e-05
7.836e-05
7.83619e-05
7.83564e-05
7.83379e-05
7.82985e-05
7.82383e-05
7.81731e-05
7.8132e-05
7.81117e-05
7.81021e-05
7.80967e-05
7.80946e-05
7.80971e-05
7.81024e-05
7.81117e-05
7.81315e-05
7.8172e-05
7.82366e-05
7.82965e-05
7.83356e-05
7.83506e-05
7.8342e-05
7.82864e-05
7.8102e-05
7.75565e-05
7.61262e-05
7.33297e-05
0.000112955
0.000124949
0.000130924
0.000133387
0.000134311
0.000134626
0.000134723
0.00013475
0.000134757
0.000134758
0.000134757
0.000134756
0.000134755
0.000134754
0.000134753
0.000134752
0.000134752
0.000134752
0.000134751
0.000134752
0.000134752
0.000134753
0.000134753
0.000134754
0.000134755
0.000134754
0.000134748
0.000134722
0.000134626
0.000134311
0.000133387
0.000130925
0.00012495
0.000112956
0.000124949
0.000353886
0.00042818
0.000458105
0.000470337
0.000474988
0.00047658
0.000477055
0.000477158
0.000477143
0.000477095
0.000477045
0.000477004
0.000476975
0.000476955
0.000476939
0.000476928
0.000476922
0.000476922
0.000476928
0.000476939
0.000476955
0.000476975
0.000477002
0.000477033
0.000477049
0.000476963
0.000476513
0.000474944
0.000470307
0.000458082
0.000428161
0.000353873
0.00012495
0.000130926
0.000428201
0.000532289
0.000576552
0.000595704
0.00060346
0.00060629
0.000607174
0.000607348
0.000607279
0.000607147
0.000607031
0.000606955
0.000606916
0.000606897
0.000606883
0.000606871
0.000606864
0.000606865
0.000606872
0.000606884
0.000606899
0.000606917
0.000606952
0.000607009
0.00060705
0.000606913
0.000606107
0.000603355
0.000595653
0.000576528
0.000532277
0.000428196
0.000130929
0.000133391
0.000458138
0.000576567
0.000628803
0.000652263
0.00066212
0.000665807
0.000666892
0.000666932
0.00066657
0.000666124
0.000665774
0.000665566
0.000665477
0.000665446
0.000665416
0.000665388
0.000665371
0.000665372
0.000665389
0.000665419
0.000665449
0.00066548
0.000665562
0.000665741
0.00066598
0.000666042
0.000665202
0.00066177
0.000652096
0.000628738
0.000576545
0.000458135
0.000133395
0.000134316
0.000470376
0.000595728
0.000652273
0.000678229
0.000689313
0.000693366
0.000694221
0.000693588
0.000692291
0.000690932
0.00068996
0.000689421
0.000689219
0.000689165
0.000689085
0.000689
0.000688952
0.000688953
0.000689003
0.000689089
0.00068917
0.000689223
0.000689417
0.00068992
0.000690754
0.000691648
0.000691521
0.000688234
0.000677704
0.00065206
0.000595659
0.000470363
0.000134321
0.000134632
0.000475029
0.000603489
0.000662139
0.000689325
0.000700862
0.000704628
0.0007044
0.000701852
0.000698066
0.000694393
0.000692101
0.000690964
0.000690642
0.000690629
0.000690434
0.000690213
0.000690093
0.000690094
0.000690216
0.000690439
0.000690635
0.000690647
0.000690961
0.000692058
0.0006942
0.000697362
0.000699596
0.000697925
0.000687887
0.000661543
0.000603283
0.000474978
0.000134637
0.000134729
0.000476619
0.000606321
0.000665838
0.000693413
0.00070469
0.000707228
0.000704311
0.000697208
0.000687394
0.000678274
0.000674074
0.000672504
0.000672451
0.000672821
0.000672423
0.000671943
0.000671696
0.000671697
0.000671947
0.000672429
0.000672828
0.000672458
0.000672503
0.000674035
0.000678082
0.000686673
0.000694872
0.000697609
0.000689977
0.000664409
0.000605815
0.000476481
0.000134732
0.000134757
0.000477091
0.000607213
0.000666963
0.000694375
0.000704688
0.000704672
0.000696329
0.000679455
0.00065541
0.000632826
0.000629662
0.000630605
0.000632593
0.000634359
0.000633715
0.000632908
0.000632528
0.000632529
0.000632911
0.000633721
0.000634366
0.000632601
0.000630607
0.000629632
0.00063265
0.000654705
0.000677109
0.000689544
0.000687211
0.00066401
0.000606159
0.00047679
0.000134753
0.000134763
0.000477194
0.000607413
0.000667101
0.000694014
0.000702749
0.000698682
0.000681049
0.000644747
0.000585087
0.000517973
0.00054318
0.000561236
0.000570527
0.00057549
0.000575003
0.000574192
0.000573841
0.000573841
0.000574194
0.000575007
0.000575498
0.000570536
0.000561245
0.000543171
0.00051784
0.000584434
0.000642423
0.000674236
0.000681128
0.000661906
0.000605564
0.000476653
0.000134749
0.000134763
0.000477187
0.000607402
0.000666944
0.000693285
0.000700285
0.000691453
0.00066111
0.000590068
0.0004321
0.000154394
0.000380396
0.000468855
0.000496011
0.00050515
0.000506453
0.000506514
0.000506467
0.000506468
0.000506516
0.000506457
0.000505158
0.000496024
0.000468881
0.000380443
0.000154371
0.000431577
0.000587781
0.000654268
0.000673829
0.000659347
0.000604724
0.000476388
0.000134738
0.000134762
0.000477158
0.00060737
0.000666842
0.000692898
0.000698976
0.000687261
0.000647016
0.000533402
0.000156912
0.000145202
0.000387879
0.000437178
0.000448255
0.000451761
0.000452654
0.000452814
0.000452815
0.000452656
0.000451764
0.000448262
0.000437192
0.000387917
0.000145209
0.000156807
0.000531187
0.000640143
0.000669582
0.000657973
0.000604265
0.000476214
0.000134731
0.000134761
0.000477134
0.000607386
0.000666947
0.000693246
0.000700054
0.000690703
0.000659242
0.000586183
0.000425405
0.000152244
0.000355994
0.000432992
0.00045382
0.000456043
0.000461872
0.000463594
0.000463852
0.000463851
0.00046359
0.000461867
0.000456033
0.000453809
0.000432983
0.000355978
0.000152209
0.000424807
0.000583853
0.00065236
0.000673024
0.000659033
0.000604568
0.000476243
0.000134732
0.000134759
0.000477123
0.000607442
0.000667191
0.000694031
0.000702359
0.000697138
0.000676849
0.000635218
0.000566037
0.000484382
0.000484712
0.000478689
0.000476846
0.000475582
0.000476758
0.000477136
0.000477155
0.000477153
0.000477132
0.00047675
0.000475568
0.000476824
0.000478652
0.000484641
0.000484198
0.000565333
0.000632848
0.000669971
0.000679473
0.000661336
0.00060532
0.000476414
0.00013474
0.000134758
0.000477115
0.000607502
0.000667441
0.00069481
0.000704535
0.000702718
0.000690079
0.000664347
0.000624205
0.000576245
0.000538888
0.000504725
0.000490995
0.000486489
0.000485444
0.000485165
0.000485075
0.000485075
0.000485162
0.000485439
0.000486478
0.000490974
0.000504688
0.000538823
0.000576049
0.000623477
0.000661958
0.000683195
0.000685049
0.000663496
0.00060606
0.000476593
0.000134747
0.000134757
0.000477109
0.000607547
0.000667621
0.000695357
0.000706004
0.000706263
0.00069774
0.000679003
0.000648243
0.000606773
0.000560769
0.000516944
0.00049798
0.000491541
0.000489679
0.000489188
0.000489074
0.000489074
0.000489187
0.000489676
0.000491533
0.000497962
0.000516913
0.000560731
0.000606582
0.000647507
0.0006766
0.000690839
0.000688575
0.000664939
0.000606567
0.000476717
0.00013475
0.000134755
0.000477103
0.000607571
0.000667725
0.000695666
0.000706802
0.000708102
0.000701471
0.000685546
0.000657844
0.000617727
0.000569133
0.000521958
0.000500942
0.000493647
0.000491489
0.000490936
0.000490822
0.000490822
0.000490936
0.000491488
0.000493641
0.000500926
0.00052193
0.000569096
0.000617537
0.000657104
0.000683132
0.000694555
0.000690395
0.000665712
0.000606843
0.000476781
0.000134751
0.000134754
0.000477098
0.000607583
0.000667776
0.000695812
0.000707168
0.000708912
0.00070304
0.000688141
0.000661395
0.00062153
0.000572065
0.000523766
0.000502028
0.000494418
0.000492161
0.00049159
0.000491479
0.000491479
0.000491591
0.00049216
0.000494413
0.000502013
0.00052374
0.000572028
0.00062134
0.000660653
0.000685721
0.000696114
0.000691191
0.00066606
0.000606969
0.000476808
0.00013475
0.000134753
0.000477095
0.000607587
0.000667796
0.000695868
0.000707304
0.000709201
0.000703579
0.000688996
0.000662512
0.000622675
0.000572939
0.000524314
0.000502357
0.000494651
0.000492365
0.00049179
0.000491681
0.000491682
0.000491792
0.000492365
0.000494647
0.000502343
0.000524288
0.000572903
0.000622486
0.00066177
0.000686574
0.000696649
0.000691474
0.000666187
0.000607015
0.000476816
0.000134749
0.000134752
0.000477095
0.000607588
0.000667799
0.000695872
0.000707309
0.000709208
0.000703588
0.000689006
0.000662523
0.000622686
0.00057295
0.000524328
0.000502367
0.000494657
0.000492369
0.000491795
0.000491687
0.000491688
0.000491796
0.000492369
0.000494653
0.000502353
0.000524303
0.000572913
0.000622497
0.000661781
0.000686586
0.000696659
0.000691481
0.000666191
0.000607017
0.000476816
0.000134749
0.000134752
0.000477096
0.000607585
0.000667783
0.000695823
0.000707184
0.000708933
0.000703067
0.000688173
0.00066143
0.000621564
0.000572099
0.000523815
0.000502061
0.00049444
0.00049218
0.00049161
0.000491502
0.000491503
0.000491612
0.000492181
0.000494438
0.000502049
0.000523791
0.000572064
0.000621377
0.000660692
0.000685757
0.000696144
0.000691213
0.000666074
0.000606975
0.000476806
0.000134748
0.000134753
0.0004771
0.000607576
0.000667737
0.000695685
0.000706829
0.000708138
0.000701518
0.000685605
0.000657912
0.0006178
0.000569206
0.000522057
0.000501018
0.000493706
0.000491545
0.000490994
0.000490884
0.000490885
0.000490997
0.000491548
0.000493706
0.000501009
0.000522038
0.000569174
0.000617617
0.000657181
0.000683199
0.000694608
0.000690433
0.000665736
0.000606855
0.000476779
0.000134748
0.000134754
0.000477105
0.000607553
0.000667638
0.000695384
0.000706043
0.000706316
0.000697812
0.000679098
0.000648364
0.000606914
0.000560913
0.000517126
0.000498129
0.000491671
0.000489807
0.000489322
0.000489215
0.000489217
0.000489328
0.000489814
0.000491678
0.000498129
0.000517115
0.000560888
0.000606741
0.000647647
0.00067671
0.000690921
0.000688633
0.000664975
0.000606584
0.000476714
0.000134747
0.000134756
0.000477109
0.000607509
0.000667461
0.000694844
0.000704585
0.000702788
0.000690178
0.000664489
0.000624411
0.000576521
0.000539189
0.000505015
0.000491234
0.000486712
0.000485667
0.0004854
0.000485322
0.000485325
0.00048541
0.000485682
0.000486727
0.000491245
0.000505018
0.000539181
0.000576369
0.000623719
0.000662123
0.000683305
0.000685122
0.000663541
0.00060608
0.000476588
0.000134743
0.000134757
0.000477113
0.000607446
0.000667209
0.000694064
0.00070241
0.000697214
0.000676964
0.000635407
0.000566368
0.0004849
0.000485216
0.000478995
0.000477037
0.000475744
0.000476912
0.000477308
0.000477344
0.000477348
0.000477322
0.000476931
0.000475759
0.000477041
0.000478996
0.000485241
0.000484799
0.000565727
0.000633054
0.000670084
0.000679543
0.000661379
0.000605337
0.000476403
0.000134736
0.000134758
0.000477113
0.000607372
0.00066694
0.000693249
0.000700071
0.000690741
0.000659316
0.000586353
0.000425833
0.000152354
0.000356318
0.00043259
0.000453065
0.000455093
0.000460883
0.000462629
0.000462907
0.000462911
0.000462636
0.000460879
0.000455036
0.000452931
0.000432427
0.000356415
0.000152329
0.000425341
0.000583962
0.000652358
0.000673017
0.00065903
0.000604559
0.000476214
0.000134728
0.000134757
0.000477099
0.000607281
0.000666727
0.000692766
0.000698836
0.000687111
0.000646846
0.00053323
0.000156859
0.000144638
0.000383823
0.00043164
0.000441786
0.000445041
0.000445915
0.000446085
0.000446078
0.000445875
0.0004449
0.000441385
0.000430757
0.000382489
0.000144325
0.000156646
0.000530581
0.000639652
0.000669283
0.0006578
0.000604158
0.000476135
0.000134724
0.000134752
0.000476991
0.000607044
0.000666445
0.000692683
0.000699607
0.000690679
0.000660143
0.000588749
0.000430458
0.000153625
0.000370735
0.000453281
0.000474576
0.000480001
0.000480701
0.000480836
0.000480866
0.000480838
0.000480699
0.000480228
0.000478597
0.000471139
0.000446952
0.000364707
0.000152789
0.000427579
0.000584694
0.000652362
0.000672702
0.00065866
0.000604302
0.00047615
0.000134725
0.000134726
0.00047653
0.000606178
0.000665398
0.000691977
0.00070047
0.00069612
0.000677901
0.000640234
0.000577572
0.000504406
0.000517473
0.000520453
0.000512894
0.000508513
0.000506635
0.000506042
0.000505879
0.000505826
0.00050577
0.000505647
0.000505351
0.000504262
0.000502532
0.000499356
0.000491498
0.000568803
0.000633554
0.000669135
0.000677982
0.000659821
0.000604204
0.000475924
0.00013471
0.00013463
0.000474956
0.000603398
0.000661865
0.000688405
0.00069814
0.000697561
0.000688158
0.000668768
0.000639007
0.000604855
0.000581643
0.000554102
0.000523833
0.00051109
0.000506844
0.00050562
0.000505305
0.000505234
0.000505241
0.0005054
0.000506201
0.000509376
0.000520458
0.000549871
0.000581915
0.000624727
0.000659564
0.000678562
0.00067957
0.000658354
0.000602167
0.000474574
0.000134624
0.000134316
0.000470318
0.000595684
0.000652148
0.000677763
0.000687859
0.0006895
0.000685227
0.000675067
0.000658395
0.0006356
0.000608081
0.000573493
0.000537488
0.000522052
0.000516834
0.000515298
0.000514896
0.000514814
0.000514866
0.000515203
0.000516579
0.000521461
0.00053654
0.000572957
0.000610031
0.000642573
0.000665268
0.000675811
0.000672493
0.000650119
0.000594993
0.000470096
0.000134316
0.000133392
0.000458091
0.000576552
0.000628773
0.000652089
0.000661479
0.000663962
0.000662365
0.000657116
0.000647446
0.000632277
0.000610903
0.000583939
0.000557635
0.000544695
0.000539841
0.000538276
0.000537828
0.000537736
0.000537823
0.000538255
0.000539773
0.000544548
0.000557446
0.000584032
0.000611951
0.000634602
0.000649054
0.000654437
0.000649157
0.0006277
0.0005762
0.000457967
0.000133395
0.000130928
0.000428162
0.00053229
0.000576568
0.000595681
0.000603254
0.00060556
0.000605189
0.000602701
0.000597567
0.000588794
0.000575684
0.000559128
0.000543352
0.000534656
0.00053104
0.000529776
0.00052939
0.00052931
0.000529396
0.000529785
0.000531043
0.000534646
0.000543353
0.000559249
0.00057611
0.000589456
0.000597482
0.000599623
0.000594251
0.000576078
0.000532135
0.000428093
0.000130932
0.000124952
0.000353865
0.000428194
0.000458141
0.000470374
0.000474976
0.000476395
0.000476412
0.000475469
0.000473325
0.000469439
0.000463399
0.000455681
0.000448293
0.000443897
0.000441923
0.000441185
0.000440945
0.000440895
0.000440958
0.00044121
0.000441957
0.000443937
0.000448347
0.000455778
0.00046358
0.000469616
0.000473051
0.000473546
0.000469843
0.00045797
0.000428137
0.000353824
0.000124956
0.000112958
0.000124952
0.000130932
0.0001334
0.000134329
0.000134647
0.000134743
0.000134757
0.000134722
0.000134625
0.000134432
0.000134111
0.00013368
0.000133255
0.000132995
0.000132876
0.000132831
0.000132815
0.000132812
0.000132816
0.000132832
0.000132877
0.000132996
0.000133256
0.000133682
0.000134116
0.000134436
0.000134603
0.0001346
0.000134321
0.000133405
0.000130937
0.000124955
0.000112962
0.000117449
0.000134198
0.000142622
0.000146245
0.000147688
0.000148214
0.000148387
0.000148437
0.000148449
0.000148449
0.000148446
0.000148442
0.000148439
0.000148437
0.000148436
0.000148435
0.000148434
0.000148433
0.000148433
0.000148434
0.000148435
0.000148436
0.000148437
0.000148439
0.000148441
0.000148441
0.000148431
0.000148382
0.000148211
0.000147687
0.000146244
0.000142621
0.000134198
0.000117451
0.000134198
0.000455374
0.000569419
0.000617336
0.000637766
0.000645921
0.000648861
0.000649781
0.000649984
0.000649947
0.000649838
0.000649722
0.000649629
0.000649562
0.000649515
0.000649481
0.000649456
0.000649443
0.000649443
0.000649455
0.000649479
0.000649513
0.000649558
0.000649619
0.000649692
0.00064973
0.000649564
0.000648698
0.000645808
0.000637688
0.000617277
0.00056937
0.00045534
0.000134198
0.000142624
0.000569452
0.000737385
0.000811858
0.000845186
0.000859195
0.000864517
0.000866236
0.000866568
0.000866395
0.000866077
0.000865779
0.000865568
0.000865448
0.000865385
0.000865338
0.000865302
0.000865283
0.000865283
0.000865302
0.000865338
0.000865385
0.000865446
0.000865555
0.000865721
0.000865854
0.000865617
0.00086407
0.000858921
0.000845034
0.000811774
0.000737332
0.000569423
0.000142625
0.000146249
0.00061739
0.000811885
0.000901308
0.00094271
0.000960684
0.000967637
0.000969733
0.00096977
0.00096897
0.000967952
0.000967085
0.00096651
0.000966222
0.000966095
0.000965991
0.000965905
0.000965859
0.00096586
0.000965907
0.000965994
0.000966098
0.000966221
0.000966492
0.000967
0.000967625
0.000967849
0.000966282
0.000959868
0.000942289
0.000901114
0.000811797
0.000617354
0.000146252
0.000147694
0.000637831
0.00084523
0.000942731
0.000988816
0.0010091
0.00101673