/*--------------------------------*- C++ -*----------------------------------*\
| =========                 |                                                 |
| \\      /  F ield         | OpenFOAM: The Open Source CFD Toolbox           |
|  \\    /   O peration     | Version:  2112                                  |
|   \\  /    A nd           | Website:  www.openfoam.com                      |
|    \\/     M anipulation  |                                                 |
\*---------------------------------------------------------------------------*/
FoamFile
{
    version     2.0;
    format      ascii;
    arch        "LSB;label=32;scalar=64";
    class       volScalarField;
    location    "2";
    object      p;
}
// * * * * * * * * * * * * * * * * * * * * * * * * * * * * * * * * * * * * * //

dimensions      [0 2 -2 0 0 0 0];

internalField   nonuniform List<scalar> 
64906
(
-7.87747e-06
-7.8578e-06
-7.85561e-06
-7.87626e-06
-7.92379e-06
-7.99611e-06
-8.09381e-06
-8.21864e-06
-8.36957e-06
-8.54339e-06
-8.73215e-06
-8.928e-06
-9.11752e-06
-9.29292e-06
-9.44516e-06
-9.56996e-06
-9.6637e-06
-9.72492e-06
-9.75287e-06
-9.74764e-06
-9.71031e-06
-9.64256e-06
-9.54826e-06
-9.43181e-06
-9.30247e-06
-9.16788e-06
-9.04149e-06
-8.93062e-06
-8.84256e-06
-8.77961e-06
-8.74291e-06
-8.73203e-06
-8.74187e-06
-8.76432e-06
-7.8145e-06
-7.72029e-06
-7.65253e-06
-7.61245e-06
-7.60826e-06
-7.63917e-06
-7.70041e-06
-7.7868e-06
-7.89342e-06
-8.01681e-06
-8.14822e-06
-8.28335e-06
-8.41006e-06
-8.52658e-06
-8.6265e-06
-8.70947e-06
-8.77361e-06
-8.81904e-06
-8.84551e-06
-8.85316e-06
-8.84245e-06
-8.81347e-06
-8.76831e-06
-8.70739e-06
-8.63731e-06
-8.55986e-06
-8.48785e-06
-8.42636e-06
-8.38649e-06
-8.37493e-06
-8.39948e-06
-8.46392e-06
-8.55949e-06
-8.67951e-06
-7.80113e-06
-7.65795e-06
-7.54128e-06
-7.45792e-06
-7.42072e-06
-7.42447e-06
-7.46229e-06
-7.52943e-06
-7.62105e-06
-7.73529e-06
-7.86025e-06
-7.99273e-06
-8.10966e-06
-8.21318e-06
-8.29612e-06
-8.36361e-06
-8.41543e-06
-8.4539e-06
-8.47937e-06
-8.49195e-06
-8.49152e-06
-8.47594e-06
-8.44567e-06
-8.39568e-06
-8.33356e-06
-8.25728e-06
-8.19143e-06
-8.14056e-06
-8.12061e-06
-8.1387e-06
-8.20585e-06
-8.32829e-06
-8.49054e-06
-8.6755e-06
-7.83791e-06
-7.65412e-06
-7.49403e-06
-7.37211e-06
-7.30779e-06
-7.29553e-06
-7.3283e-06
-7.40357e-06
-7.51891e-06
-7.67767e-06
-7.86152e-06
-8.06677e-06
-8.23733e-06
-8.37985e-06
-8.48333e-06
-8.56281e-06
-8.61996e-06
-8.66046e-06
-8.68532e-06
-8.69461e-06
-8.68758e-06
-8.65866e-06
-8.60659e-06
-8.5164e-06
-8.39999e-06
-8.25082e-06
-8.12801e-06
-8.03676e-06
-8.00158e-06
-8.02664e-06
-8.12269e-06
-8.29288e-06
-8.51474e-06
-8.75294e-06
-7.93686e-06
-7.71998e-06
-7.52741e-06
-7.37899e-06
-7.30123e-06
-7.29051e-06
-7.34247e-06
-7.46089e-06
-7.65072e-06
-7.92847e-06
-8.26743e-06
-8.66593e-06
-8.98264e-06
-9.23542e-06
-9.40776e-06
-9.53474e-06
-9.61995e-06
-9.6743e-06
-9.6992e-06
-9.6947e-06
-9.65957e-06
-9.58296e-06
-9.46185e-06
-9.26123e-06
-8.99925e-06
-8.65785e-06
-8.38423e-06
-8.18009e-06
-8.08078e-06
-8.07939e-06
-8.18117e-06
-8.38247e-06
-8.64503e-06
-8.92907e-06
-8.09777e-06
-7.84883e-06
-7.6307e-06
-7.46608e-06
-7.3883e-06
-7.39666e-06
-7.49178e-06
-7.68846e-06
-8.00633e-06
-8.48942e-06
-9.10839e-06
-9.88875e-06
-1.04724e-05
-1.09211e-05
-1.12158e-05
-1.14303e-05
-1.15691e-05
-1.16509e-05
-1.16766e-05
-1.16463e-05
-1.15589e-05
-1.13957e-05
-1.11529e-05
-1.07567e-05
-1.02291e-05
-9.50667e-06
-8.96033e-06
-8.55802e-06
-8.34169e-06
-8.27927e-06
-8.36386e-06
-8.58076e-06
-8.87546e-06
-9.20492e-06
-8.3167e-06
-8.03113e-06
-7.79043e-06
-7.617e-06
-7.5508e-06
-7.59398e-06
-7.75326e-06
-8.0579e-06
-8.55031e-06
-9.32772e-06
-1.03578e-05
-1.1853e-05
-1.28451e-05
-1.35777e-05
-1.40431e-05
-1.43826e-05
-1.45983e-05
-1.47202e-05
-1.47478e-05
-1.46806e-05
-1.45194e-05
-1.42333e-05
-1.38212e-05
-1.31413e-05
-1.22066e-05
-1.0767e-05
-9.82363e-06
-9.13404e-06
-8.75358e-06
-8.60029e-06
-8.64856e-06
-8.87011e-06
-9.19473e-06
-9.5763e-06
-8.58963e-06
-8.25587e-06
-7.99457e-06
-7.81952e-06
-7.77755e-06
-7.87275e-06
-8.11663e-06
-8.54868e-06
-9.23856e-06
-1.03353e-05
-1.18414e-05
-1.47001e-05
-1.62047e-05
-1.73099e-05
-1.80024e-05
-1.85151e-05
-1.88393e-05
-1.90188e-05
-1.90494e-05
-1.89305e-05
-1.86658e-05
-1.82102e-05
-1.7573e-05
-1.65192e-05
-1.50733e-05
-1.22563e-05
-1.08708e-05
-9.86371e-06
-9.29344e-06
-9.02867e-06
-9.02231e-06
-9.23806e-06
-9.59191e-06
-1.00375e-05
-8.92306e-06
-8.49914e-06
-8.22946e-06
-8.0606e-06
-8.05572e-06
-8.22053e-06
-8.56679e-06
-9.13428e-06
-9.97994e-06
-1.13832e-05
-1.32787e-05
-1.87451e-05
-2.05148e-05
-2.20063e-05
-2.29519e-05
-2.36499e-05
-2.40926e-05
-2.43363e-05
-2.43712e-05
-2.41964e-05
-2.38208e-05
-2.31858e-05
-2.22983e-05
-2.08536e-05
-1.91464e-05
-1.36896e-05
-1.20017e-05
-1.06587e-05
-9.93449e-06
-9.54668e-06
-9.46857e-06
-9.66751e-06
-1.00508e-05
-1.05797e-05
-9.26171e-06
-8.78981e-06
-8.49551e-06
-8.34058e-06
-8.39666e-06
-8.67091e-06
-9.17546e-06
-9.90899e-06
-1.09767e-05
-1.3467e-05
-1.13578e-05
-2.32776e-05
-2.52144e-05
-2.73635e-05
-2.86914e-05
-2.9683e-05
-3.03149e-05
-3.06541e-05
-3.06945e-05
-3.04352e-05
-2.98811e-05
-2.89617e-05
-2.7698e-05
-2.55926e-05
-2.37491e-05
-1.16554e-05
-1.41187e-05
-1.16806e-05
-1.0761e-05
-1.02175e-05
-1.00117e-05
-1.01585e-05
-1.05461e-05
-1.12133e-05
-9.61494e-06
-9.08978e-06
-8.77135e-06
-8.63496e-06
-8.76776e-06
-9.18451e-06
-9.87562e-06
-1.07097e-05
-1.15359e-05
-9.18859e-06
-3.45435e-05
-3.16445e-05
-3.3027e-05
-3.44135e-05
-3.55911e-05
-3.63822e-05
-3.67946e-05
-3.68411e-05
-3.65211e-05
-3.58203e-05
-3.47269e-05
-3.34126e-05
-3.20702e-05
-3.4887e-05
-1.0262e-05
-1.24464e-05
-1.1653e-05
-1.09808e-05
-1.06109e-05
-1.06803e-05
-1.10858e-05
-1.18579e-05
-9.97156e-06
-9.39029e-06
-9.05301e-06
-8.94942e-06
-9.1996e-06
-9.87382e-06
-1.11103e-05
-1.31282e-05
-1.65104e-05
-2.10518e-05
-3.16137e-05
-3.10946e-05
-3.48101e-05
-3.78342e-05
-4.02627e-05
-4.20635e-05
-4.31906e-05
-4.37432e-05
-4.37958e-05
-4.33485e-05
-4.23272e-05
-4.06321e-05
-3.83102e-05
-3.53956e-05
-3.17915e-05
-3.25594e-05
-2.18711e-05
-1.73668e-05
-1.40605e-05
-1.22327e-05
-1.13614e-05
-1.12505e-05
-1.16423e-05
-1.25144e-05
-1.03123e-05
-9.67326e-06
-9.31162e-06
-9.2236e-06
-9.54816e-06
-1.03725e-05
-1.18541e-05
-1.41781e-05
-1.76185e-05
-2.1914e-05
-2.89855e-05
-3.31911e-05
-3.74094e-05
-4.11056e-05
-4.41165e-05
-4.62389e-05
-4.75532e-05
-4.81919e-05
-4.82492e-05
-4.77255e-05
-4.65275e-05
-4.45221e-05
-4.16294e-05
-3.80421e-05
-3.3914e-05
-2.98376e-05
-2.27894e-05
-1.84971e-05
-1.51261e-05
-1.30061e-05
-1.19285e-05
-1.17396e-05
-1.21531e-05
-1.31333e-05
-1.06247e-05
-9.93294e-06
-9.54647e-06
-9.46471e-06
-9.83805e-06
-1.0759e-05
-1.2387e-05
-1.49003e-05
-1.85441e-05
-2.3214e-05
-2.92295e-05
-3.42659e-05
-3.92334e-05
-4.34365e-05
-4.67991e-05
-4.90946e-05
-5.04987e-05
-5.1172e-05
-5.12328e-05
-5.06817e-05
-4.94014e-05
-4.72314e-05
-4.39961e-05
-3.99092e-05
-3.50481e-05
-3.00834e-05
-2.4084e-05
-1.94259e-05
-1.58628e-05
-1.35728e-05
-1.23874e-05
-1.21673e-05
-1.26152e-05
-1.36934e-05
-1.08963e-05
-1.01585e-05
-9.74536e-06
-9.6565e-06
-1.0047e-05
-1.10061e-05
-1.26852e-05
-1.52544e-05
-1.89306e-05
-2.36436e-05
-2.93502e-05
-3.48387e-05
-4.02597e-05
-4.4694e-05
-4.81922e-05
-5.05357e-05
-5.19567e-05
-5.26322e-05
-5.26955e-05
-5.21473e-05
-5.08553e-05
-4.86424e-05
-4.52767e-05
-4.09625e-05
-3.56544e-05
-3.02135e-05
-2.4523e-05
-1.98246e-05
-1.6238e-05
-1.39109e-05
-1.27094e-05
-1.25061e-05
-1.30035e-05
-1.41682e-05
-1.11211e-05
-1.03464e-05
-9.90947e-06
-9.80916e-06
-1.02029e-05
-1.11759e-05
-1.28718e-05
-1.54574e-05
-1.91358e-05
-2.38647e-05
-2.95329e-05
-3.52487e-05
-4.08809e-05
-4.54271e-05
-4.89778e-05
-5.13208e-05
-5.27298e-05
-5.33952e-05
-5.34608e-05
-5.29271e-05
-5.16511e-05
-4.94421e-05
-4.60268e-05
-4.16021e-05
-3.60794e-05
-3.04075e-05
-2.4756e-05
-2.00445e-05
-1.6464e-05
-1.41375e-05
-1.29483e-05
-1.27749e-05
-1.33191e-05
-1.45519e-05
-1.12951e-05
-1.04929e-05
-1.00367e-05
-9.92438e-06
-1.03146e-05
-1.12897e-05
-1.29883e-05
-1.55778e-05
-1.92584e-05
-2.40118e-05
-2.97104e-05
-3.55455e-05
-4.12941e-05
-4.58972e-05
-4.94683e-05
-5.18032e-05
-5.32003e-05
-5.38577e-05
-5.39259e-05
-5.34047e-05
-5.21443e-05
-4.99455e-05
-4.65112e-05
-4.20297e-05
-3.63896e-05
-3.05964e-05
-2.49152e-05
-2.01817e-05
-1.66061e-05
-1.42892e-05
-1.31194e-05
-1.29759e-05
-1.35586e-05
-1.48417e-05
-1.14171e-05
-1.05972e-05
-1.01285e-05
-1.0008e-05
-1.03956e-05
-1.13726e-05
-1.30758e-05
-1.56745e-05
-1.93698e-05
-2.41561e-05
-2.99001e-05
-3.58129e-05
-4.16354e-05
-4.62818e-05
-4.9874e-05
-5.22115e-05
-5.3609e-05
-5.42656e-05
-5.43381e-05
-5.38228e-05
-5.25663e-05
-5.03648e-05
-4.69098e-05
-4.23847e-05
-3.66695e-05
-3.07973e-05
-2.50708e-05
-2.03061e-05
-1.67206e-05
-1.44033e-05
-1.32434e-05
-1.31183e-05
-1.37252e-05
-1.504e-05
-1.14868e-05
-1.06591e-05
-1.01852e-05
-1.00619e-05
-1.04502e-05
-1.14321e-05
-1.31457e-05
-1.5762e-05
-1.94846e-05
-2.43102e-05
-3.01025e-05
-3.60687e-05
-4.19403e-05
-4.66261e-05
-5.02461e-05
-5.25923e-05
-5.40088e-05
-5.46698e-05
-5.47534e-05
-5.42383e-05
-5.29719e-05
-5.07522e-05
-4.7269e-05
-4.27041e-05
-3.69385e-05
-3.10111e-05
-2.52355e-05
-2.0432e-05
-1.68212e-05
-1.449e-05
-1.33261e-05
-1.32049e-05
-1.38205e-05
-1.5149e-05
-1.15048e-05
-1.06789e-05
-1.02072e-05
-1.00863e-05
-1.04787e-05
-1.14685e-05
-1.31978e-05
-1.58401e-05
-1.96019e-05
-2.44724e-05
-3.03176e-05
-3.63177e-05
-4.22141e-05
-4.69361e-05
-5.0599e-05
-5.30142e-05
-5.44471e-05
-5.51316e-05
-5.51943e-05
-5.46565e-05
-5.3365e-05
-5.11113e-05
-4.7594e-05
-4.29951e-05
-3.72033e-05
-3.12393e-05
-2.54083e-05
-2.05578e-05
-1.69071e-05
-1.45495e-05
-1.33684e-05
-1.32368e-05
-1.3846e-05
-1.51705e-05
-1.14724e-05
-1.06582e-05
-1.01954e-05
-1.00806e-05
-1.04773e-05
-1.14735e-05
-1.32178e-05
-1.58876e-05
-1.9698e-05
-2.46236e-05
-3.05455e-05
-3.65562e-05
-4.24347e-05
-4.71726e-05
-5.08645e-05
-5.33115e-05
-5.47859e-05
-5.54895e-05
-5.55644e-05
-5.50143e-05
-5.36929e-05
-5.14003e-05
-4.78552e-05
-4.32414e-05
-3.74648e-05
-3.1485e-05
-2.5574e-05
-2.06658e-05
-1.69631e-05
-1.4572e-05
-1.33662e-05
-1.32141e-05
-1.38035e-05
-1.51061e-05
-1.13922e-05
-1.05991e-05
-1.01496e-05
-1.00404e-05
-1.04343e-05
-1.14235e-05
-1.31652e-05
-1.58441e-05
-1.96963e-05
-2.46871e-05
-3.07695e-05
-3.67427e-05
-4.25116e-05
-4.72035e-05
-5.08847e-05
-5.33603e-05
-5.48685e-05
-5.55964e-05
-5.56784e-05
-5.51151e-05
-5.37696e-05
-5.14541e-05
-4.79242e-05
-4.33599e-05
-3.76896e-05
-3.17346e-05
-2.56593e-05
-2.06826e-05
-1.69334e-05
-1.45232e-05
-1.33025e-05
-1.31312e-05
-1.36932e-05
-1.49572e-05
-1.12698e-05
-1.05069e-05
-1.00741e-05
-9.96731e-06
-1.0346e-05
-1.13048e-05
-1.30083e-05
-1.56493e-05
-1.95026e-05
-2.45247e-05
-3.10368e-05
-3.68974e-05
-4.23207e-05
-4.68516e-05
-5.04426e-05
-5.29041e-05
-5.44208e-05
-5.51648e-05
-5.52552e-05
-5.46923e-05
-5.33539e-05
-5.10673e-05
-4.76386e-05
-4.32452e-05
-3.79235e-05
-3.20412e-05
-2.55372e-05
-2.0525e-05
-1.67679e-05
-1.43809e-05
-1.31727e-05
-1.2993e-05
-1.3524e-05
-1.47324e-05
-1.11125e-05
-1.03863e-05
-9.96944e-06
-9.85386e-06
-1.01891e-05
-1.10628e-05
-1.26341e-05
-1.50949e-05
-1.87232e-05
-2.33448e-05
-3.11432e-05
-3.70602e-05
-4.1644e-05
-4.5726e-05
-4.90216e-05
-5.13564e-05
-5.28204e-05
-5.3557e-05
-5.36602e-05
-5.31309e-05
-5.18712e-05
-4.97386e-05
-4.66253e-05
-4.26988e-05
-3.82052e-05
-3.21886e-05
-2.44113e-05
-1.98081e-05
-1.62715e-05
-1.40443e-05
-1.2933e-05
-1.27864e-05
-1.32985e-05
-1.44411e-05
-1.09346e-05
-1.02503e-05
-9.85141e-06
-9.72339e-06
-9.99979e-06
-1.07514e-05
-1.21219e-05
-1.43441e-05
-1.80728e-05
-2.33238e-05
-3.30875e-05
-3.54221e-05
-4.0246e-05
-4.40397e-05
-4.69148e-05
-4.90433e-05
-5.04031e-05
-5.11065e-05
-5.12301e-05
-5.07772e-05
-4.96668e-05
-4.77893e-05
-4.51299e-05
-4.15086e-05
-3.66977e-05
-3.40843e-05
-2.46013e-05
-1.93172e-05
-1.56355e-05
-1.36046e-05
-1.26439e-05
-1.25538e-05
-1.30493e-05
-1.41154e-05
-1.07479e-05
-1.01047e-05
-9.72006e-06
-9.56696e-06
-9.74873e-06
-1.02759e-05
-1.11112e-05
-1.20219e-05
-1.27738e-05
-9.11377e-06
-4.41747e-05
-3.9851e-05
-4.15405e-05
-4.33818e-05
-4.49896e-05
-4.61144e-05
-4.67478e-05
-4.68979e-05
-4.65724e-05
-4.57598e-05
-4.44744e-05
-4.29114e-05
-4.14997e-05
-4.58158e-05
-1.03569e-05
-1.41477e-05
-1.34402e-05
-1.26942e-05
-1.22101e-05
-1.22683e-05
-1.27748e-05
-1.37729e-05
-1.05722e-05
-9.97032e-06
-9.60914e-06
-9.4559e-06
-9.60995e-06
-1.01029e-05
-1.10056e-05
-1.24421e-05
-1.48639e-05
-1.88931e-05
-2.06846e-05
-3.12193e-05
-3.47675e-05
-3.80868e-05
-4.04296e-05
-4.22323e-05
-4.34457e-05
-4.41421e-05
-4.43276e-05
-4.40204e-05
-4.32176e-05
-4.18311e-05
-3.9855e-05
-3.6958e-05
-3.34029e-05
-2.35259e-05
-2.11851e-05
-1.68348e-05
-1.41701e-05
-1.27305e-05
-1.2078e-05
-1.20869e-05
-1.25435e-05
-1.34663e-05
-1.0418e-05
-9.85399e-06
-9.51762e-06
-9.3689e-06
-9.50014e-06
-9.94509e-06
-1.07687e-05
-1.2076e-05
-1.3987e-05
-1.66456e-05
-2.15251e-05
-2.82025e-05
-3.16343e-05
-3.47906e-05
-3.71763e-05
-3.9054e-05
-4.03121e-05
-4.10307e-05
-4.12462e-05
-4.09994e-05
-4.02964e-05
-3.89593e-05
-3.69137e-05
-3.41922e-05
-3.08096e-05
-2.42925e-05
-1.89504e-05
-1.60454e-05
-1.39232e-05
-1.25721e-05
-1.19361e-05
-1.19248e-05
-1.23397e-05
-1.31986e-05
-1.02986e-05
-9.77498e-06
-9.47109e-06
-9.34202e-06
-9.47223e-06
-9.89524e-06
-1.06754e-05
-1.19229e-05
-1.38112e-05
-1.65264e-05
-2.02758e-05
-2.49717e-05
-2.85523e-05
-3.17727e-05
-3.42478e-05
-3.62071e-05
-3.74921e-05
-3.82267e-05
-3.84504e-05
-3.82008e-05
-3.74528e-05
-3.61129e-05
-3.40981e-05
-3.13794e-05
-2.78712e-05
-2.3229e-05
-1.9136e-05
-1.60509e-05
-1.38742e-05
-1.25286e-05
-1.18837e-05
-1.18373e-05
-1.22017e-05
-1.29937e-05
-1.022e-05
-9.74584e-06
-9.48286e-06
-9.38543e-06
-9.52564e-06
-9.93032e-06
-1.06522e-05
-1.17844e-05
-1.34577e-05
-1.5815e-05
-1.88683e-05
-2.24843e-05
-2.5748e-05
-2.87851e-05
-3.11712e-05
-3.30465e-05
-3.42696e-05
-3.49665e-05
-3.51837e-05
-3.49582e-05
-3.4259e-05
-3.30104e-05
-3.1121e-05
-2.86043e-05
-2.54195e-05
-2.17919e-05
-1.84175e-05
-1.57067e-05
-1.3752e-05
-1.25116e-05
-1.18973e-05
-1.18255e-05
-1.21377e-05
-1.28558e-05
-1.01876e-05
-9.78241e-06
-9.57674e-06
-9.53162e-06
-9.70332e-06
-1.01097e-05
-1.07875e-05
-1.18026e-05
-1.32419e-05
-1.51903e-05
-1.76397e-05
-2.04874e-05
-2.32707e-05
-2.59426e-05
-2.80931e-05
-2.97756e-05
-3.08708e-05
-3.14964e-05
-3.16976e-05
-3.15052e-05
-3.0893e-05
-2.97784e-05
-2.8114e-05
-2.59225e-05
-2.32212e-05
-2.03393e-05
-1.76292e-05
-1.53939e-05
-1.37278e-05
-1.26289e-05
-1.20492e-05
-1.19376e-05
-1.21766e-05
-1.27942e-05
-1.0202e-05
-9.89147e-06
-9.76664e-06
-9.79864e-06
-1.00282e-05
-1.04673e-05
-1.11404e-05
-1.20899e-05
-1.33664e-05
-1.50133e-05
-1.702e-05
-1.93146e-05
-2.16398e-05
-2.38929e-05
-2.57437e-05
-2.71925e-05
-2.81685e-05
-2.87354e-05
-2.89223e-05
-2.8751e-05
-2.8202e-05
-2.72382e-05
-2.58148e-05
-2.39721e-05
-2.17478e-05
-1.94356e-05
-1.72528e-05
-1.54039e-05
-1.39748e-05
-1.29777e-05
-1.23962e-05
-1.22075e-05
-1.23352e-05
-1.2809e-05
-1.02504e-05
-1.0054e-05
-1.00252e-05
-1.0149e-05
-1.04553e-05
-1.09571e-05
-1.16743e-05
-1.26338e-05
-1.38608e-05
-1.53598e-05
-1.71592e-05
-1.91634e-05
-2.12036e-05
-2.31696e-05
-2.48247e-05
-2.61343e-05
-2.70438e-05
-2.75812e-05
-2.77604e-05
-2.75941e-05
-2.70719e-05
-2.61785e-05
-2.48951e-05
-2.32667e-05
-2.13503e-05
-1.93661e-05
-1.74695e-05
-1.58217e-05
-1.45202e-05
-1.35451e-05
-1.29086e-05
-1.26049e-05
-1.25894e-05
-1.28814e-05
-1.03208e-05
-1.02614e-05
-1.03328e-05
-1.0546e-05
-1.09355e-05
-1.15256e-05
-1.23436e-05
-1.34195e-05
-1.47792e-05
-1.64467e-05
-1.83212e-05
-2.03656e-05
-2.24405e-05
-2.44294e-05
-2.61385e-05
-2.75081e-05
-2.84813e-05
-2.90604e-05
-2.92493e-05
-2.9054e-05
-2.84709e-05
-2.74972e-05
-2.61371e-05
-2.44462e-05
-2.25029e-05
-2.04974e-05
-1.85769e-05
-1.68607e-05
-1.54143e-05
-1.43162e-05
-1.35555e-05
-1.31097e-05
-1.29294e-05
-1.2995e-05
-7.95065e-06
-7.95913e-06
-7.98257e-06
-8.02413e-06
-8.0901e-06
-8.18329e-06
-8.30633e-06
-8.46109e-06
-8.64642e-06
-8.85959e-06
-9.0906e-06
-9.33095e-06
-9.56338e-06
-9.77897e-06
-9.96534e-06
-1.01172e-05
-1.02296e-05
-1.03008e-05
-1.03295e-05
-1.03161e-05
-1.02619e-05
-1.01689e-05
-1.00423e-05
-9.88768e-06
-9.71755e-06
-9.54068e-06
-9.37436e-06
-9.22641e-06
-9.10599e-06
-9.01411e-06
-8.94939e-06
-8.90705e-06
-8.87921e-06
-8.86049e-06
-7.90591e-06
-7.86929e-06
-7.85664e-06
-7.86049e-06
-7.89237e-06
-7.95497e-06
-8.04841e-06
-8.17153e-06
-8.31969e-06
-8.48994e-06
-8.66893e-06
-8.85351e-06
-9.02699e-06
-9.18898e-06
-9.32747e-06
-9.44179e-06
-9.52756e-06
-9.5848e-06
-9.61271e-06
-9.61139e-06
-9.58194e-06
-9.52451e-06
-9.44377e-06
-9.34043e-06
-9.22679e-06
-9.1031e-06
-8.98666e-06
-8.88074e-06
-8.79964e-06
-8.74677e-06
-8.72574e-06
-8.73373e-06
-8.75641e-06
-8.79615e-06
-7.91338e-06
-7.86021e-06
-7.83015e-06
-7.80964e-06
-7.82311e-06
-7.87483e-06
-7.96528e-06
-8.09462e-06
-8.25745e-06
-8.45552e-06
-8.66624e-06
-8.89483e-06
-9.09783e-06
-9.28573e-06
-9.43769e-06
-9.56121e-06
-9.65087e-06
-9.70986e-06
-9.7374e-06
-9.73359e-06
-9.69948e-06
-9.63201e-06
-9.53698e-06
-9.40686e-06
-9.26323e-06
-9.09537e-06
-8.94853e-06
-8.8178e-06
-8.72857e-06
-8.68091e-06
-8.67968e-06
-8.718e-06
-8.7624e-06
-8.81934e-06
-7.97011e-06
-7.89636e-06
-7.84717e-06
-7.8069e-06
-7.81011e-06
-7.86406e-06
-7.97158e-06
-8.13765e-06
-8.3585e-06
-8.64716e-06
-8.96423e-06
-9.33065e-06
-9.63839e-06
-9.91848e-06
-1.01311e-05
-1.02993e-05
-1.04151e-05
-1.04872e-05
-1.05146e-05
-1.04975e-05
-1.04371e-05
-1.03246e-05
-1.01686e-05
-9.946e-06
-9.69806e-06
-9.39319e-06
-9.14332e-06
-8.92706e-06
-8.78907e-06
-8.71919e-06
-8.72077e-06
-8.77903e-06
-8.84485e-06
-8.92387e-06
-8.08914e-06
-7.99192e-06
-7.92803e-06
-7.87809e-06
-7.88474e-06
-7.95926e-06
-8.1091e-06
-8.34862e-06
-8.67935e-06
-9.13881e-06
-9.65919e-06
-1.03006e-05
-1.0808e-05
-1.12616e-05
-1.1588e-05
-1.18409e-05
-1.20073e-05
-1.21054e-05
-1.21334e-05
-1.20912e-05
-1.19809e-05
-1.17843e-05
-1.15151e-05
-1.11192e-05
-1.06731e-05
-1.00947e-05
-9.64694e-06
-9.26618e-06
-9.02892e-06
-8.90112e-06
-8.88139e-06
-8.94322e-06
-9.02268e-06
-9.12855e-06
-8.27118e-06
-8.1455e-06
-8.07055e-06
-8.02045e-06
-8.04445e-06
-8.15806e-06
-8.37484e-06
-8.72265e-06
-9.21263e-06
-9.92903e-06
-1.07688e-05
-1.18935e-05
-1.27132e-05
-1.34368e-05
-1.39346e-05
-1.43172e-05
-1.45614e-05
-1.47004e-05
-1.47296e-05
-1.46489e-05
-1.44629e-05
-1.41381e-05
-1.36988e-05
-1.30333e-05
-1.22765e-05
-1.12157e-05
-1.04571e-05
-9.82608e-06
-9.44097e-06
-9.22111e-06
-9.15717e-06
-9.20788e-06
-9.2956e-06
-9.43557e-06
-8.5136e-06
-8.35253e-06
-8.26901e-06
-8.2267e-06
-8.28039e-06
-8.44882e-06
-8.75141e-06
-9.23128e-06
-9.91178e-06
-1.09696e-05
-1.22498e-05
-1.42044e-05
-1.54375e-05
-1.65062e-05
-1.72066e-05
-1.77459e-05
-1.80817e-05
-1.82706e-05
-1.8302e-05
-1.81754e-05
-1.79014e-05
-1.74224e-05
-1.67822e-05
-1.57713e-05
-1.4603e-05
-1.27105e-05
-1.15269e-05
-1.05607e-05
-9.99638e-06
-9.66074e-06
-9.53573e-06
-9.56486e-06
-9.65844e-06
-9.84303e-06
-8.81166e-06
-8.60537e-06
-8.51607e-06
-8.4913e-06
-8.59059e-06
-8.8333e-06
-9.24112e-06
-9.86004e-06
-1.07205e-05
-1.20643e-05
-1.38806e-05
-1.7277e-05
-1.89299e-05
-2.04025e-05
-2.13442e-05
-2.20828e-05
-2.25384e-05
-2.27936e-05
-2.28282e-05
-2.26414e-05
-2.22531e-05
-2.15785e-05
-2.06992e-05
-1.92824e-05
-1.76935e-05
-1.43477e-05
-1.26608e-05
-1.14101e-05
-1.06765e-05
-1.02179e-05
-1.00147e-05
-1.00094e-05
-1.01049e-05
-1.03476e-05
-9.15866e-06
-8.89049e-06
-8.79737e-06
-8.79726e-06
-8.95375e-06
-9.28209e-06
-9.79639e-06
-1.05227e-05
-1.14084e-05
-1.29115e-05
-1.50058e-05
-2.16024e-05
-2.31083e-05
-2.47348e-05
-2.58096e-05
-2.66659e-05
-2.71953e-05
-2.74987e-05
-2.75373e-05
-2.73101e-05
-2.68549e-05
-2.60676e-05
-2.50573e-05
-2.34799e-05
-2.20382e-05
-1.54537e-05
-1.3587e-05
-1.21528e-05
-1.13987e-05
-1.08446e-05
-1.05618e-05
-1.0516e-05
-1.06155e-05
-1.09394e-05
-9.53674e-06
-9.2075e-06
-9.11457e-06
-9.15796e-06
-9.41016e-06
-9.88521e-06
-1.05982e-05
-1.14519e-05
-1.24021e-05
-1.4635e-05
-1.06194e-05
-2.50804e-05
-2.65461e-05
-2.86791e-05
-3.00372e-05
-3.11657e-05
-3.18558e-05
-3.22399e-05
-3.22829e-05
-3.19839e-05
-3.13769e-05
-3.03253e-05
-2.90366e-05
-2.69482e-05
-2.55769e-05
-1.08836e-05
-1.53212e-05
-1.31594e-05
-1.23706e-05
-1.17026e-05
-1.12495e-05
-1.11073e-05
-1.11846e-05
-1.16156e-05
-9.93257e-06
-9.53277e-06
-9.43724e-06
-9.52512e-06
-9.87815e-06
-1.05114e-05
-1.14231e-05
-1.24112e-05
-1.2869e-05
-8.03054e-06
-3.65271e-05
-3.11211e-05
-3.19153e-05
-3.31316e-05
-3.4144e-05
-3.4837e-05
-3.52174e-05
-3.52648e-05
-3.49783e-05
-3.43768e-05
-3.34495e-05
-3.23081e-05
-3.15467e-05
-3.68162e-05
-9.20827e-06
-1.38213e-05
-1.3409e-05
-1.25848e-05
-1.19512e-05
-1.17034e-05
-1.17675e-05
-1.23292e-05
-1.03342e-05
-9.8614e-06
-9.77652e-06
-9.94237e-06
-1.04762e-05
-1.14596e-05
-1.30547e-05
-1.53858e-05
-1.91765e-05
-2.31663e-05
-3.36094e-05
-2.96728e-05
-3.19736e-05
-3.43389e-05
-3.62513e-05
-3.7661e-05
-3.85822e-05
-3.90491e-05
-3.91011e-05
-3.87381e-05
-3.79211e-05
-3.66148e-05
-3.48076e-05
-3.2551e-05
-3.03585e-05
-3.45795e-05
-2.39702e-05
-2.00474e-05
-1.63542e-05
-1.42097e-05
-1.29295e-05
-1.23935e-05
-1.23733e-05
-1.30657e-05
-1.07183e-05
-1.01715e-05
-1.00838e-05
-1.0296e-05
-1.09387e-05
-1.21087e-05
-1.3984e-05
-1.66365e-05
-2.03973e-05
-2.41784e-05
-3.03228e-05
-3.19017e-05
-3.38946e-05
-3.59214e-05
-3.78629e-05
-3.93266e-05
-4.03188e-05
-4.08255e-05
-4.08814e-05
-4.04862e-05
-3.96058e-05
-3.82514e-05
-3.64179e-05
-3.44831e-05
-3.25653e-05
-3.11365e-05
-2.5031e-05
-2.12836e-05
-1.76143e-05
-1.51608e-05
-1.36317e-05
-1.29677e-05
-1.29299e-05
-1.37599e-05
-1.10721e-05
-1.04603e-05
-1.03709e-05
-1.06245e-05
-1.13628e-05
-1.26948e-05
-1.48037e-05
-1.77555e-05
-2.1748e-05
-2.60257e-05
-3.09737e-05
-3.35906e-05
-3.58304e-05
-3.79654e-05
-4.00819e-05
-4.16331e-05
-4.26911e-05
-4.32246e-05
-4.3284e-05
-4.28692e-05
-4.19308e-05
-4.04965e-05
-3.84957e-05
-3.64558e-05
-3.43029e-05
-3.17727e-05
-2.6872e-05
-2.26361e-05
-1.8745e-05
-1.60089e-05
-1.4278e-05
-1.35064e-05
-1.34517e-05
-1.43921e-05
-1.13794e-05
-1.07119e-05
-1.06129e-05
-1.0884e-05
-1.16696e-05
-1.30784e-05
-1.52827e-05
-1.83462e-05
-2.23836e-05
-2.68104e-05
-3.15154e-05
-3.46051e-05
-3.7114e-05
-3.93194e-05
-4.15069e-05
-4.30865e-05
-4.4168e-05
-4.47089e-05
-4.47711e-05
-4.43544e-05
-4.33978e-05
-4.19401e-05
-3.98733e-05
-3.77647e-05
-3.53435e-05
-3.23218e-05
-2.76675e-05
-2.32865e-05
-1.93596e-05
-1.65291e-05
-1.47326e-05
-1.39313e-05
-1.38921e-05
-1.49255e-05
-1.16333e-05
-1.09229e-05
-1.08145e-05
-1.10947e-05
-1.1909e-05
-1.3365e-05
-1.56267e-05
-1.87601e-05
-2.28348e-05
-2.73486e-05
-3.20147e-05
-3.53498e-05
-3.80183e-05
-4.02998e-05
-4.2543e-05
-4.41366e-05
-4.52257e-05
-4.57668e-05
-4.58316e-05
-4.54196e-05
-4.44601e-05
-4.29923e-05
-4.08735e-05
-3.86914e-05
-3.61191e-05
-3.28364e-05
-2.82215e-05
-2.37557e-05
-1.98002e-05
-1.69158e-05
-1.50875e-05
-1.42768e-05
-1.42549e-05
-1.53549e-05
-1.18282e-05
-1.10871e-05
-1.09695e-05
-1.12511e-05
-1.20779e-05
-1.35561e-05
-1.58442e-05
-1.90124e-05
-2.31111e-05
-2.76896e-05
-3.23841e-05
-3.58549e-05
-3.8625e-05
-4.09533e-05
-4.32254e-05
-4.48241e-05
-4.59157e-05
-4.64565e-05
-4.65238e-05
-4.6117e-05
-4.51588e-05
-4.36886e-05
-4.1543e-05
-3.93146e-05
-3.66403e-05
-3.32199e-05
-2.85782e-05
-2.40507e-05
-2.00786e-05
-1.71723e-05
-1.53373e-05
-1.45322e-05
-1.45291e-05
-1.56758e-05
-1.19626e-05
-1.12035e-05
-1.10801e-05
-1.13619e-05
-1.21959e-05
-1.3688e-05
-1.59948e-05
-1.91899e-05
-2.33172e-05
-2.79484e-05
-3.26882e-05
-3.62426e-05
-3.90784e-05
-4.14454e-05
-4.37433e-05
-4.5353e-05
-4.64519e-05
-4.6996e-05
-4.70666e-05
-4.66615e-05
-4.57e-05
-4.42207e-05
-4.20505e-05
-3.97836e-05
-3.70431e-05
-3.35383e-05
-2.88524e-05
-2.42743e-05
-2.02787e-05
-1.73538e-05
-1.55127e-05
-1.47108e-05
-1.47191e-05
-1.58927e-05
-1.20361e-05
-1.12713e-05
-1.11459e-05
-1.14282e-05
-1.22663e-05
-1.3767e-05
-1.60884e-05
-1.93062e-05
-2.34653e-05
-2.81401e-05
-3.29289e-05
-3.65352e-05
-3.94121e-05
-4.18124e-05
-4.41359e-05
-4.57634e-05
-4.68766e-05
-4.74283e-05
-4.7503e-05
-4.70953e-05
-4.61234e-05
-4.46283e-05
-4.24341e-05
-4.01344e-05
-3.73523e-05
-3.37947e-05
-2.906e-05
-2.44386e-05
-2.04131e-05
-1.74688e-05
-1.56184e-05
-1.48145e-05
-1.48256e-05
-1.60085e-05
-1.20492e-05
-1.12911e-05
-1.11676e-05
-1.14504e-05
-1.22893e-05
-1.37932e-05
-1.61244e-05
-1.93599e-05
-2.35539e-05
-2.82645e-05
-3.31087e-05
-3.67421e-05
-3.96363e-05
-4.20644e-05
-4.44138e-05
-4.60754e-05
-4.72063e-05
-4.77713e-05
-4.7843e-05
-4.74252e-05
-4.64407e-05
-4.49211e-05
-4.27054e-05
-4.03801e-05
-3.75803e-05
-3.39936e-05
-2.9202e-05
-2.4543e-05
-2.04817e-05
-1.75181e-05
-1.56553e-05
-1.48446e-05
-1.48502e-05
-1.60251e-05
-1.20041e-05
-1.12652e-05
-1.11471e-05
-1.14292e-05
-1.22633e-05
-1.3761e-05
-1.60922e-05
-1.93343e-05
-2.3564e-05
-2.8301e-05
-3.32261e-05
-3.68589e-05
-3.9735e-05
-4.21801e-05
-4.45463e-05
-4.62369e-05
-4.73912e-05
-4.79722e-05
-4.80494e-05
-4.76237e-05
-4.66224e-05
-4.50789e-05
-4.285e-05
-4.05106e-05
-3.7728e-05
-3.4137e-05
-2.92621e-05
-2.45735e-05
-2.04724e-05
-1.74954e-05
-1.56226e-05
-1.48036e-05
-1.47965e-05
-1.59438e-05
-1.19035e-05
-1.11957e-05
-1.10832e-05
-1.13573e-05
-1.21701e-05
-1.3635e-05
-1.59312e-05
-1.91381e-05
-2.33817e-05
-2.81285e-05
-3.32226e-05
-3.68155e-05
-3.96172e-05
-4.20435e-05
-4.43903e-05
-4.60974e-05
-4.72671e-05
-4.7864e-05
-4.79477e-05
-4.7518e-05
-4.65114e-05
-4.49602e-05
-4.27563e-05
-4.04412e-05
-3.77305e-05
-3.41682e-05
-2.91219e-05
-2.44199e-05
-2.03e-05
-1.73477e-05
-1.5493e-05
-1.46815e-05
-1.46637e-05
-1.57646e-05
-1.17549e-05
-1.10908e-05
-1.09852e-05
-1.12448e-05
-1.20203e-05
-1.34246e-05
-1.56469e-05
-1.8768e-05
-2.29996e-05
-2.76616e-05
-3.31495e-05
-3.66465e-05
-3.92351e-05
-4.16533e-05
-4.39696e-05
-4.56856e-05
-4.68595e-05
-4.74697e-05
-4.75622e-05
-4.7137e-05
-4.6142e-05
-4.45986e-05
-4.24356e-05
-4.01394e-05
-3.7621e-05
-3.41426e-05
-2.87042e-05
-2.40859e-05
-1.99726e-05
-1.70915e-05
-1.52862e-05
-1.44986e-05
-1.44694e-05
-1.54983e-05
-1.15662e-05
-1.09545e-05
-1.08489e-05
-1.10721e-05
-1.17644e-05
-1.30239e-05
-1.50295e-05
-1.78577e-05
-2.18169e-05
-2.59344e-05
-3.28263e-05
-3.63269e-05
-3.85011e-05
-4.08145e-05
-4.29725e-05
-4.46291e-05
-4.57641e-05
-4.63708e-05
-4.64754e-05
-4.60788e-05
-4.51451e-05
-4.36867e-05
-4.16978e-05
-3.95328e-05
-3.74519e-05
-3.38567e-05
-2.70325e-05
-2.29743e-05
-1.91362e-05
-1.65311e-05
-1.49113e-05
-1.42215e-05
-1.42112e-05
-1.51536e-05
-1.13552e-05
-1.08054e-05
-1.07048e-05
-1.0895e-05
-1.15054e-05
-1.26187e-05
-1.4399e-05
-1.69503e-05
-2.1021e-05
-2.56841e-05
-3.48591e-05
-3.43369e-05
-3.75687e-05
-4.05493e-05
-4.28099e-05
-4.45076e-05
-4.56415e-05
-4.62538e-05
-4.63767e-05
-4.60136e-05
-4.51176e-05
-4.36597e-05
-4.15915e-05
-3.87959e-05
-3.56071e-05
-3.58137e-05
-2.69622e-05
-2.23272e-05
-1.83583e-05
-1.59976e-05
-1.45562e-05
-1.39529e-05
-1.39457e-05
-1.4774e-05
-1.1134e-05
-1.06444e-05
-1.05365e-05
-1.06645e-05
-1.11242e-05
-1.19275e-05
-1.30524e-05
-1.41858e-05
-1.44242e-05
-7.44579e-06
-4.68082e-05
-3.9075e-05
-3.98885e-05
-4.13709e-05
-4.26731e-05
-4.36126e-05
-4.41767e-05
-4.43188e-05
-4.40458e-05
-4.33802e-05
-4.23645e-05
-4.11003e-05
-4.05518e-05
-4.82472e-05
-8.6956e-06
-1.59133e-05
-1.57696e-05
-1.47914e-05
-1.39468e-05
-1.3585e-05
-1.36454e-05
-1.43728e-05
-1.09265e-05
-1.04965e-05
-1.04017e-05
-1.05173e-05
-1.09428e-05
-1.17184e-05
-1.29173e-05
-1.4525e-05
-1.6866e-05
-2.06713e-05
-2.06458e-05
-3.26356e-05
-3.52526e-05
-3.81724e-05
-4.01997e-05
-4.18543e-05
-4.29792e-05
-4.366e-05
-4.38322e-05
-4.35042e-05
-4.27035e-05
-4.1345e-05
-3.95533e-05
-3.70752e-05
-3.44859e-05
-2.34777e-05
-2.29404e-05
-1.89531e-05
-1.64137e-05
-1.48098e-05
-1.37949e-05
-1.33805e-05
-1.33949e-05
-1.40176e-05
-1.0742e-05
-1.03627e-05
-1.02773e-05
-1.03757e-05
-1.07507e-05
-1.1448e-05
-1.25395e-05
-1.40932e-05
-1.61677e-05
-1.88508e-05
-2.36659e-05
-3.06682e-05
-3.29195e-05
-3.51732e-05
-3.69245e-05
-3.85215e-05
-3.95946e-05
-4.02755e-05
-4.04652e-05
-4.01708e-05
-3.93935e-05
-3.81748e-05
-3.65934e-05
-3.45474e-05
-3.24615e-05
-2.60898e-05
-2.10567e-05
-1.83189e-05
-1.60975e-05
-1.45155e-05
-1.35512e-05
-1.3152e-05
-1.3153e-05
-1.37032e-05
-1.0596e-05
-1.02655e-05
-1.02017e-05
-1.03069e-05
-1.06701e-05
-1.13435e-05
-1.24066e-05
-1.39491e-05
-1.60935e-05
-1.89328e-05
-2.26552e-05
-2.70999e-05
-2.9551e-05
-3.16353e-05
-3.3323e-05
-3.49409e-05
-3.60355e-05
-3.67151e-05
-3.69118e-05
-3.66485e-05
-3.59201e-05
-3.47134e-05
-3.3066e-05
-3.10543e-05
-2.88683e-05
-2.50089e-05
-2.12854e-05
-1.83543e-05
-1.6043e-05
-1.44338e-05
-1.34507e-05
-1.30216e-05
-1.29826e-05
-1.34611e-05
-1.04928e-05
-1.02104e-05
-1.01734e-05
-1.0292e-05
-1.06446e-05
-1.12792e-05
-1.22648e-05
-1.36854e-05
-1.56261e-05
-1.81783e-05
-2.11696e-05
-2.44856e-05
-2.67445e-05
-2.86861e-05
-3.03412e-05
-3.18842e-05
-3.29377e-05
-3.35893e-05
-3.37858e-05
-3.35526e-05
-3.28762e-05
-3.17584e-05
-3.01887e-05
-2.83307e-05
-2.62908e-05
-2.34694e-05
-2.05193e-05
-1.78906e-05
-1.57954e-05
-1.43005e-05
-1.33708e-05
-1.2942e-05
-1.2874e-05
-1.32862e-05
-1.04347e-05
-1.02063e-05
-1.02074e-05
-1.0355e-05
-1.0714e-05
-1.13238e-05
-1.22381e-05
-1.35194e-05
-1.52196e-05
-1.73733e-05
-1.98276e-05
-2.24786e-05
-2.46146e-05
-2.65699e-05
-2.82627e-05
-2.96951e-05
-3.07266e-05
-3.13662e-05
-3.1565e-05
-3.13457e-05
-3.06887e-05
-2.96347e-05
-2.81598e-05
-2.64003e-05
-2.44292e-05
-2.21061e-05
-1.96642e-05
-1.74347e-05
-1.56028e-05
-1.42584e-05
-1.33913e-05
-1.29577e-05
-1.28494e-05
-1.31833e-05
-1.04172e-05
-1.02508e-05
-1.02992e-05
-1.04882e-05
-1.0868e-05
-1.14699e-05
-1.23333e-05
-1.35006e-05
-1.49999e-05
-1.68421e-05
-1.89174e-05
-2.11445e-05
-2.31548e-05
-2.50455e-05
-2.66474e-05
-2.80153e-05
-2.89804e-05
-2.95724e-05
-2.97637e-05
-2.95711e-05
-2.89824e-05
-2.80119e-05
-2.66522e-05
-2.50293e-05
-2.31702e-05
-2.11391e-05
-1.90545e-05
-1.71423e-05
-1.55445e-05
-1.43359e-05
-1.35187e-05
-1.30669e-05
-1.29052e-05
-1.31451e-05
-1.04236e-05
-1.03172e-05
-1.04002e-05
-1.06265e-05
-1.10318e-05
-1.16418e-05
-1.24866e-05
-1.3595e-05
-1.4982e-05
-1.66435e-05
-1.85129e-05
-2.05109e-05
-2.24375e-05
-2.42627e-05
-2.58249e-05
-2.71242e-05
-2.80513e-05
-2.86162e-05
-2.88024e-05
-2.86198e-05