/*--------------------------------*- C++ -*----------------------------------*\
| =========                 |                                                 |
| \\      /  F ield         | OpenFOAM: The Open Source CFD Toolbox           |
|  \\    /   O peration     | Version:  2112                                  |
|   \\  /    A nd           | Website:  www.openfoam.com                      |
|    \\/     M anipulation  |                                                 |
\*---------------------------------------------------------------------------*/
FoamFile
{
    version     2.0;
    format      ascii;
    arch        "LSB;label=32;scalar=64";
    class       surfaceScalarField;
    location    "2";
    object      phi;
}
// * * * * * * * * * * * * * * * * * * * * * * * * * * * * * * * * * * * * * //

dimensions      [0 3 -1 0 0 0 0];

oriented        oriented;

internalField   nonuniform List<scalar> 
188215
(
9.80046e-10
2.29719e-09
-3.27723e-09
3.10882e-09
1.52043e-09
-3.64921e-09
5.64366e-09
8.01178e-10
-3.33601e-09
8.24444e-09
3.27438e-10
-2.92822e-09
1.07869e-08
1.60752e-10
-2.70321e-09
1.32479e-08
1.97725e-10
-2.65871e-09
1.56028e-08
3.90022e-10
-2.74495e-09
1.77697e-08
7.53187e-10
-2.92007e-09
1.96242e-08
1.30317e-09
-3.15764e-09
2.09074e-08
2.1454e-09
-3.42865e-09
2.143e-08
3.20298e-09
-3.72555e-09
2.08405e-08
4.61152e-09
-4.02207e-09
1.92908e-08
5.82902e-09
-4.27924e-09
1.68353e-08
6.92939e-09
-4.47394e-09
1.37042e-08
7.75348e-09
-4.62239e-09
1.00499e-08
8.38357e-09
-4.72919e-09
6.06466e-09
8.78772e-09
-4.80252e-09
1.91843e-09
8.99055e-09
-4.84432e-09
-2.21318e-09
8.98754e-09
-4.85593e-09
-6.15504e-09
8.77887e-09
-4.83701e-09
-9.73833e-09
8.3695e-09
-4.78621e-09
-1.2772e-08
7.73521e-09
-4.70149e-09
-1.51076e-08
6.91011e-09
-4.5746e-09
-1.65181e-08
5.81247e-09
-4.40187e-09
-1.69573e-08
4.6077e-09
-4.16851e-09
-1.62762e-08
3.22112e-09
-3.90226e-09
-1.48369e-08
2.21013e-09
-3.64943e-09
-1.28238e-08
1.43835e-09
-3.45145e-09
-1.04968e-08
1.01587e-09
-3.3429e-09
-7.9803e-09
8.83327e-10
-3.39979e-09
-5.38601e-09
1.11069e-09
-3.70497e-09
-2.87491e-09
1.76981e-09
-4.2809e-09
-8.14285e-10
2.72305e-09
-4.78368e-09
3.59925e-09
-4.41354e-09
-4.68115e-10
7.08105e-09
-4.31574e-09
1.93928e-09
7.15462e-09
-8.04158e-09
5.1082e-09
6.79564e-09
-9.16338e-09
8.20266e-09
6.68811e-09
-9.45513e-09
1.10872e-08
7.07552e-09
-9.79929e-09
1.37851e-08
7.93854e-09
-1.04387e-08
1.63299e-08
9.26116e-09
-1.14159e-08
1.8689e-08
1.11171e-08
-1.27231e-08
2.07535e-08
1.35902e-08
-1.43515e-08
2.22333e-08
1.6962e-08
-1.62964e-08
2.28846e-08
2.10524e-08
-1.85008e-08
2.22394e-08
2.61257e-08
-2.0869e-08
2.05404e-08
3.06459e-08
-2.31179e-08
1.78765e-08
3.47051e-08
-2.51118e-08
1.45183e-08
3.78722e-08
-2.67606e-08
1.0624e-08
4.03146e-08
-2.80367e-08
6.39098e-09
4.19324e-08
-2.89117e-08
1.99382e-09
4.27643e-08
-2.93766e-08
-2.38734e-09
4.27912e-08
-2.94225e-08
-6.57245e-09
4.20135e-08
-2.90495e-08
-1.03882e-08
4.04518e-08
-2.82666e-08
-1.36386e-08
3.80691e-08
-2.70834e-08
-1.61694e-08
3.49707e-08
-2.55298e-08
-1.77134e-08
3.0992e-08
-2.36356e-08
-1.81899e-08
2.65805e-08
-2.14963e-08
-1.73542e-08
2.16412e-08
-1.92558e-08
-1.56802e-08
1.77477e-08
-1.72115e-08
-1.33821e-08
1.46191e-08
-1.54789e-08
-1.07125e-08
1.24928e-08
-1.41465e-08
-7.73087e-09
1.11464e-08
-1.32448e-08
-4.46617e-09
1.05771e-08
-1.27311e-08
-1.10577e-09
1.07129e-08
-1.23035e-08
1.31504e-09
1.11502e-08
-1.08479e-08
1.08736e-08
-5.95932e-09
-1.47271e-09
1.28806e-08
-4.32688e-09
1.17277e-09
1.39035e-08
-9.39439e-09
4.87123e-09
1.42106e-08
-1.11134e-08
8.46848e-09
1.48421e-08
-1.17512e-08
1.17814e-08
1.61386e-08
-1.2376e-08
1.48822e-08
1.81567e-08
-1.3319e-08
1.78758e-08
2.09533e-08
-1.46858e-08
2.07856e-08
2.47206e-08
-1.65132e-08
2.35145e-08
2.96808e-08
-1.88194e-08
2.56477e-08
3.64488e-08
-2.16201e-08
2.67666e-08
4.47698e-08
-2.48362e-08
2.595e-08
5.52642e-08
-2.83218e-08
2.37918e-08
6.44478e-08
-3.16436e-08
2.0499e-08
7.25835e-08
-3.45856e-08
1.65026e-08
7.8883e-08
-3.70142e-08
1.19556e-08
8.37467e-08
-3.88851e-08
7.07028e-09
8.69791e-08
-4.01614e-08
2.0188e-09
8.86508e-08
-4.08351e-08
-3.01573e-09
8.87198e-08
-4.0894e-08
-7.85006e-09
8.71862e-08
-4.03384e-08
-1.23126e-08
8.40945e-08
-3.91801e-08
-1.61911e-08
7.93755e-08
-3.7428e-08
-1.93352e-08
7.32352e-08
-3.51203e-08
-2.13146e-08
6.52765e-08
-3.23051e-08
-2.19312e-08
5.63192e-08
-2.91221e-08
-2.05834e-08
4.60921e-08
-2.57987e-08
-1.82024e-08
3.81513e-08
-2.27846e-08
-1.51491e-08
3.18119e-08
-2.02461e-08
-1.17731e-08
2.74046e-08
-1.82878e-08
-8.09025e-09
2.43624e-08
-1.68988e-08
-4.08339e-09
2.25261e-08
-1.59559e-08
-2.61235e-13
2.16581e-08
-1.50283e-08
2.69241e-09
2.12248e-08
-1.27673e-08
1.96767e-08
-6.11064e-09
-1.95497e-09
1.88234e-08
-3.98775e-09
1.02358e-09
2.0555e-08
-9.62999e-09
5.33646e-09
2.14747e-08
-1.1577e-08
9.60374e-09
2.28884e-08
-1.23137e-08
1.35933e-08
2.5185e-08
-1.30359e-08
1.74247e-08
2.8457e-08
-1.41317e-08
2.13017e-08
3.28243e-08
-1.5748e-08
2.53549e-08
3.86289e-08
-1.79615e-08
2.95197e-08
4.63297e-08
-2.08137e-08
3.31388e-08
5.71828e-08
-2.43531e-08
3.53385e-08
7.10377e-08
-2.84677e-08
3.40819e-08
8.95437e-08
-3.3023e-08
3.08423e-08
1.05028e-07
-3.73401e-08
2.61589e-08
1.18411e-07
-4.11437e-08
2.07869e-08
1.28518e-07
-4.42627e-08
1.48392e-08
1.36329e-07
-4.66348e-08
8.54654e-09
1.41508e-07
-4.8236e-08
2.07796e-09
1.44193e-07
-4.90741e-08
-4.37287e-09
1.44309e-07
-4.9138e-08
-1.06116e-08
1.41853e-07
-4.84276e-08
-1.64683e-08
1.36904e-07
-4.69532e-08
-2.17089e-08
1.29323e-07
-4.47073e-08
-2.62205e-08
1.19461e-07
-4.17146e-08
-2.92426e-08
1.0634e-07
-3.80413e-08
-3.02467e-08
9.11891e-08
-3.38657e-08
-2.77437e-08
7.30668e-08
-2.94777e-08
-2.38068e-08
5.9791e-08
-2.55766e-08
-1.92105e-08
4.95351e-08
-2.23195e-08
-1.45247e-08
4.25627e-08
-1.98439e-08
-9.71997e-09
3.76597e-08
-1.81021e-08
-4.71179e-09
3.44454e-08
-1.69275e-08
2.12387e-10
3.25415e-08
-1.58076e-08
3.35828e-09
3.13111e-08
-1.32321e-08
2.88201e-08
-5.7852e-09
-2.02455e-09
2.4517e-08
-3.66912e-09
1.52337e-09
2.67993e-08
-9.79225e-09
6.66221e-09
2.8257e-08
-1.19212e-08
1.18248e-08
3.04458e-08
-1.272e-08
1.67602e-08
3.37921e-08
-1.35425e-08
2.16741e-08
3.83861e-08
-1.4843e-08
2.69376e-08
4.43757e-08
-1.68149e-08
3.29153e-08
5.22394e-08
-1.95882e-08
3.96746e-08
6.27931e-08
-2.32227e-08
4.62311e-08
7.84458e-08
-2.78195e-08
5.07044e-08
9.97543e-08
-3.31899e-08
4.83995e-08
1.31229e-07
-3.93808e-08
4.29558e-08
1.55648e-07
-4.51765e-08
3.57274e-08
1.75942e-07
-5.03031e-08
2.80011e-08
1.90743e-07
-5.4499e-08
1.9697e-08
2.02243e-07
-5.76098e-08
1.10393e-08
2.09844e-07
-5.96786e-08
2.1854e-09
2.13798e-07
-6.07507e-08
-6.65073e-09
2.13965e-07
-6.08204e-08
-1.52533e-08
2.10342e-07
-5.98872e-08
-2.34622e-08
2.03068e-07
-5.79547e-08
-3.10441e-08
1.91883e-07
-5.49773e-08
-3.80734e-08
1.77401e-07
-5.09106e-08
-4.32466e-08
1.57427e-07
-4.59138e-08
-4.52214e-08
1.3342e-07
-4.02566e-08
-4.03307e-08
1.02407e-07
-3.42311e-08
-3.33856e-08
8.19293e-08
-2.90833e-08
-2.60897e-08
6.70271e-08
-2.47879e-08
-1.9314e-08
5.73518e-08
-2.15649e-08
-1.28817e-08
5.05449e-08
-1.93175e-08
-6.50724e-09
4.592e-08
-1.7849e-08
-4.08893e-10
4.29951e-08
-1.65519e-08
3.50195e-09
4.10746e-08
-1.36744e-08
3.78209e-08
-5.49878e-09
-1.82884e-09
2.97857e-08
-3.43988e-09
2.57733e-09
3.25303e-08
-1.01372e-08
8.83252e-09
3.45055e-08
-1.25037e-08
1.51686e-08
3.75087e-08
-1.3399e-08
2.13338e-08
4.20113e-08
-1.43843e-08
2.76656e-08
4.80579e-08
-1.60036e-08
3.48026e-08
5.57469e-08
-1.85082e-08
4.35953e-08
6.5541e-08
-2.20943e-08
5.45477e-08
7.86368e-08
-2.67961e-08
6.65991e-08
9.91542e-08
-3.27598e-08
7.58636e-08
1.29946e-07
-3.94565e-08
7.11969e-08
1.83741e-07
-4.7845e-08
6.15981e-08
2.20907e-07
-5.56609e-08
5.0171e-08
2.5017e-07
-6.28003e-08
3.88745e-08
2.70741e-07
-6.87013e-08
2.70364e-08
2.86936e-07
-7.28549e-08
1.48124e-08
2.9763e-07
-7.55624e-08
2.34531e-09
3.03215e-07
-7.69502e-08
-1.01058e-08
3.03446e-07
-7.70297e-08
-2.22796e-08
2.98316e-07
-7.57998e-08
-3.4028e-08
2.88062e-07
-7.32454e-08
-4.51784e-08
2.72272e-07
-6.92389e-08
-5.63874e-08
2.52084e-07
-6.3474e-08
-6.56559e-08
2.23161e-07
-5.64657e-08
-6.98843e-08
1.86435e-07
-4.8786e-08
-6.00145e-08
1.33092e-07
-4.05543e-08
-4.75276e-08
1.03535e-07
-3.40922e-08
-3.5947e-08
8.3899e-08
-2.84526e-08
-2.61787e-08
7.17924e-08
-2.42088e-08
-1.75894e-08
6.31782e-08
-2.12225e-08
-9.43218e-09
5.70729e-08
-1.93102e-08
-1.75645e-09
5.30584e-08
-1.77391e-08
3.32835e-09
5.04346e-08
-1.44448e-08
4.64987e-08
-5.34949e-09
-1.43181e-09
3.44849e-08
-3.26737e-09
4.14316e-09
3.76509e-08
-1.06956e-08
1.18627e-08
4.01821e-08
-1.33962e-08
1.97014e-08
4.41177e-08
-1.44476e-08
2.73933e-08
4.99948e-08
-1.56754e-08
3.54225e-08
5.77679e-08
-1.77393e-08
4.47802e-08
6.73429e-08
-2.09536e-08
5.71943e-08
7.87092e-08
-2.55823e-08
7.42835e-08
9.30924e-08
-3.15449e-08
9.58991e-08
1.16419e-07
-3.88805e-08
1.15663e-07
1.56409e-07
-4.62272e-08
1.05423e-07
2.50951e-07
-5.69693e-08
8.8158e-08
3.0506e-07
-6.68879e-08
7.02914e-08
3.44854e-07
-7.68178e-08
5.40503e-08
3.72246e-07
-8.52645e-08
3.73321e-08
3.94245e-07
-9.05907e-08
2.01213e-08
4.08853e-07
-9.40119e-08
2.56777e-09
4.16517e-07
-9.57482e-08
-1.49753e-08
4.16831e-07
-9.58421e-08
-3.21519e-08
4.09784e-07
-9.42917e-08
-4.88064e-08
3.95765e-07
-9.10485e-08
-6.49293e-08
3.74286e-07
-8.58912e-08
-8.25905e-08
3.47337e-07
-7.75917e-08
-9.94753e-08
3.07845e-07
-6.77993e-08
-1.09135e-07
2.54116e-07
-5.80213e-08
-8.84183e-08
1.59795e-07
-4.74202e-08
-6.64081e-08
1.21853e-07
-4.03286e-08
-4.8639e-08
9.94663e-08
-3.33364e-08
-3.50465e-08
8.6089e-08
-2.78891e-08
-2.38705e-08
7.59523e-08
-2.395e-08
-1.35123e-08
6.81493e-08
-2.14347e-08
-3.78606e-09
6.27938e-08
-1.94616e-08
2.92093e-09
5.93079e-08
-1.55803e-08
5.47055e-08
-5.28588e-09
-7.91293e-10
3.83869e-08
-3.11066e-09
6.2924e-09
4.20037e-08
-1.14365e-08
1.59174e-08
4.51425e-08
-1.45854e-08
2.57011e-08
5.01916e-08
-1.58576e-08
3.52909e-08
5.7814e-08
-1.74089e-08
4.51937e-08
6.79037e-08
-2.00385e-08
5.65901e-08
8.00689e-08
-2.41225e-08
7.22746e-08
9.3024e-08
-2.99992e-08
9.5933e-08
1.06685e-07
-3.72514e-08
1.33276e-07
1.2514e-07
-4.60636e-08
1.76462e-07
1.63146e-07
-4.99216e-08
1.54034e-07
3.3425e-07
-6.08708e-08
1.24553e-07
4.07447e-07
-7.29053e-08
9.80697e-08
4.58376e-07
-8.70395e-08
7.54721e-08
4.94096e-07
-9.92521e-08
5.2073e-08
5.23252e-07
-1.05608e-07
2.77544e-08
5.4282e-07
-1.09648e-07
2.87562e-09
5.53076e-07
-1.1168e-07
-2.20026e-08
5.535e-07
-1.1179e-07
-4.63191e-08
5.44076e-07
-1.09976e-07
-6.97152e-08
5.25304e-07
-1.06143e-07
-9.22828e-08
4.96838e-07
-9.99838e-08
-1.18665e-07
4.61654e-07
-8.7934e-08
-1.47809e-07
4.10942e-07
-7.39526e-08
-1.6947e-07
3.37879e-07
-6.2103e-08
-1.24637e-07
1.662e-07
-5.12375e-08
-8.72037e-08
1.32055e-07
-4.76349e-08
-6.28362e-08
1.14289e-07
-3.91905e-08
-4.5709e-08
1.01499e-07
-3.25372e-08
-3.20047e-08
8.97112e-08
-2.74633e-08
-1.90811e-08
7.94339e-08
-2.42081e-08
-6.71056e-09
7.21309e-08
-2.17076e-08
2.18614e-09
6.74499e-08
-1.70387e-08
6.21164e-08
-5.22471e-09
9.88537e-11
4.1226e-08
-2.93796e-09
9.05979e-09
4.5386e-08
-1.23432e-08
2.11146e-08
4.91455e-08
-1.60579e-08
3.34132e-08
5.5502e-08
-1.7609e-08
4.54235e-08
6.53525e-08
-1.95488e-08
5.74108e-08
7.8736e-08
-2.28196e-08
7.02144e-08
9.51263e-08
-2.78609e-08
8.71837e-08
1.11115e-07
-3.50606e-08
1.14735e-07
1.2333e-07
-4.41963e-08
1.73163e-07
1.20044e-07
-5.33324e-08
2.65342e-07
1.29485e-07
-5.85188e-08
2.1601e-07
4.40853e-07
-5.72712e-08
1.68574e-07
5.23041e-07
-6.8158e-08
1.32841e-07
5.81672e-07
-8.75631e-08
1.02991e-07
6.2826e-07
-1.04313e-07
7.13112e-08
6.65858e-07
-1.10926e-07
3.77969e-08
6.91925e-07
-1.15592e-07
3.30333e-09
7.05452e-07
-1.17883e-07
-3.12042e-08
7.0601e-07
-1.18002e-07
-6.47655e-08
6.93586e-07
-1.15949e-07
-9.65443e-08
6.68588e-07
-1.11505e-07
-1.26545e-07
6.31944e-07
-1.05105e-07
-1.62456e-07
5.86083e-07
-8.85189e-08
-2.09823e-07
5.27603e-07
-6.92933e-08
-2.58139e-07
4.44844e-07
-5.86485e-08
-1.63071e-07
1.31393e-07
-6.02617e-08
-1.05525e-07
1.29617e-07
-5.51087e-08
-7.71427e-08
1.32197e-07
-4.62893e-08
-5.83595e-08
1.20594e-07
-3.78776e-08
-4.25732e-08
1.0555e-07
-3.16248e-08
-2.66227e-08
9.10609e-08
-2.75775e-08
-1.08068e-08
8.07932e-08
-2.44782e-08
9.35183e-10
7.45117e-08
-1.88039e-08
6.81758e-08
-5.12425e-09
1.01582e-09
4.28326e-08
-2.62242e-09
1.26525e-08
4.72497e-08
-1.35004e-08
2.80077e-08
5.16106e-08
-1.78203e-08
4.39713e-08
5.92404e-08
-1.9702e-08
5.99074e-08
7.15224e-08
-2.2106e-08
7.54751e-08
8.92701e-08
-2.61018e-08
8.98814e-08
1.1284e-07
-3.21195e-08
1.02692e-07
1.39505e-07
-4.11997e-08
1.1422e-07
1.63375e-07
-5.15731e-08
1.6163e-07
1.40467e-07
-6.78328e-08
3.77399e-07
-8.62835e-08
2.92431e-07
5.58874e-07
-3.30524e-08
2.28782e-07
6.23095e-07
-3.64057e-08
1.85508e-07
6.80471e-07
-5.55241e-08
1.46483e-07
7.4074e-07
-7.34555e-08
1.0166e-07
7.87305e-07
-7.66231e-08
5.34064e-08
8.20067e-07
-7.98882e-08
3.90211e-09
8.36546e-07
-8.15891e-08
-4.56252e-08
8.37221e-07
-8.16842e-08
-9.39642e-08
8.22099e-07
-8.01735e-08
-1.38996e-07
7.90692e-07
-7.70722e-08
-1.78412e-07
7.45459e-07
-7.40989e-08
-2.22427e-07
6.86395e-07
-5.6297e-08
-2.8723e-07
6.29754e-07
-3.73482e-08
-3.72019e-07
5.64133e-07
-3.45e-08
-1.51632e-07
-8.8994e-08
-1.03772e-07
1.50921e-07
-6.91646e-08
-9.23316e-08
1.74293e-07
-5.35364e-08
-7.73049e-08
1.49835e-07
-4.42685e-08
-5.90323e-08
1.23668e-07
-3.63912e-08
-3.82904e-08
1.01928e-07
-3.16088e-08
-1.71516e-08
8.75252e-08
-2.78708e-08
-9.57518e-10
7.93202e-08
-2.10026e-08
7.20582e-08
-4.83994e-09
2.19668e-09
4.2927e-08
-2.29109e-09
1.6839e-08
4.74175e-08
-1.48102e-08
3.61317e-08
5.21579e-08
-1.98399e-08
5.68187e-08
6.06808e-08
-2.21275e-08
7.8518e-08
7.49159e-08
-2.50928e-08
1.00606e-07
9.69432e-08
-2.97615e-08
1.19517e-07
1.30295e-07
-3.63663e-08
1.23766e-07
1.79171e-07
-4.39146e-08
9.7971e-08
2.49559e-07
-6.03893e-08
3.36523e-07
-9.80855e-08
1.78387e-07
3.09615e-07
7.0871e-08
2.41887e-07
5.26716e-07
3.28788e-08
2.38646e-07
6.57925e-07
2.57868e-08
1.96124e-07
7.55601e-07
2.76613e-08
1.36914e-07
8.21574e-07
2.49404e-08
7.18738e-08
8.63447e-07
2.16606e-08
4.69528e-09
8.83556e-07
2.0168e-08
-6.2512e-08
8.84256e-07
2.01729e-08
-1.2766e-07
8.65574e-07
2.16723e-08
-1.87144e-07
8.25208e-07
2.49681e-08
-2.30312e-07
7.60917e-07
2.77096e-08
-2.35077e-07
6.65239e-07
2.59211e-08
-1.74411e-07
5.36348e-07
3.27408e-08
3.20066e-07
6.96556e-08
-9.50712e-08
3.42029e-07
-9.60366e-08
-1.16583e-07
2.57744e-07
-6.19401e-08
-1.07623e-07
1.88199e-07
-4.73234e-08
-8.31089e-08
1.40478e-07
-4.13242e-08
-5.41847e-08
1.09264e-07
-3.62606e-08
-2.54778e-08
9.0806e-08
-3.19879e-08
-3.31289e-09
8.09197e-08
-2.37643e-08
7.32023e-08
-4.45696e-09
3.71904e-09
4.11649e-08
-1.95694e-09
2.19368e-08
4.54196e-08
-1.62199e-08
4.63014e-08
4.98188e-08
-2.20255e-08
7.41703e-08
5.76277e-08
-2.48158e-08
1.07276e-07
7.03976e-08
-2.85875e-08
1.49337e-07
8.94418e-08
-3.45592e-08
2.06255e-07
1.16288e-07
-4.29114e-08
2.85488e-07
1.51072e-07
-5.1134e-08
4.00505e-07
1.90759e-07
-5.62165e-08
5.52378e-07
2.28112e-07
-4.34617e-08
4.30331e-07
8.21451e-08
3.99016e-08
4.50645e-07
2.27259e-07
6.20423e-08
4.37388e-07
3.99558e-07
1.40415e-07
3.75224e-07
5.16248e-07
2.03841e-07
2.86921e-07
6.04276e-07
2.39628e-07
1.91927e-07
6.63413e-07
2.53154e-07
9.80339e-08
7.00638e-07
2.56703e-07
5.5134e-09
7.18562e-07
2.57515e-07
-8.69886e-08
7.19167e-07
2.5759e-07
-1.80823e-07
7.02473e-07
2.56935e-07
-2.75721e-07
6.66531e-07
2.53574e-07
-3.639e-07
6.0876e-07
2.40336e-07
-4.25962e-07
5.22183e-07
2.05118e-07
-4.38702e-07
4.06693e-07
1.42395e-07
-4.19444e-07
2.35421e-07
6.53871e-08
-5.47189e-07
8.4515e-08
4.32291e-08
-3.95134e-07
2.32716e-07
-4.27414e-08
-2.77219e-07
1.97659e-07
-5.78295e-08
-1.93556e-07
1.59245e-07
-5.47087e-08
-1.30365e-07
1.25874e-07
-4.85864e-08
-8.01243e-08
1.0125e-07
-4.22269e-08
-3.81391e-08
8.57178e-08
-3.6897e-08
-7.30919e-09
7.71237e-08
-2.70338e-08
6.99729e-08
-4.07982e-09
4.9679e-09
3.78432e-08
-1.6462e-09
2.6257e-08
4.16712e-08
-1.75407e-08
5.47542e-08
4.54224e-08
-2.41008e-08
8.78431e-08
5.19143e-08
-2.73755e-08
1.27952e-07
6.21852e-08
-3.1896e-08
1.79768e-07
7.67354e-08
-3.91103e-08
2.49682e-07
9.55636e-08
-4.91893e-08
3.43247e-07
1.17367e-07
-5.98605e-08
4.63427e-07
1.37209e-07
-6.66307e-08
5.99794e-07
1.50794e-07
-5.90483e-08
6.06808e-07
1.04546e-07
-2.94147e-08
6.16192e-07
1.88364e-07
2.95105e-08
5.65803e-07
2.93025e-07
1.56922e-07
4.68056e-07
3.73395e-07
2.406e-07
3.51416e-07
4.36373e-07
2.84543e-07
2.32557e-07
4.78976e-07
3.03296e-07
1.17756e-07
5.06262e-07
3.09176e-07
6.14245e-09
5.19482e-07
3.10693e-07
-1.05437e-07
5.19979e-07
3.10767e-07
-2.20129e-07
5.07759e-07
3.09405e-07
-3.38811e-07
4.81486e-07
3.03727e-07
-4.55245e-07
4.39897e-07
2.85297e-07
-5.52971e-07
3.77903e-07
2.42006e-07
-6.03742e-07
2.98262e-07
1.59202e-07
-5.95659e-07
1.93977e-07
3.33608e-08
-5.92313e-07
1.08033e-07
-2.68641e-08
-4.5682e-07
1.5573e-07
-5.85072e-08
-3.34307e-07
1.43438e-07
-6.82911e-08
-2.36131e-07
1.2479e-07
-6.3722e-08
-1.59175e-07
1.04419e-07
-5.55023e-08
-9.78885e-08
8.77458e-08
-4.77818e-08
-4.72136e-08
7.64299e-08
-4.13869e-08
-9.997e-09
6.98575e-08
-2.99505e-08
6.36843e-08
-3.70836e-09
6.03473e-09
3.31705e-08
-1.36206e-09
2.99609e-08
3.64355e-08
-1.86905e-08
6.19119e-08
3.93804e-08
-2.5909e-08
9.90849e-08
4.43282e-08
-2.9587e-08
1.44087e-07
5.19207e-08
-3.47378e-08
2.01693e-07
6.22202e-08
-4.3091e-08
2.77589e-07
7.4728e-08
-5.506e-08
3.75652e-07
8.84009e-08
-6.90967e-08
4.93846e-07
9.97263e-08
-8.07112e-08
6.169e-07
1.08963e-07
-8.12224e-08
6.78123e-07
1.01724e-07
-5.84012e-08
7.06308e-07
1.49418e-07
1.07605e-08
6.45778e-07
2.10731e-07
1.42825e-07
5.31333e-07
2.61881e-07
2.25959e-07
3.95817e-07
3.03276e-07
2.68613e-07
2.60581e-07
3.31706e-07
2.82506e-07
1.31481e-07
3.50347e-07
2.85016e-07
6.6477e-09
3.59499e-07
2.84816e-07
-1.18145e-07
3.59915e-07
2.84857e-07
-2.47121e-07
3.51591e-07
2.85145e-07
-3.82165e-07
3.33761e-07
2.82769e-07
-5.17501e-07
3.06103e-07
2.69131e-07
-6.32095e-07
2.65418e-07
2.27078e-07
-6.93431e-07
2.14782e-07
1.44817e-07
-6.67587e-07
1.53807e-07
1.43257e-08
-6.08931e-07
1.05526e-07
-5.61492e-08
-4.86265e-07
1.13641e-07
-8.05766e-08
-3.65795e-07
1.05307e-07
-8.23397e-08
-2.62899e-07
9.50221e-08
-7.3128e-08
-1.7932e-07
8.26741e-08
-6.18339e-08
-1.1116e-07
7.21015e-08
-5.25154e-08
-5.41998e-08
6.45809e-08
-4.5111e-08
-1.20359e-08
6.00201e-08
-3.23265e-08
5.49687e-08
-3.32037e-09
6.76592e-09
2.75473e-08
-1.14272e-09
3.26586e-08
3.01813e-08
-1.96385e-08
6.70763e-08
3.23582e-08
-2.73955e-08
1.06878e-07
3.59131e-08
-3.13867e-08
1.54566e-07
4.12445e-08
-3.70116e-08
2.14742e-07
4.82603e-08
-4.62162e-08
2.92592e-07
5.64589e-08
-5.95812e-08
3.91601e-07
6.52708e-08
-7.58785e-08
5.08795e-07
7.28749e-08
-9.03423e-08
6.30657e-07
8.11524e-08
-9.40522e-08
7.17903e-07
8.62306e-08
-7.17522e-08
7.57999e-07
1.15359e-07
-6.03647e-09
6.92612e-07
1.52423e-07
1.23696e-07
5.69425e-07
1.8464e-07
2.00427e-07
4.2363e-07
2.11342e-07
2.37729e-07
2.78745e-07
2.30214e-07
2.46376e-07
1.40578e-07
2.42825e-07
2.4569e-07
7.05739e-09
2.49131e-07
2.43888e-07
-1.26429e-07
2.49504e-07
2.43898e-07
-2.64494e-07
2.43934e-07
2.45722e-07
-4.09229e-07
2.32022e-07
2.46474e-07
-5.54921e-07
2.13786e-07
2.38009e-07
-6.78392e-07
1.8764e-07
2.01249e-07
-7.44822e-07
1.55829e-07
1.25383e-07
-7.0742e-07
1.19088e-07
-2.68297e-09
-6.22154e-07
8.99082e-08
-6.9649e-08
-5.00434e-07
8.54111e-08
-9.34896e-08
-3.80853e-07
7.77836e-08
-9.20566e-08
-2.76745e-07
7.10163e-08
-8.01022e-08
-1.90663e-07
6.33143e-08
-6.67227e-08
-1.19072e-07
5.67106e-08
-5.62004e-08
-5.8388e-08
5.19092e-08
-4.8012e-08
-1.30803e-08
4.8886e-08
-3.41737e-08
4.49479e-08
-3.05942e-09
7.26968e-09
2.12646e-08
-9.86932e-10
3.45993e-08
2.32357e-08
-2.03841e-08
7.07838e-08
2.47259e-08
-2.85521e-08
1.12363e-07
2.71032e-08
-3.27694e-08
1.61703e-07
3.06318e-08
-3.8727e-08
2.23258e-07
3.52266e-08
-4.8522e-08
3.01984e-07
4.05741e-08
-6.28408e-08
4.01381e-07
4.64756e-08
-8.06022e-08
5.18913e-07
5.21807e-08
-9.68374e-08
6.43153e-07
5.93256e-08
-1.02413e-07
7.42929e-07
6.68345e-08
-8.03804e-08
7.89439e-07
8.53287e-08
-1.64794e-08
7.22296e-07
1.08213e-07
1.11352e-07
5.94283e-07
1.28673e-07
1.83981e-07
4.42116e-07
1.45887e-07
2.17622e-07
2.9101e-07
1.58383e-07
2.22937e-07
1.46818e-07
1.6686e-07
2.20158e-07
7.42615e-09
1.71196e-07
2.17326e-07
-1.31944e-07
1.71555e-07
2.17319e-07
-2.7607e-07
1.67921e-07
2.20139e-07
-4.27088e-07
1.60097e-07
2.22944e-07
-5.79241e-07
1.4817e-07
2.17769e-07
-7.07655e-07
1.31421e-07
1.84632e-07
-7.75973e-07
1.11291e-07
1.12856e-07
-7.3229e-07
8.86525e-08
-1.32474e-08
-6.34218e-07
7.02335e-08
-7.8397e-08
-5.09951e-07
6.30854e-08
-1.01941e-07
-3.89873e-07
5.63699e-08
-9.86645e-08
-2.85116e-07
5.12627e-08
-8.50036e-08
-1.97714e-07
4.61829e-08
-7.02705e-08
-1.24094e-07
4.20104e-08
-5.8919e-08
-6.10225e-08
3.90117e-08
-5.01743e-08
-1.36527e-08
3.70833e-08
-3.55671e-08
3.41959e-08
-2.9007e-09
7.56972e-09
1.45959e-08
-9.01029e-10
3.58562e-08
1.58903e-08
-2.0941e-08
7.32052e-08
1.67752e-08
-2.93983e-08
1.15913e-07
1.8161e-08
-3.3766e-08
1.66252e-07
2.02283e-08
-3.99348e-08
2.28616e-07
2.29553e-08
-5.00933e-08
3.0794e-07
2.62294e-08
-6.49795e-08
4.07919e-07
3.00564e-08
-8.35592e-08
5.26588e-07
3.42514e-08
-1.0074e-07
6.53355e-07
3.97667e-08
-1.07208e-07
7.59326e-07
4.63401e-08
-8.54766e-08
8.09365e-07
5.76803e-08
-2.239e-08
7.41222e-07
7.11233e-08
1.05233e-07
6.10313e-07
8.33515e-08
1.7623e-07
4.5427e-07
9.37008e-08
2.0823e-07
2.99226e-07
1.01425e-07
2.12003e-07
1.51089e-07
1.06741e-07
2.08255e-07
7.77813e-09
1.0956e-07
2.04947e-07
-1.35528e-07
1.09927e-07
2.04934e-07
-2.83648e-07
1.07823e-07
2.08218e-07
-4.38687e-07
1.03159e-07
2.11976e-07
-5.94822e-07
9.59817e-08
2.08323e-07
-7.26247e-07
8.60398e-08
1.76807e-07
-7.95668e-07
7.40677e-08
1.06644e-07
-7.4851e-07
6.07551e-08
-1.92603e-08
-6.44114e-07
4.9439e-08
-8.36009e-08
-5.17201e-07
4.30192e-08
-1.06848e-07
-3.95844e-07
3.77118e-08
-1.02698e-07
-2.90297e-07
3.38468e-08
-8.81315e-08
-2.0197e-07
3.05041e-08
-7.26476e-08
-1.27092e-07
2.79378e-08
-6.08056e-08
-6.25371e-08
2.6169e-08
-5.17123e-08
-1.38977e-08
2.50316e-08
-3.65877e-08
2.31513e-08
-2.853e-09
7.72547e-09
7.74849e-09
-8.78071e-10
3.65747e-08
8.36043e-09
-2.13193e-08
7.46175e-08
8.68391e-09
-2.99515e-08
1.18009e-07
9.17486e-09
-3.44056e-08
1.68981e-07
9.94842e-09
-4.06918e-08
2.31926e-07
1.10587e-08
-5.10481e-08
3.11814e-07
1.2577e-08
-6.62362e-08
4.12479e-07
1.46246e-08
-8.52328e-08
5.32269e-07
1.73427e-08
-1.02881e-07
6.60813e-07
2.09781e-08
-1.09756e-07
7.69751e-07
2.55456e-08
-8.81437e-08
8.21465e-07
3.11204e-08
-2.51538e-08
7.52742e-07
3.69446e-08
1.02902e-07
6.20147e-07
4.23185e-08
1.73628e-07
4.61839e-07
4.68309e-08
2.05177e-07
3.04426e-07
5.03878e-08
2.08451e-07
1.53873e-07
5.29244e-08
2.0437e-07
8.1369e-09
5.43981e-08
2.00897e-07
-1.37615e-07
5.47951e-08
2.00884e-07
-2.88212e-07
5.40887e-08
2.04331e-07
-4.45724e-07
5.22566e-08
2.08415e-07
-6.04257e-07
4.92607e-08
2.05254e-07
-7.37512e-07
4.51192e-08
1.74175e-07
-8.07633e-07
3.99237e-08
1.04265e-07
-7.58854e-07
3.40817e-08
-2.21055e-08
-6.51434e-07
2.83876e-08
-8.63687e-08
-5.22668e-07
2.37629e-08
-1.0951e-07
-4.0009e-07
2.01061e-08
-1.04972e-07
-2.93711e-07
1.74294e-08
-8.99617e-08
-2.04611e-07
1.55026e-08
-7.40985e-08
-1.28878e-07
1.42024e-08
-6.19976e-08
-6.34023e-08
1.34054e-08
-5.27118e-08
-1.40095e-08
1.29181e-08
-3.72794e-08
1.20225e-08
-2.88073e-09
7.75563e-09
9.10075e-10
-9.17212e-10
3.68056e-08
8.37265e-10
-2.15268e-08
7.51159e-08
5.98643e-10
-3.0225e-08
1.18806e-07
1.92626e-10
-3.47081e-08
1.7012e-07
-3.33527e-10
-4.10313e-08
2.33481e-07
-8.55153e-10
-5.14479e-08
3.13904e-07
-1.12102e-09
-6.67249e-08
4.15255e-07
-8.89297e-10
-8.58364e-08
5.35902e-07
3.02903e-10
-1.03607e-07
6.65345e-07
2.12982e-09
-1.10595e-07
7.75051e-07
4.86675e-09
-8.90265e-08
8.27007e-07
5.12151e-09
-2.59578e-08
7.57916e-07
3.51678e-09
1.02519e-07
6.24566e-07
2.13584e-09
1.73533e-07
4.65338e-07
8.37205e-10
2.05221e-07
3.06934e-07
2.45378e-10
2.08546e-07
1.55325e-07
7.2466e-11
2.04461e-07
8.52276e-09
2.04421e-10
2.00996e-07
-1.38325e-07
6.60474e-10
2.00982e-07
-2.90037e-07
1.37688e-09
2.04424e-07
-4.48685e-07
2.41765e-09
2.08487e-07
-6.08315e-07
3.6189e-09
2.05272e-07
-7.42512e-07
5.27184e-09
1.74045e-07
-8.13168e-07
6.7516e-09
1.03828e-07
-7.64224e-07
8.14365e-09
-2.30063e-08
-6.5602e-07
7.5524e-09
-8.73684e-08
-5.26312e-07
4.53757e-09
-1.10483e-07
-4.0283e-07
2.46817e-09
-1.05845e-07
-2.95689e-07
1.00226e-09
-9.0714e-08
-2.05963e-07
5.22564e-10
-7.47461e-08
-1.29701e-07
5.10616e-10
-6.25699e-08
-6.37676e-08
6.94816e-10
-5.32226e-08
-1.40418e-08
8.61265e-10
-3.7669e-08
9.55892e-10
-2.97513e-09
7.66054e-09
-5.73108e-09
-1.01939e-09
3.65488e-08
-6.48486e-09
-2.15661e-08
7.46988e-08
-7.32887e-09
-3.02225e-08
1.18298e-07
-8.72688e-09
-3.46795e-08
1.69653e-07
-1.07262e-08
-4.09625e-08
2.3326e-07
-1.3155e-08
-5.1307e-08
3.14186e-07
-1.55782e-08
-6.64687e-08
4.16254e-07
-1.75496e-08
-8.54085e-08
5.37511e-07
-1.7965e-08
-1.02989e-07
6.67097e-07
-1.76613e-08
-1.09795e-07
7.75499e-07
-1.53123e-08
-8.82229e-08
8.26206e-07
-2.05935e-08
-2.49918e-08
7.56882e-07
-3.09629e-08
1.03804e-07
6.23664e-07
-4.01901e-08
1.75543e-07
4.64824e-07
-4.81687e-08
2.07847e-07
3.06749e-07
-5.33722e-08
2.11693e-07
1.55505e-07
-5.66315e-08
2.07948e-07
8.9711e-09
-5.78744e-08
2.04612e-07
-1.37641e-07
-5.73228e-08
2.04595e-07
-2.89147e-07
-5.50088e-08
2.07892e-07
-4.47598e-07
-5.07859e-08
2.11654e-07
-6.07054e-07
-4.48197e-08
2.07894e-07
-7.41359e-07
-3.64285e-08
1.76006e-07
-8.12488e-07
-2.71344e-08
1.05015e-07
-7.64933e-07
-1.72141e-08
-2.21969e-08
-6.58046e-07
-1.26066e-08
-8.6728e-08
-5.28177e-07
-1.54802e-08
-1.09851e-07
-4.04044e-07
-1.62843e-08
-1.0538e-07
-2.9621e-07
-1.63933e-08
-9.04387e-08
-2.0602e-07
-1.50407e-08
-7.4627e-08
-1.2956e-07
-1.34033e-08
-6.25464e-08
-6.36297e-08
-1.19753e-08
-5.32599e-08
-1.39921e-08
-1.10097e-08
-3.77666e-08
-9.89666e-09
-3.1395e-09
7.42083e-09
-1.19623e-08
-1.18963e-09
3.57544e-08
-1.33834e-08
-2.1435e-08
7.32699e-08
-1.49055e-08
-2.99389e-08
1.16319e-07
-1.74663e-08
-3.43101e-08
1.67323e-07
-2.12629e-08
-4.04667e-08
2.30902e-07
-2.61474e-08
-5.05866e-08
3.1225e-07
-3.15386e-08
-6.53881e-08
4.15144e-07
-3.66586e-08
-8.37847e-08
5.37184e-07
-3.92818e-08
-1.00724e-07
6.66556e-07
-4.00998e-08
-1.06933e-07
7.70842e-07
-3.43544e-08
-8.5244e-08
8.18079e-07
-4.64047e-08
-2.1426e-08
7.48665e-07
-6.96081e-08
1.08059e-07
6.16683e-07
-8.98483e-08
1.81641e-07
4.59834e-07
-1.06934e-07
2.15614e-07
3.0369e-07
-1.18167e-07
2.2094e-07
1.54277e-07
-1.25279e-07
2.1806e-07
9.50106e-09
-1.28242e-07
2.15143e-07
-1.35393e-07
-1.27533e-07
2.15105e-07
-2.85166e-07
-1.23179e-07
2.17943e-07
-4.41904e-07
-1.14818e-07
2.2077e-07
-5.9967e-07
-1.02538e-07
2.15484e-07
-7.33091e-07
-8.48887e-08
1.81881e-07
-8.04684e-07
-6.45583e-08
1.09017e-07
-7.60789e-07
-4.21883e-08
-1.89205e-08
-6.58e-07
-3.13906e-08
-8.40048e-08
-5.28325e-07
-3.79033e-08
-1.07252e-07
-4.03446e-07
-3.78102e-08
-1.03353e-07
-2.94863e-07
-3.59744e-08
-8.90021e-08
-2.04399e-07
-3.18341e-08
-7.36704e-08
-1.28182e-07
-2.77316e-08
-6.18887e-08
-6.2835e-08
-2.45209e-08
-5.28018e-08
-1.38018e-08
-2.24781e-08
-3.75648e-08
-2.03062e-08
-3.39226e-09
6.98012e-09
-1.75052e-08
-1.43719e-09
3.42842e-08
-1.95577e-08
-2.11297e-08
7.05622e-08
-2.18178e-08
-2.93657e-08
1.12395e-07
-2.57161e-08
-3.35829e-08
1.62344e-07
-3.17087e-08
-3.95038e-08
2.25238e-07
-3.98487e-08
-4.91925e-08
3.06621e-07
-4.96425e-08
-6.32792e-08
4.105e-07
-5.99983e-08
-8.05393e-08
5.34365e-07
-6.70583e-08
-9.60878e-08
6.6449e-07
-6.94201e-08
-1.00805e-07
7.59565e-07
-5.03068e-08
-7.91221e-08
7.99498e-07
-7.21369e-08
-1.42007e-08
7.30093e-07
-1.17134e-07
1.16931e-07
6.01093e-07
-1.55084e-07
1.94236e-07
4.48719e-07
-1.86061e-07
2.315e-07
2.96788e-07
-2.06078e-07
2.39842e-07
1.51282e-07
-2.18567e-07
2.38794e-07
1.01769e-08
-2.23878e-07
2.36742e-07
-1.31087e-07
-2.22922e-07
2.36652e-07
-2.77083e-07
-2.15703e-07
2.3852e-07
-4.29848e-07
-2.01454e-07
2.39401e-07
-5.83531e-07
-1.79847e-07
2.30992e-07
-7.14461e-07
-1.4797e-07
1.9401e-07
-7.86655e-07
-1.09755e-07
1.17391e-07
-7.50388e-07
-6.62461e-08
-1.22091e-08
-6.56652e-07
-4.68377e-08
-7.82887e-08
-5.26178e-07
-6.68269e-08
-1.01551e-07
-3.99545e-07
-6.53622e-08
-9.90802e-08
-2.90139e-07
-5.93626e-08
-8.60185e-08
-1.99917e-07
-5.03612e-08
-7.16949e-08
-1.24778e-07
-4.23659e-08
-6.05042e-08
-6.09317e-08
-3.65731e-08
-5.17943e-08
-1.32831e-08
-3.30861e-08
-3.70407e-08
-2.98134e-08
-3.77588e-09
6.32815e-09
-2.20774e-08
-1.756e-09
3.20984e-08
-2.46843e-08
-2.06437e-08
6.64625e-08
-2.76873e-08
-2.84946e-08
1.06233e-07
-3.30042e-08
-3.24824e-08
1.54056e-07
-4.14851e-08
-3.8046e-08
2.14938e-07
-5.36551e-08
-4.70763e-08
2.9498e-07
-6.96207e-08
-6.00631e-08
3.98879e-07
-8.84018e-08
-7.54957e-08
5.25725e-07
-1.05173e-07
-8.87317e-08
6.61538e-07
-1.14238e-07
-9.09955e-08
7.37228e-07
-5.76226e-08
-6.83743e-08
7.62099e-07
-9.55614e-08
-1.44688e-09
6.95123e-07
-1.80914e-07
1.30756e-07
5.73046e-07
-2.45982e-07
2.12975e-07
4.2904e-07
-2.96668e-07
2.54613e-07
2.84641e-07
-3.29125e-07
2.67445e-07
1.45913e-07
-3.48878e-07
2.69039e-07
1.10909e-08
-3.57313e-07
2.68256e-07
-1.23922e-07
-3.55981e-07
2.68072e-07
-2.63262e-07
-3.44839e-07
2.68477e-07
-4.08747e-07
-3.22486e-07
2.66517e-07
-5.54569e-07
-2.87469e-07
2.53445e-07
-6.7928e-07
-2.35223e-07
2.11964e-07
-7.50106e-07
-1.69358e-07
1.30429e-07
-7.29556e-07
-8.67868e-08
-8.71589e-12
-6.54584e-07
-5.36963e-08
-6.81133e-08
-5.18367e-07
-1.10595e-07
-9.24496e-08
-3.88903e-07
-1.0254e-07
-9.22859e-08
-2.79716e-07
-8.72042e-08
-8.13454e-08
-1.91218e-07
-7.02396e-08
-6.862e-08
-1.18643e-07
-5.66243e-08
-5.83167e-08
-5.75956e-08
-4.74568e-08
-5.01638e-08
-1.23389e-08
-4.22046e-08
-3.61382e-08
-3.78724e-08
-4.27997e-09
5.3624e-09
-2.52902e-08
-2.14952e-09
2.89671e-08
-2.83025e-08
-1.99865e-08
6.04735e-08
-3.18475e-08
-2.73463e-08
9.67578e-08
-3.82606e-08
-3.10279e-08
1.4023e-07
-4.88616e-08
-3.60955e-08
1.95738e-07
-6.49612e-08
-4.42022e-08
2.69959e-07
-8.82154e-08
-5.56264e-08
3.69311e-07
-1.196e-07
-6.81539e-08
4.98699e-07
-1.5733e-07
-7.72308e-08
6.56049e-07
-1.99688e-07
-7.19001e-08
6.92612e-07
-5.01884e-08
-4.39971e-08
6.86452e-07
-1.02616e-07
1.3215e-08
6.27815e-07