/*--------------------------------*- C++ -*----------------------------------*\
| =========                 |                                                 |
| \\      /  F ield         | OpenFOAM: The Open Source CFD Toolbox           |
|  \\    /   O peration     | Version:  2112                                  |
|   \\  /    A nd           | Website:  www.openfoam.com                      |
|    \\/     M anipulation  |                                                 |
\*---------------------------------------------------------------------------*/
FoamFile
{
    version     2.0;
    format      ascii;
    arch        "LSB;label=32;scalar=64";
    class       volVectorField;
    location    "2";
    object      U;
}
// * * * * * * * * * * * * * * * * * * * * * * * * * * * * * * * * * * * * * //

dimensions      [0 1 -1 0 0 0 0];

internalField   nonuniform List<vector> 
64906
(
(3.62248e-07 1.23847e-06 -1.99845e-06)
(2.72259e-06 4.87567e-08 -2.04789e-06)
(6.27816e-06 -1.00349e-06 -1.60361e-06)
(9.98413e-06 -1.79545e-06 -1.1451e-06)
(1.36934e-05 -2.25009e-06 -8.46203e-07)
(1.72897e-05 -2.46755e-06 -6.74273e-07)
(2.07624e-05 -2.54351e-06 -5.70141e-07)
(2.40253e-05 -2.51068e-06 -4.88767e-07)
(2.69677e-05 -2.38702e-06 -4.10803e-07)
(2.92653e-05 -2.08259e-06 -3.03082e-07)
(3.06607e-05 -1.67985e-06 -1.88939e-07)
(3.06494e-05 -1.01645e-06 -3.85116e-08)
(2.90704e-05 -5.10495e-07 1.17211e-07)
(2.61706e-05 -4.43796e-08 3.01715e-07)
(2.21011e-05 2.6021e-07 4.64122e-07)
(1.71874e-05 4.89598e-07 6.02771e-07)
(1.1646e-05 6.20471e-07 6.9639e-07)
(5.75739e-06 6.80555e-07 7.43829e-07)
(-2.41951e-07 6.67346e-07 7.4058e-07)
(-6.08937e-06 5.80938e-07 6.87137e-07)
(-1.15486e-05 4.23869e-07 5.8801e-07)
(-1.63407e-05 1.68499e-07 4.44455e-07)
(-2.02541e-05 -1.60389e-07 2.78208e-07)
(-2.29662e-05 -6.49595e-07 9.02949e-08)
(-2.43369e-05 -1.17264e-06 -6.85384e-08)
(-2.41239e-05 -1.84889e-06 -2.2544e-07)
(-2.25009e-05 -2.24464e-06 -3.53386e-07)
(-1.99785e-05 -2.51748e-06 -4.94672e-07)
(-1.68057e-05 -2.54051e-06 -6.47418e-07)
(-1.33107e-05 -2.33246e-06 -8.88581e-07)
(-9.61075e-06 -1.76461e-06 -1.30298e-06)
(-5.92004e-06 -7.29332e-07 -1.9551e-06)
(-2.45857e-06 6.42952e-07 -2.63119e-06)
(-1.23416e-07 2.02962e-06 -2.68288e-06)
(-1.4033e-06 6.0794e-06 -2.65595e-06)
(3.73018e-07 5.15195e-06 -6.36575e-06)
(5.11007e-06 4.0544e-06 -7.37716e-06)
(9.60753e-06 3.31435e-06 -7.53924e-06)
(1.39009e-05 3.1851e-06 -7.75687e-06)
(1.78957e-05 3.59037e-06 -8.23295e-06)
(2.16721e-05 4.44548e-06 -8.98394e-06)
(2.52013e-05 5.77122e-06 -9.99068e-06)
(2.84619e-05 7.6119e-06 -1.12431e-05)
(3.10599e-05 1.02161e-05 -1.27364e-05)
(3.2765e-05 1.33988e-05 -1.4438e-05)
(3.28199e-05 1.74234e-05 -1.62698e-05)
(3.10417e-05 2.09701e-05 -1.80135e-05)
(2.78815e-05 2.41586e-05 -1.95536e-05)
(2.34667e-05 2.66069e-05 -2.0829e-05)
(1.82155e-05 2.84841e-05 -2.1816e-05)
(1.2306e-05 2.97109e-05 -2.24944e-05)
(6.05179e-06 3.03347e-05 -2.28552e-05)
(-3.2062e-07 3.03426e-05 -2.28914e-05)
(-6.52887e-06 2.97351e-05 -2.26029e-05)
(-1.23475e-05 2.85262e-05 -2.1997e-05)
(-1.74639e-05 2.66698e-05 -2.10832e-05)
(-2.17057e-05 2.42506e-05 -1.98826e-05)
(-2.4656e-05 2.1101e-05 -1.84212e-05)
(-2.62014e-05 1.76183e-05 -1.67633e-05)
(-2.58892e-05 1.36809e-05 -1.50317e-05)
(-2.39119e-05 1.06463e-05 -1.34553e-05)
(-2.10134e-05 8.24863e-06 -1.21299e-05)
(-1.73671e-05 6.75057e-06 -1.11175e-05)
(-1.33146e-05 6.00505e-06 -1.04564e-05)
(-8.8175e-06 6.10697e-06 -1.01306e-05)
(-4.05364e-06 7.07131e-06 -9.88701e-06)
(9.00611e-07 8.46832e-06 -8.58314e-06)
(2.30037e-06 9.3986e-06 -3.69473e-06)
(-2.48124e-06 1.43208e-05 -2.48578e-06)
(-1.09251e-06 1.51816e-05 -7.5685e-06)
(4.42375e-06 1.51986e-05 -9.14046e-06)
(9.64312e-06 1.55894e-05 -9.58471e-06)
(1.45999e-05 1.67959e-05 -1.0026e-05)
(1.91718e-05 1.88566e-05 -1.07499e-05)
(2.35492e-05 2.18063e-05 -1.1826e-05)
(2.77723e-05 2.58305e-05 -1.32704e-05)
(3.19429e-05 3.11308e-05 -1.50933e-05)
(3.54911e-05 3.82895e-05 -1.7309e-05)
(3.81708e-05 4.69717e-05 -1.98664e-05)
(3.84651e-05 5.76875e-05 -2.26422e-05)
(3.61055e-05 6.72241e-05 -2.52949e-05)
(3.21574e-05 7.5752e-05 -2.76367e-05)
(2.67855e-05 8.24171e-05 -2.95712e-05)
(2.06174e-05 8.75624e-05 -3.10615e-05)
(1.37544e-05 9.09837e-05 -3.20801e-05)
(6.56203e-06 9.27497e-05 -3.26187e-05)
(-7.59271e-07 9.28184e-05 -3.26662e-05)
(-7.90275e-06 9.11905e-05 -3.22226e-05)
(-1.4669e-05 8.79111e-05 -3.12989e-05)
(-2.06907e-05 8.29138e-05 -2.99045e-05)
(-2.58722e-05 7.64146e-05 -2.80674e-05)
(-2.95812e-05 6.80751e-05 -2.58281e-05)
(-3.16707e-05 5.87821e-05 -2.3287e-05)
(-3.10619e-05 4.83586e-05 -2.06418e-05)
(-2.80402e-05 4.00897e-05 -1.82466e-05)
(-2.40959e-05 3.34183e-05 -1.62446e-05)
(-1.93671e-05 2.87703e-05 -1.47128e-05)
(-1.43364e-05 2.56384e-05 -1.36551e-05)
(-8.80634e-06 2.39143e-05 -1.29866e-05)
(-3.01761e-06 2.33659e-05 -1.23341e-05)
(2.97664e-06 2.32925e-05 -1.02784e-05)
(3.78751e-06 2.18867e-05 -3.57058e-06)
(-3.08343e-06 2.28097e-05 -2.10611e-06)
(-1.70473e-06 2.48161e-05 -7.67016e-06)
(4.65767e-06 2.57127e-05 -9.40263e-06)
(1.07898e-05 2.71797e-05 -9.88296e-06)
(1.67099e-05 2.97433e-05 -1.03632e-05)
(2.22663e-05 3.35187e-05 -1.11731e-05)
(2.77845e-05 3.86398e-05 -1.24129e-05)
(3.34105e-05 4.54889e-05 -1.41301e-05)
(3.94977e-05 5.45276e-05 -1.63518e-05)
(4.5136e-05 6.69887e-05 -1.91233e-05)
(5.00657e-05 8.24847e-05 -2.23655e-05)
(5.08798e-05 0.000102335 -2.59644e-05)
(4.71057e-05 0.000119444 -2.93843e-05)
(4.13734e-05 0.000134461 -3.23805e-05)
(3.39286e-05 0.000145986 -3.48357e-05)
(2.57987e-05 0.000154882 -3.66988e-05)
(1.68906e-05 0.00016079 -3.7959e-05)
(7.67285e-06 0.00016385 -3.862e-05)
(-1.70023e-06 0.000163982 -3.86706e-05)
(-1.08664e-05 0.000161184 -3.81106e-05)
(-1.9672e-05 0.000155541 -3.69506e-05)
(-2.76412e-05 0.000146916 -3.51875e-05)
(-3.48719e-05 0.000135684 -3.28322e-05)
(-4.0319e-05 0.000120987 -2.99394e-05)
(-4.37628e-05 0.000104285 -2.66307e-05)
(-4.25354e-05 8.49072e-05 -2.31638e-05)
(-3.71582e-05 7.00919e-05 -2.00901e-05)
(-3.1009e-05 5.837e-05 -1.7547e-05)
(-2.41671e-05 5.02548e-05 -1.56407e-05)
(-1.7447e-05 4.45758e-05 -1.43448e-05)
(-1.03978e-05 4.09644e-05 -1.35429e-05)
(-3.29913e-06 3.89735e-05 -1.27966e-05)
(3.83737e-06 3.77607e-05 -1.05243e-05)
(4.61743e-06 3.4839e-05 -3.15004e-06)
(-3.33562e-06 3.12189e-05 -1.76047e-06)
(-1.5742e-06 3.41315e-05 -7.73609e-06)
(5.97467e-06 3.58422e-05 -9.60009e-06)
(1.33291e-05 3.84178e-05 -1.00889e-05)
(2.05623e-05 4.24439e-05 -1.06137e-05)
(2.75352e-05 4.80614e-05 -1.15585e-05)
(3.47894e-05 5.54767e-05 -1.30595e-05)
(4.26785e-05 6.52954e-05 -1.52135e-05)
(5.21009e-05 7.84024e-05 -1.80617e-05)
(6.16389e-05 9.72488e-05 -2.17058e-05)
(7.12454e-05 0.000121874 -2.59941e-05)
(7.30663e-05 0.000155914 -3.09693e-05)
(6.61782e-05 0.000183608 -3.56299e-05)
(5.70432e-05 0.000207216 -3.97214e-05)
(4.59459e-05 0.000224804 -4.30647e-05)
(3.45215e-05 0.000238414 -4.55254e-05)
(2.21738e-05 0.000247425 -4.71673e-05)
(9.55436e-06 0.000252104 -4.80197e-05)
(-3.27333e-06 0.000252305 -4.80746e-05)
(-1.58404e-05 0.000248025 -4.73313e-05)
(-2.80833e-05 0.000239411 -4.57963e-05)
(-3.93349e-05 0.000226193 -4.34405e-05)
(-5.01943e-05 0.000209014 -4.01984e-05)
(-5.89832e-05 0.000185833 -3.62085e-05)
(-6.54603e-05 0.000158682 -3.16544e-05)
(-6.30688e-05 0.000125258 -2.68071e-05)
(-5.28742e-05 0.000101623 -2.26914e-05)
(-4.27243e-05 8.37463e-05 -1.92898e-05)
(-3.23495e-05 7.17988e-05 -1.67861e-05)
(-2.30807e-05 6.33919e-05 -1.51047e-05)
(-1.39078e-05 5.77815e-05 -1.4109e-05)
(-5.04367e-06 5.43299e-05 -1.32762e-05)
(3.7199e-06 5.20724e-05 -1.0784e-05)
(5.00811e-06 4.7928e-05 -2.7727e-06)
(-3.41771e-06 3.91227e-05 -1.48285e-06)
(-9.07225e-07 4.27538e-05 -7.97819e-06)
(8.30085e-06 4.52053e-05 -1.00371e-05)
(1.72838e-05 4.88976e-05 -1.05681e-05)
(2.62305e-05 5.44737e-05 -1.11949e-05)
(3.50494e-05 6.20437e-05 -1.23807e-05)
(4.45986e-05 7.18165e-05 -1.43124e-05)
(5.56216e-05 8.45512e-05 -1.71608e-05)
(7.01427e-05 0.000101721 -2.09433e-05)
(8.63203e-05 0.000127924 -2.58238e-05)
(0.000105431 0.000164693 -3.12755e-05)
(0.000109297 0.000222652 -3.82491e-05)
(9.58888e-05 0.000265458 -4.47602e-05)
(8.08584e-05 0.000300282 -5.06659e-05)
(6.40107e-05 0.000325244 -5.55372e-05)
(4.76958e-05 0.000344705 -5.89085e-05)
(3.01593e-05 0.000357549 -6.11184e-05)
(1.24032e-05 0.000364244 -6.22522e-05)
(-5.66337e-06 0.000364526 -6.23155e-05)
(-2.33718e-05 0.000358387 -6.13071e-05)
(-4.08133e-05 0.000346087 -5.92185e-05)
(-5.6958e-05 0.00032714 -5.59641e-05)
(-7.35619e-05 0.000302685 -5.11999e-05)
(-8.81851e-05 0.000268348 -4.53969e-05)
(-0.000101096 0.000226177 -3.89887e-05)
(-9.6399e-05 0.000168895 -3.21309e-05)
(-7.65096e-05 0.000133562 -2.68579e-05)
(-5.96756e-05 0.000108536 -2.22372e-05)
(-4.40012e-05 9.27191e-05 -1.8837e-05)
(-3.12803e-05 8.16021e-05 -1.65284e-05)
(-1.93344e-05 7.39505e-05 -1.51916e-05)
(-8.12483e-06 6.90309e-05 -1.41788e-05)
(2.92952e-06 6.58112e-05 -1.13438e-05)
(5.20818e-06 6.0653e-05 -2.48958e-06)
(-3.41069e-06 4.63303e-05 -1.22685e-06)
(1.88977e-07 5.06106e-05 -8.40398e-06)
(1.16178e-05 5.38335e-05 -1.07522e-05)
(2.27179e-05 5.87758e-05 -1.1377e-05)
(3.38323e-05 6.6158e-05 -1.21764e-05)
(4.49086e-05 7.59914e-05 -1.37223e-05)
(5.71685e-05 8.83269e-05 -1.62672e-05)
(7.19605e-05 0.000103657 -2.00821e-05)
(9.34335e-05 0.000123912 -2.50889e-05)
(0.000119756 0.000156098 -3.13648e-05)
(0.000158007 0.000207269 -3.74912e-05)
(0.000166279 0.000307281 -4.69178e-05)
(0.000138934 0.000371176 -5.55504e-05)
(0.000114243 0.000420567 -6.4157e-05)
(8.91044e-05 0.000454881 -7.14623e-05)
(6.61697e-05 0.000482132 -7.59203e-05)
(4.13751e-05 0.000500147 -7.88224e-05)
(1.64166e-05 0.00050957 -8.02929e-05)
(-9.03909e-06 0.000509955 -8.03695e-05)
(-3.39646e-05 0.000501289 -7.90505e-05)
(-5.8697e-05 0.000484002 -7.6293e-05)
(-8.14987e-05 0.000457407 -7.19728e-05)
(-0.000106438 0.000423687 -6.47857e-05)
(-0.000130687 0.000374775 -5.62885e-05)
(-0.000157487 0.000311499 -4.7761e-05)
(-0.000147919 0.000212027 -3.84274e-05)
(-0.000108604 0.000163097 -3.24961e-05)
(-8.17523e-05 0.000132222 -2.64914e-05)
(-5.89204e-05 0.000113436 -2.19111e-05)
(-4.20412e-05 9.98669e-05 -1.87145e-05)
(-2.67432e-05 8.99613e-05 -1.68687e-05)
(-1.2548e-05 8.3328e-05 -1.55537e-05)
(1.59195e-06 7.89984e-05 -1.22082e-05)
(5.32571e-06 7.28524e-05 -2.23473e-06)
(-3.31667e-06 5.25587e-05 -9.46274e-07)
(1.75232e-06 5.74704e-05 -8.98137e-06)
(1.6087e-05 6.15142e-05 -1.17192e-05)
(2.99491e-05 6.78838e-05 -1.24891e-05)
(4.38398e-05 7.74089e-05 -1.35333e-05)
(5.76285e-05 8.99447e-05 -1.5564e-05)
(7.26254e-05 0.000105141 -1.89146e-05)
(9.0729e-05 0.00012241 -2.40129e-05)
(0.000118583 0.000142946 -3.04758e-05)
(0.000157273 0.000177622 -3.86912e-05)
(0.000233975 0.00023946 -4.08752e-05)
(0.000252975 0.000417928 -5.10789e-05)
(0.000197866 0.000506619 -6.24674e-05)
(0.000159965 0.000570926 -7.55708e-05)
(0.000124146 0.000615132 -8.67654e-05)
(9.25474e-05 0.000650822 -9.22586e-05)
(5.74863e-05 0.000674637 -9.58278e-05)
(2.21857e-05 0.000687164 -9.7611e-05)
(-1.39259e-05 0.000687685 -9.77036e-05)
(-4.92214e-05 0.00067618 -9.61038e-05)
(-8.42884e-05 0.000653337 -9.27083e-05)
(-0.000115856 0.000618492 -8.73822e-05)
(-0.000151632 0.00057497 -7.63235e-05)
(-0.000189179 0.000511032 -6.3347e-05)
(-0.000243896 0.000422844 -5.21097e-05)
(-0.00022266 0.000244361 -4.19108e-05)
(-0.000144428 0.000186504 -3.99265e-05)
(-0.00010576 0.000152989 -3.19962e-05)
(-7.62704e-05 0.000133847 -2.60262e-05)
(-5.55635e-05 0.000118323 -2.16438e-05)
(-3.66603e-05 0.000105771 -1.91168e-05)
(-1.87323e-05 9.69767e-05 -1.73736e-05)
(-4.6377e-07 9.12659e-05 -1.33253e-05)
(5.32863e-06 8.41413e-05 -1.92036e-06)
(-3.093e-06 5.74894e-05 -5.96237e-07)
(3.84119e-06 6.31609e-05 -9.71265e-06)
(2.18041e-05 6.81417e-05 -1.29254e-05)
(3.92237e-05 7.63402e-05 -1.38797e-05)
(5.67083e-05 8.88514e-05 -1.52206e-05)
(7.38659e-05 0.000105555 -1.78073e-05)
(9.1491e-05 0.000125726 -2.20769e-05)
(0.000110985 0.000145938 -2.86321e-05)
(0.000142509 0.000165539 -3.75501e-05)
(0.000186077 0.000188878 -4.65196e-05)
(0.000334825 0.000205679 -5.13305e-05)
(0.000379819 0.000536725 -4.93843e-05)
(0.000266511 0.000658946 -6.07224e-05)
(0.000215851 0.000743295 -8.0239e-05)
(0.000168949 0.000802888 -9.63848e-05)
(0.00012679 0.000852028 -0.000102467)
(7.86369e-05 0.000885098 -0.000106886)
(2.98092e-05 0.000902308 -0.000109007)
(-2.03233e-05 0.000903005 -0.000109111)
(-6.91873e-05 0.000887167 -0.000107198)
(-0.000117452 0.000855419 -0.000102971)
(-0.000159769 0.000807432 -9.70769e-05)
(-0.000206985 0.00074872 -8.10737e-05)
(-0.00025755 0.000664673 -6.1721e-05)
(-0.000371197 0.000542543 -5.05851e-05)
(-0.000322084 0.000208922 -5.28097e-05)
(-0.000171122 0.000199293 -4.79777e-05)
(-0.00012917 0.000177066 -3.91945e-05)
(-9.54479e-05 0.000158787 -3.0873e-05)
(-7.26217e-05 0.000140191 -2.51556e-05)
(-4.99115e-05 0.000122791 -2.1868e-05)
(-2.72204e-05 0.000110357 -1.96364e-05)
(-3.47336e-06 0.000102529 -1.46961e-05)
(5.17666e-06 9.40388e-05 -1.51192e-06)
(-2.54649e-06 6.07453e-05 -9.06388e-08)
(6.7674e-06 6.70036e-05 -1.06338e-05)
(2.92598e-05 7.28616e-05 -1.43647e-05)
(5.16534e-05 8.28849e-05 -1.55359e-05)
(7.46239e-05 9.86029e-05 -1.72254e-05)
(9.75725e-05 0.000120308 -2.0426e-05)
(0.000119239 0.000147082 -2.5595e-05)
(0.00014018 0.000172413 -3.429e-05)
(0.00016308 0.00018371 -4.4602e-05)
(0.000134007 0.000119898 -6.49226e-05)
(0.000405305 0.000198641 -7.06041e-05)
(0.000553817 0.000782204 -2.75753e-05)
(0.000350312 0.000859163 -3.55218e-05)
(0.000298231 0.000925619 -5.74084e-05)
(0.000239578 0.00099516 -7.5996e-05)
(0.000180935 0.00105187 -7.89561e-05)
(0.000111797 0.0010927 -8.23551e-05)
(4.1515e-05 0.00111381 -8.40088e-05)
(-3.03098e-05 0.00111471 -8.40972e-05)
(-0.000100654 0.00109539 -8.26216e-05)
(-0.00017 0.00105629 -7.93723e-05)
(-0.000229029 0.00100117 -7.65954e-05)
(-0.000288487 0.000932845 -5.81311e-05)
(-0.000341239 0.000866517 -3.64138e-05)
(-0.000548777 0.000786621 -2.90317e-05)
(-0.000393253 0.0002019 -7.27248e-05)
(-0.000117068 0.000137429 -6.58918e-05)
(-0.000149795 0.000199371 -4.60852e-05)
(-0.00012387 0.000187183 -3.67391e-05)
(-9.87554e-05 0.000162614 -2.91014e-05)
(-7.05196e-05 0.000138445 -2.51383e-05)
(-4.01981e-05 0.000121378 -2.2409e-05)
(-8.61087e-06 0.00011116 -1.64349e-05)
(4.30236e-06 0.000101314 -7.98103e-07)
(-1.91892e-06 6.20678e-05 4.47488e-07)
(1.01751e-05 6.86452e-05 -1.16826e-05)
(3.7949e-05 7.53834e-05 -1.60233e-05)
(6.64439e-05 8.73782e-05 -1.74666e-05)
(9.68423e-05 0.000107191 -1.9575e-05)
(0.000128715 0.000137228 -2.32691e-05)
(0.00015928 0.000180924 -2.88417e-05)
(0.000182521 0.000240363 -3.5213e-05)
(0.000152409 0.00031614 -5.21383e-05)
(0.000158569 0.000362121 -7.78149e-05)
(0.000257506 0.000685045 6.35065e-05)
(0.000299793 0.000881185 2.54054e-05)
(0.000362271 0.00101373 1.34151e-05)
(0.000319321 0.0011315 1.40783e-05)
(0.000242123 0.00121503 1.02199e-05)
(0.000151165 0.0012707 6.68672e-06)
(5.54356e-05 0.00129794 5.18481e-06)
(-4.19504e-05 0.00129897 5.18989e-06)
(-0.000137761 0.00127382 6.69758e-06)
(-0.000228977 0.0012203 1.02436e-05)
(-0.000306731 0.00113908 1.41127e-05)
(-0.000351145 0.00102377 1.35204e-05)
(-0.000292121 0.000893589 2.51597e-05)
(-0.000252586 0.000697871 6.22371e-05)
(-0.00015504 0.000375007 -7.58734e-05)
(-0.000146096 0.000330487 -5.32382e-05)
(-0.000168854 0.000254553 -3.79914e-05)
(-0.000138487 0.000196193 -3.2948e-05)
(-9.90056e-05 0.000155327 -2.88642e-05)
(-5.73531e-05 0.000130289 -2.58092e-05)
(-1.54918e-05 0.000116596 -1.86528e-05)
(3.00875e-06 0.000105367 8.30823e-09)
(-1.05758e-06 6.08805e-05 1.02901e-06)
(1.43532e-05 6.73503e-05 -1.28036e-05)
(4.85259e-05 7.41381e-05 -1.78014e-05)
(8.53875e-05 8.63167e-05 -1.95712e-05)
(0.000128314 0.000106615 -2.22569e-05)
(0.000181331 0.000137937 -2.69374e-05)
(0.000250123 0.000185014 -3.39156e-05)
(0.000348553 0.000253242 -4.07107e-05)
(0.000471542 0.000350661 -4.54431e-05)
(0.000721762 0.000477767 -3.11301e-05)
(0.000746351 0.000140034 4.53403e-05)
(0.00059131 0.000309704 5.45991e-05)
(0.000660871 0.00065981 0.000120999)
(0.000596329 0.000865262 0.000179312)
(0.000479817 0.00101317 0.000212592)
(0.00034429 0.00111188 0.000223763)
(0.000208263 0.0011732 0.00022676)
(7.42921e-05 0.00120241 0.00022753)
(-5.84462e-05 0.00120337 0.000227602)
(-0.000192358 0.00117612 0.000226978)
(-0.000328287 0.00111689 0.00022415)
(-0.000463616 0.00102052 0.000213224)
(-0.000579978 0.000875346 0.000180449)
(-0.000644324 0.00067307 0.000122697)
(-0.000572831 0.000325849 5.74109e-05)
(-0.000734637 0.000143787 4.76688e-05)
(-0.000716685 0.000482505 -3.02917e-05)
(-0.000461835 0.000360626 -4.66804e-05)
(-0.000333762 0.000265343 -4.35779e-05)
(-0.000227876 0.000199187 -3.86228e-05)
(-0.000148692 0.000155343 -3.35617e-05)
(-8.36529e-05 0.00012919 -2.97984e-05)
(-2.61028e-05 0.00011511 -2.1249e-05)
(5.15653e-07 0.000103916 9.54493e-07)
(-4.33184e-07 5.71401e-05 1.57338e-06)
(1.78426e-05 6.30599e-05 -1.38564e-05)
(5.74926e-05 6.89778e-05 -1.94986e-05)
(0.000100866 7.93178e-05 -2.15964e-05)
(0.000152288 9.5888e-05 -2.48314e-05)
(0.000216992 0.000119816 -3.04882e-05)
(0.000301717 0.000151699 -3.88487e-05)
(0.000419338 0.000189465 -4.79177e-05)
(0.000565543 0.00022307 -5.39459e-05)
(0.000785145 0.000238987 -4.70697e-05)
(0.000888028 0.0001239 -2.33018e-05)
(0.000886044 0.000300615 1.69964e-05)
(0.000874976 0.000487505 0.000132842)
(0.000749278 0.000625352 0.000205748)
(0.000592119 0.000732574 0.000243377)
(0.000418886 0.000805262 0.000258715)
(0.000250923 0.000851473 0.000263378)
(8.86044e-05 0.000873845 0.00026462)
(-7.09477e-05 0.000874631 0.000264687)
(-0.00023316 0.000853843 0.000263581)
(-0.000400934 0.000809255 0.000259084)
(-0.000573832 0.000738223 0.000244001)
(-0.000730858 0.000632636 0.000206919)
(-0.000856586 0.000495936 0.00013472)
(-0.000868201 0.000309187 2.03758e-05)
(-0.000874989 0.000127853 -2.11615e-05)
(-0.000776195 0.000246696 -4.65897e-05)
(-0.000554892 0.000232721 -5.52612e-05)
(-0.000403663 0.000200755 -5.10416e-05)
(-0.000277814 0.000165035 -4.41092e-05)
(-0.000181233 0.000136324 -3.80052e-05)
(-0.00010242 0.000117286 -3.34713e-05)
(-3.35218e-05 0.000106413 -2.35723e-05)
(-8.55474e-07 9.66893e-05 1.79362e-06)
(9.21178e-08 5.13302e-05 2.0913e-06)
(2.08231e-05 5.65219e-05 -1.47607e-05)
(6.51667e-05 6.13804e-05 -2.09624e-05)
(0.000113846 6.96511e-05 -2.33205e-05)
(0.000171652 8.2523e-05 -2.69958e-05)
(0.000244017 0.000100344 -3.35241e-05)
(0.000337623 0.000122609 -4.34118e-05)
(0.000463279 0.000147506 -5.55977e-05)
(0.000615991 0.000168621 -6.65896e-05)
(0.000807823 0.000184659 -6.94935e-05)
(0.000941702 0.000157079 -5.35423e-05)
(0.00101727 0.000244514 3.67092e-07)
(0.0010012 0.000354698 0.00011976)
(0.000853314 0.000446719 0.000189601)
(0.000669636 0.000520477 0.000224558)
(0.00047007 0.000570334 0.00023448)
(0.000280624 0.000602676 0.000235713)
(9.86472e-05 0.000618437 0.000235245)
(-7.95364e-05 0.000619084 0.000235281)
(-0.000261389 0.000604617 0.00023582)
(-0.000450621 0.000573567 0.000234687)
(-0.000649838 0.00052497 0.000224949)
(-0.000833503 0.000452404 0.000190479)
(-0.000981674 0.000361253 0.00012133)
(-0.00100005 0.000251616 3.46748e-06)
(-0.000928913 0.000162552 -5.17101e-05)
(-0.000797355 0.000191634 -6.89027e-05)
(-0.00060407 0.000177092 -6.78722e-05)
(-0.000446199 0.000157611 -5.88548e-05)
(-0.000311732 0.000134729 -4.90606e-05)
(-0.000205032 0.000115442 -4.17012e-05)
(-0.000116818 0.000101981 -3.6449e-05)
(-3.91893e-05 9.39667e-05 -2.54099e-05)
(-1.86944e-06 8.57556e-05 2.65052e-06)
(3.95962e-07 4.38334e-05 2.51154e-06)
(2.29408e-05 4.81146e-05 -1.55059e-05)
(7.07819e-05 5.17747e-05 -2.2166e-05)
(0.000123093 5.78123e-05 -2.47243e-05)
(0.000184756 6.69313e-05 -2.87254e-05)
(0.000260935 7.90374e-05 -3.58934e-05)
(0.000358111 9.33103e-05 -4.6882e-05)
(0.000485607 0.000108604 -6.10483e-05)
(0.000639858 0.000121311 -7.47393e-05)
(0.000823367 0.000134142 -8.09702e-05)
(0.000976014 0.000136296 -6.53447e-05)
(0.00108942 0.00018839 -1.42025e-05)
(0.00107517 0.000255493 0.000102506)
(0.000915069 0.000312468 0.000165466)
(0.000717353 0.000359294 0.000194951)
(0.00050289 0.000392104 0.00019982)
(0.000300189 0.000413909 0.000198086)
(0.000105403 0.000424728 0.000196136)
(-8.51155e-05 0.000425286 0.000196143)
(-0.000279796 0.00041557 0.000198106)
(-0.000482328 0.000394827 0.000199877)
(-0.000696516 0.000363 0.000195124)
(-0.000894384 0.000317053 0.000166069)
(-0.00105496 0.000260717 0.000103792)
(-0.0010722 0.000194123 -1.13111e-05)
(-0.000962946 0.00014172 -6.36379e-05)
(-0.000811787 0.000140589 -8.04574e-05)
(-0.000626767 0.000128865 -7.60958e-05)
(-0.000467107 0.000117517 -6.44644e-05)
(-0.000330243 0.000103995 -5.28411e-05)
(-0.000218958 9.22823e-05 -4.45617e-05)
(-0.000125582 8.37812e-05 -3.87601e-05)
(-4.23817e-05 7.84943e-05 -2.68355e-05)
(-2.19029e-06 7.20393e-05 3.27712e-06)
(5.80949e-07 3.52124e-05 2.83735e-06)
(2.44349e-05 3.8552e-05 -1.60886e-05)
(7.48397e-05 4.11732e-05 -2.3099e-05)
(0.000129692 4.53899e-05 -2.57997e-05)
(0.000193866 5.16619e-05 -3.00272e-05)
(0.00027225 5.98405e-05 -3.7637e-05)
(0.000371223 6.93275e-05 -4.93764e-05)
(0.000499339 7.96261e-05 -6.47998e-05)
(0.000654529 8.90676e-05 -8.01096e-05)
(0.000837138 0.000100376 -8.81807e-05)
(0.00100134 0.000110769 -7.26972e-05)
(0.00113307 0.000143785 -2.33829e-05)
(0.00112089 0.000184966 9.19404e-05)
(0.000954974 0.000221496 0.000150981)
(0.000748864 0.000252107 0.000177127)
(0.000524937 0.000274068 0.000178952)
(0.000313518 0.000288868 0.000175358)
(0.000110124 0.000296355 0.000172493)
(-8.87783e-05 0.000296875 0.000172486)
(-0.000292101 0.000290408 0.000175334)
(-0.000503423 0.000276566 0.000178933)
(-0.000727178 0.000255459 0.000177186)
(-0.000933599 0.000225572 0.000151435)
(-0.00110014 0.000189572 9.3059e-05)
(-0.00111562 0.000148814 -2.06103e-05)
(-0.000987888 0.000115874 -7.10959e-05)
(-0.000824758 0.000106149 -8.77402e-05)
(-0.000640484 9.56092e-05 -8.15566e-05)
(-0.000479589 8.72064e-05 -6.83585e-05)
(-0.000341622 7.83115e-05 -5.5575e-05)
(-0.000227751 7.08315e-05 -4.66644e-05)
(-0.000131185 6.54003e-05 -4.04742e-05)
(-4.42776e-05 6.19278e-05 -2.79018e-05)
(-2.27256e-06 5.7016e-05 3.73688e-06)
(6.59272e-07 2.58408e-05 3.049e-06)
(2.53702e-05 2.81981e-05 -1.65241e-05)
(7.74938e-05 2.98866e-05 -2.37817e-05)
(0.000133994 3.25471e-05 -2.65757e-05)
(0.000199727 3.64897e-05 -3.09447e-05)
(0.000279409 4.16285e-05 -3.88217e-05)
(0.000379456 4.76614e-05 -5.09974e-05)
(0.00050819 5.44907e-05 -6.70935e-05)
(0.00066472 6.15607e-05 -8.32197e-05)
(0.000848866 7.07803e-05 -9.21062e-05)
(0.00101982 8.143e-05 -7.68798e-05)
(0.00116074 0.000102304 -2.83429e-05)
(0.00114987 0.000127592 8.6984e-05)
(0.000980552 0.000150428 0.00014457)
(0.000769368 0.000169731 0.000169321)
(0.000539604 0.000183963 0.000169815)
(0.00032254 0.000193697 0.000165409)
(0.000113443 0.000198759 0.000162145)
(-9.10876e-05 0.000199275 0.000162135)
(-0.000300161 0.000195217 0.000165372)
(-0.000517225 0.000186408 0.00016977)
(-0.000746952 0.000172966 0.000169339)
(-0.000958617 0.000154283 0.000144964)
(-0.00112872 0.000131869 8.80271e-05)
(-0.00114303 0.000106862 -2.56658e-05)
(-0.00100604 8.60908e-05 -7.53685e-05)
(-0.000835942 7.58097e-05 -9.17549e-05)
(-0.00064998 6.70511e-05 -8.4772e-05)
(-0.000487496 6.0654e-05 -7.07894e-05)
(-0.000348542 5.47731e-05 -5.73928e-05)
(-0.000233035 5.01023e-05 -4.81217e-05)
(-0.000134502 4.6802e-05 -4.16943e-05)
(-4.52614e-05 4.46687e-05 -2.86862e-05)
(-2.1909e-06 4.12609e-05 3.99828e-06)
(6.79894e-07 1.60785e-05 3.15329e-06)
(2.58849e-05 1.74534e-05 -1.68195e-05)
(7.90307e-05 1.83175e-05 -2.42269e-05)
(0.000136518 1.96553e-05 -2.70743e-05)
(0.000203208 2.16782e-05 -3.15218e-05)
(0.000283752 2.4409e-05 -3.95446e-05)
(0.000384635 2.78225e-05 -5.19535e-05)
(0.00051415 3.20214e-05 -6.83896e-05)
(0.000672003 3.70034e-05 -8.49126e-05)
(0.000857866 4.36117e-05 -9.41606e-05)
(0.00103247 5.17269e-05 -7.90301e-05)
(0.00117766 6.36568e-05 -3.0592e-05)
(0.00116742 7.72434e-05 8.52291e-05)
(0.000996166 8.97021e-05 0.000142602)
(0.000782019 0.000100245 0.000167)
(0.000548819 0.000108269 0.000167081)
(0.000328311 0.000113858 0.000162411)
(0.000115708 0.000116914 0.000159017)
(-9.23233e-05 0.000117456 0.000159007)
(-0.000304962 0.00011545 0.000162376)
(-0.000525589 0.000110822 0.000167034)
(-0.000758929 0.000103582 0.00016701)
(-0.000973764 9.35921e-05 0.000142978)
(-0.001146 8.14464e-05 8.6238e-05)
(-0.00115983 6.79507e-05 -2.79816e-05)
(-0.00101856 5.59731e-05 -7.75989e-05)
(-0.000844687 4.79291e-05 -9.38994e-05)
(-0.000656895 4.14573e-05 -8.6569e-05)
(-0.000492911 3.6745e-05 -7.22085e-05)
(-0.00035293 3.29859e-05 -5.85061e-05)
(-0.000236237 3.02427e-05 -4.90455e-05)
(-0.00013644 2.84279e-05 -4.2488e-05)
(-4.5786e-05 2.72768e-05 -2.92189e-05)
(-2.10241e-06 2.52845e-05 4.11234e-06)
(6.5533e-07 6.1889e-06 3.14918e-06)
(2.60262e-05 6.57369e-06 -1.69815e-05)
(7.95508e-05 6.63897e-06 -2.44456e-05)
(0.000137439 6.71168e-06 -2.73108e-05)
(0.000204583 6.90993e-06 -3.17833e-05)
(0.00028566 7.36611e-06 -3.98511e-05)
(0.000387218 8.31078e-06 -5.23301e-05)
(0.000517596 9.99332e-06 -6.88603e-05)
(0.000676573 1.2834e-05 -8.54871e-05)
(0.000863713 1.66654e-05 -9.4835e-05)
(0.00103961 2.16923e-05 -7.97422e-05)
(0.00118564 2.5839e-05 -3.12471e-05)
(0.00117528 2.90285e-05 8.49731e-05)
(0.00100314 3.20416e-05 0.0001426)
(0.000787744 3.44879e-05 0.000167113)
(0.000553162 3.66909e-05 0.000167233)
(0.000331172 3.83606e-05 0.000162562)
(0.000117041 3.95586e-05 0.000159174)
(-9.2551e-05 4.01672e-05 0.000159168)
(-0.000306782 4.01458e-05 0.000162537)
(-0.000529039 3.94897e-05 0.000167181)
(-0.000763999 3.81082e-05 0.000167113)
(-0.000980356 3.61832e-05 0.000142952)
(-0.00115375 3.33868e-05 8.59429e-05)
(-0.0011679 3.00704e-05 -2.8713e-05)
(-0.0010258 2.56211e-05 -7.84025e-05)
(-0.000850581 2.03494e-05 -9.46781e-05)
(-0.000661451 1.6311e-05 -8.72572e-05)
(-0.000496253 1.33453e-05 -7.27941e-05)
(-0.000355293 1.15737e-05 -5.90073e-05)
(-0.000237779 1.0579e-05 -4.94926e-05)
(-0.000137286 1.01038e-05 -4.28945e-05)
(-4.59899e-05 9.85777e-06 -2.95213e-05)
(-2.04031e-06 9.28282e-06 4.08825e-06)
(5.86244e-07 -3.54859e-06 3.03837e-06)
(2.57941e-05 -4.15064e-06 -1.70112e-05)
(7.90534e-05 -4.91096e-06 -2.44402e-05)
(0.000136752 -6.16417e-06 -2.72895e-05)
(0.000203836 -7.90002e-06 -3.17357e-05)
(0.000285106 -9.89133e-06 -3.97524e-05)
(0.000387166 -1.16434e-05 -5.2146e-05)
(0.000518503 -1.26985e-05 -6.8539e-05)
(0.000678442 -1.20316e-05 -8.50056e-05)
(0.000866503 -1.06737e-05 -9.41905e-05)
(0.00104157 -7.69467e-06 -7.90998e-05)
(0.00118508 -1.11625e-05 -3.04732e-05)
(0.00117371 -1.90853e-05 8.59656e-05)
(0.00100165 -2.60955e-05 0.000144205)
(0.000786647 -3.22444e-05 0.000169219)
(0.000552669 -3.61158e-05 0.000169776)
(0.000331159 -3.84873e-05 0.000165372)
(0.000117508 -3.91922e-05 0.00016209)
(-9.17327e-05 -3.84769e-05 0.000162075)
(-0.000305624 -3.63861e-05 0.000165319)
(-0.000527607 -3.28239e-05 0.000169721)
(-0.000762219 -2.79967e-05 0.000169211)
(-0.000978508 -2.13038e-05 0.000144526)
(-0.00115219 -1.41633e-05 8.68677e-05)
(-0.00116766 -6.66474e-06 -2.80637e-05)
(-0.00102816 -3.87818e-06 -7.78889e-05)
(-0.000853749 -7.43816e-06 -9.41666e-05)
(-0.000663655 -9.35105e-06 -8.68955e-05)
(-0.000497482 -1.05536e-05 -7.25937e-05)
(-0.00035561 -1.01222e-05 -5.89312e-05)
(-0.000237656 -9.14287e-06 -4.9483e-05)
(-0.000137037 -8.11352e-06 -4.29249e-05)
(-4.58688e-05 -7.36667e-06 -2.95999e-05)
(-2.00137e-06 -6.51303e-06 3.92677e-06)
(4.57641e-07 -1.28622e-05 2.81926e-06)
(2.51418e-05 -1.44567e-05 -1.69067e-05)
(7.74394e-05 -1.61477e-05 -2.4206e-05)
(0.000134276 -1.89545e-05 -2.70024e-05)
(0.000200671 -2.30356e-05 -3.13658e-05)
(0.000281645 -2.8135e-05 -3.92217e-05)
(0.0003839 -3.35004e-05 -5.1346e-05)
(0.000516301 -3.82858e-05 -6.7298e-05)
(0.000677313 -4.02656e-05 -8.32103e-05)
(0.000866829 -4.07546e-05 -9.18422e-05)
(0.00103876 -3.64255e-05 -7.66361e-05)
(0.0011749 -4.84398e-05 -2.74596e-05)
(0.00116114 -7.08796e-05 8.94784e-05)
(0.000990416 -9.08739e-05 0.000149368)
(0.000777848 -0.000108042 0.000175795)
(0.000546906 -0.000119368 0.000177621)
(0.000328056 -0.000126543 0.00017394)
(0.000117032 -0.000129458 0.000171009)
(-8.97382e-05 -0.000128574 0.00017098)
(-0.000301102 -0.000123934 0.000173847)
(-0.000520645 -0.000115217 0.000177473)
(-0.000752605 -0.000102644 0.000175652)
(-0.000966935 -8.48122e-05 0.000149511)
(-0.00113985 -6.47303e-05 9.01761e-05)
(-0.00115816 -4.31549e-05 -2.52886e-05)
(-0.0010261 -3.24376e-05 -7.56325e-05)
(-0.000854756 -3.76935e-05 -9.20324e-05)
(-0.000663226 -3.80932e-05 -8.52886e-05)
(-0.000496056 -3.70569e-05 -7.14961e-05)
(-0.00035328 -3.34191e-05 -5.82192e-05)
(-0.000235396 -2.95423e-05 -4.89855e-05)
(-0.000135392 -2.63614e-05 -4.25609e-05)
(-4.52768e-05 -2.42689e-05 -2.94478e-05)
(-1.94577e-06 -2.1887e-05 3.61395e-06)
(2.2289e-07 -2.13875e-05 2.48519e-06)
(2.39381e-05 -2.39266e-05 -1.66655e-05)
(7.44356e-05 -2.66295e-05 -2.3737e-05)
(0.000129507 -3.12089e-05 -2.64377e-05)
(0.000194215 -3.80911e-05 -3.06432e-05)
(0.000273889 -4.713e-05 -3.81817e-05)
(0.000375467 -5.74382e-05 -4.97522e-05)
(0.000508781 -6.76437e-05 -6.47317e-05)
(0.000671395 -7.3537e-05 -7.93653e-05)
(0.000865345 -7.58328e-05 -8.64929e-05)
(0.00103133 -6.17926e-05 -7.13467e-05)
(0.00115129 -8.47789e-05 -2.11635e-05)
(0.00113269 -0.000130731 9.71784e-05)
(0.000965267 -0.000169676 0.000160679)
(0.000758323 -0.000202178 0.000190129)
(0.000534069 -0.000223555 0.00019472)
(0.000320943 -0.000237086 0.000192671)
(0.000115419 -0.000242818 0.000190511)
(-8.61844e-05 -0.000241652 0.000190442)
(-0.000292171 -0.000233613 0.00019245)
(-0.000506238 -0.00021799 0.000194348)
(-0.000731979 -0.000194806 0.00018967)
(-0.000941307 -0.000161316 0.000160427)
(-0.00111178 -0.000122168 9.74555e-05)
(-0.00113574 -7.77517e-05 -1.94303e-05)
(-0.00101985 -5.72141e-05 -7.06865e-05)
(-0.000854222 -7.24928e-05 -8.70478e-05)
(-0.000658308 -7.13905e-05 -8.17417e-05)
(-0.000489696 -6.68232e-05 -6.91375e-05)
(-0.000346318 -5.8288e-05 -5.67196e-05)
(-0.000229591 -5.01939e-05 -4.79274e-05)
(-0.000131479 -4.40439e-05 -4.1761e-05)
(-4.37796e-05 -4.02112e-05 -2.90507e-05)
(-1.71902e-06 -3.62914e-05 3.09758e-06)
(-1.19568e-07 -2.87556e-05 2.05771e-06)